<event>
 3    1  0.1620993E-001  0.1250000E+03  0.7546771E-02  0.1235069E+00
         21   -1    0    0  502  501  0.00000000000E+00  0.00000000000E+00  0.76437793191E+02  0.76437793191E+02  0.00000000000E+00 0. -1.
         21   -1    0    0  501  502 -0.00000000000E+00 -0.00000000000E+00 -0.51103646991E+02  0.51103646991E+02  0.00000000000E+00 0. -1.
         25    1    1    2    0    0  0.00000000000E+00  0.00000000000E+00  0.25334146199E+02  0.12754144018E+03  0.12500000000E+03 0.  0.
<mgrwt>
<rscale>  0 0.12500000E+03</rscale>
<asrwt>0</asrwt>
<pdfrwt beam="1">  1       21 0.11759661E-01 0.12500000E+03</pdfrwt>
<pdfrwt beam="2">  1       21 0.78620995E-02 0.12500000E+03</pdfrwt>
<totfact> 0.73695601E+06</totfact>
</mgrwt>
</event>
<event>
 3    1  0.1620993E-001  0.1250000E+03  0.7546771E-02  0.1235069E+00
         21   -1    0    0  502  501  0.00000000000E+00  0.00000000000E+00  0.13255252488E+03  0.13255252488E+03  0.00000000000E+00 0.  1.
         21   -1    0    0  501  502 -0.00000000000E+00 -0.00000000000E+00 -0.29469449968E+02  0.29469449968E+02  0.00000000000E+00 0.  1.
         25    1    1    2    0    0  0.00000000000E+00  0.00000000000E+00  0.10308307491E+03  0.16202197484E+03  0.12500000000E+03 0.  0.
<mgrwt>
<rscale>  0 0.12500000E+03</rscale>
<asrwt>0</asrwt>
<pdfrwt beam="1">  1       21 0.20392696E-01 0.12500000E+03</pdfrwt>
<pdfrwt beam="2">  1       21 0.45337616E-02 0.12500000E+03</pdfrwt>
<totfact> 0.69273273E+06</totfact>
</mgrwt>
</event>
<event>
 3    1  0.1620993E-001  0.1250000E+03  0.7546771E-02  0.1235069E+00
         21   -1    0    0  502  501  0.00000000000E+00  0.00000000000E+00  0.17411734531E+02  0.17411734531E+02  0.00000000000E+00 0.  1.
         21   -1    0    0  501  502 -0.00000000000E+00 -0.00000000000E+00 -0.22434582799E+03  0.22434582799E+03  0.00000000000E+00 0.  1.
         25    1    1    2    0    0  0.00000000000E+00  0.00000000000E+00 -0.20693409346E+03  0.24175756252E+03  0.12500000000E+03 0.  0.
<mgrwt>
<rscale>  0 0.12500000E+03</rscale>
<asrwt>0</asrwt>
<pdfrwt beam="1">  1       21 0.26787284E-02 0.12500000E+03</pdfrwt>
<pdfrwt beam="2">  1       21 0.34514742E-01 0.12500000E+03</pdfrwt>
<totfact> 0.60663001E+06</totfact>
</mgrwt>
</event>
<event>
 3    1  0.1620993E-001  0.1250000E+03  0.7546771E-02  0.1235069E+00
         21   -1    0    0  502  501  0.00000000000E+00  0.00000000000E+00  0.19228496376E+03  0.19228496376E+03  0.00000000000E+00 0. -1.
         21   -1    0    0  501  502 -0.00000000000E+00 -0.00000000000E+00 -0.20314900986E+02  0.20314900986E+02  0.00000000000E+00 0. -1.
         25    1    1    2    0    0  0.00000000000E+00  0.00000000000E+00  0.17197006278E+03  0.21259986475E+03  0.12500000000E+03 0.  0.
<mgrwt>
<rscale>  0 0.12500000E+03</rscale>
<asrwt>0</asrwt>
<pdfrwt beam="1">  1       21 0.29582301E-01 0.12500000E+03</pdfrwt>
<pdfrwt beam="2">  1       21 0.31253695E-02 0.12500000E+03</pdfrwt>
<totfact> 0.63587035E+06</totfact>
</mgrwt>
</event>
<event>
 3    1  0.1620993E-001  0.1250000E+03  0.7546771E-02  0.1235069E+00
         21   -1    0    0  502  501  0.00000000000E+00  0.00000000000E+00  0.22378006725E+03  0.22378006725E+03  0.00000000000E+00 0.  1.
         21   -1    0    0  501  502 -0.00000000000E+00 -0.00000000000E+00 -0.17455754876E+02  0.17455754876E+02  0.00000000000E+00 0.  1.
         25    1    1    2    0    0  0.00000000000E+00  0.00000000000E+00  0.20632431238E+03  0.24123582213E+03  0.12500000000E+03 0.  0.
<mgrwt>
<rscale>  0 0.12500000E+03</rscale>
<asrwt>0</asrwt>
<pdfrwt beam="1">  1       21 0.34427701E-01 0.12500000E+03</pdfrwt>
<pdfrwt beam="2">  1       21 0.26855009E-02 0.12500000E+03</pdfrwt>
<totfact> 0.60713280E+06</totfact>
</mgrwt>
</event>
<event>
 3    1  0.1620993E-001  0.1250000E+03  0.7546771E-02  0.1235069E+00
         21   -1    0    0  502  501  0.00000000000E+00  0.00000000000E+00  0.29092485793E+04  0.29092485793E+04  0.00000000000E+00 0.  1.
         21   -1    0    0  501  502 -0.00000000000E+00 -0.00000000000E+00 -0.13427006643E+01  0.13427006643E+01  0.00000000000E+00 0.  1.
         25    1    1    2    0    0  0.00000000000E+00  0.00000000000E+00  0.29079058786E+04  0.29105912799E+04  0.12500000000E+03 0.  0.
<mgrwt>
<rscale>  0 0.12500000E+03</rscale>
<asrwt>0</asrwt>
<pdfrwt beam="1">  1       21 0.44757166E+00 0.12500000E+03</pdfrwt>
<pdfrwt beam="2">  1       21 0.20657166E-03 0.12500000E+03</pdfrwt>
<totfact> 0.20433239E+05</totfact>
</mgrwt>
</event>
<event>
 3    1  0.1620993E-001  0.1250000E+03  0.7546771E-02  0.1235069E+00
         21   -1    0    0  502  501  0.00000000000E+00  0.00000000000E+00  0.48429805160E+03  0.48429805160E+03  0.00000000000E+00 0.  1.
         21   -1    0    0  501  502 -0.00000000000E+00 -0.00000000000E+00 -0.80657974714E+01  0.80657974714E+01  0.00000000000E+00 0.  1.
         25    1    1    2    0    0  0.00000000000E+00  0.00000000000E+00  0.47623225413E+03  0.49236384907E+03  0.12500000000E+03 0.  0.
<mgrwt>
<rscale>  0 0.12500000E+03</rscale>
<asrwt>0</asrwt>
<pdfrwt beam="1">  1       21 0.74507370E-01 0.12500000E+03</pdfrwt>
<pdfrwt beam="2">  1       21 0.12408923E-02 0.12500000E+03</pdfrwt>
<totfact> 0.42461255E+06</totfact>
</mgrwt>
</event>
<event>
 3    1  0.1620993E-001  0.1250000E+03  0.7546771E-02  0.1235069E+00
         21   -1    0    0  502  501  0.00000000000E+00  0.00000000000E+00  0.14601217950E+02  0.14601217950E+02  0.00000000000E+00 0. -1.
         21   -1    0    0  501  502 -0.00000000000E+00 -0.00000000000E+00 -0.26752905226E+03  0.26752905226E+03  0.00000000000E+00 0. -1.
         25    1    1    2    0    0  0.00000000000E+00  0.00000000000E+00 -0.25292783431E+03  0.28213027021E+03  0.12500000000E+03 0.  0.
<mgrwt>
<rscale>  0 0.12500000E+03</rscale>
<asrwt>0</asrwt>
<pdfrwt beam="1">  1       21 0.22463413E-02 0.12500000E+03</pdfrwt>
<pdfrwt beam="2">  1       21 0.41158315E-01 0.12500000E+03</pdfrwt>
<totfact> 0.56974702E+06</totfact>
</mgrwt>
</event>
<event>
 3    1  0.1620993E-001  0.1250000E+03  0.7546771E-02  0.1235069E+00
         21   -1    0    0  502  501  0.00000000000E+00  0.00000000000E+00  0.54109473430E+02  0.54109473430E+02  0.00000000000E+00 0. -1.
         21   -1    0    0  501  502 -0.00000000000E+00 -0.00000000000E+00 -0.72191609941E+02  0.72191609941E+02  0.00000000000E+00 0. -1.
         25    1    1    2    0    0  0.00000000000E+00  0.00000000000E+00 -0.18082136510E+02  0.12630108337E+03  0.12500000000E+03 0.  0.
<mgrwt>
<rscale>  0 0.12500000E+03</rscale>
<asrwt>0</asrwt>
<pdfrwt beam="1">  1       21 0.83245344E-02 0.12500000E+03</pdfrwt>
<pdfrwt beam="2">  1       21 0.11106402E-01 0.12500000E+03</pdfrwt>
<totfact> 0.73864630E+06</totfact>
</mgrwt>
</event>
<event>
 3    1  0.1620993E-001  0.1250000E+03  0.7546771E-02  0.1235069E+00
         21   -1    0    0  502  501  0.00000000000E+00  0.00000000000E+00  0.67152450437E+03  0.67152450437E+03  0.00000000000E+00 0. -1.
         21   -1    0    0  501  502 -0.00000000000E+00 -0.00000000000E+00 -0.58169880244E+01  0.58169880244E+01  0.00000000000E+00 0. -1.
         25    1    1    2    0    0  0.00000000000E+00  0.00000000000E+00  0.66570751635E+03  0.67734149240E+03  0.12500000000E+03 0.  0.
<mgrwt>
<rscale>  0 0.12500000E+03</rscale>
<asrwt>0</asrwt>
<pdfrwt beam="1">  1       21 0.10331140E+00 0.12500000E+03</pdfrwt>
<pdfrwt beam="2">  1       21 0.89492176E-03 0.12500000E+03</pdfrwt>
<totfact> 0.33802160E+06</totfact>
</mgrwt>
</event>
<event>
 3    1  0.1620993E-001  0.1250000E+03  0.7546771E-02  0.1235069E+00
         21   -1    0    0  502  501  0.00000000000E+00  0.00000000000E+00  0.85590115319E+01  0.85590115319E+01  0.00000000000E+00 0.  1.
         21   -1    0    0  501  502 -0.00000000000E+00 -0.00000000000E+00 -0.45639031861E+03  0.45639031861E+03  0.00000000000E+00 0.  1.
         25    1    1    2    0    0  0.00000000000E+00  0.00000000000E+00 -0.44783130707E+03  0.46494933014E+03  0.12500000000E+03 0.  0.
<mgrwt>
<rscale>  0 0.12500000E+03</rscale>
<asrwt>0</asrwt>
<pdfrwt beam="1">  1       21 0.13167708E-02 0.12500000E+03</pdfrwt>
<pdfrwt beam="2">  1       21 0.70213905E-01 0.12500000E+03</pdfrwt>
<totfact> 0.44011036E+06</totfact>
</mgrwt>
</event>
<event>
 3    1  0.1620993E-001  0.1250000E+03  0.7546771E-02  0.1235069E+00
         21   -1    0    0  502  501  0.00000000000E+00  0.00000000000E+00  0.34931927450E+02  0.34931927450E+02  0.00000000000E+00 0.  1.
         21   -1    0    0  501  502 -0.00000000000E+00 -0.00000000000E+00 -0.11182463394E+03  0.11182463394E+03  0.00000000000E+00 0.  1.
         25    1    1    2    0    0  0.00000000000E+00  0.00000000000E+00 -0.76892706491E+02  0.14675656139E+03  0.12500000000E+03 0.  0.
<mgrwt>
<rscale>  0 0.12500000E+03</rscale>
<asrwt>0</asrwt>
<pdfrwt beam="1">  1       21 0.53741427E-02 0.12500000E+03</pdfrwt>
<pdfrwt beam="2">  1       21 0.17203790E-01 0.12500000E+03</pdfrwt>
<totfact> 0.71169054E+06</totfact>
</mgrwt>
</event>
<event>
 3    1  0.1620993E-001  0.1250000E+03  0.7546771E-02  0.1235069E+00
         21   -1    0    0  502  501  0.00000000000E+00  0.00000000000E+00  0.87298410562E+03  0.87298410562E+03  0.00000000000E+00 0.  1.
         21   -1    0    0  501  502 -0.00000000000E+00 -0.00000000000E+00 -0.44745946402E+01  0.44745946402E+01  0.00000000000E+00 0.  1.
         25    1    1    2    0    0  0.00000000000E+00  0.00000000000E+00  0.86850951098E+03  0.87745870026E+03  0.12500000000E+03 0.  0.
<mgrwt>
<rscale>  0 0.12500000E+03</rscale>
<asrwt>0</asrwt>
<pdfrwt beam="1">  1       21 0.13430511E+00 0.12500000E+03</pdfrwt>
<pdfrwt beam="2">  1       21 0.68839987E-03 0.12500000E+03</pdfrwt>
<totfact> 0.26950842E+06</totfact>
</mgrwt>
</event>
<event>
 3    1  0.1620993E-001  0.1250000E+03  0.7546771E-02  0.1235069E+00
         21   -1    0    0  502  501  0.00000000000E+00  0.00000000000E+00  0.58378086878E+03  0.58378086878E+03  0.00000000000E+00 0.  1.
         21   -1    0    0  501  502 -0.00000000000E+00 -0.00000000000E+00 -0.66912949856E+01  0.66912949856E+01  0.00000000000E+00 0.  1.
         25    1    1    2    0    0  0.00000000000E+00  0.00000000000E+00  0.57708957380E+03  0.59047216377E+03  0.12500000000E+03 0.  0.
<mgrwt>
<rscale>  0 0.12500000E+03</rscale>
<asrwt>0</asrwt>
<pdfrwt beam="1">  1       21 0.89812401E-01 0.12500000E+03</pdfrwt>
<pdfrwt beam="2">  1       21 0.10294305E-02 0.12500000E+03</pdfrwt>
<totfact> 0.37527102E+06</totfact>
</mgrwt>
</event>
<event>
 3    1  0.1620993E-001  0.1250000E+03  0.7546771E-02  0.1235069E+00
         21   -1    0    0  502  501  0.00000000000E+00  0.00000000000E+00  0.89031319756E+02  0.89031319756E+02  0.00000000000E+00 0.  1.
         21   -1    0    0  501  502 -0.00000000000E+00 -0.00000000000E+00 -0.43875009499E+02  0.43875009499E+02  0.00000000000E+00 0.  1.
         25    1    1    2    0    0  0.00000000000E+00  0.00000000000E+00  0.45156310257E+02  0.13290632925E+03  0.12500000000E+03 0.  0.
<mgrwt>
<rscale>  0 0.12500000E+03</rscale>
<asrwt>0</asrwt>
<pdfrwt beam="1">  1       21 0.13697126E-01 0.12500000E+03</pdfrwt>
<pdfrwt beam="2">  1       21 0.67500015E-02 0.12500000E+03</pdfrwt>
<totfact> 0.72974909E+06</totfact>
</mgrwt>
</event>
<event>
 3    1  0.1620993E-001  0.1250000E+03  0.7546771E-02  0.1235069E+00
         21   -1    0    0  502  501  0.00000000000E+00  0.00000000000E+00  0.46189366515E+03  0.46189366515E+03  0.00000000000E+00 0. -1.
         21   -1    0    0  501  502 -0.00000000000E+00 -0.00000000000E+00 -0.84570330679E+01  0.84570330679E+01  0.00000000000E+00 0. -1.
         25    1    1    2    0    0  0.00000000000E+00  0.00000000000E+00  0.45343663208E+03  0.47035069822E+03  0.12500000000E+03 0.  0.
<mgrwt>
<rscale>  0 0.12500000E+03</rscale>
<asrwt>0</asrwt>
<pdfrwt beam="1">  1       21 0.71060544E-01 0.12500000E+03</pdfrwt>
<pdfrwt beam="2">  1       21 0.13010824E-02 0.12500000E+03</pdfrwt>
<totfact> 0.43699057E+06</totfact>
</mgrwt>
</event>
<event>
 3    1  0.1620993E-001  0.1250000E+03  0.7546771E-02  0.1235069E+00
         21   -1    0    0  502  501  0.00000000000E+00  0.00000000000E+00  0.12841399558E+03  0.12841399558E+03  0.00000000000E+00 0. -1.
         21   -1    0    0  501  502 -0.00000000000E+00 -0.00000000000E+00 -0.30419192100E+02  0.30419192100E+02  0.00000000000E+00 0. -1.
         25    1    1    2    0    0  0.00000000000E+00  0.00000000000E+00  0.97994803485E+02  0.15883318768E+03  0.12500000000E+03 0.  0.
<mgrwt>
<rscale>  0 0.12500000E+03</rscale>
<asrwt>0</asrwt>
<pdfrwt beam="1">  1       21 0.19755999E-01 0.12500000E+03</pdfrwt>
<pdfrwt beam="2">  1       21 0.46798758E-02 0.12500000E+03</pdfrwt>
<totfact> 0.69662350E+06</totfact>
</mgrwt>
</event>
<event>
 3    1  0.1620993E-001  0.1250000E+03  0.7546771E-02  0.1235069E+00
         21   -1    0    0  502  501  0.00000000000E+00  0.00000000000E+00  0.27420221917E+02  0.27420221917E+02  0.00000000000E+00 0.  1.
         21   -1    0    0  501  502 -0.00000000000E+00 -0.00000000000E+00 -0.14245873034E+03  0.14245873034E+03  0.00000000000E+00 0.  1.
         25    1    1    2    0    0  0.00000000000E+00  0.00000000000E+00 -0.11503850843E+03  0.16987895226E+03  0.12500000000E+03 0.  0.
<mgrwt>
<rscale>  0 0.12500000E+03</rscale>
<asrwt>0</asrwt>
<pdfrwt beam="1">  1       21 0.42184956E-02 0.12500000E+03</pdfrwt>
<pdfrwt beam="2">  1       21 0.21916728E-01 0.12500000E+03</pdfrwt>
<totfact> 0.68331987E+06</totfact>
</mgrwt>
</event>
<event>
 3    1  0.1620993E-001  0.1250000E+03  0.7546771E-02  0.1235069E+00
         21   -1    0    0  502  501  0.00000000000E+00  0.00000000000E+00  0.93113927468E+01  0.93113927468E+01  0.00000000000E+00 0.  1.
         21   -1    0    0  501  502 -0.00000000000E+00 -0.00000000000E+00 -0.41951296720E+03  0.41951296720E+03  0.00000000000E+00 0.  1.
         25    1    1    2    0    0  0.00000000000E+00  0.00000000000E+00 -0.41020157445E+03  0.42882435995E+03  0.12500000000E+03 0.  0.
<mgrwt>
<rscale>  0 0.12500000E+03</rscale>
<asrwt>0</asrwt>
<pdfrwt beam="1">  1       21 0.14325220E-02 0.12500000E+03</pdfrwt>
<pdfrwt beam="2">  1       21 0.64540454E-01 0.12500000E+03</pdfrwt>
<totfact> 0.46186437E+06</totfact>
</mgrwt>
</event>
<event>
 3    1  0.1620993E-001  0.1250000E+03  0.7546771E-02  0.1235069E+00
         21   -1    0    0  502  501  0.00000000000E+00  0.00000000000E+00  0.59345342910E+01  0.59345342910E+01  0.00000000000E+00 0.  1.
         21   -1    0    0  501  502 -0.00000000000E+00 -0.00000000000E+00 -0.65822351148E+03  0.65822351148E+03  0.00000000000E+00 0.  1.
         25    1    1    2    0    0  0.00000000000E+00  0.00000000000E+00 -0.65228897719E+03  0.66415804577E+03  0.12500000000E+03 0.  0.
<mgrwt>
<rscale>  0 0.12500000E+03</rscale>
<asrwt>0</asrwt>
<pdfrwt beam="1">  1       21 0.91300540E-03 0.12500000E+03</pdfrwt>
<pdfrwt beam="2">  1       21 0.10126514E+00 0.12500000E+03</pdfrwt>
<totfact> 0.34338221E+06</totfact>
</mgrwt>
</event>
<event>
 3    1  0.1620993E-001  0.1250000E+03  0.7546771E-02  0.1235069E+00
         21   -1    0    0  502  501  0.00000000000E+00  0.00000000000E+00  0.84841020147E+01  0.84841020147E+01  0.00000000000E+00 0.  1.
         21   -1    0    0  501  502 -0.00000000000E+00 -0.00000000000E+00 -0.46041997058E+03  0.46041997058E+03  0.00000000000E+00 0.  1.
         25    1    1    2    0    0  0.00000000000E+00  0.00000000000E+00 -0.45193586856E+03  0.46890407259E+03  0.12500000000E+03 0.  0.
<mgrwt>
<rscale>  0 0.12500000E+03</rscale>
<asrwt>0</asrwt>
<pdfrwt beam="1">  1       21 0.13052468E-02 0.12500000E+03</pdfrwt>
<pdfrwt beam="2">  1       21 0.70833825E-01 0.12500000E+03</pdfrwt>
<totfact> 0.43782288E+06</totfact>
</mgrwt>
</event>
<event>
 3    1  0.1620993E-001  0.1250000E+03  0.7546771E-02  0.1235069E+00
         21   -1    0    0  502  501  0.00000000000E+00  0.00000000000E+00  0.18451234417E+03  0.18451234417E+03  0.00000000000E+00 0. -1.
         21   -1    0    0  501  502 -0.00000000000E+00 -0.00000000000E+00 -0.21170670274E+02  0.21170670274E+02  0.00000000000E+00 0. -1.
         25    1    1    2    0    0  0.00000000000E+00  0.00000000000E+00  0.16334167390E+03  0.20568301444E+03  0.12500000000E+03 0.  0.
<mgrwt>
<rscale>  0 0.12500000E+03</rscale>
<asrwt>0</asrwt>
<pdfrwt beam="1">  1       21 0.28386513E-01 0.12500000E+03</pdfrwt>
<pdfrwt beam="2">  1       21 0.32570263E-02 0.12500000E+03</pdfrwt>
<totfact> 0.64316614E+06</totfact>
</mgrwt>
</event>
<event>
 3    1  0.1620993E-001  0.1250000E+03  0.7546771E-02  0.1235069E+00
         21   -1    0    0  502  501  0.00000000000E+00  0.00000000000E+00  0.91205614831E+02  0.91205614831E+02  0.00000000000E+00 0. -1.
         21   -1    0    0  501  502 -0.00000000000E+00 -0.00000000000E+00 -0.42829051777E+02  0.42829051777E+02  0.00000000000E+00 0. -1.
         25    1    1    2    0    0  0.00000000000E+00  0.00000000000E+00  0.48376563054E+02  0.13403466661E+03  0.12500000000E+03 0.  0.
<mgrwt>
<rscale>  0 0.12500000E+03</rscale>
<asrwt>0</asrwt>
<pdfrwt beam="1">  1       21 0.14031633E-01 0.12500000E+03</pdfrwt>
<pdfrwt beam="2">  1       21 0.65890849E-02 0.12500000E+03</pdfrwt>
<totfact> 0.72824544E+06</totfact>
</mgrwt>
</event>
<event>
 3    1  0.1620993E-001  0.1250000E+03  0.7546771E-02  0.1235069E+00
         21   -1    0    0  502  501  0.00000000000E+00  0.00000000000E+00  0.63187220953E+02  0.63187220953E+02  0.00000000000E+00 0.  1.
         21   -1    0    0  501  502 -0.00000000000E+00 -0.00000000000E+00 -0.61820253227E+02  0.61820253227E+02  0.00000000000E+00 0.  1.
         25    1    1    2    0    0  0.00000000000E+00  0.00000000000E+00  0.13669677260E+01  0.12500747418E+03  0.12500000000E+03 0.  0.
<mgrwt>
<rscale>  0 0.12500000E+03</rscale>
<asrwt>0</asrwt>
<pdfrwt beam="1">  1       21 0.97211110E-02 0.12500000E+03</pdfrwt>
<pdfrwt beam="2">  1       21 0.95108081E-02 0.12500000E+03</pdfrwt>
<totfact> 0.74042572E+06</totfact>
</mgrwt>
</event>
<event>
 3    1  0.1620993E-001  0.1250000E+03  0.7546771E-02  0.1235069E+00
         21   -1    0    0  502  501  0.00000000000E+00  0.00000000000E+00  0.30410748466E+03  0.30410748466E+03  0.00000000000E+00 0.  1.
         21   -1    0    0  501  502 -0.00000000000E+00 -0.00000000000E+00 -0.12844965011E+02  0.12844965011E+02  0.00000000000E+00 0.  1.
         25    1    1    2    0    0  0.00000000000E+00  0.00000000000E+00  0.29126251965E+03  0.31695244968E+03  0.12500000000E+03 0.  0.
<mgrwt>
<rscale>  0 0.12500000E+03</rscale>
<asrwt>0</asrwt>
<pdfrwt beam="1">  1       21 0.46785762E-01 0.12500000E+03</pdfrwt>
<pdfrwt beam="2">  1       21 0.19761487E-02 0.12500000E+03</pdfrwt>
<totfact> 0.54075735E+06</totfact>
</mgrwt>
</event>
<event>
 3    1  0.1620993E-001  0.1250000E+03  0.7546771E-02  0.1235069E+00
         21   -1    0    0  502  501  0.00000000000E+00  0.00000000000E+00  0.16469963328E+03  0.16469963328E+03  0.00000000000E+00 0.  1.
         21   -1    0    0  501  502 -0.00000000000E+00 -0.00000000000E+00 -0.23717417715E+02  0.23717417715E+02  0.00000000000E+00 0.  1.
         25    1    1    2    0    0  0.00000000000E+00  0.00000000000E+00  0.14098221557E+03  0.18841705100E+03  0.12500000000E+03 0.  0.
<mgrwt>
<rscale>  0 0.12500000E+03</rscale>
<asrwt>0</asrwt>
<pdfrwt beam="1">  1       21 0.25338404E-01 0.12500000E+03</pdfrwt>
<pdfrwt beam="2">  1       21 0.36488336E-02 0.12500000E+03</pdfrwt>
<totfact> 0.66198827E+06</totfact>
</mgrwt>
</event>
<event>
 3    1  0.1620993E-001  0.1250000E+03  0.7546771E-02  0.1235069E+00
         21   -1    0    0  502  501  0.00000000000E+00  0.00000000000E+00  0.26302930610E+02  0.26302930610E+02  0.00000000000E+00 0.  1.
         21   -1    0    0  501  502 -0.00000000000E+00 -0.00000000000E+00 -0.14851006749E+03  0.14851006749E+03  0.00000000000E+00 0.  1.
         25    1    1    2    0    0  0.00000000000E+00  0.00000000000E+00 -0.12220713688E+03  0.17481299810E+03  0.12500000000E+03 0.  0.
<mgrwt>
<rscale>  0 0.12500000E+03</rscale>
<asrwt>0</asrwt>
<pdfrwt beam="1">  1       21 0.40466048E-02 0.12500000E+03</pdfrwt>
<pdfrwt beam="2">  1       21 0.22847702E-01 0.12500000E+03</pdfrwt>
<totfact> 0.67751613E+06</totfact>
</mgrwt>
</event>
<event>
 3    1  0.1620993E-001  0.1250000E+03  0.7546771E-02  0.1235069E+00
         21   -1    0    0  502  501  0.00000000000E+00  0.00000000000E+00  0.48944897189E+02  0.48944897189E+02  0.00000000000E+00 0. -1.
         21   -1    0    0  501  502 -0.00000000000E+00 -0.00000000000E+00 -0.79809136893E+02  0.79809136893E+02  0.00000000000E+00 0. -1.
         25    1    1    2    0    0  0.00000000000E+00  0.00000000000E+00 -0.30864239704E+02  0.12875403408E+03  0.12500000000E+03 0.  0.
<mgrwt>
<rscale>  0 0.12500000E+03</rscale>
<asrwt>0</asrwt>
<pdfrwt beam="1">  1       21 0.75299842E-02 0.12500000E+03</pdfrwt>
<pdfrwt beam="2">  1       21 0.12278329E-01 0.12500000E+03</pdfrwt>
<totfact> 0.73531936E+06</totfact>
</mgrwt>
</event>
<event>
 3    1  0.1620993E-001  0.1250000E+03  0.7546771E-02  0.1235069E+00
         21   -1    0    0  502  501  0.00000000000E+00  0.00000000000E+00  0.11747795181E+02  0.11747795181E+02  0.00000000000E+00 0. -1.
         21   -1    0    0  501  502 -0.00000000000E+00 -0.00000000000E+00 -0.33250920193E+03  0.33250920193E+03  0.00000000000E+00 0. -1.
         25    1    1    2    0    0  0.00000000000E+00  0.00000000000E+00 -0.32076140675E+03  0.34425699711E+03  0.12500000000E+03 0.  0.
<mgrwt>
<rscale>  0 0.12500000E+03</rscale>
<asrwt>0</asrwt>
<pdfrwt beam="1">  1       21 0.18073533E-02 0.12500000E+03</pdfrwt>
<pdfrwt beam="2">  1       21 0.51155255E-01 0.12500000E+03</pdfrwt>
<totfact> 0.51965388E+06</totfact>
</mgrwt>
</event>
<event>
 3    1  0.1620993E-001  0.1250000E+03  0.7546771E-02  0.1235069E+00
         21   -1    0    0  502  501  0.00000000000E+00  0.00000000000E+00  0.27302556864E+02  0.27302556864E+02  0.00000000000E+00 0. -1.
         21   -1    0    0  501  502 -0.00000000000E+00 -0.00000000000E+00 -0.14307268068E+03  0.14307268068E+03  0.00000000000E+00 0. -1.
         25    1    1    2    0    0  0.00000000000E+00  0.00000000000E+00 -0.11577012381E+03  0.17037523754E+03  0.12500000000E+03 0.  0.
<mgrwt>
<rscale>  0 0.12500000E+03</rscale>
<asrwt>0</asrwt>
<pdfrwt beam="1">  1       21 0.42003934E-02 0.12500000E+03</pdfrwt>
<pdfrwt beam="2">  1       21 0.22011181E-01 0.12500000E+03</pdfrwt>
<totfact> 0.68273181E+06</totfact>
</mgrwt>
</event>
<event>
 3    1  0.1620993E-001  0.1250000E+03  0.7546771E-02  0.1235069E+00
         21   -1    0    0  502  501  0.00000000000E+00  0.00000000000E+00  0.43346025345E+02  0.43346025345E+02  0.00000000000E+00 0.  1.
         21   -1    0    0  501  502 -0.00000000000E+00 -0.00000000000E+00 -0.90117835925E+02  0.90117835925E+02  0.00000000000E+00 0.  1.
         25    1    1    2    0    0  0.00000000000E+00  0.00000000000E+00 -0.46771810580E+02  0.13346386127E+03  0.12500000000E+03 0.  0.
<mgrwt>
<rscale>  0 0.12500000E+03</rscale>
<asrwt>0</asrwt>
<pdfrwt beam="1">  1       21 0.66686193E-02 0.12500000E+03</pdfrwt>
<pdfrwt beam="2">  1       21 0.13864282E-01 0.12500000E+03</pdfrwt>
<totfact> 0.72900520E+06</totfact>
</mgrwt>
</event>
<event>
 3    1  0.1620993E-001  0.1250000E+03  0.7546771E-02  0.1235069E+00
         21   -1    0    0  502  501  0.00000000000E+00  0.00000000000E+00  0.86602942160E+03  0.86602942160E+03  0.00000000000E+00 0.  1.
         21   -1    0    0  501  502 -0.00000000000E+00 -0.00000000000E+00 -0.45105280520E+01  0.45105280520E+01  0.00000000000E+00 0.  1.
         25    1    1    2    0    0  0.00000000000E+00  0.00000000000E+00  0.86151889354E+03  0.87053994965E+03  0.12500000000E+03 0.  0.
<mgrwt>
<rscale>  0 0.12500000E+03</rscale>
<asrwt>0</asrwt>
<pdfrwt beam="1">  1       21 0.13323516E+00 0.12500000E+03</pdfrwt>
<pdfrwt beam="2">  1       21 0.69392808E-03 0.12500000E+03</pdfrwt>
<totfact> 0.27154378E+06</totfact>
</mgrwt>
</event>
<event>
 3    1  0.1620993E-001  0.1250000E+03  0.7546771E-02  0.1235069E+00
         21   -1    0    0  502  501  0.00000000000E+00  0.00000000000E+00  0.53896726698E+01  0.53896726698E+01  0.00000000000E+00 0. -1.
         21   -1    0    0  501  502 -0.00000000000E+00 -0.00000000000E+00 -0.72476572128E+03  0.72476572128E+03  0.00000000000E+00 0. -1.
         25    1    1    2    0    0  0.00000000000E+00  0.00000000000E+00 -0.71937604861E+03  0.73015539395E+03  0.12500000000E+03 0.  0.
<mgrwt>
<rscale>  0 0.12500000E+03</rscale>
<asrwt>0</asrwt>
<pdfrwt beam="1">  1       21 0.82918044E-03 0.12500000E+03</pdfrwt>
<pdfrwt beam="2">  1       21 0.11150241E+00 0.12500000E+03</pdfrwt>
<totfact> 0.31779450E+06</totfact>
</mgrwt>
</event>
<event>
 3    1  0.1620993E-001  0.1250000E+03  0.7546771E-02  0.1235069E+00
         21   -1    0    0  502  501  0.00000000000E+00  0.00000000000E+00  0.78624027082E+03  0.78624027082E+03  0.00000000000E+00 0.  1.
         21   -1    0    0  501  502 -0.00000000000E+00 -0.00000000000E+00 -0.49682649757E+01  0.49682649757E+01  0.00000000000E+00 0.  1.
         25    1    1    2    0    0  0.00000000000E+00  0.00000000000E+00  0.78127200584E+03  0.79120853579E+03  0.12500000000E+03 0.  0.
<mgrwt>
<rscale>  0 0.12500000E+03</rscale>
<asrwt>0</asrwt>
<pdfrwt beam="1">  1       21 0.12095994E+00 0.12500000E+03</pdfrwt>
<pdfrwt beam="2">  1       21 0.76434908E-03 0.12500000E+03</pdfrwt>
<totfact> 0.29656201E+06</totfact>
</mgrwt>
</event>
<event>
 3    1  0.1620993E-001  0.1250000E+03  0.7546771E-02  0.1235069E+00
         21   -1    0    0  502  501  0.00000000000E+00  0.00000000000E+00  0.10944014114E+03  0.10944014114E+03  0.00000000000E+00 0.  1.
         21   -1    0    0  501  502 -0.00000000000E+00 -0.00000000000E+00 -0.35693027797E+02  0.35693027797E+02  0.00000000000E+00 0.  1.
         25    1    1    2    0    0  0.00000000000E+00  0.00000000000E+00  0.73747113347E+02  0.14513316894E+03  0.12500000000E+03 0.  0.
<mgrwt>
<rscale>  0 0.12500000E+03</rscale>
<asrwt>0</asrwt>
<pdfrwt beam="1">  1       21 0.16836945E-01 0.12500000E+03</pdfrwt>
<pdfrwt beam="2">  1       21 0.54912351E-02 0.12500000E+03</pdfrwt>
<totfact> 0.71376061E+06</totfact>
</mgrwt>
</event>
<event>
 3    1  0.1620993E-001  0.1250000E+03  0.7546771E-02  0.1235069E+00
         21   -1    0    0  502  501  0.00000000000E+00  0.00000000000E+00  0.87360022457E+03  0.87360022457E+03  0.00000000000E+00 0.  1.
         21   -1    0    0  501  502 -0.00000000000E+00 -0.00000000000E+00 -0.44714388689E+01  0.44714388689E+01  0.00000000000E+00 0.  1.
         25    1    1    2    0    0  0.00000000000E+00  0.00000000000E+00  0.86912878570E+03  0.87807166343E+03  0.12500000000E+03 0.  0.
<mgrwt>
<rscale>  0 0.12500000E+03</rscale>
<asrwt>0</asrwt>
<pdfrwt beam="1">  1       21 0.13439990E+00 0.12500000E+03</pdfrwt>
<pdfrwt beam="2">  1       21 0.68791437E-03 0.12500000E+03</pdfrwt>
<totfact> 0.26932914E+06</totfact>
</mgrwt>
</event>
<event>
 3    1  0.1620993E-001  0.1250000E+03  0.7546771E-02  0.1235069E+00
         21   -1    0    0  502  501  0.00000000000E+00  0.00000000000E+00  0.17072204140E+03  0.17072204140E+03  0.00000000000E+00 0.  1.
         21   -1    0    0  501  502 -0.00000000000E+00 -0.00000000000E+00 -0.22880759672E+02  0.22880759672E+02  0.00000000000E+00 0.  1.
         25    1    1    2    0    0  0.00000000000E+00  0.00000000000E+00  0.14784128173E+03  0.19360280107E+03  0.12500000000E+03 0.  0.
<mgrwt>
<rscale>  0 0.12500000E+03</rscale>
<asrwt>0</asrwt>
<pdfrwt beam="1">  1       21 0.26264929E-01 0.12500000E+03</pdfrwt>
<pdfrwt beam="2">  1       21 0.35201170E-02 0.12500000E+03</pdfrwt>
<totfact> 0.65624267E+06</totfact>
</mgrwt>
</event>
<event>
 3    1  0.1620993E-001  0.1250000E+03  0.7546771E-02  0.1235069E+00
         21   -1    0    0  502  501  0.00000000000E+00  0.00000000000E+00  0.20731838046E+04  0.20731838046E+04  0.00000000000E+00 0. -1.
         21   -1    0    0  501  502 -0.00000000000E+00 -0.00000000000E+00 -0.18841792953E+01  0.18841792953E+01  0.00000000000E+00 0. -1.
         25    1    1    2    0    0  0.00000000000E+00  0.00000000000E+00  0.20712996253E+04  0.20750679839E+04  0.12500000000E+03 0.  0.
<mgrwt>
<rscale>  0 0.12500000E+03</rscale>
<asrwt>0</asrwt>
<pdfrwt beam="1">  1       21 0.31894953E+00 0.12500000E+03</pdfrwt>
<pdfrwt beam="2">  1       21 0.28987540E-03 0.12500000E+03</pdfrwt>
<totfact> 0.72391462E+05</totfact>
</mgrwt>
</event>
<event>
 3    1  0.1620993E-001  0.1250000E+03  0.7546771E-02  0.1235069E+00
         21   -1    0    0  502  501  0.00000000000E+00  0.00000000000E+00  0.23041671829E+03  0.23041671829E+03  0.00000000000E+00 0. -1.
         21   -1    0    0  501  502 -0.00000000000E+00 -0.00000000000E+00 -0.16952979927E+02  0.16952979927E+02  0.00000000000E+00 0. -1.
         25    1    1    2    0    0  0.00000000000E+00  0.00000000000E+00  0.21346373837E+03  0.24736969822E+03  0.12500000000E+03 0.  0.
<mgrwt>
<rscale>  0 0.12500000E+03</rscale>
<asrwt>0</asrwt>
<pdfrwt beam="1">  1       21 0.35448724E-01 0.12500000E+03</pdfrwt>
<pdfrwt beam="2">  1       21 0.26081509E-02 0.12500000E+03</pdfrwt>
<totfact> 0.60126717E+06</totfact>
</mgrwt>
</event>
<event>
 3    1  0.1620993E-001  0.1250000E+03  0.7546771E-02  0.1235069E+00
         21   -1    0    0  502  501  0.00000000000E+00  0.00000000000E+00  0.24889138434E+02  0.24889138434E+02  0.00000000000E+00 0.  1.
         21   -1    0    0  501  502 -0.00000000000E+00 -0.00000000000E+00 -0.15694597104E+03  0.15694597104E+03  0.00000000000E+00 0.  1.
         25    1    1    2    0    0  0.00000000000E+00  0.00000000000E+00 -0.13205683261E+03  0.18183510948E+03  0.12500000000E+03 0.  0.
<mgrwt>
<rscale>  0 0.12500000E+03</rscale>
<asrwt>0</asrwt>
<pdfrwt beam="1">  1       21 0.38290982E-02 0.12500000E+03</pdfrwt>
<pdfrwt beam="2">  1       21 0.24145534E-01 0.12500000E+03</pdfrwt>
<totfact> 0.66941640E+06</totfact>
</mgrwt>
</event>
<event>
 3    1  0.1620993E-001  0.1250000E+03  0.7546771E-02  0.1235069E+00
         21   -1    0    0  502  501  0.00000000000E+00  0.00000000000E+00  0.25427542699E+02  0.25427542699E+02  0.00000000000E+00 0. -1.
         21   -1    0    0  501  502 -0.00000000000E+00 -0.00000000000E+00 -0.15362278794E+03  0.15362278794E+03  0.00000000000E+00 0. -1.
         25    1    1    2    0    0  0.00000000000E+00  0.00000000000E+00 -0.12819524524E+03  0.17905033064E+03  0.12500000000E+03 0.  0.
<mgrwt>
<rscale>  0 0.12500000E+03</rscale>
<asrwt>0</asrwt>
<pdfrwt beam="1">  1       21 0.39119297E-02 0.12500000E+03</pdfrwt>
<pdfrwt beam="2">  1       21 0.23634275E-01 0.12500000E+03</pdfrwt>
<totfact> 0.67260647E+06</totfact>
</mgrwt>
</event>
<event>
 3    1  0.1620993E-001  0.1250000E+03  0.7546771E-02  0.1235069E+00
         21   -1    0    0  502  501  0.00000000000E+00  0.00000000000E+00  0.16901754983E+03  0.16901754983E+03  0.00000000000E+00 0.  1.
         21   -1    0    0  501  502 -0.00000000000E+00 -0.00000000000E+00 -0.23111505308E+02  0.23111505308E+02  0.00000000000E+00 0.  1.
         25    1    1    2    0    0  0.00000000000E+00  0.00000000000E+00  0.14590604452E+03  0.19212905514E+03  0.12500000000E+03 0.  0.
<mgrwt>
<rscale>  0 0.12500000E+03</rscale>
<asrwt>0</asrwt>
<pdfrwt beam="1">  1       21 0.26002699E-01 0.12500000E+03</pdfrwt>
<pdfrwt beam="2">  1       21 0.35556163E-02 0.12500000E+03</pdfrwt>
<totfact> 0.65786618E+06</totfact>
</mgrwt>
</event>
<event>
 3    1  0.1620993E-001  0.1250000E+03  0.7546771E-02  0.1235069E+00
         21   -1    0    0  502  501  0.00000000000E+00  0.00000000000E+00  0.18003417414E+03  0.18003417414E+03  0.00000000000E+00 0. -1.
         21   -1    0    0  501  502 -0.00000000000E+00 -0.00000000000E+00 -0.21697269525E+02  0.21697269525E+02  0.00000000000E+00 0. -1.
         25    1    1    2    0    0  0.00000000000E+00  0.00000000000E+00  0.15833690462E+03  0.20173144367E+03  0.12500000000E+03 0.  0.
<mgrwt>
<rscale>  0 0.12500000E+03</rscale>
<asrwt>0</asrwt>
<pdfrwt beam="1">  1       21 0.27697564E-01 0.12500000E+03</pdfrwt>
<pdfrwt beam="2">  1       21 0.33380416E-02 0.12500000E+03</pdfrwt>
<totfact> 0.64740121E+06</totfact>
</mgrwt>
</event>
<event>
 3    1  0.1620993E-001  0.1250000E+03  0.7546771E-02  0.1235069E+00
         21   -1    0    0  502  501  0.00000000000E+00  0.00000000000E+00  0.10877307536E+02  0.10877307536E+02  0.00000000000E+00 0. -1.
         21   -1    0    0  501  502 -0.00000000000E+00 -0.00000000000E+00 -0.35911920178E+03  0.35911920178E+03  0.00000000000E+00 0. -1.
         25    1    1    2    0    0  0.00000000000E+00  0.00000000000E+00 -0.34824189424E+03  0.36999650932E+03  0.12500000000E+03 0.  0.
<mgrwt>
<rscale>  0 0.12500000E+03</rscale>
<asrwt>0</asrwt>
<pdfrwt beam="1">  1       21 0.16734319E-02 0.12500000E+03</pdfrwt>
<pdfrwt beam="2">  1       21 0.55249109E-01 0.12500000E+03</pdfrwt>
<totfact> 0.50094695E+06</totfact>
</mgrwt>
</event>
<event>
 3    1  0.1620993E-001  0.1250000E+03  0.7546771E-02  0.1235069E+00
         21   -1    0    0  502  501  0.00000000000E+00  0.00000000000E+00  0.12093906943E+03  0.12093906943E+03  0.00000000000E+00 0. -1.
         21   -1    0    0  501  502 -0.00000000000E+00 -0.00000000000E+00 -0.32299322448E+02  0.32299322448E+02  0.00000000000E+00 0. -1.
         25    1    1    2    0    0  0.00000000000E+00  0.00000000000E+00  0.88639746981E+02  0.15323839188E+03  0.12500000000E+03 0.  0.
<mgrwt>
<rscale>  0 0.12500000E+03</rscale>
<asrwt>0</asrwt>
<pdfrwt beam="1">  1       21 0.18606010E-01 0.12500000E+03</pdfrwt>
<pdfrwt beam="2">  1       21 0.49691266E-02 0.12500000E+03</pdfrwt>
<totfact> 0.70354731E+06</totfact>
</mgrwt>
</event>
<event>
 3    1  0.1620993E-001  0.1250000E+03  0.7546771E-02  0.1235069E+00
         21   -1    0    0  502  501  0.00000000000E+00  0.00000000000E+00  0.24053479279E+03  0.24053479279E+03  0.00000000000E+00 0. -1.
         21   -1    0    0  501  502 -0.00000000000E+00 -0.00000000000E+00 -0.16239854346E+02  0.16239854346E+02  0.00000000000E+00 0. -1.
         25    1    1    2    0    0  0.00000000000E+00  0.00000000000E+00  0.22429493844E+03  0.25677464714E+03  0.12500000000E+03 0.  0.
<mgrwt>
<rscale>  0 0.12500000E+03</rscale>
<asrwt>0</asrwt>
<pdfrwt beam="1">  1       21 0.37005350E-01 0.12500000E+03</pdfrwt>
<pdfrwt beam="2">  1       21 0.24984393E-02 0.12500000E+03</pdfrwt>
<totfact> 0.59246166E+06</totfact>
</mgrwt>
</event>
<event>
 3    1  0.1620993E-001  0.1250000E+03  0.7546771E-02  0.1235069E+00
         21   -1    0    0  502  501  0.00000000000E+00  0.00000000000E+00  0.10228345097E+04  0.10228345097E+04  0.00000000000E+00 0. -1.
         21   -1    0    0  501  502 -0.00000000000E+00 -0.00000000000E+00 -0.38190440027E+01  0.38190440027E+01  0.00000000000E+00 0. -1.
         25    1    1    2    0    0  0.00000000000E+00  0.00000000000E+00  0.10190154657E+04  0.10266535537E+04  0.12500000000E+03 0.  0.
<mgrwt>
<rscale>  0 0.12500000E+03</rscale>
<asrwt>0</asrwt>
<pdfrwt beam="1">  1       21 0.15735894E+00 0.12500000E+03</pdfrwt>
<pdfrwt beam="2">  1       21 0.58754605E-03 0.12500000E+03</pdfrwt>
<totfact> 0.22960415E+06</totfact>
</mgrwt>
</event>
<event>
 3    1  0.1620993E-001  0.1250000E+03  0.7546771E-02  0.1235069E+00
         21   -1    0    0  502  501  0.00000000000E+00  0.00000000000E+00  0.94583727944E+01  0.94583727944E+01  0.00000000000E+00 0. -1.
         21   -1    0    0  501  502 -0.00000000000E+00 -0.00000000000E+00 -0.41299387166E+03  0.41299387166E+03  0.00000000000E+00 0. -1.
         25    1    1    2    0    0  0.00000000000E+00  0.00000000000E+00 -0.40353549887E+03  0.42245224446E+03  0.12500000000E+03 0.  0.
<mgrwt>
<rscale>  0 0.12500000E+03</rscale>
<asrwt>0</asrwt>
<pdfrwt beam="1">  1       21 0.14551343E-02 0.12500000E+03</pdfrwt>
<pdfrwt beam="2">  1       21 0.63537518E-01 0.12500000E+03</pdfrwt>
<totfact> 0.46586922E+06</totfact>
</mgrwt>
</event>
<event>
 3    1  0.1620993E-001  0.1250000E+03  0.7546771E-02  0.1235069E+00
         21   -1    0    0  502  501  0.00000000000E+00  0.00000000000E+00  0.25673424561E+03  0.25673424561E+03  0.00000000000E+00 0. -1.
         21   -1    0    0  501  502 -0.00000000000E+00 -0.00000000000E+00 -0.15215149778E+02  0.15215149778E+02  0.00000000000E+00 0. -1.
         25    1    1    2    0    0  0.00000000000E+00  0.00000000000E+00  0.24151909583E+03  0.27194939539E+03  0.12500000000E+03 0.  0.
<mgrwt>
<rscale>  0 0.12500000E+03</rscale>
<asrwt>0</asrwt>
<pdfrwt beam="1">  1       21 0.39497573E-01 0.12500000E+03</pdfrwt>
<pdfrwt beam="2">  1       21 0.23407925E-02 0.12500000E+03</pdfrwt>
<totfact> 0.57870934E+06</totfact>
</mgrwt>
</event>
<event>
 3    1  0.1620993E-001  0.1250000E+03  0.7546771E-02  0.1235069E+00
         21   -1    0    0  502  501  0.00000000000E+00  0.00000000000E+00  0.98585911880E+02  0.98585911880E+02  0.00000000000E+00 0. -1.
         21   -1    0    0  501  502 -0.00000000000E+00 -0.00000000000E+00 -0.39622801326E+02  0.39622801326E+02  0.00000000000E+00 0. -1.
         25    1    1    2    0    0  0.00000000000E+00  0.00000000000E+00  0.58963110553E+02  0.13820871321E+03  0.12500000000E+03 0.  0.
<mgrwt>
<rscale>  0 0.12500000E+03</rscale>
<asrwt>0</asrwt>
<pdfrwt beam="1">  1       21 0.15167063E-01 0.12500000E+03</pdfrwt>
<pdfrwt beam="2">  1       21 0.60958156E-02 0.12500000E+03</pdfrwt>
<totfact> 0.72274028E+06</totfact>
</mgrwt>
</event>
<event>
 3    1  0.1620993E-001  0.1250000E+03  0.7546771E-02  0.1235069E+00
         21   -1    0    0  502  501  0.00000000000E+00  0.00000000000E+00  0.14385821326E+02  0.14385821326E+02  0.00000000000E+00 0. -1.
         21   -1    0    0  501  502 -0.00000000000E+00 -0.00000000000E+00 -0.27153472239E+03  0.27153472239E+03  0.00000000000E+00 0. -1.
         25    1    1    2    0    0  0.00000000000E+00  0.00000000000E+00 -0.25714890106E+03  0.28592054371E+03  0.12500000000E+03 0.  0.
<mgrwt>
<rscale>  0 0.12500000E+03</rscale>
<asrwt>0</asrwt>
<pdfrwt beam="1">  1       21 0.22132032E-02 0.12500000E+03</pdfrwt>
<pdfrwt beam="2">  1       21 0.41774574E-01 0.12500000E+03</pdfrwt>
<totfact> 0.56646911E+06</totfact>
</mgrwt>
</event>
<event>
 3    1  0.1620993E-001  0.1250000E+03  0.7546771E-02  0.1235069E+00
         21   -1    0    0  502  501  0.00000000000E+00  0.00000000000E+00  0.12258993709E+02  0.12258993709E+02  0.00000000000E+00 0.  1.
         21   -1    0    0  501  502 -0.00000000000E+00 -0.00000000000E+00 -0.31864360914E+03  0.31864360914E+03  0.00000000000E+00 0.  1.
         25    1    1    2    0    0  0.00000000000E+00  0.00000000000E+00 -0.30638461543E+03  0.33090260285E+03  0.12500000000E+03 0.  0.
<mgrwt>
<rscale>  0 0.12500000E+03</rscale>
<asrwt>0</asrwt>
<pdfrwt beam="1">  1       21 0.18859993E-02 0.12500000E+03</pdfrwt>
<pdfrwt beam="2">  1       21 0.49022087E-01 0.12500000E+03</pdfrwt>
<totfact> 0.52980523E+06</totfact>
</mgrwt>
</event>
<event>
 3    1  0.1620993E-001  0.1250000E+03  0.7546771E-02  0.1235069E+00
         21   -1    0    0  502  501  0.00000000000E+00  0.00000000000E+00  0.35671036814E+01  0.35671036814E+01  0.00000000000E+00 0. -1.
         21   -1    0    0  501  502 -0.00000000000E+00 -0.00000000000E+00 -0.10950761034E+04  0.10950761034E+04  0.00000000000E+00 0. -1.
         25    1    1    2    0    0  0.00000000000E+00  0.00000000000E+00 -0.10915089998E+04  0.10986432071E+04  0.12500000000E+03 0.  0.
<mgrwt>
<rscale>  0 0.12500000E+03</rscale>
<asrwt>0</asrwt>
<pdfrwt beam="1">  1       21 0.54878472E-03 0.12500000E+03</pdfrwt>
<pdfrwt beam="2">  1       21 0.16847339E+00 0.12500000E+03</pdfrwt>
<totfact> 0.21281583E+06</totfact>
</mgrwt>
</event>
<event>
 3    1  0.1620993E-001  0.1250000E+03  0.7546771E-02  0.1235069E+00
         21   -1    0    0  502  501  0.00000000000E+00  0.00000000000E+00  0.57143987902E+02  0.57143987902E+02  0.00000000000E+00 0. -1.
         21   -1    0    0  501  502 -0.00000000000E+00 -0.00000000000E+00 -0.68358022312E+02  0.68358022312E+02  0.00000000000E+00 0. -1.
         25    1    1    2    0    0  0.00000000000E+00  0.00000000000E+00 -0.11214034410E+02  0.12550201021E+03  0.12500000000E+03 0.  0.
<mgrwt>
<rscale>  0 0.12500000E+03</rscale>
<asrwt>0</asrwt>
<pdfrwt beam="1">  1       21 0.87913828E-02 0.12500000E+03</pdfrwt>
<pdfrwt beam="2">  1       21 0.10516619E-01 0.12500000E+03</pdfrwt>
<totfact> 0.73975115E+06</totfact>
</mgrwt>
</event>
<event>
 3    1  0.1620993E-001  0.1250000E+03  0.7546771E-02  0.1235069E+00
         21   -1    0    0  502  501  0.00000000000E+00  0.00000000000E+00  0.16709904263E+02  0.16709904263E+02  0.00000000000E+00 0.  1.
         21   -1    0    0  501  502 -0.00000000000E+00 -0.00000000000E+00 -0.23376854461E+03  0.23376854461E+03  0.00000000000E+00 0.  1.
         25    1    1    2    0    0  0.00000000000E+00  0.00000000000E+00 -0.21705864034E+03  0.25047844887E+03  0.12500000000E+03 0.  0.
<mgrwt>
<rscale>  0 0.12500000E+03</rscale>
<asrwt>0</asrwt>
<pdfrwt beam="1">  1       21 0.25707548E-02 0.12500000E+03</pdfrwt>
<pdfrwt beam="2">  1       21 0.35964388E-01 0.12500000E+03</pdfrwt>
<totfact> 0.59833175E+06</totfact>
</mgrwt>
</event>
<event>
 3    1  0.1620993E-001  0.1250000E+03  0.7546771E-02  0.1235069E+00
         21   -1    0    0  502  501  0.00000000000E+00  0.00000000000E+00  0.59321276184E+01  0.59321276184E+01  0.00000000000E+00 0. -1.
         21   -1    0    0  501  502 -0.00000000000E+00 -0.00000000000E+00 -0.65849055368E+03  0.65849055368E+03  0.00000000000E+00 0. -1.
         25    1    1    2    0    0  0.00000000000E+00  0.00000000000E+00 -0.65255842607E+03  0.66442268130E+03  0.12500000000E+03 0.  0.
<mgrwt>
<rscale>  0 0.12500000E+03</rscale>
<asrwt>0</asrwt>
<pdfrwt beam="1">  1       21 0.91263488E-03 0.12500000E+03</pdfrwt>
<pdfrwt beam="2">  1       21 0.10130625E+00 0.12500000E+03</pdfrwt>
<totfact> 0.34327329E+06</totfact>
</mgrwt>
</event>
<event>
 3    1  0.1620993E-001  0.1250000E+03  0.7546771E-02  0.1235069E+00
         21   -1    0    0  502  501  0.00000000000E+00  0.00000000000E+00  0.13470930490E+02  0.13470930490E+02  0.00000000000E+00 0.  1.
         21   -1    0    0  501  502 -0.00000000000E+00 -0.00000000000E+00 -0.28997625687E+03  0.28997625687E+03  0.00000000000E+00 0.  1.
         25    1    1    2    0    0  0.00000000000E+00  0.00000000000E+00 -0.27650532638E+03  0.30344718736E+03  0.12500000000E+03 0.  0.
<mgrwt>
<rscale>  0 0.12500000E+03</rscale>
<asrwt>0</asrwt>
<pdfrwt beam="1">  1       21 0.20724510E-02 0.12500000E+03</pdfrwt>
<pdfrwt beam="2">  1       21 0.44611728E-01 0.12500000E+03</pdfrwt>
<totfact> 0.55170912E+06</totfact>
</mgrwt>
</event>
<event>
 3    1  0.1620993E-001  0.1250000E+03  0.7546771E-02  0.1235069E+00
         21   -1    0    0  502  501  0.00000000000E+00  0.00000000000E+00  0.11115751090E+02  0.11115751090E+02  0.00000000000E+00 0.  1.
         21   -1    0    0  501  502 -0.00000000000E+00 -0.00000000000E+00 -0.35141574946E+03  0.35141574946E+03  0.00000000000E+00 0.  1.
         25    1    1    2    0    0  0.00000000000E+00  0.00000000000E+00 -0.34029999837E+03  0.36253150055E+03  0.12500000000E+03 0.  0.
<mgrwt>
<rscale>  0 0.12500000E+03</rscale>
<asrwt>0</asrwt>
<pdfrwt beam="1">  1       21 0.17101155E-02 0.12500000E+03</pdfrwt>
<pdfrwt beam="2">  1       21 0.54063965E-01 0.12500000E+03</pdfrwt>
<totfact> 0.50626052E+06</totfact>
</mgrwt>
</event>
<event>
 3    1  0.1620993E-001  0.1250000E+03  0.7546771E-02  0.1235069E+00
         21   -1    0    0  502  501  0.00000000000E+00  0.00000000000E+00  0.11371197079E+03  0.11371197079E+03  0.00000000000E+00 0.  1.
         21   -1    0    0  501  502 -0.00000000000E+00 -0.00000000000E+00 -0.34352144044E+02  0.34352144044E+02  0.00000000000E+00 0.  1.
         25    1    1    2    0    0  0.00000000000E+00  0.00000000000E+00  0.79359826741E+02  0.14806411483E+03  0.12500000000E+03 0.  0.
<mgrwt>
<rscale>  0 0.12500000E+03</rscale>
<asrwt>0</asrwt>
<pdfrwt beam="1">  1       21 0.17494149E-01 0.12500000E+03</pdfrwt>
<pdfrwt beam="2">  1       21 0.52849453E-02 0.12500000E+03</pdfrwt>
<totfact> 0.71003238E+06</totfact>
</mgrwt>
</event>
<event>
 3    1  0.1620993E-001  0.1250000E+03  0.7546771E-02  0.1235069E+00
         21   -1    0    0  502  501  0.00000000000E+00  0.00000000000E+00  0.15551671076E+01  0.15551671076E+01  0.00000000000E+00 0. -1.
         21   -1    0    0  501  502 -0.00000000000E+00 -0.00000000000E+00 -0.25117879494E+04  0.25117879494E+04  0.00000000000E+00 0. -1.
         25    1    1    2    0    0  0.00000000000E+00  0.00000000000E+00 -0.25102327822E+04  0.25133431165E+04  0.12500000000E+03 0.  0.
<mgrwt>
<rscale>  0 0.12500000E+03</rscale>
<asrwt>0</asrwt>
<pdfrwt beam="1">  1       21 0.23925481E-03 0.12500000E+03</pdfrwt>
<pdfrwt beam="2">  1       21 0.38643162E+00 0.12500000E+03</pdfrwt>
<totfact> 0.39414701E+05</totfact>
</mgrwt>
</event>
<event>
 3    1  0.1620993E-001  0.1250000E+03  0.7546771E-02  0.1235069E+00
         21   -1    0    0  502  501  0.00000000000E+00  0.00000000000E+00  0.46665786566E+03  0.46665786566E+03  0.00000000000E+00 0. -1.
         21   -1    0    0  501  502 -0.00000000000E+00 -0.00000000000E+00 -0.83706935797E+01  0.83706935797E+01  0.00000000000E+00 0. -1.
         25    1    1    2    0    0  0.00000000000E+00  0.00000000000E+00  0.45828717208E+03  0.47502855924E+03  0.12500000000E+03 0.  0.
<mgrwt>
<rscale>  0 0.12500000E+03</rscale>
<asrwt>0</asrwt>
<pdfrwt beam="1">  1       21 0.71793498E-01 0.12500000E+03</pdfrwt>
<pdfrwt beam="2">  1       21 0.12877994E-02 0.12500000E+03</pdfrwt>
<totfact> 0.43431538E+06</totfact>
</mgrwt>
</event>
<event>
 3    1  0.1620993E-001  0.1250000E+03  0.7546771E-02  0.1235069E+00
         21   -1    0    0  502  501  0.00000000000E+00  0.00000000000E+00  0.39209598531E+03  0.39209598531E+03  0.00000000000E+00 0. -1.
         21   -1    0    0  501  502 -0.00000000000E+00 -0.00000000000E+00 -0.99624840507E+01  0.99624840507E+01  0.00000000000E+00 0. -1.
         25    1    1    2    0    0  0.00000000000E+00  0.00000000000E+00  0.38213350126E+03  0.40205846936E+03  0.12500000000E+03 0.  0.
<mgrwt>
<rscale>  0 0.12500000E+03</rscale>
<asrwt>0</asrwt>
<pdfrwt beam="1">  1       21 0.60322447E-01 0.12500000E+03</pdfrwt>
<pdfrwt beam="2">  1       21 0.15326902E-02 0.12500000E+03</pdfrwt>
<totfact> 0.47905119E+06</totfact>
</mgrwt>
</event>
<event>
 3    1  0.1620993E-001  0.1250000E+03  0.7546771E-02  0.1235069E+00
         21   -1    0    0  502  501  0.00000000000E+00  0.00000000000E+00  0.20439042728E+03  0.20439042728E+03  0.00000000000E+00 0. -1.
         21   -1    0    0  501  502 -0.00000000000E+00 -0.00000000000E+00 -0.19111707197E+02  0.19111707197E+02  0.00000000000E+00 0. -1.
         25    1    1    2    0    0  0.00000000000E+00  0.00000000000E+00  0.18527872009E+03  0.22350213448E+03  0.12500000000E+03 0.  0.
<mgrwt>
<rscale>  0 0.12500000E+03</rscale>
<asrwt>0</asrwt>
<pdfrwt beam="1">  1       21 0.31444680E-01 0.12500000E+03</pdfrwt>
<pdfrwt beam="2">  1       21 0.29402628E-02 0.12500000E+03</pdfrwt>
<totfact> 0.62466354E+06</totfact>
</mgrwt>
</event>
<event>
 3    1  0.1620993E-001  0.1250000E+03  0.7546771E-02  0.1235069E+00
         21   -1    0    0  502  501  0.00000000000E+00  0.00000000000E+00  0.81978946067E+02  0.81978946067E+02  0.00000000000E+00 0.  1.
         21   -1    0    0  501  502 -0.00000000000E+00 -0.00000000000E+00 -0.47649429365E+02  0.47649429365E+02  0.00000000000E+00 0.  1.
         25    1    1    2    0    0  0.00000000000E+00  0.00000000000E+00  0.34329516702E+02  0.12962837543E+03  0.12500000000E+03 0.  0.
<mgrwt>
<rscale>  0 0.12500000E+03</rscale>
<asrwt>0</asrwt>
<pdfrwt beam="1">  1       21 0.12612145E-01 0.12500000E+03</pdfrwt>
<pdfrwt beam="2">  1       21 0.73306815E-02 0.12500000E+03</pdfrwt>
<totfact> 0.73414624E+06</totfact>
</mgrwt>
</event>
<event>
 3    1  0.1620993E-001  0.1250000E+03  0.7546771E-02  0.1235069E+00
         21   -1    0    0  502  501  0.00000000000E+00  0.00000000000E+00  0.58112829767E+01  0.58112829767E+01  0.00000000000E+00 0. -1.
         21   -1    0    0  501  502 -0.00000000000E+00 -0.00000000000E+00 -0.67218375282E+03  0.67218375282E+03  0.00000000000E+00 0. -1.
         25    1    1    2    0    0  0.00000000000E+00  0.00000000000E+00 -0.66637246984E+03  0.67799503580E+03  0.12500000000E+03 0.  0.
<mgrwt>
<rscale>  0 0.12500000E+03</rscale>
<asrwt>0</asrwt>
<pdfrwt beam="1">  1       21 0.89404388E-03 0.12500000E+03</pdfrwt>
<pdfrwt beam="2">  1       21 0.10341284E+00 0.12500000E+03</pdfrwt>
<totfact> 0.33775907E+06</totfact>
</mgrwt>
</event>
<event>
 3    1  0.1620993E-001  0.1250000E+03  0.7546771E-02  0.1235069E+00
         21   -1    0    0  502  501  0.00000000000E+00  0.00000000000E+00  0.20359165567E+03  0.20359165567E+03  0.00000000000E+00 0.  1.
         21   -1    0    0  501  502 -0.00000000000E+00 -0.00000000000E+00 -0.19186690079E+02  0.19186690079E+02  0.00000000000E+00 0.  1.
         25    1    1    2    0    0  0.00000000000E+00  0.00000000000E+00  0.18440496559E+03  0.22277834575E+03  0.12500000000E+03 0.  0.
<mgrwt>
<rscale>  0 0.12500000E+03</rscale>
<asrwt>0</asrwt>
<pdfrwt beam="1">  1       21 0.31321792E-01 0.12500000E+03</pdfrwt>
<pdfrwt beam="2">  1       21 0.29517986E-02 0.12500000E+03</pdfrwt>
<totfact> 0.62539676E+06</totfact>
</mgrwt>
</event>
<event>
 3    1  0.1620993E-001  0.1250000E+03  0.7546771E-02  0.1235069E+00
         21   -1    0    0  502  501  0.00000000000E+00  0.00000000000E+00  0.19067630885E+03  0.19067630885E+03  0.00000000000E+00 0.  1.
         21   -1    0    0  501  502 -0.00000000000E+00 -0.00000000000E+00 -0.20486289165E+02  0.20486289165E+02  0.00000000000E+00 0.  1.
         25    1    1    2    0    0  0.00000000000E+00  0.00000000000E+00  0.17019001968E+03  0.21116259801E+03  0.12500000000E+03 0.  0.
<mgrwt>
<rscale>  0 0.12500000E+03</rscale>
<asrwt>0</asrwt>
<pdfrwt beam="1">  1       21 0.29334816E-01 0.12500000E+03</pdfrwt>
<pdfrwt beam="2">  1       21 0.31517369E-02 0.12500000E+03</pdfrwt>
<totfact> 0.63737425E+06</totfact>
</mgrwt>
</event>
<event>
 3    1  0.1620993E-001  0.1250000E+03  0.7546771E-02  0.1235069E+00
         21   -1    0    0  502  501  0.00000000000E+00  0.00000000000E+00  0.62009031383E+03  0.62009031383E+03  0.00000000000E+00 0.  1.
         21   -1    0    0  501  502 -0.00000000000E+00 -0.00000000000E+00 -0.62994855957E+01  0.62994855957E+01  0.00000000000E+00 0.  1.
         25    1    1    2    0    0  0.00000000000E+00  0.00000000000E+00  0.61379082824E+03  0.62638979943E+03  0.12500000000E+03 0.  0.
<mgrwt>
<rscale>  0 0.12500000E+03</rscale>
<asrwt>0</asrwt>
<pdfrwt beam="1">  1       21 0.95398462E-01 0.12500000E+03</pdfrwt>
<pdfrwt beam="2">  1       21 0.96915212E-03 0.12500000E+03</pdfrwt>
<totfact> 0.35925755E+06</totfact>
</mgrwt>
</event>
<event>
 3    1  0.1620993E-001  0.1250000E+03  0.7546771E-02  0.1235069E+00
         21   -1    0    0  502  501  0.00000000000E+00  0.00000000000E+00  0.12876191940E+03  0.12876191940E+03  0.00000000000E+00 0. -1.
         21   -1    0    0  501  502 -0.00000000000E+00 -0.00000000000E+00 -0.30336997291E+02  0.30336997291E+02  0.00000000000E+00 0. -1.
         25    1    1    2    0    0  0.00000000000E+00  0.00000000000E+00  0.98424922109E+02  0.15909891669E+03  0.12500000000E+03 0.  0.
<mgrwt>
<rscale>  0 0.12500000E+03</rscale>
<asrwt>0</asrwt>
<pdfrwt beam="1">  1       21 0.19809526E-01 0.12500000E+03</pdfrwt>
<pdfrwt beam="2">  1       21 0.46672304E-02 0.12500000E+03</pdfrwt>
<totfact> 0.69629767E+06</totfact>
</mgrwt>
</event>
<event>
 3    1  0.1620993E-001  0.1250000E+03  0.7546771E-02  0.1235069E+00
         21   -1    0    0  502  501  0.00000000000E+00  0.00000000000E+00  0.35608559571E+03  0.35608559571E+03  0.00000000000E+00 0.  1.
         21   -1    0    0  501  502 -0.00000000000E+00 -0.00000000000E+00 -0.10969974768E+02  0.10969974768E+02  0.00000000000E+00 0.  1.
         25    1    1    2    0    0  0.00000000000E+00  0.00000000000E+00  0.34511562094E+03  0.36705557048E+03  0.12500000000E+03 0.  0.
<mgrwt>
<rscale>  0 0.12500000E+03</rscale>
<asrwt>0</asrwt>
<pdfrwt beam="1">  1       21 0.54782391E-01 0.12500000E+03</pdfrwt>
<pdfrwt beam="2">  1       21 0.16876887E-02 0.12500000E+03</pdfrwt>
<totfact> 0.50302976E+06</totfact>
</mgrwt>
</event>
<event>
 3    1  0.1620993E-001  0.1250000E+03  0.7546771E-02  0.1235069E+00
         21   -1    0    0  502  501  0.00000000000E+00  0.00000000000E+00  0.25014111888E+01  0.25014111888E+01  0.00000000000E+00 0. -1.
         21   -1    0    0  501  502 -0.00000000000E+00 -0.00000000000E+00 -0.15616185046E+04  0.15616185046E+04  0.00000000000E+00 0. -1.
         25    1    1    2    0    0  0.00000000000E+00  0.00000000000E+00 -0.15591170934E+04  0.15641199158E+04  0.12500000000E+03 0.  0.
<mgrwt>
<rscale>  0 0.12500000E+03</rscale>
<asrwt>0</asrwt>
<pdfrwt beam="1">  1       21 0.38483159E-03 0.12500000E+03</pdfrwt>
<pdfrwt beam="2">  1       21 0.24024956E+00 0.12500000E+03</pdfrwt>
<totfact> 0.13068355E+06</totfact>
</mgrwt>
</event>
<event>
 3    1  0.1620993E-001  0.1250000E+03  0.7546771E-02  0.1235069E+00
         21   -1    0    0  502  501  0.00000000000E+00  0.00000000000E+00  0.27368987657E+03  0.27368987657E+03  0.00000000000E+00 0. -1.
         21   -1    0    0  501  502 -0.00000000000E+00 -0.00000000000E+00 -0.14272541056E+02  0.14272541056E+02  0.00000000000E+00 0. -1.
         25    1    1    2    0    0  0.00000000000E+00  0.00000000000E+00  0.25941733551E+03  0.28796241762E+03  0.12500000000E+03 0.  0.
<mgrwt>
<rscale>  0 0.12500000E+03</rscale>
<asrwt>0</asrwt>
<pdfrwt beam="1">  1       21 0.42106131E-01 0.12500000E+03</pdfrwt>
<pdfrwt beam="2">  1       21 0.21957758E-02 0.12500000E+03</pdfrwt>
<totfact> 0.56471621E+06</totfact>
</mgrwt>
</event>
<event>
 3    1  0.1620993E-001  0.1250000E+03  0.7546771E-02  0.1235069E+00
         21   -1    0    0  502  501  0.00000000000E+00  0.00000000000E+00  0.11114207562E+03  0.11114207562E+03  0.00000000000E+00 0.  1.
         21   -1    0    0  501  502 -0.00000000000E+00 -0.00000000000E+00 -0.35146455364E+02  0.35146455364E+02  0.00000000000E+00 0.  1.
         25    1    1    2    0    0  0.00000000000E+00  0.00000000000E+00  0.75995620260E+02  0.14628853099E+03  0.12500000000E+03 0.  0.
<mgrwt>
<rscale>  0 0.12500000E+03</rscale>
<asrwt>0</asrwt>
<pdfrwt beam="1">  1       21 0.17098781E-01 0.12500000E+03</pdfrwt>
<pdfrwt beam="2">  1       21 0.54071470E-02 0.12500000E+03</pdfrwt>
<totfact> 0.71228605E+06</totfact>
</mgrwt>
</event>
<event>
 3    1  0.1620993E-001  0.1250000E+03  0.7546771E-02  0.1235069E+00
         21   -1    0    0  502  501  0.00000000000E+00  0.00000000000E+00  0.47523688463E+03  0.47523688463E+03  0.00000000000E+00 0. -1.
         21   -1    0    0  501  502 -0.00000000000E+00 -0.00000000000E+00 -0.82195850667E+01  0.82195850667E+01  0.00000000000E+00 0. -1.
         25    1    1    2    0    0  0.00000000000E+00  0.00000000000E+00  0.46701729956E+03  0.48345646969E+03  0.12500000000E+03 0.  0.
<mgrwt>
<rscale>  0 0.12500000E+03</rscale>
<asrwt>0</asrwt>
<pdfrwt beam="1">  1       21 0.73113345E-01 0.12500000E+03</pdfrwt>
<pdfrwt beam="2">  1       21 0.12645519E-02 0.12500000E+03</pdfrwt>
<totfact> 0.42955719E+06</totfact>
</mgrwt>
</event>
<event>
 3    1  0.1620993E-001  0.1250000E+03  0.7546771E-02  0.1235069E+00
         21   -1    0    0  502  501  0.00000000000E+00  0.00000000000E+00  0.96424700190E+02  0.96424700190E+02  0.00000000000E+00 0. -1.
         21   -1    0    0  501  502 -0.00000000000E+00 -0.00000000000E+00 -0.40510885616E+02  0.40510885616E+02  0.00000000000E+00 0. -1.
         25    1    1    2    0    0  0.00000000000E+00  0.00000000000E+00  0.55913814574E+02  0.13693558581E+03  0.12500000000E+03 0.  0.
<mgrwt>
<rscale>  0 0.12500000E+03</rscale>
<asrwt>0</asrwt>
<pdfrwt beam="1">  1       21 0.14834569E-01 0.12500000E+03</pdfrwt>
<pdfrwt beam="2">  1       21 0.62324440E-02 0.12500000E+03</pdfrwt>
<totfact> 0.72441189E+06</totfact>
</mgrwt>
</event>
<event>
 3    1  0.1620993E-001  0.1250000E+03  0.7546771E-02  0.1235069E+00
         21   -1    0    0  502  501  0.00000000000E+00  0.00000000000E+00  0.55174505651E+02  0.55174505651E+02  0.00000000000E+00 0. -1.
         21   -1    0    0  501  502 -0.00000000000E+00 -0.00000000000E+00 -0.70798096945E+02  0.70798096945E+02  0.00000000000E+00 0. -1.
         25    1    1    2    0    0  0.00000000000E+00  0.00000000000E+00 -0.15623591294E+02  0.12597260260E+03  0.12500000000E+03 0.  0.
<mgrwt>
<rscale>  0 0.12500000E+03</rscale>
<asrwt>0</asrwt>
<pdfrwt beam="1">  1       21 0.84883855E-02 0.12500000E+03</pdfrwt>
<pdfrwt beam="2">  1       21 0.10892015E-01 0.12500000E+03</pdfrwt>
<totfact> 0.73909817E+06</totfact>
</mgrwt>
</event>
<event>
 3    1  0.1620993E-001  0.1250000E+03  0.7546771E-02  0.1235069E+00
         21   -1    0    0  502  501  0.00000000000E+00  0.00000000000E+00  0.22419161071E+03  0.22419161071E+03  0.00000000000E+00 0.  1.
         21   -1    0    0  501  502 -0.00000000000E+00 -0.00000000000E+00 -0.17423711742E+02  0.17423711742E+02  0.00000000000E+00 0.  1.
         25    1    1    2    0    0  0.00000000000E+00  0.00000000000E+00  0.20676789897E+03  0.24161532246E+03  0.12500000000E+03 0.  0.
<mgrwt>
<rscale>  0 0.12500000E+03</rscale>
<asrwt>0</asrwt>
<pdfrwt beam="1">  1       21 0.34491015E-01 0.12500000E+03</pdfrwt>
<pdfrwt beam="2">  1       21 0.26805712E-02 0.12500000E+03</pdfrwt>
<totfact> 0.60676702E+06</totfact>
</mgrwt>
</event>
<event>
 3    1  0.1620993E-001  0.1250000E+03  0.7546771E-02  0.1235069E+00
         21   -1    0    0  502  501  0.00000000000E+00  0.00000000000E+00  0.77283109866E+02  0.77283109866E+02  0.00000000000E+00 0. -1.
         21   -1    0    0  501  502 -0.00000000000E+00 -0.00000000000E+00 -0.50544679255E+02  0.50544679255E+02  0.00000000000E+00 0. -1.
         25    1    1    2    0    0  0.00000000000E+00  0.00000000000E+00  0.26738430610E+02  0.12782778912E+03  0.12500000000E+03 0.  0.
<mgrwt>
<rscale>  0 0.12500000E+03</rscale>
<asrwt>0</asrwt>
<pdfrwt beam="1">  1       21 0.11889709E-01 0.12500000E+03</pdfrwt>
<pdfrwt beam="2">  1       21 0.77761045E-02 0.12500000E+03</pdfrwt>
<totfact> 0.73656836E+06</totfact>
</mgrwt>
</event>
<event>
 3    1  0.1620993E-001  0.1250000E+03  0.7546771E-02  0.1235069E+00
         21   -1    0    0  502  501  0.00000000000E+00  0.00000000000E+00  0.52409836674E+03  0.52409836674E+03  0.00000000000E+00 0. -1.
         21   -1    0    0  501  502 -0.00000000000E+00 -0.00000000000E+00 -0.74532764227E+01  0.74532764227E+01  0.00000000000E+00 0. -1.
         25    1    1    2    0    0  0.00000000000E+00  0.00000000000E+00  0.51664509032E+03  0.53155164316E+03  0.12500000000E+03 0.  0.
<mgrwt>
<rscale>  0 0.12500000E+03</rscale>
<asrwt>0</asrwt>
<pdfrwt beam="1">  1       21 0.80630489E-01 0.12500000E+03</pdfrwt>
<pdfrwt beam="2">  1       21 0.11466583E-02 0.12500000E+03</pdfrwt>
<totfact> 0.40383078E+06</totfact>
</mgrwt>
</event>
<event>
 3    1  0.1620993E-001  0.1250000E+03  0.7546771E-02  0.1235069E+00
         21   -1    0    0  502  501  0.00000000000E+00  0.00000000000E+00  0.29868111401E+02  0.29868111401E+02  0.00000000000E+00 0.  1.
         21   -1    0    0  501  502 -0.00000000000E+00 -0.00000000000E+00 -0.13078329418E+03  0.13078329418E+03  0.00000000000E+00 0.  1.
         25    1    1    2    0    0  0.00000000000E+00  0.00000000000E+00 -0.10091518278E+03  0.16065140558E+03  0.12500000000E+03 0.  0.
<mgrwt>
<rscale>  0 0.12500000E+03</rscale>
<asrwt>0</asrwt>
<pdfrwt beam="1">  1       21 0.45950940E-02 0.12500000E+03</pdfrwt>
<pdfrwt beam="2">  1       21 0.20120507E-01 0.12500000E+03</pdfrwt>
<totfact> 0.69439988E+06</totfact>
</mgrwt>
</event>
<event>
 3    1  0.1620993E-001  0.1250000E+03  0.7546771E-02  0.1235069E+00
         21   -1    0    0  502  501  0.00000000000E+00  0.00000000000E+00  0.10162192987E+04  0.10162192987E+04  0.00000000000E+00 0.  1.
         21   -1    0    0  501  502 -0.00000000000E+00 -0.00000000000E+00 -0.38439045637E+01  0.38439045637E+01  0.00000000000E+00 0.  1.
         25    1    1    2    0    0  0.00000000000E+00  0.00000000000E+00  0.10123753942E+04  0.10200632033E+04  0.12500000000E+03 0.  0.
<mgrwt>
<rscale>  0 0.12500000E+03</rscale>
<asrwt>0</asrwt>
<pdfrwt beam="1">  1       21 0.15634122E+00 0.12500000E+03</pdfrwt>
<pdfrwt beam="2">  1       21 0.59137074E-03 0.12500000E+03</pdfrwt>
<totfact> 0.23121924E+06</totfact>
</mgrwt>
</event>
<event>
 3    1  0.1620993E-001  0.1250000E+03  0.7546771E-02  0.1235069E+00
         21   -1    0    0  502  501  0.00000000000E+00  0.00000000000E+00  0.27302491554E+02  0.27302491554E+02  0.00000000000E+00 0.  1.
         21   -1    0    0  501  502 -0.00000000000E+00 -0.00000000000E+00 -0.14307302293E+03  0.14307302293E+03  0.00000000000E+00 0.  1.
         25    1    1    2    0    0  0.00000000000E+00  0.00000000000E+00 -0.11577053137E+03  0.17037551448E+03  0.12500000000E+03 0.  0.
<mgrwt>
<rscale>  0 0.12500000E+03</rscale>
<asrwt>0</asrwt>
<pdfrwt beam="1">  1       21 0.42003833E-02 0.12500000E+03</pdfrwt>
<pdfrwt beam="2">  1       21 0.22011235E-01 0.12500000E+03</pdfrwt>
<totfact> 0.68273148E+06</totfact>
</mgrwt>
</event>
<event>
 3    1  0.1620993E-001  0.1250000E+03  0.7546771E-02  0.1235069E+00
         21   -1    0    0  502  501  0.00000000000E+00  0.00000000000E+00  0.11804852277E+02  0.11804852277E+02  0.00000000000E+00 0.  1.
         21   -1    0    0  501  502 -0.00000000000E+00 -0.00000000000E+00 -0.33090206539E+03  0.33090206539E+03  0.00000000000E+00 0.  1.
         25    1    1    2    0    0  0.00000000000E+00  0.00000000000E+00 -0.31909721311E+03  0.34270691767E+03  0.12500000000E+03 0.  0.
<mgrwt>
<rscale>  0 0.12500000E+03</rscale>
<asrwt>0</asrwt>
<pdfrwt beam="1">  1       21 0.18161309E-02 0.12500000E+03</pdfrwt>
<pdfrwt beam="2">  1       21 0.50908016E-01 0.12500000E+03</pdfrwt>
<totfact> 0.52081595E+06</totfact>
</mgrwt>
</event>
<event>
 3    1  0.1620993E-001  0.1250000E+03  0.7546771E-02  0.1235069E+00
         21   -1    0    0  502  501  0.00000000000E+00  0.00000000000E+00  0.46355692343E+03  0.46355692343E+03  0.00000000000E+00 0. -1.
         21   -1    0    0  501  502 -0.00000000000E+00 -0.00000000000E+00 -0.84266889406E+01  0.84266889406E+01  0.00000000000E+00 0. -1.
         25    1    1    2    0    0  0.00000000000E+00  0.00000000000E+00  0.45513023449E+03  0.47198361237E+03  0.12500000000E+03 0.  0.
<mgrwt>
<rscale>  0 0.12500000E+03</rscale>
<asrwt>0</asrwt>
<pdfrwt beam="1">  1       21 0.71316430E-01 0.12500000E+03</pdfrwt>
<pdfrwt beam="2">  1       21 0.12964140E-02 0.12500000E+03</pdfrwt>
<totfact> 0.43605393E+06</totfact>
</mgrwt>
</event>
<event>
 3    1  0.1620993E-001  0.1250000E+03  0.7546771E-02  0.1235069E+00
         21   -1    0    0  502  501  0.00000000000E+00  0.00000000000E+00  0.72731771010E+02  0.72731771010E+02  0.00000000000E+00 0. -1.
         21   -1    0    0  501  502 -0.00000000000E+00 -0.00000000000E+00 -0.53707615609E+02  0.53707615609E+02  0.00000000000E+00 0. -1.
         25    1    1    2    0    0  0.00000000000E+00  0.00000000000E+00  0.19024155401E+02  0.12643938662E+03  0.12500000000E+03 0.  0.
<mgrwt>
<rscale>  0 0.12500000E+03</rscale>
<asrwt>0</asrwt>
<pdfrwt beam="1">  1       21 0.11189503E-01 0.12500000E+03</pdfrwt>
<pdfrwt beam="2">  1       21 0.82627101E-02 0.12500000E+03</pdfrwt>
<totfact> 0.73845671E+06</totfact>
</mgrwt>
</event>
<event>
 3    1  0.1620993E-001  0.1250000E+03  0.7546771E-02  0.1235069E+00
         21   -1    0    0  502  501  0.00000000000E+00  0.00000000000E+00  0.65748382578E+02  0.65748382578E+02  0.00000000000E+00 0. -1.
         21   -1    0    0  501  502 -0.00000000000E+00 -0.00000000000E+00 -0.59412107900E+02  0.59412107900E+02  0.00000000000E+00 0. -1.
         25    1    1    2    0    0  0.00000000000E+00  0.00000000000E+00  0.63362746776E+01  0.12516049048E+03  0.12500000000E+03 0.  0.
<mgrwt>
<rscale>  0 0.12500000E+03</rscale>
<asrwt>0</asrwt>
<pdfrwt beam="1">  1       21 0.10115136E-01 0.12500000E+03</pdfrwt>
<pdfrwt beam="2">  1       21 0.91403243E-02 0.12500000E+03</pdfrwt>
<totfact> 0.74021907E+06</totfact>
</mgrwt>
</event>
<event>
 3    1  0.1620993E-001  0.1250000E+03  0.7546771E-02  0.1235069E+00
         21   -1    0    0  502  501  0.00000000000E+00  0.00000000000E+00  0.25032663921E+02  0.25032663921E+02  0.00000000000E+00 0. -1.
         21   -1    0    0  501  502 -0.00000000000E+00 -0.00000000000E+00 -0.15604611688E+03  0.15604611688E+03  0.00000000000E+00 0. -1.
         25    1    1    2    0    0  0.00000000000E+00  0.00000000000E+00 -0.13101345296E+03  0.18107878080E+03  0.12500000000E+03 0.  0.
<mgrwt>
<rscale>  0 0.12500000E+03</rscale>
<asrwt>0</asrwt>
<pdfrwt beam="1">  1       21 0.38511791E-02 0.12500000E+03</pdfrwt>
<pdfrwt beam="2">  1       21 0.24007095E-01 0.12500000E+03</pdfrwt>
<totfact> 0.67027997E+06</totfact>
</mgrwt>
</event>
<event>
 3    1  0.1620993E-001  0.1250000E+03  0.7546771E-02  0.1235069E+00
         21   -1    0    0  502  501  0.00000000000E+00  0.00000000000E+00  0.58030854272E+02  0.58030854272E+02  0.00000000000E+00 0.  1.
         21   -1    0    0  501  502 -0.00000000000E+00 -0.00000000000E+00 -0.67313329245E+02  0.67313329245E+02  0.00000000000E+00 0.  1.
         25    1    1    2    0    0  0.00000000000E+00  0.00000000000E+00 -0.92824749732E+01  0.12534418352E+03  0.12500000000E+03 0.  0.
<mgrwt>
<rscale>  0 0.12500000E+03</rscale>
<asrwt>0</asrwt>
<pdfrwt beam="1">  1       21 0.89278237E-02 0.12500000E+03</pdfrwt>
<pdfrwt beam="2">  1       21 0.10355897E-01 0.12500000E+03</pdfrwt>
<totfact> 0.73997107E+06</totfact>
</mgrwt>
</event>
<event>
 3    1  0.1620993E-001  0.1250000E+03  0.7546771E-02  0.1235069E+00
         21   -1    0    0  502  501  0.00000000000E+00  0.00000000000E+00  0.15593851375E+03  0.15593851375E+03  0.00000000000E+00 0. -1.
         21   -1    0    0  501  502 -0.00000000000E+00 -0.00000000000E+00 -0.25049937351E+02  0.25049937351E+02  0.00000000000E+00 0. -1.
         25    1    1    2    0    0  0.00000000000E+00  0.00000000000E+00  0.13088857640E+03  0.18098845110E+03  0.12500000000E+03 0.  0.
<mgrwt>
<rscale>  0 0.12500000E+03</rscale>
<asrwt>0</asrwt>
<pdfrwt beam="1">  1       21 0.23990540E-01 0.12500000E+03</pdfrwt>
<pdfrwt beam="2">  1       21 0.38538366E-02 0.12500000E+03</pdfrwt>
<totfact> 0.67038325E+06</totfact>
</mgrwt>
</event>
<event>
 3    1  0.1620993E-001  0.1250000E+03  0.7546771E-02  0.1235069E+00
         21   -1    0    0  502  501  0.00000000000E+00  0.00000000000E+00  0.10427616644E+03  0.10427616644E+03  0.00000000000E+00 0.  1.
         21   -1    0    0  501  502 -0.00000000000E+00 -0.00000000000E+00 -0.37460621477E+02  0.37460621477E+02  0.00000000000E+00 0.  1.
         25    1    1    2    0    0  0.00000000000E+00  0.00000000000E+00  0.66815544959E+02  0.14173678791E+03  0.12500000000E+03 0.  0.
<mgrwt>
<rscale>  0 0.12500000E+03</rscale>
<asrwt>0</asrwt>
<pdfrwt beam="1">  1       21 0.16042487E-01 0.12500000E+03</pdfrwt>
<pdfrwt beam="2">  1       21 0.57631726E-02 0.12500000E+03</pdfrwt>
<totfact> 0.71813378E+06</totfact>
</mgrwt>
</event>
<event>
 3    1  0.1620993E-001  0.1250000E+03  0.7546771E-02  0.1235069E+00
         21   -1    0    0  502  501  0.00000000000E+00  0.00000000000E+00  0.11407110087E+04  0.11407110087E+04  0.00000000000E+00 0. -1.
         21   -1    0    0  501  502 -0.00000000000E+00 -0.00000000000E+00 -0.34243993178E+01  0.34243993178E+01  0.00000000000E+00 0. -1.
         25    1    1    2    0    0  0.00000000000E+00  0.00000000000E+00  0.11372866094E+04  0.11441354080E+04  0.12500000000E+03 0.  0.
<mgrwt>
<rscale>  0 0.12500000E+03</rscale>
<asrwt>0</asrwt>
<pdfrwt beam="1">  1       21 0.17549370E+00 0.12500000E+03</pdfrwt>
<pdfrwt beam="2">  1       21 0.52683157E-03 0.12500000E+03</pdfrwt>
<totfact> 0.20293458E+06</totfact>
</mgrwt>
</event>
<event>
 3    1  0.1620993E-001  0.1250000E+03  0.7546771E-02  0.1235069E+00
         21   -1    0    0  502  501  0.00000000000E+00  0.00000000000E+00  0.20009907163E+02  0.20009907163E+02  0.00000000000E+00 0. -1.
         21   -1    0    0  501  502 -0.00000000000E+00 -0.00000000000E+00 -0.19521579827E+03  0.19521579827E+03  0.00000000000E+00 0. -1.
         25    1    1    2    0    0  0.00000000000E+00  0.00000000000E+00 -0.17520589110E+03  0.21522570543E+03  0.12500000000E+03 0.  0.
<mgrwt>
<rscale>  0 0.12500000E+03</rscale>
<asrwt>0</asrwt>
<pdfrwt beam="1">  1       21 0.30784472E-02 0.12500000E+03</pdfrwt>
<pdfrwt beam="2">  1       21 0.30033200E-01 0.12500000E+03</pdfrwt>
<totfact> 0.63313891E+06</totfact>
</mgrwt>
</event>
<event>
 3    1  0.1620993E-001  0.1250000E+03  0.7546771E-02  0.1235069E+00
         21   -1    0    0  502  501  0.00000000000E+00  0.00000000000E+00  0.10005102749E+03  0.10005102749E+03  0.00000000000E+00 0. -1.
         21   -1    0    0  501  502 -0.00000000000E+00 -0.00000000000E+00 -0.39042577552E+02  0.39042577552E+02  0.00000000000E+00 0. -1.
         25    1    1    2    0    0  0.00000000000E+00  0.00000000000E+00  0.61008449940E+02  0.13909360504E+03  0.12500000000E+03 0.  0.
<mgrwt>
<rscale>  0 0.12500000E+03</rscale>
<asrwt>0</asrwt>
<pdfrwt beam="1">  1       21 0.15392466E-01 0.12500000E+03</pdfrwt>
<pdfrwt beam="2">  1       21 0.60065504E-02 0.12500000E+03</pdfrwt>
<totfact> 0.72157858E+06</totfact>
</mgrwt>
</event>
<event>
 3    1  0.1620993E-001  0.1250000E+03  0.7546771E-02  0.1235069E+00
         21   -1    0    0  502  501  0.00000000000E+00  0.00000000000E+00  0.73881759014E+02  0.73881759014E+02  0.00000000000E+00 0. -1.
         21   -1    0    0  501  502 -0.00000000000E+00 -0.00000000000E+00 -0.52871643179E+02  0.52871643179E+02  0.00000000000E+00 0. -1.
         25    1    1    2    0    0  0.00000000000E+00  0.00000000000E+00  0.21010115835E+02  0.12675340219E+03  0.12500000000E+03 0.  0.
<mgrwt>
<rscale>  0 0.12500000E+03</rscale>
<asrwt>0</asrwt>
<pdfrwt beam="1">  1       21 0.11366424E-01 0.12500000E+03</pdfrwt>
<pdfrwt beam="2">  1       21 0.81340989E-02 0.12500000E+03</pdfrwt>
<totfact> 0.73802745E+06</totfact>
</mgrwt>
</event>
<event>
 3    1  0.1620993E-001  0.1250000E+03  0.7546771E-02  0.1235069E+00
         21   -1    0    0  502  501  0.00000000000E+00  0.00000000000E+00  0.27823583490E+01  0.27823583490E+01  0.00000000000E+00 0.  1.
         21   -1    0    0  501  502 -0.00000000000E+00 -0.00000000000E+00 -0.14039349034E+04  0.14039349034E+04  0.00000000000E+00 0.  1.
         25    1    1    2    0    0  0.00000000000E+00  0.00000000000E+00 -0.14011525451E+04  0.14067172618E+04  0.12500000000E+03 0.  0.
<mgrwt>
<rscale>  0 0.12500000E+03</rscale>
<asrwt>0</asrwt>
<pdfrwt beam="1">  1       21 0.42805584E-03 0.12500000E+03</pdfrwt>
<pdfrwt beam="2">  1       21 0.21598963E+00 0.12500000E+03</pdfrwt>
<totfact> 0.15435849E+06</totfact>
</mgrwt>
</event>
<event>
 3    1  0.1620993E-001  0.1250000E+03  0.7546771E-02  0.1235069E+00
         21   -1    0    0  502  501  0.00000000000E+00  0.00000000000E+00  0.14337927382E+02  0.14337927382E+02  0.00000000000E+00 0. -1.
         21   -1    0    0  501  502 -0.00000000000E+00 -0.00000000000E+00 -0.27244174809E+03  0.27244174809E+03  0.00000000000E+00 0. -1.
         25    1    1    2    0    0  0.00000000000E+00  0.00000000000E+00 -0.25810382071E+03  0.28677967548E+03  0.12500000000E+03 0.  0.
<mgrwt>
<rscale>  0 0.12500000E+03</rscale>
<asrwt>0</asrwt>
<pdfrwt beam="1">  1       21 0.22058351E-02 0.12500000E+03</pdfrwt>
<pdfrwt beam="2">  1       21 0.41914112E-01 0.12500000E+03</pdfrwt>
<totfact> 0.56573048E+06</totfact>
</mgrwt>
</event>
<event>
 3    1  0.1620993E-001  0.1250000E+03  0.7546771E-02  0.1235069E+00
         21   -1    0    0  502  501  0.00000000000E+00  0.00000000000E+00  0.35399227863E+02  0.35399227863E+02  0.00000000000E+00 0. -1.
         21   -1    0    0  501  502 -0.00000000000E+00 -0.00000000000E+00 -0.11034845209E+03  0.11034845209E+03  0.00000000000E+00 0. -1.
         25    1    1    2    0    0  0.00000000000E+00  0.00000000000E+00 -0.74949224230E+02  0.14574767996E+03  0.12500000000E+03 0.  0.
<mgrwt>
<rscale>  0 0.12500000E+03</rscale>
<asrwt>0</asrwt>
<pdfrwt beam="1">  1       21 0.54460351E-02 0.12500000E+03</pdfrwt>
<pdfrwt beam="2">  1       21 0.16976685E-01 0.12500000E+03</pdfrwt>
<totfact> 0.71297551E+06</totfact>
</mgrwt>
</event>
<event>
 3    1  0.1620993E-001  0.1250000E+03  0.7546771E-02  0.1235069E+00
         21   -1    0    0  502  501  0.00000000000E+00  0.00000000000E+00  0.50689845121E+02  0.50689845121E+02  0.00000000000E+00 0.  1.
         21   -1    0    0  501  502 -0.00000000000E+00 -0.00000000000E+00 -0.77061786057E+02  0.77061786057E+02  0.00000000000E+00 0.  1.
         25    1    1    2    0    0  0.00000000000E+00  0.00000000000E+00 -0.26371940936E+02  0.12775163118E+03  0.12500000000E+03 0.  0.
<mgrwt>
<rscale>  0 0.12500000E+03</rscale>
<asrwt>0</asrwt>
<pdfrwt beam="1">  1       21 0.77984377E-02 0.12500000E+03</pdfrwt>
<pdfrwt beam="2">  1       21 0.11855659E-01 0.12500000E+03</pdfrwt>
<totfact> 0.73667138E+06</totfact>
</mgrwt>
</event>
<event>
 3    1  0.1620993E-001  0.1250000E+03  0.7546771E-02  0.1235069E+00
         21   -1    0    0  502  501  0.00000000000E+00  0.00000000000E+00  0.42939605833E+03  0.42939605833E+03  0.00000000000E+00 0.  1.
         21   -1    0    0  501  502 -0.00000000000E+00 -0.00000000000E+00 -0.90970793146E+01  0.90970793146E+01  0.00000000000E+00 0.  1.
         25    1    1    2    0    0  0.00000000000E+00  0.00000000000E+00  0.42029897901E+03  0.43849313764E+03  0.12500000000E+03 0.  0.
<mgrwt>
<rscale>  0 0.12500000E+03</rscale>
<asrwt>0</asrwt>
<pdfrwt beam="1">  1       21 0.66060916E-01 0.12500000E+03</pdfrwt>
<pdfrwt beam="2">  1       21 0.13995510E-02 0.12500000E+03</pdfrwt>
<totfact> 0.45588723E+06</totfact>
</mgrwt>
</event>
<event>
 3    1  0.1620993E-001  0.1250000E+03  0.7546771E-02  0.1235069E+00
         21   -1    0    0  502  501  0.00000000000E+00  0.00000000000E+00  0.26750269645E+02  0.26750269645E+02  0.00000000000E+00 0.  1.
         21   -1    0    0  501  502 -0.00000000000E+00 -0.00000000000E+00 -0.14602656541E+03  0.14602656541E+03  0.00000000000E+00 0.  1.
         25    1    1    2    0    0  0.00000000000E+00  0.00000000000E+00 -0.11927629576E+03  0.17277683505E+03  0.12500000000E+03 0.  0.
<mgrwt>
<rscale>  0 0.12500000E+03</rscale>
<asrwt>0</asrwt>
<pdfrwt beam="1">  1       21 0.41154262E-02 0.12500000E+03</pdfrwt>
<pdfrwt beam="2">  1       21 0.22465625E-01 0.12500000E+03</pdfrwt>
<totfact> 0.67989973E+06</totfact>
</mgrwt>
</event>
<event>
 3    1  0.1620993E-001  0.1250000E+03  0.7546771E-02  0.1235069E+00
         21   -1    0    0  502  501  0.00000000000E+00  0.00000000000E+00  0.36248961762E+03  0.36248961762E+03  0.00000000000E+00 0.  1.
         21   -1    0    0  501  502 -0.00000000000E+00 -0.00000000000E+00 -0.10776170710E+02  0.10776170710E+02  0.00000000000E+00 0.  1.
         25    1    1    2    0    0  0.00000000000E+00  0.00000000000E+00  0.35171344691E+03  0.37326578833E+03  0.12500000000E+03 0.  0.
<mgrwt>
<rscale>  0 0.12500000E+03</rscale>
<asrwt>0</asrwt>
<pdfrwt beam="1">  1       21 0.55767624E-01 0.12500000E+03</pdfrwt>
<pdfrwt beam="2">  1       21 0.16578727E-02 0.12500000E+03</pdfrwt>
<totfact> 0.49864765E+06</totfact>
</mgrwt>
</event>
<event>
 3    1  0.1620993E-001  0.1250000E+03  0.7546771E-02  0.1235069E+00
         21   -1    0    0  502  501  0.00000000000E+00  0.00000000000E+00  0.11004588603E+02  0.11004588603E+02  0.00000000000E+00 0.  1.
         21   -1    0    0  501  502 -0.00000000000E+00 -0.00000000000E+00 -0.35496556400E+03  0.35496556400E+03  0.00000000000E+00 0.  1.
         25    1    1    2    0    0  0.00000000000E+00  0.00000000000E+00 -0.34396097540E+03  0.36597015260E+03  0.12500000000E+03 0.  0.
<mgrwt>
<rscale>  0 0.12500000E+03</rscale>
<asrwt>0</asrwt>
<pdfrwt beam="1">  1       21 0.16930139E-02 0.12500000E+03</pdfrwt>
<pdfrwt beam="2">  1       21 0.54610080E-01 0.12500000E+03</pdfrwt>
<totfact> 0.50380190E+06</totfact>
</mgrwt>
</event>
<event>
 3    1  0.1620993E-001  0.1250000E+03  0.7546771E-02  0.1235069E+00
         21   -1    0    0  502  501  0.00000000000E+00  0.00000000000E+00  0.39345467135E+03  0.39345467135E+03  0.00000000000E+00 0. -1.
         21   -1    0    0  501  502 -0.00000000000E+00 -0.00000000000E+00 -0.99280813888E+01  0.99280813888E+01  0.00000000000E+00 0. -1.
         25    1    1    2    0    0  0.00000000000E+00  0.00000000000E+00  0.38352658997E+03  0.40338275274E+03  0.12500000000E+03 0.  0.
<mgrwt>
<rscale>  0 0.12500000E+03</rscale>
<asrwt>0</asrwt>
<pdfrwt beam="1">  1       21 0.60531476E-01 0.12500000E+03</pdfrwt>
<pdfrwt beam="2">  1       21 0.15273974E-02 0.12500000E+03</pdfrwt>
<totfact> 0.47817788E+06</totfact>
</mgrwt>
</event>
<event>
 3    1  0.1620993E-001  0.1250000E+03  0.7546771E-02  0.1235069E+00
         21   -1    0    0  502  501  0.00000000000E+00  0.00000000000E+00  0.45867653708E+03  0.45867653708E+03  0.00000000000E+00 0. -1.
         21   -1    0    0  501  502 -0.00000000000E+00 -0.00000000000E+00 -0.85163501602E+01  0.85163501602E+01  0.00000000000E+00 0. -1.
         25    1    1    2    0    0  0.00000000000E+00  0.00000000000E+00  0.45016018692E+03  0.46719288724E+03  0.12500000000E+03 0.  0.
<mgrwt>
<rscale>  0 0.12500000E+03</rscale>
<asrwt>0</asrwt>
<pdfrwt beam="1">  1       21 0.70565602E-01 0.12500000E+03</pdfrwt>
<pdfrwt beam="2">  1       21 0.13102081E-02 0.12500000E+03</pdfrwt>
<totfact> 0.43881050E+06</totfact>
</mgrwt>
</event>
<event>
 3    1  0.1620993E-001  0.1250000E+03  0.7546771E-02  0.1235069E+00
         21   -1    0    0  502  501  0.00000000000E+00  0.00000000000E+00  0.78307776913E+03  0.78307776913E+03  0.00000000000E+00 0.  1.
         21   -1    0    0  501  502 -0.00000000000E+00 -0.00000000000E+00 -0.49883295810E+01  0.49883295810E+01  0.00000000000E+00 0.  1.
         25    1    1    2    0    0  0.00000000000E+00  0.00000000000E+00  0.77808943955E+03  0.78806609871E+03  0.12500000000E+03 0.  0.
<mgrwt>
<rscale>  0 0.12500000E+03</rscale>
<asrwt>0</asrwt>
<pdfrwt beam="1">  1       21 0.12047340E+00 0.12500000E+03</pdfrwt>
<pdfrwt beam="2">  1       21 0.76743595E-03 0.12500000E+03</pdfrwt>
<totfact> 0.29762072E+06</totfact>
</mgrwt>
</event>
<event>
 3    1  0.1620993E-001  0.1250000E+03  0.7546771E-02  0.1235069E+00
         21   -1    0    0  502  501  0.00000000000E+00  0.00000000000E+00  0.38668767172E+03  0.38668767172E+03  0.00000000000E+00 0. -1.
         21   -1    0    0  501  502 -0.00000000000E+00 -0.00000000000E+00 -0.10101821924E+02  0.10101821924E+02  0.00000000000E+00 0. -1.
         25    1    1    2    0    0  0.00000000000E+00  0.00000000000E+00  0.37658584979E+03  0.39678949364E+03  0.12500000000E+03 0.  0.
<mgrwt>
<rscale>  0 0.12500000E+03</rscale>
<asrwt>0</asrwt>
<pdfrwt beam="1">  1       21 0.59490399E-01 0.12500000E+03</pdfrwt>
<pdfrwt beam="2">  1       21 0.15541268E-02 0.12500000E+03</pdfrwt>
<totfact> 0.48255036E+06</totfact>
</mgrwt>
</event>
<event>
 3    1  0.1620993E-001  0.1250000E+03  0.7546771E-02  0.1235069E+00
         21   -1    0    0  502  501  0.00000000000E+00  0.00000000000E+00  0.20333476919E+03  0.20333476919E+03  0.00000000000E+00 0. -1.
         21   -1    0    0  501  502 -0.00000000000E+00 -0.00000000000E+00 -0.19210929914E+02  0.19210929914E+02  0.00000000000E+00 0. -1.
         25    1    1    2    0    0  0.00000000000E+00  0.00000000000E+00  0.18412383928E+03  0.22254569911E+03  0.12500000000E+03 0.  0.
<mgrwt>
<rscale>  0 0.12500000E+03</rscale>
<asrwt>0</asrwt>
<pdfrwt beam="1">  1       21 0.31282271E-01 0.12500000E+03</pdfrwt>
<pdfrwt beam="2">  1       21 0.29555278E-02 0.12500000E+03</pdfrwt>
<totfact> 0.62563275E+06</totfact>
</mgrwt>
</event>
<event>
 3    1  0.1620993E-001  0.1250000E+03  0.7546771E-02  0.1235069E+00
         21   -1    0    0  502  501  0.00000000000E+00  0.00000000000E+00  0.31700781283E+02  0.31700781283E+02  0.00000000000E+00 0. -1.
         21   -1    0    0  501  502 -0.00000000000E+00 -0.00000000000E+00 -0.12322251509E+03  0.12322251509E+03  0.00000000000E+00 0. -1.
         25    1    1    2    0    0  0.00000000000E+00  0.00000000000E+00 -0.91521733805E+02  0.15492329637E+03  0.12500000000E+03 0.  0.
<mgrwt>
<rscale>  0 0.12500000E+03</rscale>
<asrwt>0</asrwt>
<pdfrwt beam="1">  1       21 0.48770432E-02 0.12500000E+03</pdfrwt>
<pdfrwt beam="2">  1       21 0.18957310E-01 0.12500000E+03</pdfrwt>
<totfact> 0.70145193E+06</totfact>
</mgrwt>
</event>
<event>
 3    1  0.1620993E-001  0.1250000E+03  0.7546771E-02  0.1235069E+00
         21   -1    0    0  502  501  0.00000000000E+00  0.00000000000E+00  0.94621244483E+03  0.94621244483E+03  0.00000000000E+00 0. -1.
         21   -1    0    0  501  502 -0.00000000000E+00 -0.00000000000E+00 -0.41283012302E+01  0.41283012302E+01  0.00000000000E+00 0. -1.
         25    1    1    2    0    0  0.00000000000E+00  0.00000000000E+00  0.94208414360E+03  0.95034074606E+03  0.12500000000E+03 0.  0.
<mgrwt>
<rscale>  0 0.12500000E+03</rscale>
<asrwt>0</asrwt>
<pdfrwt beam="1">  1       21 0.14557097E+00 0.12500000E+03</pdfrwt>
<pdfrwt beam="2">  1       21 0.63512402E-03 0.12500000E+03</pdfrwt>
<totfact> 0.24902313E+06</totfact>
</mgrwt>
</event>
<event>
 3    1  0.1620993E-001  0.1250000E+03  0.7546771E-02  0.1235069E+00
         21   -1    0    0  502  501  0.00000000000E+00  0.00000000000E+00  0.30429794421E+03  0.30429794421E+03  0.00000000000E+00 0.  1.
         21   -1    0    0  501  502 -0.00000000000E+00 -0.00000000000E+00 -0.12836925370E+02  0.12836925370E+02  0.00000000000E+00 0.  1.
         25    1    1    2    0    0  0.00000000000E+00  0.00000000000E+00  0.29146101884E+03  0.31713486958E+03  0.12500000000E+03 0.  0.
<mgrwt>
<rscale>  0 0.12500000E+03</rscale>
<asrwt>0</asrwt>
<pdfrwt beam="1">  1       21 0.46815063E-01 0.12500000E+03</pdfrwt>
<pdfrwt beam="2">  1       21 0.19749118E-02 0.12500000E+03</pdfrwt>
<totfact> 0.54061176E+06</totfact>
</mgrwt>
</event>
<event>
 3    1  0.1620993E-001  0.1250000E+03  0.7546771E-02  0.1235069E+00
         21   -1    0    0  502  501  0.00000000000E+00  0.00000000000E+00  0.40328273544E+02  0.40328273544E+02  0.00000000000E+00 0. -1.
         21   -1    0    0  501  502 -0.00000000000E+00 -0.00000000000E+00 -0.96861324741E+02  0.96861324741E+02  0.00000000000E+00 0. -1.
         25    1    1    2    0    0  0.00000000000E+00  0.00000000000E+00 -0.56533051196E+02  0.13718959828E+03  0.12500000000E+03 0.  0.
<mgrwt>
<rscale>  0 0.12500000E+03</rscale>
<asrwt>0</asrwt>
<pdfrwt beam="1">  1       21 0.62043498E-02 0.12500000E+03</pdfrwt>
<pdfrwt beam="2">  1       21 0.14901742E-01 0.12500000E+03</pdfrwt>
<totfact> 0.72407832E+06</totfact>
</mgrwt>
</event>
<event>
 3    1  0.1620993E-001  0.1250000E+03  0.7546771E-02  0.1235069E+00
         21   -1    0    0  502  501  0.00000000000E+00  0.00000000000E+00  0.23676277144E+03  0.23676277144E+03  0.00000000000E+00 0.  1.
         21   -1    0    0  501  502 -0.00000000000E+00 -0.00000000000E+00 -0.16498582004E+02  0.16498582004E+02  0.00000000000E+00 0.  1.
         25    1    1    2    0    0  0.00000000000E+00  0.00000000000E+00  0.22026418943E+03  0.25326135344E+03  0.12500000000E+03 0.  0.
<mgrwt>
<rscale>  0 0.12500000E+03</rscale>
<asrwt>0</asrwt>
<pdfrwt beam="1">  1       21 0.36425039E-01 0.12500000E+03</pdfrwt>
<pdfrwt beam="2">  1       21 0.25382436E-02 0.12500000E+03</pdfrwt>
<totfact> 0.59572491E+06</totfact>
</mgrwt>
</event>
<event>
 3    1  0.1620993E-001  0.1250000E+03  0.7546771E-02  0.1235069E+00
         21   -1    0    0  502  501  0.00000000000E+00  0.00000000000E+00  0.10794804620E+03  0.10794804620E+03  0.00000000000E+00 0. -1.
         21   -1    0    0  501  502 -0.00000000000E+00 -0.00000000000E+00 -0.36186389078E+02  0.36186389078E+02  0.00000000000E+00 0. -1.
         25    1    1    2    0    0  0.00000000000E+00  0.00000000000E+00  0.71761657123E+02  0.14413443528E+03  0.12500000000E+03 0.  0.
<mgrwt>
<rscale>  0 0.12500000E+03</rscale>
<asrwt>0</asrwt>
<pdfrwt beam="1">  1       21 0.16607392E-01 0.12500000E+03</pdfrwt>
<pdfrwt beam="2">  1       21 0.55671368E-02 0.12500000E+03</pdfrwt>
<totfact> 0.71504054E+06</totfact>
</mgrwt>
</event>
<event>
 3    1  0.1620993E-001  0.1250000E+03  0.7546771E-02  0.1235069E+00
         21   -1    0    0  502  501  0.00000000000E+00  0.00000000000E+00  0.46459628858E+02  0.46459628858E+02  0.00000000000E+00 0. -1.
         21   -1    0    0  501  502 -0.00000000000E+00 -0.00000000000E+00 -0.84078372901E+02  0.84078372901E+02  0.00000000000E+00 0. -1.
         25    1    1    2    0    0  0.00000000000E+00  0.00000000000E+00 -0.37618744043E+02  0.13053800176E+03  0.12500000000E+03 0.  0.
<mgrwt>
<rscale>  0 0.12500000E+03</rscale>
<asrwt>0</asrwt>
<pdfrwt beam="1">  1       21 0.71476353E-02 0.12500000E+03</pdfrwt>
<pdfrwt beam="2">  1       21 0.12935134E-01 0.12500000E+03</pdfrwt>
<totfact> 0.73292999E+06</totfact>
</mgrwt>
</event>
<event>
 3    1  0.1620993E-001  0.1250000E+03  0.7546771E-02  0.1235069E+00
         21   -1    0    0  502  501  0.00000000000E+00  0.00000000000E+00  0.13032809932E+02  0.13032809932E+02  0.00000000000E+00 0.  1.
         21   -1    0    0  501  502 -0.00000000000E+00 -0.00000000000E+00 -0.29972431275E+03  0.29972431275E+03  0.00000000000E+00 0.  1.
         25    1    1    2    0    0  0.00000000000E+00  0.00000000000E+00 -0.28669150281E+03  0.31275712268E+03  0.12500000000E+03 0.  0.
<mgrwt>
<rscale>  0 0.12500000E+03</rscale>
<asrwt>0</asrwt>
<pdfrwt beam="1">  1       21 0.20050476E-02 0.12500000E+03</pdfrwt>
<pdfrwt beam="2">  1       21 0.46111435E-01 0.12500000E+03</pdfrwt>
<totfact> 0.54412339E+06</totfact>
</mgrwt>
</event>
<event>
 3    1  0.1620993E-001  0.1250000E+03  0.7546771E-02  0.1235069E+00
         21   -1    0    0  502  501  0.00000000000E+00  0.00000000000E+00  0.48127462741E+02  0.48127462741E+02  0.00000000000E+00 0.  1.
         21   -1    0    0  501  502 -0.00000000000E+00 -0.00000000000E+00 -0.81164677662E+02  0.81164677662E+02  0.00000000000E+00 0.  1.
         25    1    1    2    0    0  0.00000000000E+00  0.00000000000E+00 -0.33037214921E+02  0.12929214040E+03  0.12500000000E+03 0.  0.
<mgrwt>
<rscale>  0 0.12500000E+03</rscale>
<asrwt>0</asrwt>
<pdfrwt beam="1">  1       21 0.74042251E-02 0.12500000E+03</pdfrwt>
<pdfrwt beam="2">  1       21 0.12486873E-01 0.12500000E+03</pdfrwt>
<totfact> 0.73459676E+06</totfact>
</mgrwt>
</event>
<event>
 3    1  0.1620993E-001  0.1250000E+03  0.7546771E-02  0.1235069E+00
         21   -1    0    0  502  501  0.00000000000E+00  0.00000000000E+00  0.29569247554E+02  0.29569247554E+02  0.00000000000E+00 0.  1.
         21   -1    0    0  501  502 -0.00000000000E+00 -0.00000000000E+00 -0.13210515394E+03  0.13210515394E+03  0.00000000000E+00 0.  1.
         25    1    1    2    0    0  0.00000000000E+00  0.00000000000E+00 -0.10253590639E+03  0.16167440149E+03  0.12500000000E+03 0.  0.
<mgrwt>
<rscale>  0 0.12500000E+03</rscale>
<asrwt>0</asrwt>
<pdfrwt beam="1">  1       21 0.45491151E-02 0.12500000E+03</pdfrwt>
<pdfrwt beam="2">  1       21 0.20323870E-01 0.12500000E+03</pdfrwt>
<totfact> 0.69315479E+06</totfact>
</mgrwt>
</event>
<event>
 3    1  0.1620993E-001  0.1250000E+03  0.7546771E-02  0.1235069E+00
         21   -1    0    0  502  501  0.00000000000E+00  0.00000000000E+00  0.27225960349E+02  0.27225960349E+02  0.00000000000E+00 0. -1.
         21   -1    0    0  501  502 -0.00000000000E+00 -0.00000000000E+00 -0.14347519610E+03  0.14347519610E+03  0.00000000000E+00 0. -1.
         25    1    1    2    0    0  0.00000000000E+00  0.00000000000E+00 -0.11624923575E+03  0.17070115645E+03  0.12500000000E+03 0.  0.
<mgrwt>
<rscale>  0 0.12500000E+03</rscale>
<asrwt>0</asrwt>
<pdfrwt beam="1">  1       21 0.41886092E-02 0.12500000E+03</pdfrwt>
<pdfrwt beam="2">  1       21 0.22073107E-01 0.12500000E+03</pdfrwt>
<totfact> 0.68234614E+06</totfact>
</mgrwt>
</event>
<event>
 3    1  0.1620993E-001  0.1250000E+03  0.7546771E-02  0.1235069E+00
         21   -1    0    0  502  501  0.00000000000E+00  0.00000000000E+00  0.23227991476E+03  0.23227991476E+03  0.00000000000E+00 0.  1.
         21   -1    0    0  501  502 -0.00000000000E+00 -0.00000000000E+00 -0.16816994289E+02  0.16816994289E+02  0.00000000000E+00 0.  1.
         25    1    1    2    0    0  0.00000000000E+00  0.00000000000E+00  0.21546292047E+03  0.24909690905E+03  0.12500000000E+03 0.  0.
<mgrwt>
<rscale>  0 0.12500000E+03</rscale>
<asrwt>0</asrwt>
<pdfrwt beam="1">  1       21 0.35735369E-01 0.12500000E+03</pdfrwt>
<pdfrwt beam="2">  1       21 0.25872301E-02 0.12500000E+03</pdfrwt>
<totfact> 0.59963319E+06</totfact>
</mgrwt>
</event>
<event>
 3    1  0.1620993E-001  0.1250000E+03  0.7546771E-02  0.1235069E+00
         21   -1    0    0  502  501  0.00000000000E+00  0.00000000000E+00  0.20378863342E+03  0.20378863342E+03  0.00000000000E+00 0.  1.
         21   -1    0    0  501  502 -0.00000000000E+00 -0.00000000000E+00 -0.19168144633E+02  0.19168144633E+02  0.00000000000E+00 0.  1.
         25    1    1    2    0    0  0.00000000000E+00  0.00000000000E+00  0.18462048879E+03  0.22295677806E+03  0.12500000000E+03 0.  0.
<mgrwt>
<rscale>  0 0.12500000E+03</rscale>
<asrwt>0</asrwt>
<pdfrwt beam="1">  1       21 0.31352096E-01 0.12500000E+03</pdfrwt>
<pdfrwt beam="2">  1       21 0.29489455E-02 0.12500000E+03</pdfrwt>
<totfact> 0.62521586E+06</totfact>
</mgrwt>
</event>
<event>
 3    1  0.1620993E-001  0.1250000E+03  0.7546771E-02  0.1235069E+00
         21   -1    0    0  502  501  0.00000000000E+00  0.00000000000E+00  0.52641723858E+02  0.52641723858E+02  0.00000000000E+00 0.  1.
         21   -1    0    0  501  502 -0.00000000000E+00 -0.00000000000E+00 -0.74204446847E+02  0.74204446847E+02  0.00000000000E+00 0.  1.
         25    1    1    2    0    0  0.00000000000E+00  0.00000000000E+00 -0.21562722989E+02  0.12684617071E+03  0.12500000000E+03 0.  0.
<mgrwt>
<rscale>  0 0.12500000E+03</rscale>
<asrwt>0</asrwt>
<pdfrwt beam="1">  1       21 0.80987268E-02 0.12500000E+03</pdfrwt>
<pdfrwt beam="2">  1       21 0.11416069E-01 0.12500000E+03</pdfrwt>
<totfact> 0.73790092E+06</totfact>
</mgrwt>
</event>
<event>
 3    1  0.1620993E-001  0.1250000E+03  0.7546771E-02  0.1235069E+00
         21   -1    0    0  502  501  0.00000000000E+00  0.00000000000E+00  0.56943911082E+02  0.56943911082E+02  0.00000000000E+00 0.  1.
         21   -1    0    0  501  502 -0.00000000000E+00 -0.00000000000E+00 -0.68598203492E+02  0.68598203492E+02  0.00000000000E+00 0.  1.
         25    1    1    2    0    0  0.00000000000E+00  0.00000000000E+00 -0.11654292410E+02  0.12554211457E+03  0.12500000000E+03 0.  0.
<mgrwt>
<rscale>  0 0.12500000E+03</rscale>
<asrwt>0</asrwt>
<pdfrwt beam="1">  1       21 0.87606017E-02 0.12500000E+03</pdfrwt>
<pdfrwt beam="2">  1       21 0.10553570E-01 0.12500000E+03</pdfrwt>
<totfact> 0.73969513E+06</totfact>
</mgrwt>
</event>
<event>
 3    1  0.1620993E-001  0.1250000E+03  0.7546771E-02  0.1235069E+00
         21   -1    0    0  502  501  0.00000000000E+00  0.00000000000E+00  0.73750660000E+03  0.73750660000E+03  0.00000000000E+00 0.  1.
         21   -1    0    0  501  502 -0.00000000000E+00 -0.00000000000E+00 -0.52965627698E+01  0.52965627698E+01  0.00000000000E+00 0.  1.
         25    1    1    2    0    0  0.00000000000E+00  0.00000000000E+00  0.73221003723E+03  0.74280316277E+03  0.12500000000E+03 0.  0.
<mgrwt>
<rscale>  0 0.12500000E+03</rscale>
<asrwt>0</asrwt>
<pdfrwt beam="1">  1       21 0.11346247E+00 0.12500000E+03</pdfrwt>
<pdfrwt beam="2">  1       21 0.81485639E-03 0.12500000E+03</pdfrwt>
<totfact> 0.31323634E+06</totfact>
</mgrwt>
</event>
<event>
 3    1  0.1620993E-001  0.1250000E+03  0.7546771E-02  0.1235069E+00
         21   -1    0    0  502  501  0.00000000000E+00  0.00000000000E+00  0.88422905318E+02  0.88422905318E+02  0.00000000000E+00 0. -1.
         21   -1    0    0  501  502 -0.00000000000E+00 -0.00000000000E+00 -0.44176901742E+02  0.44176901742E+02  0.00000000000E+00 0. -1.
         25    1    1    2    0    0  0.00000000000E+00  0.00000000000E+00  0.44246003575E+02  0.13259980706E+03  0.12500000000E+03 0.  0.
<mgrwt>
<rscale>  0 0.12500000E+03</rscale>
<asrwt>0</asrwt>
<pdfrwt beam="1">  1       21 0.13603524E-01 0.12500000E+03</pdfrwt>
<pdfrwt beam="2">  1       21 0.67964464E-02 0.12500000E+03</pdfrwt>
<totfact> 0.73015885E+06</totfact>
</mgrwt>
</event>
<event>
 3    1  0.1620993E-001  0.1250000E+03  0.7546771E-02  0.1235069E+00
         21   -1    0    0  502  501  0.00000000000E+00  0.00000000000E+00  0.29273005373E+01  0.29273005373E+01  0.00000000000E+00 0. -1.
         21   -1    0    0  501  502 -0.00000000000E+00 -0.00000000000E+00 -0.13344205524E+04  0.13344205524E+04  0.00000000000E+00 0. -1.
         25    1    1    2    0    0  0.00000000000E+00  0.00000000000E+00 -0.13314932518E+04  0.13373478529E+04  0.12500000000E+03 0.  0.
<mgrwt>
<rscale>  0 0.12500000E+03</rscale>
<asrwt>0</asrwt>
<pdfrwt beam="1">  1       21 0.45035375E-03 0.12500000E+03</pdfrwt>
<pdfrwt beam="2">  1       21 0.20529555E+00 0.12500000E+03</pdfrwt>
<totfact> 0.16594796E+06</totfact>
</mgrwt>
</event>
<event>
 3    1  0.1620993E-001  0.1250000E+03  0.7546771E-02  0.1235069E+00
         21   -1    0    0  502  501  0.00000000000E+00  0.00000000000E+00  0.58064287087E+01  0.58064287087E+01  0.00000000000E+00 0.  1.
         21   -1    0    0  501  502 -0.00000000000E+00 -0.00000000000E+00 -0.67274570928E+03  0.67274570928E+03  0.00000000000E+00 0.  1.
         25    1    1    2    0    0  0.00000000000E+00  0.00000000000E+00 -0.66693928057E+03  0.67855213799E+03  0.12500000000E+03 0.  0.
<mgrwt>
<rscale>  0 0.12500000E+03</rscale>
<asrwt>0</asrwt>
<pdfrwt beam="1">  1       21 0.89329676E-03 0.12500000E+03</pdfrwt>
<pdfrwt beam="2">  1       21 0.10349934E+00 0.12500000E+03</pdfrwt>
<totfact> 0.33753548E+06</totfact>
</mgrwt>
</event>
<event>
 3    1  0.1620993E-001  0.1250000E+03  0.7546771E-02  0.1235069E+00
         21   -1    0    0  502  501  0.00000000000E+00  0.00000000000E+00  0.17758549331E+02  0.17758549331E+02  0.00000000000E+00 0.  1.
         21   -1    0    0  501  502 -0.00000000000E+00 -0.00000000000E+00 -0.21996447611E+03  0.21996447611E+03  0.00000000000E+00 0.  1.
         25    1    1    2    0    0  0.00000000000E+00  0.00000000000E+00 -0.20220592678E+03  0.23772302544E+03  0.12500000000E+03 0.  0.
<mgrwt>
<rscale>  0 0.12500000E+03</rscale>
<asrwt>0</asrwt>
<pdfrwt beam="1">  1       21 0.27320844E-02 0.12500000E+03</pdfrwt>
<pdfrwt beam="2">  1       21 0.33840690E-01 0.12500000E+03</pdfrwt>
<totfact> 0.61053698E+06</totfact>
</mgrwt>
</event>
<event>
 3    1  0.1620993E-001  0.1250000E+03  0.7546771E-02  0.1235069E+00
         21   -1    0    0  502  501  0.00000000000E+00  0.00000000000E+00  0.48924220950E+02  0.48924220950E+02  0.00000000000E+00 0.  1.
         21   -1    0    0  501  502 -0.00000000000E+00 -0.00000000000E+00 -0.79842865643E+02  0.79842865643E+02  0.00000000000E+00 0.  1.
         25    1    1    2    0    0  0.00000000000E+00  0.00000000000E+00 -0.30918644693E+02  0.12876708659E+03  0.12500000000E+03 0.  0.
<mgrwt>
<rscale>  0 0.12500000E+03</rscale>
<asrwt>0</asrwt>
<pdfrwt beam="1">  1       21 0.75268033E-02 0.12500000E+03</pdfrwt>
<pdfrwt beam="2">  1       21 0.12283518E-01 0.12500000E+03</pdfrwt>
<totfact> 0.73530180E+06</totfact>
</mgrwt>
</event>
<event>
 3    1  0.1620993E-001  0.1250000E+03  0.7546771E-02  0.1235069E+00
         21   -1    0    0  502  501  0.00000000000E+00  0.00000000000E+00  0.53553507471E+03  0.53553507471E+03  0.00000000000E+00 0.  1.
         21   -1    0    0  501  502 -0.00000000000E+00 -0.00000000000E+00 -0.72941067438E+01  0.72941067438E+01  0.00000000000E+00 0.  1.
         25    1    1    2    0    0  0.00000000000E+00  0.00000000000E+00  0.52824096797E+03  0.54282918145E+03  0.12500000000E+03 0.  0.
<mgrwt>
<rscale>  0 0.12500000E+03</rscale>
<asrwt>0</asrwt>
<pdfrwt beam="1">  1       21 0.82389981E-01 0.12500000E+03</pdfrwt>
<pdfrwt beam="2">  1       21 0.11221707E-02 0.12500000E+03</pdfrwt>
<totfact> 0.39812700E+06</totfact>
</mgrwt>
</event>
<event>
 3    1  0.1620993E-001  0.1250000E+03  0.7546771E-02  0.1235069E+00
         21   -1    0    0  502  501  0.00000000000E+00  0.00000000000E+00  0.57909163650E+02  0.57909163650E+02  0.00000000000E+00 0.  1.
         21   -1    0    0  501  502 -0.00000000000E+00 -0.00000000000E+00 -0.67454781831E+02  0.67454781831E+02  0.00000000000E+00 0.  1.
         25    1    1    2    0    0  0.00000000000E+00  0.00000000000E+00 -0.95456181816E+01  0.12536394548E+03  0.12500000000E+03 0.  0.
<mgrwt>
<rscale>  0 0.12500000E+03</rscale>
<asrwt>0</asrwt>
<pdfrwt beam="1">  1       21 0.89091021E-02 0.12500000E+03</pdfrwt>
<pdfrwt beam="2">  1       21 0.10377659E-01 0.12500000E+03</pdfrwt>
<totfact> 0.73994440E+06</totfact>
</mgrwt>
</event>
<event>
 3    1  0.1620993E-001  0.1250000E+03  0.7546771E-02  0.1235069E+00
         21   -1    0    0  502  501  0.00000000000E+00  0.00000000000E+00  0.27108378481E+02  0.27108378481E+02  0.00000000000E+00 0.  1.
         21   -1    0    0  501  502 -0.00000000000E+00 -0.00000000000E+00 -0.14409751593E+03  0.14409751593E+03  0.00000000000E+00 0.  1.
         25    1    1    2    0    0  0.00000000000E+00  0.00000000000E+00 -0.11698913745E+03  0.17120589441E+03  0.12500000000E+03 0.  0.
<mgrwt>
<rscale>  0 0.12500000E+03</rscale>
<asrwt>0</asrwt>
<pdfrwt beam="1">  1       21 0.41705198E-02 0.12500000E+03</pdfrwt>
<pdfrwt beam="2">  1       21 0.22168848E-01 0.12500000E+03</pdfrwt>
<totfact> 0.68174971E+06</totfact>
</mgrwt>
</event>
<event>
 3    1  0.1620993E-001  0.1250000E+03  0.7546771E-02  0.1235069E+00
         21   -1    0    0  502  501  0.00000000000E+00  0.00000000000E+00  0.46039047285E+03  0.46039047285E+03  0.00000000000E+00 0. -1.
         21   -1    0    0  501  502 -0.00000000000E+00 -0.00000000000E+00 -0.84846456005E+01  0.84846456005E+01  0.00000000000E+00 0. -1.
         25    1    1    2    0    0  0.00000000000E+00  0.00000000000E+00  0.45190582725E+03  0.46887511845E+03  0.12500000000E+03 0.  0.
<mgrwt>
<rscale>  0 0.12500000E+03</rscale>
<asrwt>0</asrwt>
<pdfrwt beam="1">  1       21 0.70829284E-01 0.12500000E+03</pdfrwt>
<pdfrwt beam="2">  1       21 0.13053305E-02 0.12500000E+03</pdfrwt>
<totfact> 0.43783957E+06</totfact>
</mgrwt>
</event>
<event>
 3    1  0.1620993E-001  0.1250000E+03  0.7546771E-02  0.1235069E+00
         21   -1    0    0  502  501  0.00000000000E+00  0.00000000000E+00  0.15604815912E+02  0.15604815912E+02  0.00000000000E+00 0. -1.
         21   -1    0    0  501  502 -0.00000000000E+00 -0.00000000000E+00 -0.25032336312E+03  0.25032336312E+03  0.00000000000E+00 0. -1.
         25    1    1    2    0    0  0.00000000000E+00  0.00000000000E+00 -0.23471854721E+03  0.26592817903E+03  0.12500000000E+03 0.  0.
<mgrwt>
<rscale>  0 0.12500000E+03</rscale>
<asrwt>0</asrwt>
<pdfrwt beam="1">  1       21 0.24007410E-02 0.12500000E+03</pdfrwt>
<pdfrwt beam="2">  1       21 0.38511285E-01 0.12500000E+03</pdfrwt>
<totfact> 0.58410148E+06</totfact>
</mgrwt>
</event>
<event>
 3    1  0.1620993E-001  0.1250000E+03  0.7546771E-02  0.1235069E+00
         21   -1    0    0  502  501  0.00000000000E+00  0.00000000000E+00  0.69655390242E+02  0.69655390242E+02  0.00000000000E+00 0. -1.
         21   -1    0    0  501  502 -0.00000000000E+00 -0.00000000000E+00 -0.56079651359E+02  0.56079651359E+02  0.00000000000E+00 0. -1.
         25    1    1    2    0    0  0.00000000000E+00  0.00000000000E+00  0.13575738883E+02  0.12573504160E+03  0.12500000000E+03 0.  0.
<mgrwt>
<rscale>  0 0.12500000E+03</rscale>
<asrwt>0</asrwt>
<pdfrwt beam="1">  1       21 0.10716214E-01 0.12500000E+03</pdfrwt>
<pdfrwt beam="2">  1       21 0.86276387E-02 0.12500000E+03</pdfrwt>
<totfact> 0.73942674E+06</totfact>
</mgrwt>
</event>
<event>
 3    1  0.1620993E-001  0.1250000E+03  0.7546771E-02  0.1235069E+00
         21   -1    0    0  502  501  0.00000000000E+00  0.00000000000E+00  0.90192343355E+01  0.90192343355E+01  0.00000000000E+00 0.  1.
         21   -1    0    0  501  502 -0.00000000000E+00 -0.00000000000E+00 -0.43310217416E+03  0.43310217416E+03  0.00000000000E+00 0.  1.
         25    1    1    2    0    0  0.00000000000E+00  0.00000000000E+00 -0.42408293983E+03  0.44212140850E+03  0.12500000000E+03 0.  0.
<mgrwt>
<rscale>  0 0.12500000E+03</rscale>
<asrwt>0</asrwt>
<pdfrwt beam="1">  1       21 0.13875744E-02 0.12500000E+03</pdfrwt>
<pdfrwt beam="2">  1       21 0.66631111E-01 0.12500000E+03</pdfrwt>
<totfact> 0.45367449E+06</totfact>
</mgrwt>
</event>
<event>
 3    1  0.1620993E-001  0.1250000E+03  0.7546771E-02  0.1235069E+00
         21   -1    0    0  502  501  0.00000000000E+00  0.00000000000E+00  0.28029665033E+03  0.28029665033E+03  0.00000000000E+00 0. -1.
         21   -1    0    0  501  502 -0.00000000000E+00 -0.00000000000E+00 -0.13936128011E+02  0.13936128011E+02  0.00000000000E+00 0. -1.
         25    1    1    2    0    0  0.00000000000E+00  0.00000000000E+00  0.26636052231E+03  0.29423277834E+03  0.12500000000E+03 0.  0.
<mgrwt>
<rscale>  0 0.12500000E+03</rscale>
<asrwt>0</asrwt>
<pdfrwt beam="1">  1       21 0.43122557E-01 0.12500000E+03</pdfrwt>
<pdfrwt beam="2">  1       21 0.21440199E-02 0.12500000E+03</pdfrwt>
<totfact> 0.55938885E+06</totfact>
</mgrwt>
</event>
<event>
 3    1  0.1620993E-001  0.1250000E+03  0.7546771E-02  0.1235069E+00
         21   -1    0    0  502  501  0.00000000000E+00  0.00000000000E+00  0.81959600265E+02  0.81959600265E+02  0.00000000000E+00 0. -1.
         21   -1    0    0  501  502 -0.00000000000E+00 -0.00000000000E+00 -0.47660676569E+02  0.47660676569E+02  0.00000000000E+00 0. -1.
         25    1    1    2    0    0  0.00000000000E+00  0.00000000000E+00  0.34298923696E+02  0.12962027683E+03  0.12500000000E+03 0.  0.
<mgrwt>
<rscale>  0 0.12500000E+03</rscale>
<asrwt>0</asrwt>
<pdfrwt beam="1">  1       21 0.12609169E-01 0.12500000E+03</pdfrwt>
<pdfrwt beam="2">  1       21 0.73324118E-02 0.12500000E+03</pdfrwt>
<totfact> 0.73415709E+06</totfact>
</mgrwt>
</event>
<event>
 3    1  0.1620993E-001  0.1250000E+03  0.7546771E-02  0.1235069E+00
         21   -1    0    0  502  501  0.00000000000E+00  0.00000000000E+00  0.58743688677E+02  0.58743688677E+02  0.00000000000E+00 0.  1.
         21   -1    0    0  501  502 -0.00000000000E+00 -0.00000000000E+00 -0.66496505207E+02  0.66496505207E+02  0.00000000000E+00 0.  1.
         25    1    1    2    0    0  0.00000000000E+00  0.00000000000E+00 -0.77528165298E+01  0.12524019388E+03  0.12500000000E+03 0.  0.
<mgrwt>
<rscale>  0 0.12500000E+03</rscale>
<asrwt>0</asrwt>
<pdfrwt beam="1">  1       21 0.90374905E-02 0.12500000E+03</pdfrwt>
<pdfrwt beam="2">  1       21 0.10230232E-01 0.12500000E+03</pdfrwt>
<totfact> 0.74011145E+06</totfact>
</mgrwt>
</event>
<event>
 3    1  0.1620993E-001  0.1250000E+03  0.7546771E-02  0.1235069E+00
         21   -1    0    0  502  501  0.00000000000E+00  0.00000000000E+00  0.61137862650E+01  0.61137862650E+01  0.00000000000E+00 0. -1.
         21   -1    0    0  501  502 -0.00000000000E+00 -0.00000000000E+00 -0.63892485453E+03  0.63892485453E+03  0.00000000000E+00 0. -1.
         25    1    1    2    0    0  0.00000000000E+00  0.00000000000E+00 -0.63281106826E+03  0.64503864079E+03  0.12500000000E+03 0.  0.
<mgrwt>
<rscale>  0 0.12500000E+03</rscale>
<asrwt>0</asrwt>
<pdfrwt beam="1">  1       21 0.94058261E-03 0.12500000E+03</pdfrwt>
<pdfrwt beam="2">  1       21 0.98296120E-01 0.12500000E+03</pdfrwt>
<totfact> 0.35131720E+06</totfact>
</mgrwt>
</event>
<event>
 3    1  0.1620993E-001  0.1250000E+03  0.7546771E-02  0.1235069E+00
         21   -1    0    0  502  501  0.00000000000E+00  0.00000000000E+00  0.66531834787E+03  0.66531834787E+03  0.00000000000E+00 0. -1.
         21   -1    0    0  501  502 -0.00000000000E+00 -0.00000000000E+00 -0.58712494740E+01  0.58712494740E+01  0.00000000000E+00 0. -1.
         25    1    1    2    0    0  0.00000000000E+00  0.00000000000E+00  0.65944709840E+03  0.67118959734E+03  0.12500000000E+03 0.  0.
<mgrwt>
<rscale>  0 0.12500000E+03</rscale>
<asrwt>0</asrwt>
<pdfrwt beam="1">  1       21 0.10235661E+00 0.12500000E+03</pdfrwt>
<pdfrwt beam="2">  1       21 0.90326968E-03 0.12500000E+03</pdfrwt>
<totfact> 0.34050747E+06</totfact>
</mgrwt>
</event>
<event>
 3    1  0.1620993E-001  0.1250000E+03  0.7546771E-02  0.1235069E+00
         21   -1    0    0  502  501  0.00000000000E+00  0.00000000000E+00  0.71423158464E+01  0.71423158464E+01  0.00000000000E+00 0.  1.
         21   -1    0    0  501  502 -0.00000000000E+00 -0.00000000000E+00 -0.54691644615E+03  0.54691644615E+03  0.00000000000E+00 0.  1.
         25    1    1    2    0    0  0.00000000000E+00  0.00000000000E+00 -0.53977413030E+03  0.55405876199E+03  0.12500000000E+03 0.  0.
<mgrwt>
<rscale>  0 0.12500000E+03</rscale>
<asrwt>0</asrwt>
<pdfrwt beam="1">  1       21 0.10988176E-02 0.12500000E+03</pdfrwt>
<pdfrwt beam="2">  1       21 0.84141009E-01 0.12500000E+03</pdfrwt>
<totfact> 0.39256257E+06</totfact>
</mgrwt>
</event>
<event>
 3    1  0.1620993E-001  0.1250000E+03  0.7546771E-02  0.1235069E+00
         21   -1    0    0  502  501  0.00000000000E+00  0.00000000000E+00  0.97853552393E+01  0.97853552393E+01  0.00000000000E+00 0. -1.
         21   -1    0    0  501  502 -0.00000000000E+00 -0.00000000000E+00 -0.39919347888E+03  0.39919347888E+03  0.00000000000E+00 0. -1.
         25    1    1    2    0    0  0.00000000000E+00  0.00000000000E+00 -0.38940812364E+03  0.40897883412E+03  0.12500000000E+03 0.  0.
<mgrwt>
<rscale>  0 0.12500000E+03</rscale>
<asrwt>0</asrwt>
<pdfrwt beam="1">  1       21 0.15054394E-02 0.12500000E+03</pdfrwt>
<pdfrwt beam="2">  1       21 0.61414377E-01 0.12500000E+03</pdfrwt>
<totfact> 0.47451444E+06</totfact>
</mgrwt>
</event>
<event>
 3    1  0.1620993E-001  0.1250000E+03  0.7546771E-02  0.1235069E+00
         21   -1    0    0  502  501  0.00000000000E+00  0.00000000000E+00  0.19877167221E+03  0.19877167221E+03  0.00000000000E+00 0. -1.
         21   -1    0    0  501  502 -0.00000000000E+00 -0.00000000000E+00 -0.19651945152E+02  0.19651945152E+02  0.00000000000E+00 0. -1.
         25    1    1    2    0    0  0.00000000000E+00  0.00000000000E+00  0.17911972706E+03  0.21842361736E+03  0.12500000000E+03 0.  0.
<mgrwt>
<rscale>  0 0.12500000E+03</rscale>
<asrwt>0</asrwt>
<pdfrwt beam="1">  1       21 0.30580256E-01 0.12500000E+03</pdfrwt>
<pdfrwt beam="2">  1       21 0.30233763E-02 0.12500000E+03</pdfrwt>
<totfact> 0.62984028E+06</totfact>
</mgrwt>
</event>
<event>
 3    1  0.1620993E-001  0.1250000E+03  0.7546771E-02  0.1235069E+00
         21   -1    0    0  502  501  0.00000000000E+00  0.00000000000E+00  0.30290121108E+02  0.30290121108E+02  0.00000000000E+00 0.  1.
         21   -1    0    0  501  502 -0.00000000000E+00 -0.00000000000E+00 -0.12896118791E+03  0.12896118791E+03  0.00000000000E+00 0.  1.
         25    1    1    2    0    0  0.00000000000E+00  0.00000000000E+00 -0.98671066803E+02  0.15925130902E+03  0.12500000000E+03 0.  0.
<mgrwt>
<rscale>  0 0.12500000E+03</rscale>
<asrwt>0</asrwt>
<pdfrwt beam="1">  1       21 0.46600186E-02 0.12500000E+03</pdfrwt>
<pdfrwt beam="2">  1       21 0.19840183E-01 0.12500000E+03</pdfrwt>
<totfact> 0.69611094E+06</totfact>
</mgrwt>
</event>
<event>
 3    1  0.1620993E-001  0.1250000E+03  0.7546771E-02  0.1235069E+00
         21   -1    0    0  502  501  0.00000000000E+00  0.00000000000E+00  0.92074810310E+03  0.92074810310E+03  0.00000000000E+00 0.  1.
         21   -1    0    0  501  502 -0.00000000000E+00 -0.00000000000E+00 -0.42424741217E+01  0.42424741217E+01  0.00000000000E+00 0.  1.
         25    1    1    2    0    0  0.00000000000E+00  0.00000000000E+00  0.91650562898E+03  0.92499057722E+03  0.12500000000E+03 0.  0.
<mgrwt>
<rscale>  0 0.12500000E+03</rscale>
<asrwt>0</asrwt>
<pdfrwt beam="1">  1       21 0.14165340E+00 0.12500000E+03</pdfrwt>
<pdfrwt beam="2">  1       21 0.65268906E-03 0.12500000E+03</pdfrwt>
<totfact> 0.25593186E+06</totfact>
</mgrwt>
</event>
<event>
 3    1  0.1620993E-001  0.1250000E+03  0.7546771E-02  0.1235069E+00
         21   -1    0    0  502  501  0.00000000000E+00  0.00000000000E+00  0.27205398199E+02  0.27205398199E+02  0.00000000000E+00 0.  1.
         21   -1    0    0  501  502 -0.00000000000E+00 -0.00000000000E+00 -0.14358363629E+03  0.14358363629E+03  0.00000000000E+00 0.  1.
         25    1    1    2    0    0  0.00000000000E+00  0.00000000000E+00 -0.11637823809E+03  0.17078903449E+03  0.12500000000E+03 0.  0.
<mgrwt>
<rscale>  0 0.12500000E+03</rscale>
<asrwt>0</asrwt>
<pdfrwt beam="1">  1       21 0.41854459E-02 0.12500000E+03</pdfrwt>
<pdfrwt beam="2">  1       21 0.22089790E-01 0.12500000E+03</pdfrwt>
<totfact> 0.68224223E+06</totfact>
</mgrwt>
</event>
<event>
 3    1  0.1620993E-001  0.1250000E+03  0.7546771E-02  0.1235069E+00
         21   -1    0    0  502  501  0.00000000000E+00  0.00000000000E+00  0.11239488216E+03  0.11239488216E+03  0.00000000000E+00 0.  1.
         21   -1    0    0  501  502 -0.00000000000E+00 -0.00000000000E+00 -0.34754696343E+02  0.34754696343E+02  0.00000000000E+00 0.  1.
         25    1    1    2    0    0  0.00000000000E+00  0.00000000000E+00  0.77640185820E+02  0.14714957850E+03  0.12500000000E+03 0.  0.
<mgrwt>
<rscale>  0 0.12500000E+03</rscale>
<asrwt>0</asrwt>
<pdfrwt beam="1">  1       21 0.17291520E-01 0.12500000E+03</pdfrwt>
<pdfrwt beam="2">  1       21 0.53468764E-02 0.12500000E+03</pdfrwt>
<totfact> 0.71119129E+06</totfact>
</mgrwt>
</event>
<event>
 3    1  0.1620993E-001  0.1250000E+03  0.7546771E-02  0.1235069E+00
         21   -1    0    0  502  501  0.00000000000E+00  0.00000000000E+00  0.22198814588E+03  0.22198814588E+03  0.00000000000E+00 0. -1.
         21   -1    0    0  501  502 -0.00000000000E+00 -0.00000000000E+00 -0.17596660328E+02  0.17596660328E+02  0.00000000000E+00 0. -1.
         25    1    1    2    0    0  0.00000000000E+00  0.00000000000E+00  0.20439148555E+03  0.23958480621E+03  0.12500000000E+03 0.  0.
<mgrwt>
<rscale>  0 0.12500000E+03</rscale>
<asrwt>0</asrwt>
<pdfrwt beam="1">  1       21 0.34152020E-01 0.12500000E+03</pdfrwt>
<pdfrwt beam="2">  1       21 0.27071787E-02 0.12500000E+03</pdfrwt>
<totfact> 0.60872864E+06</totfact>
</mgrwt>
</event>
<event>
 3    1  0.1620993E-001  0.1250000E+03  0.7546771E-02  0.1235069E+00
         21   -1    0    0  502  501  0.00000000000E+00  0.00000000000E+00  0.60996486581E+01  0.60996486581E+01  0.00000000000E+00 0.  1.
         21   -1    0    0  501  502 -0.00000000000E+00 -0.00000000000E+00 -0.64040573793E+03  0.64040573793E+03  0.00000000000E+00 0.  1.
         25    1    1    2    0    0  0.00000000000E+00  0.00000000000E+00 -0.63430608927E+03  0.64650538658E+03  0.12500000000E+03 0.  0.
<mgrwt>
<rscale>  0 0.12500000E+03</rscale>
<asrwt>0</asrwt>
<pdfrwt beam="1">  1       21 0.93840757E-03 0.12500000E+03</pdfrwt>
<pdfrwt beam="2">  1       21 0.98523951E-01 0.12500000E+03</pdfrwt>
<totfact> 0.35070292E+06</totfact>
</mgrwt>
</event>
<event>
 3    1  0.1620993E-001  0.1250000E+03  0.7546771E-02  0.1235069E+00
         21   -1    0    0  502  501  0.00000000000E+00  0.00000000000E+00  0.27878759093E+03  0.27878759093E+03  0.00000000000E+00 0. -1.
         21   -1    0    0  501  502 -0.00000000000E+00 -0.00000000000E+00 -0.14011563380E+02  0.14011563380E+02  0.00000000000E+00 0. -1.
         25    1    1    2    0    0  0.00000000000E+00  0.00000000000E+00  0.26477602755E+03  0.29279915431E+03  0.12500000000E+03 0.  0.
<mgrwt>
<rscale>  0 0.12500000E+03</rscale>
<asrwt>0</asrwt>
<pdfrwt beam="1">  1       21 0.42890394E-01 0.12500000E+03</pdfrwt>
<pdfrwt beam="2">  1       21 0.21556254E-02 0.12500000E+03</pdfrwt>
<totfact> 0.56059954E+06</totfact>
</mgrwt>
</event>
<event>
 3    1  0.1620993E-001  0.1250000E+03  0.7546771E-02  0.1235069E+00
         21   -1    0    0  502  501  0.00000000000E+00  0.00000000000E+00  0.55005753378E+01  0.55005753378E+01  0.00000000000E+00 0.  1.
         21   -1    0    0  501  502 -0.00000000000E+00 -0.00000000000E+00 -0.71015298584E+03  0.71015298584E+03  0.00000000000E+00 0.  1.
         25    1    1    2    0    0  0.00000000000E+00  0.00000000000E+00 -0.70465241050E+03  0.71565356118E+03  0.12500000000E+03 0.  0.
<mgrwt>
<rscale>  0 0.12500000E+03</rscale>
<asrwt>0</asrwt>
<pdfrwt beam="1">  1       21 0.84624248E-03 0.12500000E+03</pdfrwt>
<pdfrwt beam="2">  1       21 0.10925429E+00 0.12500000E+03</pdfrwt>
<totfact> 0.32315319E+06</totfact>
</mgrwt>
</event>
<event>
 3    1  0.1620993E-001  0.1250000E+03  0.7546771E-02  0.1235069E+00
         21   -1    0    0  502  501  0.00000000000E+00  0.00000000000E+00  0.39857933500E+02  0.39857933500E+02  0.00000000000E+00 0. -1.
         21   -1    0    0  501  502 -0.00000000000E+00 -0.00000000000E+00 -0.98004328297E+02  0.98004328297E+02  0.00000000000E+00 0. -1.
         25    1    1    2    0    0  0.00000000000E+00  0.00000000000E+00 -0.58146394796E+02  0.13786226180E+03  0.12500000000E+03 0.  0.
<mgrwt>
<rscale>  0 0.12500000E+03</rscale>
<asrwt>0</asrwt>
<pdfrwt beam="1">  1       21 0.61319898E-02 0.12500000E+03</pdfrwt>
<pdfrwt beam="2">  1       21 0.15077589E-01 0.12500000E+03</pdfrwt>
<totfact> 0.72319629E+06</totfact>
</mgrwt>
</event>
<event>
 3    1  0.1620993E-001  0.1250000E+03  0.7546771E-02  0.1235069E+00
         21   -1    0    0  502  501  0.00000000000E+00  0.00000000000E+00  0.45706098246E+03  0.45706098246E+03  0.00000000000E+00 0.  1.
         21   -1    0    0  501  502 -0.00000000000E+00 -0.00000000000E+00 -0.85464525522E+01  0.85464525522E+01  0.00000000000E+00 0.  1.
         25    1    1    2    0    0  0.00000000000E+00  0.00000000000E+00  0.44851452990E+03  0.46560743501E+03  0.12500000000E+03 0.  0.
<mgrwt>
<rscale>  0 0.12500000E+03</rscale>
<asrwt>0</asrwt>
<pdfrwt beam="1">  1       21 0.70317055E-01 0.12500000E+03</pdfrwt>
<pdfrwt beam="2">  1       21 0.13148392E-02 0.12500000E+03</pdfrwt>
<totfact> 0.43972854E+06</totfact>
</mgrwt>
</event>
<event>
 3    1  0.1620993E-001  0.1250000E+03  0.7546771E-02  0.1235069E+00
         21   -1    0    0  502  501  0.00000000000E+00  0.00000000000E+00  0.33509393967E+03  0.33509393967E+03  0.00000000000E+00 0. -1.
         21   -1    0    0  501  502 -0.00000000000E+00 -0.00000000000E+00 -0.11657178891E+02  0.11657178891E+02  0.00000000000E+00 0. -1.
         25    1    1    2    0    0  0.00000000000E+00  0.00000000000E+00  0.32343676078E+03  0.34675111856E+03  0.12500000000E+03 0.  0.
<mgrwt>
<rscale>  0 0.12500000E+03</rscale>
<asrwt>0</asrwt>
<pdfrwt beam="1">  1       21 0.51552907E-01 0.12500000E+03</pdfrwt>
<pdfrwt beam="2">  1       21 0.17934124E-02 0.12500000E+03</pdfrwt>
<totfact> 0.51779272E+06</totfact>
</mgrwt>
</event>
<event>
 3    1  0.1620993E-001  0.1250000E+03  0.7546771E-02  0.1235069E+00
         21   -1    0    0  502  501  0.00000000000E+00  0.00000000000E+00  0.54040478857E+01  0.54040478857E+01  0.00000000000E+00 0. -1.
         21   -1    0    0  501  502 -0.00000000000E+00 -0.00000000000E+00 -0.72283778431E+03  0.72283778431E+03  0.00000000000E+00 0. -1.
         25    1    1    2    0    0  0.00000000000E+00  0.00000000000E+00 -0.71743373642E+03  0.72824183219E+03  0.12500000000E+03 0.  0.
<mgrwt>
<rscale>  0 0.12500000E+03</rscale>
<asrwt>0</asrwt>
<pdfrwt beam="1">  1       21 0.83139146E-03 0.12500000E+03</pdfrwt>
<pdfrwt beam="2">  1       21 0.11120588E+00 0.12500000E+03</pdfrwt>
<totfact> 0.31849322E+06</totfact>
</mgrwt>
</event>
<event>
 3    1  0.1620993E-001  0.1250000E+03  0.7546771E-02  0.1235069E+00
         21   -1    0    0  502  501  0.00000000000E+00  0.00000000000E+00  0.49288363277E+02  0.49288363277E+02  0.00000000000E+00 0.  1.
         21   -1    0    0  501  502 -0.00000000000E+00 -0.00000000000E+00 -0.79252986716E+02  0.79252986716E+02  0.00000000000E+00 0.  1.
         25    1    1    2    0    0  0.00000000000E+00  0.00000000000E+00 -0.29964623439E+02  0.12854134999E+03  0.12500000000E+03 0.  0.
<mgrwt>
<rscale>  0 0.12500000E+03</rscale>
<asrwt>0</asrwt>
<pdfrwt beam="1">  1       21 0.75828251E-02 0.12500000E+03</pdfrwt>
<pdfrwt beam="2">  1       21 0.12192767E-01 0.12500000E+03</pdfrwt>
<totfact> 0.73560554E+06</totfact>
</mgrwt>
</event>
<event>
 3    1  0.1620993E-001  0.1250000E+03  0.7546771E-02  0.1235069E+00
         21   -1    0    0  502  501  0.00000000000E+00  0.00000000000E+00  0.35730075090E+02  0.35730075090E+02  0.00000000000E+00 0. -1.
         21   -1    0    0  501  502 -0.00000000000E+00 -0.00000000000E+00 -0.10932666641E+03  0.10932666641E+03  0.00000000000E+00 0. -1.
         25    1    1    2    0    0  0.00000000000E+00  0.00000000000E+00 -0.73596591317E+02  0.14505674150E+03  0.12500000000E+03 0.  0.
<mgrwt>
<rscale>  0 0.12500000E+03</rscale>
<asrwt>0</asrwt>
<pdfrwt beam="1">  1       21 0.54969346E-02 0.12500000E+03</pdfrwt>
<pdfrwt beam="2">  1       21 0.16819487E-01 0.12500000E+03</pdfrwt>
<totfact> 0.71385838E+06</totfact>
</mgrwt>
</event>
<event>
 3    1  0.1620993E-001  0.1250000E+03  0.7546771E-02  0.1235069E+00
         21   -1    0    0  502  501  0.00000000000E+00  0.00000000000E+00  0.35416784769E+02  0.35416784769E+02  0.00000000000E+00 0. -1.
         21   -1    0    0  501  502 -0.00000000000E+00 -0.00000000000E+00 -0.11029374985E+03  0.11029374985E+03  0.00000000000E+00 0. -1.
         25    1    1    2    0    0  0.00000000000E+00  0.00000000000E+00 -0.74876965085E+02  0.14571053462E+03  0.12500000000E+03 0.  0.
<mgrwt>
<rscale>  0 0.12500000E+03</rscale>
<asrwt>0</asrwt>
<pdfrwt beam="1">  1       21 0.54487362E-02 0.12500000E+03</pdfrwt>
<pdfrwt beam="2">  1       21 0.16968269E-01 0.12500000E+03</pdfrwt>
<totfact> 0.71302292E+06</totfact>
</mgrwt>
</event>
<event>
 3    1  0.1620993E-001  0.1250000E+03  0.7546771E-02  0.1235069E+00
         21   -1    0    0  502  501  0.00000000000E+00  0.00000000000E+00  0.66291942717E+02  0.66291942717E+02  0.00000000000E+00 0.  1.
         21   -1    0    0  501  502 -0.00000000000E+00 -0.00000000000E+00 -0.58924958900E+02  0.58924958900E+02  0.00000000000E+00 0.  1.
         25    1    1    2    0    0  0.00000000000E+00  0.00000000000E+00  0.73669838172E+01  0.12521690162E+03  0.12500000000E+03 0.  0.
<mgrwt>
<rscale>  0 0.12500000E+03</rscale>
<asrwt>0</asrwt>
<pdfrwt beam="1">  1       21 0.10198760E-01 0.12500000E+03</pdfrwt>
<pdfrwt beam="2">  1       21 0.90653783E-02 0.12500000E+03</pdfrwt>
<totfact> 0.74014290E+06</totfact>
</mgrwt>
</event>
<event>
 3    1  0.1620993E-001  0.1250000E+03  0.7546771E-02  0.1235069E+00
         21   -1    0    0  502  501  0.00000000000E+00  0.00000000000E+00  0.19125385664E+01  0.19125385664E+01  0.00000000000E+00 0. -1.
         21   -1    0    0  501  502 -0.00000000000E+00 -0.00000000000E+00 -0.20424424734E+04  0.20424424734E+04  0.00000000000E+00 0. -1.
         25    1    1    2    0    0  0.00000000000E+00  0.00000000000E+00 -0.20405299348E+04  0.20443550119E+04  0.12500000000E+03 0.  0.
<mgrwt>
<rscale>  0 0.12500000E+03</rscale>
<asrwt>0</asrwt>
<pdfrwt beam="1">  1       21 0.29423533E-03 0.12500000E+03</pdfrwt>
<pdfrwt beam="2">  1       21 0.31422338E+00 0.12500000E+03</pdfrwt>
<totfact> 0.75234168E+05</totfact>
</mgrwt>
</event>
<event>
 3    1  0.1620993E-001  0.1250000E+03  0.7546771E-02  0.1235069E+00
         21   -1    0    0  502  501  0.00000000000E+00  0.00000000000E+00  0.63336951957E+02  0.63336951957E+02  0.00000000000E+00 0.  1.
         21   -1    0    0  501  502 -0.00000000000E+00 -0.00000000000E+00 -0.61674107757E+02  0.61674107757E+02  0.00000000000E+00 0.  1.
         25    1    1    2    0    0  0.00000000000E+00  0.00000000000E+00  0.16628441995E+01  0.12501105971E+03  0.12500000000E+03 0.  0.
<mgrwt>
<rscale>  0 0.12500000E+03</rscale>
<asrwt>0</asrwt>
<pdfrwt beam="1">  1       21 0.97441465E-02 0.12500000E+03</pdfrwt>
<pdfrwt beam="2">  1       21 0.94883243E-02 0.12500000E+03</pdfrwt>
<totfact> 0.74042088E+06</totfact>
</mgrwt>
</event>
<event>
 3    1  0.1620993E-001  0.1250000E+03  0.7546771E-02  0.1235069E+00
         21   -1    0    0  502  501  0.00000000000E+00  0.00000000000E+00  0.20223510135E+02  0.20223510135E+02  0.00000000000E+00 0. -1.
         21   -1    0    0  501  502 -0.00000000000E+00 -0.00000000000E+00 -0.19315390721E+03  0.19315390721E+03  0.00000000000E+00 0. -1.
         25    1    1    2    0    0  0.00000000000E+00  0.00000000000E+00 -0.17293039707E+03  0.21337741734E+03  0.12500000000E+03 0.  0.
<mgrwt>
<rscale>  0 0.12500000E+03</rscale>
<asrwt>0</asrwt>
<pdfrwt beam="1">  1       21 0.31113092E-02 0.12500000E+03</pdfrwt>
<pdfrwt beam="2">  1       21 0.29715986E-01 0.12500000E+03</pdfrwt>
<totfact> 0.63505935E+06</totfact>
</mgrwt>
</event>
<event>
 3    1  0.1620993E-001  0.1250000E+03  0.7546771E-02  0.1235069E+00
         21   -1    0    0  502  501  0.00000000000E+00  0.00000000000E+00  0.42113712463E+02  0.42113712463E+02  0.00000000000E+00 0. -1.
         21   -1    0    0  501  502 -0.00000000000E+00 -0.00000000000E+00 -0.92754824296E+02  0.92754824296E+02  0.00000000000E+00 0. -1.
         25    1    1    2    0    0  0.00000000000E+00  0.00000000000E+00 -0.50641111833E+02  0.13486853676E+03  0.12500000000E+03 0.  0.
<mgrwt>
<rscale>  0 0.12500000E+03</rscale>
<asrwt>0</asrwt>
<pdfrwt beam="1">  1       21 0.64790327E-02 0.12500000E+03</pdfrwt>
<pdfrwt beam="2">  1       21 0.14269973E-01 0.12500000E+03</pdfrwt>
<totfact> 0.72713883E+06</totfact>
</mgrwt>
</event>
<event>
 3    1  0.1620993E-001  0.1250000E+03  0.7546771E-02  0.1235069E+00
         21   -1    0    0  502  501  0.00000000000E+00  0.00000000000E+00  0.49483416887E+03  0.49483416887E+03  0.00000000000E+00 0.  1.
         21   -1    0    0  501  502 -0.00000000000E+00 -0.00000000000E+00 -0.78940587489E+01  0.78940587489E+01  0.00000000000E+00 0.  1.
         25    1    1    2    0    0  0.00000000000E+00  0.00000000000E+00  0.48694011012E+03  0.50272822762E+03  0.12500000000E+03 0.  0.
<mgrwt>
<rscale>  0 0.12500000E+03</rscale>
<asrwt>0</asrwt>
<pdfrwt beam="1">  1       21 0.76128310E-01 0.12500000E+03</pdfrwt>
<pdfrwt beam="2">  1       21 0.12144710E-02 0.12500000E+03</pdfrwt>
<totfact> 0.41896506E+06</totfact>
</mgrwt>
</event>
<event>
 3    1  0.1620993E-001  0.1250000E+03  0.7546771E-02  0.1235069E+00
         21   -1    0    0  502  501  0.00000000000E+00  0.00000000000E+00  0.17212131395E+03  0.17212131395E+03  0.00000000000E+00 0. -1.
         21   -1    0    0  501  502 -0.00000000000E+00 -0.00000000000E+00 -0.22694748898E+02  0.22694748898E+02  0.00000000000E+00 0. -1.
         25    1    1    2    0    0  0.00000000000E+00  0.00000000000E+00  0.14942656505E+03  0.19481606284E+03  0.12500000000E+03 0.  0.
<mgrwt>
<rscale>  0 0.12500000E+03</rscale>
<asrwt>0</asrwt>
<pdfrwt beam="1">  1       21 0.26480201E-01 0.12500000E+03</pdfrwt>
<pdfrwt beam="2">  1       21 0.34915000E-02 0.12500000E+03</pdfrwt>
<totfact> 0.65491160E+06</totfact>
</mgrwt>
</event>
<event>
 3    1  0.1620993E-001  0.1250000E+03  0.7546771E-02  0.1235069E+00
         21   -1    0    0  502  501  0.00000000000E+00  0.00000000000E+00  0.65476409561E+03  0.65476409561E+03  0.00000000000E+00 0. -1.
         21   -1    0    0  501  502 -0.00000000000E+00 -0.00000000000E+00 -0.59658891289E+01  0.59658891289E+01  0.00000000000E+00 0. -1.
         25    1    1    2    0    0  0.00000000000E+00  0.00000000000E+00  0.64879820648E+03  0.66072998474E+03  0.12500000000E+03 0.  0.
<mgrwt>
<rscale>  0 0.12500000E+03</rscale>
<asrwt>0</asrwt>
<pdfrwt beam="1">  1       21 0.10073288E+00 0.12500000E+03</pdfrwt>
<pdfrwt beam="2">  1       21 0.91782962E-03 0.12500000E+03</pdfrwt>
<totfact> 0.34479684E+06</totfact>
</mgrwt>
</event>
<event>
 3    1  0.1620993E-001  0.1250000E+03  0.7546771E-02  0.1235069E+00
         21   -1    0    0  502  501  0.00000000000E+00  0.00000000000E+00  0.10129710331E+03  0.10129710331E+03  0.00000000000E+00 0.  1.
         21   -1    0    0  501  502 -0.00000000000E+00 -0.00000000000E+00 -0.38562307038E+02  0.38562307038E+02  0.00000000000E+00 0.  1.
         25    1    1    2    0    0  0.00000000000E+00  0.00000000000E+00  0.62734796275E+02  0.13985941035E+03  0.12500000000E+03 0.  0.
<mgrwt>
<rscale>  0 0.12500000E+03</rscale>
<asrwt>0</asrwt>
<pdfrwt beam="1">  1       21 0.15584170E-01 0.12500000E+03</pdfrwt>
<pdfrwt beam="2">  1       21 0.59326627E-02 0.12500000E+03</pdfrwt>
<totfact> 0.72057667E+06</totfact>
</mgrwt>
</event>
<event>
 3    1  0.1620993E-001  0.1250000E+03  0.7546771E-02  0.1235069E+00
         21   -1    0    0  502  501  0.00000000000E+00  0.00000000000E+00  0.65493911808E+01  0.65493911808E+01  0.00000000000E+00 0. -1.
         21   -1    0    0  501  502 -0.00000000000E+00 -0.00000000000E+00 -0.59642948362E+03  0.59642948362E+03  0.00000000000E+00 0. -1.
         25    1    1    2    0    0  0.00000000000E+00  0.00000000000E+00 -0.58988009244E+03  0.60297887480E+03  0.12500000000E+03 0.  0.
<mgrwt>
<rscale>  0 0.12500000E+03</rscale>
<asrwt>0</asrwt>
<pdfrwt beam="1">  1       21 0.10075986E-02 0.12500000E+03</pdfrwt>
<pdfrwt beam="2">  1       21 0.91758388E-01 0.12500000E+03</pdfrwt>
<totfact> 0.36958259E+06</totfact>
</mgrwt>
</event>
<event>
 3    1  0.1620993E-001  0.1250000E+03  0.7546771E-02  0.1235069E+00
         21   -1    0    0  502  501  0.00000000000E+00  0.00000000000E+00  0.95283388335E+01  0.95283388335E+01  0.00000000000E+00 0.  1.
         21   -1    0    0  501  502 -0.00000000000E+00 -0.00000000000E+00 -0.40996128163E+03  0.40996128163E+03  0.00000000000E+00 0.  1.
         25    1    1    2    0    0  0.00000000000E+00  0.00000000000E+00 -0.40043294280E+03  0.41948962046E+03  0.12500000000E+03 0.  0.
<mgrwt>
<rscale>  0 0.12500000E+03</rscale>
<asrwt>0</asrwt>
<pdfrwt beam="1">  1       21 0.14658981E-02 0.12500000E+03</pdfrwt>
<pdfrwt beam="2">  1       21 0.63070975E-01 0.12500000E+03</pdfrwt>
<totfact> 0.46774930E+06</totfact>
</mgrwt>
</event>
<event>
 3    1  0.1620993E-001  0.1250000E+03  0.7546771E-02  0.1235069E+00
         21   -1    0    0  502  501  0.00000000000E+00  0.00000000000E+00  0.15424198131E+03  0.15424198131E+03  0.00000000000E+00 0. -1.
         21   -1    0    0  501  502 -0.00000000000E+00 -0.00000000000E+00 -0.25325465654E+02  0.25325465654E+02  0.00000000000E+00 0. -1.
         25    1    1    2    0    0  0.00000000000E+00  0.00000000000E+00  0.12891651565E+03  0.17956744696E+03  0.12500000000E+03 0.  0.
<mgrwt>
<rscale>  0 0.12500000E+03</rscale>
<asrwt>0</asrwt>
<pdfrwt beam="1">  1       21 0.23729535E-01 0.12500000E+03</pdfrwt>
<pdfrwt beam="2">  1       21 0.38962256E-02 0.12500000E+03</pdfrwt>
<totfact> 0.67201192E+06</totfact>
</mgrwt>
</event>
<event>
 3    1  0.1620993E-001  0.1250000E+03  0.7546771E-02  0.1235069E+00
         21   -1    0    0  502  501  0.00000000000E+00  0.00000000000E+00  0.34022258452E+03  0.34022258452E+03  0.00000000000E+00 0. -1.
         21   -1    0    0  501  502 -0.00000000000E+00 -0.00000000000E+00 -0.11481454136E+02  0.11481454136E+02  0.00000000000E+00 0. -1.
         25    1    1    2    0    0  0.00000000000E+00  0.00000000000E+00  0.32874113038E+03  0.35170403865E+03  0.12500000000E+03 0.  0.
<mgrwt>
<rscale>  0 0.12500000E+03</rscale>
<asrwt>0</asrwt>
<pdfrwt beam="1">  1       21 0.52341928E-01 0.12500000E+03</pdfrwt>
<pdfrwt beam="2">  1       21 0.17663778E-02 0.12500000E+03</pdfrwt>
<totfact> 0.51412833E+06</totfact>
</mgrwt>
</event>
<event>
 3    1  0.1620993E-001  0.1250000E+03  0.7546771E-02  0.1235069E+00
         21   -1    0    0  502  501  0.00000000000E+00  0.00000000000E+00  0.60050882511E+03  0.60050882511E+03  0.00000000000E+00 0.  1.
         21   -1    0    0  501  502 -0.00000000000E+00 -0.00000000000E+00 -0.65049002391E+01  0.65049002391E+01  0.00000000000E+00 0.  1.
         25    1    1    2    0    0  0.00000000000E+00  0.00000000000E+00  0.59400392487E+03  0.60701372535E+03  0.12500000000E+03 0.  0.
<mgrwt>
<rscale>  0 0.12500000E+03</rscale>
<asrwt>0</asrwt>
<pdfrwt beam="1">  1       21 0.92385930E-01 0.12500000E+03</pdfrwt>
<pdfrwt beam="2">  1       21 0.10007544E-02 0.12500000E+03</pdfrwt>
<totfact> 0.36777366E+06</totfact>
</mgrwt>
</event>
<event>
 3    1  0.1620993E-001  0.1250000E+03  0.7546771E-02  0.1235069E+00
         21   -1    0    0  502  501  0.00000000000E+00  0.00000000000E+00  0.20596325501E+03  0.20596325501E+03  0.00000000000E+00 0.  1.
         21   -1    0    0  501  502 -0.00000000000E+00 -0.00000000000E+00 -0.18965761635E+02  0.18965761635E+02  0.00000000000E+00 0.  1.
         25    1    1    2    0    0  0.00000000000E+00  0.00000000000E+00  0.18699749337E+03  0.22492901664E+03  0.12500000000E+03 0.  0.
<mgrwt>
<rscale>  0 0.12500000E+03</rscale>
<asrwt>0</asrwt>
<pdfrwt beam="1">  1       21 0.31686653E-01 0.12500000E+03</pdfrwt>
<pdfrwt beam="2">  1       21 0.29178096E-02 0.12500000E+03</pdfrwt>
<totfact> 0.62322249E+06</totfact>
</mgrwt>
</event>
<event>
 3    1  0.1620993E-001  0.1250000E+03  0.7546771E-02  0.1235069E+00
         21   -1    0    0  502  501  0.00000000000E+00  0.00000000000E+00  0.11879495475E+03  0.11879495475E+03  0.00000000000E+00 0.  1.
         21   -1    0    0  501  502 -0.00000000000E+00 -0.00000000000E+00 -0.32882288716E+02  0.32882288716E+02  0.00000000000E+00 0.  1.
         25    1    1    2    0    0  0.00000000000E+00  0.00000000000E+00  0.85912666030E+02  0.15167724346E+03  0.12500000000E+03 0.  0.
<mgrwt>
<rscale>  0 0.12500000E+03</rscale>
<asrwt>0</asrwt>
<pdfrwt beam="1">  1       21 0.18276147E-01 0.12500000E+03</pdfrwt>
<pdfrwt beam="2">  1       21 0.50588137E-02 0.12500000E+03</pdfrwt>
<totfact> 0.70549140E+06</totfact>
</mgrwt>
</event>
<event>
 3    1  0.1620993E-001  0.1250000E+03  0.7546771E-02  0.1235069E+00
         21   -1    0    0  502  501  0.00000000000E+00  0.00000000000E+00  0.34055453743E+01  0.34055453743E+01  0.00000000000E+00 0. -1.
         21   -1    0    0  501  502 -0.00000000000E+00 -0.00000000000E+00 -0.11470262677E+04  0.11470262677E+04  0.00000000000E+00 0. -1.
         25    1    1    2    0    0  0.00000000000E+00  0.00000000000E+00 -0.11436207223E+04  0.11504318130E+04  0.12500000000E+03 0.  0.
<mgrwt>
<rscale>  0 0.12500000E+03</rscale>
<asrwt>0</asrwt>
<pdfrwt beam="1">  1       21 0.52393021E-03 0.12500000E+03</pdfrwt>
<pdfrwt beam="2">  1       21 0.17646553E+00 0.12500000E+03</pdfrwt>
<totfact> 0.20160042E+06</totfact>
</mgrwt>
</event>
<event>
 3    1  0.1620993E-001  0.1250000E+03  0.7546771E-02  0.1235069E+00
         21   -1    0    0  502  501  0.00000000000E+00  0.00000000000E+00  0.77079586844E+02  0.77079586844E+02  0.00000000000E+00 0.  1.
         21   -1    0    0  501  502 -0.00000000000E+00 -0.00000000000E+00 -0.50678138790E+02  0.50678138790E+02  0.00000000000E+00 0.  1.
         25    1    1    2    0    0  0.00000000000E+00  0.00000000000E+00  0.26401448054E+02  0.12775772563E+03  0.12500000000E+03 0.  0.
<mgrwt>
<rscale>  0 0.12500000E+03</rscale>
<asrwt>0</asrwt>
<pdfrwt beam="1">  1       21 0.11858398E-01 0.12500000E+03</pdfrwt>
<pdfrwt beam="2">  1       21 0.77966368E-02 0.12500000E+03</pdfrwt>
<totfact> 0.73666314E+06</totfact>
</mgrwt>
</event>
<event>
 3    1  0.1620993E-001  0.1250000E+03  0.7546771E-02  0.1235069E+00
         21   -1    0    0  502  501  0.00000000000E+00  0.00000000000E+00  0.56287004762E+03  0.56287004762E+03  0.00000000000E+00 0.  1.
         21   -1    0    0  501  502 -0.00000000000E+00 -0.00000000000E+00 -0.69398789587E+01  0.69398789587E+01  0.00000000000E+00 0.  1.
         25    1    1    2    0    0  0.00000000000E+00  0.00000000000E+00  0.55593016867E+03  0.56980992658E+03  0.12500000000E+03 0.  0.
<mgrwt>
<rscale>  0 0.12500000E+03</rscale>
<asrwt>0</asrwt>
<pdfrwt beam="1">  1       21 0.86595356E-01 0.12500000E+03</pdfrwt>
<pdfrwt beam="2">  1       21 0.10676741E-02 0.12500000E+03</pdfrwt>
<totfact> 0.38494539E+06</totfact>
</mgrwt>
</event>
<event>
 3    1  0.1620993E-001  0.1250000E+03  0.7546771E-02  0.1235069E+00
         21   -1    0    0  502  501  0.00000000000E+00  0.00000000000E+00  0.13740878006E+04  0.13740878006E+04  0.00000000000E+00 0.  1.
         21   -1    0    0  501  502 -0.00000000000E+00 -0.00000000000E+00 -0.28427950516E+01  0.28427950516E+01  0.00000000000E+00 0.  1.
         25    1    1    2    0    0  0.00000000000E+00  0.00000000000E+00  0.13712450056E+04  0.13769305957E+04  0.12500000000E+03 0.  0.
<mgrwt>
<rscale>  0 0.12500000E+03</rscale>
<asrwt>0</asrwt>
<pdfrwt beam="1">  1       21 0.21139759E+00 0.12500000E+03</pdfrwt>
<pdfrwt beam="2">  1       21 0.43735418E-03 0.12500000E+03</pdfrwt>
<totfact> 0.15924619E+06</totfact>
</mgrwt>
</event>
<event>
 3    1  0.1620993E-001  0.1250000E+03  0.7546771E-02  0.1235069E+00
         21   -1    0    0  502  501  0.00000000000E+00  0.00000000000E+00  0.19894865330E+03  0.19894865330E+03  0.00000000000E+00 0.  1.
         21   -1    0    0  501  502 -0.00000000000E+00 -0.00000000000E+00 -0.19634463140E+02  0.19634463140E+02  0.00000000000E+00 0.  1.
         25    1    1    2    0    0  0.00000000000E+00  0.00000000000E+00  0.17931419016E+03  0.21858311644E+03  0.12500000000E+03 0.  0.
<mgrwt>
<rscale>  0 0.12500000E+03</rscale>
<asrwt>0</asrwt>
<pdfrwt beam="1">  1       21 0.30607484E-01 0.12500000E+03</pdfrwt>
<pdfrwt beam="2">  1       21 0.30206868E-02 0.12500000E+03</pdfrwt>
<totfact> 0.62967655E+06</totfact>
</mgrwt>
</event>
<event>
 3    1  0.1620993E-001  0.1250000E+03  0.7546771E-02  0.1235069E+00
         21   -1    0    0  502  501  0.00000000000E+00  0.00000000000E+00  0.46530826585E+02  0.46530826585E+02  0.00000000000E+00 0. -1.
         21   -1    0    0  501  502 -0.00000000000E+00 -0.00000000000E+00 -0.83949722940E+02  0.83949722940E+02  0.00000000000E+00 0. -1.
         25    1    1    2    0    0  0.00000000000E+00  0.00000000000E+00 -0.37418896355E+02  0.13048054953E+03  0.12500000000E+03 0.  0.
<mgrwt>
<rscale>  0 0.12500000E+03</rscale>
<asrwt>0</asrwt>
<pdfrwt beam="1">  1       21 0.71585888E-02 0.12500000E+03</pdfrwt>
<pdfrwt beam="2">  1       21 0.12915342E-01 0.12500000E+03</pdfrwt>
<totfact> 0.73300758E+06</totfact>
</mgrwt>
</event>
<event>
 3    1  0.1620993E-001  0.1250000E+03  0.7546771E-02  0.1235069E+00
         21   -1    0    0  502  501  0.00000000000E+00  0.00000000000E+00  0.22327109287E+02  0.22327109287E+02  0.00000000000E+00 0.  1.
         21   -1    0    0  501  502 -0.00000000000E+00 -0.00000000000E+00 -0.17495547452E+03  0.17495547452E+03  0.00000000000E+00 0.  1.
         25    1    1    2    0    0  0.00000000000E+00  0.00000000000E+00 -0.15262836523E+03  0.19728258381E+03  0.12500000000E+03 0.  0.
<mgrwt>
<rscale>  0 0.12500000E+03</rscale>
<asrwt>0</asrwt>
<pdfrwt beam="1">  1       21 0.34349400E-02 0.12500000E+03</pdfrwt>
<pdfrwt beam="2">  1       21 0.26916226E-01 0.12500000E+03</pdfrwt>
<totfact> 0.65222063E+06</totfact>
</mgrwt>
</event>
<event>
 3    1  0.1620993E-001  0.1250000E+03  0.7546771E-02  0.1235069E+00
         21   -1    0    0  502  501  0.00000000000E+00  0.00000000000E+00  0.13624540190E+02  0.13624540190E+02  0.00000000000E+00 0. -1.
         21   -1    0    0  501  502 -0.00000000000E+00 -0.00000000000E+00 -0.28670692335E+03  0.28670692335E+03  0.00000000000E+00 0. -1.
         25    1    1    2    0    0  0.00000000000E+00  0.00000000000E+00 -0.27308238316E+03  0.30033146354E+03  0.12500000000E+03 0.  0.
<mgrwt>
<rscale>  0 0.12500000E+03</rscale>
<asrwt>0</asrwt>
<pdfrwt beam="1">  1       21 0.20960831E-02 0.12500000E+03</pdfrwt>
<pdfrwt beam="2">  1       21 0.44108758E-01 0.12500000E+03</pdfrwt>
<totfact> 0.55428638E+06</totfact>
</mgrwt>
</event>
<event>
 3    1  0.1620993E-001  0.1250000E+03  0.7546771E-02  0.1235069E+00
         21   -1    0    0  502  501  0.00000000000E+00  0.00000000000E+00  0.53501311736E+02  0.53501311736E+02  0.00000000000E+00 0. -1.
         21   -1    0    0  501  502 -0.00000000000E+00 -0.00000000000E+00 -0.73012228547E+02  0.73012228547E+02  0.00000000000E+00 0. -1.
         25    1    1    2    0    0  0.00000000000E+00  0.00000000000E+00 -0.19510916811E+02  0.12651354028E+03  0.12500000000E+03 0.  0.
<mgrwt>
<rscale>  0 0.12500000E+03</rscale>
<asrwt>0</asrwt>
<pdfrwt beam="1">  1       21 0.82309711E-02 0.12500000E+03</pdfrwt>
<pdfrwt beam="2">  1       21 0.11232651E-01 0.12500000E+03</pdfrwt>
<totfact> 0.73835520E+06</totfact>
</mgrwt>
</event>
<event>
 3    1  0.1620993E-001  0.1250000E+03  0.7546771E-02  0.1235069E+00
         21   -1    0    0  502  501  0.00000000000E+00  0.00000000000E+00  0.50487837474E+03  0.50487837474E+03  0.00000000000E+00 0.  1.
         21   -1    0    0  501  502 -0.00000000000E+00 -0.00000000000E+00 -0.77370119131E+01  0.77370119131E+01  0.00000000000E+00 0.  1.
         25    1    1    2    0    0  0.00000000000E+00  0.00000000000E+00  0.49714136282E+03  0.51261538665E+03  0.12500000000E+03 0.  0.
<mgrwt>
<rscale>  0 0.12500000E+03</rscale>
<asrwt>0</asrwt>
<pdfrwt beam="1">  1       21 0.77673570E-01 0.12500000E+03</pdfrwt>
<pdfrwt beam="2">  1       21 0.11903099E-02 0.12500000E+03</pdfrwt>
<totfact> 0.41368080E+06</totfact>
</mgrwt>
</event>
<event>
 3    1  0.1620993E-001  0.1250000E+03  0.7546771E-02  0.1235069E+00
         21   -1    0    0  502  501  0.00000000000E+00  0.00000000000E+00  0.20952239281E+03  0.20952239281E+03  0.00000000000E+00 0. -1.
         21   -1    0    0  501  502 -0.00000000000E+00 -0.00000000000E+00 -0.18643591969E+02  0.18643591969E+02  0.00000000000E+00 0. -1.
         25    1    1    2    0    0  0.00000000000E+00  0.00000000000E+00  0.19087880084E+03  0.22816598478E+03  0.12500000000E+03 0.  0.
<mgrwt>
<rscale>  0 0.12500000E+03</rscale>
<asrwt>0</asrwt>
<pdfrwt beam="1">  1       21 0.32234213E-01 0.12500000E+03</pdfrwt>
<pdfrwt beam="2">  1       21 0.28682451E-02 0.12500000E+03</pdfrwt>
<totfact> 0.61996971E+06</totfact>
</mgrwt>
</event>
<event>
 3    1  0.1620993E-001  0.1250000E+03  0.7546771E-02  0.1235069E+00
         21   -1    0    0  502  501  0.00000000000E+00  0.00000000000E+00  0.33578647062E+02  0.33578647062E+02  0.00000000000E+00 0. -1.
         21   -1    0    0  501  502 -0.00000000000E+00 -0.00000000000E+00 -0.11633136954E+03  0.11633136954E+03  0.00000000000E+00 0. -1.
         25    1    1    2    0    0  0.00000000000E+00  0.00000000000E+00 -0.82752722478E+02  0.14991001660E+03  0.12500000000E+03 0.  0.
<mgrwt>
<rscale>  0 0.12500000E+03</rscale>
<asrwt>0</asrwt>
<pdfrwt beam="1">  1       21 0.51659457E-02 0.12500000E+03</pdfrwt>
<pdfrwt beam="2">  1       21 0.17897134E-01 0.12500000E+03</pdfrwt>
<totfact> 0.70770506E+06</totfact>
</mgrwt>
</event>
<event>
 3    1  0.1620993E-001  0.1250000E+03  0.7546771E-02  0.1235069E+00
         21   -1    0    0  502  501  0.00000000000E+00  0.00000000000E+00  0.32915023676E+02  0.32915023676E+02  0.00000000000E+00 0. -1.
         21   -1    0    0  501  502 -0.00000000000E+00 -0.00000000000E+00 -0.11867680967E+03  0.11867680967E+03  0.00000000000E+00 0. -1.
         25    1    1    2    0    0  0.00000000000E+00  0.00000000000E+00 -0.85761785993E+02  0.15159183334E+03  0.12500000000E+03 0.  0.
<mgrwt>
<rscale>  0 0.12500000E+03</rscale>
<asrwt>0</asrwt>
<pdfrwt beam="1">  1       21 0.50638498E-02 0.12500000E+03</pdfrwt>
<pdfrwt beam="2">  1       21 0.18257971E-01 0.12500000E+03</pdfrwt>
<totfact> 0.70559806E+06</totfact>
</mgrwt>
</event>
<event>
 3    1  0.1620993E-001  0.1250000E+03  0.7546771E-02  0.1235069E+00
         21   -1    0    0  502  501  0.00000000000E+00  0.00000000000E+00  0.42912668560E+02  0.42912668560E+02  0.00000000000E+00 0.  1.
         21   -1    0    0  501  502 -0.00000000000E+00 -0.00000000000E+00 -0.91027897613E+02  0.91027897613E+02  0.00000000000E+00 0.  1.
         25    1    1    2    0    0  0.00000000000E+00  0.00000000000E+00 -0.48115229052E+02  0.13394056617E+03  0.12500000000E+03 0.  0.
<mgrwt>
<rscale>  0 0.12500000E+03</rscale>
<asrwt>0</asrwt>
<pdfrwt beam="1">  1       21 0.66019491E-02 0.12500000E+03</pdfrwt>
<pdfrwt beam="2">  1       21 0.14004292E-01 0.12500000E+03</pdfrwt>
<totfact> 0.72837057E+06</totfact>
</mgrwt>
</event>
<event>
 3    1  0.1620993E-001  0.1250000E+03  0.7546771E-02  0.1235069E+00
         21   -1    0    0  502  501  0.00000000000E+00  0.00000000000E+00  0.89025741238E+01  0.89025741238E+01  0.00000000000E+00 0. -1.
         21   -1    0    0  501  502 -0.00000000000E+00 -0.00000000000E+00 -0.43877758788E+03  0.43877758788E+03  0.00000000000E+00 0. -1.
         25    1    1    2    0    0  0.00000000000E+00  0.00000000000E+00 -0.42987501376E+03  0.44768016201E+03  0.12500000000E+03 0.  0.
<mgrwt>
<rscale>  0 0.12500000E+03</rscale>
<asrwt>0</asrwt>
<pdfrwt beam="1">  1       21 0.13696273E-02 0.12500000E+03</pdfrwt>
<pdfrwt beam="2">  1       21 0.67504220E-01 0.12500000E+03</pdfrwt>
<totfact> 0.45031418E+06</totfact>
</mgrwt>
</event>
<event>
 3    1  0.1620993E-001  0.1250000E+03  0.7546771E-02  0.1235069E+00
         21   -1    0    0  502  501  0.00000000000E+00  0.00000000000E+00  0.94828265631E+01  0.94828265631E+01  0.00000000000E+00 0. -1.
         21   -1    0    0  501  502 -0.00000000000E+00 -0.00000000000E+00 -0.41192886678E+03  0.41192886678E+03  0.00000000000E+00 0. -1.
         25    1    1    2    0    0  0.00000000000E+00  0.00000000000E+00 -0.40244604022E+03  0.42141169334E+03  0.12500000000E+03 0.  0.
<mgrwt>
<rscale>  0 0.12500000E+03</rscale>
<asrwt>0</asrwt>
<pdfrwt beam="1">  1       21 0.14588968E-02 0.12500000E+03</pdfrwt>
<pdfrwt beam="2">  1       21 0.63373656E-01 0.12500000E+03</pdfrwt>
<totfact> 0.46652831E+06</totfact>
</mgrwt>
</event>
<event>
 3    1  0.1620993E-001  0.1250000E+03  0.7546771E-02  0.1235069E+00
         21   -1    0    0  502  501  0.00000000000E+00  0.00000000000E+00  0.76091478374E+02  0.76091478374E+02  0.00000000000E+00 0. -1.
         21   -1    0    0  501  502 -0.00000000000E+00 -0.00000000000E+00 -0.51336234799E+02  0.51336234799E+02  0.00000000000E+00 0. -1.
         25    1    1    2    0    0  0.00000000000E+00  0.00000000000E+00  0.24755243576E+02  0.12742771317E+03  0.12500000000E+03 0.  0.
<mgrwt>
<rscale>  0 0.12500000E+03</rscale>
<asrwt>0</asrwt>
<pdfrwt beam="1">  1       21 0.11706381E-01 0.12500000E+03</pdfrwt>
<pdfrwt beam="2">  1       21 0.78978822E-02 0.12500000E+03</pdfrwt>
<totfact> 0.73711020E+06</totfact>
</mgrwt>
</event>
<event>
 3    1  0.1620993E-001  0.1250000E+03  0.7546771E-02  0.1235069E+00
         21   -1    0    0  502  501  0.00000000000E+00  0.00000000000E+00  0.13665511300E+03  0.13665511300E+03  0.00000000000E+00 0.  1.
         21   -1    0    0  501  502 -0.00000000000E+00 -0.00000000000E+00 -0.28584733600E+02  0.28584733600E+02  0.00000000000E+00 0.  1.
         25    1    1    2    0    0  0.00000000000E+00  0.00000000000E+00  0.10807037940E+03  0.16523984660E+03  0.12500000000E+03 0.  0.
<mgrwt>
<rscale>  0 0.12500000E+03</rscale>
<asrwt>0</asrwt>
<pdfrwt beam="1">  1       21 0.21023863E-01 0.12500000E+03</pdfrwt>
<pdfrwt beam="2">  1       21 0.43976514E-02 0.12500000E+03</pdfrwt>
<totfact> 0.68884844E+06</totfact>
</mgrwt>
</event>
<event>
 3    1  0.1620993E-001  0.1250000E+03  0.7546771E-02  0.1235069E+00
         21   -1    0    0  502  501  0.00000000000E+00  0.00000000000E+00  0.31556262066E+02  0.31556262066E+02  0.00000000000E+00 0. -1.
         21   -1    0    0  501  502 -0.00000000000E+00 -0.00000000000E+00 -0.12378684116E+03  0.12378684116E+03  0.00000000000E+00 0. -1.
         25    1    1    2    0    0  0.00000000000E+00  0.00000000000E+00 -0.92230579097E+02  0.15534310323E+03  0.12500000000E+03 0.  0.
<mgrwt>
<rscale>  0 0.12500000E+03</rscale>
<asrwt>0</asrwt>
<pdfrwt beam="1">  1       21 0.48548095E-02 0.12500000E+03</pdfrwt>
<pdfrwt beam="2">  1       21 0.19044130E-01 0.12500000E+03</pdfrwt>
<totfact> 0.70093040E+06</totfact>
</mgrwt>
</event>
<event>
 3    1  0.1620993E-001  0.1250000E+03  0.7546771E-02  0.1235069E+00
         21   -1    0    0  502  501  0.00000000000E+00  0.00000000000E+00  0.21213488256E+02  0.21213488256E+02  0.00000000000E+00 0. -1.
         21   -1    0    0  501  502 -0.00000000000E+00 -0.00000000000E+00 -0.18413991857E+03  0.18413991857E+03  0.00000000000E+00 0. -1.
         25    1    1    2    0    0  0.00000000000E+00  0.00000000000E+00 -0.16292643031E+03  0.20535340682E+03  0.12500000000E+03 0.  0.
<mgrwt>
<rscale>  0 0.12500000E+03</rscale>
<asrwt>0</asrwt>
<pdfrwt beam="1">  1       21 0.32636135E-02 0.12500000E+03</pdfrwt>
<pdfrwt beam="2">  1       21 0.28329219E-01 0.12500000E+03</pdfrwt>
<totfact> 0.64351750E+06</totfact>
</mgrwt>
</event>
<event>
 3    1  0.1620993E-001  0.1250000E+03  0.7546771E-02  0.1235069E+00
         21   -1    0    0  502  501  0.00000000000E+00  0.00000000000E+00  0.45643977768E+01  0.45643977768E+01  0.00000000000E+00 0. -1.
         21   -1    0    0  501  502 -0.00000000000E+00 -0.00000000000E+00 -0.85580840912E+03  0.85580840912E+03  0.00000000000E+00 0. -1.
         25    1    1    2    0    0  0.00000000000E+00  0.00000000000E+00 -0.85124401134E+03  0.86037280690E+03  0.12500000000E+03 0.  0.
<mgrwt>
<rscale>  0 0.12500000E+03</rscale>
<asrwt>0</asrwt>
<pdfrwt beam="1">  1       21 0.70221604E-03 0.12500000E+03</pdfrwt>
<pdfrwt beam="2">  1       21 0.13166265E+00 0.12500000E+03</pdfrwt>
<totfact> 0.27457479E+06</totfact>
</mgrwt>
</event>
<event>
 3    1  0.1620993E-001  0.1250000E+03  0.7546771E-02  0.1235069E+00
         21   -1    0    0  502  501  0.00000000000E+00  0.00000000000E+00  0.15616607983E+03  0.15616607983E+03  0.00000000000E+00 0. -1.
         21   -1    0    0  501  502 -0.00000000000E+00 -0.00000000000E+00 -0.25013434443E+02  0.25013434443E+02  0.00000000000E+00 0. -1.
         25    1    1    2    0    0  0.00000000000E+00  0.00000000000E+00  0.13115264538E+03  0.18117951427E+03  0.12500000000E+03 0.  0.
<mgrwt>
<rscale>  0 0.12500000E+03</rscale>
<asrwt>0</asrwt>
<pdfrwt beam="1">  1       21 0.24025550E-01 0.12500000E+03</pdfrwt>
<pdfrwt beam="2">  1       21 0.38482208E-02 0.12500000E+03</pdfrwt>
<totfact> 0.67016484E+06</totfact>
</mgrwt>
</event>
<event>
 3    1  0.1620993E-001  0.1250000E+03  0.7546771E-02  0.1235069E+00
         21   -1    0    0  502  501  0.00000000000E+00  0.00000000000E+00  0.63548737417E+02  0.63548737417E+02  0.00000000000E+00 0.  1.
         21   -1    0    0  501  502 -0.00000000000E+00 -0.00000000000E+00 -0.61468569774E+02  0.61468569774E+02  0.00000000000E+00 0.  1.
         25    1    1    2    0    0  0.00000000000E+00  0.00000000000E+00  0.20801676431E+01  0.12501730719E+03  0.12500000000E+03 0.  0.
<mgrwt>
<rscale>  0 0.12500000E+03</rscale>
<asrwt>0</asrwt>
<pdfrwt beam="1">  1       21 0.97767288E-02 0.12500000E+03</pdfrwt>
<pdfrwt beam="2">  1       21 0.94567031E-02 0.12500000E+03</pdfrwt>
<totfact> 0.74041244E+06</totfact>
</mgrwt>
</event>
<event>
 3    1  0.1620993E-001  0.1250000E+03  0.7546771E-02  0.1235069E+00
         21   -1    0    0  502  501  0.00000000000E+00  0.00000000000E+00  0.30916794188E+01  0.30916794188E+01  0.00000000000E+00 0.  1.
         21   -1    0    0  501  502 -0.00000000000E+00 -0.00000000000E+00 -0.12634718775E+04  0.12634718775E+04  0.00000000000E+00 0.  1.
         25    1    1    2    0    0  0.00000000000E+00  0.00000000000E+00 -0.12603801981E+04  0.12665635569E+04  0.12500000000E+03 0.  0.
<mgrwt>
<rscale>  0 0.12500000E+03</rscale>
<asrwt>0</asrwt>
<pdfrwt beam="1">  1       21 0.47564100E-03 0.12500000E+03</pdfrwt>
<pdfrwt beam="2">  1       21 0.19438110E+00 0.12500000E+03</pdfrwt>
<totfact> 0.17863486E+06</totfact>
</mgrwt>
</event>
<event>
 3    1  0.1620993E-001  0.1250000E+03  0.7546771E-02  0.1235069E+00
         21   -1    0    0  502  501  0.00000000000E+00  0.00000000000E+00  0.17409908342E+02  0.17409908342E+02  0.00000000000E+00 0.  1.
         21   -1    0    0  501  502 -0.00000000000E+00 -0.00000000000E+00 -0.22436936044E+03  0.22436936044E+03  0.00000000000E+00 0.  1.
         25    1    1    2    0    0  0.00000000000E+00  0.00000000000E+00 -0.20695945210E+03  0.24177926878E+03  0.12500000000E+03 0.  0.
<mgrwt>
<rscale>  0 0.12500000E+03</rscale>
<asrwt>0</asrwt>
<pdfrwt beam="1">  1       21 0.26784476E-02 0.12500000E+03</pdfrwt>
<pdfrwt beam="2">  1       21 0.34518361E-01 0.12500000E+03</pdfrwt>
<totfact> 0.60660911E+06</totfact>
</mgrwt>
</event>
<event>
 3    1  0.1620993E-001  0.1250000E+03  0.7546771E-02  0.1235069E+00
         21   -1    0    0  502  501  0.00000000000E+00  0.00000000000E+00  0.99538548306E+01  0.99538548306E+01  0.00000000000E+00 0. -1.
         21   -1    0    0  501  502 -0.00000000000E+00 -0.00000000000E+00 -0.39243590212E+03  0.39243590212E+03  0.00000000000E+00 0. -1.
         25    1    1    2    0    0  0.00000000000E+00  0.00000000000E+00 -0.38248204729E+03  0.40238975695E+03  0.12500000000E+03 0.  0.
<mgrwt>
<rscale>  0 0.12500000E+03</rscale>
<asrwt>0</asrwt>
<pdfrwt beam="1">  1       21 0.15313624E-02 0.12500000E+03</pdfrwt>
<pdfrwt beam="2">  1       21 0.60374750E-01 0.12500000E+03</pdfrwt>
<totfact> 0.47883245E+06</totfact>
</mgrwt>
</event>
<event>
 3    1  0.1620993E-001  0.1250000E+03  0.7546771E-02  0.1235069E+00
         21   -1    0    0  502  501  0.00000000000E+00  0.00000000000E+00  0.42352699445E+01  0.42352699445E+01  0.00000000000E+00 0. -1.
         21   -1    0    0  501  502 -0.00000000000E+00 -0.00000000000E+00 -0.92231429192E+03  0.92231429192E+03  0.00000000000E+00 0. -1.
         25    1    1    2    0    0  0.00000000000E+00  0.00000000000E+00 -0.91807902198E+03  0.92654956187E+03  0.12500000000E+03 0.  0.
<mgrwt>
<rscale>  0 0.12500000E+03</rscale>
<asrwt>0</asrwt>
<pdfrwt beam="1">  1       21 0.65157979E-03 0.12500000E+03</pdfrwt>
<pdfrwt beam="2">  1       21 0.14189455E+00 0.12500000E+03</pdfrwt>
<totfact> 0.25549932E+06</totfact>
</mgrwt>
</event>
<event>
 3    1  0.1620993E-001  0.1250000E+03  0.7546771E-02  0.1235069E+00
         21   -1    0    0  502  501  0.00000000000E+00  0.00000000000E+00  0.81731318013E+02  0.81731318013E+02  0.00000000000E+00 0. -1.
         21   -1    0    0  501  502 -0.00000000000E+00 -0.00000000000E+00 -0.47793796735E+02  0.47793796735E+02  0.00000000000E+00 0. -1.
         25    1    1    2    0    0  0.00000000000E+00  0.00000000000E+00  0.33937521278E+02  0.12952511475E+03  0.12500000000E+03 0.  0.
<mgrwt>
<rscale>  0 0.12500000E+03</rscale>
<asrwt>0</asrwt>
<pdfrwt beam="1">  1       21 0.12574049E-01 0.12500000E+03</pdfrwt>
<pdfrwt beam="2">  1       21 0.73528918E-02 0.12500000E+03</pdfrwt>
<totfact> 0.73428452E+06</totfact>
</mgrwt>
</event>
<event>
 3    1  0.1620993E-001  0.1250000E+03  0.7546771E-02  0.1235069E+00
         21   -1    0    0  502  501  0.00000000000E+00  0.00000000000E+00  0.17344520154E+03  0.17344520154E+03  0.00000000000E+00 0. -1.
         21   -1    0    0  501  502 -0.00000000000E+00 -0.00000000000E+00 -0.22521522448E+02  0.22521522448E+02  0.00000000000E+00 0. -1.
         25    1    1    2    0    0  0.00000000000E+00  0.00000000000E+00  0.15092367909E+03  0.19596672399E+03  0.12500000000E+03 0.  0.
<mgrwt>
<rscale>  0 0.12500000E+03</rscale>
<asrwt>0</asrwt>
<pdfrwt beam="1">  1       21 0.26683876E-01 0.12500000E+03</pdfrwt>
<pdfrwt beam="2">  1       21 0.34648497E-02 0.12500000E+03</pdfrwt>
<totfact> 0.65365373E+06</totfact>
</mgrwt>
</event>
<event>
 3    1  0.1620993E-001  0.1250000E+03  0.7546771E-02  0.1235069E+00
         21   -1    0    0  502  501  0.00000000000E+00  0.00000000000E+00  0.12189454052E+03  0.12189454052E+03  0.00000000000E+00 0.  1.
         21   -1    0    0  501  502 -0.00000000000E+00 -0.00000000000E+00 -0.32046144013E+02  0.32046144013E+02  0.00000000000E+00 0.  1.
         25    1    1    2    0    0  0.00000000000E+00  0.00000000000E+00  0.89848396509E+02  0.15394068454E+03  0.12500000000E+03 0.  0.
<mgrwt>
<rscale>  0 0.12500000E+03</rscale>
<asrwt>0</asrwt>
<pdfrwt beam="1">  1       21 0.18753006E-01 0.12500000E+03</pdfrwt>
<pdfrwt beam="2">  1       21 0.49301761E-02 0.12500000E+03</pdfrwt>
<totfact> 0.70267557E+06</totfact>
</mgrwt>
</event>
<event>
 3    1  0.1620993E-001  0.1250000E+03  0.7546771E-02  0.1235069E+00
         21   -1    0    0  502  501  0.00000000000E+00  0.00000000000E+00  0.92962850442E+02  0.92962850442E+02  0.00000000000E+00 0.  1.
         21   -1    0    0  501  502 -0.00000000000E+00 -0.00000000000E+00 -0.42019473171E+02  0.42019473171E+02  0.00000000000E+00 0.  1.
         25    1    1    2    0    0  0.00000000000E+00  0.00000000000E+00  0.50943377271E+02  0.13498232361E+03  0.12500000000E+03 0.  0.
<mgrwt>
<rscale>  0 0.12500000E+03</rscale>
<asrwt>0</asrwt>
<pdfrwt beam="1">  1       21 0.14301977E-01 0.12500000E+03</pdfrwt>
<pdfrwt beam="2">  1       21 0.64645343E-02 0.12500000E+03</pdfrwt>
<totfact> 0.72698812E+06</totfact>
</mgrwt>
</event>
<event>
 3    1  0.1620993E-001  0.1250000E+03  0.7546771E-02  0.1235069E+00
         21   -1    0    0  502  501  0.00000000000E+00  0.00000000000E+00  0.12979459294E+03  0.12979459294E+03  0.00000000000E+00 0. -1.
         21   -1    0    0  501  502 -0.00000000000E+00 -0.00000000000E+00 -0.30095629652E+02  0.30095629652E+02  0.00000000000E+00 0. -1.
         25    1    1    2    0    0  0.00000000000E+00  0.00000000000E+00  0.99698963291E+02  0.15989022259E+03  0.12500000000E+03 0.  0.
<mgrwt>
<rscale>  0 0.12500000E+03</rscale>
<asrwt>0</asrwt>
<pdfrwt beam="1">  1       21 0.19968399E-01 0.12500000E+03</pdfrwt>
<pdfrwt beam="2">  1       21 0.46300970E-02 0.12500000E+03</pdfrwt>
<totfact> 0.69532912E+06</totfact>
</mgrwt>
</event>
<event>
 3    1  0.1620993E-001  0.1250000E+03  0.7546771E-02  0.1235069E+00
         21   -1    0    0  502  501  0.00000000000E+00  0.00000000000E+00  0.59895056732E+02  0.59895056732E+02  0.00000000000E+00 0.  1.
         21   -1    0    0  501  502 -0.00000000000E+00 -0.00000000000E+00 -0.65218236915E+02  0.65218236915E+02  0.00000000000E+00 0.  1.
         25    1    1    2    0    0  0.00000000000E+00  0.00000000000E+00 -0.53231801823E+01  0.12511329365E+03  0.12500000000E+03 0.  0.
<mgrwt>
<rscale>  0 0.12500000E+03</rscale>
<asrwt>0</asrwt>
<pdfrwt beam="1">  1       21 0.92146241E-02 0.12500000E+03</pdfrwt>
<pdfrwt beam="2">  1       21 0.10033575E-01 0.12500000E+03</pdfrwt>
<totfact> 0.74028280E+06</totfact>
</mgrwt>
</event>
<event>
 3    1  0.1620993E-001  0.1250000E+03  0.7546771E-02  0.1235069E+00
         21   -1    0    0  502  501  0.00000000000E+00  0.00000000000E+00  0.13766865375E+03  0.13766865375E+03  0.00000000000E+00 0.  1.
         21   -1    0    0  501  502 -0.00000000000E+00 -0.00000000000E+00 -0.28374287781E+02  0.28374287781E+02  0.00000000000E+00 0.  1.
         25    1    1    2    0    0  0.00000000000E+00  0.00000000000E+00  0.10929436597E+03  0.16604294153E+03  0.12500000000E+03 0.  0.
<mgrwt>
<rscale>  0 0.12500000E+03</rscale>
<asrwt>0</asrwt>
<pdfrwt beam="1">  1       21 0.21179793E-01 0.12500000E+03</pdfrwt>
<pdfrwt beam="2">  1       21 0.43652751E-02 0.12500000E+03</pdfrwt>
<totfact> 0.68788549E+06</totfact>
</mgrwt>
</event>
<event>
 3    1  0.1620993E-001  0.1250000E+03  0.7546771E-02  0.1235069E+00
         21   -1    0    0  502  501  0.00000000000E+00  0.00000000000E+00  0.57343989874E+01  0.57343989874E+01  0.00000000000E+00 0.  1.
         21   -1    0    0  501  502 -0.00000000000E+00 -0.00000000000E+00 -0.68119606057E+03  0.68119606057E+03  0.00000000000E+00 0.  1.
         25    1    1    2    0    0  0.00000000000E+00  0.00000000000E+00 -0.67546166159E+03  0.68693045956E+03  0.12500000000E+03 0.  0.
<mgrwt>
<rscale>  0 0.12500000E+03</rscale>
<asrwt>0</asrwt>
<pdfrwt beam="1">  1       21 0.88221521E-03 0.12500000E+03</pdfrwt>
<pdfrwt beam="2">  1       21 0.10479940E+00 0.12500000E+03</pdfrwt>
<totfact> 0.33420134E+06</totfact>
</mgrwt>
</event>
<event>
 3    1  0.1620993E-001  0.1250000E+03  0.7546771E-02  0.1235069E+00
         21   -1    0    0  502  501  0.00000000000E+00  0.00000000000E+00  0.50044684520E+02  0.50044684520E+02  0.00000000000E+00 0. -1.
         21   -1    0    0  501  502 -0.00000000000E+00 -0.00000000000E+00 -0.78055242779E+02  0.78055242779E+02  0.00000000000E+00 0. -1.
         25    1    1    2    0    0  0.00000000000E+00  0.00000000000E+00 -0.28010558259E+02  0.12809992730E+03  0.12500000000E+03 0.  0.
<mgrwt>
<rscale>  0 0.12500000E+03</rscale>
<asrwt>0</asrwt>
<pdfrwt beam="1">  1       21 0.76991823E-02 0.12500000E+03</pdfrwt>
<pdfrwt beam="2">  1       21 0.12008499E-01 0.12500000E+03</pdfrwt>
<totfact> 0.73620065E+06</totfact>
</mgrwt>
</event>
<event>
 3    1  0.1620993E-001  0.1250000E+03  0.7546771E-02  0.1235069E+00
         21   -1    0    0  502  501  0.00000000000E+00  0.00000000000E+00  0.17673479536E+03  0.17673479536E+03  0.00000000000E+00 0. -1.
         21   -1    0    0  501  502 -0.00000000000E+00 -0.00000000000E+00 -0.22102325646E+02  0.22102325646E+02  0.00000000000E+00 0. -1.
         25    1    1    2    0    0  0.00000000000E+00  0.00000000000E+00  0.15463246971E+03  0.19883712100E+03  0.12500000000E+03 0.  0.
<mgrwt>
<rscale>  0 0.12500000E+03</rscale>
<asrwt>0</asrwt>
<pdfrwt beam="1">  1       21 0.27189968E-01 0.12500000E+03</pdfrwt>
<pdfrwt beam="2">  1       21 0.34003579E-02 0.12500000E+03</pdfrwt>
<totfact> 0.65053476E+06</totfact>
</mgrwt>
</event>
<event>
 3    1  0.1620993E-001  0.1250000E+03  0.7546771E-02  0.1235069E+00
         21   -1    0    0  502  501  0.00000000000E+00  0.00000000000E+00  0.14199203650E+02  0.14199203650E+02  0.00000000000E+00 0. -1.
         21   -1    0    0  501  502 -0.00000000000E+00 -0.00000000000E+00 -0.27510345624E+03  0.27510345624E+03  0.00000000000E+00 0. -1.
         25    1    1    2    0    0  0.00000000000E+00  0.00000000000E+00 -0.26090425259E+03  0.28930265989E+03  0.12500000000E+03 0.  0.
<mgrwt>
<rscale>  0 0.12500000E+03</rscale>
<asrwt>0</asrwt>
<pdfrwt beam="1">  1       21 0.21844927E-02 0.12500000E+03</pdfrwt>
<pdfrwt beam="2">  1       21 0.42323611E-01 0.12500000E+03</pdfrwt>
<totfact> 0.56357047E+06</totfact>
</mgrwt>
</event>
<event>
 3    1  0.1620993E-001  0.1250000E+03  0.7546771E-02  0.1235069E+00
         21   -1    0    0  502  501  0.00000000000E+00  0.00000000000E+00  0.58425512340E+01  0.58425512340E+01  0.00000000000E+00 0.  1.
         21   -1    0    0  501  502 -0.00000000000E+00 -0.00000000000E+00 -0.66858634927E+03  0.66858634927E+03  0.00000000000E+00 0.  1.
         25    1    1    2    0    0  0.00000000000E+00  0.00000000000E+00 -0.66274379804E+03  0.67442890051E+03  0.12500000000E+03 0.  0.
<mgrwt>
<rscale>  0 0.12500000E+03</rscale>
<asrwt>0</asrwt>
<pdfrwt beam="1">  1       21 0.89885371E-03 0.12500000E+03</pdfrwt>
<pdfrwt beam="2">  1       21 0.10285948E+00 0.12500000E+03</pdfrwt>
<totfact> 0.33919486E+06</totfact>
</mgrwt>
</event>
<event>
 3    1  0.1620993E-001  0.1250000E+03  0.7546771E-02  0.1235069E+00
         21   -1    0    0  502  501  0.00000000000E+00  0.00000000000E+00  0.31176362967E+03  0.31176362967E+03  0.00000000000E+00 0. -1.
         21   -1    0    0  501  502 -0.00000000000E+00 -0.00000000000E+00 -0.12529524384E+02  0.12529524384E+02  0.00000000000E+00 0. -1.
         25    1    1    2    0    0  0.00000000000E+00  0.00000000000E+00  0.29923410529E+03  0.32429315406E+03  0.12500000000E+03 0.  0.
<mgrwt>
<rscale>  0 0.12500000E+03</rscale>
<asrwt>0</asrwt>
<pdfrwt beam="1">  1       21 0.47963630E-01 0.12500000E+03</pdfrwt>
<pdfrwt beam="2">  1       21 0.19276194E-02 0.12500000E+03</pdfrwt>
<totfact> 0.53494879E+06</totfact>
</mgrwt>
</event>
<event>
 3    1  0.1620993E-001  0.1250000E+03  0.7546771E-02  0.1235069E+00
         21   -1    0    0  502  501  0.00000000000E+00  0.00000000000E+00  0.20858173212E+02  0.20858173212E+02  0.00000000000E+00 0.  1.
         21   -1    0    0  501  502 -0.00000000000E+00 -0.00000000000E+00 -0.18727670732E+03  0.18727670732E+03  0.00000000000E+00 0.  1.
         25    1    1    2    0    0  0.00000000000E+00  0.00000000000E+00 -0.16641853411E+03  0.20813488054E+03  0.12500000000E+03 0.  0.
<mgrwt>
<rscale>  0 0.12500000E+03</rscale>
<asrwt>0</asrwt>
<pdfrwt beam="1">  1       21 0.32089498E-02 0.12500000E+03</pdfrwt>
<pdfrwt beam="2">  1       21 0.28811801E-01 0.12500000E+03</pdfrwt>
<totfact> 0.64056303E+06</totfact>
</mgrwt>
</event>
<event>
 3    1  0.1620993E-001  0.1250000E+03  0.7546771E-02  0.1235069E+00
         21   -1    0    0  502  501  0.00000000000E+00  0.00000000000E+00  0.31116273001E+02  0.31116273001E+02  0.00000000000E+00 0. -1.
         21   -1    0    0  501  502 -0.00000000000E+00 -0.00000000000E+00 -0.12553720684E+03  0.12553720684E+03  0.00000000000E+00 0. -1.
         25    1    1    2    0    0  0.00000000000E+00  0.00000000000E+00 -0.94420933842E+02  0.15665347985E+03  0.12500000000E+03 0.  0.
<mgrwt>
<rscale>  0 0.12500000E+03</rscale>
<asrwt>0</asrwt>
<pdfrwt beam="1">  1       21 0.47871190E-02 0.12500000E+03</pdfrwt>
<pdfrwt beam="2">  1       21 0.19313416E-01 0.12500000E+03</pdfrwt>
<totfact> 0.69930734E+06</totfact>
</mgrwt>
</event>
<event>
 3    1  0.1620993E-001  0.1250000E+03  0.7546771E-02  0.1235069E+00
         21   -1    0    0  502  501  0.00000000000E+00  0.00000000000E+00  0.22099226659E+02  0.22099226659E+02  0.00000000000E+00 0. -1.
         21   -1    0    0  501  502 -0.00000000000E+00 -0.00000000000E+00 -0.17675957898E+03  0.17675957898E+03  0.00000000000E+00 0. -1.
         25    1    1    2    0    0  0.00000000000E+00  0.00000000000E+00 -0.15466035232E+03  0.19885880564E+03  0.12500000000E+03 0.  0.
<mgrwt>
<rscale>  0 0.12500000E+03</rscale>
<asrwt>0</asrwt>
<pdfrwt beam="1">  1       21 0.33998811E-02 0.12500000E+03</pdfrwt>
<pdfrwt beam="2">  1       21 0.27193780E-01 0.12500000E+03</pdfrwt>
<totfact> 0.65051118E+06</totfact>
</mgrwt>
</event>
<event>
 3    1  0.1620993E-001  0.1250000E+03  0.7546771E-02  0.1235069E+00
         21   -1    0    0  502  501  0.00000000000E+00  0.00000000000E+00  0.11573462345E+02  0.11573462345E+02  0.00000000000E+00 0.  1.
         21   -1    0    0  501  502 -0.00000000000E+00 -0.00000000000E+00 -0.33751783897E+03  0.33751783897E+03  0.00000000000E+00 0.  1.
         25    1    1    2    0    0  0.00000000000E+00  0.00000000000E+00 -0.32594437662E+03  0.34909130131E+03  0.12500000000E+03 0.  0.
<mgrwt>
<rscale>  0 0.12500000E+03</rscale>
<asrwt>0</asrwt>
<pdfrwt beam="1">  1       21 0.17805325E-02 0.12500000E+03</pdfrwt>
<pdfrwt beam="2">  1       21 0.51925827E-01 0.12500000E+03</pdfrwt>
<totfact> 0.51605609E+06</totfact>
</mgrwt>
</event>
<event>
 3    1  0.1620993E-001  0.1250000E+03  0.7546771E-02  0.1235069E+00
         21   -1    0    0  502  501  0.00000000000E+00  0.00000000000E+00  0.11935999532E+03  0.11935999532E+03  0.00000000000E+00 0. -1.
         21   -1    0    0  501  502 -0.00000000000E+00 -0.00000000000E+00 -0.32726626619E+02  0.32726626619E+02  0.00000000000E+00 0. -1.
         25    1    1    2    0    0  0.00000000000E+00  0.00000000000E+00  0.86633368701E+02  0.15208662194E+03  0.12500000000E+03 0.  0.
<mgrwt>
<rscale>  0 0.12500000E+03</rscale>
<asrwt>0</asrwt>
<pdfrwt beam="1">  1       21 0.18363076E-01 0.12500000E+03</pdfrwt>
<pdfrwt beam="2">  1       21 0.50348657E-02 0.12500000E+03</pdfrwt>
<totfact> 0.70498057E+06</totfact>
</mgrwt>
</event>
<event>
 3    1  0.1620993E-001  0.1250000E+03  0.7546771E-02  0.1235069E+00
         21   -1    0    0  502  501  0.00000000000E+00  0.00000000000E+00  0.86275202295E+01  0.86275202295E+01  0.00000000000E+00 0. -1.
         21   -1    0    0  501  502 -0.00000000000E+00 -0.00000000000E+00 -0.45276625219E+03  0.45276625219E+03  0.00000000000E+00 0. -1.
         25    1    1    2    0    0  0.00000000000E+00  0.00000000000E+00 -0.44413873196E+03  0.46139377242E+03  0.12500000000E+03 0.  0.
<mgrwt>
<rscale>  0 0.12500000E+03</rscale>
<asrwt>0</asrwt>
<pdfrwt beam="1">  1       21 0.13273109E-02 0.12500000E+03</pdfrwt>
<pdfrwt beam="2">  1       21 0.69656340E-01 0.12500000E+03</pdfrwt>
<totfact> 0.44218250E+06</totfact>
</mgrwt>
</event>
<event>
 3    1  0.1620993E-001  0.1250000E+03  0.7546771E-02  0.1235069E+00
         21   -1    0    0  502  501  0.00000000000E+00  0.00000000000E+00  0.49401604040E+02  0.49401604040E+02  0.00000000000E+00 0.  1.
         21   -1    0    0  501  502 -0.00000000000E+00 -0.00000000000E+00 -0.79071319159E+02  0.79071319159E+02  0.00000000000E+00 0.  1.
         25    1    1    2    0    0  0.00000000000E+00  0.00000000000E+00 -0.29669715120E+02  0.12847292320E+03  0.12500000000E+03 0.  0.
<mgrwt>
<rscale>  0 0.12500000E+03</rscale>
<asrwt>0</asrwt>
<pdfrwt beam="1">  1       21 0.76002467E-02 0.12500000E+03</pdfrwt>
<pdfrwt beam="2">  1       21 0.12164818E-01 0.12500000E+03</pdfrwt>
<totfact> 0.73569769E+06</totfact>
</mgrwt>
</event>
<event>
 3    1  0.1620993E-001  0.1250000E+03  0.7546771E-02  0.1235069E+00
         21   -1    0    0  502  501  0.00000000000E+00  0.00000000000E+00  0.24449737338E+02  0.24449737338E+02  0.00000000000E+00 0. -1.
         21   -1    0    0  501  502 -0.00000000000E+00 -0.00000000000E+00 -0.15976654252E+03  0.15976654252E+03  0.00000000000E+00 0. -1.
         25    1    1    2    0    0  0.00000000000E+00  0.00000000000E+00 -0.13531680518E+03  0.18421627986E+03  0.12500000000E+03 0.  0.
<mgrwt>
<rscale>  0 0.12500000E+03</rscale>
<asrwt>0</asrwt>
<pdfrwt beam="1">  1       21 0.37614978E-02 0.12500000E+03</pdfrwt>
<pdfrwt beam="2">  1       21 0.24579469E-01 0.12500000E+03</pdfrwt>
<totfact> 0.66671118E+06</totfact>
</mgrwt>
</event>
<event>
 3    1  0.1620993E-001  0.1250000E+03  0.7546771E-02  0.1235069E+00
         21   -1    0    0  502  501  0.00000000000E+00  0.00000000000E+00  0.15863507099E+03  0.15863507099E+03  0.00000000000E+00 0.  1.
         21   -1    0    0  501  502 -0.00000000000E+00 -0.00000000000E+00 -0.24624126151E+02  0.24624126151E+02  0.00000000000E+00 0.  1.
         25    1    1    2    0    0  0.00000000000E+00  0.00000000000E+00  0.13401094484E+03  0.18325919714E+03  0.12500000000E+03 0.  0.
<mgrwt>
<rscale>  0 0.12500000E+03</rscale>
<asrwt>0</asrwt>
<pdfrwt beam="1">  1       21 0.24405395E-01 0.12500000E+03</pdfrwt>
<pdfrwt beam="2">  1       21 0.37883272E-02 0.12500000E+03</pdfrwt>
<totfact> 0.66779605E+06</totfact>
</mgrwt>
</event>
<event>
 3    1  0.1620993E-001  0.1250000E+03  0.7546771E-02  0.1235069E+00
         21   -1    0    0  502  501  0.00000000000E+00  0.00000000000E+00  0.24076968396E+02  0.24076968396E+02  0.00000000000E+00 0. -1.
         21   -1    0    0  501  502 -0.00000000000E+00 -0.00000000000E+00 -0.16224010996E+03  0.16224010996E+03  0.00000000000E+00 0. -1.
         25    1    1    2    0    0  0.00000000000E+00  0.00000000000E+00 -0.13816314156E+03  0.18631707835E+03  0.12500000000E+03 0.  0.
<mgrwt>
<rscale>  0 0.12500000E+03</rscale>
<asrwt>0</asrwt>
<pdfrwt beam="1">  1       21 0.37041489E-02 0.12500000E+03</pdfrwt>
<pdfrwt beam="2">  1       21 0.24960017E-01 0.12500000E+03</pdfrwt>
<totfact> 0.66434145E+06</totfact>
</mgrwt>
</event>
<event>
 3    1  0.1620993E-001  0.1250000E+03  0.7546771E-02  0.1235069E+00
         21   -1    0    0  502  501  0.00000000000E+00  0.00000000000E+00  0.40072638824E+02  0.40072638824E+02  0.00000000000E+00 0.  1.
         21   -1    0    0  501  502 -0.00000000000E+00 -0.00000000000E+00 -0.97479230582E+02  0.97479230582E+02  0.00000000000E+00 0.  1.
         25    1    1    2    0    0  0.00000000000E+00  0.00000000000E+00 -0.57406591758E+02  0.13755186941E+03  0.12500000000E+03 0.  0.
<mgrwt>
<rscale>  0 0.12500000E+03</rscale>
<asrwt>0</asrwt>
<pdfrwt beam="1">  1       21 0.61650213E-02 0.12500000E+03</pdfrwt>
<pdfrwt beam="2">  1       21 0.14996805E-01 0.12500000E+03</pdfrwt>
<totfact> 0.72360317E+06</totfact>
</mgrwt>
</event>
<event>
 3    1  0.1620993E-001  0.1250000E+03  0.7546771E-02  0.1235069E+00
         21   -1    0    0  502  501  0.00000000000E+00  0.00000000000E+00  0.41684887434E+03  0.41684887434E+03  0.00000000000E+00 0. -1.
         21   -1    0    0  501  502 -0.00000000000E+00 -0.00000000000E+00 -0.93709021192E+01  0.93709021192E+01  0.00000000000E+00 0. -1.
         25    1    1    2    0    0  0.00000000000E+00  0.00000000000E+00  0.40747797223E+03  0.42621977646E+03  0.12500000000E+03 0.  0.
<mgrwt>
<rscale>  0 0.12500000E+03</rscale>
<asrwt>0</asrwt>
<pdfrwt beam="1">  1       21 0.64130582E-01 0.12500000E+03</pdfrwt>
<pdfrwt beam="2">  1       21 0.14416776E-02 0.12500000E+03</pdfrwt>
<totfact> 0.46349501E+06</totfact>
</mgrwt>
</event>
<event>
 3    1  0.1620993E-001  0.1250000E+03  0.7546771E-02  0.1235069E+00
         21   -1    0    0  502  501  0.00000000000E+00  0.00000000000E+00  0.21826912408E+02  0.21826912408E+02  0.00000000000E+00 0. -1.
         21   -1    0    0  501  502 -0.00000000000E+00 -0.00000000000E+00 -0.17896484519E+03  0.17896484519E+03  0.00000000000E+00 0. -1.
         25    1    1    2    0    0  0.00000000000E+00  0.00000000000E+00 -0.15713793278E+03  0.20079175759E+03  0.12500000000E+03 0.  0.
<mgrwt>
<rscale>  0 0.12500000E+03</rscale>
<asrwt>0</asrwt>
<pdfrwt beam="1">  1       21 0.33579866E-02 0.12500000E+03</pdfrwt>
<pdfrwt beam="2">  1       21 0.27533052E-01 0.12500000E+03</pdfrwt>
<totfact> 0.64841561E+06</totfact>
</mgrwt>
</event>
<event>
 3    1  0.1620993E-001  0.1250000E+03  0.7546771E-02  0.1235069E+00
         21   -1    0    0  502  501  0.00000000000E+00  0.00000000000E+00  0.18905066128E+02  0.18905066128E+02  0.00000000000E+00 0.  1.
         21   -1    0    0  501  502 -0.00000000000E+00 -0.00000000000E+00 -0.20662450867E+03  0.20662450867E+03  0.00000000000E+00 0.  1.
         25    1    1    2    0    0  0.00000000000E+00  0.00000000000E+00 -0.18771944254E+03  0.22552957480E+03  0.12500000000E+03 0.  0.
<mgrwt>
<rscale>  0 0.12500000E+03</rscale>
<asrwt>0</asrwt>
<pdfrwt beam="1">  1       21 0.29084718E-02 0.12500000E+03</pdfrwt>
<pdfrwt beam="2">  1       21 0.31788385E-01 0.12500000E+03</pdfrwt>
<totfact> 0.62261697E+06</totfact>
</mgrwt>
</event>
<event>
 3    1  0.1620993E-001  0.1250000E+03  0.7546771E-02  0.1235069E+00
         21   -1    0    0  502  501  0.00000000000E+00  0.00000000000E+00  0.12335268384E+02  0.12335268384E+02  0.00000000000E+00 0. -1.
         21   -1    0    0  501  502 -0.00000000000E+00 -0.00000000000E+00 -0.31667328820E+03  0.31667328820E+03  0.00000000000E+00 0. -1.
         25    1    1    2    0    0  0.00000000000E+00  0.00000000000E+00 -0.30433801982E+03  0.32900855659E+03  0.12500000000E+03 0.  0.
<mgrwt>
<rscale>  0 0.12500000E+03</rscale>
<asrwt>0</asrwt>
<pdfrwt beam="1">  1       21 0.18977336E-02 0.12500000E+03</pdfrwt>
<pdfrwt beam="2">  1       21 0.48718966E-01 0.12500000E+03</pdfrwt>
<totfact> 0.53127094E+06</totfact>
</mgrwt>
</event>
<event>
 3    1  0.1620993E-001  0.1250000E+03  0.7546771E-02  0.1235069E+00
         21   -1    0    0  502  501  0.00000000000E+00  0.00000000000E+00  0.65788387292E+02  0.65788387292E+02  0.00000000000E+00 0. -1.
         21   -1    0    0  501  502 -0.00000000000E+00 -0.00000000000E+00 -0.59375980486E+02  0.59375980486E+02  0.00000000000E+00 0. -1.
         25    1    1    2    0    0  0.00000000000E+00  0.00000000000E+00  0.64124068060E+01  0.12516436778E+03  0.12500000000E+03 0.  0.
<mgrwt>
<rscale>  0 0.12500000E+03</rscale>
<asrwt>0</asrwt>
<pdfrwt beam="1">  1       21 0.10121290E-01 0.12500000E+03</pdfrwt>
<pdfrwt beam="2">  1       21 0.91347662E-02 0.12500000E+03</pdfrwt>
<totfact> 0.74021383E+06</totfact>
</mgrwt>
</event>
<event>
 3    1  0.1620993E-001  0.1250000E+03  0.7546771E-02  0.1235069E+00
         21   -1    0    0  502  501  0.00000000000E+00  0.00000000000E+00  0.25398982876E+03  0.25398982876E+03  0.00000000000E+00 0. -1.
         21   -1    0    0  501  502 -0.00000000000E+00 -0.00000000000E+00 -0.15379552871E+02  0.15379552871E+02  0.00000000000E+00 0. -1.
         25    1    1    2    0    0  0.00000000000E+00  0.00000000000E+00  0.23861027589E+03  0.26936938163E+03  0.12500000000E+03 0.  0.
<mgrwt>
<rscale>  0 0.12500000E+03</rscale>
<asrwt>0</asrwt>
<pdfrwt beam="1">  1       21 0.39075355E-01 0.12500000E+03</pdfrwt>
<pdfrwt beam="2">  1       21 0.23660852E-02 0.12500000E+03</pdfrwt>
<totfact> 0.58101017E+06</totfact>
</mgrwt>
</event>
<event>
 3    1  0.1620993E-001  0.1250000E+03  0.7546771E-02  0.1235069E+00
         21   -1    0    0  502  501  0.00000000000E+00  0.00000000000E+00  0.12798810872E+04  0.12798810872E+04  0.00000000000E+00 0. -1.
         21   -1    0    0  501  502 -0.00000000000E+00 -0.00000000000E+00 -0.30520413491E+01  0.30520413491E+01  0.00000000000E+00 0. -1.
         25    1    1    2    0    0  0.00000000000E+00  0.00000000000E+00  0.12768290458E+04  0.12829331285E+04  0.12500000000E+03 0.  0.
<mgrwt>
<rscale>  0 0.12500000E+03</rscale>
<asrwt>0</asrwt>
<pdfrwt beam="1">  1       21 0.19690435E+00 0.12500000E+03</pdfrwt>
<pdfrwt beam="2">  1       21 0.46954584E-03 0.12500000E+03</pdfrwt>
<totfact> 0.17561648E+06</totfact>
</mgrwt>
</event>
<event>
 3    1  0.1620993E-001  0.1250000E+03  0.7546771E-02  0.1235069E+00
         21   -1    0    0  502  501  0.00000000000E+00  0.00000000000E+00  0.96082744696E+02  0.96082744696E+02  0.00000000000E+00 0.  1.
         21   -1    0    0  501  502 -0.00000000000E+00 -0.00000000000E+00 -0.40655062596E+02  0.40655062596E+02  0.00000000000E+00 0.  1.
         25    1    1    2    0    0  0.00000000000E+00  0.00000000000E+00  0.55427682101E+02  0.13673780729E+03  0.12500000000E+03 0.  0.
<mgrwt>
<rscale>  0 0.12500000E+03</rscale>
<asrwt>0</asrwt>
<pdfrwt beam="1">  1       21 0.14781961E-01 0.12500000E+03</pdfrwt>
<pdfrwt beam="2">  1       21 0.62546250E-02 0.12500000E+03</pdfrwt>
<totfact> 0.72467183E+06</totfact>
</mgrwt>
</event>
<event>
 3    1  0.1620993E-001  0.1250000E+03  0.7546771E-02  0.1235069E+00
         21   -1    0    0  502  501  0.00000000000E+00  0.00000000000E+00  0.11359193800E+03  0.11359193800E+03  0.00000000000E+00 0. -1.
         21   -1    0    0  501  502 -0.00000000000E+00 -0.00000000000E+00 -0.34388444011E+02  0.34388444011E+02  0.00000000000E+00 0. -1.
         25    1    1    2    0    0  0.00000000000E+00  0.00000000000E+00  0.79203493989E+02  0.14798038201E+03  0.12500000000E+03 0.  0.
<mgrwt>
<rscale>  0 0.12500000E+03</rscale>
<asrwt>0</asrwt>
<pdfrwt beam="1">  1       21 0.17475683E-01 0.12500000E+03</pdfrwt>
<pdfrwt beam="2">  1       21 0.52905299E-02 0.12500000E+03</pdfrwt>
<totfact> 0.71013833E+06</totfact>
</mgrwt>
</event>
<event>
 3    1  0.1620993E-001  0.1250000E+03  0.7546771E-02  0.1235069E+00
         21   -1    0    0  502  501  0.00000000000E+00  0.00000000000E+00  0.19936514585E+03  0.19936514585E+03  0.00000000000E+00 0. -1.
         21   -1    0    0  501  502 -0.00000000000E+00 -0.00000000000E+00 -0.19593444899E+02  0.19593444899E+02  0.00000000000E+00 0. -1.
         25    1    1    2    0    0  0.00000000000E+00  0.00000000000E+00  0.17977170095E+03  0.21895859075E+03  0.12500000000E+03 0.  0.
<mgrwt>
<rscale>  0 0.12500000E+03</rscale>
<asrwt>0</asrwt>
<pdfrwt beam="1">  1       21 0.30671559E-01 0.12500000E+03</pdfrwt>
<pdfrwt beam="2">  1       21 0.30143763E-02 0.12500000E+03</pdfrwt>
<totfact> 0.62929141E+06</totfact>
</mgrwt>
</event>
<event>
 3    1  0.1620993E-001  0.1250000E+03  0.7546771E-02  0.1235069E+00
         21   -1    0    0  502  501  0.00000000000E+00  0.00000000000E+00  0.28532520338E+03  0.28532520338E+03  0.00000000000E+00 0.  1.
         21   -1    0    0  501  502 -0.00000000000E+00 -0.00000000000E+00 -0.13690518586E+02  0.13690518586E+02  0.00000000000E+00 0.  1.
         25    1    1    2    0    0  0.00000000000E+00  0.00000000000E+00  0.27163468480E+03  0.29901572197E+03  0.12500000000E+03 0.  0.
<mgrwt>
<rscale>  0 0.12500000E+03</rscale>
<asrwt>0</asrwt>
<pdfrwt beam="1">  1       21 0.43896181E-01 0.12500000E+03</pdfrwt>
<pdfrwt beam="2">  1       21 0.21062338E-02 0.12500000E+03</pdfrwt>
<totfact> 0.55538072E+06</totfact>
</mgrwt>
</event>
<event>
 3    1  0.1620993E-001  0.1250000E+03  0.7546771E-02  0.1235069E+00
         21   -1    0    0  502  501  0.00000000000E+00  0.00000000000E+00  0.10874923567E+02  0.10874923567E+02  0.00000000000E+00 0.  1.
         21   -1    0    0  501  502 -0.00000000000E+00 -0.00000000000E+00 -0.35919792686E+03  0.35919792686E+03  0.00000000000E+00 0.  1.
         25    1    1    2    0    0  0.00000000000E+00  0.00000000000E+00 -0.34832300329E+03  0.37007285042E+03  0.12500000000E+03 0.  0.
<mgrwt>
<rscale>  0 0.12500000E+03</rscale>
<asrwt>0</asrwt>
<pdfrwt beam="1">  1       21 0.16730654E-02 0.12500000E+03</pdfrwt>
<pdfrwt beam="2">  1       21 0.55261211E-01 0.12500000E+03</pdfrwt>
<totfact> 0.50089311E+06</totfact>
</mgrwt>
</event>
<event>
 3    1  0.1620993E-001  0.1250000E+03  0.7546771E-02  0.1235069E+00
         21   -1    0    0  502  501  0.00000000000E+00  0.00000000000E+00  0.13492389208E+02  0.13492389208E+02  0.00000000000E+00 0.  1.
         21   -1    0    0  501  502 -0.00000000000E+00 -0.00000000000E+00 -0.28951506956E+03  0.28951506956E+03  0.00000000000E+00 0.  1.
         25    1    1    2    0    0  0.00000000000E+00  0.00000000000E+00 -0.27602268035E+03  0.30300745877E+03  0.12500000000E+03 0.  0.
<mgrwt>
<rscale>  0 0.12500000E+03</rscale>
<asrwt>0</asrwt>
<pdfrwt beam="1">  1       21 0.20757524E-02 0.12500000E+03</pdfrwt>
<pdfrwt beam="2">  1       21 0.44540774E-01 0.12500000E+03</pdfrwt>
<totfact> 0.55207167E+06</totfact>
</mgrwt>
</event>
<event>
 3    1  0.1620993E-001  0.1250000E+03  0.7546771E-02  0.1235069E+00
         21   -1    0    0  502  501  0.00000000000E+00  0.00000000000E+00  0.66547483482E+03  0.66547483482E+03  0.00000000000E+00 0. -1.
         21   -1    0    0  501  502 -0.00000000000E+00 -0.00000000000E+00 -0.58698688449E+01  0.58698688449E+01  0.00000000000E+00 0. -1.
         25    1    1    2    0    0  0.00000000000E+00  0.00000000000E+00  0.65960496598E+03  0.67134470367E+03  0.12500000000E+03 0.  0.
<mgrwt>
<rscale>  0 0.12500000E+03</rscale>
<asrwt>0</asrwt>
<pdfrwt beam="1">  1       21 0.10238068E+00 0.12500000E+03</pdfrwt>
<pdfrwt beam="2">  1       21 0.90305727E-03 0.12500000E+03</pdfrwt>
<totfact> 0.34044446E+06</totfact>
</mgrwt>
</event>
<event>
 3    1  0.1620993E-001  0.1250000E+03  0.7546771E-02  0.1235069E+00
         21   -1    0    0  502  501  0.00000000000E+00  0.00000000000E+00  0.12666267576E+03  0.12666267576E+03  0.00000000000E+00 0.  1.
         21   -1    0    0  501  502 -0.00000000000E+00 -0.00000000000E+00 -0.30839787464E+02  0.30839787464E+02  0.00000000000E+00 0.  1.
         25    1    1    2    0    0  0.00000000000E+00  0.00000000000E+00  0.95822888292E+02  0.15750246322E+03  0.12500000000E+03 0.  0.
<mgrwt>
<rscale>  0 0.12500000E+03</rscale>
<asrwt>0</asrwt>
<pdfrwt beam="1">  1       21 0.19486565E-01 0.12500000E+03</pdfrwt>
<pdfrwt beam="2">  1       21 0.47445828E-02 0.12500000E+03</pdfrwt>
<totfact> 0.69825963E+06</totfact>
</mgrwt>
</event>
<event>
 3    1  0.1620993E-001  0.1250000E+03  0.7546771E-02  0.1235069E+00
         21   -1    0    0  502  501  0.00000000000E+00  0.00000000000E+00  0.66315044667E+03  0.66315044667E+03  0.00000000000E+00 0.  1.
         21   -1    0    0  501  502 -0.00000000000E+00 -0.00000000000E+00 -0.58904431410E+01  0.58904431410E+01  0.00000000000E+00 0.  1.
         25    1    1    2    0    0  0.00000000000E+00  0.00000000000E+00  0.65726000353E+03  0.66904088981E+03  0.12500000000E+03 0.  0.
<mgrwt>
<rscale>  0 0.12500000E+03</rscale>
<asrwt>0</asrwt>
<pdfrwt beam="1">  1       21 0.10202309E+00 0.12500000E+03</pdfrwt>
<pdfrwt beam="2">  1       21 0.90622255E-03 0.12500000E+03</pdfrwt>
<totfact> 0.34138218E+06</totfact>
</mgrwt>
</event>
<event>
 3    1  0.1620993E-001  0.1250000E+03  0.7546771E-02  0.1235069E+00
         21   -1    0    0  502  501  0.00000000000E+00  0.00000000000E+00  0.10934795204E+02  0.10934795204E+02  0.00000000000E+00 0.  1.
         21   -1    0    0  501  502 -0.00000000000E+00 -0.00000000000E+00 -0.35723119887E+03  0.35723119887E+03  0.00000000000E+00 0.  1.
         25    1    1    2    0    0  0.00000000000E+00  0.00000000000E+00 -0.34629640367E+03  0.36816599407E+03  0.12500000000E+03 0.  0.
<mgrwt>
<rscale>  0 0.12500000E+03</rscale>
<asrwt>0</asrwt>
<pdfrwt beam="1">  1       21 0.16822761E-02 0.12500000E+03</pdfrwt>
<pdfrwt beam="2">  1       21 0.54958647E-01 0.12500000E+03</pdfrwt>
<totfact> 0.50224171E+06</totfact>
</mgrwt>
</event>
<event>
 3    1  0.1620993E-001  0.1250000E+03  0.7546771E-02  0.1235069E+00
         21   -1    0    0  502  501  0.00000000000E+00  0.00000000000E+00  0.28711062926E+03  0.28711062926E+03  0.00000000000E+00 0. -1.
         21   -1    0    0  501  502 -0.00000000000E+00 -0.00000000000E+00 -0.13605382741E+02  0.13605382741E+02  0.00000000000E+00 0. -1.
         25    1    1    2    0    0  0.00000000000E+00  0.00000000000E+00  0.27350524652E+03  0.30071601200E+03  0.12500000000E+03 0.  0.
<mgrwt>
<rscale>  0 0.12500000E+03</rscale>
<asrwt>0</asrwt>
<pdfrwt beam="1">  1       21 0.44170862E-01 0.12500000E+03</pdfrwt>
<pdfrwt beam="2">  1       21 0.20931360E-02 0.12500000E+03</pdfrwt>
<totfact> 0.55396725E+06</totfact>
</mgrwt>
</event>
<event>
 3    1  0.1620993E-001  0.1250000E+03  0.7546771E-02  0.1235069E+00
         21   -1    0    0  502  501  0.00000000000E+00  0.00000000000E+00  0.13319091991E+02  0.13319091991E+02  0.00000000000E+00 0.  1.
         21   -1    0    0  501  502 -0.00000000000E+00 -0.00000000000E+00 -0.29328200470E+03  0.29328200470E+03  0.00000000000E+00 0.  1.
         25    1    1    2    0    0  0.00000000000E+00  0.00000000000E+00 -0.27996291271E+03  0.30660109670E+03  0.12500000000E+03 0.  0.
<mgrwt>
<rscale>  0 0.12500000E+03</rscale>
<asrwt>0</asrwt>
<pdfrwt beam="1">  1       21 0.20490910E-02 0.12500000E+03</pdfrwt>
<pdfrwt beam="2">  1       21 0.45120311E-01 0.12500000E+03</pdfrwt>
<totfact> 0.54912018E+06</totfact>
</mgrwt>
</event>
<event>
 3    1  0.1620993E-001  0.1250000E+03  0.7546771E-02  0.1235069E+00
         21   -1    0    0  502  501  0.00000000000E+00  0.00000000000E+00  0.62602457669E+01  0.62602457669E+01  0.00000000000E+00 0.  1.
         21   -1    0    0  501  502 -0.00000000000E+00 -0.00000000000E+00 -0.62397710017E+03  0.62397710017E+03  0.00000000000E+00 0.  1.
         25    1    1    2    0    0  0.00000000000E+00  0.00000000000E+00 -0.61771685440E+03  0.63023734594E+03  0.12500000000E+03 0.  0.
<mgrwt>
<rscale>  0 0.12500000E+03</rscale>
<asrwt>0</asrwt>
<pdfrwt beam="1">  1       21 0.96311418E-03 0.12500000E+03</pdfrwt>
<pdfrwt beam="2">  1       21 0.95996532E-01 0.12500000E+03</pdfrwt>
<totfact> 0.35759914E+06</totfact>
</mgrwt>
</event>
<event>
 3    1  0.1620993E-001  0.1250000E+03  0.7546771E-02  0.1235069E+00
         21   -1    0    0  502  501  0.00000000000E+00  0.00000000000E+00  0.82510224805E+03  0.82510224805E+03  0.00000000000E+00 0. -1.
         21   -1    0    0  501  502 -0.00000000000E+00 -0.00000000000E+00 -0.47342617345E+01  0.47342617345E+01  0.00000000000E+00 0. -1.
         25    1    1    2    0    0  0.00000000000E+00  0.00000000000E+00  0.82036798632E+03  0.82983650979E+03  0.12500000000E+03 0.  0.
<mgrwt>
<rscale>  0 0.12500000E+03</rscale>
<asrwt>0</asrwt>
<pdfrwt beam="1">  1       21 0.12693869E+00 0.12500000E+03</pdfrwt>
<pdfrwt beam="2">  1       21 0.72834861E-03 0.12500000E+03</pdfrwt>
<totfact> 0.28397859E+06</totfact>
</mgrwt>
</event>
<event>
 3    1  0.1620993E-001  0.1250000E+03  0.7546771E-02  0.1235069E+00
         21   -1    0    0  502  501  0.00000000000E+00  0.00000000000E+00  0.17781863147E+03  0.17781863147E+03  0.00000000000E+00 0. -1.
         21   -1    0    0  501  502 -0.00000000000E+00 -0.00000000000E+00 -0.21967608049E+02  0.21967608049E+02  0.00000000000E+00 0. -1.
         25    1    1    2    0    0  0.00000000000E+00  0.00000000000E+00  0.15585102342E+03  0.19978623952E+03  0.12500000000E+03 0.  0.
<mgrwt>
<rscale>  0 0.12500000E+03</rscale>
<asrwt>0</asrwt>
<pdfrwt beam="1">  1       21 0.27356712E-01 0.12500000E+03</pdfrwt>
<pdfrwt beam="2">  1       21 0.33796321E-02 0.12500000E+03</pdfrwt>
<totfact> 0.64950422E+06</totfact>
</mgrwt>
</event>
<event>
 3    1  0.1620993E-001  0.1250000E+03  0.7546771E-02  0.1235069E+00
         21   -1    0    0  502  501  0.00000000000E+00  0.00000000000E+00  0.35951117808E+03  0.35951117808E+03  0.00000000000E+00 0. -1.
         21   -1    0    0  501  502 -0.00000000000E+00 -0.00000000000E+00 -0.10865447970E+02  0.10865447970E+02  0.00000000000E+00 0. -1.
         25    1    1    2    0    0  0.00000000000E+00  0.00000000000E+00  0.34864573011E+03  0.37037662605E+03  0.12500000000E+03 0.  0.
<mgrwt>
<rscale>  0 0.12500000E+03</rscale>
<asrwt>0</asrwt>
<pdfrwt beam="1">  1       21 0.55309403E-01 0.12500000E+03</pdfrwt>
<pdfrwt beam="2">  1       21 0.16716077E-02 0.12500000E+03</pdfrwt>
<totfact> 0.50067879E+06</totfact>
</mgrwt>
</event>
<event>
 3    1  0.1620993E-001  0.1250000E+03  0.7546771E-02  0.1235069E+00
         21   -1    0    0  502  501  0.00000000000E+00  0.00000000000E+00  0.28016449388E+03  0.28016449388E+03  0.00000000000E+00 0. -1.
         21   -1    0    0  501  502 -0.00000000000E+00 -0.00000000000E+00 -0.13942701825E+02  0.13942701825E+02  0.00000000000E+00 0. -1.
         25    1    1    2    0    0  0.00000000000E+00  0.00000000000E+00  0.26622179205E+03  0.29410719570E+03  0.12500000000E+03 0.  0.
<mgrwt>
<rscale>  0 0.12500000E+03</rscale>
<asrwt>0</asrwt>
<pdfrwt beam="1">  1       21 0.43102226E-01 0.12500000E+03</pdfrwt>
<pdfrwt beam="2">  1       21 0.21450313E-02 0.12500000E+03</pdfrwt>
<totfact> 0.55949473E+06</totfact>
</mgrwt>
</event>
<event>
 3    1  0.1620993E-001  0.1250000E+03  0.7546771E-02  0.1235069E+00
         21   -1    0    0  502  501  0.00000000000E+00  0.00000000000E+00  0.11032782492E+03  0.11032782492E+03  0.00000000000E+00 0.  1.
         21   -1    0    0  501  502 -0.00000000000E+00 -0.00000000000E+00 -0.35405846194E+02  0.35405846194E+02  0.00000000000E+00 0.  1.
         25    1    1    2    0    0  0.00000000000E+00  0.00000000000E+00  0.74921978723E+02  0.14573367111E+03  0.12500000000E+03 0.  0.
<mgrwt>
<rscale>  0 0.12500000E+03</rscale>
<asrwt>0</asrwt>
<pdfrwt beam="1">  1       21 0.16973511E-01 0.12500000E+03</pdfrwt>
<pdfrwt beam="2">  1       21 0.54470533E-02 0.12500000E+03</pdfrwt>
<totfact> 0.71299339E+06</totfact>
</mgrwt>
</event>
<event>
 3    1  0.1620993E-001  0.1250000E+03  0.7546771E-02  0.1235069E+00
         21   -1    0    0  502  501  0.00000000000E+00  0.00000000000E+00  0.29785956936E+02  0.29785956936E+02  0.00000000000E+00 0. -1.
         21   -1    0    0  501  502 -0.00000000000E+00 -0.00000000000E+00 -0.13114401557E+03  0.13114401557E+03  0.00000000000E+00 0. -1.
         25    1    1    2    0    0  0.00000000000E+00  0.00000000000E+00 -0.10135805863E+03  0.16092997250E+03  0.12500000000E+03 0.  0.
<mgrwt>
<rscale>  0 0.12500000E+03</rscale>
<asrwt>0</asrwt>
<pdfrwt beam="1">  1       21 0.45824550E-02 0.12500000E+03</pdfrwt>
<pdfrwt beam="2">  1       21 0.20176002E-01 0.12500000E+03</pdfrwt>
<totfact> 0.69406042E+06</totfact>
</mgrwt>
</event>
<event>
 3    1  0.1620993E-001  0.1250000E+03  0.7546771E-02  0.1235069E+00
         21   -1    0    0  502  501  0.00000000000E+00  0.00000000000E+00  0.20825718789E+03  0.20825718789E+03  0.00000000000E+00 0. -1.
         21   -1    0    0  501  502 -0.00000000000E+00 -0.00000000000E+00 -0.18756855595E+02  0.18756855595E+02  0.00000000000E+00 0. -1.
         25    1    1    2    0    0  0.00000000000E+00  0.00000000000E+00  0.18950033230E+03  0.22701404349E+03  0.12500000000E+03 0.  0.
<mgrwt>
<rscale>  0 0.12500000E+03</rscale>
<asrwt>0</asrwt>
<pdfrwt beam="1">  1       21 0.32039566E-01 0.12500000E+03</pdfrwt>
<pdfrwt beam="2">  1       21 0.28856702E-02 0.12500000E+03</pdfrwt>
<totfact> 0.62112396E+06</totfact>
</mgrwt>
</event>
<event>
 3    1  0.1620993E-001  0.1250000E+03  0.7546771E-02  0.1235069E+00
         21   -1    0    0  502  501  0.00000000000E+00  0.00000000000E+00  0.11496256282E+03  0.11496256282E+03  0.00000000000E+00 0. -1.
         21   -1    0    0  501  502 -0.00000000000E+00 -0.00000000000E+00 -0.33978452674E+02  0.33978452674E+02  0.00000000000E+00 0. -1.
         25    1    1    2    0    0  0.00000000000E+00  0.00000000000E+00  0.80984110145E+02  0.14894101549E+03  0.12500000000E+03 0.  0.
<mgrwt>
<rscale>  0 0.12500000E+03</rscale>
<asrwt>0</asrwt>
<pdfrwt beam="1">  1       21 0.17686548E-01 0.12500000E+03</pdfrwt>
<pdfrwt beam="2">  1       21 0.52274543E-02 0.12500000E+03</pdfrwt>
<totfact> 0.70892483E+06</totfact>
</mgrwt>
</event>
<event>
 3    1  0.1620993E-001  0.1250000E+03  0.7546771E-02  0.1235069E+00
         21   -1    0    0  502  501  0.00000000000E+00  0.00000000000E+00  0.32806473864E+03  0.32806473864E+03  0.00000000000E+00 0.  1.
         21   -1    0    0  501  502 -0.00000000000E+00 -0.00000000000E+00 -0.11906948660E+02  0.11906948660E+02  0.00000000000E+00 0.  1.
         25    1    1    2    0    0  0.00000000000E+00  0.00000000000E+00  0.31615778998E+03  0.33997168730E+03  0.12500000000E+03 0.  0.
<mgrwt>
<rscale>  0 0.12500000E+03</rscale>
<asrwt>0</asrwt>
<pdfrwt beam="1">  1       21 0.50471491E-01 0.12500000E+03</pdfrwt>
<pdfrwt beam="2">  1       21 0.18318385E-02 0.12500000E+03</pdfrwt>
<totfact> 0.52287690E+06</totfact>
</mgrwt>
</event>
<event>
 3    1  0.1620993E-001  0.1250000E+03  0.7546771E-02  0.1235069E+00
         21   -1    0    0  502  501  0.00000000000E+00  0.00000000000E+00  0.17410301202E+02  0.17410301202E+02  0.00000000000E+00 0. -1.
         21   -1    0    0  501  502 -0.00000000000E+00 -0.00000000000E+00 -0.22436429758E+03  0.22436429758E+03  0.00000000000E+00 0. -1.
         25    1    1    2    0    0  0.00000000000E+00  0.00000000000E+00 -0.20695399638E+03  0.24177459879E+03  0.12500000000E+03 0.  0.
<mgrwt>
<rscale>  0 0.12500000E+03</rscale>
<asrwt>0</asrwt>
<pdfrwt beam="1">  1       21 0.26785079E-02 0.12500000E+03</pdfrwt>
<pdfrwt beam="2">  1       21 0.34517584E-01 0.12500000E+03</pdfrwt>
<totfact> 0.60661360E+06</totfact>
</mgrwt>
</event>
<event>
 3    1  0.1620993E-001  0.1250000E+03  0.7546771E-02  0.1235069E+00
         21   -1    0    0  502  501  0.00000000000E+00  0.00000000000E+00  0.11706763630E+03  0.11706763630E+03  0.00000000000E+00 0.  1.
         21   -1    0    0  501  502 -0.00000000000E+00 -0.00000000000E+00 -0.33367462805E+02  0.33367462805E+02  0.00000000000E+00 0.  1.
         25    1    1    2    0    0  0.00000000000E+00  0.00000000000E+00  0.83700173499E+02  0.15043509911E+03  0.12500000000E+03 0.  0.
<mgrwt>
<rscale>  0 0.12500000E+03</rscale>
<asrwt>0</asrwt>
<pdfrwt beam="1">  1       21 0.18010405E-01 0.12500000E+03</pdfrwt>
<pdfrwt beam="2">  1       21 0.51334559E-02 0.12500000E+03</pdfrwt>
<totfact> 0.70704588E+06</totfact>
</mgrwt>
</event>
<event>
 3    1  0.1620993E-001  0.1250000E+03  0.7546771E-02  0.1235069E+00
         21   -1    0    0  502  501  0.00000000000E+00  0.00000000000E+00  0.26702612730E+02  0.26702612730E+02  0.00000000000E+00 0.  1.
         21   -1    0    0  501  502 -0.00000000000E+00 -0.00000000000E+00 -0.14628718319E+03  0.14628718319E+03  0.00000000000E+00 0.  1.
         25    1    1    2    0    0  0.00000000000E+00  0.00000000000E+00 -0.11958457046E+03  0.17298979592E+03  0.12500000000E+03 0.  0.
<mgrwt>
<rscale>  0 0.12500000E+03</rscale>
<asrwt>0</asrwt>
<pdfrwt beam="1">  1       21 0.41080943E-02 0.12500000E+03</pdfrwt>
<pdfrwt beam="2">  1       21 0.22505720E-01 0.12500000E+03</pdfrwt>
<totfact> 0.67964968E+06</totfact>
</mgrwt>
</event>
<event>
 3    1  0.1620993E-001  0.1250000E+03  0.7546771E-02  0.1235069E+00
         21   -1    0    0  502  501  0.00000000000E+00  0.00000000000E+00  0.12055155872E+03  0.12055155872E+03  0.00000000000E+00 0.  1.
         21   -1    0    0  501  502 -0.00000000000E+00 -0.00000000000E+00 -0.32403148010E+02  0.32403148010E+02  0.00000000000E+00 0.  1.
         25    1    1    2    0    0  0.00000000000E+00  0.00000000000E+00  0.88148410709E+02  0.15295470673E+03  0.12500000000E+03 0.  0.
<mgrwt>
<rscale>  0 0.12500000E+03</rscale>
<asrwt>0</asrwt>
<pdfrwt beam="1">  1       21 0.18546393E-01 0.12500000E+03</pdfrwt>
<pdfrwt beam="2">  1       21 0.49850997E-02 0.12500000E+03</pdfrwt>
<totfact> 0.70389980E+06</totfact>
</mgrwt>
</event>
<event>
 3    1  0.1620993E-001  0.1250000E+03  0.7546771E-02  0.1235069E+00
         21   -1    0    0  502  501  0.00000000000E+00  0.00000000000E+00  0.92589534987E+03  0.92589534987E+03  0.00000000000E+00 0. -1.
         21   -1    0    0  501  502 -0.00000000000E+00 -0.00000000000E+00 -0.42188893168E+01  0.42188893168E+01  0.00000000000E+00 0. -1.
         25    1    1    2    0    0  0.00000000000E+00  0.00000000000E+00  0.92167646055E+03  0.93011423919E+03  0.12500000000E+03 0.  0.
<mgrwt>
<rscale>  0 0.12500000E+03</rscale>
<asrwt>0</asrwt>
<pdfrwt beam="1">  1       21 0.14244528E+00 0.12500000E+03</pdfrwt>
<pdfrwt beam="2">  1       21 0.64906063E-03 0.12500000E+03</pdfrwt>
<totfact> 0.25451514E+06</totfact>
</mgrwt>
</event>
<event>
 3    1  0.1620993E-001  0.1250000E+03  0.7546771E-02  0.1235069E+00
         21   -1    0    0  502  501  0.00000000000E+00  0.00000000000E+00  0.76017004561E+01  0.76017004561E+01  0.00000000000E+00 0. -1.
         21   -1    0    0  501  502 -0.00000000000E+00 -0.00000000000E+00 -0.51386528877E+03  0.51386528877E+03  0.00000000000E+00 0. -1.
         25    1    1    2    0    0  0.00000000000E+00  0.00000000000E+00 -0.50626358831E+03  0.52146698922E+03  0.12500000000E+03 0.  0.
<mgrwt>
<rscale>  0 0.12500000E+03</rscale>
<asrwt>0</asrwt>
<pdfrwt beam="1">  1       21 0.11694922E-02 0.12500000E+03</pdfrwt>
<pdfrwt beam="2">  1       21 0.79056211E-01 0.12500000E+03</pdfrwt>
<totfact> 0.40903290E+06</totfact>
</mgrwt>
</event>
<event>
 3    1  0.1620993E-001  0.1250000E+03  0.7546771E-02  0.1235069E+00
         21   -1    0    0  502  501  0.00000000000E+00  0.00000000000E+00  0.25150047703E+02  0.25150047703E+02  0.00000000000E+00 0.  1.
         21   -1    0    0  501  502 -0.00000000000E+00 -0.00000000000E+00 -0.15531779686E+03  0.15531779686E+03  0.00000000000E+00 0.  1.
         25    1    1    2    0    0  0.00000000000E+00  0.00000000000E+00 -0.13016774915E+03  0.18046784456E+03  0.12500000000E+03 0.  0.
<mgrwt>
<rscale>  0 0.12500000E+03</rscale>
<asrwt>0</asrwt>
<pdfrwt beam="1">  1       21 0.38692382E-02 0.12500000E+03</pdfrwt>
<pdfrwt beam="2">  1       21 0.23895045E-01 0.12500000E+03</pdfrwt>
<totfact> 0.67097908E+06</totfact>
</mgrwt>
</event>
<event>
 3    1  0.1620993E-001  0.1250000E+03  0.7546771E-02  0.1235069E+00
         21   -1    0    0  502  501  0.00000000000E+00  0.00000000000E+00  0.56544975194E+03  0.56544975194E+03  0.00000000000E+00 0. -1.
         21   -1    0    0  501  502 -0.00000000000E+00 -0.00000000000E+00 -0.69082177268E+01  0.69082177268E+01  0.00000000000E+00 0. -1.
         25    1    1    2    0    0  0.00000000000E+00  0.00000000000E+00  0.55854153422E+03  0.57235796967E+03  0.12500000000E+03 0.  0.
<mgrwt>
<rscale>  0 0.12500000E+03</rscale>
<asrwt>0</asrwt>
<pdfrwt beam="1">  1       21 0.86992234E-01 0.12500000E+03</pdfrwt>
<pdfrwt beam="2">  1       21 0.10628032E-02 0.12500000E+03</pdfrwt>
<totfact> 0.38373319E+06</totfact>
</mgrwt>
</event>
<event>
 3    1  0.1620993E-001  0.1250000E+03  0.7546771E-02  0.1235069E+00
         21   -1    0    0  502  501  0.00000000000E+00  0.00000000000E+00  0.45261785795E+02  0.45261785795E+02  0.00000000000E+00 0.  1.
         21   -1    0    0  501  502 -0.00000000000E+00 -0.00000000000E+00 -0.86303488282E+02  0.86303488282E+02  0.00000000000E+00 0.  1.
         25    1    1    2    0    0  0.00000000000E+00  0.00000000000E+00 -0.41041702488E+02  0.13156527408E+03  0.12500000000E+03 0.  0.
<mgrwt>
<rscale>  0 0.12500000E+03</rscale>
<asrwt>0</asrwt>
<pdfrwt beam="1">  1       21 0.69633516E-02 0.12500000E+03</pdfrwt>
<pdfrwt beam="2">  1       21 0.13277460E-01 0.12500000E+03</pdfrwt>
<totfact> 0.73154597E+06</totfact>
</mgrwt>
</event>
<event>
 3    1  0.1620993E-001  0.1250000E+03  0.7546771E-02  0.1235069E+00
         21   -1    0    0  502  501  0.00000000000E+00  0.00000000000E+00  0.81099536422E+02  0.81099536422E+02  0.00000000000E+00 0.  1.
         21   -1    0    0  501  502 -0.00000000000E+00 -0.00000000000E+00 -0.48166119960E+02  0.48166119960E+02  0.00000000000E+00 0.  1.
         25    1    1    2    0    0  0.00000000000E+00  0.00000000000E+00  0.32933416461E+02  0.12926565638E+03  0.12500000000E+03 0.  0.
<mgrwt>
<rscale>  0 0.12500000E+03</rscale>
<asrwt>0</asrwt>
<pdfrwt beam="1">  1       21 0.12476852E-01 0.12500000E+03</pdfrwt>
<pdfrwt beam="2">  1       21 0.74101723E-02 0.12500000E+03</pdfrwt>
<totfact> 0.73463228E+06</totfact>
</mgrwt>
</event>
<event>
 3    1  0.1620993E-001  0.1250000E+03  0.7546771E-02  0.1235069E+00
         21   -1    0    0  502  501  0.00000000000E+00  0.00000000000E+00  0.16315872868E+02  0.16315872868E+02  0.00000000000E+00 0. -1.
         21   -1    0    0  501  502 -0.00000000000E+00 -0.00000000000E+00 -0.23941409887E+03  0.23941409887E+03  0.00000000000E+00 0. -1.
         25    1    1    2    0    0  0.00000000000E+00  0.00000000000E+00 -0.22309822601E+03  0.25572997174E+03  0.12500000000E+03 0.  0.
<mgrwt>
<rscale>  0 0.12500000E+03</rscale>
<asrwt>0</asrwt>
<pdfrwt beam="1">  1       21 0.25101343E-02 0.12500000E+03</pdfrwt>
<pdfrwt beam="2">  1       21 0.36832938E-01 0.12500000E+03</pdfrwt>
<totfact> 0.59342876E+06</totfact>
</mgrwt>
</event>
<event>
 3    1  0.1620993E-001  0.1250000E+03  0.7546771E-02  0.1235069E+00
         21   -1    0    0  502  501  0.00000000000E+00  0.00000000000E+00  0.53250695038E+03  0.53250695038E+03  0.00000000000E+00 0.  1.
         21   -1    0    0  501  502 -0.00000000000E+00 -0.00000000000E+00 -0.73355850045E+01  0.73355850045E+01  0.00000000000E+00 0.  1.
         25    1    1    2    0    0  0.00000000000E+00  0.00000000000E+00  0.52517136537E+03  0.53984253538E+03  0.12500000000E+03 0.  0.
<mgrwt>
<rscale>  0 0.12500000E+03</rscale>
<asrwt>0</asrwt>
<pdfrwt beam="1">  1       21 0.81924116E-01 0.12500000E+03</pdfrwt>
<pdfrwt beam="2">  1       21 0.11285520E-02 0.12500000E+03</pdfrwt>
<totfact> 0.39962605E+06</totfact>
</mgrwt>
</event>
<event>
 3    1  0.1620993E-001  0.1250000E+03  0.7546771E-02  0.1235069E+00
         21   -1    0    0  502  501  0.00000000000E+00  0.00000000000E+00  0.98484836225E+03  0.98484836225E+03  0.00000000000E+00 0.  1.
         21   -1    0    0  501  502 -0.00000000000E+00 -0.00000000000E+00 -0.39663466476E+01  0.39663466476E+01  0.00000000000E+00 0.  1.
         25    1    1    2    0    0  0.00000000000E+00  0.00000000000E+00  0.98088201561E+03  0.98881470890E+03  0.12500000000E+03 0.  0.
<mgrwt>
<rscale>  0 0.12500000E+03</rscale>
<asrwt>0</asrwt>
<pdfrwt beam="1">  1       21 0.15151494E+00 0.12500000E+03</pdfrwt>
<pdfrwt beam="2">  1       21 0.61020796E-03 0.12500000E+03</pdfrwt>
<totfact> 0.23900201E+06</totfact>
</mgrwt>
</event>
<event>
 3    1  0.1620993E-001  0.1250000E+03  0.7546771E-02  0.1235069E+00
         21   -1    0    0  502  501  0.00000000000E+00  0.00000000000E+00  0.15783349815E+02  0.15783349815E+02  0.00000000000E+00 0.  1.
         21   -1    0    0  501  502 -0.00000000000E+00 -0.00000000000E+00 -0.24749182182E+03  0.24749182182E+03  0.00000000000E+00 0.  1.
         25    1    1    2    0    0  0.00000000000E+00  0.00000000000E+00 -0.23170847200E+03  0.26327517163E+03  0.12500000000E+03 0.  0.
<mgrwt>
<rscale>  0 0.12500000E+03</rscale>
<asrwt>0</asrwt>
<pdfrwt beam="1">  1       21 0.24282080E-02 0.12500000E+03</pdfrwt>
<pdfrwt beam="2">  1       21 0.38075660E-01 0.12500000E+03</pdfrwt>
<totfact> 0.58650381E+06</totfact>
</mgrwt>
</event>
<event>
 3    1  0.1620993E-001  0.1250000E+03  0.7546771E-02  0.1235069E+00
         21   -1    0    0  502  501  0.00000000000E+00  0.00000000000E+00  0.26042853890E+03  0.26042853890E+03  0.00000000000E+00 0.  1.
         21   -1    0    0  501  502 -0.00000000000E+00 -0.00000000000E+00 -0.14999316191E+02  0.14999316191E+02  0.00000000000E+00 0.  1.
         25    1    1    2    0    0  0.00000000000E+00  0.00000000000E+00  0.24542922271E+03  0.27542785509E+03  0.12500000000E+03 0.  0.
<mgrwt>
<rscale>  0 0.12500000E+03</rscale>
<asrwt>0</asrwt>
<pdfrwt beam="1">  1       21 0.40065926E-01 0.12500000E+03</pdfrwt>
<pdfrwt beam="2">  1       21 0.23075873E-02 0.12500000E+03</pdfrwt>
<totfact> 0.57562102E+06</totfact>
</mgrwt>
</event>
<event>
 3    1  0.1620993E-001  0.1250000E+03  0.7546771E-02  0.1235069E+00
         21   -1    0    0  502  501  0.00000000000E+00  0.00000000000E+00  0.64836877768E+02  0.64836877768E+02  0.00000000000E+00 0.  1.
         21   -1    0    0  501  502 -0.00000000000E+00 -0.00000000000E+00 -0.60247348954E+02  0.60247348954E+02  0.00000000000E+00 0.  1.
         25    1    1    2    0    0  0.00000000000E+00  0.00000000000E+00  0.45895288142E+01  0.12508422672E+03  0.12500000000E+03 0.  0.
<mgrwt>
<rscale>  0 0.12500000E+03</rscale>
<asrwt>0</asrwt>
<pdfrwt beam="1">  1       21 0.99749042E-02 0.12500000E+03</pdfrwt>
<pdfrwt beam="2">  1       21 0.92688229E-02 0.12500000E+03</pdfrwt>
<totfact> 0.74032205E+06</totfact>
</mgrwt>
</event>
<event>
 3    1  0.1620993E-001  0.1250000E+03  0.7546771E-02  0.1235069E+00
         21   -1    0    0  502  501  0.00000000000E+00  0.00000000000E+00  0.24010997083E+02  0.24010997083E+02  0.00000000000E+00 0. -1.
         21   -1    0    0  501  502 -0.00000000000E+00 -0.00000000000E+00 -0.16268587208E+03  0.16268587208E+03  0.00000000000E+00 0. -1.
         25    1    1    2    0    0  0.00000000000E+00  0.00000000000E+00 -0.13867487500E+03  0.18669686917E+03  0.12500000000E+03 0.  0.
<mgrwt>
<rscale>  0 0.12500000E+03</rscale>
<asrwt>0</asrwt>
<pdfrwt beam="1">  1       21 0.36939993E-02 0.12500000E+03</pdfrwt>
<pdfrwt beam="2">  1       21 0.25028597E-01 0.12500000E+03</pdfrwt>
<totfact> 0.66391471E+06</totfact>
</mgrwt>
</event>
<event>
 3    1  0.1620993E-001  0.1250000E+03  0.7546771E-02  0.1235069E+00
         21   -1    0    0  502  501  0.00000000000E+00  0.00000000000E+00  0.23012476601E+01  0.23012476601E+01  0.00000000000E+00 0. -1.
         21   -1    0    0  501  502 -0.00000000000E+00 -0.00000000000E+00 -0.16974487656E+04  0.16974487656E+04  0.00000000000E+00 0. -1.
         25    1    1    2    0    0  0.00000000000E+00  0.00000000000E+00 -0.16951475180E+04  0.16997500133E+04  0.12500000000E+03 0.  0.
<mgrwt>
<rscale>  0 0.12500000E+03</rscale>
<asrwt>0</asrwt>
<pdfrwt beam="1">  1       21 0.35403792E-03 0.12500000E+03</pdfrwt>
<pdfrwt beam="2">  1       21 0.26114610E+00 0.12500000E+03</pdfrwt>
<totfact> 0.11272841E+06</totfact>
</mgrwt>
</event>
<event>
 3    1  0.1620993E-001  0.1250000E+03  0.7546771E-02  0.1235069E+00
         21   -1    0    0  502  501  0.00000000000E+00  0.00000000000E+00  0.76517242214E+03  0.76517242214E+03  0.00000000000E+00 0. -1.
         21   -1    0    0  501  502 -0.00000000000E+00 -0.00000000000E+00 -0.51050585293E+01  0.51050585293E+01  0.00000000000E+00 0. -1.
         25    1    1    2    0    0  0.00000000000E+00  0.00000000000E+00  0.76006736361E+03  0.77027748067E+03  0.12500000000E+03 0.  0.
<mgrwt>
<rscale>  0 0.12500000E+03</rscale>
<asrwt>0</asrwt>
<pdfrwt beam="1">  1       21 0.11771874E+00 0.12500000E+03</pdfrwt>
<pdfrwt beam="2">  1       21 0.78539423E-03 0.12500000E+03</pdfrwt>
<totfact> 0.30368176E+06</totfact>
</mgrwt>
</event>
<event>
 3    1  0.1620993E-001  0.1250000E+03  0.7546771E-02  0.1235069E+00
         21   -1    0    0  502  501  0.00000000000E+00  0.00000000000E+00  0.79272317126E+03  0.79272317126E+03  0.00000000000E+00 0.  1.
         21   -1    0    0  501  502 -0.00000000000E+00 -0.00000000000E+00 -0.49276344399E+01  0.49276344399E+01  0.00000000000E+00 0.  1.
         25    1    1    2    0    0  0.00000000000E+00  0.00000000000E+00  0.78779553682E+03  0.79765080570E+03  0.12500000000E+03 0.  0.
<mgrwt>
<rscale>  0 0.12500000E+03</rscale>
<asrwt>0</asrwt>
<pdfrwt beam="1">  1       21 0.12195731E+00 0.12500000E+03</pdfrwt>
<pdfrwt beam="2">  1       21 0.75809824E-03 0.12500000E+03</pdfrwt>
<totfact> 0.29440820E+06</totfact>
</mgrwt>
</event>
<event>
 3    1  0.1620993E-001  0.1250000E+03  0.7546771E-02  0.1235069E+00
         21   -1    0    0  502  501  0.00000000000E+00  0.00000000000E+00  0.14145254324E+03  0.14145254324E+03  0.00000000000E+00 0.  1.
         21   -1    0    0  501  502 -0.00000000000E+00 -0.00000000000E+00 -0.27615268771E+02  0.27615268771E+02  0.00000000000E+00 0.  1.
         25    1    1    2    0    0  0.00000000000E+00  0.00000000000E+00  0.11383727447E+03  0.16906781201E+03  0.12500000000E+03 0.  0.
<mgrwt>
<rscale>  0 0.12500000E+03</rscale>
<asrwt>0</asrwt>
<pdfrwt beam="1">  1       21 0.21761929E-01 0.12500000E+03</pdfrwt>
<pdfrwt beam="2">  1       21 0.42485030E-02 0.12500000E+03</pdfrwt>
<totfact> 0.68428131E+06</totfact>
</mgrwt>
</event>
<event>
 3    1  0.1620993E-001  0.1250000E+03  0.7546771E-02  0.1235069E+00
         21   -1    0    0  502  501  0.00000000000E+00  0.00000000000E+00  0.13880038287E+03  0.13880038287E+03  0.00000000000E+00 0.  1.
         21   -1    0    0  501  502 -0.00000000000E+00 -0.00000000000E+00 -0.28142933897E+02  0.28142933897E+02  0.00000000000E+00 0.  1.
         25    1    1    2    0    0  0.00000000000E+00  0.00000000000E+00  0.11065744897E+03  0.16694331677E+03  0.12500000000E+03 0.  0.
<mgrwt>
<rscale>  0 0.12500000E+03</rscale>
<asrwt>0</asrwt>
<pdfrwt beam="1">  1       21 0.21353905E-01 0.12500000E+03</pdfrwt>
<pdfrwt beam="2">  1       21 0.43296822E-02 0.12500000E+03</pdfrwt>
<totfact> 0.68680893E+06</totfact>
</mgrwt>
</event>
<event>
 3    1  0.1620993E-001  0.1250000E+03  0.7546771E-02  0.1235069E+00
         21   -1    0    0  502  501  0.00000000000E+00  0.00000000000E+00  0.60977704028E+01  0.60977704028E+01  0.00000000000E+00 0. -1.
         21   -1    0    0  501  502 -0.00000000000E+00 -0.00000000000E+00 -0.64060299781E+03  0.64060299781E+03  0.00000000000E+00 0. -1.
         25    1    1    2    0    0  0.00000000000E+00  0.00000000000E+00 -0.63450522741E+03  0.64670076821E+03  0.12500000000E+03 0.  0.
<mgrwt>
<rscale>  0 0.12500000E+03</rscale>
<asrwt>0</asrwt>
<pdfrwt beam="1">  1       21 0.93811885E-03 0.12500000E+03</pdfrwt>
<pdfrwt beam="2">  1       21 0.98554273E-01 0.12500000E+03</pdfrwt>
<totfact> 0.35062127E+06</totfact>
</mgrwt>
</event>
<event>
 3    1  0.1620993E-001  0.1250000E+03  0.7546771E-02  0.1235069E+00
         21   -1    0    0  502  501  0.00000000000E+00  0.00000000000E+00  0.34502306426E+03  0.34502306426E+03  0.00000000000E+00 0.  1.
         21   -1    0    0  501  502 -0.00000000000E+00 -0.00000000000E+00 -0.11321706879E+02  0.11321706879E+02  0.00000000000E+00 0.  1.
         25    1    1    2    0    0  0.00000000000E+00  0.00000000000E+00  0.33370135738E+03  0.35634477114E+03  0.12500000000E+03 0.  0.
<mgrwt>
<rscale>  0 0.12500000E+03</rscale>
<asrwt>0</asrwt>
<pdfrwt beam="1">  1       21 0.53080463E-01 0.12500000E+03</pdfrwt>
<pdfrwt beam="2">  1       21 0.17418013E-02 0.12500000E+03</pdfrwt>
<totfact> 0.51073243E+06</totfact>
</mgrwt>
</event>
<event>
 3    1  0.1620993E-001  0.1250000E+03  0.7546771E-02  0.1235069E+00
         21   -1    0    0  502  501  0.00000000000E+00  0.00000000000E+00  0.71225326974E+03  0.71225326974E+03  0.00000000000E+00 0.  1.
         21   -1    0    0  501  502 -0.00000000000E+00 -0.00000000000E+00 -0.54843553072E+01  0.54843553072E+01  0.00000000000E+00 0.  1.
         25    1    1    2    0    0  0.00000000000E+00  0.00000000000E+00  0.70676891444E+03  0.71773762505E+03  0.12500000000E+03 0.  0.
<mgrwt>
<rscale>  0 0.12500000E+03</rscale>
<asrwt>0</asrwt>
<pdfrwt beam="1">  1       21 0.10957735E+00 0.12500000E+03</pdfrwt>
<pdfrwt beam="2">  1       21 0.84374753E-03 0.12500000E+03</pdfrwt>
<totfact> 0.32237435E+06</totfact>
</mgrwt>
</event>
<event>
 3    1  0.1620993E-001  0.1250000E+03  0.7546771E-02  0.1235069E+00
         21   -1    0    0  502  501  0.00000000000E+00  0.00000000000E+00  0.14731338207E+03  0.14731338207E+03  0.00000000000E+00 0.  1.
         21   -1    0    0  501  502 -0.00000000000E+00 -0.00000000000E+00 -0.26516599817E+02  0.26516599817E+02  0.00000000000E+00 0.  1.
         25    1    1    2    0    0  0.00000000000E+00  0.00000000000E+00  0.12079678225E+03  0.17382998188E+03  0.12500000000E+03 0.  0.
<mgrwt>
<rscale>  0 0.12500000E+03</rscale>
<asrwt>0</asrwt>
<pdfrwt beam="1">  1       21 0.22663597E-01 0.12500000E+03</pdfrwt>
<pdfrwt beam="2">  1       21 0.40794770E-02 0.12500000E+03</pdfrwt>
<totfact> 0.67866488E+06</totfact>
</mgrwt>
</event>
<event>
 3    1  0.1620993E-001  0.1250000E+03  0.7546771E-02  0.1235069E+00
         21   -1    0    0  502  501  0.00000000000E+00  0.00000000000E+00  0.66417066400E+01  0.66417066400E+01  0.00000000000E+00 0.  1.
         21   -1    0    0  501  502 -0.00000000000E+00 -0.00000000000E+00 -0.58813949662E+03  0.58813949662E+03  0.00000000000E+00 0.  1.
         25    1    1    2    0    0  0.00000000000E+00  0.00000000000E+00 -0.58149778998E+03  0.59478120326E+03  0.12500000000E+03 0.  0.
<mgrwt>
<rscale>  0 0.12500000E+03</rscale>
<asrwt>0</asrwt>
<pdfrwt beam="1">  1       21 0.10218011E-02 0.12500000E+03</pdfrwt>
<pdfrwt beam="2">  1       21 0.90482994E-01 0.12500000E+03</pdfrwt>
<totfact> 0.37329714E+06</totfact>
</mgrwt>
</event>
<event>
 3    1  0.1620993E-001  0.1250000E+03  0.7546771E-02  0.1235069E+00
         21   -1    0    0  502  501  0.00000000000E+00  0.00000000000E+00  0.20232755436E+03  0.20232755436E+03  0.00000000000E+00 0. -1.
         21   -1    0    0  501  502 -0.00000000000E+00 -0.00000000000E+00 -0.19306564607E+02  0.19306564607E+02  0.00000000000E+00 0. -1.
         25    1    1    2    0    0  0.00000000000E+00  0.00000000000E+00  0.18302098975E+03  0.22163411896E+03  0.12500000000E+03 0.  0.
<mgrwt>
<rscale>  0 0.12500000E+03</rscale>
<asrwt>0</asrwt>
<pdfrwt beam="1">  1       21 0.31127315E-01 0.12500000E+03</pdfrwt>
<pdfrwt beam="2">  1       21 0.29702408E-02 0.12500000E+03</pdfrwt>
<totfact> 0.62655897E+06</totfact>
</mgrwt>
</event>
<event>
 3    1  0.1620993E-001  0.1250000E+03  0.7546771E-02  0.1235069E+00
         21   -1    0    0  502  501  0.00000000000E+00  0.00000000000E+00  0.45516594848E+01  0.45516594848E+01  0.00000000000E+00 0. -1.
         21   -1    0    0  501  502 -0.00000000000E+00 -0.00000000000E+00 -0.85820347789E+03  0.85820347789E+03  0.00000000000E+00 0. -1.
         25    1    1    2    0    0  0.00000000000E+00  0.00000000000E+00 -0.85365181840E+03  0.86275513737E+03  0.12500000000E+03 0.  0.
<mgrwt>
<rscale>  0 0.12500000E+03</rscale>
<asrwt>0</asrwt>
<pdfrwt beam="1">  1       21 0.70025595E-03 0.12500000E+03</pdfrwt>
<pdfrwt beam="2">  1       21 0.13203118E+00 0.12500000E+03</pdfrwt>
<totfact> 0.27386014E+06</totfact>
</mgrwt>
</event>
<event>
 3    1  0.1620993E-001  0.1250000E+03  0.7546771E-02  0.1235069E+00
         21   -1    0    0  502  501  0.00000000000E+00  0.00000000000E+00  0.39879000685E+02  0.39879000685E+02  0.00000000000E+00 0.  1.
         21   -1    0    0  501  502 -0.00000000000E+00 -0.00000000000E+00 -0.97952554801E+02  0.97952554801E+02  0.00000000000E+00 0.  1.
         25    1    1    2    0    0  0.00000000000E+00  0.00000000000E+00 -0.58073554116E+02  0.13783155549E+03  0.12500000000E+03 0.  0.
<mgrwt>
<rscale>  0 0.12500000E+03</rscale>
<asrwt>0</asrwt>
<pdfrwt beam="1">  1       21 0.61352309E-02 0.12500000E+03</pdfrwt>
<pdfrwt beam="2">  1       21 0.15069624E-01 0.12500000E+03</pdfrwt>
<totfact> 0.72323674E+06</totfact>
</mgrwt>
</event>
<event>
 3    1  0.1620993E-001  0.1250000E+03  0.7546771E-02  0.1235069E+00
         21   -1    0    0  502  501  0.00000000000E+00  0.00000000000E+00  0.65342280489E+02  0.65342280489E+02  0.00000000000E+00 0. -1.
         21   -1    0    0  501  502 -0.00000000000E+00 -0.00000000000E+00 -0.59781353984E+02  0.59781353984E+02  0.00000000000E+00 0. -1.
         25    1    1    2    0    0  0.00000000000E+00  0.00000000000E+00  0.55609265049E+01  0.12512363447E+03  0.12500000000E+03 0.  0.
<mgrwt>
<rscale>  0 0.12500000E+03</rscale>
<asrwt>0</asrwt>
<pdfrwt beam="1">  1       21 0.10052659E-01 0.12500000E+03</pdfrwt>
<pdfrwt beam="2">  1       21 0.91971314E-02 0.12500000E+03</pdfrwt>
<totfact> 0.74026884E+06</totfact>
</mgrwt>
</event>
<event>
 3    1  0.1620993E-001  0.1250000E+03  0.7546771E-02  0.1235069E+00
         21   -1    0    0  502  501  0.00000000000E+00  0.00000000000E+00  0.27876157885E+02  0.27876157885E+02  0.00000000000E+00 0. -1.
         21   -1    0    0  501  502 -0.00000000000E+00 -0.00000000000E+00 -0.14012870841E+03  0.14012870841E+03  0.00000000000E+00 0. -1.
         25    1    1    2    0    0  0.00000000000E+00  0.00000000000E+00 -0.11225255053E+03  0.16800486630E+03  0.12500000000E+03 0.  0.
<mgrwt>
<rscale>  0 0.12500000E+03</rscale>
<asrwt>0</asrwt>
<pdfrwt beam="1">  1       21 0.42886396E-02 0.12500000E+03</pdfrwt>
<pdfrwt beam="2">  1       21 0.21558263E-01 0.12500000E+03</pdfrwt>
<totfact> 0.68554375E+06</totfact>
</mgrwt>
</event>
<event>
 3    1  0.1620993E-001  0.1250000E+03  0.7546771E-02  0.1235069E+00
         21   -1    0    0  502  501  0.00000000000E+00  0.00000000000E+00  0.62899079607E+01  0.62899079607E+01  0.00000000000E+00 0. -1.
         21   -1    0    0  501  502 -0.00000000000E+00 -0.00000000000E+00 -0.62103452458E+03  0.62103452458E+03  0.00000000000E+00 0. -1.
         25    1    1    2    0    0  0.00000000000E+00  0.00000000000E+00 -0.61474461662E+03  0.62732443254E+03  0.12500000000E+03 0.  0.
<mgrwt>
<rscale>  0 0.12500000E+03</rscale>
<asrwt>0</asrwt>
<pdfrwt beam="1">  1       21 0.96767803E-03 0.12500000E+03</pdfrwt>
<pdfrwt beam="2">  1       21 0.95543785E-01 0.12500000E+03</pdfrwt>
<totfact> 0.35885361E+06</totfact>
</mgrwt>
</event>
<event>
 3    1  0.1620993E-001  0.1250000E+03  0.7546771E-02  0.1235069E+00
         21   -1    0    0  502  501  0.00000000000E+00  0.00000000000E+00  0.10274246216E+03  0.10274246216E+03  0.00000000000E+00 0. -1.
         21   -1    0    0  501  502 -0.00000000000E+00 -0.00000000000E+00 -0.38019820803E+02  0.38019820803E+02  0.00000000000E+00 0. -1.
         25    1    1    2    0    0  0.00000000000E+00  0.00000000000E+00  0.64722641352E+02  0.14076228296E+03  0.12500000000E+03 0.  0.
<mgrwt>
<rscale>  0 0.12500000E+03</rscale>
<asrwt>0</asrwt>
<pdfrwt beam="1">  1       21 0.15806533E-01 0.12500000E+03</pdfrwt>
<pdfrwt beam="2">  1       21 0.58492032E-02 0.12500000E+03</pdfrwt>
<totfact> 0.71939950E+06</totfact>
</mgrwt>
</event>
<event>
 3    1  0.1620993E-001  0.1250000E+03  0.7546771E-02  0.1235069E+00
         21   -1    0    0  502  501  0.00000000000E+00  0.00000000000E+00  0.26253747291E+02  0.26253747291E+02  0.00000000000E+00 0.  1.
         21   -1    0    0  501  502 -0.00000000000E+00 -0.00000000000E+00 -0.14878828370E+03  0.14878828370E+03  0.00000000000E+00 0.  1.
         25    1    1    2    0    0  0.00000000000E+00  0.00000000000E+00 -0.12253453640E+03  0.17504203099E+03  0.12500000000E+03 0.  0.
<mgrwt>
<rscale>  0 0.12500000E+03</rscale>
<asrwt>0</asrwt>
<pdfrwt beam="1">  1       21 0.40390380E-02 0.12500000E+03</pdfrwt>
<pdfrwt beam="2">  1       21 0.22890506E-01 0.12500000E+03</pdfrwt>
<totfact> 0.67724901E+06</totfact>
</mgrwt>
</event>
<event>
 3    1  0.1620993E-001  0.1250000E+03  0.7546771E-02  0.1235069E+00
         21   -1    0    0  502  501  0.00000000000E+00  0.00000000000E+00  0.87379759472E+01  0.87379759472E+01  0.00000000000E+00 0. -1.
         21   -1    0    0  501  502 -0.00000000000E+00 -0.00000000000E+00 -0.44704288769E+03  0.44704288769E+03  0.00000000000E+00 0. -1.
         25    1    1    2    0    0  0.00000000000E+00  0.00000000000E+00 -0.43830491174E+03  0.45578086364E+03  0.12500000000E+03 0.  0.
<mgrwt>
<rscale>  0 0.12500000E+03</rscale>
<asrwt>0</asrwt>
<pdfrwt beam="1">  1       21 0.13443038E-02 0.12500000E+03</pdfrwt>
<pdfrwt beam="2">  1       21 0.68775837E-01 0.12500000E+03</pdfrwt>
<totfact> 0.44548361E+06</totfact>
</mgrwt>
</event>
<event>
 3    1  0.1620993E-001  0.1250000E+03  0.7546771E-02  0.1235069E+00
         21   -1    0    0  502  501  0.00000000000E+00  0.00000000000E+00  0.30357631696E+02  0.30357631696E+02  0.00000000000E+00 0. -1.
         21   -1    0    0  501  502 -0.00000000000E+00 -0.00000000000E+00 -0.12867439855E+03  0.12867439855E+03  0.00000000000E+00 0. -1.
         25    1    1    2    0    0  0.00000000000E+00  0.00000000000E+00 -0.98316766858E+02  0.15903203025E+03  0.12500000000E+03 0.  0.
<mgrwt>
<rscale>  0 0.12500000E+03</rscale>
<asrwt>0</asrwt>
<pdfrwt beam="1">  1       21 0.46704049E-02 0.12500000E+03</pdfrwt>
<pdfrwt beam="2">  1       21 0.19796061E-01 0.12500000E+03</pdfrwt>
<totfact> 0.69637965E+06</totfact>
</mgrwt>
</event>
<event>
 3    1  0.1620993E-001  0.1250000E+03  0.7546771E-02  0.1235069E+00
         21   -1    0    0  502  501  0.00000000000E+00  0.00000000000E+00  0.10546153827E+03  0.10546153827E+03  0.00000000000E+00 0. -1.
         21   -1    0    0  501  502 -0.00000000000E+00 -0.00000000000E+00 -0.37039569725E+02  0.37039569725E+02  0.00000000000E+00 0. -1.
         25    1    1    2    0    0  0.00000000000E+00  0.00000000000E+00  0.68421968545E+02  0.14250110799E+03  0.12500000000E+03 0.  0.
<mgrwt>
<rscale>  0 0.12500000E+03</rscale>
<asrwt>0</asrwt>
<pdfrwt beam="1">  1       21 0.16224852E-01 0.12500000E+03</pdfrwt>
<pdfrwt beam="2">  1       21 0.56983954E-02 0.12500000E+03</pdfrwt>
<totfact> 0.71714453E+06</totfact>
</mgrwt>
</event>
<event>
 3    1  0.1620993E-001  0.1250000E+03  0.7546771E-02  0.1235069E+00
         21   -1    0    0  502  501  0.00000000000E+00  0.00000000000E+00  0.61069447965E+01  0.61069447965E+01  0.00000000000E+00 0. -1.
         21   -1    0    0  501  502 -0.00000000000E+00 -0.00000000000E+00 -0.63964062722E+03  0.63964062722E+03  0.00000000000E+00 0. -1.
         25    1    1    2    0    0  0.00000000000E+00  0.00000000000E+00 -0.63353368242E+03  0.64574757201E+03  0.12500000000E+03 0.  0.
<mgrwt>
<rscale>  0 0.12500000E+03</rscale>
<asrwt>0</asrwt>
<pdfrwt beam="1">  1       21 0.93953018E-03 0.12500000E+03</pdfrwt>
<pdfrwt beam="2">  1       21 0.98406228E-01 0.12500000E+03</pdfrwt>
<totfact> 0.35102014E+06</totfact>
</mgrwt>
</event>
<event>
 3    1  0.1620993E-001  0.1250000E+03  0.7546771E-02  0.1235069E+00
         21   -1    0    0  502  501  0.00000000000E+00  0.00000000000E+00  0.64659436466E+02  0.64659436466E+02  0.00000000000E+00 0. -1.
         21   -1    0    0  501  502 -0.00000000000E+00 -0.00000000000E+00 -0.60412682409E+02  0.60412682409E+02  0.00000000000E+00 0. -1.
         25    1    1    2    0    0  0.00000000000E+00  0.00000000000E+00  0.42467540574E+01  0.12507211888E+03  0.12500000000E+03 0.  0.
<mgrwt>
<rscale>  0 0.12500000E+03</rscale>
<asrwt>0</asrwt>
<pdfrwt beam="1">  1       21 0.99476056E-02 0.12500000E+03</pdfrwt>
<pdfrwt beam="2">  1       21 0.92942589E-02 0.12500000E+03</pdfrwt>
<totfact> 0.74033841E+06</totfact>
</mgrwt>
</event>
<event>
 3    1  0.1620993E-001  0.1250000E+03  0.7546771E-02  0.1235069E+00
         21   -1    0    0  502  501  0.00000000000E+00  0.00000000000E+00  0.11586630099E+04  0.11586630099E+04  0.00000000000E+00 0.  1.
         21   -1    0    0  501  502 -0.00000000000E+00 -0.00000000000E+00 -0.33713426309E+01  0.33713426309E+01  0.00000000000E+00 0.  1.
         25    1    1    2    0    0  0.00000000000E+00  0.00000000000E+00  0.11552916672E+04  0.11620343525E+04  0.12500000000E+03 0.  0.
<mgrwt>
<rscale>  0 0.12500000E+03</rscale>
<asrwt>0</asrwt>
<pdfrwt beam="1">  1       21 0.17825553E+00 0.12500000E+03</pdfrwt>
<pdfrwt beam="2">  1       21 0.51866902E-03 0.12500000E+03</pdfrwt>
<totfact> 0.19916833E+06</totfact>
</mgrwt>
</event>
<event>
 3    1  0.1620993E-001  0.1250000E+03  0.7546771E-02  0.1235069E+00
         21   -1    0    0  502  501  0.00000000000E+00  0.00000000000E+00  0.13722689603E+02  0.13722689603E+02  0.00000000000E+00 0. -1.
         21   -1    0    0  501  502 -0.00000000000E+00 -0.00000000000E+00 -0.28465629647E+03  0.28465629647E+03  0.00000000000E+00 0. -1.
         25    1    1    2    0    0  0.00000000000E+00  0.00000000000E+00 -0.27093360687E+03  0.29837898607E+03  0.12500000000E+03 0.  0.
<mgrwt>
<rscale>  0 0.12500000E+03</rscale>
<asrwt>0</asrwt>
<pdfrwt beam="1">  1       21 0.21111830E-02 0.12500000E+03</pdfrwt>
<pdfrwt beam="2">  1       21 0.43793276E-01 0.12500000E+03</pdfrwt>
<totfact> 0.55591156E+06</totfact>
</mgrwt>
</event>
<event>
 3    1  0.1620993E-001  0.1250000E+03  0.7546771E-02  0.1235069E+00
         21   -1    0    0  502  501  0.00000000000E+00  0.00000000000E+00  0.24172464009E+04  0.24172464009E+04  0.00000000000E+00 0. -1.
         21   -1    0    0  501  502 -0.00000000000E+00 -0.00000000000E+00 -0.16159916501E+01  0.16159916501E+01  0.00000000000E+00 0. -1.
         25    1    1    2    0    0  0.00000000000E+00  0.00000000000E+00  0.24156304092E+04  0.24188623925E+04  0.12500000000E+03 0.  0.
<mgrwt>
<rscale>  0 0.12500000E+03</rscale>
<asrwt>0</asrwt>
<pdfrwt beam="1">  1       21 0.37188117E+00 0.12500000E+03</pdfrwt>
<pdfrwt beam="2">  1       21 0.24861603E-03 0.12500000E+03</pdfrwt>
<totfact> 0.45381359E+05</totfact>
</mgrwt>
</event>
<event>
 3    1  0.1620993E-001  0.1250000E+03  0.7546771E-02  0.1235069E+00
         21   -1    0    0  502  501  0.00000000000E+00  0.00000000000E+00  0.29452307293E+02  0.29452307293E+02  0.00000000000E+00 0. -1.
         21   -1    0    0  501  502 -0.00000000000E+00 -0.00000000000E+00 -0.13262967689E+03  0.13262967689E+03  0.00000000000E+00 0. -1.
         25    1    1    2    0    0  0.00000000000E+00  0.00000000000E+00 -0.10317736960E+03  0.16208198419E+03  0.12500000000E+03 0.  0.
<mgrwt>
<rscale>  0 0.12500000E+03</rscale>
<asrwt>0</asrwt>
<pdfrwt beam="1">  1       21 0.45311242E-02 0.12500000E+03</pdfrwt>
<pdfrwt beam="2">  1       21 0.20404566E-01 0.12500000E+03</pdfrwt>
<totfact> 0.69265991E+06</totfact>
</mgrwt>
</event>
<event>
 3    1  0.1620993E-001  0.1250000E+03  0.7546771E-02  0.1235069E+00
         21   -1    0    0  502  501  0.00000000000E+00  0.00000000000E+00  0.27385106201E+02  0.27385106201E+02  0.00000000000E+00 0. -1.
         21   -1    0    0  501  502 -0.00000000000E+00 -0.00000000000E+00 -0.14264140410E+03  0.14264140410E+03  0.00000000000E+00 0. -1.
         25    1    1    2    0    0  0.00000000000E+00  0.00000000000E+00 -0.11525629790E+03  0.17002651031E+03  0.12500000000E+03 0.  0.
<mgrwt>
<rscale>  0 0.12500000E+03</rscale>
<asrwt>0</asrwt>
<pdfrwt beam="1">  1       21 0.42130933E-02 0.12500000E+03</pdfrwt>
<pdfrwt beam="2">  1       21 0.21944831E-01 0.12500000E+03</pdfrwt>
<totfact> 0.68314493E+06</totfact>
</mgrwt>
</event>
<event>
 3    1  0.1620993E-001  0.1250000E+03  0.7546771E-02  0.1235069E+00
         21   -1    0    0  502  501  0.00000000000E+00  0.00000000000E+00  0.13108651865E+03  0.13108651865E+03  0.00000000000E+00 0.  1.
         21   -1    0    0  501  502 -0.00000000000E+00 -0.00000000000E+00 -0.29799021594E+02  0.29799021594E+02  0.00000000000E+00 0.  1.
         25    1    1    2    0    0  0.00000000000E+00  0.00000000000E+00  0.10128749706E+03  0.16088554024E+03  0.12500000000E+03 0.  0.
<mgrwt>
<rscale>  0 0.12500000E+03</rscale>
<asrwt>0</asrwt>
<pdfrwt beam="1">  1       21 0.20167156E-01 0.12500000E+03</pdfrwt>
<pdfrwt beam="2">  1       21 0.45844649E-02 0.12500000E+03</pdfrwt>
<totfact> 0.69411454E+06</totfact>
</mgrwt>
</event>
<event>
 3    1  0.1620993E-001  0.1250000E+03  0.7546771E-02  0.1235069E+00
         21   -1    0    0  502  501  0.00000000000E+00  0.00000000000E+00  0.33336228433E+02  0.33336228433E+02  0.00000000000E+00 0.  1.
         21   -1    0    0  501  502 -0.00000000000E+00 -0.00000000000E+00 -0.11717732280E+03  0.11717732280E+03  0.00000000000E+00 0.  1.
         25    1    1    2    0    0  0.00000000000E+00  0.00000000000E+00 -0.83841094364E+02  0.15051355123E+03  0.12500000000E+03 0.  0.
<mgrwt>
<rscale>  0 0.12500000E+03</rscale>
<asrwt>0</asrwt>
<pdfrwt beam="1">  1       21 0.51286506E-02 0.12500000E+03</pdfrwt>
<pdfrwt beam="2">  1       21 0.18027280E-01 0.12500000E+03</pdfrwt>
<totfact> 0.70694749E+06</totfact>
</mgrwt>
</event>
<event>
 3    1  0.1620993E-001  0.1250000E+03  0.7546771E-02  0.1235069E+00
         21   -1    0    0  502  501  0.00000000000E+00  0.00000000000E+00  0.12379082219E+02  0.12379082219E+02  0.00000000000E+00 0.  1.
         21   -1    0    0  501  502 -0.00000000000E+00 -0.00000000000E+00 -0.31555247239E+03  0.31555247239E+03  0.00000000000E+00 0.  1.
         25    1    1    2    0    0  0.00000000000E+00  0.00000000000E+00 -0.30317339017E+03  0.32793155461E+03  0.12500000000E+03 0.  0.
<mgrwt>
<rscale>  0 0.12500000E+03</rscale>
<asrwt>0</asrwt>
<pdfrwt beam="1">  1       21 0.19044742E-02 0.12500000E+03</pdfrwt>
<pdfrwt beam="2">  1       21 0.48546533E-01 0.12500000E+03</pdfrwt>
<totfact> 0.53210733E+06</totfact>
</mgrwt>
</event>
<event>
 3    1  0.1620993E-001  0.1250000E+03  0.7546771E-02  0.1235069E+00
         21   -1    0    0  502  501  0.00000000000E+00  0.00000000000E+00  0.38561653713E+02  0.38561653713E+02  0.00000000000E+00 0.  1.
         21   -1    0    0  501  502 -0.00000000000E+00 -0.00000000000E+00 -0.10129881952E+03  0.10129881952E+03  0.00000000000E+00 0.  1.
         25    1    1    2    0    0  0.00000000000E+00  0.00000000000E+00 -0.62737165811E+02  0.13986047324E+03  0.12500000000E+03 0.  0.
<mgrwt>
<rscale>  0 0.12500000E+03</rscale>
<asrwt>0</asrwt>
<pdfrwt beam="1">  1       21 0.59325622E-02 0.12500000E+03</pdfrwt>
<pdfrwt beam="2">  1       21 0.15584434E-01 0.12500000E+03</pdfrwt>
<totfact> 0.72057528E+06</totfact>
</mgrwt>
</event>
<event>
 3    1  0.1620993E-001  0.1250000E+03  0.7546771E-02  0.1235069E+00
         21   -1    0    0  502  501  0.00000000000E+00  0.00000000000E+00  0.24922513411E+02  0.24922513411E+02  0.00000000000E+00 0.  1.
         21   -1    0    0  501  502 -0.00000000000E+00 -0.00000000000E+00 -0.15673579689E+03  0.15673579689E+03  0.00000000000E+00 0.  1.
         25    1    1    2    0    0  0.00000000000E+00  0.00000000000E+00 -0.13181328348E+03  0.18165831030E+03  0.12500000000E+03 0.  0.
<mgrwt>
<rscale>  0 0.12500000E+03</rscale>
<asrwt>0</asrwt>
<pdfrwt beam="1">  1       21 0.38342329E-02 0.12500000E+03</pdfrwt>
<pdfrwt beam="2">  1       21 0.24113199E-01 0.12500000E+03</pdfrwt>
<totfact> 0.66961808E+06</totfact>
</mgrwt>
</event>
<event>
 3    1  0.1620993E-001  0.1250000E+03  0.7546771E-02  0.1235069E+00
         21   -1    0    0  502  501  0.00000000000E+00  0.00000000000E+00  0.69065374450E+01  0.69065374450E+01  0.00000000000E+00 0. -1.
         21   -1    0    0  501  502 -0.00000000000E+00 -0.00000000000E+00 -0.56558731942E+03  0.56558731942E+03  0.00000000000E+00 0. -1.
         25    1    1    2    0    0  0.00000000000E+00  0.00000000000E+00 -0.55868078198E+03  0.57249385687E+03  0.12500000000E+03 0.  0.
<mgrwt>
<rscale>  0 0.12500000E+03</rscale>
<asrwt>0</asrwt>
<pdfrwt beam="1">  1       21 0.10625443E-02 0.12500000E+03</pdfrwt>
<pdfrwt beam="2">  1       21 0.87013424E-01 0.12500000E+03</pdfrwt>
<totfact> 0.38366861E+06</totfact>
</mgrwt>
</event>
<event>
 3    1  0.1620993E-001  0.1250000E+03  0.7546771E-02  0.1235069E+00
         21   -1    0    0  502  501  0.00000000000E+00  0.00000000000E+00  0.45440217847E+02  0.45440217847E+02  0.00000000000E+00 0.  1.
         21   -1    0    0  501  502 -0.00000000000E+00 -0.00000000000E+00 -0.85964596674E+02  0.85964596674E+02  0.00000000000E+00 0.  1.
         25    1    1    2    0    0  0.00000000000E+00  0.00000000000E+00 -0.40524378827E+02  0.13140481452E+03  0.12500000000E+03 0.  0.
<mgrwt>
<rscale>  0 0.12500000E+03</rscale>
<asrwt>0</asrwt>
<pdfrwt beam="1">  1       21 0.69908028E-02 0.12500000E+03</pdfrwt>
<pdfrwt beam="2">  1       21 0.13225322E-01 0.12500000E+03</pdfrwt>
<totfact> 0.73176171E+06</totfact>
</mgrwt>
</event>
<event>
 3    1  0.1620993E-001  0.1250000E+03  0.7546771E-02  0.1235069E+00
         21   -1    0    0  502  501  0.00000000000E+00  0.00000000000E+00  0.17097918425E+03  0.17097918425E+03  0.00000000000E+00 0.  1.
         21   -1    0    0  501  502 -0.00000000000E+00 -0.00000000000E+00 -0.22846348326E+02  0.22846348326E+02  0.00000000000E+00 0.  1.
         25    1    1    2    0    0  0.00000000000E+00  0.00000000000E+00  0.14813283593E+03  0.19382553258E+03  0.12500000000E+03 0.  0.
<mgrwt>
<rscale>  0 0.12500000E+03</rscale>
<asrwt>0</asrwt>
<pdfrwt beam="1">  1       21 0.26304489E-01 0.12500000E+03</pdfrwt>
<pdfrwt beam="2">  1       21 0.35148229E-02 0.12500000E+03</pdfrwt>
<totfact> 0.65599794E+06</totfact>
</mgrwt>
</event>
<event>
 3    1  0.1620993E-001  0.1250000E+03  0.7546771E-02  0.1235069E+00
         21   -1    0    0  502  501  0.00000000000E+00  0.00000000000E+00  0.12970276896E+03  0.12970276896E+03  0.00000000000E+00 0. -1.
         21   -1    0    0  501  502 -0.00000000000E+00 -0.00000000000E+00 -0.30116936063E+02  0.30116936063E+02  0.00000000000E+00 0. -1.
         25    1    1    2    0    0  0.00000000000E+00  0.00000000000E+00  0.99585832897E+02  0.15981970502E+03  0.12500000000E+03 0.  0.
<mgrwt>
<rscale>  0 0.12500000E+03</rscale>
<asrwt>0</asrwt>
<pdfrwt beam="1">  1       21 0.19954272E-01 0.12500000E+03</pdfrwt>
<pdfrwt beam="2">  1       21 0.46333749E-02 0.12500000E+03</pdfrwt>
<totfact> 0.69541533E+06</totfact>
</mgrwt>
</event>
<event>
 3    1  0.1620993E-001  0.1250000E+03  0.7546771E-02  0.1235069E+00
         21   -1    0    0  502  501  0.00000000000E+00  0.00000000000E+00  0.14949274173E+04  0.14949274173E+04  0.00000000000E+00 0. -1.
         21   -1    0    0  501  502 -0.00000000000E+00 -0.00000000000E+00 -0.26130031162E+01  0.26130031162E+01  0.00000000000E+00 0. -1.
         25    1    1    2    0    0  0.00000000000E+00  0.00000000000E+00  0.14923144142E+04  0.14975404204E+04  0.12500000000E+03 0.  0.
<mgrwt>
<rscale>  0 0.12500000E+03</rscale>
<asrwt>0</asrwt>
<pdfrwt beam="1">  1       21 0.22998815E+00 0.12500000E+03</pdfrwt>
<pdfrwt beam="2">  1       21 0.40200167E-03 0.12500000E+03</pdfrwt>
<totfact> 0.14029696E+06</totfact>
</mgrwt>
</event>
<event>
 3    1  0.1620993E-001  0.1250000E+03  0.7546771E-02  0.1235069E+00
         21   -1    0    0  502  501  0.00000000000E+00  0.00000000000E+00  0.12670341154E+03  0.12670341154E+03  0.00000000000E+00 0. -1.
         21   -1    0    0  501  502 -0.00000000000E+00 -0.00000000000E+00 -0.30829872317E+02  0.30829872317E+02  0.00000000000E+00 0. -1.
         25    1    1    2    0    0  0.00000000000E+00  0.00000000000E+00  0.95873539226E+02  0.15753328386E+03  0.12500000000E+03 0.  0.
<mgrwt>
<rscale>  0 0.12500000E+03</rscale>
<asrwt>0</asrwt>
<pdfrwt beam="1">  1       21 0.19492832E-01 0.12500000E+03</pdfrwt>
<pdfrwt beam="2">  1       21 0.47430573E-02 0.12500000E+03</pdfrwt>
<totfact> 0.69822165E+06</totfact>
</mgrwt>
</event>
<event>
 3    1  0.1620993E-001  0.1250000E+03  0.7546771E-02  0.1235069E+00
         21   -1    0    0  502  501  0.00000000000E+00  0.00000000000E+00  0.56237779766E+03  0.56237779766E+03  0.00000000000E+00 0. -1.
         21   -1    0    0  501  502 -0.00000000000E+00 -0.00000000000E+00 -0.69459534432E+01  0.69459534432E+01  0.00000000000E+00 0. -1.
         25    1    1    2    0    0  0.00000000000E+00  0.00000000000E+00  0.55543184422E+03  0.56932375110E+03  0.12500000000E+03 0.  0.
<mgrwt>
<rscale>  0 0.12500000E+03</rscale>
<asrwt>0</asrwt>
<pdfrwt beam="1">  1       21 0.86519626E-01 0.12500000E+03</pdfrwt>
<pdfrwt beam="2">  1       21 0.10686087E-02 0.12500000E+03</pdfrwt>
<totfact> 0.38517731E+06</totfact>
</mgrwt>
</event>
<event>
 3    1  0.1620993E-001  0.1250000E+03  0.7546771E-02  0.1235069E+00
         21   -1    0    0  502  501  0.00000000000E+00  0.00000000000E+00  0.10392478966E+03  0.10392478966E+03  0.00000000000E+00 0.  1.
         21   -1    0    0  501  502 -0.00000000000E+00 -0.00000000000E+00 -0.37587278386E+02  0.37587278386E+02  0.00000000000E+00 0.  1.
         25    1    1    2    0    0  0.00000000000E+00  0.00000000000E+00  0.66337511269E+02  0.14151206804E+03  0.12500000000E+03 0.  0.
<mgrwt>
<rscale>  0 0.12500000E+03</rscale>
<asrwt>0</asrwt>
<pdfrwt beam="1">  1       21 0.15988429E-01 0.12500000E+03</pdfrwt>
<pdfrwt beam="2">  1       21 0.57826582E-02 0.12500000E+03</pdfrwt>
<totfact> 0.71842521E+06</totfact>
</mgrwt>
</event>
<event>
 3    1  0.1620993E-001  0.1250000E+03  0.7546771E-02  0.1235069E+00
         21   -1    0    0  502  501  0.00000000000E+00  0.00000000000E+00  0.21728577316E+02  0.21728577316E+02  0.00000000000E+00 0.  1.
         21   -1    0    0  501  502 -0.00000000000E+00 -0.00000000000E+00 -0.17977477049E+03  0.17977477049E+03  0.00000000000E+00 0.  1.
         25    1    1    2    0    0  0.00000000000E+00  0.00000000000E+00 -0.15804619317E+03  0.20150334781E+03  0.12500000000E+03 0.  0.
<mgrwt>
<rscale>  0 0.12500000E+03</rscale>
<asrwt>0</asrwt>
<pdfrwt beam="1">  1       21 0.33428582E-02 0.12500000E+03</pdfrwt>
<pdfrwt beam="2">  1       21 0.27657656E-01 0.12500000E+03</pdfrwt>
<totfact> 0.64764718E+06</totfact>
</mgrwt>
</event>
<event>
 3    1  0.1620993E-001  0.1250000E+03  0.7546771E-02  0.1235069E+00
         21   -1    0    0  502  501  0.00000000000E+00  0.00000000000E+00  0.91846119753E+02  0.91846119753E+02  0.00000000000E+00 0. -1.
         21   -1    0    0  501  502 -0.00000000000E+00 -0.00000000000E+00 -0.42530375921E+02  0.42530375921E+02  0.00000000000E+00 0. -1.
         25    1    1    2    0    0  0.00000000000E+00  0.00000000000E+00  0.49315743831E+02  0.13437649567E+03  0.12500000000E+03 0.  0.
<mgrwt>
<rscale>  0 0.12500000E+03</rscale>
<asrwt>0</asrwt>
<pdfrwt beam="1">  1       21 0.14130172E-01 0.12500000E+03</pdfrwt>
<pdfrwt beam="2">  1       21 0.65431348E-02 0.12500000E+03</pdfrwt>
<totfact> 0.72779134E+06</totfact>
</mgrwt>
</event>
<event>
 3    1  0.1620993E-001  0.1250000E+03  0.7546771E-02  0.1235069E+00
         21   -1    0    0  502  501  0.00000000000E+00  0.00000000000E+00  0.94912258563E+03  0.94912258563E+03  0.00000000000E+00 0. -1.
         21   -1    0    0  501  502 -0.00000000000E+00 -0.00000000000E+00 -0.41156432890E+01  0.41156432890E+01  0.00000000000E+00 0. -1.
         25    1    1    2    0    0  0.00000000000E+00  0.00000000000E+00  0.94500694234E+03  0.95323822891E+03  0.12500000000E+03 0.  0.
<mgrwt>
<rscale>  0 0.12500000E+03</rscale>
<asrwt>0</asrwt>
<pdfrwt beam="1">  1       21 0.14601868E+00 0.12500000E+03</pdfrwt>
<pdfrwt beam="2">  1       21 0.63317665E-03 0.12500000E+03</pdfrwt>
<totfact> 0.24824934E+06</totfact>
</mgrwt>
</event>
<event>
 3    1  0.1620993E-001  0.1250000E+03  0.7546771E-02  0.1235069E+00
         21   -1    0    0  502  501  0.00000000000E+00  0.00000000000E+00  0.23656789550E+02  0.23656789550E+02  0.00000000000E+00 0.  1.
         21   -1    0    0  501  502 -0.00000000000E+00 -0.00000000000E+00 -0.16512172929E+03  0.16512172929E+03  0.00000000000E+00 0.  1.
         25    1    1    2    0    0  0.00000000000E+00  0.00000000000E+00 -0.14146493974E+03  0.18877851884E+03  0.12500000000E+03 0.  0.
<mgrwt>
<rscale>  0 0.12500000E+03</rscale>
<asrwt>0</asrwt>
<pdfrwt beam="1">  1       21 0.36395060E-02 0.12500000E+03</pdfrwt>
<pdfrwt beam="2">  1       21 0.25403343E-01 0.12500000E+03</pdfrwt>
<totfact> 0.66158477E+06</totfact>
</mgrwt>
</event>
<event>
 3    1  0.1620993E-001  0.1250000E+03  0.7546771E-02  0.1235069E+00
         21   -1    0    0  502  501  0.00000000000E+00  0.00000000000E+00  0.42534848787E+03  0.42534848787E+03  0.00000000000E+00 0.  1.
         21   -1    0    0  501  502 -0.00000000000E+00 -0.00000000000E+00 -0.91836461428E+01  0.91836461428E+01  0.00000000000E+00 0.  1.
         25    1    1    2    0    0  0.00000000000E+00  0.00000000000E+00  0.41616484173E+03  0.43453213401E+03  0.12500000000E+03 0.  0.
<mgrwt>
<rscale>  0 0.12500000E+03</rscale>
<asrwt>0</asrwt>
<pdfrwt beam="1">  1       21 0.65438213E-01 0.12500000E+03</pdfrwt>
<pdfrwt beam="2">  1       21 0.14128690E-02 0.12500000E+03</pdfrwt>
<totfact> 0.45832157E+06</totfact>
</mgrwt>
</event>
<event>
 3    1  0.1620993E-001  0.1250000E+03  0.7546771E-02  0.1235069E+00
         21   -1    0    0  502  501  0.00000000000E+00  0.00000000000E+00  0.23608069362E+02  0.23608069362E+02  0.00000000000E+00 0.  1.
         21   -1    0    0  501  502 -0.00000000000E+00 -0.00000000000E+00 -0.16546249251E+03  0.16546249251E+03  0.00000000000E+00 0.  1.
         25    1    1    2    0    0  0.00000000000E+00  0.00000000000E+00 -0.14185442315E+03  0.18907056187E+03  0.12500000000E+03 0.  0.
<mgrwt>
<rscale>  0 0.12500000E+03</rscale>
<asrwt>0</asrwt>
<pdfrwt beam="1">  1       21 0.36320108E-02 0.12500000E+03</pdfrwt>
<pdfrwt beam="2">  1       21 0.25455767E-01 0.12500000E+03</pdfrwt>
<totfact> 0.66125912E+06</totfact>
</mgrwt>
</event>
<event>
 3    1  0.1620993E-001  0.1250000E+03  0.7546771E-02  0.1235069E+00
         21   -1    0    0  502  501  0.00000000000E+00  0.00000000000E+00  0.98086892493E+01  0.98086892493E+01  0.00000000000E+00 0.  1.
         21   -1    0    0  501  502 -0.00000000000E+00 -0.00000000000E+00 -0.39824383266E+03  0.39824383266E+03  0.00000000000E+00 0.  1.
         25    1    1    2    0    0  0.00000000000E+00  0.00000000000E+00 -0.38843514341E+03  0.40805252191E+03  0.12500000000E+03 0.  0.
<mgrwt>
<rscale>  0 0.12500000E+03</rscale>
<asrwt>0</asrwt>
<pdfrwt beam="1">  1       21 0.15090293E-02 0.12500000E+03</pdfrwt>
<pdfrwt beam="2">  1       21 0.61268276E-01 0.12500000E+03</pdfrwt>
<totfact> 0.47511785E+06</totfact>
</mgrwt>
</event>
<event>
 3    1  0.1620993E-001  0.1250000E+03  0.7546771E-02  0.1235069E+00
         21   -1    0    0  502  501  0.00000000000E+00  0.00000000000E+00  0.55731412604E+03  0.55731412604E+03  0.00000000000E+00 0.  1.
         21   -1    0    0  501  502 -0.00000000000E+00 -0.00000000000E+00 -0.70090633226E+01  0.70090633226E+01  0.00000000000E+00 0.  1.
         25    1    1    2    0    0  0.00000000000E+00  0.00000000000E+00  0.55030506272E+03  0.56432318936E+03  0.12500000000E+03 0.  0.
<mgrwt>
<rscale>  0 0.12500000E+03</rscale>
<asrwt>0</asrwt>
<pdfrwt beam="1">  1       21 0.85740600E-01 0.12500000E+03</pdfrwt>
<pdfrwt beam="2">  1       21 0.10783179E-02 0.12500000E+03</pdfrwt>
<totfact> 0.38757442E+06</totfact>
</mgrwt>
</event>
<event>
 3    1  0.1620993E-001  0.1250000E+03  0.7546771E-02  0.1235069E+00
         21   -1    0    0  502  501  0.00000000000E+00  0.00000000000E+00  0.11508522910E+02  0.11508522910E+02  0.00000000000E+00 0. -1.
         21   -1    0    0  501  502 -0.00000000000E+00 -0.00000000000E+00 -0.33942235946E+03  0.33942235946E+03  0.00000000000E+00 0. -1.
         25    1    1    2    0    0  0.00000000000E+00  0.00000000000E+00 -0.32791383655E+03  0.35093088237E+03  0.12500000000E+03 0.  0.
<mgrwt>
<rscale>  0 0.12500000E+03</rscale>
<asrwt>0</asrwt>
<pdfrwt beam="1">  1       21 0.17705421E-02 0.12500000E+03</pdfrwt>
<pdfrwt beam="2">  1       21 0.52218820E-01 0.12500000E+03</pdfrwt>
<totfact> 0.51469759E+06</totfact>
</mgrwt>
</event>
<event>
 3    1  0.1620993E-001  0.1250000E+03  0.7546771E-02  0.1235069E+00
         21   -1    0    0  502  501  0.00000000000E+00  0.00000000000E+00  0.26966447905E+02  0.26966447905E+02  0.00000000000E+00 0. -1.
         21   -1    0    0  501  502 -0.00000000000E+00 -0.00000000000E+00 -0.14485593408E+03  0.14485593408E+03  0.00000000000E+00 0. -1.
         25    1    1    2    0    0  0.00000000000E+00  0.00000000000E+00 -0.11788948617E+03  0.17182238198E+03  0.12500000000E+03 0.  0.
<mgrwt>
<rscale>  0 0.12500000E+03</rscale>
<asrwt>0</asrwt>
<pdfrwt beam="1">  1       21 0.41486843E-02 0.12500000E+03</pdfrwt>
<pdfrwt beam="2">  1       21 0.22285528E-01 0.12500000E+03</pdfrwt>
<totfact> 0.68102257E+06</totfact>
</mgrwt>
</event>
<event>
 3    1  0.1620993E-001  0.1250000E+03  0.7546771E-02  0.1235069E+00
         21   -1    0    0  502  501  0.00000000000E+00  0.00000000000E+00  0.59034140362E+02  0.59034140362E+02  0.00000000000E+00 0. -1.
         21   -1    0    0  501  502 -0.00000000000E+00 -0.00000000000E+00 -0.66169338218E+02  0.66169338218E+02  0.00000000000E+00 0. -1.
         25    1    1    2    0    0  0.00000000000E+00  0.00000000000E+00 -0.71351978561E+01  0.12520347858E+03  0.12500000000E+03 0.  0.
<mgrwt>
<rscale>  0 0.12500000E+03</rscale>
<asrwt>0</asrwt>
<pdfrwt beam="1">  1       21 0.90821754E-02 0.12500000E+03</pdfrwt>
<pdfrwt beam="2">  1       21 0.10179898E-01 0.12500000E+03</pdfrwt>
<totfact> 0.74016102E+06</totfact>
</mgrwt>
</event>
<event>
 3    1  0.1620993E-001  0.1250000E+03  0.7546771E-02  0.1235069E+00
         21   -1    0    0  502  501  0.00000000000E+00  0.00000000000E+00  0.10383646243E+03  0.10383646243E+03  0.00000000000E+00 0.  1.
         21   -1    0    0  501  502 -0.00000000000E+00 -0.00000000000E+00 -0.37619251547E+02  0.37619251547E+02  0.00000000000E+00 0.  1.
         25    1    1    2    0    0  0.00000000000E+00  0.00000000000E+00  0.66217210885E+02  0.14145571398E+03  0.12500000000E+03 0.  0.
<mgrwt>
<rscale>  0 0.12500000E+03</rscale>
<asrwt>0</asrwt>
<pdfrwt beam="1">  1       21 0.15974840E-01 0.12500000E+03</pdfrwt>
<pdfrwt beam="2">  1       21 0.57875772E-02 0.12500000E+03</pdfrwt>
<totfact> 0.71849833E+06</totfact>
</mgrwt>
</event>
<event>
 3    1  0.1620993E-001  0.1250000E+03  0.7546771E-02  0.1235069E+00
         21   -1    0    0  502  501  0.00000000000E+00  0.00000000000E+00  0.34453862150E+03  0.34453862150E+03  0.00000000000E+00 0. -1.
         21   -1    0    0  501  502 -0.00000000000E+00 -0.00000000000E+00 -0.11337625904E+02  0.11337625904E+02  0.00000000000E+00 0. -1.
         25    1    1    2    0    0  0.00000000000E+00  0.00000000000E+00  0.33320099559E+03  0.35587624740E+03  0.12500000000E+03 0.  0.
<mgrwt>
<rscale>  0 0.12500000E+03</rscale>
<asrwt>0</asrwt>
<pdfrwt beam="1">  1       21 0.53005934E-01 0.12500000E+03</pdfrwt>
<pdfrwt beam="2">  1       21 0.17442504E-02 0.12500000E+03</pdfrwt>
<totfact> 0.51107365E+06</totfact>
</mgrwt>
</event>
<event>
 3    1  0.1620993E-001  0.1250000E+03  0.7546771E-02  0.1235069E+00
         21   -1    0    0  502  501  0.00000000000E+00  0.00000000000E+00  0.72224351948E+02  0.72224351948E+02  0.00000000000E+00 0. -1.
         21   -1    0    0  501  502 -0.00000000000E+00 -0.00000000000E+00 -0.54084943577E+02  0.54084943577E+02  0.00000000000E+00 0. -1.
         25    1    1    2    0    0  0.00000000000E+00  0.00000000000E+00  0.18139408371E+02  0.12630929553E+03  0.12500000000E+03 0.  0.
<mgrwt>
<rscale>  0 0.12500000E+03</rscale>
<asrwt>0</asrwt>
<pdfrwt beam="1">  1       21 0.11111439E-01 0.12500000E+03</pdfrwt>
<pdfrwt beam="2">  1       21 0.83207605E-02 0.12500000E+03</pdfrwt>
<totfact> 0.73863503E+06</totfact>
</mgrwt>
</event>
<event>
 3    1  0.1620993E-001  0.1250000E+03  0.7546771E-02  0.1235069E+00
         21   -1    0    0  502  501  0.00000000000E+00  0.00000000000E+00  0.21930192518E+03  0.21930192518E+03  0.00000000000E+00 0. -1.
         21   -1    0    0  501  502 -0.00000000000E+00 -0.00000000000E+00 -0.17812201132E+02  0.17812201132E+02  0.00000000000E+00 0. -1.
         25    1    1    2    0    0  0.00000000000E+00  0.00000000000E+00  0.20148972405E+03  0.23711412631E+03  0.12500000000E+03 0.  0.
<mgrwt>
<rscale>  0 0.12500000E+03</rscale>
<asrwt>0</asrwt>
<pdfrwt beam="1">  1       21 0.33738756E-01 0.12500000E+03</pdfrwt>
<pdfrwt beam="2">  1       21 0.27403388E-02 0.12500000E+03</pdfrwt>
<totfact> 0.61113046E+06</totfact>
</mgrwt>
</event>
<event>
 3    1  0.1620993E-001  0.1250000E+03  0.7546771E-02  0.1235069E+00
         21   -1    0    0  502  501  0.00000000000E+00  0.00000000000E+00  0.22175124711E+03  0.22175124711E+03  0.00000000000E+00 0.  1.
         21   -1    0    0  501  502 -0.00000000000E+00 -0.00000000000E+00 -0.17615458993E+02  0.17615458993E+02  0.00000000000E+00 0.  1.
         25    1    1    2    0    0  0.00000000000E+00  0.00000000000E+00  0.20413578811E+03  0.23936670610E+03  0.12500000000E+03 0.  0.
<mgrwt>
<rscale>  0 0.12500000E+03</rscale>
<asrwt>0</asrwt>
<pdfrwt beam="1">  1       21 0.34115575E-01 0.12500000E+03</pdfrwt>
<pdfrwt beam="2">  1       21 0.27100708E-02 0.12500000E+03</pdfrwt>
<totfact> 0.60894000E+06</totfact>
</mgrwt>
</event>
<event>
 3    1  0.1620993E-001  0.1250000E+03  0.7546771E-02  0.1235069E+00
         21   -1    0    0  502  501  0.00000000000E+00  0.00000000000E+00  0.18154851630E+02  0.18154851630E+02  0.00000000000E+00 0. -1.
         21   -1    0    0  501  502 -0.00000000000E+00 -0.00000000000E+00 -0.21516287103E+03  0.21516287103E+03  0.00000000000E+00 0. -1.
         25    1    1    2    0    0  0.00000000000E+00  0.00000000000E+00 -0.19700801940E+03  0.23331772267E+03  0.12500000000E+03 0.  0.
<mgrwt>
<rscale>  0 0.12500000E+03</rscale>
<asrwt>0</asrwt>
<pdfrwt beam="1">  1       21 0.27930541E-02 0.12500000E+03</pdfrwt>
<pdfrwt beam="2">  1       21 0.33101980E-01 0.12500000E+03</pdfrwt>
<totfact> 0.61485350E+06</totfact>
</mgrwt>
</event>
<event>
 3    1  0.1620993E-001  0.1250000E+03  0.7546771E-02  0.1235069E+00
         21   -1    0    0  502  501  0.00000000000E+00  0.00000000000E+00  0.47268188542E+02  0.47268188542E+02  0.00000000000E+00 0. -1.
         21   -1    0    0  501  502 -0.00000000000E+00 -0.00000000000E+00 -0.82640145952E+02  0.82640145952E+02  0.00000000000E+00 0. -1.
         25    1    1    2    0    0  0.00000000000E+00  0.00000000000E+00 -0.35371957410E+02  0.12990833449E+03  0.12500000000E+03 0.  0.
<mgrwt>
<rscale>  0 0.12500000E+03</rscale>
<asrwt>0</asrwt>
<pdfrwt beam="1">  1       21 0.72720291E-02 0.12500000E+03</pdfrwt>
<pdfrwt beam="2">  1       21 0.12713868E-01 0.12500000E+03</pdfrwt>
<totfact> 0.73377168E+06</totfact>
</mgrwt>
</event>
<event>
 3    1  0.1620993E-001  0.1250000E+03  0.7546771E-02  0.1235069E+00
         21   -1    0    0  502  501  0.00000000000E+00  0.00000000000E+00  0.45788752686E+02  0.45788752686E+02  0.00000000000E+00 0. -1.
         21   -1    0    0  501  502 -0.00000000000E+00 -0.00000000000E+00 -0.85310251337E+02  0.85310251337E+02  0.00000000000E+00 0. -1.
         25    1    1    2    0    0  0.00000000000E+00  0.00000000000E+00 -0.39521498651E+02  0.13109900402E+03  0.12500000000E+03 0.  0.
<mgrwt>
<rscale>  0 0.12500000E+03</rscale>
<asrwt>0</asrwt>
<pdfrwt beam="1">  1       21 0.70444235E-02 0.12500000E+03</pdfrwt>
<pdfrwt beam="2">  1       21 0.13124654E-01 0.12500000E+03</pdfrwt>
<totfact> 0.73217333E+06</totfact>
</mgrwt>
</event>
<event>
 3    1  0.1620993E-001  0.1250000E+03  0.7546771E-02  0.1235069E+00
         21   -1    0    0  502  501  0.00000000000E+00  0.00000000000E+00  0.49201719087E+02  0.49201719087E+02  0.00000000000E+00 0.  1.
         21   -1    0    0  501  502 -0.00000000000E+00 -0.00000000000E+00 -0.79392551165E+02  0.79392551165E+02  0.00000000000E+00 0.  1.
         25    1    1    2    0    0  0.00000000000E+00  0.00000000000E+00 -0.30190832078E+02  0.12859427025E+03  0.12500000000E+03 0.  0.
<mgrwt>
<rscale>  0 0.12500000E+03</rscale>
<asrwt>0</asrwt>
<pdfrwt beam="1">  1       21 0.75694953E-02 0.12500000E+03</pdfrwt>
<pdfrwt beam="2">  1       21 0.12214239E-01 0.12500000E+03</pdfrwt>
<totfact> 0.73553430E+06</totfact>
</mgrwt>
</event>
<event>
 3    1  0.1620993E-001  0.1250000E+03  0.7546771E-02  0.1235069E+00
         21   -1    0    0  502  501  0.00000000000E+00  0.00000000000E+00  0.61362393916E+02  0.61362393916E+02  0.00000000000E+00 0.  1.
         21   -1    0    0  501  502 -0.00000000000E+00 -0.00000000000E+00 -0.63658696324E+02  0.63658696324E+02  0.00000000000E+00 0.  1.
         25    1    1    2    0    0  0.00000000000E+00  0.00000000000E+00 -0.22963024080E+01  0.12502109024E+03  0.12500000000E+03 0.  0.
<mgrwt>
<rscale>  0 0.12500000E+03</rscale>
<asrwt>0</asrwt>
<pdfrwt beam="1">  1       21 0.94403683E-02 0.12500000E+03</pdfrwt>
<pdfrwt beam="2">  1       21 0.97936456E-02 0.12500000E+03</pdfrwt>
<totfact> 0.74040733E+06</totfact>
</mgrwt>
</event>
<event>
 3    1  0.1620993E-001  0.1250000E+03  0.7546771E-02  0.1235069E+00
         21   -1    0    0  502  501  0.00000000000E+00  0.00000000000E+00  0.79695646776E+03  0.79695646776E+03  0.00000000000E+00 0.  1.
         21   -1    0    0  501  502 -0.00000000000E+00 -0.00000000000E+00 -0.49014596882E+01  0.49014596882E+01  0.00000000000E+00 0.  1.
         25    1    1    2    0    0  0.00000000000E+00  0.00000000000E+00  0.79205500807E+03  0.80185792745E+03  0.12500000000E+03 0.  0.
<mgrwt>
<rscale>  0 0.12500000E+03</rscale>
<asrwt>0</asrwt>
<pdfrwt beam="1">  1       21 0.12260858E+00 0.12500000E+03</pdfrwt>
<pdfrwt beam="2">  1       21 0.75407135E-03 0.12500000E+03</pdfrwt>
<totfact> 0.29301370E+06</totfact>
</mgrwt>
</event>
<event>
 3    1  0.1620993E-001  0.1250000E+03  0.7546771E-02  0.1235069E+00
         21   -1    0    0  502  501  0.00000000000E+00  0.00000000000E+00  0.20462596938E+03  0.20462596938E+03  0.00000000000E+00 0. -1.
         21   -1    0    0  501  502 -0.00000000000E+00 -0.00000000000E+00 -0.19089707977E+02  0.19089707977E+02  0.00000000000E+00 0. -1.
         25    1    1    2    0    0  0.00000000000E+00  0.00000000000E+00  0.18553626140E+03  0.22371567736E+03  0.12500000000E+03 0.  0.
<mgrwt>
<rscale>  0 0.12500000E+03</rscale>
<asrwt>0</asrwt>
<pdfrwt beam="1">  1       21 0.31480917E-01 0.12500000E+03</pdfrwt>
<pdfrwt beam="2">  1       21 0.29368783E-02 0.12500000E+03</pdfrwt>
<totfact> 0.62444751E+06</totfact>
</mgrwt>
</event>
<event>
 3    1  0.1620993E-001  0.1250000E+03  0.7546771E-02  0.1235069E+00
         21   -1    0    0  502  501  0.00000000000E+00  0.00000000000E+00  0.42502980228E+02  0.42502980228E+02  0.00000000000E+00 0.  1.
         21   -1    0    0  501  502 -0.00000000000E+00 -0.00000000000E+00 -0.91905320027E+02  0.91905320027E+02  0.00000000000E+00 0.  1.
         25    1    1    2    0    0  0.00000000000E+00  0.00000000000E+00 -0.49402339799E+02  0.13440830026E+03  0.12500000000E+03 0.  0.
<mgrwt>
<rscale>  0 0.12500000E+03</rscale>
<asrwt>0</asrwt>
<pdfrwt beam="1">  1       21 0.65389201E-02 0.12500000E+03</pdfrwt>
<pdfrwt beam="2">  1       21 0.14139280E-01 0.12500000E+03</pdfrwt>
<totfact> 0.72774912E+06</totfact>
</mgrwt>
</event>
<event>
 3    1  0.1620993E-001  0.1250000E+03  0.7546771E-02  0.1235069E+00
         21   -1    0    0  502  501  0.00000000000E+00  0.00000000000E+00  0.24982471370E+03  0.24982471370E+03  0.00000000000E+00 0.  1.
         21   -1    0    0  501  502 -0.00000000000E+00 -0.00000000000E+00 -0.15635963081E+02  0.15635963081E+02  0.00000000000E+00 0.  1.
         25    1    1    2    0    0  0.00000000000E+00  0.00000000000E+00  0.23418875062E+03  0.26546067678E+03  0.12500000000E+03 0.  0.
<mgrwt>
<rscale>  0 0.12500000E+03</rscale>
<asrwt>0</asrwt>
<pdfrwt beam="1">  1       21 0.38434569E-01 0.12500000E+03</pdfrwt>
<pdfrwt beam="2">  1       21 0.24055330E-02 0.12500000E+03</pdfrwt>
<totfact> 0.58452360E+06</totfact>
</mgrwt>
</event>
<event>
 3    1  0.1620993E-001  0.1250000E+03  0.7546771E-02  0.1235069E+00
         21   -1    0    0  502  501  0.00000000000E+00  0.00000000000E+00  0.26322727951E+03  0.26322727951E+03  0.00000000000E+00 0.  1.
         21   -1    0    0  501  502 -0.00000000000E+00 -0.00000000000E+00 -0.14839837297E+02  0.14839837297E+02  0.00000000000E+00 0.  1.
         25    1    1    2    0    0  0.00000000000E+00  0.00000000000E+00  0.24838744222E+03  0.27806711681E+03  0.12500000000E+03 0.  0.
<mgrwt>
<rscale>  0 0.12500000E+03</rscale>
<asrwt>0</asrwt>
<pdfrwt beam="1">  1       21 0.40496501E-01 0.12500000E+03</pdfrwt>
<pdfrwt beam="2">  1       21 0.22830521E-02 0.12500000E+03</pdfrwt>
<totfact> 0.57329602E+06</totfact>
</mgrwt>
</event>
<event>
 3    1  0.1620993E-001  0.1250000E+03  0.7546771E-02  0.1235069E+00
         21   -1    0    0  502  501  0.00000000000E+00  0.00000000000E+00  0.20718800048E+03  0.20718800048E+03  0.00000000000E+00 0. -1.
         21   -1    0    0  501  502 -0.00000000000E+00 -0.00000000000E+00 -0.18853649782E+02  0.18853649782E+02  0.00000000000E+00 0. -1.
         25    1    1    2    0    0  0.00000000000E+00  0.00000000000E+00  0.18833435070E+03  0.22604165026E+03  0.12500000000E+03 0.  0.
<mgrwt>
<rscale>  0 0.12500000E+03</rscale>
<asrwt>0</asrwt>
<pdfrwt beam="1">  1       21 0.31875075E-01 0.12500000E+03</pdfrwt>
<pdfrwt beam="2">  1       21 0.29005617E-02 0.12500000E+03</pdfrwt>
<totfact> 0.62210124E+06</totfact>
</mgrwt>
</event>
<event>
 3    1  0.1620993E-001  0.1250000E+03  0.7546771E-02  0.1235069E+00
         21   -1    0    0  502  501  0.00000000000E+00  0.00000000000E+00  0.71370324686E+01  0.71370324686E+01  0.00000000000E+00 0.  1.
         21   -1    0    0  501  502 -0.00000000000E+00 -0.00000000000E+00 -0.54732131557E+03  0.54732131557E+03  0.00000000000E+00 0.  1.
         25    1    1    2    0    0  0.00000000000E+00  0.00000000000E+00 -0.54018428310E+03  0.55445834804E+03  0.12500000000E+03 0.  0.
<mgrwt>
<rscale>  0 0.12500000E+03</rscale>
<asrwt>0</asrwt>
<pdfrwt beam="1">  1       21 0.10980049E-02 0.12500000E+03</pdfrwt>
<pdfrwt beam="2">  1       21 0.84203289E-01 0.12500000E+03</pdfrwt>
<totfact> 0.39236667E+06</totfact>
</mgrwt>
</event>
<event>
 3    1  0.1620993E-001  0.1250000E+03  0.7546771E-02  0.1235069E+00
         21   -1    0    0  502  501  0.00000000000E+00  0.00000000000E+00  0.50763774567E+02  0.50763774567E+02  0.00000000000E+00 0.  1.
         21   -1    0    0  501  502 -0.00000000000E+00 -0.00000000000E+00 -0.76949557697E+02  0.76949557697E+02  0.00000000000E+00 0.  1.
         25    1    1    2    0    0  0.00000000000E+00  0.00000000000E+00 -0.26185783130E+02  0.12771333226E+03  0.12500000000E+03 0.  0.
<mgrwt>
<rscale>  0 0.12500000E+03</rscale>
<asrwt>0</asrwt>
<pdfrwt beam="1">  1       21 0.78098115E-02 0.12500000E+03</pdfrwt>
<pdfrwt beam="2">  1       21 0.11838393E-01 0.12500000E+03</pdfrwt>
<totfact> 0.73672321E+06</totfact>
</mgrwt>
</event>
<event>
 3    1  0.1620993E-001  0.1250000E+03  0.7546771E-02  0.1235069E+00
         21   -1    0    0  502  501  0.00000000000E+00  0.00000000000E+00  0.49261100098E+03  0.49261100098E+03  0.00000000000E+00 0. -1.
         21   -1    0    0  501  502 -0.00000000000E+00 -0.00000000000E+00 -0.79296848674E+01  0.79296848674E+01  0.00000000000E+00 0. -1.
         25    1    1    2    0    0  0.00000000000E+00  0.00000000000E+00  0.48468131611E+03  0.50054068585E+03  0.12500000000E+03 0.  0.
<mgrwt>
<rscale>  0 0.12500000E+03</rscale>
<asrwt>0</asrwt>
<pdfrwt beam="1">  1       21 0.75786284E-01 0.12500000E+03</pdfrwt>
<pdfrwt beam="2">  1       21 0.12199519E-02 0.12500000E+03</pdfrwt>
<totfact> 0.42014771E+06</totfact>
</mgrwt>
</event>
<event>
 3    1  0.1620993E-001  0.1250000E+03  0.7546771E-02  0.1235069E+00
         21   -1    0    0  502  501  0.00000000000E+00  0.00000000000E+00  0.80835705261E+02  0.80835705261E+02  0.00000000000E+00 0.  1.
         21   -1    0    0  501  502 -0.00000000000E+00 -0.00000000000E+00 -0.48323324296E+02  0.48323324296E+02  0.00000000000E+00 0.  1.
         25    1    1    2    0    0  0.00000000000E+00  0.00000000000E+00  0.32512380965E+02  0.12915902956E+03  0.12500000000E+03 0.  0.
<mgrwt>
<rscale>  0 0.12500000E+03</rscale>
<asrwt>0</asrwt>
<pdfrwt beam="1">  1       21 0.12436262E-01 0.12500000E+03</pdfrwt>
<pdfrwt beam="2">  1       21 0.74343576E-02 0.12500000E+03</pdfrwt>
<totfact> 0.73477532E+06</totfact>
</mgrwt>
</event>
<event>
 3    1  0.1620993E-001  0.1250000E+03  0.7546771E-02  0.1235069E+00
         21   -1    0    0  502  501  0.00000000000E+00  0.00000000000E+00  0.83954690645E+02  0.83954690645E+02  0.00000000000E+00 0.  1.
         21   -1    0    0  501  502 -0.00000000000E+00 -0.00000000000E+00 -0.46528073297E+02  0.46528073297E+02  0.00000000000E+00 0.  1.
         25    1    1    2    0    0  0.00000000000E+00  0.00000000000E+00  0.37426617348E+02  0.13048276394E+03  0.12500000000E+03 0.  0.
<mgrwt>
<rscale>  0 0.12500000E+03</rscale>
<asrwt>0</asrwt>
<pdfrwt beam="1">  1       21 0.12916106E-01 0.12500000E+03</pdfrwt>
<pdfrwt beam="2">  1       21 0.71581652E-02 0.12500000E+03</pdfrwt>
<totfact> 0.73300460E+06</totfact>
</mgrwt>
</event>
<event>
 3    1  0.1620993E-001  0.1250000E+03  0.7546771E-02  0.1235069E+00
         21   -1    0    0  502  501  0.00000000000E+00  0.00000000000E+00  0.20047791308E+03  0.20047791308E+03  0.00000000000E+00 0.  1.
         21   -1    0    0  501  502 -0.00000000000E+00 -0.00000000000E+00 -0.19484690058E+02  0.19484690058E+02  0.00000000000E+00 0.  1.
         25    1    1    2    0    0  0.00000000000E+00  0.00000000000E+00  0.18099322303E+03  0.21996260314E+03  0.12500000000E+03 0.  0.
<mgrwt>
<rscale>  0 0.12500000E+03</rscale>
<asrwt>0</asrwt>
<pdfrwt beam="1">  1       21 0.30842754E-01 0.12500000E+03</pdfrwt>
<pdfrwt beam="2">  1       21 0.29976448E-02 0.12500000E+03</pdfrwt>
<totfact> 0.62826359E+06</totfact>
</mgrwt>
</event>
<event>
 3    1  0.1620993E-001  0.1250000E+03  0.7546771E-02  0.1235069E+00
         21   -1    0    0  502  501  0.00000000000E+00  0.00000000000E+00  0.38685359817E+02  0.38685359817E+02  0.00000000000E+00 0. -1.
         21   -1    0    0  501  502 -0.00000000000E+00 -0.00000000000E+00 -0.10097489124E+03  0.10097489124E+03  0.00000000000E+00 0. -1.
         25    1    1    2    0    0  0.00000000000E+00  0.00000000000E+00 -0.62289531419E+02  0.13966025105E+03  0.12500000000E+03 0.  0.
<mgrwt>
<rscale>  0 0.12500000E+03</rscale>
<asrwt>0</asrwt>
<pdfrwt beam="1">  1       21 0.59515938E-02 0.12500000E+03</pdfrwt>
<pdfrwt beam="2">  1       21 0.15534599E-01 0.12500000E+03</pdfrwt>
<totfact> 0.72083693E+06</totfact>
</mgrwt>
</event>
<event>
 3    1  0.1620993E-001  0.1250000E+03  0.7546771E-02  0.1235069E+00
         21   -1    0    0  502  501  0.00000000000E+00  0.00000000000E+00  0.35821329677E+02  0.35821329677E+02  0.00000000000E+00 0.  1.
         21   -1    0    0  501  502 -0.00000000000E+00 -0.00000000000E+00 -0.10904815749E+03  0.10904815749E+03  0.00000000000E+00 0.  1.
         25    1    1    2    0    0  0.00000000000E+00  0.00000000000E+00 -0.73226827809E+02  0.14486948716E+03  0.12500000000E+03 0.  0.
<mgrwt>
<rscale>  0 0.12500000E+03</rscale>
<asrwt>0</asrwt>
<pdfrwt beam="1">  1       21 0.55109739E-02 0.12500000E+03</pdfrwt>
<pdfrwt beam="2">  1       21 0.16776639E-01 0.12500000E+03</pdfrwt>
<totfact> 0.71409805E+06</totfact>
</mgrwt>
</event>
<event>
 3    1  0.1620993E-001  0.1250000E+03  0.7546771E-02  0.1235069E+00
         21   -1    0    0  502  501  0.00000000000E+00  0.00000000000E+00  0.10564099887E+03  0.10564099887E+03  0.00000000000E+00 0. -1.
         21   -1    0    0  501  502 -0.00000000000E+00 -0.00000000000E+00 -0.36976647720E+02  0.36976647720E+02  0.00000000000E+00 0. -1.
         25    1    1    2    0    0  0.00000000000E+00  0.00000000000E+00  0.68664351151E+02  0.14261764659E+03  0.12500000000E+03 0.  0.
<mgrwt>
<rscale>  0 0.12500000E+03</rscale>
<asrwt>0</asrwt>
<pdfrwt beam="1">  1       21 0.16252461E-01 0.12500000E+03</pdfrwt>
<pdfrwt beam="2">  1       21 0.56887151E-02 0.12500000E+03</pdfrwt>
<totfact> 0.71699396E+06</totfact>
</mgrwt>
</event>
<event>
 3    1  0.1620993E-001  0.1250000E+03  0.7546771E-02  0.1235069E+00
         21   -1    0    0  502  501  0.00000000000E+00  0.00000000000E+00  0.21236729398E+03  0.21236729398E+03  0.00000000000E+00 0.  1.
         21   -1    0    0  501  502 -0.00000000000E+00 -0.00000000000E+00 -0.18393839874E+02  0.18393839874E+02  0.00000000000E+00 0.  1.
         25    1    1    2    0    0  0.00000000000E+00  0.00000000000E+00  0.19397345411E+03  0.23076113386E+03  0.12500000000E+03 0.  0.
<mgrwt>
<rscale>  0 0.12500000E+03</rscale>
<asrwt>0</asrwt>
<pdfrwt beam="1">  1       21 0.32671890E-01 0.12500000E+03</pdfrwt>
<pdfrwt beam="2">  1       21 0.28298217E-02 0.12500000E+03</pdfrwt>
<totfact> 0.61738316E+06</totfact>
</mgrwt>
</event>
<event>
 3    1  0.1620993E-001  0.1250000E+03  0.7546771E-02  0.1235069E+00
         21   -1    0    0  502  501  0.00000000000E+00  0.00000000000E+00  0.39046314778E+02  0.39046314778E+02  0.00000000000E+00 0.  1.
         21   -1    0    0  501  502 -0.00000000000E+00 -0.00000000000E+00 -0.10004145134E+03  0.10004145134E+03  0.00000000000E+00 0.  1.
         25    1    1    2    0    0  0.00000000000E+00  0.00000000000E+00 -0.60995136566E+02  0.13908776612E+03  0.12500000000E+03 0.  0.
<mgrwt>
<rscale>  0 0.12500000E+03</rscale>
<asrwt>0</asrwt>
<pdfrwt beam="1">  1       21 0.60071254E-02 0.12500000E+03</pdfrwt>
<pdfrwt beam="2">  1       21 0.15390992E-01 0.12500000E+03</pdfrwt>
<totfact> 0.72158623E+06</totfact>
</mgrwt>
</event>
<event>
 3    1  0.1620993E-001  0.1250000E+03  0.7546771E-02  0.1235069E+00
         21   -1    0    0  502  501  0.00000000000E+00  0.00000000000E+00  0.48812326846E+03  0.48812326846E+03  0.00000000000E+00 0.  1.
         21   -1    0    0  501  502 -0.00000000000E+00 -0.00000000000E+00 -0.80025892072E+01  0.80025892072E+01  0.00000000000E+00 0.  1.
         25    1    1    2    0    0  0.00000000000E+00  0.00000000000E+00  0.48012067926E+03  0.49612585767E+03  0.12500000000E+03 0.  0.
<mgrwt>
<rscale>  0 0.12500000E+03</rscale>
<asrwt>0</asrwt>
<pdfrwt beam="1">  1       21 0.75095864E-01 0.12500000E+03</pdfrwt>
<pdfrwt beam="2">  1       21 0.12311680E-02 0.12500000E+03</pdfrwt>
<totfact> 0.42254964E+06</totfact>
</mgrwt>
</event>
<event>
 3    1  0.1620993E-001  0.1250000E+03  0.7546771E-02  0.1235069E+00
         21   -1    0    0  502  501  0.00000000000E+00  0.00000000000E+00  0.24855061727E+03  0.24855061727E+03  0.00000000000E+00 0.  1.
         21   -1    0    0  501  502 -0.00000000000E+00 -0.00000000000E+00 -0.15716114660E+02  0.15716114660E+02  0.00000000000E+00 0.  1.
         25    1    1    2    0    0  0.00000000000E+00  0.00000000000E+00  0.23283450261E+03  0.26426673193E+03  0.12500000000E+03 0.  0.
<mgrwt>
<rscale>  0 0.12500000E+03</rscale>
<asrwt>0</asrwt>
<pdfrwt beam="1">  1       21 0.38238554E-01 0.12500000E+03</pdfrwt>
<pdfrwt beam="2">  1       21 0.24178640E-02 0.12500000E+03</pdfrwt>
<totfact> 0.58560398E+06</totfact>
</mgrwt>
</event>
<event>
 3    1  0.1620993E-001  0.1250000E+03  0.7546771E-02  0.1235069E+00
         21   -1    0    0  502  501  0.00000000000E+00  0.00000000000E+00  0.29173383631E+02  0.29173383631E+02  0.00000000000E+00 0. -1.
         21   -1    0    0  501  502 -0.00000000000E+00 -0.00000000000E+00 -0.13389773533E+03  0.13389773533E+03  0.00000000000E+00 0. -1.
         25    1    1    2    0    0  0.00000000000E+00  0.00000000000E+00 -0.10472435170E+03  0.16307111896E+03  0.12500000000E+03 0.  0.
<mgrwt>
<rscale>  0 0.12500000E+03</rscale>
<asrwt>0</asrwt>
<pdfrwt beam="1">  1       21 0.44882128E-02 0.12500000E+03</pdfrwt>
<pdfrwt beam="2">  1       21 0.20599652E-01 0.12500000E+03</pdfrwt>
<totfact> 0.69146172E+06</totfact>
</mgrwt>
</event>
<event>
 3    1  0.1620993E-001  0.1250000E+03  0.7546771E-02  0.1235069E+00
         21   -1    0    0  502  501  0.00000000000E+00  0.00000000000E+00  0.11926959852E+04  0.11926959852E+04  0.00000000000E+00 0. -1.
         21   -1    0    0  501  502 -0.00000000000E+00 -0.00000000000E+00 -0.32751430778E+01  0.32751430778E+01  0.00000000000E+00 0. -1.
         25    1    1    2    0    0  0.00000000000E+00  0.00000000000E+00  0.11894208422E+04  0.11959711283E+04  0.12500000000E+03 0.  0.
<mgrwt>
<rscale>  0 0.12500000E+03</rscale>
<asrwt>0</asrwt>
<pdfrwt beam="1">  1       21 0.18349134E+00 0.12500000E+03</pdfrwt>
<pdfrwt beam="2">  1       21 0.50386912E-03 0.12500000E+03</pdfrwt>
<totfact> 0.19223883E+06</totfact>
</mgrwt>
</event>
<event>
 3    1  0.1620993E-001  0.1250000E+03  0.7546771E-02  0.1235069E+00
         21   -1    0    0  502  501  0.00000000000E+00  0.00000000000E+00  0.38234731614E+02  0.38234731614E+02  0.00000000000E+00 0. -1.
         21   -1    0    0  501  502 -0.00000000000E+00 -0.00000000000E+00 -0.10216496455E+03  0.10216496455E+03  0.00000000000E+00 0. -1.
         25    1    1    2    0    0  0.00000000000E+00  0.00000000000E+00 -0.63930232939E+02  0.14039969617E+03  0.12500000000E+03 0.  0.
<mgrwt>
<rscale>  0 0.12500000E+03</rscale>
<asrwt>0</asrwt>
<pdfrwt beam="1">  1       21 0.58822665E-02 0.12500000E+03</pdfrwt>
<pdfrwt beam="2">  1       21 0.15717686E-01 0.12500000E+03</pdfrwt>
<totfact> 0.71987172E+06</totfact>
</mgrwt>
</event>
<event>
 3    1  0.1620993E-001  0.1250000E+03  0.7546771E-02  0.1235069E+00
         21   -1    0    0  502  501  0.00000000000E+00  0.00000000000E+00  0.39602901623E+02  0.39602901623E+02  0.00000000000E+00 0. -1.
         21   -1    0    0  501  502 -0.00000000000E+00 -0.00000000000E+00 -0.98635449422E+02  0.98635449422E+02  0.00000000000E+00 0. -1.
         25    1    1    2    0    0  0.00000000000E+00  0.00000000000E+00 -0.59032547799E+02  0.13823835104E+03  0.12500000000E+03 0.  0.
<mgrwt>
<rscale>  0 0.12500000E+03</rscale>
<asrwt>0</asrwt>
<pdfrwt beam="1">  1       21 0.60927541E-02 0.12500000E+03</pdfrwt>
<pdfrwt beam="2">  1       21 0.15174685E-01 0.12500000E+03</pdfrwt>
<totfact> 0.72270130E+06</totfact>
</mgrwt>
</event>
<event>
 3    1  0.1620993E-001  0.1250000E+03  0.7546771E-02  0.1235069E+00
         21   -1    0    0  502  501  0.00000000000E+00  0.00000000000E+00  0.39864271377E+02  0.39864271377E+02  0.00000000000E+00 0.  1.
         21   -1    0    0  501  502 -0.00000000000E+00 -0.00000000000E+00 -0.97988746942E+02  0.97988746942E+02  0.00000000000E+00 0.  1.
         25    1    1    2    0    0  0.00000000000E+00  0.00000000000E+00 -0.58124475565E+02  0.13785301832E+03  0.12500000000E+03 0.  0.
<mgrwt>
<rscale>  0 0.12500000E+03</rscale>
<asrwt>0</asrwt>
<pdfrwt beam="1">  1       21 0.61329648E-02 0.12500000E+03</pdfrwt>
<pdfrwt beam="2">  1       21 0.15075192E-01 0.12500000E+03</pdfrwt>
<totfact> 0.72320847E+06</totfact>
</mgrwt>
</event>
<event>
 3    1  0.1620993E-001  0.1250000E+03  0.7546771E-02  0.1235069E+00
         21   -1    0    0  502  501  0.00000000000E+00  0.00000000000E+00  0.76503154976E+03  0.76503154976E+03  0.00000000000E+00 0. -1.
         21   -1    0    0  501  502 -0.00000000000E+00 -0.00000000000E+00 -0.51059985712E+01  0.51059985712E+01  0.00000000000E+00 0. -1.
         25    1    1    2    0    0  0.00000000000E+00  0.00000000000E+00  0.75992555119E+03  0.77013754834E+03  0.12500000000E+03 0.  0.
<mgrwt>
<rscale>  0 0.12500000E+03</rscale>
<asrwt>0</asrwt>
<pdfrwt beam="1">  1       21 0.11769707E+00 0.12500000E+03</pdfrwt>
<pdfrwt beam="2">  1       21 0.78553885E-03 0.12500000E+03</pdfrwt>
<totfact> 0.30372929E+06</totfact>
</mgrwt>
</event>
<event>
 3    1  0.1620993E-001  0.1250000E+03  0.7546771E-02  0.1235069E+00
         21   -1    0    0  502  501  0.00000000000E+00  0.00000000000E+00  0.16218542636E+03  0.16218542636E+03  0.00000000000E+00 0. -1.
         21   -1    0    0  501  502 -0.00000000000E+00 -0.00000000000E+00 -0.24085086359E+02  0.24085086359E+02  0.00000000000E+00 0. -1.
         25    1    1    2    0    0  0.00000000000E+00  0.00000000000E+00  0.13810034000E+03  0.18627051272E+03  0.12500000000E+03 0.  0.
<mgrwt>
<rscale>  0 0.12500000E+03</rscale>
<asrwt>0</asrwt>
<pdfrwt beam="1">  1       21 0.24951603E-01 0.12500000E+03</pdfrwt>
<pdfrwt beam="2">  1       21 0.37053980E-02 0.12500000E+03</pdfrwt>
<totfact> 0.66439381E+06</totfact>
</mgrwt>
</event>
<event>
 3    1  0.1620993E-001  0.1250000E+03  0.7546771E-02  0.1235069E+00
         21   -1    0    0  502  501  0.00000000000E+00  0.00000000000E+00  0.32220478907E+01  0.32220478907E+01  0.00000000000E+00 0. -1.
         21   -1    0    0  501  502 -0.00000000000E+00 -0.00000000000E+00 -0.12123500744E+04  0.12123500744E+04  0.00000000000E+00 0. -1.
         25    1    1    2    0    0  0.00000000000E+00  0.00000000000E+00 -0.12091280265E+04  0.12155721223E+04  0.12500000000E+03 0.  0.
<mgrwt>
<rscale>  0 0.12500000E+03</rscale>
<asrwt>0</asrwt>
<pdfrwt beam="1">  1       21 0.49569938E-03 0.12500000E+03</pdfrwt>
<pdfrwt beam="2">  1       21 0.18651551E+00 0.12500000E+03</pdfrwt>
<totfact> 0.18835771E+06</totfact>
</mgrwt>
</event>
<event>
 3    1  0.1620993E-001  0.1250000E+03  0.7546771E-02  0.1235069E+00
         21   -1    0    0  502  501  0.00000000000E+00  0.00000000000E+00  0.87190510552E+02  0.87190510552E+02  0.00000000000E+00 0. -1.
         21   -1    0    0  501  502 -0.00000000000E+00 -0.00000000000E+00 -0.44801320411E+02  0.44801320411E+02  0.00000000000E+00 0. -1.
         25    1    1    2    0    0  0.00000000000E+00  0.00000000000E+00  0.42389190141E+02  0.13199183096E+03  0.12500000000E+03 0.  0.
<mgrwt>
<rscale>  0 0.12500000E+03</rscale>
<asrwt>0</asrwt>
<pdfrwt beam="1">  1       21 0.13413925E-01 0.12500000E+03</pdfrwt>
<pdfrwt beam="2">  1       21 0.68925108E-02 0.12500000E+03</pdfrwt>
<totfact> 0.73097324E+06</totfact>
</mgrwt>
</event>
<event>
 3    1  0.1620993E-001  0.1250000E+03  0.7546771E-02  0.1235069E+00
         21   -1    0    0  502  501  0.00000000000E+00  0.00000000000E+00  0.30235527991E+02  0.30235527991E+02  0.00000000000E+00 0. -1.
         21   -1    0    0  501  502 -0.00000000000E+00 -0.00000000000E+00 -0.12919403958E+03  0.12919403958E+03  0.00000000000E+00 0. -1.
         25    1    1    2    0    0  0.00000000000E+00  0.00000000000E+00 -0.98958511591E+02  0.15942956757E+03  0.12500000000E+03 0.  0.
<mgrwt>
<rscale>  0 0.12500000E+03</rscale>
<asrwt>0</asrwt>
<pdfrwt beam="1">  1       21 0.46516197E-02 0.12500000E+03</pdfrwt>
<pdfrwt beam="2">  1       21 0.19876006E-01 0.12500000E+03</pdfrwt>
<totfact> 0.69589264E+06</totfact>
</mgrwt>
</event>
<event>
 3    1  0.1620993E-001  0.1250000E+03  0.7546771E-02  0.1235069E+00
         21   -1    0    0  502  501  0.00000000000E+00  0.00000000000E+00  0.33031627434E+02  0.33031627434E+02  0.00000000000E+00 0.  1.
         21   -1    0    0  501  502 -0.00000000000E+00 -0.00000000000E+00 -0.11825787294E+03  0.11825787294E+03  0.00000000000E+00 0.  1.
         25    1    1    2    0    0  0.00000000000E+00  0.00000000000E+00 -0.85226245505E+02  0.15128950037E+03  0.12500000000E+03 0.  0.
<mgrwt>
<rscale>  0 0.12500000E+03</rscale>
<asrwt>0</asrwt>
<pdfrwt beam="1">  1       21 0.50817889E-02 0.12500000E+03</pdfrwt>
<pdfrwt beam="2">  1       21 0.18193519E-01 0.12500000E+03</pdfrwt>
<totfact> 0.70597590E+06</totfact>
</mgrwt>
</event>
<event>
 3    1  0.1620993E-001  0.1250000E+03  0.7546771E-02  0.1235069E+00
         21   -1    0    0  502  501  0.00000000000E+00  0.00000000000E+00  0.69837673189E+01  0.69837673189E+01  0.00000000000E+00 0. -1.
         21   -1    0    0  501  502 -0.00000000000E+00 -0.00000000000E+00 -0.55933278153E+03  0.55933278153E+03  0.00000000000E+00 0. -1.
         25    1    1    2    0    0  0.00000000000E+00  0.00000000000E+00 -0.55234901421E+03  0.56631654884E+03  0.12500000000E+03 0.  0.
<mgrwt>
<rscale>  0 0.12500000E+03</rscale>
<asrwt>0</asrwt>
<pdfrwt beam="1">  1       21 0.10744254E-02 0.12500000E+03</pdfrwt>
<pdfrwt beam="2">  1       21 0.86051227E-01 0.12500000E+03</pdfrwt>
<totfact> 0.38661610E+06</totfact>
</mgrwt>
</event>
<event>
 3    1  0.1620993E-001  0.1250000E+03  0.7546771E-02  0.1235069E+00
         21   -1    0    0  502  501  0.00000000000E+00  0.00000000000E+00  0.34601993932E+01  0.34601993932E+01  0.00000000000E+00 0.  1.
         21   -1    0    0  501  502 -0.00000000000E+00 -0.00000000000E+00 -0.11289089316E+04  0.11289089316E+04  0.00000000000E+00 0.  1.
         25    1    1    2    0    0  0.00000000000E+00  0.00000000000E+00 -0.11254487322E+04  0.11323691310E+04  0.12500000000E+03 0.  0.
<mgrwt>
<rscale>  0 0.12500000E+03</rscale>
<asrwt>0</asrwt>
<pdfrwt beam="1">  1       21 0.53233738E-03 0.12500000E+03</pdfrwt>
<pdfrwt beam="2">  1       21 0.17367862E+00 0.12500000E+03</pdfrwt>
<totfact> 0.20545250E+06</totfact>
</mgrwt>
</event>
<event>
 3    1  0.1620993E-001  0.1250000E+03  0.7546771E-02  0.1235069E+00
         21   -1    0    0  502  501  0.00000000000E+00  0.00000000000E+00  0.63109003512E+02  0.63109003512E+02  0.00000000000E+00 0.  1.
         21   -1    0    0  501  502 -0.00000000000E+00 -0.00000000000E+00 -0.61896873387E+02  0.61896873387E+02  0.00000000000E+00 0.  1.
         25    1    1    2    0    0  0.00000000000E+00  0.00000000000E+00  0.12121301247E+01  0.12500587690E+03  0.12500000000E+03 0.  0.
<mgrwt>
<rscale>  0 0.12500000E+03</rscale>
<asrwt>0</asrwt>
<pdfrwt beam="1">  1       21 0.97090775E-02 0.12500000E+03</pdfrwt>
<pdfrwt beam="2">  1       21 0.95225958E-02 0.12500000E+03</pdfrwt>
<totfact> 0.74042788E+06</totfact>
</mgrwt>
</event>
<event>
 3    1  0.1620993E-001  0.1250000E+03  0.7546771E-02  0.1235069E+00
         21   -1    0    0  502  501  0.00000000000E+00  0.00000000000E+00  0.17542693106E+03  0.17542693106E+03  0.00000000000E+00 0.  1.
         21   -1    0    0  501  502 -0.00000000000E+00 -0.00000000000E+00 -0.22267105606E+02  0.22267105606E+02  0.00000000000E+00 0.  1.
         25    1    1    2    0    0  0.00000000000E+00  0.00000000000E+00  0.15315982546E+03  0.19769403667E+03  0.12500000000E+03 0.  0.
<mgrwt>
<rscale>  0 0.12500000E+03</rscale>
<asrwt>0</asrwt>
<pdfrwt beam="1">  1       21 0.26988758E-01 0.12500000E+03</pdfrwt>
<pdfrwt beam="2">  1       21 0.34257087E-02 0.12500000E+03</pdfrwt>
<totfact> 0.65177368E+06</totfact>
</mgrwt>
</event>
<event>
 3    1  0.1620993E-001  0.1250000E+03  0.7546771E-02  0.1235069E+00
         21   -1    0    0  502  501  0.00000000000E+00  0.00000000000E+00  0.18971544750E+03  0.18971544750E+03  0.00000000000E+00 0. -1.
         21   -1    0    0  501  502 -0.00000000000E+00 -0.00000000000E+00 -0.20590047101E+02  0.20590047101E+02  0.00000000000E+00 0. -1.
         25    1    1    2    0    0  0.00000000000E+00  0.00000000000E+00  0.16912540040E+03  0.21030549461E+03  0.12500000000E+03 0.  0.
<mgrwt>
<rscale>  0 0.12500000E+03</rscale>
<asrwt>0</asrwt>
<pdfrwt beam="1">  1       21 0.29186991E-01 0.12500000E+03</pdfrwt>
<pdfrwt beam="2">  1       21 0.31676997E-02 0.12500000E+03</pdfrwt>
<totfact> 0.63827409E+06</totfact>
</mgrwt>
</event>
<event>
 3    1  0.1620993E-001  0.1250000E+03  0.7546771E-02  0.1235069E+00
         21   -1    0    0  502  501  0.00000000000E+00  0.00000000000E+00  0.68919390438E+02  0.68919390438E+02  0.00000000000E+00 0. -1.
         21   -1    0    0  501  502 -0.00000000000E+00 -0.00000000000E+00 -0.56678533794E+02  0.56678533794E+02  0.00000000000E+00 0. -1.
         25    1    1    2    0    0  0.00000000000E+00  0.00000000000E+00  0.12240856645E+02  0.12559792423E+03  0.12500000000E+03 0.  0.
<mgrwt>
<rscale>  0 0.12500000E+03</rscale>
<asrwt>0</asrwt>
<pdfrwt beam="1">  1       21 0.10602983E-01 0.12500000E+03</pdfrwt>
<pdfrwt beam="2">  1       21 0.87197744E-02 0.12500000E+03</pdfrwt>
<totfact> 0.73961732E+06</totfact>
</mgrwt>
</event>
<event>
 3    1  0.1620993E-001  0.1250000E+03  0.7546771E-02  0.1235069E+00
         21   -1    0    0  502  501  0.00000000000E+00  0.00000000000E+00  0.15332102303E+02  0.15332102303E+02  0.00000000000E+00 0.  1.
         21   -1    0    0  501  502 -0.00000000000E+00 -0.00000000000E+00 -0.25477588936E+03  0.25477588936E+03  0.00000000000E+00 0.  1.
         25    1    1    2    0    0  0.00000000000E+00  0.00000000000E+00 -0.23944378706E+03  0.27010799167E+03  0.12500000000E+03 0.  0.
<mgrwt>
<rscale>  0 0.12500000E+03</rscale>
<asrwt>0</asrwt>
<pdfrwt beam="1">  1       21 0.23587848E-02 0.12500000E+03</pdfrwt>
<pdfrwt beam="2">  1       21 0.39196293E-01 0.12500000E+03</pdfrwt>
<totfact> 0.58035022E+06</totfact>
</mgrwt>
</event>
<event>
 3    1  0.1620993E-001  0.1250000E+03  0.7546771E-02  0.1235069E+00
         21   -1    0    0  502  501  0.00000000000E+00  0.00000000000E+00  0.47757641667E+01  0.47757641667E+01  0.00000000000E+00 0. -1.
         21   -1    0    0  501  502 -0.00000000000E+00 -0.00000000000E+00 -0.81793192956E+03  0.81793192956E+03  0.00000000000E+00 0. -1.
         25    1    1    2    0    0  0.00000000000E+00  0.00000000000E+00 -0.81315616539E+03  0.82270769373E+03  0.12500000000E+03 0.  0.
<mgrwt>
<rscale>  0 0.12500000E+03</rscale>
<asrwt>0</asrwt>
<pdfrwt beam="1">  1       21 0.73473315E-03 0.12500000E+03</pdfrwt>
<pdfrwt beam="2">  1       21 0.12583565E+00 0.12500000E+03</pdfrwt>
<totfact> 0.28624158E+06</totfact>
</mgrwt>
</event>
<event>
 3    1  0.1620993E-001  0.1250000E+03  0.7546771E-02  0.1235069E+00
         21   -1    0    0  502  501  0.00000000000E+00  0.00000000000E+00  0.35428602858E+02  0.35428602858E+02  0.00000000000E+00 0. -1.
         21   -1    0    0  501  502 -0.00000000000E+00 -0.00000000000E+00 -0.11025695864E+03  0.11025695864E+03  0.00000000000E+00 0. -1.
         25    1    1    2    0    0  0.00000000000E+00  0.00000000000E+00 -0.74828355784E+02  0.14568556150E+03  0.12500000000E+03 0.  0.
<mgrwt>
<rscale>  0 0.12500000E+03</rscale>
<asrwt>0</asrwt>
<pdfrwt beam="1">  1       21 0.54505542E-02 0.12500000E+03</pdfrwt>
<pdfrwt beam="2">  1       21 0.16962609E-01 0.12500000E+03</pdfrwt>
<totfact> 0.71305479E+06</totfact>
</mgrwt>
</event>
<event>
 3    1  0.1620993E-001  0.1250000E+03  0.7546771E-02  0.1235069E+00
         21   -1    0    0  502  501  0.00000000000E+00  0.00000000000E+00  0.14105217938E+03  0.14105217938E+03  0.00000000000E+00 0. -1.
         21   -1    0    0  501  502 -0.00000000000E+00 -0.00000000000E+00 -0.27693652216E+02  0.27693652216E+02  0.00000000000E+00 0. -1.
         25    1    1    2    0    0  0.00000000000E+00  0.00000000000E+00  0.11335852716E+03  0.16874583159E+03  0.12500000000E+03 0.  0.
<mgrwt>
<rscale>  0 0.12500000E+03</rscale>
<asrwt>0</asrwt>
<pdfrwt beam="1">  1       21 0.21700335E-01 0.12500000E+03</pdfrwt>
<pdfrwt beam="2">  1       21 0.42605620E-02 0.12500000E+03</pdfrwt>
<totfact> 0.68466326E+06</totfact>
</mgrwt>
</event>
<event>
 3    1  0.1620993E-001  0.1250000E+03  0.7546771E-02  0.1235069E+00
         21   -1    0    0  502  501  0.00000000000E+00  0.00000000000E+00  0.97891568006E+03  0.97891568006E+03  0.00000000000E+00 0. -1.
         21   -1    0    0  501  502 -0.00000000000E+00 -0.00000000000E+00 -0.39903845444E+01  0.39903845444E+01  0.00000000000E+00 0. -1.
         25    1    1    2    0    0  0.00000000000E+00  0.00000000000E+00  0.97492529552E+03  0.98290606461E+03  0.12500000000E+03 0.  0.
<mgrwt>
<rscale>  0 0.12500000E+03</rscale>
<asrwt>0</asrwt>
<pdfrwt beam="1">  1       21 0.15060222E+00 0.12500000E+03</pdfrwt>
<pdfrwt beam="2">  1       21 0.61390609E-03 0.12500000E+03</pdfrwt>
<totfact> 0.24050626E+06</totfact>
</mgrwt>
</event>
<event>
 3    1  0.1620993E-001  0.1250000E+03  0.7546771E-02  0.1235069E+00
         21   -1    0    0  502  501  0.00000000000E+00  0.00000000000E+00  0.78598454342E+02  0.78598454342E+02  0.00000000000E+00 0.  1.
         21   -1    0    0  501  502 -0.00000000000E+00 -0.00000000000E+00 -0.49698814470E+02  0.49698814470E+02  0.00000000000E+00 0.  1.
         25    1    1    2    0    0  0.00000000000E+00  0.00000000000E+00  0.28899639872E+02  0.12829726881E+03  0.12500000000E+03 0.  0.
<mgrwt>
<rscale>  0 0.12500000E+03</rscale>
<asrwt>0</asrwt>
<pdfrwt beam="1">  1       21 0.12092070E-01 0.12500000E+03</pdfrwt>
<pdfrwt beam="2">  1       21 0.76459714E-02 0.12500000E+03</pdfrwt>
<totfact> 0.73593440E+06</totfact>
</mgrwt>
</event>
<event>
 3    1  0.1620993E-001  0.1250000E+03  0.7546771E-02  0.1235069E+00
         21   -1    0    0  502  501  0.00000000000E+00  0.00000000000E+00  0.32662667161E+03  0.32662667161E+03  0.00000000000E+00 0.  1.
         21   -1    0    0  501  502 -0.00000000000E+00 -0.00000000000E+00 -0.11959372395E+02  0.11959372395E+02  0.00000000000E+00 0.  1.
         25    1    1    2    0    0  0.00000000000E+00  0.00000000000E+00  0.31466729921E+03  0.33858604400E+03  0.12500000000E+03 0.  0.
<mgrwt>
<rscale>  0 0.12500000E+03</rscale>
<asrwt>0</asrwt>
<pdfrwt beam="1">  1       21 0.50250250E-01 0.12500000E+03</pdfrwt>
<pdfrwt beam="2">  1       21 0.18399037E-02 0.12500000E+03</pdfrwt>
<totfact> 0.52392596E+06</totfact>
</mgrwt>
</event>
<event>
 3    1  0.1620993E-001  0.1250000E+03  0.7546771E-02  0.1235069E+00
         21   -1    0    0  502  501  0.00000000000E+00  0.00000000000E+00  0.38790590937E+03  0.38790590937E+03  0.00000000000E+00 0.  1.
         21   -1    0    0  501  502 -0.00000000000E+00 -0.00000000000E+00 -0.10070096654E+02  0.10070096654E+02  0.00000000000E+00 0.  1.
         25    1    1    2    0    0  0.00000000000E+00  0.00000000000E+00  0.37783581272E+03  0.39797600603E+03  0.12500000000E+03 0.  0.
<mgrwt>
<rscale>  0 0.12500000E+03</rscale>
<asrwt>0</asrwt>
<pdfrwt beam="1">  1       21 0.59677821E-01 0.12500000E+03</pdfrwt>
<pdfrwt beam="2">  1       21 0.15492459E-02 0.12500000E+03</pdfrwt>
<totfact> 0.48175895E+06</totfact>
</mgrwt>
</event>
<event>
 3    1  0.1620993E-001  0.1250000E+03  0.7546771E-02  0.1235069E+00
         21   -1    0    0  502  501  0.00000000000E+00  0.00000000000E+00  0.51575728072E+01  0.51575728072E+01  0.00000000000E+00 0. -1.
         21   -1    0    0  501  502 -0.00000000000E+00 -0.00000000000E+00 -0.75738145559E+03  0.75738145559E+03  0.00000000000E+00 0. -1.
         25    1    1    2    0    0  0.00000000000E+00  0.00000000000E+00 -0.75222388278E+03  0.76253902840E+03  0.12500000000E+03 0.  0.
<mgrwt>
<rscale>  0 0.12500000E+03</rscale>
<asrwt>0</asrwt>
<pdfrwt beam="1">  1       21 0.79347299E-03 0.12500000E+03</pdfrwt>
<pdfrwt beam="2">  1       21 0.11652019E+00 0.12500000E+03</pdfrwt>
<totfact> 0.30632685E+06</totfact>
</mgrwt>
</event>
<event>
 3    1  0.1620993E-001  0.1250000E+03  0.7546771E-02  0.1235069E+00
         21   -1    0    0  502  501  0.00000000000E+00  0.00000000000E+00  0.88004047758E+03  0.88004047758E+03  0.00000000000E+00 0. -1.
         21   -1    0    0  501  502 -0.00000000000E+00 -0.00000000000E+00 -0.44387162858E+01  0.44387162858E+01  0.00000000000E+00 0. -1.
         25    1    1    2    0    0  0.00000000000E+00  0.00000000000E+00  0.87560176130E+03  0.88447919387E+03  0.12500000000E+03 0.  0.
<mgrwt>
<rscale>  0 0.12500000E+03</rscale>
<asrwt>0</asrwt>
<pdfrwt beam="1">  1       21 0.13539070E+00 0.12500000E+03</pdfrwt>
<pdfrwt beam="2">  1       21 0.68288013E-03 0.12500000E+03</pdfrwt>
<totfact> 0.26746494E+06</totfact>
</mgrwt>
</event>
<event>
 3    1  0.1620993E-001  0.1250000E+03  0.7546771E-02  0.1235069E+00
         21   -1    0    0  502  501  0.00000000000E+00  0.00000000000E+00  0.51690889254E+01  0.51690889254E+01  0.00000000000E+00 0.  1.
         21   -1    0    0  501  502 -0.00000000000E+00 -0.00000000000E+00 -0.75569409937E+03  0.75569409937E+03  0.00000000000E+00 0.  1.
         25    1    1    2    0    0  0.00000000000E+00  0.00000000000E+00 -0.75052501044E+03  0.76086318829E+03  0.12500000000E+03 0.  0.
<mgrwt>
<rscale>  0 0.12500000E+03</rscale>
<asrwt>0</asrwt>
<pdfrwt beam="1">  1       21 0.79524463E-03 0.12500000E+03</pdfrwt>
<pdfrwt beam="2">  1       21 0.11626060E+00 0.12500000E+03</pdfrwt>
<totfact> 0.30690428E+06</totfact>
</mgrwt>
</event>
<event>
 3    1  0.1620993E-001  0.1250000E+03  0.7546771E-02  0.1235069E+00
         21   -1    0    0  502  501  0.00000000000E+00  0.00000000000E+00  0.25613734074E+03  0.25613734074E+03  0.00000000000E+00 0. -1.
         21   -1    0    0  501  502 -0.00000000000E+00 -0.00000000000E+00 -0.15250607306E+02  0.15250607306E+02  0.00000000000E+00 0. -1.
         25    1    1    2    0    0  0.00000000000E+00  0.00000000000E+00  0.24088673343E+03  0.27138794805E+03  0.12500000000E+03 0.  0.
<mgrwt>
<rscale>  0 0.12500000E+03</rscale>
<asrwt>0</asrwt>
<pdfrwt beam="1">  1       21 0.39405742E-01 0.12500000E+03</pdfrwt>
<pdfrwt beam="2">  1       21 0.23462475E-02 0.12500000E+03</pdfrwt>
<totfact> 0.57920964E+06</totfact>
</mgrwt>
</event>
<event>
 3    1  0.1620993E-001  0.1250000E+03  0.7546771E-02  0.1235069E+00
         21   -1    0    0  502  501  0.00000000000E+00  0.00000000000E+00  0.20825381335E+02  0.20825381335E+02  0.00000000000E+00 0.  1.
         21   -1    0    0  501  502 -0.00000000000E+00 -0.00000000000E+00 -0.18757159532E+03  0.18757159532E+03  0.00000000000E+00 0.  1.
         25    1    1    2    0    0  0.00000000000E+00  0.00000000000E+00 -0.16674621398E+03  0.20839697665E+03  0.12500000000E+03 0.  0.
<mgrwt>
<rscale>  0 0.12500000E+03</rscale>
<asrwt>0</asrwt>
<pdfrwt beam="1">  1       21 0.32039048E-02 0.12500000E+03</pdfrwt>
<pdfrwt beam="2">  1       21 0.28857169E-01 0.12500000E+03</pdfrwt>
<totfact> 0.64028587E+06</totfact>
</mgrwt>
</event>
<event>
 3    1  0.1620993E-001  0.1250000E+03  0.7546771E-02  0.1235069E+00
         21   -1    0    0  502  501  0.00000000000E+00  0.00000000000E+00  0.17351553107E+03  0.17351553107E+03  0.00000000000E+00 0. -1.
         21   -1    0    0  501  502 -0.00000000000E+00 -0.00000000000E+00 -0.22512393996E+02  0.22512393996E+02  0.00000000000E+00 0. -1.
         25    1    1    2    0    0  0.00000000000E+00  0.00000000000E+00  0.15100313708E+03  0.19602792507E+03  0.12500000000E+03 0.  0.
<mgrwt>
<rscale>  0 0.12500000E+03</rscale>
<asrwt>0</asrwt>
<pdfrwt beam="1">  1       21 0.26694696E-01 0.12500000E+03</pdfrwt>
<pdfrwt beam="2">  1       21 0.34634453E-02 0.12500000E+03</pdfrwt>
<totfact> 0.65358695E+06</totfact>
</mgrwt>
</event>
<event>
 3    1  0.1620993E-001  0.1250000E+03  0.7546771E-02  0.1235069E+00
         21   -1    0    0  502  501  0.00000000000E+00  0.00000000000E+00  0.10394735331E+03  0.10394735331E+03  0.00000000000E+00 0. -1.
         21   -1    0    0  501  502 -0.00000000000E+00 -0.00000000000E+00 -0.37579119385E+02  0.37579119385E+02  0.00000000000E+00 0. -1.
         25    1    1    2    0    0  0.00000000000E+00  0.00000000000E+00  0.66368233929E+02  0.14152647270E+03  0.12500000000E+03 0.  0.
<mgrwt>
<rscale>  0 0.12500000E+03</rscale>
<asrwt>0</asrwt>
<pdfrwt beam="1">  1       21 0.15991900E-01 0.12500000E+03</pdfrwt>
<pdfrwt beam="2">  1       21 0.57814030E-02 0.12500000E+03</pdfrwt>
<totfact> 0.71840652E+06</totfact>
</mgrwt>
</event>
<event>
 3    1  0.1620993E-001  0.1250000E+03  0.7546771E-02  0.1235069E+00
         21   -1    0    0  502  501  0.00000000000E+00  0.00000000000E+00  0.29122277497E+03  0.29122277497E+03  0.00000000000E+00 0. -1.
         21   -1    0    0  501  502 -0.00000000000E+00 -0.00000000000E+00 -0.13413270993E+02  0.13413270993E+02  0.00000000000E+00 0. -1.
         25    1    1    2    0    0  0.00000000000E+00  0.00000000000E+00  0.27780950397E+03  0.30463604596E+03  0.12500000000E+03 0.  0.
<mgrwt>
<rscale>  0 0.12500000E+03</rscale>
<asrwt>0</asrwt>
<pdfrwt beam="1">  1       21 0.44803499E-01 0.12500000E+03</pdfrwt>
<pdfrwt beam="2">  1       21 0.20635804E-02 0.12500000E+03</pdfrwt>
<totfact> 0.55073090E+06</totfact>
</mgrwt>
</event>
<event>
 3    1  0.1620993E-001  0.1250000E+03  0.7546771E-02  0.1235069E+00
         21   -1    0    0  502  501  0.00000000000E+00  0.00000000000E+00  0.24795868612E+02  0.24795868612E+02  0.00000000000E+00 0. -1.
         21   -1    0    0  501  502 -0.00000000000E+00 -0.00000000000E+00 -0.15753632434E+03  0.15753632434E+03  0.00000000000E+00 0. -1.
         25    1    1    2    0    0  0.00000000000E+00  0.00000000000E+00 -0.13274045573E+03  0.18233219295E+03  0.12500000000E+03 0.  0.
<mgrwt>
<rscale>  0 0.12500000E+03</rscale>
<asrwt>0</asrwt>
<pdfrwt beam="1">  1       21 0.38147490E-02 0.12500000E+03</pdfrwt>
<pdfrwt beam="2">  1       21 0.24236358E-01 0.12500000E+03</pdfrwt>
<totfact> 0.66884997E+06</totfact>
</mgrwt>
</event>
<event>
 3    1  0.1620993E-001  0.1250000E+03  0.7546771E-02  0.1235069E+00
         21   -1    0    0  502  501  0.00000000000E+00  0.00000000000E+00  0.11245888992E+02  0.11245888992E+02  0.00000000000E+00 0. -1.
         21   -1    0    0  501  502 -0.00000000000E+00 -0.00000000000E+00 -0.34734915157E+03  0.34734915157E+03  0.00000000000E+00 0. -1.
         25    1    1    2    0    0  0.00000000000E+00  0.00000000000E+00 -0.33610326258E+03  0.35859504056E+03  0.12500000000E+03 0.  0.
<mgrwt>
<rscale>  0 0.12500000E+03</rscale>
<asrwt>0</asrwt>
<pdfrwt beam="1">  1       21 0.17301368E-02 0.12500000E+03</pdfrwt>
<pdfrwt beam="2">  1       21 0.53438331E-01 0.12500000E+03</pdfrwt>
<totfact> 0.50909861E+06</totfact>
</mgrwt>
</event>
<event>
 3    1  0.1620993E-001  0.1250000E+03  0.7546771E-02  0.1235069E+00
         21   -1    0    0  502  501  0.00000000000E+00  0.00000000000E+00  0.15748805038E+03  0.15748805038E+03  0.00000000000E+00 0.  1.
         21   -1    0    0  501  502 -0.00000000000E+00 -0.00000000000E+00 -0.24803469155E+02  0.24803469155E+02  0.00000000000E+00 0.  1.
         25    1    1    2    0    0  0.00000000000E+00  0.00000000000E+00  0.13268458123E+03  0.18229151954E+03  0.12500000000E+03 0.  0.
<mgrwt>
<rscale>  0 0.12500000E+03</rscale>
<asrwt>0</asrwt>
<pdfrwt beam="1">  1       21 0.24228930E-01 0.12500000E+03</pdfrwt>
<pdfrwt beam="2">  1       21 0.38159184E-02 0.12500000E+03</pdfrwt>
<totfact> 0.66889629E+06</totfact>
</mgrwt>
</event>
<event>
 3    1  0.1620993E-001  0.1250000E+03  0.7546771E-02  0.1235069E+00
         21   -1    0    0  502  501  0.00000000000E+00  0.00000000000E+00  0.52350255094E+02  0.52350255094E+02  0.00000000000E+00 0. -1.
         21   -1    0    0  501  502 -0.00000000000E+00 -0.00000000000E+00 -0.74617592465E+02  0.74617592465E+02  0.00000000000E+00 0. -1.
         25    1    1    2    0    0  0.00000000000E+00  0.00000000000E+00 -0.22267337371E+02  0.12696784756E+03  0.12500000000E+03 0.  0.
<mgrwt>
<rscale>  0 0.12500000E+03</rscale>
<asrwt>0</asrwt>
<pdfrwt beam="1">  1       21 0.80538855E-02 0.12500000E+03</pdfrwt>
<pdfrwt beam="2">  1       21 0.11479630E-01 0.12500000E+03</pdfrwt>
<totfact> 0.73773514E+06</totfact>
</mgrwt>
</event>
<event>
 3    1  0.1620993E-001  0.1250000E+03  0.7546771E-02  0.1235069E+00
         21   -1    0    0  502  501  0.00000000000E+00  0.00000000000E+00  0.11336024187E+02  0.11336024187E+02  0.00000000000E+00 0. -1.
         21   -1    0    0  501  502 -0.00000000000E+00 -0.00000000000E+00 -0.34458730287E+03  0.34458730287E+03  0.00000000000E+00 0. -1.
         25    1    1    2    0    0  0.00000000000E+00  0.00000000000E+00 -0.33325127868E+03  0.35592332706E+03  0.12500000000E+03 0.  0.
<mgrwt>
<rscale>  0 0.12500000E+03</rscale>
<asrwt>0</asrwt>
<pdfrwt beam="1">  1       21 0.17440035E-02 0.12500000E+03</pdfrwt>
<pdfrwt beam="2">  1       21 0.53013437E-01 0.12500000E+03</pdfrwt>
<totfact> 0.51103929E+06</totfact>
</mgrwt>
</event>
<event>
 3    1  0.1620993E-001  0.1250000E+03  0.7546771E-02  0.1235069E+00
         21   -1    0    0  502  501  0.00000000000E+00  0.00000000000E+00  0.42324998267E+03  0.42324998267E+03  0.00000000000E+00 0.  1.
         21   -1    0    0  501  502 -0.00000000000E+00 -0.00000000000E+00 -0.92291793502E+01  0.92291793502E+01  0.00000000000E+00 0.  1.
         25    1    1    2    0    0  0.00000000000E+00  0.00000000000E+00  0.41402080332E+03  0.43247916202E+03  0.12500000000E+03 0.  0.
<mgrwt>
<rscale>  0 0.12500000E+03</rscale>
<asrwt>0</asrwt>
<pdfrwt beam="1">  1       21 0.65115367E-01 0.12500000E+03</pdfrwt>
<pdfrwt beam="2">  1       21 0.14198741E-02 0.12500000E+03</pdfrwt>
<totfact> 0.45959108E+06</totfact>
</mgrwt>
</event>
<event>
 3    1  0.1620993E-001  0.1250000E+03  0.7546771E-02  0.1235069E+00
         21   -1    0    0  502  501  0.00000000000E+00  0.00000000000E+00  0.32485864050E+01  0.32485864050E+01  0.00000000000E+00 0.  1.
         21   -1    0    0  501  502 -0.00000000000E+00 -0.00000000000E+00 -0.12024460836E+04  0.12024460836E+04  0.00000000000E+00 0.  1.
         25    1    1    2    0    0  0.00000000000E+00  0.00000000000E+00 -0.11991974972E+04  0.12056946700E+04  0.12500000000E+03 0.  0.
<mgrwt>
<rscale>  0 0.12500000E+03</rscale>
<asrwt>0</asrwt>
<pdfrwt beam="1">  1       21 0.49978217E-03 0.12500000E+03</pdfrwt>
<pdfrwt beam="2">  1       21 0.18499184E+00 0.12500000E+03</pdfrwt>
<totfact> 0.19030231E+06</totfact>
</mgrwt>
</event>
<event>
 3    1  0.1620993E-001  0.1250000E+03  0.7546771E-02  0.1235069E+00
         21   -1    0    0  502  501  0.00000000000E+00  0.00000000000E+00  0.55566666993E+01  0.55566666993E+01  0.00000000000E+00 0.  1.
         21   -1    0    0  501  502 -0.00000000000E+00 -0.00000000000E+00 -0.70298439899E+03  0.70298439899E+03  0.00000000000E+00 0.  1.
         25    1    1    2    0    0  0.00000000000E+00  0.00000000000E+00 -0.69742773229E+03  0.70854106569E+03  0.12500000000E+03 0.  0.
<mgrwt>
<rscale>  0 0.12500000E+03</rscale>
<asrwt>0</asrwt>
<pdfrwt beam="1">  1       21 0.85487174E-03 0.12500000E+03</pdfrwt>
<pdfrwt beam="2">  1       21 0.10815145E+00 0.12500000E+03</pdfrwt>
<totfact> 0.32583443E+06</totfact>
</mgrwt>
</event>
<event>
 3    1  0.1620993E-001  0.1250000E+03  0.7546771E-02  0.1235069E+00
         21   -1    0    0  502  501  0.00000000000E+00  0.00000000000E+00  0.61347940292E+03  0.61347940292E+03  0.00000000000E+00 0.  1.
         21   -1    0    0  501  502 -0.00000000000E+00 -0.00000000000E+00 -0.63673694364E+01  0.63673694364E+01  0.00000000000E+00 0.  1.
         25    1    1    2    0    0  0.00000000000E+00  0.00000000000E+00  0.60711203349E+03  0.61984677236E+03  0.12500000000E+03 0.  0.
<mgrwt>
<rscale>  0 0.12500000E+03</rscale>
<asrwt>0</asrwt>
<pdfrwt beam="1">  1       21 0.94381400E-01 0.12500000E+03</pdfrwt>
<pdfrwt beam="2">  1       21 0.97959579E-03 0.12500000E+03</pdfrwt>
<totfact> 0.36210207E+06</totfact>
</mgrwt>
</event>
<event>
 3    1  0.1620993E-001  0.1250000E+03  0.7546771E-02  0.1235069E+00
         21   -1    0    0  502  501  0.00000000000E+00  0.00000000000E+00  0.10784712203E+02  0.10784712203E+02  0.00000000000E+00 0. -1.
         21   -1    0    0  501  502 -0.00000000000E+00 -0.00000000000E+00 -0.36220252579E+03  0.36220252579E+03  0.00000000000E+00 0. -1.
         25    1    1    2    0    0  0.00000000000E+00  0.00000000000E+00 -0.35141781359E+03  0.37298723800E+03  0.12500000000E+03 0.  0.
<mgrwt>
<rscale>  0 0.12500000E+03</rscale>
<asrwt>0</asrwt>
<pdfrwt beam="1">  1       21 0.16591866E-02 0.12500000E+03</pdfrwt>
<pdfrwt beam="2">  1       21 0.55723462E-01 0.12500000E+03</pdfrwt>
<totfact> 0.49884289E+06</totfact>
</mgrwt>
</event>
<event>
 3    1  0.1620993E-001  0.1250000E+03  0.7546771E-02  0.1235069E+00
         21   -1    0    0  502  501  0.00000000000E+00  0.00000000000E+00  0.70190963939E+01  0.70190963939E+01  0.00000000000E+00 0.  1.
         21   -1    0    0  501  502 -0.00000000000E+00 -0.00000000000E+00 -0.55651750322E+03  0.55651750322E+03  0.00000000000E+00 0.  1.
         25    1    1    2    0    0  0.00000000000E+00  0.00000000000E+00 -0.54949840683E+03  0.56353659961E+03  0.12500000000E+03 0.  0.
<mgrwt>
<rscale>  0 0.12500000E+03</rscale>
<asrwt>0</asrwt>
<pdfrwt beam="1">  1       21 0.10798607E-02 0.12500000E+03</pdfrwt>
<pdfrwt beam="2">  1       21 0.85618103E-01 0.12500000E+03</pdfrwt>
<totfact> 0.38795326E+06</totfact>
</mgrwt>
</event>
<event>
 3    1  0.1620993E-001  0.1250000E+03  0.7546771E-02  0.1235069E+00
         21   -1    0    0  502  501  0.00000000000E+00  0.00000000000E+00  0.10473566797E+03  0.10473566797E+03  0.00000000000E+00 0.  1.
         21   -1    0    0  501  502 -0.00000000000E+00 -0.00000000000E+00 -0.37296272373E+02  0.37296272373E+02  0.00000000000E+00 0.  1.
         25    1    1    2    0    0  0.00000000000E+00  0.00000000000E+00  0.67439395601E+02  0.14203194035E+03  0.12500000000E+03 0.  0.
<mgrwt>
<rscale>  0 0.12500000E+03</rscale>
<asrwt>0</asrwt>
<pdfrwt beam="1">  1       21 0.16113180E-01 0.12500000E+03</pdfrwt>
<pdfrwt beam="2">  1       21 0.57378881E-02 0.12500000E+03</pdfrwt>
<totfact> 0.71775141E+06</totfact>
</mgrwt>
</event>
<event>
 3    1  0.1620993E-001  0.1250000E+03  0.7546771E-02  0.1235069E+00
         21   -1    0    0  502  501  0.00000000000E+00  0.00000000000E+00  0.96676971509E+01  0.96676971509E+01  0.00000000000E+00 0. -1.
         21   -1    0    0  501  502 -0.00000000000E+00 -0.00000000000E+00 -0.40405175494E+03  0.40405175494E+03  0.00000000000E+00 0. -1.
         25    1    1    2    0    0  0.00000000000E+00  0.00000000000E+00 -0.39438405779E+03  0.41371945209E+03  0.12500000000E+03 0.  0.
<mgrwt>
<rscale>  0 0.12500000E+03</rscale>
<asrwt>0</asrwt>
<pdfrwt beam="1">  1       21 0.14873384E-02 0.12500000E+03</pdfrwt>
<pdfrwt beam="2">  1       21 0.62161794E-01 0.12500000E+03</pdfrwt>
<totfact> 0.47144478E+06</totfact>
</mgrwt>
</event>
<event>
 3    1  0.1620993E-001  0.1250000E+03  0.7546771E-02  0.1235069E+00
         21   -1    0    0  502  501  0.00000000000E+00  0.00000000000E+00  0.71499689657E+02  0.71499689657E+02  0.00000000000E+00 0. -1.
         21   -1    0    0  501  502 -0.00000000000E+00 -0.00000000000E+00 -0.54633104266E+02  0.54633104266E+02  0.00000000000E+00 0. -1.
         25    1    1    2    0    0  0.00000000000E+00  0.00000000000E+00  0.16866585391E+02  0.12613279392E+03  0.12500000000E+03 0.  0.
<mgrwt>
<rscale>  0 0.12500000E+03</rscale>
<asrwt>0</asrwt>
<pdfrwt beam="1">  1       21 0.10999952E-01 0.12500000E+03</pdfrwt>
<pdfrwt beam="2">  1       21 0.84050929E-02 0.12500000E+03</pdfrwt>
<totfact> 0.73887750E+06</totfact>
</mgrwt>
</event>
<event>
 3    1  0.1620993E-001  0.1250000E+03  0.7546771E-02  0.1235069E+00
         21   -1    0    0  502  501  0.00000000000E+00  0.00000000000E+00  0.95664754674E+03  0.95664754674E+03  0.00000000000E+00 0. -1.
         21   -1    0    0  501  502 -0.00000000000E+00 -0.00000000000E+00 -0.40832697615E+01  0.40832697615E+01  0.00000000000E+00 0. -1.
         25    1    1    2    0    0  0.00000000000E+00  0.00000000000E+00  0.95256427698E+03  0.96073081650E+03  0.12500000000E+03 0.  0.
<mgrwt>
<rscale>  0 0.12500000E+03</rscale>
<asrwt>0</asrwt>
<pdfrwt beam="1">  1       21 0.14717637E+00 0.12500000E+03</pdfrwt>
<pdfrwt beam="2">  1       21 0.62819611E-03 0.12500000E+03</pdfrwt>
<totfact> 0.24626315E+06</totfact>
</mgrwt>
</event>
<event>
 3    1  0.1620993E-001  0.1250000E+03  0.7546771E-02  0.1235069E+00
         21   -1    0    0  502  501  0.00000000000E+00  0.00000000000E+00  0.20102665194E+03  0.20102665194E+03  0.00000000000E+00 0. -1.
         21   -1    0    0  501  502 -0.00000000000E+00 -0.00000000000E+00 -0.19431503048E+02  0.19431503048E+02  0.00000000000E+00 0. -1.
         25    1    1    2    0    0  0.00000000000E+00  0.00000000000E+00  0.18159514889E+03  0.22045815499E+03  0.12500000000E+03 0.  0.
<mgrwt>
<rscale>  0 0.12500000E+03</rscale>
<asrwt>0</asrwt>
<pdfrwt beam="1">  1       21 0.30927176E-01 0.12500000E+03</pdfrwt>
<pdfrwt beam="2">  1       21 0.29894621E-02 0.12500000E+03</pdfrwt>
<totfact> 0.62775737E+06</totfact>
</mgrwt>
</event>
<event>
 3    1  0.1620993E-001  0.1250000E+03  0.7546771E-02  0.1235069E+00
         21   -1    0    0  502  501  0.00000000000E+00  0.00000000000E+00  0.12897158732E+02  0.12897158732E+02  0.00000000000E+00 0. -1.
         21   -1    0    0  501  502 -0.00000000000E+00 -0.00000000000E+00 -0.30287678713E+03  0.30287678713E+03  0.00000000000E+00 0. -1.
         25    1    1    2    0    0  0.00000000000E+00  0.00000000000E+00 -0.28997962840E+03  0.31577394586E+03  0.12500000000E+03 0.  0.
<mgrwt>
<rscale>  0 0.12500000E+03</rscale>
<asrwt>0</asrwt>
<pdfrwt beam="1">  1       21 0.19841783E-02 0.12500000E+03</pdfrwt>
<pdfrwt beam="2">  1       21 0.46596427E-01 0.12500000E+03</pdfrwt>
<totfact> 0.54169945E+06</totfact>
</mgrwt>
</event>
<event>
 3    1  0.1620993E-001  0.1250000E+03  0.7546771E-02  0.1235069E+00
         21   -1    0    0  502  501  0.00000000000E+00  0.00000000000E+00  0.23934977503E+03  0.23934977503E+03  0.00000000000E+00 0.  1.
         21   -1    0    0  501  502 -0.00000000000E+00 -0.00000000000E+00 -0.16320257663E+02  0.16320257663E+02  0.00000000000E+00 0.  1.
         25    1    1    2    0    0  0.00000000000E+00  0.00000000000E+00  0.22302951737E+03  0.25567003269E+03  0.12500000000E+03 0.  0.
<mgrwt>
<rscale>  0 0.12500000E+03</rscale>
<asrwt>0</asrwt>
<pdfrwt beam="1">  1       21 0.36823040E-01 0.12500000E+03</pdfrwt>
<pdfrwt beam="2">  1       21 0.25108090E-02 0.12500000E+03</pdfrwt>
<totfact> 0.59348435E+06</totfact>
</mgrwt>
</event>
<event>
 3    1  0.1620993E-001  0.1250000E+03  0.7546771E-02  0.1235069E+00
         21   -1    0    0  502  501  0.00000000000E+00  0.00000000000E+00  0.11280674170E+02  0.11280674170E+02  0.00000000000E+00 0.  1.
         21   -1    0    0  501  502 -0.00000000000E+00 -0.00000000000E+00 -0.34627806292E+03  0.34627806292E+03  0.00000000000E+00 0.  1.
         25    1    1    2    0    0  0.00000000000E+00  0.00000000000E+00 -0.33499738875E+03  0.35755873709E+03  0.12500000000E+03 0.  0.
<mgrwt>
<rscale>  0 0.12500000E+03</rscale>
<asrwt>0</asrwt>
<pdfrwt beam="1">  1       21 0.17354884E-02 0.12500000E+03</pdfrwt>
<pdfrwt beam="2">  1       21 0.53273546E-01 0.12500000E+03</pdfrwt>
<totfact> 0.50984998E+06</totfact>
</mgrwt>
</event>
<event>
 3    1  0.1620993E-001  0.1250000E+03  0.7546771E-02  0.1235069E+00
         21   -1    0    0  502  501  0.00000000000E+00  0.00000000000E+00  0.50544161008E+02  0.50544161008E+02  0.00000000000E+00 0. -1.
         21   -1    0    0  501  502 -0.00000000000E+00 -0.00000000000E+00 -0.77283902276E+02  0.77283902276E+02  0.00000000000E+00 0. -1.
         25    1    1    2    0    0  0.00000000000E+00  0.00000000000E+00 -0.26739741268E+02  0.12782806328E+03  0.12500000000E+03 0.  0.
<mgrwt>
<rscale>  0 0.12500000E+03</rscale>
<asrwt>0</asrwt>
<pdfrwt beam="1">  1       21 0.77760248E-02 0.12500000E+03</pdfrwt>
<pdfrwt beam="2">  1       21 0.11889831E-01 0.12500000E+03</pdfrwt>
<totfact> 0.73656799E+06</totfact>
</mgrwt>
</event>
<event>
 3    1  0.1620993E-001  0.1250000E+03  0.7546771E-02  0.1235069E+00
         21   -1    0    0  502  501  0.00000000000E+00  0.00000000000E+00  0.80485522231E+02  0.80485522231E+02  0.00000000000E+00 0. -1.
         21   -1    0    0  501  502 -0.00000000000E+00 -0.00000000000E+00 -0.48533573390E+02  0.48533573390E+02  0.00000000000E+00 0. -1.
         25    1    1    2    0    0  0.00000000000E+00  0.00000000000E+00  0.31951948841E+02  0.12901909562E+03  0.12500000000E+03 0.  0.
<mgrwt>
<rscale>  0 0.12500000E+03</rscale>
<asrwt>0</asrwt>
<pdfrwt beam="1">  1       21 0.12382388E-01 0.12500000E+03</pdfrwt>
<pdfrwt beam="2">  1       21 0.74667036E-02 0.12500000E+03</pdfrwt>
<totfact> 0.73496316E+06</totfact>
</mgrwt>
</event>
<event>
 3    1  0.1620993E-001  0.1250000E+03  0.7546771E-02  0.1235069E+00
         21   -1    0    0  502  501  0.00000000000E+00  0.00000000000E+00  0.17117849939E+03  0.17117849939E+03  0.00000000000E+00 0. -1.
         21   -1    0    0  501  502 -0.00000000000E+00 -0.00000000000E+00 -0.22819746721E+02  0.22819746721E+02  0.00000000000E+00 0. -1.
         25    1    1    2    0    0  0.00000000000E+00  0.00000000000E+00  0.14835875267E+03  0.19399824611E+03  0.12500000000E+03 0.  0.
<mgrwt>
<rscale>  0 0.12500000E+03</rscale>
<asrwt>0</asrwt>
<pdfrwt beam="1">  1       21 0.26335153E-01 0.12500000E+03</pdfrwt>
<pdfrwt beam="2">  1       21 0.35107304E-02 0.12500000E+03</pdfrwt>
<totfact> 0.65580829E+06</totfact>
</mgrwt>
</event>
<event>
 3    1  0.1620993E-001  0.1250000E+03  0.7546771E-02  0.1235069E+00
         21   -1    0    0  502  501  0.00000000000E+00  0.00000000000E+00  0.55771059189E+02  0.55771059189E+02  0.00000000000E+00 0. -1.
         21   -1    0    0  501  502 -0.00000000000E+00 -0.00000000000E+00 -0.70040807129E+02  0.70040807129E+02  0.00000000000E+00 0. -1.
         25    1    1    2    0    0  0.00000000000E+00  0.00000000000E+00 -0.14269747940E+02  0.12581186632E+03  0.12500000000E+03 0.  0.
<mgrwt>
<rscale>  0 0.12500000E+03</rscale>
<asrwt>0</asrwt>
<pdfrwt beam="1">  1       21 0.85801630E-02 0.12500000E+03</pdfrwt>
<pdfrwt beam="2">  1       21 0.10775509E-01 0.12500000E+03</pdfrwt>
<totfact> 0.73932029E+06</totfact>
</mgrwt>
</event>
<event>
 3    1  0.1620993E-001  0.1250000E+03  0.7546771E-02  0.1235069E+00
         21   -1    0    0  502  501  0.00000000000E+00  0.00000000000E+00  0.15406205199E+04  0.15406205199E+04  0.00000000000E+00 0. -1.
         21   -1    0    0  501  502 -0.00000000000E+00 -0.00000000000E+00 -0.25355043306E+01  0.25355043306E+01  0.00000000000E+00 0. -1.
         25    1    1    2    0    0  0.00000000000E+00  0.00000000000E+00  0.15380850156E+04  0.15431560242E+04  0.12500000000E+03 0.  0.
<mgrwt>
<rscale>  0 0.12500000E+03</rscale>
<asrwt>0</asrwt>
<pdfrwt beam="1">  1       21 0.23701779E+00 0.12500000E+03</pdfrwt>
<pdfrwt beam="2">  1       21 0.39007882E-03 0.12500000E+03</pdfrwt>
<totfact> 0.13364907E+06</totfact>
</mgrwt>
</event>
<event>
 3    1  0.1620993E-001  0.1250000E+03  0.7546771E-02  0.1235069E+00
         21   -1    0    0  502  501  0.00000000000E+00  0.00000000000E+00  0.26521413215E+04  0.26521413215E+04  0.00000000000E+00 0.  1.
         21   -1    0    0  501  502 -0.00000000000E+00 -0.00000000000E+00 -0.14728664602E+01  0.14728664602E+01  0.00000000000E+00 0.  1.
         25    1    1    2    0    0  0.00000000000E+00  0.00000000000E+00  0.26506684550E+04  0.26536141879E+04  0.12500000000E+03 0.  0.
<mgrwt>
<rscale>  0 0.12500000E+03</rscale>
<asrwt>0</asrwt>
<pdfrwt beam="1">  1       21 0.40801792E+00 0.12500000E+03</pdfrwt>
<pdfrwt beam="2">  1       21 0.22659696E-03 0.12500000E+03</pdfrwt>
<totfact> 0.31636252E+05</totfact>
</mgrwt>
</event>
<event>
 3    1  0.1620993E-001  0.1250000E+03  0.7546771E-02  0.1235069E+00
         21   -1    0    0  502  501  0.00000000000E+00  0.00000000000E+00  0.88891372874E+01  0.88891372874E+01  0.00000000000E+00 0. -1.
         21   -1    0    0  501  502 -0.00000000000E+00 -0.00000000000E+00 -0.43944084490E+03  0.43944084490E+03  0.00000000000E+00 0. -1.
         25    1    1    2    0    0  0.00000000000E+00  0.00000000000E+00 -0.43055170761E+03  0.44832998218E+03  0.12500000000E+03 0.  0.
<mgrwt>
<rscale>  0 0.12500000E+03</rscale>
<asrwt>0</asrwt>
<pdfrwt beam="1">  1       21 0.13675597E-02 0.12500000E+03</pdfrwt>
<pdfrwt beam="2">  1       21 0.67606277E-01 0.12500000E+03</pdfrwt>
<totfact> 0.44992370E+06</totfact>
</mgrwt>
</event>
<event>
 3    1  0.1620993E-001  0.1250000E+03  0.7546771E-02  0.1235069E+00
         21   -1    0    0  502  501  0.00000000000E+00  0.00000000000E+00  0.54106679963E+03  0.54106679963E+03  0.00000000000E+00 0.  1.
         21   -1    0    0  501  502 -0.00000000000E+00 -0.00000000000E+00 -0.72195337113E+01  0.72195337113E+01  0.00000000000E+00 0.  1.
         25    1    1    2    0    0  0.00000000000E+00  0.00000000000E+00  0.53384726592E+03  0.54828633334E+03  0.12500000000E+03 0.  0.
<mgrwt>
<rscale>  0 0.12500000E+03</rscale>
<asrwt>0</asrwt>
<pdfrwt beam="1">  1       21 0.83241014E-01 0.12500000E+03</pdfrwt>
<pdfrwt beam="2">  1       21 0.11106979E-02 0.12500000E+03</pdfrwt>
<totfact> 0.39540892E+06</totfact>
</mgrwt>
</event>
<event>
 3    1  0.1620993E-001  0.1250000E+03  0.7546771E-02  0.1235069E+00
         21   -1    0    0  502  501  0.00000000000E+00  0.00000000000E+00  0.14044311451E+02  0.14044311451E+02  0.00000000000E+00 0. -1.
         21   -1    0    0  501  502 -0.00000000000E+00 -0.00000000000E+00 -0.27813752305E+03  0.27813752305E+03  0.00000000000E+00 0. -1.
         25    1    1    2    0    0  0.00000000000E+00  0.00000000000E+00 -0.26409321160E+03  0.29218183451E+03  0.12500000000E+03 0.  0.
<mgrwt>
<rscale>  0 0.12500000E+03</rscale>
<asrwt>0</asrwt>
<pdfrwt beam="1">  1       21 0.21606634E-02 0.12500000E+03</pdfrwt>
<pdfrwt beam="2">  1       21 0.42790387E-01 0.12500000E+03</pdfrwt>
<totfact> 0.56112217E+06</totfact>
</mgrwt>
</event>
<event>
 3    1  0.1620993E-001  0.1250000E+03  0.7546771E-02  0.1235069E+00
         21   -1    0    0  502  501  0.00000000000E+00  0.00000000000E+00  0.21515857561E+04  0.21515857561E+04  0.00000000000E+00 0. -1.
         21   -1    0    0  501  502 -0.00000000000E+00 -0.00000000000E+00 -0.18155214074E+01  0.18155214074E+01  0.00000000000E+00 0. -1.
         25    1    1    2    0    0  0.00000000000E+00  0.00000000000E+00  0.21497702347E+04  0.21534012775E+04  0.12500000000E+03 0.  0.
<mgrwt>
<rscale>  0 0.12500000E+03</rscale>
<asrwt>0</asrwt>
<pdfrwt beam="1">  1       21 0.33101115E+00 0.12500000E+03</pdfrwt>
<pdfrwt beam="2">  1       21 0.27931271E-03 0.12500000E+03</pdfrwt>
<totfact> 0.65468129E+05</totfact>
</mgrwt>
</event>
<event>
 3    1  0.1620993E-001  0.1250000E+03  0.7546771E-02  0.1235069E+00
         21   -1    0    0  502  501  0.00000000000E+00  0.00000000000E+00  0.10887830418E+03  0.10887830418E+03  0.00000000000E+00 0. -1.
         21   -1    0    0  501  502 -0.00000000000E+00 -0.00000000000E+00 -0.35877211990E+02  0.35877211990E+02  0.00000000000E+00 0. -1.
         25    1    1    2    0    0  0.00000000000E+00  0.00000000000E+00  0.73001092186E+02  0.14475551617E+03  0.12500000000E+03 0.  0.
<mgrwt>
<rscale>  0 0.12500000E+03</rscale>
<asrwt>0</asrwt>
<pdfrwt beam="1">  1       21 0.16750508E-01 0.12500000E+03</pdfrwt>
<pdfrwt beam="2">  1       21 0.55195711E-02 0.12500000E+03</pdfrwt>
<totfact> 0.71424401E+06</totfact>
</mgrwt>
</event>
<event>
 3    1  0.1620993E-001  0.1250000E+03  0.7546771E-02  0.1235069E+00
         21   -1    0    0  502  501  0.00000000000E+00  0.00000000000E+00  0.11630969691E+02  0.11630969691E+02  0.00000000000E+00 0. -1.
         21   -1    0    0  501  502 -0.00000000000E+00 -0.00000000000E+00 -0.33584903958E+03  0.33584903958E+03  0.00000000000E+00 0. -1.
         25    1    1    2    0    0  0.00000000000E+00  0.00000000000E+00 -0.32421806988E+03  0.34748000927E+03  0.12500000000E+03 0.  0.
<mgrwt>
<rscale>  0 0.12500000E+03</rscale>
<asrwt>0</asrwt>
<pdfrwt beam="1">  1       21 0.17893799E-02 0.12500000E+03</pdfrwt>
<pdfrwt beam="2">  1       21 0.51669086E-01 0.12500000E+03</pdfrwt>
<totfact> 0.51725078E+06</totfact>
</mgrwt>
</event>
<event>
 3    1  0.1620993E-001  0.1250000E+03  0.7546771E-02  0.1235069E+00
         21   -1    0    0  502  501  0.00000000000E+00  0.00000000000E+00  0.14095255875E+03  0.14095255875E+03  0.00000000000E+00 0. -1.
         21   -1    0    0  501  502 -0.00000000000E+00 -0.00000000000E+00 -0.27713225178E+02  0.27713225178E+02  0.00000000000E+00 0. -1.
         25    1    1    2    0    0  0.00000000000E+00  0.00000000000E+00  0.11323933357E+03  0.16866578393E+03  0.12500000000E+03 0.  0.
<mgrwt>
<rscale>  0 0.12500000E+03</rscale>
<asrwt>0</asrwt>
<pdfrwt beam="1">  1       21 0.21685009E-01 0.12500000E+03</pdfrwt>
<pdfrwt beam="2">  1       21 0.42635732E-02 0.12500000E+03</pdfrwt>
<totfact> 0.68475828E+06</totfact>
</mgrwt>
</event>
<event>
 3    1  0.1620993E-001  0.1250000E+03  0.7546771E-02  0.1235069E+00
         21   -1    0    0  502  501  0.00000000000E+00  0.00000000000E+00  0.18198968116E+02  0.18198968116E+02  0.00000000000E+00 0. -1.
         21   -1    0    0  501  502 -0.00000000000E+00 -0.00000000000E+00 -0.21464129037E+03  0.21464129037E+03  0.00000000000E+00 0. -1.
         25    1    1    2    0    0  0.00000000000E+00  0.00000000000E+00 -0.19644232226E+03  0.23284025849E+03  0.12500000000E+03 0.  0.
<mgrwt>
<rscale>  0 0.12500000E+03</rscale>
<asrwt>0</asrwt>
<pdfrwt beam="1">  1       21 0.27998412E-02 0.12500000E+03</pdfrwt>
<pdfrwt beam="2">  1       21 0.33021737E-01 0.12500000E+03</pdfrwt>
<totfact> 0.61532454E+06</totfact>
</mgrwt>
</event>
<event>
 3    1  0.1620993E-001  0.1250000E+03  0.7546771E-02  0.1235069E+00
         21   -1    0    0  502  501  0.00000000000E+00  0.00000000000E+00  0.23750203745E+03  0.23750203745E+03  0.00000000000E+00 0.  1.
         21   -1    0    0  501  502 -0.00000000000E+00 -0.00000000000E+00 -0.16447227324E+02  0.16447227324E+02  0.00000000000E+00 0.  1.
         25    1    1    2    0    0  0.00000000000E+00  0.00000000000E+00  0.22105481013E+03  0.25394926478E+03  0.12500000000E+03 0.  0.
<mgrwt>
<rscale>  0 0.12500000E+03</rscale>
<asrwt>0</asrwt>
<pdfrwt beam="1">  1       21 0.36538773E-01 0.12500000E+03</pdfrwt>
<pdfrwt beam="2">  1       21 0.25303428E-02 0.12500000E+03</pdfrwt>
<totfact> 0.59508353E+06</totfact>
</mgrwt>
</event>
<event>
 3    1  0.1620993E-001  0.1250000E+03  0.7546771E-02  0.1235069E+00
         21   -1    0    0  502  501  0.00000000000E+00  0.00000000000E+00  0.26437545377E+02  0.26437545377E+02  0.00000000000E+00 0. -1.
         21   -1    0    0  501  502 -0.00000000000E+00 -0.00000000000E+00 -0.14775388351E+03  0.14775388351E+03  0.00000000000E+00 0. -1.
         25    1    1    2    0    0  0.00000000000E+00  0.00000000000E+00 -0.12131633814E+03  0.17419142889E+03  0.12500000000E+03 0.  0.
<mgrwt>
<rscale>  0 0.12500000E+03</rscale>
<asrwt>0</asrwt>
<pdfrwt beam="1">  1       21 0.40673147E-02 0.12500000E+03</pdfrwt>
<pdfrwt beam="2">  1       21 0.22731366E-01 0.12500000E+03</pdfrwt>
<totfact> 0.67824206E+06</totfact>
</mgrwt>
</event>
<event>
 3    1  0.1620993E-001  0.1250000E+03  0.7546771E-02  0.1235069E+00
         21   -1    0    0  502  501  0.00000000000E+00  0.00000000000E+00  0.85528785277E+03  0.85528785277E+03  0.00000000000E+00 0. -1.
         21   -1    0    0  501  502 -0.00000000000E+00 -0.00000000000E+00 -0.45671758196E+01  0.45671758196E+01  0.00000000000E+00 0. -1.
         25    1    1    2    0    0  0.00000000000E+00  0.00000000000E+00  0.85072067695E+03  0.85985502859E+03  0.12500000000E+03 0.  0.
<mgrwt>
<rscale>  0 0.12500000E+03</rscale>
<asrwt>0</asrwt>
<pdfrwt beam="1">  1       21 0.13158262E+00 0.12500000E+03</pdfrwt>
<pdfrwt beam="2">  1       21 0.70264311E-03 0.12500000E+03</pdfrwt>
<totfact> 0.27473033E+06</totfact>
</mgrwt>
</event>
<event>
 3    1  0.1620993E-001  0.1250000E+03  0.7546771E-02  0.1235069E+00
         21   -1    0    0  502  501  0.00000000000E+00  0.00000000000E+00  0.42743700337E+02  0.42743700337E+02  0.00000000000E+00 0.  1.
         21   -1    0    0  501  502 -0.00000000000E+00 -0.00000000000E+00 -0.91387735953E+02  0.91387735953E+02  0.00000000000E+00 0.  1.
         25    1    1    2    0    0  0.00000000000E+00  0.00000000000E+00 -0.48644035616E+02  0.13413143629E+03  0.12500000000E+03 0.  0.
<mgrwt>
<rscale>  0 0.12500000E+03</rscale>
<asrwt>0</asrwt>
<pdfrwt beam="1">  1       21 0.65759539E-02 0.12500000E+03</pdfrwt>
<pdfrwt beam="2">  1       21 0.14059652E-01 0.12500000E+03</pdfrwt>
<totfact> 0.72811682E+06</totfact>
</mgrwt>
</event>
<event>
 3    1  0.1620993E-001  0.1250000E+03  0.7546771E-02  0.1235069E+00
         21   -1    0    0  502  501  0.00000000000E+00  0.00000000000E+00  0.31276420741E+03  0.31276420741E+03  0.00000000000E+00 0. -1.
         21   -1    0    0  501  502 -0.00000000000E+00 -0.00000000000E+00 -0.12489440631E+02  0.12489440631E+02  0.00000000000E+00 0. -1.
         25    1    1    2    0    0  0.00000000000E+00  0.00000000000E+00  0.30027476678E+03  0.32525364804E+03  0.12500000000E+03 0.  0.
<mgrwt>
<rscale>  0 0.12500000E+03</rscale>
<asrwt>0</asrwt>
<pdfrwt beam="1">  1       21 0.48117565E-01 0.12500000E+03</pdfrwt>
<pdfrwt beam="2">  1       21 0.19214526E-02 0.12500000E+03</pdfrwt>
<totfact> 0.53419629E+06</totfact>
</mgrwt>
</event>
<event>
 3    1  0.1620993E-001  0.1250000E+03  0.7546771E-02  0.1235069E+00
         21   -1    0    0  502  501  0.00000000000E+00  0.00000000000E+00  0.13170517969E+03  0.13170517969E+03  0.00000000000E+00 0.  1.
         21   -1    0    0  501  502 -0.00000000000E+00 -0.00000000000E+00 -0.29659046129E+02  0.29659046129E+02  0.00000000000E+00 0.  1.
         25    1    1    2    0    0  0.00000000000E+00  0.00000000000E+00  0.10204613357E+03  0.16136422582E+03  0.12500000000E+03 0.  0.
<mgrwt>
<rscale>  0 0.12500000E+03</rscale>
<asrwt>0</asrwt>
<pdfrwt beam="1">  1       21 0.20262335E-01 0.12500000E+03</pdfrwt>
<pdfrwt beam="2">  1       21 0.45629302E-02 0.12500000E+03</pdfrwt>
<totfact> 0.69353185E+06</totfact>
</mgrwt>
</event>
<event>
 3    1  0.1620993E-001  0.1250000E+03  0.7546771E-02  0.1235069E+00
         21   -1    0    0  502  501  0.00000000000E+00  0.00000000000E+00  0.54671829425E+01  0.54671829425E+01  0.00000000000E+00 0. -1.
         21   -1    0    0  501  502 -0.00000000000E+00 -0.00000000000E+00 -0.71449044985E+03  0.71449044985E+03  0.00000000000E+00 0. -1.
         25    1    1    2    0    0  0.00000000000E+00  0.00000000000E+00 -0.70902326690E+03  0.71995763279E+03  0.12500000000E+03 0.  0.
<mgrwt>
<rscale>  0 0.12500000E+03</rscale>
<asrwt>0</asrwt>
<pdfrwt beam="1">  1       21 0.84110476E-03 0.12500000E+03</pdfrwt>
<pdfrwt beam="2">  1       21 0.10992165E+00 0.12500000E+03</pdfrwt>
<totfact> 0.32154760E+06</totfact>
</mgrwt>
</event>
<event>
 3    1  0.1620993E-001  0.1250000E+03  0.7546771E-02  0.1235069E+00
         21   -1    0    0  502  501  0.00000000000E+00  0.00000000000E+00  0.79191171101E+02  0.79191171101E+02  0.00000000000E+00 0. -1.
         21   -1    0    0  501  502 -0.00000000000E+00 -0.00000000000E+00 -0.49326837142E+02  0.49326837142E+02  0.00000000000E+00 0. -1.
         25    1    1    2    0    0  0.00000000000E+00  0.00000000000E+00  0.29864333959E+02  0.12851800824E+03  0.12500000000E+03 0.  0.
<mgrwt>
<rscale>  0 0.12500000E+03</rscale>
<asrwt>0</asrwt>
<pdfrwt beam="1">  1       21 0.12183257E-01 0.12500000E+03</pdfrwt>
<pdfrwt beam="2">  1       21 0.75887442E-02 0.12500000E+03</pdfrwt>
<totfact> 0.73563697E+06</totfact>
</mgrwt>
</event>
<event>
 3    1  0.1620993E-001  0.1250000E+03  0.7546771E-02  0.1235069E+00
         21   -1    0    0  502  501  0.00000000000E+00  0.00000000000E+00  0.16807238450E+02  0.16807238450E+02  0.00000000000E+00 0.  1.
         21   -1    0    0  501  502 -0.00000000000E+00 -0.00000000000E+00 -0.23241474270E+03  0.23241474270E+03  0.00000000000E+00 0.  1.
         25    1    1    2    0    0  0.00000000000E+00  0.00000000000E+00 -0.21560750425E+03  0.24922198115E+03  0.12500000000E+03 0.  0.
<mgrwt>
<rscale>  0 0.12500000E+03</rscale>
<asrwt>0</asrwt>
<pdfrwt beam="1">  1       21 0.25857290E-02 0.12500000E+03</pdfrwt>
<pdfrwt beam="2">  1       21 0.35756115E-01 0.12500000E+03</pdfrwt>
<totfact> 0.59951515E+06</totfact>
</mgrwt>
</event>
<event>
 3    1  0.1620993E-001  0.1250000E+03  0.7546771E-02  0.1235069E+00
         21   -1    0    0  502  501  0.00000000000E+00  0.00000000000E+00  0.29137616517E+02  0.29137616517E+02  0.00000000000E+00 0.  1.
         21   -1    0    0  501  502 -0.00000000000E+00 -0.00000000000E+00 -0.13406209797E+03  0.13406209797E+03  0.00000000000E+00 0.  1.
         25    1    1    2    0    0  0.00000000000E+00  0.00000000000E+00 -0.10492448145E+03  0.16319971448E+03  0.12500000000E+03 0.  0.
<mgrwt>
<rscale>  0 0.12500000E+03</rscale>
<asrwt>0</asrwt>
<pdfrwt beam="1">  1       21 0.44827102E-02 0.12500000E+03</pdfrwt>
<pdfrwt beam="2">  1       21 0.20624938E-01 0.12500000E+03</pdfrwt>
<totfact> 0.69130624E+06</totfact>
</mgrwt>
</event>
<event>
 3    1  0.1620993E-001  0.1250000E+03  0.7546771E-02  0.1235069E+00
         21   -1    0    0  502  501  0.00000000000E+00  0.00000000000E+00  0.92556318282E+03  0.92556318282E+03  0.00000000000E+00 0.  1.
         21   -1    0    0  501  502 -0.00000000000E+00 -0.00000000000E+00 -0.42204033960E+01  0.42204033960E+01  0.00000000000E+00 0.  1.
         25    1    1    2    0    0  0.00000000000E+00  0.00000000000E+00  0.92134277942E+03  0.92978358621E+03  0.12500000000E+03 0.  0.
<mgrwt>
<rscale>  0 0.12500000E+03</rscale>
<asrwt>0</asrwt>
<pdfrwt beam="1">  1       21 0.14239417E+00 0.12500000E+03</pdfrwt>
<pdfrwt beam="2">  1       21 0.64929357E-03 0.12500000E+03</pdfrwt>
<totfact> 0.25460625E+06</totfact>
</mgrwt>
</event>
<event>
 3    1  0.1620993E-001  0.1250000E+03  0.7546771E-02  0.1235069E+00
         21   -1    0    0  502  501  0.00000000000E+00  0.00000000000E+00  0.11331951808E+02  0.11331951808E+02  0.00000000000E+00 0.  1.
         21   -1    0    0  501  502 -0.00000000000E+00 -0.00000000000E+00 -0.34471113769E+03  0.34471113769E+03  0.00000000000E+00 0.  1.
         25    1    1    2    0    0  0.00000000000E+00  0.00000000000E+00 -0.33337918588E+03  0.35604308950E+03  0.12500000000E+03 0.  0.
<mgrwt>
<rscale>  0 0.12500000E+03</rscale>
<asrwt>0</asrwt>
<pdfrwt beam="1">  1       21 0.17433771E-02 0.12500000E+03</pdfrwt>
<pdfrwt beam="2">  1       21 0.53032484E-01 0.12500000E+03</pdfrwt>
<totfact> 0.51095206E+06</totfact>
</mgrwt>
</event>
<event>
 3    1  0.1620993E-001  0.1250000E+03  0.7546771E-02  0.1235069E+00
         21   -1    0    0  502  501  0.00000000000E+00  0.00000000000E+00  0.26469171587E+03  0.26469171587E+03  0.00000000000E+00 0.  1.
         21   -1    0    0  501  502 -0.00000000000E+00 -0.00000000000E+00 -0.14757734246E+02  0.14757734246E+02  0.00000000000E+00 0.  1.
         25    1    1    2    0    0  0.00000000000E+00  0.00000000000E+00  0.24993398163E+03  0.27944945012E+03  0.12500000000E+03 0.  0.
<mgrwt>
<rscale>  0 0.12500000E+03</rscale>
<asrwt>0</asrwt>
<pdfrwt beam="1">  1       21 0.40721799E-01 0.12500000E+03</pdfrwt>
<pdfrwt beam="2">  1       21 0.22704208E-02 0.12500000E+03</pdfrwt>
<totfact> 0.57208450E+06</totfact>
</mgrwt>
</event>
<event>
 3    1  0.1620993E-001  0.1250000E+03  0.7546771E-02  0.1235069E+00
         21   -1    0    0  502  501  0.00000000000E+00  0.00000000000E+00  0.28200200444E+03  0.28200200444E+03  0.00000000000E+00 0.  1.
         21   -1    0    0  501  502 -0.00000000000E+00 -0.00000000000E+00 -0.13851851896E+02  0.13851851896E+02  0.00000000000E+00 0.  1.
         25    1    1    2    0    0  0.00000000000E+00  0.00000000000E+00  0.26815015254E+03  0.29585385634E+03  0.12500000000E+03 0.  0.
<mgrwt>
<rscale>  0 0.12500000E+03</rscale>
<asrwt>0</asrwt>
<pdfrwt beam="1">  1       21 0.43384920E-01 0.12500000E+03</pdfrwt>
<pdfrwt beam="2">  1       21 0.21310543E-02 0.12500000E+03</pdfrwt>
<totfact> 0.55802506E+06</totfact>
</mgrwt>
</event>
<event>
 3    1  0.1620993E-001  0.1250000E+03  0.7546771E-02  0.1235069E+00
         21   -1    0    0  502  501  0.00000000000E+00  0.00000000000E+00  0.10707622417E+03  0.10707622417E+03  0.00000000000E+00 0.  1.
         21   -1    0    0  501  502 -0.00000000000E+00 -0.00000000000E+00 -0.36481021162E+02  0.36481021162E+02  0.00000000000E+00 0.  1.
         25    1    1    2    0    0  0.00000000000E+00  0.00000000000E+00  0.70595203012E+02  0.14355724534E+03  0.12500000000E+03 0.  0.
<mgrwt>
<rscale>  0 0.12500000E+03</rscale>
<asrwt>0</asrwt>
<pdfrwt beam="1">  1       21 0.16473265E-01 0.12500000E+03</pdfrwt>
<pdfrwt beam="2">  1       21 0.56124648E-02 0.12500000E+03</pdfrwt>
<totfact> 0.71578251E+06</totfact>
</mgrwt>
</event>
<event>
 3    1  0.1620993E-001  0.1250000E+03  0.7546771E-02  0.1235069E+00
         21   -1    0    0  502  501  0.00000000000E+00  0.00000000000E+00  0.28846574497E+02  0.28846574497E+02  0.00000000000E+00 0.  1.
         21   -1    0    0  501  502 -0.00000000000E+00 -0.00000000000E+00 -0.13541469197E+03  0.13541469197E+03  0.00000000000E+00 0.  1.
         25    1    1    2    0    0  0.00000000000E+00  0.00000000000E+00 -0.10656811748E+03  0.16426126647E+03  0.12500000000E+03 0.  0.
<mgrwt>
<rscale>  0 0.12500000E+03</rscale>
<asrwt>0</asrwt>
<pdfrwt beam="1">  1       21 0.44379347E-02 0.12500000E+03</pdfrwt>
<pdfrwt beam="2">  1       21 0.20833029E-01 0.12500000E+03</pdfrwt>
<totfact> 0.69002528E+06</totfact>
</mgrwt>
</event>
<event>
 3    1  0.1620993E-001  0.1250000E+03  0.7546771E-02  0.1235069E+00
         21   -1    0    0  502  501  0.00000000000E+00  0.00000000000E+00  0.15721244846E+03  0.15721244846E+03  0.00000000000E+00 0. -1.
         21   -1    0    0  501  502 -0.00000000000E+00 -0.00000000000E+00 -0.24846950978E+02  0.24846950978E+02  0.00000000000E+00 0. -1.
         25    1    1    2    0    0  0.00000000000E+00  0.00000000000E+00  0.13236549748E+03  0.18205939944E+03  0.12500000000E+03 0.  0.
<mgrwt>
<rscale>  0 0.12500000E+03</rscale>
<asrwt>0</asrwt>
<pdfrwt beam="1">  1       21 0.24186530E-01 0.12500000E+03</pdfrwt>
<pdfrwt beam="2">  1       21 0.38226079E-02 0.12500000E+03</pdfrwt>
<totfact> 0.66916071E+06</totfact>
</mgrwt>
</event>
<event>
 3    1  0.1620993E-001  0.1250000E+03  0.7546771E-02  0.1235069E+00
         21   -1    0    0  502  501  0.00000000000E+00  0.00000000000E+00  0.95684491095E+02  0.95684491095E+02  0.00000000000E+00 0.  1.
         21   -1    0    0  501  502 -0.00000000000E+00 -0.00000000000E+00 -0.40824275233E+02  0.40824275233E+02  0.00000000000E+00 0.  1.
         25    1    1    2    0    0  0.00000000000E+00  0.00000000000E+00  0.54860215862E+02  0.13650876633E+03  0.12500000000E+03 0.  0.
<mgrwt>
<rscale>  0 0.12500000E+03</rscale>
<asrwt>0</asrwt>
<pdfrwt beam="1">  1       21 0.14720691E-01 0.12500000E+03</pdfrwt>
<pdfrwt beam="2">  1       21 0.62806578E-02 0.12500000E+03</pdfrwt>
<totfact> 0.72497312E+06</totfact>
</mgrwt>
</event>
<event>
 3    1  0.1620993E-001  0.1250000E+03  0.7546771E-02  0.1235069E+00
         21   -1    0    0  502  501  0.00000000000E+00  0.00000000000E+00  0.50459107123E+02  0.50459107123E+02  0.00000000000E+00 0.  1.
         21   -1    0    0  501  502 -0.00000000000E+00 -0.00000000000E+00 -0.77414172044E+02  0.77414172044E+02  0.00000000000E+00 0.  1.
         25    1    1    2    0    0  0.00000000000E+00  0.00000000000E+00 -0.26955064921E+02  0.12787327917E+03  0.12500000000E+03 0.  0.
<mgrwt>
<rscale>  0 0.12500000E+03</rscale>
<asrwt>0</asrwt>
<pdfrwt beam="1">  1       21 0.77629396E-02 0.12500000E+03</pdfrwt>
<pdfrwt beam="2">  1       21 0.11909873E-01 0.12500000E+03</pdfrwt>
<totfact> 0.73650685E+06</totfact>
</mgrwt>
</event>
<event>
 3    1  0.1620993E-001  0.1250000E+03  0.7546771E-02  0.1235069E+00
         21   -1    0    0  502  501  0.00000000000E+00  0.00000000000E+00  0.49436338709E+03  0.49436338709E+03  0.00000000000E+00 0.  1.
         21   -1    0    0  501  502 -0.00000000000E+00 -0.00000000000E+00 -0.79015762534E+01  0.79015762534E+01  0.00000000000E+00 0.  1.
         25    1    1    2    0    0  0.00000000000E+00  0.00000000000E+00  0.48646181084E+03  0.50226496335E+03  0.12500000000E+03 0.  0.
<mgrwt>
<rscale>  0 0.12500000E+03</rscale>
<asrwt>0</asrwt>
<pdfrwt beam="1">  1       21 0.76055882E-01 0.12500000E+03</pdfrwt>
<pdfrwt beam="2">  1       21 0.12156275E-02 0.12500000E+03</pdfrwt>
<totfact> 0.41921510E+06</totfact>
</mgrwt>
</event>
<event>
 3    1  0.1620993E-001  0.1250000E+03  0.7546771E-02  0.1235069E+00
         21   -1    0    0  502  501  0.00000000000E+00  0.00000000000E+00  0.20454449321E+02  0.20454449321E+02  0.00000000000E+00 0. -1.
         21   -1    0    0  501  502 -0.00000000000E+00 -0.00000000000E+00 -0.19097311977E+03  0.19097311977E+03  0.00000000000E+00 0. -1.
         25    1    1    2    0    0  0.00000000000E+00  0.00000000000E+00 -0.17051867045E+03  0.21142756909E+03  0.12500000000E+03 0.  0.
<mgrwt>
<rscale>  0 0.12500000E+03</rscale>
<asrwt>0</asrwt>
<pdfrwt beam="1">  1       21 0.31468384E-02 0.12500000E+03</pdfrwt>
<pdfrwt beam="2">  1       21 0.29380480E-01 0.12500000E+03</pdfrwt>
<totfact> 0.63709651E+06</totfact>
</mgrwt>
</event>
<event>
 3    1  0.1620993E-001  0.1250000E+03  0.7546771E-02  0.1235069E+00
         21   -1    0    0  502  501  0.00000000000E+00  0.00000000000E+00  0.27097548950E+02  0.27097548950E+02  0.00000000000E+00 0. -1.
         21   -1    0    0  501  502 -0.00000000000E+00 -0.00000000000E+00 -0.14415510448E+03  0.14415510448E+03  0.00000000000E+00 0. -1.
         25    1    1    2    0    0  0.00000000000E+00  0.00000000000E+00 -0.11705755553E+03  0.17125265343E+03  0.12500000000E+03 0.  0.
<mgrwt>
<rscale>  0 0.12500000E+03</rscale>
<asrwt>0</asrwt>
<pdfrwt beam="1">  1       21 0.41688537E-02 0.12500000E+03</pdfrwt>
<pdfrwt beam="2">  1       21 0.22177708E-01 0.12500000E+03</pdfrwt>
<totfact> 0.68169450E+06</totfact>
</mgrwt>
</event>
<event>
 3    1  0.1620993E-001  0.1250000E+03  0.7546771E-02  0.1235069E+00
         21   -1    0    0  502  501  0.00000000000E+00  0.00000000000E+00  0.65005204059E+03  0.65005204059E+03  0.00000000000E+00 0.  1.
         21   -1    0    0  501  502 -0.00000000000E+00 -0.00000000000E+00 -0.60091342786E+01  0.60091342786E+01  0.00000000000E+00 0.  1.
         25    1    1    2    0    0  0.00000000000E+00  0.00000000000E+00  0.64404290632E+03  0.65606117487E+03  0.12500000000E+03 0.  0.
<mgrwt>
<rscale>  0 0.12500000E+03</rscale>
<asrwt>0</asrwt>
<pdfrwt beam="1">  1       21 0.10000795E+00 0.12500000E+03</pdfrwt>
<pdfrwt beam="2">  1       21 0.92448271E-03 0.12500000E+03</pdfrwt>
<totfact> 0.34673691E+06</totfact>
</mgrwt>
</event>
<event>
 3    1  0.1620993E-001  0.1250000E+03  0.7546771E-02  0.1235069E+00
         21   -1    0    0  502  501  0.00000000000E+00  0.00000000000E+00  0.37999281196E+01  0.37999281196E+01  0.00000000000E+00 0.  1.
         21   -1    0    0  501  502 -0.00000000000E+00 -0.00000000000E+00 -0.10279799715E+04  0.10279799715E+04  0.00000000000E+00 0.  1.
         25    1    1    2    0    0  0.00000000000E+00  0.00000000000E+00 -0.10241800434E+04  0.10317798996E+04  0.12500000000E+03 0.  0.
<mgrwt>
<rscale>  0 0.12500000E+03</rscale>
<asrwt>0</asrwt>
<pdfrwt beam="1">  1       21 0.58460437E-03 0.12500000E+03</pdfrwt>
<pdfrwt beam="2">  1       21 0.15815075E+00 0.12500000E+03</pdfrwt>
<totfact> 0.22835683E+06</totfact>
</mgrwt>
</event>
<event>
 3    1  0.1620993E-001  0.1250000E+03  0.7546771E-02  0.1235069E+00
         21   -1    0    0  502  501  0.00000000000E+00  0.00000000000E+00  0.38022330449E+02  0.38022330449E+02  0.00000000000E+00 0. -1.
         21   -1    0    0  501  502 -0.00000000000E+00 -0.00000000000E+00 -0.10273568069E+03  0.10273568069E+03  0.00000000000E+00 0. -1.
         25    1    1    2    0    0  0.00000000000E+00  0.00000000000E+00 -0.64713350238E+02  0.14075801114E+03  0.12500000000E+03 0.  0.
<mgrwt>
<rscale>  0 0.12500000E+03</rscale>
<asrwt>0</asrwt>
<pdfrwt beam="1">  1       21 0.58495893E-02 0.12500000E+03</pdfrwt>
<pdfrwt beam="2">  1       21 0.15805489E-01 0.12500000E+03</pdfrwt>
<totfact> 0.71940506E+06</totfact>
</mgrwt>
</event>
<event>
 3    1  0.1620993E-001  0.1250000E+03  0.7546771E-02  0.1235069E+00
         21   -1    0    0  502  501  0.00000000000E+00  0.00000000000E+00  0.91292490978E+02  0.91292490978E+02  0.00000000000E+00 0.  1.
         21   -1    0    0  501  502 -0.00000000000E+00 -0.00000000000E+00 -0.42788294614E+02  0.42788294614E+02  0.00000000000E+00 0.  1.
         25    1    1    2    0    0  0.00000000000E+00  0.00000000000E+00  0.48504196364E+02  0.13408078559E+03  0.12500000000E+03 0.  0.
<mgrwt>
<rscale>  0 0.12500000E+03</rscale>
<asrwt>0</asrwt>
<pdfrwt beam="1">  1       21 0.14044999E-01 0.12500000E+03</pdfrwt>
<pdfrwt beam="2">  1       21 0.65828146E-02 0.12500000E+03</pdfrwt>
<totfact> 0.72818414E+06</totfact>
</mgrwt>
</event>
<event>
 3    1  0.1620993E-001  0.1250000E+03  0.7546771E-02  0.1235069E+00
         21   -1    0    0  502  501  0.00000000000E+00  0.00000000000E+00  0.20358465671E+03  0.20358465671E+03  0.00000000000E+00 0. -1.
         21   -1    0    0  501  502 -0.00000000000E+00 -0.00000000000E+00 -0.19187349690E+02  0.19187349690E+02  0.00000000000E+00 0. -1.
         25    1    1    2    0    0  0.00000000000E+00  0.00000000000E+00  0.18439730702E+03  0.22277200641E+03  0.12500000000E+03 0.  0.
<mgrwt>
<rscale>  0 0.12500000E+03</rscale>
<asrwt>0</asrwt>
<pdfrwt beam="1">  1       21 0.31320715E-01 0.12500000E+03</pdfrwt>
<pdfrwt beam="2">  1       21 0.29519001E-02 0.12500000E+03</pdfrwt>
<totfact> 0.62540319E+06</totfact>
</mgrwt>
</event>
<event>
 3    1  0.1620993E-001  0.1250000E+03  0.7546771E-02  0.1235069E+00
         21   -1    0    0  502  501  0.00000000000E+00  0.00000000000E+00  0.30301122096E+03  0.30301122096E+03  0.00000000000E+00 0. -1.
         21   -1    0    0  501  502 -0.00000000000E+00 -0.00000000000E+00 -0.12891436785E+02  0.12891436785E+02  0.00000000000E+00 0. -1.
         25    1    1    2    0    0  0.00000000000E+00  0.00000000000E+00  0.29011978417E+03  0.31590265774E+03  0.12500000000E+03 0.  0.
<mgrwt>
<rscale>  0 0.12500000E+03</rscale>
<asrwt>0</asrwt>
<pdfrwt beam="1">  1       21 0.46617105E-01 0.12500000E+03</pdfrwt>
<pdfrwt beam="2">  1       21 0.19832982E-02 0.12500000E+03</pdfrwt>
<totfact> 0.54159644E+06</totfact>
</mgrwt>
</event>
<event>
 3    1  0.1620993E-001  0.1250000E+03  0.7546771E-02  0.1235069E+00
         21   -1    0    0  502  501  0.00000000000E+00  0.00000000000E+00  0.21126417812E+03  0.21126417812E+03  0.00000000000E+00 0. -1.
         21   -1    0    0  501  502 -0.00000000000E+00 -0.00000000000E+00 -0.18489883306E+02  0.18489883306E+02  0.00000000000E+00 0. -1.
         25    1    1    2    0    0  0.00000000000E+00  0.00000000000E+00  0.19277429481E+03  0.22975406142E+03  0.12500000000E+03 0.  0.
<mgrwt>
<rscale>  0 0.12500000E+03</rscale>
<asrwt>0</asrwt>
<pdfrwt beam="1">  1       21 0.32502180E-01 0.12500000E+03</pdfrwt>
<pdfrwt beam="2">  1       21 0.28445976E-02 0.12500000E+03</pdfrwt>
<totfact> 0.61838464E+06</totfact>
</mgrwt>
</event>
<event>
 3    1  0.1620993E-001  0.1250000E+03  0.7546771E-02  0.1235069E+00
         21   -1    0    0  502  501  0.00000000000E+00  0.00000000000E+00  0.43808104723E+02  0.43808104723E+02  0.00000000000E+00 0.  1.
         21   -1    0    0  501  502 -0.00000000000E+00 -0.00000000000E+00 -0.89167290499E+02  0.89167290499E+02  0.00000000000E+00 0.  1.
         25    1    1    2    0    0  0.00000000000E+00  0.00000000000E+00 -0.45359185776E+02  0.13297539522E+03  0.12500000000E+03 0.  0.
<mgrwt>
<rscale>  0 0.12500000E+03</rscale>
<asrwt>0</asrwt>
<pdfrwt beam="1">  1       21 0.67397085E-02 0.12500000E+03</pdfrwt>
<pdfrwt beam="2">  1       21 0.13718044E-01 0.12500000E+03</pdfrwt>
<totfact> 0.72965684E+06</totfact>
</mgrwt>
</event>
<event>
 3    1  0.1620993E-001  0.1250000E+03  0.7546771E-02  0.1235069E+00
         21   -1    0    0  502  501  0.00000000000E+00  0.00000000000E+00  0.83508972420E+02  0.83508972420E+02  0.00000000000E+00 0.  1.
         21   -1    0    0  501  502 -0.00000000000E+00 -0.00000000000E+00 -0.46776410807E+02  0.46776410807E+02  0.00000000000E+00 0.  1.
         25    1    1    2    0    0  0.00000000000E+00  0.00000000000E+00  0.36732561613E+02  0.13028538323E+03  0.12500000000E+03 0.  0.
<mgrwt>
<rscale>  0 0.12500000E+03</rscale>
<asrwt>0</asrwt>
<pdfrwt beam="1">  1       21 0.12847534E-01 0.12500000E+03</pdfrwt>
<pdfrwt beam="2">  1       21 0.71963709E-02 0.12500000E+03</pdfrwt>
<totfact> 0.73326798E+06</totfact>
</mgrwt>
</event>
<event>
 3    1  0.1620993E-001  0.1250000E+03  0.7546771E-02  0.1235069E+00
         21   -1    0    0  502  501  0.00000000000E+00  0.00000000000E+00  0.21203371744E+03  0.21203371744E+03  0.00000000000E+00 0. -1.
         21   -1    0    0  501  502 -0.00000000000E+00 -0.00000000000E+00 -0.18422777505E+02  0.18422777505E+02  0.00000000000E+00 0. -1.
         25    1    1    2    0    0  0.00000000000E+00  0.00000000000E+00  0.19361093993E+03  0.23045649494E+03  0.12500000000E+03 0.  0.
<mgrwt>
<rscale>  0 0.12500000E+03</rscale>
<asrwt>0</asrwt>
<pdfrwt beam="1">  1       21 0.32620570E-01 0.12500000E+03</pdfrwt>
<pdfrwt beam="2">  1       21 0.28342736E-02 0.12500000E+03</pdfrwt>
<totfact> 0.61768580E+06</totfact>
</mgrwt>
</event>
<event>
 3    1  0.1620993E-001  0.1250000E+03  0.7546771E-02  0.1235069E+00
         21   -1    0    0  502  501  0.00000000000E+00  0.00000000000E+00  0.38809799927E+02  0.38809799927E+02  0.00000000000E+00 0. -1.
         21   -1    0    0  501  502 -0.00000000000E+00 -0.00000000000E+00 -0.10065112439E+03  0.10065112439E+03  0.00000000000E+00 0. -1.
         25    1    1    2    0    0  0.00000000000E+00  0.00000000000E+00 -0.61841324464E+02  0.13946092432E+03  0.12500000000E+03 0.  0.
<mgrwt>
<rscale>  0 0.12500000E+03</rscale>
<asrwt>0</asrwt>
<pdfrwt beam="1">  1       21 0.59707384E-02 0.12500000E+03</pdfrwt>
<pdfrwt beam="2">  1       21 0.15484788E-01 0.12500000E+03</pdfrwt>
<totfact> 0.72109761E+06</totfact>
</mgrwt>
</event>
<event>
 3    1  0.1620993E-001  0.1250000E+03  0.7546771E-02  0.1235069E+00
         21   -1    0    0  502  501  0.00000000000E+00  0.00000000000E+00  0.21403629745E+02  0.21403629745E+02  0.00000000000E+00 0. -1.
         21   -1    0    0  501  502 -0.00000000000E+00 -0.00000000000E+00 -0.18250409144E+03  0.18250409144E+03  0.00000000000E+00 0. -1.
         25    1    1    2    0    0  0.00000000000E+00  0.00000000000E+00 -0.16110046169E+03  0.20390772118E+03  0.12500000000E+03 0.  0.
<mgrwt>
<rscale>  0 0.12500000E+03</rscale>
<asrwt>0</asrwt>
<pdfrwt beam="1">  1       21 0.32928662E-02 0.12500000E+03</pdfrwt>
<pdfrwt beam="2">  1       21 0.28077552E-01 0.12500000E+03</pdfrwt>
<totfact> 0.64506269E+06</totfact>
</mgrwt>
</event>
<event>
 3    1  0.1620993E-001  0.1250000E+03  0.7546771E-02  0.1235069E+00
         21   -1    0    0  502  501  0.00000000000E+00  0.00000000000E+00  0.10091697789E+02  0.10091697789E+02  0.00000000000E+00 0.  1.
         21   -1    0    0  501  502 -0.00000000000E+00 -0.00000000000E+00 -0.38707560229E+03  0.38707560229E+03  0.00000000000E+00 0.  1.
         25    1    1    2    0    0  0.00000000000E+00  0.00000000000E+00 -0.37698390450E+03  0.39716730008E+03  0.12500000000E+03 0.  0.
<mgrwt>
<rscale>  0 0.12500000E+03</rscale>
<asrwt>0</asrwt>
<pdfrwt beam="1">  1       21 0.15525689E-02 0.12500000E+03</pdfrwt>
<pdfrwt beam="2">  1       21 0.59550091E-01 0.12500000E+03</pdfrwt>
<totfact> 0.48229810E+06</totfact>
</mgrwt>
</event>
<event>
 3    1  0.1620993E-001  0.1250000E+03  0.7546771E-02  0.1235069E+00
         21   -1    0    0  502  501  0.00000000000E+00  0.00000000000E+00  0.17293669303E+02  0.17293669303E+02  0.00000000000E+00 0.  1.
         21   -1    0    0  501  502 -0.00000000000E+00 -0.00000000000E+00 -0.22587745443E+03  0.22587745443E+03  0.00000000000E+00 0.  1.
         25    1    1    2    0    0  0.00000000000E+00  0.00000000000E+00 -0.20858378513E+03  0.24317112374E+03  0.12500000000E+03 0.  0.
<mgrwt>
<rscale>  0 0.12500000E+03</rscale>
<asrwt>0</asrwt>
<pdfrwt beam="1">  1       21 0.26605644E-02 0.12500000E+03</pdfrwt>
<pdfrwt beam="2">  1       21 0.34750379E-01 0.12500000E+03</pdfrwt>
<totfact> 0.60527141E+06</totfact>
</mgrwt>
</event>
<event>
 3    1  0.1620993E-001  0.1250000E+03  0.7546771E-02  0.1235069E+00
         21   -1    0    0  502  501  0.00000000000E+00  0.00000000000E+00  0.50770108813E+02  0.50770108813E+02  0.00000000000E+00 0. -1.
         21   -1    0    0  501  502 -0.00000000000E+00 -0.00000000000E+00 -0.76939957218E+02  0.76939957218E+02  0.00000000000E+00 0. -1.
         25    1    1    2    0    0  0.00000000000E+00  0.00000000000E+00 -0.26169848406E+02  0.12771006603E+03  0.12500000000E+03 0.  0.
<mgrwt>
<rscale>  0 0.12500000E+03</rscale>
<asrwt>0</asrwt>
<pdfrwt beam="1">  1       21 0.78107860E-02 0.12500000E+03</pdfrwt>
<pdfrwt beam="2">  1       21 0.11836916E-01 0.12500000E+03</pdfrwt>
<totfact> 0.73672763E+06</totfact>
</mgrwt>
</event>
<event>
 3    1  0.1620993E-001  0.1250000E+03  0.7546771E-02  0.1235069E+00
         21   -1    0    0  502  501  0.00000000000E+00  0.00000000000E+00  0.25469079431E+02  0.25469079431E+02  0.00000000000E+00 0.  1.
         21   -1    0    0  501  502 -0.00000000000E+00 -0.00000000000E+00 -0.15337224930E+03  0.15337224930E+03  0.00000000000E+00 0.  1.
         25    1    1    2    0    0  0.00000000000E+00  0.00000000000E+00 -0.12790316987E+03  0.17884132873E+03  0.12500000000E+03 0.  0.
<mgrwt>
<rscale>  0 0.12500000E+03</rscale>
<asrwt>0</asrwt>
<pdfrwt beam="1">  1       21 0.39183199E-02 0.12500000E+03</pdfrwt>
<pdfrwt beam="2">  1       21 0.23595731E-01 0.12500000E+03</pdfrwt>
<totfact> 0.67284704E+06</totfact>
</mgrwt>
</event>
<event>
 3    1  0.1620993E-001  0.1250000E+03  0.7546771E-02  0.1235069E+00
         21   -1    0    0  502  501  0.00000000000E+00  0.00000000000E+00  0.24325212871E+02  0.24325212871E+02  0.00000000000E+00 0. -1.
         21   -1    0    0  501  502 -0.00000000000E+00 -0.00000000000E+00 -0.16058441176E+03  0.16058441176E+03  0.00000000000E+00 0. -1.
         25    1    1    2    0    0  0.00000000000E+00  0.00000000000E+00 -0.13625919889E+03  0.18490962464E+03  0.12500000000E+03 0.  0.
<mgrwt>
<rscale>  0 0.12500000E+03</rscale>
<asrwt>0</asrwt>
<pdfrwt beam="1">  1       21 0.37423403E-02 0.12500000E+03</pdfrwt>
<pdfrwt beam="2">  1       21 0.24705295E-01 0.12500000E+03</pdfrwt>
<totfact> 0.66592734E+06</totfact>
</mgrwt>
</event>
<event>
 3    1  0.1620993E-001  0.1250000E+03  0.7546771E-02  0.1235069E+00
         21   -1    0    0  502  501  0.00000000000E+00  0.00000000000E+00  0.67598368733E+02  0.67598368733E+02  0.00000000000E+00 0. -1.
         21   -1    0    0  501  502 -0.00000000000E+00 -0.00000000000E+00 -0.57786157761E+02  0.57786157761E+02  0.00000000000E+00 0. -1.
         25    1    1    2    0    0  0.00000000000E+00  0.00000000000E+00  0.98122109714E+01  0.12538452649E+03  0.12500000000E+03 0.  0.
<mgrwt>
<rscale>  0 0.12500000E+03</rscale>
<asrwt>0</asrwt>
<pdfrwt beam="1">  1       21 0.10399749E-01 0.12500000E+03</pdfrwt>
<pdfrwt beam="2">  1       21 0.88901782E-02 0.12500000E+03</pdfrwt>
<totfact> 0.73991587E+06</totfact>
</mgrwt>
</event>
<event>
 3    1  0.1620993E-001  0.1250000E+03  0.7546771E-02  0.1235069E+00
         21   -1    0    0  502  501  0.00000000000E+00  0.00000000000E+00  0.33369414026E+02  0.33369414026E+02  0.00000000000E+00 0.  1.
         21   -1    0    0  501  502 -0.00000000000E+00 -0.00000000000E+00 -0.11706079097E+03  0.11706079097E+03  0.00000000000E+00 0.  1.
         25    1    1    2    0    0  0.00000000000E+00  0.00000000000E+00 -0.83691376942E+02  0.15043020499E+03  0.12500000000E+03 0.  0.
<mgrwt>
<rscale>  0 0.12500000E+03</rscale>
<asrwt>0</asrwt>
<pdfrwt beam="1">  1       21 0.51337560E-02 0.12500000E+03</pdfrwt>
<pdfrwt beam="2">  1       21 0.18009352E-01 0.12500000E+03</pdfrwt>
<totfact> 0.70705201E+06</totfact>
</mgrwt>
</event>
<event>
 3    1  0.1620993E-001  0.1250000E+03  0.7546771E-02  0.1235069E+00
         21   -1    0    0  502  501  0.00000000000E+00  0.00000000000E+00  0.29933570064E+01  0.29933570064E+01  0.00000000000E+00 0. -1.
         21   -1    0    0  501  502 -0.00000000000E+00 -0.00000000000E+00 -0.13049729757E+04  0.13049729757E+04  0.00000000000E+00 0. -1.
         25    1    1    2    0    0  0.00000000000E+00  0.00000000000E+00 -0.13019796187E+04  0.13079663327E+04  0.12500000000E+03 0.  0.
<mgrwt>
<rscale>  0 0.12500000E+03</rscale>
<asrwt>0</asrwt>
<pdfrwt beam="1">  1       21 0.46051583E-03 0.12500000E+03</pdfrwt>
<pdfrwt beam="2">  1       21 0.20076535E+00 0.12500000E+03</pdfrwt>
<totfact> 0.17109871E+06</totfact>
</mgrwt>
</event>
<event>
 3    1  0.1620993E-001  0.1250000E+03  0.7546771E-02  0.1235069E+00
         21   -1    0    0  502  501  0.00000000000E+00  0.00000000000E+00  0.20617798578E+03  0.20617798578E+03  0.00000000000E+00 0. -1.
         21   -1    0    0  501  502 -0.00000000000E+00 -0.00000000000E+00 -0.18946009126E+02  0.18946009126E+02  0.00000000000E+00 0. -1.
         25    1    1    2    0    0  0.00000000000E+00  0.00000000000E+00  0.18723197665E+03  0.22512399490E+03  0.12500000000E+03 0.  0.
<mgrwt>
<rscale>  0 0.12500000E+03</rscale>
<asrwt>0</asrwt>
<pdfrwt beam="1">  1       21 0.31719689E-01 0.12500000E+03</pdfrwt>
<pdfrwt beam="2">  1       21 0.29147708E-02 0.12500000E+03</pdfrwt>
<totfact> 0.62302599E+06</totfact>
</mgrwt>
</event>
<event>
 3    1  0.1620993E-001  0.1250000E+03  0.7546771E-02  0.1235069E+00
         21   -1    0    0  502  501  0.00000000000E+00  0.00000000000E+00  0.19415874144E+01  0.19415874144E+01  0.00000000000E+00 0. -1.
         21   -1    0    0  501  502 -0.00000000000E+00 -0.00000000000E+00 -0.20118846934E+04  0.20118846934E+04  0.00000000000E+00 0. -1.
         25    1    1    2    0    0  0.00000000000E+00  0.00000000000E+00 -0.20099431060E+04  0.20138262808E+04  0.12500000000E+03 0.  0.
<mgrwt>
<rscale>  0 0.12500000E+03</rscale>
<asrwt>0</asrwt>
<pdfrwt beam="1">  1       21 0.29870491E-03 0.12500000E+03</pdfrwt>
<pdfrwt beam="2">  1       21 0.30952160E+00 0.12500000E+03</pdfrwt>
<totfact> 0.78138321E+05</totfact>
</mgrwt>
</event>
<event>
 3    1  0.1620993E-001  0.1250000E+03  0.7546771E-02  0.1235069E+00
         21   -1    0    0  502  501  0.00000000000E+00  0.00000000000E+00  0.44028508281E+02  0.44028508281E+02  0.00000000000E+00 0.  1.
         21   -1    0    0  501  502 -0.00000000000E+00 -0.00000000000E+00 -0.88720925429E+02  0.88720925429E+02  0.00000000000E+00 0.  1.
         25    1    1    2    0    0  0.00000000000E+00  0.00000000000E+00 -0.44692417148E+02  0.13274943371E+03  0.12500000000E+03 0.  0.
<mgrwt>
<rscale>  0 0.12500000E+03</rscale>
<asrwt>0</asrwt>
<pdfrwt beam="1">  1       21 0.67736167E-02 0.12500000E+03</pdfrwt>
<pdfrwt beam="2">  1       21 0.13649373E-01 0.12500000E+03</pdfrwt>
<totfact> 0.72995876E+06</totfact>
</mgrwt>
</event>
<event>
 3    1  0.1620993E-001  0.1250000E+03  0.7546771E-02  0.1235069E+00
         21   -1    0    0  502  501  0.00000000000E+00  0.00000000000E+00  0.83708344376E+02  0.83708344376E+02  0.00000000000E+00 0.  1.
         21   -1    0    0  501  502 -0.00000000000E+00 -0.00000000000E+00 -0.46665001310E+02  0.46665001310E+02  0.00000000000E+00 0.  1.
         25    1    1    2    0    0  0.00000000000E+00  0.00000000000E+00  0.37043343066E+02  0.13037334569E+03  0.12500000000E+03 0.  0.
<mgrwt>
<rscale>  0 0.12500000E+03</rscale>
<asrwt>0</asrwt>
<pdfrwt beam="1">  1       21 0.12878207E-01 0.12500000E+03</pdfrwt>
<pdfrwt beam="2">  1       21 0.71792310E-02 0.12500000E+03</pdfrwt>
<totfact> 0.73315059E+06</totfact>
</mgrwt>
</event>
<event>
 3    1  0.1620993E-001  0.1250000E+03  0.7546771E-02  0.1235069E+00
         21   -1    0    0  502  501  0.00000000000E+00  0.00000000000E+00  0.18280800984E+02  0.18280800984E+02  0.00000000000E+00 0. -1.
         21   -1    0    0  501  502 -0.00000000000E+00 -0.00000000000E+00 -0.21368046201E+03  0.21368046201E+03  0.00000000000E+00 0. -1.
         25    1    1    2    0    0  0.00000000000E+00  0.00000000000E+00 -0.19539966102E+03  0.23196126299E+03  0.12500000000E+03 0.  0.
<mgrwt>
<rscale>  0 0.12500000E+03</rscale>
<asrwt>0</asrwt>
<pdfrwt beam="1">  1       21 0.28124308E-02 0.12500000E+03</pdfrwt>
<pdfrwt beam="2">  1       21 0.32873919E-01 0.12500000E+03</pdfrwt>
<totfact> 0.61619338E+06</totfact>
</mgrwt>
</event>
<event>
 3    1  0.1620993E-001  0.1250000E+03  0.7546771E-02  0.1235069E+00
         21   -1    0    0  502  501  0.00000000000E+00  0.00000000000E+00  0.48525954538E+01  0.48525954538E+01  0.00000000000E+00 0.  1.
         21   -1    0    0  501  502 -0.00000000000E+00 -0.00000000000E+00 -0.80498158917E+03  0.80498158917E+03  0.00000000000E+00 0.  1.
         25    1    1    2    0    0  0.00000000000E+00  0.00000000000E+00 -0.80012899372E+03  0.80983418462E+03  0.12500000000E+03 0.  0.
<mgrwt>
<rscale>  0 0.12500000E+03</rscale>
<asrwt>0</asrwt>
<pdfrwt beam="1">  1       21 0.74655344E-03 0.12500000E+03</pdfrwt>
<pdfrwt beam="2">  1       21 0.12384327E+00 0.12500000E+03</pdfrwt>
<totfact> 0.29039573E+06</totfact>
</mgrwt>
</event>
<event>
 3    1  0.1620993E-001  0.1250000E+03  0.7546771E-02  0.1235069E+00
         21   -1    0    0  502  501  0.00000000000E+00  0.00000000000E+00  0.33167603638E+02  0.33167603638E+02  0.00000000000E+00 0. -1.
         21   -1    0    0  501  502 -0.00000000000E+00 -0.00000000000E+00 -0.11777305477E+03  0.11777305477E+03  0.00000000000E+00 0. -1.
         25    1    1    2    0    0  0.00000000000E+00  0.00000000000E+00 -0.84605451137E+02  0.15094065841E+03  0.12500000000E+03 0.  0.
<mgrwt>
<rscale>  0 0.12500000E+03</rscale>
<asrwt>0</asrwt>
<pdfrwt beam="1">  1       21 0.51027082E-02 0.12500000E+03</pdfrwt>
<pdfrwt beam="2">  1       21 0.18118932E-01 0.12500000E+03</pdfrwt>
<totfact> 0.70641236E+06</totfact>
</mgrwt>
</event>
<event>
 3    1  0.1620993E-001  0.1250000E+03  0.7546771E-02  0.1235069E+00
         21   -1    0    0  502  501  0.00000000000E+00  0.00000000000E+00  0.30179349340E+02  0.30179349340E+02  0.00000000000E+00 0.  1.
         21   -1    0    0  501  502 -0.00000000000E+00 -0.00000000000E+00 -0.12943453340E+03  0.12943453340E+03  0.00000000000E+00 0.  1.
         25    1    1    2    0    0  0.00000000000E+00  0.00000000000E+00 -0.99255184057E+02  0.15961388274E+03  0.12500000000E+03 0.  0.
<mgrwt>
<rscale>  0 0.12500000E+03</rscale>
<asrwt>0</asrwt>
<pdfrwt beam="1">  1       21 0.46429769E-02 0.12500000E+03</pdfrwt>
<pdfrwt beam="2">  1       21 0.19913005E-01 0.12500000E+03</pdfrwt>
<totfact> 0.69566706E+06</totfact>
</mgrwt>
</event>
<event>
 3    1  0.1620993E-001  0.1250000E+03  0.7546771E-02  0.1235069E+00
         21   -1    0    0  502  501  0.00000000000E+00  0.00000000000E+00  0.62065756971E+02  0.62065756971E+02  0.00000000000E+00 0. -1.
         21   -1    0    0  501  502 -0.00000000000E+00 -0.00000000000E+00 -0.62937281210E+02  0.62937281210E+02  0.00000000000E+00 0. -1.
         25    1    1    2    0    0  0.00000000000E+00  0.00000000000E+00 -0.87152423909E+00  0.12500303818E+03  0.12500000000E+03 0.  0.
<mgrwt>
<rscale>  0 0.12500000E+03</rscale>
<asrwt>0</asrwt>
<pdfrwt beam="1">  1       21 0.95485781E-02 0.12500000E+03</pdfrwt>
<pdfrwt beam="2">  1       21 0.96826586E-02 0.12500000E+03</pdfrwt>
<totfact> 0.74043171E+06</totfact>
</mgrwt>
</event>
<event>
 3    1  0.1620993E-001  0.1250000E+03  0.7546771E-02  0.1235069E+00
         21   -1    0    0  502  501  0.00000000000E+00  0.00000000000E+00  0.15828880436E+04  0.15828880436E+04  0.00000000000E+00 0.  1.
         21   -1    0    0  501  502 -0.00000000000E+00 -0.00000000000E+00 -0.24677992962E+01  0.24677992962E+01  0.00000000000E+00 0.  1.
         25    1    1    2    0    0  0.00000000000E+00  0.00000000000E+00  0.15804202443E+04  0.15853558429E+04  0.12500000000E+03 0.  0.
<mgrwt>
<rscale>  0 0.12500000E+03</rscale>
<asrwt>0</asrwt>
<pdfrwt beam="1">  1       21 0.24352043E+00 0.12500000E+03</pdfrwt>
<pdfrwt beam="2">  1       21 0.37966270E-03 0.12500000E+03</pdfrwt>
<totfact> 0.12773809E+06</totfact>
</mgrwt>
</event>
<event>
 3    1  0.1620993E-001  0.1250000E+03  0.7546771E-02  0.1235069E+00
         21   -1    0    0  502  501  0.00000000000E+00  0.00000000000E+00  0.67558460998E+03  0.67558460998E+03  0.00000000000E+00 0.  1.
         21   -1    0    0  501  502 -0.00000000000E+00 -0.00000000000E+00 -0.57820292859E+01  0.57820292859E+01  0.00000000000E+00 0.  1.
         25    1    1    2    0    0  0.00000000000E+00  0.00000000000E+00  0.66980258070E+03  0.68136663927E+03  0.12500000000E+03 0.  0.
<mgrwt>
<rscale>  0 0.12500000E+03</rscale>
<asrwt>0</asrwt>
<pdfrwt beam="1">  1       21 0.10393603E+00 0.12500000E+03</pdfrwt>
<pdfrwt beam="2">  1       21 0.88954350E-03 0.12500000E+03</pdfrwt>
<totfact> 0.33640995E+06</totfact>
</mgrwt>
</event>
<event>
 3    1  0.1620993E-001  0.1250000E+03  0.7546771E-02  0.1235069E+00
         21   -1    0    0  502  501  0.00000000000E+00  0.00000000000E+00  0.23435233921E+03  0.23435233921E+03  0.00000000000E+00 0. -1.
         21   -1    0    0  501  502 -0.00000000000E+00 -0.00000000000E+00 -0.16668278257E+02  0.16668278257E+02  0.00000000000E+00 0. -1.
         25    1    1    2    0    0  0.00000000000E+00  0.00000000000E+00  0.21768406095E+03  0.25102061747E+03  0.12500000000E+03 0.  0.
<mgrwt>
<rscale>  0 0.12500000E+03</rscale>
<asrwt>0</asrwt>
<pdfrwt beam="1">  1       21 0.36054204E-01 0.12500000E+03</pdfrwt>
<pdfrwt beam="2">  1       21 0.25643507E-02 0.12500000E+03</pdfrwt>
<totfact> 0.59782234E+06</totfact>
</mgrwt>
</event>
<event>
 3    1  0.1620993E-001  0.1250000E+03  0.7546771E-02  0.1235069E+00
         21   -1    0    0  502  501  0.00000000000E+00  0.00000000000E+00  0.80943669267E+01  0.80943669267E+01  0.00000000000E+00 0. -1.
         21   -1    0    0  501  502 -0.00000000000E+00 -0.00000000000E+00 -0.48258869846E+03  0.48258869846E+03  0.00000000000E+00 0. -1.
         25    1    1    2    0    0  0.00000000000E+00  0.00000000000E+00 -0.47449433153E+03  0.49068306538E+03  0.12500000000E+03 0.  0.
<mgrwt>
<rscale>  0 0.12500000E+03</rscale>
<asrwt>0</asrwt>
<pdfrwt beam="1">  1       21 0.12452874E-02 0.12500000E+03</pdfrwt>
<pdfrwt beam="2">  1       21 0.74244403E-01 0.12500000E+03</pdfrwt>
<totfact> 0.42553902E+06</totfact>
</mgrwt>
</event>
<event>
 3    1  0.1620993E-001  0.1250000E+03  0.7546771E-02  0.1235069E+00
         21   -1    0    0  502  501  0.00000000000E+00  0.00000000000E+00  0.15821662705E+03  0.15821662705E+03  0.00000000000E+00 0. -1.
         21   -1    0    0  501  502 -0.00000000000E+00 -0.00000000000E+00 -0.24689250889E+02  0.24689250889E+02  0.00000000000E+00 0. -1.
         25    1    1    2    0    0  0.00000000000E+00  0.00000000000E+00  0.13352737616E+03  0.18290587793E+03  0.12500000000E+03 0.  0.
<mgrwt>
<rscale>  0 0.12500000E+03</rscale>
<asrwt>0</asrwt>
<pdfrwt beam="1">  1       21 0.24341019E-01 0.12500000E+03</pdfrwt>
<pdfrwt beam="2">  1       21 0.37983464E-02 0.12500000E+03</pdfrwt>
<totfact> 0.66819738E+06</totfact>
</mgrwt>
</event>
<event>
 3    1  0.1620993E-001  0.1250000E+03  0.7546771E-02  0.1235069E+00
         21   -1    0    0  502  501  0.00000000000E+00  0.00000000000E+00  0.89356408654E+03  0.89356408654E+03  0.00000000000E+00 0.  1.
         21   -1    0    0  501  502 -0.00000000000E+00 -0.00000000000E+00 -0.43715387165E+01  0.43715387165E+01  0.00000000000E+00 0.  1.
         25    1    1    2    0    0  0.00000000000E+00  0.00000000000E+00  0.88919254782E+03  0.89793562526E+03  0.12500000000E+03 0.  0.
<mgrwt>
<rscale>  0 0.12500000E+03</rscale>
<asrwt>0</asrwt>
<pdfrwt beam="1">  1       21 0.13747125E+00 0.12500000E+03</pdfrwt>
<pdfrwt beam="2">  1       21 0.67254513E-03 0.12500000E+03</pdfrwt>
<totfact> 0.26358582E+06</totfact>
</mgrwt>
</event>
<event>
 3    1  0.1620993E-001  0.1250000E+03  0.7546771E-02  0.1235069E+00
         21   -1    0    0  502  501  0.00000000000E+00  0.00000000000E+00  0.36841754442E+03  0.36841754442E+03  0.00000000000E+00 0. -1.
         21   -1    0    0  501  502 -0.00000000000E+00 -0.00000000000E+00 -0.10602779534E+02  0.10602779534E+02  0.00000000000E+00 0. -1.
         25    1    1    2    0    0  0.00000000000E+00  0.00000000000E+00  0.35781476489E+03  0.37902032396E+03  0.12500000000E+03 0.  0.
<mgrwt>
<rscale>  0 0.12500000E+03</rscale>
<asrwt>0</asrwt>
<pdfrwt beam="1">  1       21 0.56679612E-01 0.12500000E+03</pdfrwt>
<pdfrwt beam="2">  1       21 0.16311971E-02 0.12500000E+03</pdfrwt>
<totfact> 0.49464055E+06</totfact>
</mgrwt>
</event>
<event>
 3    1  0.1620993E-001  0.1250000E+03  0.7546771E-02  0.1235069E+00
         21   -1    0    0  502  501  0.00000000000E+00  0.00000000000E+00  0.16834079297E+02  0.16834079297E+02  0.00000000000E+00 0.  1.
         21   -1    0    0  501  502 -0.00000000000E+00 -0.00000000000E+00 -0.23204417248E+03  0.23204417248E+03  0.00000000000E+00 0.  1.
         25    1    1    2    0    0  0.00000000000E+00  0.00000000000E+00 -0.21521009319E+03  0.24887825178E+03  0.12500000000E+03 0.  0.
<mgrwt>
<rscale>  0 0.12500000E+03</rscale>
<asrwt>0</asrwt>
<pdfrwt beam="1">  1       21 0.25898585E-02 0.12500000E+03</pdfrwt>
<pdfrwt beam="2">  1       21 0.35699101E-01 0.12500000E+03</pdfrwt>
<totfact> 0.59983962E+06</totfact>
</mgrwt>
</event>
<event>
 3    1  0.1620993E-001  0.1250000E+03  0.7546771E-02  0.1235069E+00
         21   -1    0    0  502  501  0.00000000000E+00  0.00000000000E+00  0.14600869235E+02  0.14600869235E+02  0.00000000000E+00 0. -1.
         21   -1    0    0  501  502 -0.00000000000E+00 -0.00000000000E+00 -0.26753544170E+03  0.26753544170E+03  0.00000000000E+00 0. -1.
         25    1    1    2    0    0  0.00000000000E+00  0.00000000000E+00 -0.25293457246E+03  0.28213631093E+03  0.12500000000E+03 0.  0.
<mgrwt>
<rscale>  0 0.12500000E+03</rscale>
<asrwt>0</asrwt>
<pdfrwt beam="1">  1       21 0.22462877E-02 0.12500000E+03</pdfrwt>
<pdfrwt beam="2">  1       21 0.41159297E-01 0.12500000E+03</pdfrwt>
<totfact> 0.56974178E+06</totfact>
</mgrwt>
</event>
<event>
 3    1  0.1620993E-001  0.1250000E+03  0.7546771E-02  0.1235069E+00
         21   -1    0    0  502  501  0.00000000000E+00  0.00000000000E+00  0.24399622189E+03  0.24399622189E+03  0.00000000000E+00 0. -1.
         21   -1    0    0  501  502 -0.00000000000E+00 -0.00000000000E+00 -0.16009469203E+02  0.16009469203E+02  0.00000000000E+00 0. -1.
         25    1    1    2    0    0  0.00000000000E+00  0.00000000000E+00  0.22798675269E+03  0.26000569109E+03  0.12500000000E+03 0.  0.
<mgrwt>
<rscale>  0 0.12500000E+03</rscale>
<asrwt>0</asrwt>
<pdfrwt beam="1">  1       21 0.37537878E-01 0.12500000E+03</pdfrwt>
<pdfrwt beam="2">  1       21 0.24629954E-02 0.12500000E+03</pdfrwt>
<totfact> 0.58948751E+06</totfact>
</mgrwt>
</event>
<event>
 3    1  0.1620993E-001  0.1250000E+03  0.7546771E-02  0.1235069E+00
         21   -1    0    0  502  501  0.00000000000E+00  0.00000000000E+00  0.48276703867E+03  0.48276703867E+03  0.00000000000E+00 0.  1.
         21   -1    0    0  501  502 -0.00000000000E+00 -0.00000000000E+00 -0.80913767658E+01  0.80913767658E+01  0.00000000000E+00 0.  1.
         25    1    1    2    0    0  0.00000000000E+00  0.00000000000E+00  0.47467566190E+03  0.49085841544E+03  0.12500000000E+03 0.  0.
<mgrwt>
<rscale>  0 0.12500000E+03</rscale>
<asrwt>0</asrwt>
<pdfrwt beam="1">  1       21 0.74271830E-01 0.12500000E+03</pdfrwt>
<pdfrwt beam="2">  1       21 0.12448276E-02 0.12500000E+03</pdfrwt>
<totfact> 0.42544226E+06</totfact>
</mgrwt>
</event>
<event>
 3    1  0.1620993E-001  0.1250000E+03  0.7546771E-02  0.1235069E+00
         21   -1    0    0  502  501  0.00000000000E+00  0.00000000000E+00  0.38991597090E+03  0.38991597090E+03  0.00000000000E+00 0.  1.
         21   -1    0    0  501  502 -0.00000000000E+00 -0.00000000000E+00 -0.10018184151E+02  0.10018184151E+02  0.00000000000E+00 0.  1.
         25    1    1    2    0    0  0.00000000000E+00  0.00000000000E+00  0.37989778675E+03  0.39993415505E+03  0.12500000000E+03 0.  0.
<mgrwt>
<rscale>  0 0.12500000E+03</rscale>
<asrwt>0</asrwt>
<pdfrwt beam="1">  1       21 0.59987061E-01 0.12500000E+03</pdfrwt>
<pdfrwt beam="2">  1       21 0.15412594E-02 0.12500000E+03</pdfrwt>
<totfact> 0.48045723E+06</totfact>
</mgrwt>
</event>
<event>
 3    1  0.1620993E-001  0.1250000E+03  0.7546771E-02  0.1235069E+00
         21   -1    0    0  502  501  0.00000000000E+00  0.00000000000E+00  0.56155273291E+01  0.56155273291E+01  0.00000000000E+00 0.  1.
         21   -1    0    0  501  502 -0.00000000000E+00 -0.00000000000E+00 -0.69561588273E+03  0.69561588273E+03  0.00000000000E+00 0.  1.
         25    1    1    2    0    0  0.00000000000E+00  0.00000000000E+00 -0.69000035540E+03  0.70123141005E+03  0.12500000000E+03 0.  0.
<mgrwt>
<rscale>  0 0.12500000E+03</rscale>
<asrwt>0</asrwt>
<pdfrwt beam="1">  1       21 0.86392774E-03 0.12500000E+03</pdfrwt>
<pdfrwt beam="2">  1       21 0.10701777E+00 0.12500000E+03</pdfrwt>
<totfact> 0.32862732E+06</totfact>
</mgrwt>
</event>
<event>
 3    1  0.1620993E-001  0.1250000E+03  0.7546771E-02  0.1235069E+00
         21   -1    0    0  502  501  0.00000000000E+00  0.00000000000E+00  0.21023452388E+03  0.21023452388E+03  0.00000000000E+00 0.  1.
         21   -1    0    0  501  502 -0.00000000000E+00 -0.00000000000E+00 -0.18580440205E+02  0.18580440205E+02  0.00000000000E+00 0.  1.
         25    1    1    2    0    0  0.00000000000E+00  0.00000000000E+00  0.19165408368E+03  0.22881496409E+03  0.12500000000E+03 0.  0.
<mgrwt>
<rscale>  0 0.12500000E+03</rscale>
<asrwt>0</asrwt>
<pdfrwt beam="1">  1       21 0.32343771E-01 0.12500000E+03</pdfrwt>
<pdfrwt beam="2">  1       21 0.28585294E-02 0.12500000E+03</pdfrwt>
<totfact> 0.61932110E+06</totfact>
</mgrwt>
</event>
<event>
 3    1  0.1620993E-001  0.1250000E+03  0.7546771E-02  0.1235069E+00
         21   -1    0    0  502  501  0.00000000000E+00  0.00000000000E+00  0.10386147235E+03  0.10386147235E+03  0.00000000000E+00 0.  1.
         21   -1    0    0  501  502 -0.00000000000E+00 -0.00000000000E+00 -0.37610192806E+02  0.37610192806E+02  0.00000000000E+00 0.  1.
         25    1    1    2    0    0  0.00000000000E+00  0.00000000000E+00  0.66251279540E+02  0.14147166515E+03  0.12500000000E+03 0.  0.
<mgrwt>
<rscale>  0 0.12500000E+03</rscale>
<asrwt>0</asrwt>
<pdfrwt beam="1">  1       21 0.15978688E-01 0.12500000E+03</pdfrwt>
<pdfrwt beam="2">  1       21 0.57861835E-02 0.12500000E+03</pdfrwt>
<totfact> 0.71847763E+06</totfact>
</mgrwt>
</event>
<event>
 3    1  0.1620993E-001  0.1250000E+03  0.7546771E-02  0.1235069E+00
         21   -1    0    0  502  501  0.00000000000E+00  0.00000000000E+00  0.29863931457E+02  0.29863931457E+02  0.00000000000E+00 0.  1.
         21   -1    0    0  501  502 -0.00000000000E+00 -0.00000000000E+00 -0.13080159944E+03  0.13080159944E+03  0.00000000000E+00 0.  1.
         25    1    1    2    0    0  0.00000000000E+00  0.00000000000E+00 -0.10093766798E+03  0.16066553089E+03  0.12500000000E+03 0.  0.
<mgrwt>
<rscale>  0 0.12500000E+03</rscale>
<asrwt>0</asrwt>
<pdfrwt beam="1">  1       21 0.45944510E-02 0.12500000E+03</pdfrwt>
<pdfrwt beam="2">  1       21 0.20123323E-01 0.12500000E+03</pdfrwt>
<totfact> 0.69438266E+06</totfact>
</mgrwt>
</event>
<event>
 3    1  0.1620993E-001  0.1250000E+03  0.7546771E-02  0.1235069E+00
         21   -1    0    0  502  501  0.00000000000E+00  0.00000000000E+00  0.23486282714E+03  0.23486282714E+03  0.00000000000E+00 0. -1.
         21   -1    0    0  501  502 -0.00000000000E+00 -0.00000000000E+00 -0.16632048790E+02  0.16632048790E+02  0.00000000000E+00 0. -1.
         25    1    1    2    0    0  0.00000000000E+00  0.00000000000E+00  0.21823077835E+03  0.25149487593E+03  0.12500000000E+03 0.  0.
<mgrwt>
<rscale>  0 0.12500000E+03</rscale>
<asrwt>0</asrwt>
<pdfrwt beam="1">  1       21 0.36132740E-01 0.12500000E+03</pdfrwt>
<pdfrwt beam="2">  1       21 0.25587769E-02 0.12500000E+03</pdfrwt>
<totfact> 0.59737735E+06</totfact>
</mgrwt>
</event>
<event>
 3    1  0.1620993E-001  0.1250000E+03  0.7546771E-02  0.1235069E+00
         21   -1    0    0  502  501  0.00000000000E+00  0.00000000000E+00  0.97854913812E+01  0.97854913812E+01  0.00000000000E+00 0. -1.
         21   -1    0    0  501  502 -0.00000000000E+00 -0.00000000000E+00 -0.39918792505E+03  0.39918792505E+03  0.00000000000E+00 0. -1.
         25    1    1    2    0    0  0.00000000000E+00  0.00000000000E+00 -0.38940243366E+03  0.40897341643E+03  0.12500000000E+03 0.  0.
<mgrwt>
<rscale>  0 0.12500000E+03</rscale>
<asrwt>0</asrwt>
<pdfrwt beam="1">  1       21 0.15054604E-02 0.12500000E+03</pdfrwt>
<pdfrwt beam="2">  1       21 0.61413518E-01 0.12500000E+03</pdfrwt>
<totfact> 0.47451798E+06</totfact>
</mgrwt>
</event>
<event>
 3    1  0.1620993E-001  0.1250000E+03  0.7546771E-02  0.1235069E+00
         21   -1    0    0  502  501  0.00000000000E+00  0.00000000000E+00  0.14968443070E+04  0.14968443070E+04  0.00000000000E+00 0.  1.
         21   -1    0    0  501  502 -0.00000000000E+00 -0.00000000000E+00 -0.26096568505E+01  0.26096568505E+01  0.00000000000E+00 0.  1.
         25    1    1    2    0    0  0.00000000000E+00  0.00000000000E+00  0.14942346502E+04  0.14994539639E+04  0.12500000000E+03 0.  0.
<mgrwt>
<rscale>  0 0.12500000E+03</rscale>
<asrwt>0</asrwt>
<pdfrwt beam="1">  1       21 0.23028305E+00 0.12500000E+03</pdfrwt>
<pdfrwt beam="2">  1       21 0.40148687E-03 0.12500000E+03</pdfrwt>
<totfact> 0.14001250E+06</totfact>
</mgrwt>
</event>
<event>
 3    1  0.1620993E-001  0.1250000E+03  0.7546771E-02  0.1235069E+00
         21   -1    0    0  502  501  0.00000000000E+00  0.00000000000E+00  0.63609680187E+01  0.63609680187E+01  0.00000000000E+00 0. -1.
         21   -1    0    0  501  502 -0.00000000000E+00 -0.00000000000E+00 -0.61409678346E+03  0.61409678346E+03  0.00000000000E+00 0. -1.
         25    1    1    2    0    0  0.00000000000E+00  0.00000000000E+00 -0.60773581544E+03  0.62045775148E+03  0.12500000000E+03 0.  0.
<mgrwt>
<rscale>  0 0.12500000E+03</rscale>
<asrwt>0</asrwt>
<pdfrwt beam="1">  1       21 0.97861038E-03 0.12500000E+03</pdfrwt>
<pdfrwt beam="2">  1       21 0.94476436E-01 0.12500000E+03</pdfrwt>
<totfact> 0.36183497E+06</totfact>
</mgrwt>
</event>
<event>
 3    1  0.1620993E-001  0.1250000E+03  0.7546771E-02  0.1235069E+00
         21   -1    0    0  502  501  0.00000000000E+00  0.00000000000E+00  0.20777224573E+03  0.20777224573E+03  0.00000000000E+00 0. -1.
         21   -1    0    0  501  502 -0.00000000000E+00 -0.00000000000E+00 -0.18800634253E+02  0.18800634253E+02  0.00000000000E+00 0. -1.
         25    1    1    2    0    0  0.00000000000E+00  0.00000000000E+00  0.18897161148E+03  0.22657287999E+03  0.12500000000E+03 0.  0.
<mgrwt>
<rscale>  0 0.12500000E+03</rscale>
<asrwt>0</asrwt>
<pdfrwt beam="1">  1       21 0.31964959E-01 0.12500000E+03</pdfrwt>
<pdfrwt beam="2">  1       21 0.28924054E-02 0.12500000E+03</pdfrwt>
<totfact> 0.62156700E+06</totfact>
</mgrwt>
</event>
<event>
 3    1  0.1620993E-001  0.1250000E+03  0.7546771E-02  0.1235069E+00
         21   -1    0    0  502  501  0.00000000000E+00  0.00000000000E+00  0.23057799083E+03  0.23057799083E+03  0.00000000000E+00 0.  1.
         21   -1    0    0  501  502 -0.00000000000E+00 -0.00000000000E+00 -0.16941122550E+02  0.16941122550E+02  0.00000000000E+00 0.  1.
         25    1    1    2    0    0  0.00000000000E+00  0.00000000000E+00  0.21363686828E+03  0.24751911338E+03  0.12500000000E+03 0.  0.
<mgrwt>
<rscale>  0 0.12500000E+03</rscale>
<asrwt>0</asrwt>
<pdfrwt beam="1">  1       21 0.35473535E-01 0.12500000E+03</pdfrwt>
<pdfrwt beam="2">  1       21 0.26063267E-02 0.12500000E+03</pdfrwt>
<totfact> 0.60112551E+06</totfact>
</mgrwt>
</event>
<event>
 3    1  0.1620993E-001  0.1250000E+03  0.7546771E-02  0.1235069E+00
         21   -1    0    0  502  501  0.00000000000E+00  0.00000000000E+00  0.27216835232E+02  0.27216835232E+02  0.00000000000E+00 0.  1.
         21   -1    0    0  501  502 -0.00000000000E+00 -0.00000000000E+00 -0.14352329971E+03  0.14352329971E+03  0.00000000000E+00 0.  1.
         25    1    1    2    0    0  0.00000000000E+00  0.00000000000E+00 -0.11630646448E+03  0.17074013494E+03  0.12500000000E+03 0.  0.
<mgrwt>
<rscale>  0 0.12500000E+03</rscale>
<asrwt>0</asrwt>
<pdfrwt beam="1">  1       21 0.41872056E-02 0.12500000E+03</pdfrwt>
<pdfrwt beam="2">  1       21 0.22080507E-01 0.12500000E+03</pdfrwt>
<totfact> 0.68230006E+06</totfact>
</mgrwt>
</event>
<event>
 3    1  0.1620993E-001  0.1250000E+03  0.7546771E-02  0.1235069E+00
         21   -1    0    0  502  501  0.00000000000E+00  0.00000000000E+00  0.25307725167E+01  0.25307725167E+01  0.00000000000E+00 0.  1.
         21   -1    0    0  501  502 -0.00000000000E+00 -0.00000000000E+00 -0.15435010355E+04  0.15435010355E+04  0.00000000000E+00 0.  1.
         25    1    1    2    0    0  0.00000000000E+00  0.00000000000E+00 -0.15409702629E+04  0.15460318080E+04  0.12500000000E+03 0.  0.
<mgrwt>
<rscale>  0 0.12500000E+03</rscale>
<asrwt>0</asrwt>
<pdfrwt beam="1">  1       21 0.38935041E-03 0.12500000E+03</pdfrwt>
<pdfrwt beam="2">  1       21 0.23746122E+00 0.12500000E+03</pdfrwt>
<totfact> 0.13323887E+06</totfact>
</mgrwt>
</event>
<event>
 3    1  0.1620993E-001  0.1250000E+03  0.7546771E-02  0.1235069E+00
         21   -1    0    0  502  501  0.00000000000E+00  0.00000000000E+00  0.17416073017E+02  0.17416073017E+02  0.00000000000E+00 0. -1.
         21   -1    0    0  501  502 -0.00000000000E+00 -0.00000000000E+00 -0.22428994161E+03  0.22428994161E+03  0.00000000000E+00 0. -1.
         25    1    1    2    0    0  0.00000000000E+00  0.00000000000E+00 -0.20687386859E+03  0.24170601463E+03  0.12500000000E+03 0.  0.
<mgrwt>
<rscale>  0 0.12500000E+03</rscale>
<asrwt>0</asrwt>
<pdfrwt beam="1">  1       21 0.26793960E-02 0.12500000E+03</pdfrwt>
<pdfrwt beam="2">  1       21 0.34506143E-01 0.12500000E+03</pdfrwt>
<totfact> 0.60667966E+06</totfact>
</mgrwt>
</event>
<event>
 3    1  0.1620993E-001  0.1250000E+03  0.7546771E-02  0.1235069E+00
         21   -1    0    0  502  501  0.00000000000E+00  0.00000000000E+00  0.70986627686E+02  0.70986627686E+02  0.00000000000E+00 0.  1.
         21   -1    0    0  501  502 -0.00000000000E+00 -0.00000000000E+00 -0.55027969737E+02  0.55027969737E+02  0.00000000000E+00 0.  1.
         25    1    1    2    0    0  0.00000000000E+00  0.00000000000E+00  0.15958657949E+02  0.12601459742E+03  0.12500000000E+03 0.  0.
<mgrwt>
<rscale>  0 0.12500000E+03</rscale>
<asrwt>0</asrwt>
<pdfrwt beam="1">  1       21 0.10921020E-01 0.12500000E+03</pdfrwt>
<pdfrwt beam="2">  1       21 0.84658415E-02 0.12500000E+03</pdfrwt>
<totfact> 0.73904026E+06</totfact>
</mgrwt>
</event>
<event>
 3    1  0.1620993E-001  0.1250000E+03  0.7546771E-02  0.1235069E+00
         21   -1    0    0  502  501  0.00000000000E+00  0.00000000000E+00  0.31406954667E+03  0.31406954667E+03  0.00000000000E+00 0. -1.
         21   -1    0    0  501  502 -0.00000000000E+00 -0.00000000000E+00 -0.12437531882E+02  0.12437531882E+02  0.00000000000E+00 0. -1.
         25    1    1    2    0    0  0.00000000000E+00  0.00000000000E+00  0.30163201479E+03  0.32650707855E+03  0.12500000000E+03 0.  0.
<mgrwt>
<rscale>  0 0.12500000E+03</rscale>
<asrwt>0</asrwt>
<pdfrwt beam="1">  1       21 0.48318386E-01 0.12500000E+03</pdfrwt>
<pdfrwt beam="2">  1       21 0.19134667E-02 0.12500000E+03</pdfrwt>
<totfact> 0.53321688E+06</totfact>
</mgrwt>
</event>
<event>
 3    1  0.1620993E-001  0.1250000E+03  0.7546771E-02  0.1235069E+00
         21   -1    0    0  502  501  0.00000000000E+00  0.00000000000E+00  0.26743832747E+03  0.26743832747E+03  0.00000000000E+00 0.  1.
         21   -1    0    0  501  502 -0.00000000000E+00 -0.00000000000E+00 -0.14606171213E+02  0.14606171213E+02  0.00000000000E+00 0.  1.
         25    1    1    2    0    0  0.00000000000E+00  0.00000000000E+00  0.25283215626E+03  0.28204449869E+03  0.12500000000E+03 0.  0.
<mgrwt>
<rscale>  0 0.12500000E+03</rscale>
<asrwt>0</asrwt>
<pdfrwt beam="1">  1       21 0.41144354E-01 0.12500000E+03</pdfrwt>
<pdfrwt beam="2">  1       21 0.22471035E-02 0.12500000E+03</pdfrwt>
<totfact> 0.56982158E+06</totfact>
</mgrwt>
</event>
<event>
 3    1  0.1620993E-001  0.1250000E+03  0.7546771E-02  0.1235069E+00
         21   -1    0    0  502  501  0.00000000000E+00  0.00000000000E+00  0.13343920145E+03  0.13343920145E+03  0.00000000000E+00 0.  1.
         21   -1    0    0  501  502 -0.00000000000E+00 -0.00000000000E+00 -0.29273631417E+02  0.29273631417E+02  0.00000000000E+00 0.  1.
         25    1    1    2    0    0  0.00000000000E+00  0.00000000000E+00  0.10416557004E+03  0.16271283287E+03  0.12500000000E+03 0.  0.
<mgrwt>
<rscale>  0 0.12500000E+03</rscale>
<asrwt>0</asrwt>
<pdfrwt beam="1">  1       21 0.20529107E-01 0.12500000E+03</pdfrwt>
<pdfrwt beam="2">  1       21 0.45036357E-02 0.12500000E+03</pdfrwt>
<totfact> 0.69189527E+06</totfact>
</mgrwt>
</event>
<event>
 3    1  0.1620993E-001  0.1250000E+03  0.7546771E-02  0.1235069E+00
         21   -1    0    0  502  501  0.00000000000E+00  0.00000000000E+00  0.25141024712E+01  0.25141024712E+01  0.00000000000E+00 0.  1.
         21   -1    0    0  501  502 -0.00000000000E+00 -0.00000000000E+00 -0.15537353965E+04  0.15537353965E+04  0.00000000000E+00 0.  1.
         25    1    1    2    0    0  0.00000000000E+00  0.00000000000E+00 -0.15512212941E+04  0.15562494990E+04  0.12500000000E+03 0.  0.
<mgrwt>
<rscale>  0 0.12500000E+03</rscale>
<asrwt>0</asrwt>
<pdfrwt beam="1">  1       21 0.38678504E-03 0.12500000E+03</pdfrwt>
<pdfrwt beam="2">  1       21 0.23903619E+00 0.12500000E+03</pdfrwt>
<totfact> 0.13179043E+06</totfact>
</mgrwt>
</event>
<event>
 3    1  0.1620993E-001  0.1250000E+03  0.7546771E-02  0.1235069E+00
         21   -1    0    0  502  501  0.00000000000E+00  0.00000000000E+00  0.43568748854E+02  0.43568748854E+02  0.00000000000E+00 0.  1.
         21   -1    0    0  501  502 -0.00000000000E+00 -0.00000000000E+00 -0.89657153412E+02  0.89657153412E+02  0.00000000000E+00 0.  1.
         25    1    1    2    0    0  0.00000000000E+00  0.00000000000E+00 -0.46088404558E+02  0.13322590227E+03  0.12500000000E+03 0.  0.
<mgrwt>
<rscale>  0 0.12500000E+03</rscale>
<asrwt>0</asrwt>
<pdfrwt beam="1">  1       21 0.67028845E-02 0.12500000E+03</pdfrwt>
<pdfrwt beam="2">  1       21 0.13793408E-01 0.12500000E+03</pdfrwt>
<totfact> 0.72932247E+06</totfact>
</mgrwt>
</event>
<event>
 3    1  0.1620993E-001  0.1250000E+03  0.7546771E-02  0.1235069E+00
         21   -1    0    0  502  501  0.00000000000E+00  0.00000000000E+00  0.12921949189E+02  0.12921949189E+02  0.00000000000E+00 0.  1.
         21   -1    0    0  501  502 -0.00000000000E+00 -0.00000000000E+00 -0.30229572511E+03  0.30229572511E+03  0.00000000000E+00 0.  1.
         25    1    1    2    0    0  0.00000000000E+00  0.00000000000E+00 -0.28937377592E+03  0.31521767430E+03  0.12500000000E+03 0.  0.
<mgrwt>
<rscale>  0 0.12500000E+03</rscale>
<asrwt>0</asrwt>
<pdfrwt beam="1">  1       21 0.19879923E-02 0.12500000E+03</pdfrwt>
<pdfrwt beam="2">  1       21 0.46507033E-01 0.12500000E+03</pdfrwt>
<totfact> 0.54214507E+06</totfact>
</mgrwt>
</event>
<event>
 3    1  0.1620993E-001  0.1250000E+03  0.7546771E-02  0.1235069E+00
         21   -1    0    0  502  501  0.00000000000E+00  0.00000000000E+00  0.24544306085E+03  0.24544306085E+03  0.00000000000E+00 0. -1.
         21   -1    0    0  501  502 -0.00000000000E+00 -0.00000000000E+00 -0.15915096506E+02  0.15915096506E+02  0.00000000000E+00 0. -1.
         25    1    1    2    0    0  0.00000000000E+00  0.00000000000E+00  0.22952796434E+03  0.26135815735E+03  0.12500000000E+03 0.  0.
<mgrwt>
<rscale>  0 0.12500000E+03</rscale>
<asrwt>0</asrwt>
<pdfrwt beam="1">  1       21 0.37760468E-01 0.12500000E+03</pdfrwt>
<pdfrwt beam="2">  1       21 0.24484766E-02 0.12500000E+03</pdfrwt>
<totfact> 0.58825013E+06</totfact>
</mgrwt>
</event>
<event>
 3    1  0.1620993E-001  0.1250000E+03  0.7546771E-02  0.1235069E+00
         21   -1    0    0  502  501  0.00000000000E+00  0.00000000000E+00  0.21371093132E+02  0.21371093132E+02  0.00000000000E+00 0.  1.
         21   -1    0    0  501  502 -0.00000000000E+00 -0.00000000000E+00 -0.18278194643E+03  0.18278194643E+03  0.00000000000E+00 0.  1.
         25    1    1    2    0    0  0.00000000000E+00  0.00000000000E+00 -0.16141085329E+03  0.20415303956E+03  0.12500000000E+03 0.  0.
<mgrwt>
<rscale>  0 0.12500000E+03</rscale>
<asrwt>0</asrwt>
<pdfrwt beam="1">  1       21 0.32878606E-02 0.12500000E+03</pdfrwt>
<pdfrwt beam="2">  1       21 0.28120298E-01 0.12500000E+03</pdfrwt>
<totfact> 0.64480002E+06</totfact>
</mgrwt>
</event>
<event>
 3    1  0.1620993E-001  0.1250000E+03  0.7546771E-02  0.1235069E+00
         21   -1    0    0  502  501  0.00000000000E+00  0.00000000000E+00  0.10022551237E+03  0.10022551237E+03  0.00000000000E+00 0.  1.
         21   -1    0    0  501  502 -0.00000000000E+00 -0.00000000000E+00 -0.38974607439E+02  0.38974607439E+02  0.00000000000E+00 0.  1.
         25    1    1    2    0    0  0.00000000000E+00  0.00000000000E+00  0.61250904931E+02  0.13920011981E+03  0.12500000000E+03 0.  0.
<mgrwt>
<rscale>  0 0.12500000E+03</rscale>
<asrwt>0</asrwt>
<pdfrwt beam="1">  1       21 0.15419310E-01 0.12500000E+03</pdfrwt>
<pdfrwt beam="2">  1       21 0.59960935E-02 0.12500000E+03</pdfrwt>
<totfact> 0.72143903E+06</totfact>
</mgrwt>
</event>
<event>
 3    1  0.1620993E-001  0.1250000E+03  0.7546771E-02  0.1235069E+00
         21   -1    0    0  502  501  0.00000000000E+00  0.00000000000E+00  0.20712373672E+02  0.20712373672E+02  0.00000000000E+00 0. -1.
         21   -1    0    0  501  502 -0.00000000000E+00 -0.00000000000E+00 -0.18859499456E+03  0.18859499456E+03  0.00000000000E+00 0. -1.
         25    1    1    2    0    0  0.00000000000E+00  0.00000000000E+00 -0.16788262089E+03  0.20930736823E+03  0.12500000000E+03 0.  0.
<mgrwt>
<rscale>  0 0.12500000E+03</rscale>
<asrwt>0</asrwt>
<pdfrwt beam="1">  1       21 0.31865190E-02 0.12500000E+03</pdfrwt>
<pdfrwt beam="2">  1       21 0.29014615E-01 0.12500000E+03</pdfrwt>
<totfact> 0.63932482E+06</totfact>
</mgrwt>
</event>
<event>
 3    1  0.1620993E-001  0.1250000E+03  0.7546771E-02  0.1235069E+00
         21   -1    0    0  502  501  0.00000000000E+00  0.00000000000E+00  0.36085548400E+03  0.36085548400E+03  0.00000000000E+00 0. -1.
         21   -1    0    0  501  502 -0.00000000000E+00 -0.00000000000E+00 -0.10824970586E+02  0.10824970586E+02  0.00000000000E+00 0. -1.
         25    1    1    2    0    0  0.00000000000E+00  0.00000000000E+00  0.35003051342E+03  0.37168045459E+03  0.12500000000E+03 0.  0.
<mgrwt>
<rscale>  0 0.12500000E+03</rscale>
<asrwt>0</asrwt>
<pdfrwt beam="1">  1       21 0.55516219E-01 0.12500000E+03</pdfrwt>
<pdfrwt beam="2">  1       21 0.16653804E-02 0.12500000E+03</pdfrwt>
<totfact> 0.49976056E+06</totfact>
</mgrwt>
</event>
<event>
 3    1  0.1620993E-001  0.1250000E+03  0.7546771E-02  0.1235069E+00
         21   -1    0    0  502  501  0.00000000000E+00  0.00000000000E+00  0.19075240215E+03  0.19075240215E+03  0.00000000000E+00 0.  1.
         21   -1    0    0  501  502 -0.00000000000E+00 -0.00000000000E+00 -0.20478116951E+02  0.20478116951E+02  0.00000000000E+00 0.  1.
         25    1    1    2    0    0  0.00000000000E+00  0.00000000000E+00  0.17027428520E+03  0.21123051910E+03  0.12500000000E+03 0.  0.
<mgrwt>
<rscale>  0 0.12500000E+03</rscale>
<asrwt>0</asrwt>
<pdfrwt beam="1">  1       21 0.29346522E-01 0.12500000E+03</pdfrwt>
<pdfrwt beam="2">  1       21 0.31504797E-02 0.12500000E+03</pdfrwt>
<totfact> 0.63730304E+06</totfact>
</mgrwt>
</event>
<event>
 3    1  0.1620993E-001  0.1250000E+03  0.7546771E-02  0.1235069E+00
         21   -1    0    0  502  501  0.00000000000E+00  0.00000000000E+00  0.32194949748E+04  0.32194949748E+04  0.00000000000E+00 0. -1.
         21   -1    0    0  501  502 -0.00000000000E+00 -0.00000000000E+00 -0.12133114139E+01  0.12133114139E+01  0.00000000000E+00 0. -1.
         25    1    1    2    0    0  0.00000000000E+00  0.00000000000E+00  0.32182816634E+04  0.32207082862E+04  0.12500000000E+03 0.  0.
<mgrwt>
<rscale>  0 0.12500000E+03</rscale>
<asrwt>0</asrwt>
<pdfrwt beam="1">  1       21 0.49530008E+00 0.12500000E+03</pdfrwt>
<pdfrwt beam="2">  1       21 0.18666587E-03 0.12500000E+03</pdfrwt>
<totfact> 0.11361728E+05</totfact>
</mgrwt>
</event>
<event>
 3    1  0.1620993E-001  0.1250000E+03  0.7546771E-02  0.1235069E+00
         21   -1    0    0  502  501  0.00000000000E+00  0.00000000000E+00  0.56909000457E+01  0.56909000457E+01  0.00000000000E+00 0.  1.
         21   -1    0    0  501  502 -0.00000000000E+00 -0.00000000000E+00 -0.68640284817E+03  0.68640284817E+03  0.00000000000E+00 0.  1.
         25    1    1    2    0    0  0.00000000000E+00  0.00000000000E+00 -0.68071194813E+03  0.69209374822E+03  0.12500000000E+03 0.  0.
<mgrwt>
<rscale>  0 0.12500000E+03</rscale>
<asrwt>0</asrwt>
<pdfrwt beam="1">  1       21 0.87552264E-03 0.12500000E+03</pdfrwt>
<pdfrwt beam="2">  1       21 0.10560049E+00 0.12500000E+03</pdfrwt>
<totfact> 0.33217174E+06</totfact>
</mgrwt>
</event>
<event>
 3    1  0.1620993E-001  0.1250000E+03  0.7546771E-02  0.1235069E+00
         21   -1    0    0  502  501  0.00000000000E+00  0.00000000000E+00  0.90283723875E+02  0.90283723875E+02  0.00000000000E+00 0.  1.
         21   -1    0    0  501  502 -0.00000000000E+00 -0.00000000000E+00 -0.43266381052E+02  0.43266381052E+02  0.00000000000E+00 0.  1.
         25    1    1    2    0    0  0.00000000000E+00  0.00000000000E+00  0.47017342823E+02  0.13355010493E+03  0.12500000000E+03 0.  0.
<mgrwt>
<rscale>  0 0.12500000E+03</rscale>
<asrwt>0</asrwt>
<pdfrwt beam="1">  1       21 0.13889804E-01 0.12500000E+03</pdfrwt>
<pdfrwt beam="2">  1       21 0.66563663E-02 0.12500000E+03</pdfrwt>
<totfact> 0.72889028E+06</totfact>
</mgrwt>
</event>
<event>
 3    1  0.1620993E-001  0.1250000E+03  0.7546771E-02  0.1235069E+00
         21   -1    0    0  502  501  0.00000000000E+00  0.00000000000E+00  0.80753128319E+03  0.80753128319E+03  0.00000000000E+00 0.  1.
         21   -1    0    0  501  502 -0.00000000000E+00 -0.00000000000E+00 -0.48372739005E+01  0.48372739005E+01  0.00000000000E+00 0.  1.
         25    1    1    2    0    0  0.00000000000E+00  0.00000000000E+00  0.80269400929E+03  0.81236855709E+03  0.12500000000E+03 0.  0.
<mgrwt>
<rscale>  0 0.12500000E+03</rscale>
<asrwt>0</asrwt>
<pdfrwt beam="1">  1       21 0.12423548E+00 0.12500000E+03</pdfrwt>
<pdfrwt beam="2">  1       21 0.74419662E-03 0.12500000E+03</pdfrwt>
<totfact> 0.28957114E+06</totfact>
</mgrwt>
</event>
<event>
 3    1  0.1620993E-001  0.1250000E+03  0.7546771E-02  0.1235069E+00
         21   -1    0    0  502  501  0.00000000000E+00  0.00000000000E+00  0.33814428548E+03  0.33814428548E+03  0.00000000000E+00 0.  1.
         21   -1    0    0  501  502 -0.00000000000E+00 -0.00000000000E+00 -0.11552021335E+02  0.11552021335E+02  0.00000000000E+00 0.  1.
         25    1    1    2    0    0  0.00000000000E+00  0.00000000000E+00  0.32659226414E+03  0.34969630681E+03  0.12500000000E+03 0.  0.
<mgrwt>
<rscale>  0 0.12500000E+03</rscale>
<asrwt>0</asrwt>
<pdfrwt beam="1">  1       21 0.52022190E-01 0.12500000E+03</pdfrwt>
<pdfrwt beam="2">  1       21 0.17772343E-02 0.12500000E+03</pdfrwt>
<totfact> 0.51560871E+06</totfact>
</mgrwt>
</event>
<event>
 3    1  0.1620993E-001  0.1250000E+03  0.7546771E-02  0.1235069E+00
         21   -1    0    0  502  501  0.00000000000E+00  0.00000000000E+00  0.67047292234E+02  0.67047292234E+02  0.00000000000E+00 0.  1.
         21   -1    0    0  501  502 -0.00000000000E+00 -0.00000000000E+00 -0.58261114951E+02  0.58261114951E+02  0.00000000000E+00 0.  1.
         25    1    1    2    0    0  0.00000000000E+00  0.00000000000E+00  0.87861772834E+01  0.12530840719E+03  0.12500000000E+03 0.  0.
<mgrwt>
<rscale>  0 0.12500000E+03</rscale>
<asrwt>0</asrwt>
<pdfrwt beam="1">  1       21 0.10314968E-01 0.12500000E+03</pdfrwt>
<pdfrwt beam="2">  1       21 0.89632484E-02 0.12500000E+03</pdfrwt>
<totfact> 0.74001937E+06</totfact>
</mgrwt>
</event>
<event>
 3    1  0.1620993E-001  0.1250000E+03  0.7546771E-02  0.1235069E+00
         21   -1    0    0  502  501  0.00000000000E+00  0.00000000000E+00  0.19968967899E+02  0.19968967899E+02  0.00000000000E+00 0. -1.
         21   -1    0    0  501  502 -0.00000000000E+00 -0.00000000000E+00 -0.19561601881E+03  0.19561601881E+03  0.00000000000E+00 0. -1.
         25    1    1    2    0    0  0.00000000000E+00  0.00000000000E+00 -0.17564705091E+03  0.21558498671E+03  0.12500000000E+03 0.  0.
<mgrwt>
<rscale>  0 0.12500000E+03</rscale>
<asrwt>0</asrwt>
<pdfrwt beam="1">  1       21 0.30721488E-02 0.12500000E+03</pdfrwt>
<pdfrwt beam="2">  1       21 0.30094773E-01 0.12500000E+03</pdfrwt>
<totfact> 0.63276679E+06</totfact>
</mgrwt>
</event>
<event>
 3    1  0.1620993E-001  0.1250000E+03  0.7546771E-02  0.1235069E+00
         21   -1    0    0  502  501  0.00000000000E+00  0.00000000000E+00  0.72313233732E+03  0.72313233732E+03  0.00000000000E+00 0.  1.
         21   -1    0    0  501  502 -0.00000000000E+00 -0.00000000000E+00 -0.54018466585E+01  0.54018466585E+01  0.00000000000E+00 0.  1.
         25    1    1    2    0    0  0.00000000000E+00  0.00000000000E+00  0.71773049066E+03  0.72853418398E+03  0.12500000000E+03 0.  0.
<mgrwt>
<rscale>  0 0.12500000E+03</rscale>
<asrwt>0</asrwt>
<pdfrwt beam="1">  1       21 0.11125105E+00 0.12500000E+03</pdfrwt>
<pdfrwt beam="2">  1       21 0.83105391E-03 0.12500000E+03</pdfrwt>
<totfact> 0.31838663E+06</totfact>
</mgrwt>
</event>
<event>
 3    1  0.1620993E-001  0.1250000E+03  0.7546771E-02  0.1235069E+00
         21   -1    0    0  502  501  0.00000000000E+00  0.00000000000E+00  0.13823940363E+02  0.13823940363E+02  0.00000000000E+00 0.  1.
         21   -1    0    0  501  502 -0.00000000000E+00 -0.00000000000E+00 -0.28257138685E+03  0.28257138685E+03  0.00000000000E+00 0.  1.
         25    1    1    2    0    0  0.00000000000E+00  0.00000000000E+00 -0.26874744649E+03  0.29639532721E+03  0.12500000000E+03 0.  0.
<mgrwt>
<rscale>  0 0.12500000E+03</rscale>
<asrwt>0</asrwt>
<pdfrwt beam="1">  1       21 0.21267601E-02 0.12500000E+03</pdfrwt>
<pdfrwt beam="2">  1       21 0.43472520E-01 0.12500000E+03</pdfrwt>
<totfact> 0.55757073E+06</totfact>
</mgrwt>
</event>
<event>
 3    1  0.1620993E-001  0.1250000E+03  0.7546771E-02  0.1235069E+00
         21   -1    0    0  502  501  0.00000000000E+00  0.00000000000E+00  0.24583622032E+02  0.24583622032E+02  0.00000000000E+00 0.  1.
         21   -1    0    0  501  502 -0.00000000000E+00 -0.00000000000E+00 -0.15889643906E+03  0.15889643906E+03  0.00000000000E+00 0.  1.
         25    1    1    2    0    0  0.00000000000E+00  0.00000000000E+00 -0.13431281702E+03  0.18348006109E+03  0.12500000000E+03 0.  0.
<mgrwt>
<rscale>  0 0.12500000E+03</rscale>
<asrwt>0</asrwt>
<pdfrwt beam="1">  1       21 0.37820957E-02 0.12500000E+03</pdfrwt>
<pdfrwt beam="2">  1       21 0.24445606E-01 0.12500000E+03</pdfrwt>
<totfact> 0.66754540E+06</totfact>
</mgrwt>
</event>
<event>
 3    1  0.1620993E-001  0.1250000E+03  0.7546771E-02  0.1235069E+00
         21   -1    0    0  502  501  0.00000000000E+00  0.00000000000E+00  0.13574831859E+02  0.13574831859E+02  0.00000000000E+00 0.  1.
         21   -1    0    0  501  502 -0.00000000000E+00 -0.00000000000E+00 -0.28775678701E+03  0.28775678701E+03  0.00000000000E+00 0.  1.
         25    1    1    2    0    0  0.00000000000E+00  0.00000000000E+00 -0.27418195515E+03  0.30133161887E+03  0.12500000000E+03 0.  0.
<mgrwt>
<rscale>  0 0.12500000E+03</rscale>
<asrwt>0</asrwt>
<pdfrwt beam="1">  1       21 0.20884356E-02 0.12500000E+03</pdfrwt>
<pdfrwt beam="2">  1       21 0.44270277E-01 0.12500000E+03</pdfrwt>
<totfact> 0.55345691E+06</totfact>
</mgrwt>
</event>
<event>
 3    1  0.1620993E-001  0.1250000E+03  0.7546771E-02  0.1235069E+00
         21   -1    0    0  502  501  0.00000000000E+00  0.00000000000E+00  0.10445192470E+02  0.10445192470E+02  0.00000000000E+00 0. -1.
         21   -1    0    0  501  502 -0.00000000000E+00 -0.00000000000E+00 -0.37397587563E+03  0.37397587563E+03  0.00000000000E+00 0. -1.
         25    1    1    2    0    0  0.00000000000E+00  0.00000000000E+00 -0.36353068316E+03  0.38442106810E+03  0.12500000000E+03 0.  0.
<mgrwt>
<rscale>  0 0.12500000E+03</rscale>
<asrwt>0</asrwt>
<pdfrwt beam="1">  1       21 0.16069526E-02 0.12500000E+03</pdfrwt>
<pdfrwt beam="2">  1       21 0.57534752E-01 0.12500000E+03</pdfrwt>
<totfact> 0.49092144E+06</totfact>
</mgrwt>
</event>
<event>
 3    1  0.1620993E-001  0.1250000E+03  0.7546771E-02  0.1235069E+00
         21   -1    0    0  502  501  0.00000000000E+00  0.00000000000E+00  0.11175839207E+03  0.11175839207E+03  0.00000000000E+00 0. -1.
         21   -1    0    0  501  502 -0.00000000000E+00 -0.00000000000E+00 -0.34952632438E+02  0.34952632438E+02  0.00000000000E+00 0. -1.
         25    1    1    2    0    0  0.00000000000E+00  0.00000000000E+00  0.76805759637E+02  0.14671102451E+03  0.12500000000E+03 0.  0.
<mgrwt>
<rscale>  0 0.12500000E+03</rscale>
<asrwt>0</asrwt>
<pdfrwt beam="1">  1       21 0.17193599E-01 0.12500000E+03</pdfrwt>
<pdfrwt beam="2">  1       21 0.53773281E-02 0.12500000E+03</pdfrwt>
<totfact> 0.71174844E+06</totfact>
</mgrwt>
</event>
<event>
 3    1  0.1620993E-001  0.1250000E+03  0.7546771E-02  0.1235069E+00
         21   -1    0    0  502  501  0.00000000000E+00  0.00000000000E+00  0.12093179144E+04  0.12093179144E+04  0.00000000000E+00 0. -1.
         21   -1    0    0  501  502 -0.00000000000E+00 -0.00000000000E+00 -0.32301266304E+01  0.32301266304E+01  0.00000000000E+00 0. -1.
         25    1    1    2    0    0  0.00000000000E+00  0.00000000000E+00  0.12060877878E+04  0.12125480410E+04  0.12500000000E+03 0.  0.
<mgrwt>
<rscale>  0 0.12500000E+03</rscale>
<asrwt>0</asrwt>
<pdfrwt beam="1">  1       21 0.18604855E+00 0.12500000E+03</pdfrwt>
<pdfrwt beam="2">  1       21 0.49694353E-03 0.12500000E+03</pdfrwt>
<totfact> 0.18895136E+06</totfact>
</mgrwt>
</event>
<event>
 3    1  0.1620993E-001  0.1250000E+03  0.7546771E-02  0.1235069E+00
         21   -1    0    0  502  501  0.00000000000E+00  0.00000000000E+00  0.19002600920E+03  0.19002600920E+03  0.00000000000E+00 0.  1.
         21   -1    0    0  501  502 -0.00000000000E+00 -0.00000000000E+00 -0.20556396550E+02  0.20556396550E+02  0.00000000000E+00 0.  1.
         25    1    1    2    0    0  0.00000000000E+00  0.00000000000E+00  0.16946961265E+03  0.21058240575E+03  0.12500000000E+03 0.  0.
<mgrwt>
<rscale>  0 0.12500000E+03</rscale>
<asrwt>0</asrwt>
<pdfrwt beam="1">  1       21 0.29234769E-01 0.12500000E+03</pdfrwt>
<pdfrwt beam="2">  1       21 0.31625227E-02 0.12500000E+03</pdfrwt>
<totfact> 0.63798313E+06</totfact>
</mgrwt>
</event>
<event>
 3    1  0.1620993E-001  0.1250000E+03  0.7546771E-02  0.1235069E+00
         21   -1    0    0  502  501  0.00000000000E+00  0.00000000000E+00  0.71401797614E+02  0.71401797614E+02  0.00000000000E+00 0. -1.
         21   -1    0    0  501  502 -0.00000000000E+00 -0.00000000000E+00 -0.54708006389E+02  0.54708006389E+02  0.00000000000E+00 0. -1.
         25    1    1    2    0    0  0.00000000000E+00  0.00000000000E+00  0.16693791225E+02  0.12610980400E+03  0.12500000000E+03 0.  0.
<mgrwt>
<rscale>  0 0.12500000E+03</rscale>
<asrwt>0</asrwt>
<pdfrwt beam="1">  1       21 0.10984892E-01 0.12500000E+03</pdfrwt>
<pdfrwt beam="2">  1       21 0.84166164E-02 0.12500000E+03</pdfrwt>
<totfact> 0.73890913E+06</totfact>
</mgrwt>
</event>
<event>
 3    1  0.1620993E-001  0.1250000E+03  0.7546771E-02  0.1235069E+00
         21   -1    0    0  502  501  0.00000000000E+00  0.00000000000E+00  0.12519060310E+03  0.12519060310E+03  0.00000000000E+00 0.  1.
         21   -1    0    0  501  502 -0.00000000000E+00 -0.00000000000E+00 -0.31202421772E+02  0.31202421772E+02  0.00000000000E+00 0.  1.
         25    1    1    2    0    0  0.00000000000E+00  0.00000000000E+00  0.93988181332E+02  0.15639302488E+03  0.12500000000E+03 0.  0.
<mgrwt>
<rscale>  0 0.12500000E+03</rscale>
<asrwt>0</asrwt>
<pdfrwt beam="1">  1       21 0.19260093E-01 0.12500000E+03</pdfrwt>
<pdfrwt beam="2">  1       21 0.48003726E-02 0.12500000E+03</pdfrwt>
<totfact> 0.69962936E+06</totfact>
</mgrwt>
</event>
<event>
 3    1  0.1620993E-001  0.1250000E+03  0.7546771E-02  0.1235069E+00
         21   -1    0    0  502  501  0.00000000000E+00  0.00000000000E+00  0.31294213998E+03  0.31294213998E+03  0.00000000000E+00 0.  1.
         21   -1    0    0  501  502 -0.00000000000E+00 -0.00000000000E+00 -0.12482339388E+02  0.12482339388E+02  0.00000000000E+00 0.  1.
         25    1    1    2    0    0  0.00000000000E+00  0.00000000000E+00  0.30045980059E+03  0.32542447936E+03  0.12500000000E+03 0.  0.
<mgrwt>
<rscale>  0 0.12500000E+03</rscale>
<asrwt>0</asrwt>
<pdfrwt beam="1">  1       21 0.48144939E-01 0.12500000E+03</pdfrwt>
<pdfrwt beam="2">  1       21 0.19203601E-02 0.12500000E+03</pdfrwt>
<totfact> 0.53406263E+06</totfact>
</mgrwt>
</event>
<event>
 3    1  0.1620993E-001  0.1250000E+03  0.7546771E-02  0.1235069E+00
         21   -1    0    0  502  501  0.00000000000E+00  0.00000000000E+00  0.37400181432E+03  0.37400181432E+03  0.00000000000E+00 0. -1.
         21   -1    0    0  501  502 -0.00000000000E+00 -0.00000000000E+00 -0.10444468049E+02  0.10444468049E+02  0.00000000000E+00 0. -1.
         25    1    1    2    0    0  0.00000000000E+00  0.00000000000E+00  0.36355734627E+03  0.38444628237E+03  0.12500000000E+03 0.  0.
<mgrwt>
<rscale>  0 0.12500000E+03</rscale>
<asrwt>0</asrwt>
<pdfrwt beam="1">  1       21 0.57538730E-01 0.12500000E+03</pdfrwt>
<pdfrwt beam="2">  1       21 0.16068415E-02 0.12500000E+03</pdfrwt>
<totfact> 0.49090420E+06</totfact>
</mgrwt>
</event>
<event>
 3    1  0.1620993E-001  0.1250000E+03  0.7546771E-02  0.1235069E+00
         21   -1    0    0  502  501  0.00000000000E+00  0.00000000000E+00  0.86123008256E+03  0.86123008256E+03  0.00000000000E+00 0. -1.
         21   -1    0    0  501  502 -0.00000000000E+00 -0.00000000000E+00 -0.45356636735E+01  0.45356636735E+01  0.00000000000E+00 0. -1.
         25    1    1    2    0    0  0.00000000000E+00  0.00000000000E+00  0.85669441889E+03  0.86576574624E+03  0.12500000000E+03 0.  0.
<mgrwt>
<rscale>  0 0.12500000E+03</rscale>
<asrwt>0</asrwt>
<pdfrwt beam="1">  1       21 0.13249681E+00 0.12500000E+03</pdfrwt>
<pdfrwt beam="2">  1       21 0.69779509E-03 0.12500000E+03</pdfrwt>
<totfact> 0.27296100E+06</totfact>
</mgrwt>
</event>
<event>
 3    1  0.1620993E-001  0.1250000E+03  0.7546771E-02  0.1235069E+00
         21   -1    0    0  502  501  0.00000000000E+00  0.00000000000E+00  0.52682455742E+02  0.52682455742E+02  0.00000000000E+00 0.  1.
         21   -1    0    0  501  502 -0.00000000000E+00 -0.00000000000E+00 -0.74147075056E+02  0.74147075056E+02  0.00000000000E+00 0.  1.
         25    1    1    2    0    0  0.00000000000E+00  0.00000000000E+00 -0.21464619314E+02  0.12682953080E+03  0.12500000000E+03 0.  0.
<mgrwt>
<rscale>  0 0.12500000E+03</rscale>
<asrwt>0</asrwt>
<pdfrwt beam="1">  1       21 0.81049932E-02 0.12500000E+03</pdfrwt>
<pdfrwt beam="2">  1       21 0.11407242E-01 0.12500000E+03</pdfrwt>
<totfact> 0.73792361E+06</totfact>
</mgrwt>
</event>
<event>
 3    1  0.1620993E-001  0.1250000E+03  0.7546771E-02  0.1235069E+00
         21   -1    0    0  502  501  0.00000000000E+00  0.00000000000E+00  0.55234939277E+02  0.55234939277E+02  0.00000000000E+00 0.  1.
         21   -1    0    0  501  502 -0.00000000000E+00 -0.00000000000E+00 -0.70720635365E+02  0.70720635365E+02  0.00000000000E+00 0.  1.
         25    1    1    2    0    0  0.00000000000E+00  0.00000000000E+00 -0.15485696088E+02  0.12595557464E+03  0.12500000000E+03 0.  0.
<mgrwt>
<rscale>  0 0.12500000E+03</rscale>
<asrwt>0</asrwt>
<pdfrwt beam="1">  1       21 0.84976830E-02 0.12500000E+03</pdfrwt>
<pdfrwt beam="2">  1       21 0.10880098E-01 0.12500000E+03</pdfrwt>
<totfact> 0.73912167E+06</totfact>
</mgrwt>
</event>
<event>
 3    1  0.1620993E-001  0.1250000E+03  0.7546771E-02  0.1235069E+00
         21   -1    0    0  502  501  0.00000000000E+00  0.00000000000E+00  0.82581032088E+01  0.82581032088E+01  0.00000000000E+00 0. -1.
         21   -1    0    0  501  502 -0.00000000000E+00 -0.00000000000E+00 -0.47302024463E+03  0.47302024463E+03  0.00000000000E+00 0. -1.
         25    1    1    2    0    0  0.00000000000E+00  0.00000000000E+00 -0.46476214142E+03  0.48127834784E+03  0.12500000000E+03 0.  0.
<mgrwt>
<rscale>  0 0.12500000E+03</rscale>
<asrwt>0</asrwt>
<pdfrwt beam="1">  1       21 0.12704773E-02 0.12500000E+03</pdfrwt>
<pdfrwt beam="2">  1       21 0.72772354E-01 0.12500000E+03</pdfrwt>
<totfact> 0.43077929E+06</totfact>
</mgrwt>
</event>
<event>
 3    1  0.1620993E-001  0.1250000E+03  0.7546771E-02  0.1235069E+00
         21   -1    0    0  502  501  0.00000000000E+00  0.00000000000E+00  0.98458276504E+03  0.98458276504E+03  0.00000000000E+00 0.  1.
         21   -1    0    0  501  502 -0.00000000000E+00 -0.00000000000E+00 -0.39674165938E+01  0.39674165938E+01  0.00000000000E+00 0.  1.
         25    1    1    2    0    0  0.00000000000E+00  0.00000000000E+00  0.98061534844E+03  0.98855018163E+03  0.12500000000E+03 0.  0.
<mgrwt>
<rscale>  0 0.12500000E+03</rscale>
<asrwt>0</asrwt>
<pdfrwt beam="1">  1       21 0.15147408E+00 0.12500000E+03</pdfrwt>
<pdfrwt beam="2">  1       21 0.61037257E-03 0.12500000E+03</pdfrwt>
<totfact> 0.23906909E+06</totfact>
</mgrwt>
</event>
<event>
 3    1  0.1620993E-001  0.1250000E+03  0.7546771E-02  0.1235069E+00
         21   -1    0    0  502  501  0.00000000000E+00  0.00000000000E+00  0.14035066953E+03  0.14035066953E+03  0.00000000000E+00 0. -1.
         21   -1    0    0  501  502 -0.00000000000E+00 -0.00000000000E+00 -0.27832072430E+02  0.27832072430E+02  0.00000000000E+00 0. -1.
         25    1    1    2    0    0  0.00000000000E+00  0.00000000000E+00  0.11251859710E+03  0.16818274196E+03  0.12500000000E+03 0.  0.
<mgrwt>
<rscale>  0 0.12500000E+03</rscale>
<asrwt>0</asrwt>
<pdfrwt beam="1">  1       21 0.21592410E-01 0.12500000E+03</pdfrwt>
<pdfrwt beam="2">  1       21 0.42818574E-02 0.12500000E+03</pdfrwt>
<totfact> 0.68533219E+06</totfact>
</mgrwt>
</event>
<event>
 3    1  0.1620993E-001  0.1250000E+03  0.7546771E-02  0.1235069E+00
         21   -1    0    0  502  501  0.00000000000E+00  0.00000000000E+00  0.20090660883E+02  0.20090660883E+02  0.00000000000E+00 0.  1.
         21   -1    0    0  501  502 -0.00000000000E+00 -0.00000000000E+00 -0.19443113508E+03  0.19443113508E+03  0.00000000000E+00 0.  1.
         25    1    1    2    0    0  0.00000000000E+00  0.00000000000E+00 -0.17434047420E+03  0.21452179596E+03  0.12500000000E+03 0.  0.
<mgrwt>
<rscale>  0 0.12500000E+03</rscale>
<asrwt>0</asrwt>
<pdfrwt beam="1">  1       21 0.30908709E-02 0.12500000E+03</pdfrwt>
<pdfrwt beam="2">  1       21 0.29912483E-01 0.12500000E+03</pdfrwt>
<totfact> 0.63386909E+06</totfact>
</mgrwt>
</event>
<event>
 3    1  0.1620993E-001  0.1250000E+03  0.7546771E-02  0.1235069E+00
         21   -1    0    0  502  501  0.00000000000E+00  0.00000000000E+00  0.63736607229E+02  0.63736607229E+02  0.00000000000E+00 0. -1.
         21   -1    0    0  501  502 -0.00000000000E+00 -0.00000000000E+00 -0.61287385222E+02  0.61287385222E+02  0.00000000000E+00 0. -1.
         25    1    1    2    0    0  0.00000000000E+00  0.00000000000E+00  0.24492220073E+01  0.12502399245E+03  0.12500000000E+03 0.  0.
<mgrwt>
<rscale>  0 0.12500000E+03</rscale>
<asrwt>0</asrwt>
<pdfrwt beam="1">  1       21 0.98056320E-02 0.12500000E+03</pdfrwt>
<pdfrwt beam="2">  1       21 0.94288284E-02 0.12500000E+03</pdfrwt>
<totfact> 0.74040341E+06</totfact>
</mgrwt>
</event>
<event>
 3    1  0.1620993E-001  0.1250000E+03  0.7546771E-02  0.1235069E+00
         21   -1    0    0  502  501  0.00000000000E+00  0.00000000000E+00  0.52973767566E+03  0.52973767566E+03  0.00000000000E+00 0. -1.
         21   -1    0    0  501  502 -0.00000000000E+00 -0.00000000000E+00 -0.73739327586E+01  0.73739327586E+01  0.00000000000E+00 0. -1.
         25    1    1    2    0    0  0.00000000000E+00  0.00000000000E+00  0.52236374290E+03  0.53711160842E+03  0.12500000000E+03 0.  0.
<mgrwt>
<rscale>  0 0.12500000E+03</rscale>
<asrwt>0</asrwt>
<pdfrwt beam="1">  1       21 0.81498074E-01 0.12500000E+03</pdfrwt>
<pdfrwt beam="2">  1       21 0.11344516E-02 0.12500000E+03</pdfrwt>
<totfact> 0.40100395E+06</totfact>
</mgrwt>
</event>
<event>
 3    1  0.1620993E-001  0.1250000E+03  0.7546771E-02  0.1235069E+00
         21   -1    0    0  502  501  0.00000000000E+00  0.00000000000E+00  0.12066871239E+03  0.12066871239E+03  0.00000000000E+00 0.  1.
         21   -1    0    0  501  502 -0.00000000000E+00 -0.00000000000E+00 -0.32371688755E+02  0.32371688755E+02  0.00000000000E+00 0.  1.
         25    1    1    2    0    0  0.00000000000E+00  0.00000000000E+00  0.88297023638E+02  0.15304040115E+03  0.12500000000E+03 0.  0.
<mgrwt>
<rscale>  0 0.12500000E+03</rscale>
<asrwt>0</asrwt>
<pdfrwt beam="1">  1       21 0.18564417E-01 0.12500000E+03</pdfrwt>
<pdfrwt beam="2">  1       21 0.49802599E-02 0.12500000E+03</pdfrwt>
<totfact> 0.70379328E+06</totfact>
</mgrwt>
</event>
<event>
 3    1  0.1620993E-001  0.1250000E+03  0.7546771E-02  0.1235069E+00
         21   -1    0    0  502  501  0.00000000000E+00  0.00000000000E+00  0.85080715588E+02  0.85080715588E+02  0.00000000000E+00 0. -1.
         21   -1    0    0  501  502 -0.00000000000E+00 -0.00000000000E+00 -0.45912284271E+02  0.45912284271E+02  0.00000000000E+00 0. -1.
         25    1    1    2    0    0  0.00000000000E+00  0.00000000000E+00  0.39168431317E+02  0.13099299986E+03  0.12500000000E+03 0.  0.
<mgrwt>
<rscale>  0 0.12500000E+03</rscale>
<asrwt>0</asrwt>
<pdfrwt beam="1">  1       21 0.13089341E-01 0.12500000E+03</pdfrwt>
<pdfrwt beam="2">  1       21 0.70634284E-02 0.12500000E+03</pdfrwt>
<totfact> 0.73231614E+06</totfact>
</mgrwt>
</event>
<event>
 3    1  0.1620993E-001  0.1250000E+03  0.7546771E-02  0.1235069E+00
         21   -1    0    0  502  501  0.00000000000E+00  0.00000000000E+00  0.70408742167E+02  0.70408742167E+02  0.00000000000E+00 0. -1.
         21   -1    0    0  501  502 -0.00000000000E+00 -0.00000000000E+00 -0.55479616306E+02  0.55479616306E+02  0.00000000000E+00 0. -1.
         25    1    1    2    0    0  0.00000000000E+00  0.00000000000E+00  0.14929125861E+02  0.12588835847E+03  0.12500000000E+03 0.  0.
<mgrwt>
<rscale>  0 0.12500000E+03</rscale>
<asrwt>0</asrwt>
<pdfrwt beam="1">  1       21 0.10832114E-01 0.12500000E+03</pdfrwt>
<pdfrwt beam="2">  1       21 0.85353256E-02 0.12500000E+03</pdfrwt>
<totfact> 0.73921449E+06</totfact>
</mgrwt>
</event>
<event>
 3    1  0.1620993E-001  0.1250000E+03  0.7546771E-02  0.1235069E+00
         21   -1    0    0  502  501  0.00000000000E+00  0.00000000000E+00  0.21505681251E+02  0.21505681251E+02  0.00000000000E+00 0. -1.
         21   -1    0    0  501  502 -0.00000000000E+00 -0.00000000000E+00 -0.18163804971E+03  0.18163804971E+03  0.00000000000E+00 0. -1.
         25    1    1    2    0    0  0.00000000000E+00  0.00000000000E+00 -0.16013236846E+03  0.20314373096E+03  0.12500000000E+03 0.  0.
<mgrwt>
<rscale>  0 0.12500000E+03</rscale>
<asrwt>0</asrwt>
<pdfrwt beam="1">  1       21 0.33085663E-02 0.12500000E+03</pdfrwt>
<pdfrwt beam="2">  1       21 0.27944316E-01 0.12500000E+03</pdfrwt>
<totfact> 0.64588191E+06</totfact>
</mgrwt>
</event>
<event>
 3    1  0.1620993E-001  0.1250000E+03  0.7546771E-02  0.1235069E+00
         21   -1    0    0  502  501  0.00000000000E+00  0.00000000000E+00  0.45628049391E+03  0.45628049391E+03  0.00000000000E+00 0.  1.
         21   -1    0    0  501  502 -0.00000000000E+00 -0.00000000000E+00 -0.85610716481E+01  0.85610716481E+01  0.00000000000E+00 0.  1.
         25    1    1    2    0    0  0.00000000000E+00  0.00000000000E+00  0.44771942226E+03  0.46484156556E+03  0.12500000000E+03 0.  0.
<mgrwt>
<rscale>  0 0.12500000E+03</rscale>
<asrwt>0</asrwt>
<pdfrwt beam="1">  1       21 0.70196980E-01 0.12500000E+03</pdfrwt>
<pdfrwt beam="2">  1       21 0.13170883E-02 0.12500000E+03</pdfrwt>
<totfact> 0.44017305E+06</totfact>
</mgrwt>
</event>
<event>
 3    1  0.1620993E-001  0.1250000E+03  0.7546771E-02  0.1235069E+00
         21   -1    0    0  502  501  0.00000000000E+00  0.00000000000E+00  0.11064332091E+04  0.11064332091E+04  0.00000000000E+00 0.  1.
         21   -1    0    0  501  502 -0.00000000000E+00 -0.00000000000E+00 -0.35304887524E+01  0.35304887524E+01  0.00000000000E+00 0.  1.
         25    1    1    2    0    0  0.00000000000E+00  0.00000000000E+00  0.11029027203E+04  0.11099636978E+04  0.12500000000E+03 0.  0.
<mgrwt>
<rscale>  0 0.12500000E+03</rscale>
<asrwt>0</asrwt>
<pdfrwt beam="1">  1       21 0.17022022E+00 0.12500000E+03</pdfrwt>
<pdfrwt beam="2">  1       21 0.54315300E-03 0.12500000E+03</pdfrwt>
<totfact> 0.21031210E+06</totfact>
</mgrwt>
</event>
<event>
 3    1  0.1620993E-001  0.1250000E+03  0.7546771E-02  0.1235069E+00
         21   -1    0    0  502  501  0.00000000000E+00  0.00000000000E+00  0.12602899426E+03  0.12602899426E+03  0.00000000000E+00 0. -1.
         21   -1    0    0  501  502 -0.00000000000E+00 -0.00000000000E+00 -0.30994851802E+02  0.30994851802E+02  0.00000000000E+00 0. -1.
         25    1    1    2    0    0  0.00000000000E+00  0.00000000000E+00  0.95034142461E+02  0.15702384607E+03  0.12500000000E+03 0.  0.
<mgrwt>
<rscale>  0 0.12500000E+03</rscale>
<asrwt>0</asrwt>
<pdfrwt beam="1">  1       21 0.19389076E-01 0.12500000E+03</pdfrwt>
<pdfrwt beam="2">  1       21 0.47684388E-02 0.12500000E+03</pdfrwt>
<totfact> 0.69884990E+06</totfact>
</mgrwt>
</event>
<event>
 3    1  0.1620993E-001  0.1250000E+03  0.7546771E-02  0.1235069E+00
         21   -1    0    0  502  501  0.00000000000E+00  0.00000000000E+00  0.61874049408E+03  0.61874049408E+03  0.00000000000E+00 0. -1.
         21   -1    0    0  501  502 -0.00000000000E+00 -0.00000000000E+00 -0.63132283039E+01  0.63132283039E+01  0.00000000000E+00 0. -1.
         25    1    1    2    0    0  0.00000000000E+00  0.00000000000E+00  0.61242726578E+03  0.62505372238E+03  0.12500000000E+03 0.  0.
<mgrwt>
<rscale>  0 0.12500000E+03</rscale>
<asrwt>0</asrwt>
<pdfrwt beam="1">  1       21 0.95190798E-01 0.12500000E+03</pdfrwt>
<pdfrwt beam="2">  1       21 0.97126638E-03 0.12500000E+03</pdfrwt>
<totfact> 0.35983584E+06</totfact>
</mgrwt>
</event>
<event>
 3    1  0.1620993E-001  0.1250000E+03  0.7546771E-02  0.1235069E+00
         21   -1    0    0  502  501  0.00000000000E+00  0.00000000000E+00  0.13931642285E+03  0.13931642285E+03  0.00000000000E+00 0. -1.
         21   -1    0    0  501  502 -0.00000000000E+00 -0.00000000000E+00 -0.28038690055E+02  0.28038690055E+02  0.00000000000E+00 0. -1.
         25    1    1    2    0    0  0.00000000000E+00  0.00000000000E+00  0.11127773280E+03  0.16735511291E+03  0.12500000000E+03 0.  0.
<mgrwt>
<rscale>  0 0.12500000E+03</rscale>
<asrwt>0</asrwt>
<pdfrwt beam="1">  1       21 0.21433295E-01 0.12500000E+03</pdfrwt>
<pdfrwt beam="2">  1       21 0.43136447E-02 0.12500000E+03</pdfrwt>
<totfact> 0.68631762E+06</totfact>
</mgrwt>
</event>
<event>
 3    1  0.1620993E-001  0.1250000E+03  0.7546771E-02  0.1235069E+00
         21   -1    0    0  502  501  0.00000000000E+00  0.00000000000E+00  0.68400994666E+02  0.68400994666E+02  0.00000000000E+00 0. -1.
         21   -1    0    0  501  502 -0.00000000000E+00 -0.00000000000E+00 -0.57108087668E+02  0.57108087668E+02  0.00000000000E+00 0. -1.
         25    1    1    2    0    0  0.00000000000E+00  0.00000000000E+00  0.11292906998E+02  0.12550908233E+03  0.12500000000E+03 0.  0.
<mgrwt>
<rscale>  0 0.12500000E+03</rscale>
<asrwt>0</asrwt>
<pdfrwt beam="1">  1       21 0.10523230E-01 0.12500000E+03</pdfrwt>
<pdfrwt beam="2">  1       21 0.87858597E-02 0.12500000E+03</pdfrwt>
<totfact> 0.73974127E+06</totfact>
</mgrwt>
</event>
<event>
 3    1  0.1620993E-001  0.1250000E+03  0.7546771E-02  0.1235069E+00
         21   -1    0    0  502  501  0.00000000000E+00  0.00000000000E+00  0.42611766871E+01  0.42611766871E+01  0.00000000000E+00 0. -1.
         21   -1    0    0  501  502 -0.00000000000E+00 -0.00000000000E+00 -0.91670688329E+03  0.91670688329E+03  0.00000000000E+00 0. -1.
         25    1    1    2    0    0  0.00000000000E+00  0.00000000000E+00 -0.91244570660E+03  0.92096805998E+03  0.12500000000E+03 0.  0.
<mgrwt>
<rscale>  0 0.12500000E+03</rscale>
<asrwt>0</asrwt>
<pdfrwt beam="1">  1       21 0.65556458E-03 0.12500000E+03</pdfrwt>
<pdfrwt beam="2">  1       21 0.14103206E+00 0.12500000E+03</pdfrwt>
<totfact> 0.25705074E+06</totfact>
</mgrwt>
</event>
<event>
 3    1  0.1620993E-001  0.1250000E+03  0.7546771E-02  0.1235069E+00
         21   -1    0    0  502  501  0.00000000000E+00  0.00000000000E+00  0.90152933640E+02  0.90152933640E+02  0.00000000000E+00 0. -1.
         21   -1    0    0  501  502 -0.00000000000E+00 -0.00000000000E+00 -0.43329150171E+02  0.43329150171E+02  0.00000000000E+00 0. -1.
         25    1    1    2    0    0  0.00000000000E+00  0.00000000000E+00  0.46823783469E+02  0.13348208381E+03  0.12500000000E+03 0.  0.
<mgrwt>
<rscale>  0 0.12500000E+03</rscale>
<asrwt>0</asrwt>
<pdfrwt beam="1">  1       21 0.13869682E-01 0.12500000E+03</pdfrwt>
<pdfrwt beam="2">  1       21 0.66660232E-02 0.12500000E+03</pdfrwt>
<totfact> 0.72898091E+06</totfact>
</mgrwt>
</event>
<event>
 3    1  0.1620993E-001  0.1250000E+03  0.7546771E-02  0.1235069E+00
         21   -1    0    0  502  501  0.00000000000E+00  0.00000000000E+00  0.22461960788E+04  0.22461960788E+04  0.00000000000E+00 0. -1.
         21   -1    0    0  501  502 -0.00000000000E+00 -0.00000000000E+00 -0.17390512061E+01  0.17390512061E+01  0.00000000000E+00 0. -1.
         25    1    1    2    0    0  0.00000000000E+00  0.00000000000E+00  0.22444570276E+04  0.22479351300E+04  0.12500000000E+03 0.  0.
<mgrwt>
<rscale>  0 0.12500000E+03</rscale>
<asrwt>0</asrwt>
<pdfrwt beam="1">  1       21 0.34556630E+00 0.12500000E+03</pdfrwt>
<pdfrwt beam="2">  1       21 0.26754814E-03 0.12500000E+03</pdfrwt>
<totfact> 0.57733204E+05</totfact>
</mgrwt>
</event>
<event>
 3    1  0.1620993E-001  0.1250000E+03  0.7546771E-02  0.1235069E+00
         21   -1    0    0  502  501  0.00000000000E+00  0.00000000000E+00  0.59469013067E+02  0.59469013067E+02  0.00000000000E+00 0.  1.
         21   -1    0    0  501  502 -0.00000000000E+00 -0.00000000000E+00 -0.65685468760E+02  0.65685468760E+02  0.00000000000E+00 0.  1.
         25    1    1    2    0    0  0.00000000000E+00  0.00000000000E+00 -0.62164556932E+01  0.12515448183E+03  0.12500000000E+03 0.  0.
<mgrwt>
<rscale>  0 0.12500000E+03</rscale>
<asrwt>0</asrwt>
<pdfrwt beam="1">  1       21 0.91490789E-02 0.12500000E+03</pdfrwt>
<pdfrwt beam="2">  1       21 0.10105457E-01 0.12500000E+03</pdfrwt>
<totfact> 0.74022718E+06</totfact>
</mgrwt>
</event>
<event>
 3    1  0.1620993E-001  0.1250000E+03  0.7546771E-02  0.1235069E+00
         21   -1    0    0  502  501  0.00000000000E+00  0.00000000000E+00  0.22302739878E+02  0.22302739878E+02  0.00000000000E+00 0. -1.
         21   -1    0    0  501  502 -0.00000000000E+00 -0.00000000000E+00 -0.17514664213E+03  0.17514664213E+03  0.00000000000E+00 0. -1.
         25    1    1    2    0    0  0.00000000000E+00  0.00000000000E+00 -0.15284390225E+03  0.19744938201E+03  0.12500000000E+03 0.  0.
<mgrwt>
<rscale>  0 0.12500000E+03</rscale>
<asrwt>0</asrwt>
<pdfrwt beam="1">  1       21 0.34311907E-02 0.12500000E+03</pdfrwt>
<pdfrwt beam="2">  1       21 0.26945638E-01 0.12500000E+03</pdfrwt>
<totfact> 0.65203937E+06</totfact>
</mgrwt>
</event>
<event>
 3    1  0.1620993E-001  0.1250000E+03  0.7546771E-02  0.1235069E+00
         21   -1    0    0  502  501  0.00000000000E+00  0.00000000000E+00  0.51285859934E+02  0.51285859934E+02  0.00000000000E+00 0.  1.
         21   -1    0    0  501  502 -0.00000000000E+00 -0.00000000000E+00 -0.76166218233E+02  0.76166218233E+02  0.00000000000E+00 0.  1.
         25    1    1    2    0    0  0.00000000000E+00  0.00000000000E+00 -0.24880358298E+02  0.12745207817E+03  0.12500000000E+03 0.  0.
<mgrwt>
<rscale>  0 0.12500000E+03</rscale>
<asrwt>0</asrwt>
<pdfrwt beam="1">  1       21 0.78901323E-02 0.12500000E+03</pdfrwt>
<pdfrwt beam="2">  1       21 0.11717880E-01 0.12500000E+03</pdfrwt>
<totfact> 0.73707716E+06</totfact>
</mgrwt>
</event>
<event>
 3    1  0.1620993E-001  0.1250000E+03  0.7546771E-02  0.1235069E+00
         21   -1    0    0  502  501  0.00000000000E+00  0.00000000000E+00  0.20763966454E+02  0.20763966454E+02  0.00000000000E+00 0.  1.
         21   -1    0    0  501  502 -0.00000000000E+00 -0.00000000000E+00 -0.18812638754E+03  0.18812638754E+03  0.00000000000E+00 0.  1.
         25    1    1    2    0    0  0.00000000000E+00  0.00000000000E+00 -0.16736242108E+03  0.20889035399E+03  0.12500000000E+03 0.  0.
<mgrwt>
<rscale>  0 0.12500000E+03</rscale>
<asrwt>0</asrwt>
<pdfrwt beam="1">  1       21 0.31944563E-02 0.12500000E+03</pdfrwt>
<pdfrwt beam="2">  1       21 0.28942522E-01 0.12500000E+03</pdfrwt>
<totfact> 0.63976472E+06</totfact>
</mgrwt>
</event>
<event>
 3    1  0.1620993E-001  0.1250000E+03  0.7546771E-02  0.1235069E+00
         21   -1    0    0  502  501  0.00000000000E+00  0.00000000000E+00  0.52663994615E+02  0.52663994615E+02  0.00000000000E+00 0. -1.
         21   -1    0    0  501  502 -0.00000000000E+00 -0.00000000000E+00 -0.74173066979E+02  0.74173066979E+02  0.00000000000E+00 0. -1.
         25    1    1    2    0    0  0.00000000000E+00  0.00000000000E+00 -0.21509072364E+02  0.12683706159E+03  0.12500000000E+03 0.  0.
<mgrwt>
<rscale>  0 0.12500000E+03</rscale>
<asrwt>0</asrwt>
<pdfrwt beam="1">  1       21 0.81021530E-02 0.12500000E+03</pdfrwt>
<pdfrwt beam="2">  1       21 0.11411241E-01 0.12500000E+03</pdfrwt>
<totfact> 0.73791334E+06</totfact>
</mgrwt>
</event>
<event>
 3    1  0.1620993E-001  0.1250000E+03  0.7546771E-02  0.1235069E+00
         21   -1    0    0  502  501  0.00000000000E+00  0.00000000000E+00  0.18184951181E+01  0.18184951181E+01  0.00000000000E+00 0. -1.
         21   -1    0    0  501  502 -0.00000000000E+00 -0.00000000000E+00 -0.21480673559E+04  0.21480673559E+04  0.00000000000E+00 0. -1.
         25    1    1    2    0    0  0.00000000000E+00  0.00000000000E+00 -0.21462488608E+04  0.21498858510E+04  0.12500000000E+03 0.  0.
<mgrwt>
<rscale>  0 0.12500000E+03</rscale>
<asrwt>0</asrwt>
<pdfrwt beam="1">  1       21 0.27976756E-03 0.12500000E+03</pdfrwt>
<pdfrwt beam="2">  1       21 0.33047298E+00 0.12500000E+03</pdfrwt>
<totfact> 0.65766906E+05</totfact>
</mgrwt>
</event>
<event>
 3    1  0.1620993E-001  0.1250000E+03  0.7546771E-02  0.1235069E+00
         21   -1    0    0  502  501  0.00000000000E+00  0.00000000000E+00  0.35474163448E+02  0.35474163448E+02  0.00000000000E+00 0. -1.
         21   -1    0    0  501  502 -0.00000000000E+00 -0.00000000000E+00 -0.11011535214E+03  0.11011535214E+03  0.00000000000E+00 0. -1.
         25    1    1    2    0    0  0.00000000000E+00  0.00000000000E+00 -0.74641188693E+02  0.14558951559E+03  0.12500000000E+03 0.  0.
<mgrwt>
<rscale>  0 0.12500000E+03</rscale>
<asrwt>0</asrwt>
<pdfrwt beam="1">  1       21 0.54575636E-02 0.12500000E+03</pdfrwt>
<pdfrwt beam="2">  1       21 0.16940824E-01 0.12500000E+03</pdfrwt>
<totfact> 0.71317741E+06</totfact>
</mgrwt>
</event>
<event>
 3    1  0.1620993E-001  0.1250000E+03  0.7546771E-02  0.1235069E+00
         21   -1    0    0  502  501  0.00000000000E+00  0.00000000000E+00  0.20740480148E+02  0.20740480148E+02  0.00000000000E+00 0.  1.
         21   -1    0    0  501  502 -0.00000000000E+00 -0.00000000000E+00 -0.18833941993E+03  0.18833941993E+03  0.00000000000E+00 0.  1.
         25    1    1    2    0    0  0.00000000000E+00  0.00000000000E+00 -0.16759893978E+03  0.20907990007E+03  0.12500000000E+03 0.  0.
<mgrwt>
<rscale>  0 0.12500000E+03</rscale>
<asrwt>0</asrwt>
<pdfrwt beam="1">  1       21 0.31908432E-02 0.12500000E+03</pdfrwt>
<pdfrwt beam="2">  1       21 0.28975295E-01 0.12500000E+03</pdfrwt>
<totfact> 0.63956471E+06</totfact>
</mgrwt>
</event>
<event>
 3    1  0.1620993E-001  0.1250000E+03  0.7546771E-02  0.1235069E+00
         21   -1    0    0  502  501  0.00000000000E+00  0.00000000000E+00  0.83766194109E+02  0.83766194109E+02  0.00000000000E+00 0. -1.
         21   -1    0    0  501  502 -0.00000000000E+00 -0.00000000000E+00 -0.46632774015E+02  0.46632774015E+02  0.00000000000E+00 0. -1.
         25    1    1    2    0    0  0.00000000000E+00  0.00000000000E+00  0.37133420093E+02  0.13039896812E+03  0.12500000000E+03 0.  0.
<mgrwt>
<rscale>  0 0.12500000E+03</rscale>
<asrwt>0</asrwt>
<pdfrwt beam="1">  1       21 0.12887107E-01 0.12500000E+03</pdfrwt>
<pdfrwt beam="2">  1       21 0.71742729E-02 0.12500000E+03</pdfrwt>
<totfact> 0.73311641E+06</totfact>
</mgrwt>
</event>
<event>
 3    1  0.1620993E-001  0.1250000E+03  0.7546771E-02  0.1235069E+00
         21   -1    0    0  502  501  0.00000000000E+00  0.00000000000E+00  0.32012544699E+03  0.32012544699E+03  0.00000000000E+00 0.  1.
         21   -1    0    0  501  502 -0.00000000000E+00 -0.00000000000E+00 -0.12202247702E+02  0.12202247702E+02  0.00000000000E+00 0.  1.
         25    1    1    2    0    0  0.00000000000E+00  0.00000000000E+00  0.30792319929E+03  0.33232769469E+03  0.12500000000E+03 0.  0.
<mgrwt>
<rscale>  0 0.12500000E+03</rscale>
<asrwt>0</asrwt>
<pdfrwt beam="1">  1       21 0.49250063E-01 0.12500000E+03</pdfrwt>
<pdfrwt beam="2">  1       21 0.18772691E-02 0.12500000E+03</pdfrwt>
<totfact> 0.52870672E+06</totfact>
</mgrwt>
</event>
<event>
 3    1  0.1620993E-001  0.1250000E+03  0.7546771E-02  0.1235069E+00
         21   -1    0    0  502  501  0.00000000000E+00  0.00000000000E+00  0.10729478286E+03  0.10729478286E+03  0.00000000000E+00 0.  1.
         21   -1    0    0  501  502 -0.00000000000E+00 -0.00000000000E+00 -0.36406709590E+02  0.36406709590E+02  0.00000000000E+00 0.  1.
         25    1    1    2    0    0  0.00000000000E+00  0.00000000000E+00  0.70888073268E+02  0.14370149245E+03  0.12500000000E+03 0.  0.
<mgrwt>
<rscale>  0 0.12500000E+03</rscale>
<asrwt>0</asrwt>
<pdfrwt beam="1">  1       21 0.16506890E-01 0.12500000E+03</pdfrwt>
<pdfrwt beam="2">  1       21 0.56010323E-02 0.12500000E+03</pdfrwt>
<totfact> 0.71559693E+06</totfact>
</mgrwt>
</event>
<event>
 3    1  0.1620993E-001  0.1250000E+03  0.7546771E-02  0.1235069E+00
         21   -1    0    0  502  501  0.00000000000E+00  0.00000000000E+00  0.89952127336E+02  0.89952127336E+02  0.00000000000E+00 0. -1.
         21   -1    0    0  501  502 -0.00000000000E+00 -0.00000000000E+00 -0.43425876805E+02  0.43425876805E+02  0.00000000000E+00 0. -1.
         25    1    1    2    0    0  0.00000000000E+00  0.00000000000E+00  0.46526250532E+02  0.13337800414E+03  0.12500000000E+03 0.  0.
<mgrwt>
<rscale>  0 0.12500000E+03</rscale>
<asrwt>0</asrwt>
<pdfrwt beam="1">  1       21 0.13838789E-01 0.12500000E+03</pdfrwt>
<pdfrwt beam="2">  1       21 0.66809041E-02 0.12500000E+03</pdfrwt>
<totfact> 0.72911963E+06</totfact>
</mgrwt>
</event>
<event>
 3    1  0.1620993E-001  0.1250000E+03  0.7546771E-02  0.1235069E+00
         21   -1    0    0  502  501  0.00000000000E+00  0.00000000000E+00  0.33829860172E+03  0.33829860172E+03  0.00000000000E+00 0. -1.
         21   -1    0    0  501  502 -0.00000000000E+00 -0.00000000000E+00 -0.11546751834E+02  0.11546751834E+02  0.00000000000E+00 0. -1.
         25    1    1    2    0    0  0.00000000000E+00  0.00000000000E+00  0.32675184989E+03  0.34984535355E+03  0.12500000000E+03 0.  0.
<mgrwt>
<rscale>  0 0.12500000E+03</rscale>
<asrwt>0</asrwt>
<pdfrwt beam="1">  1       21 0.52045931E-01 0.12500000E+03</pdfrwt>
<pdfrwt beam="2">  1       21 0.17764236E-02 0.12500000E+03</pdfrwt>
<totfact> 0.51549858E+06</totfact>
</mgrwt>
</event>
<event>
 3    1  0.1620993E-001  0.1250000E+03  0.7546771E-02  0.1235069E+00
         21   -1    0    0  502  501  0.00000000000E+00  0.00000000000E+00  0.15488203314E+02  0.15488203314E+02  0.00000000000E+00 0. -1.
         21   -1    0    0  501  502 -0.00000000000E+00 -0.00000000000E+00 -0.25220807868E+03  0.25220807868E+03  0.00000000000E+00 0. -1.
         25    1    1    2    0    0  0.00000000000E+00  0.00000000000E+00 -0.23671987536E+03  0.26769628199E+03  0.12500000000E+03 0.  0.
<mgrwt>
<rscale>  0 0.12500000E+03</rscale>
<asrwt>0</asrwt>
<pdfrwt beam="1">  1       21 0.23828008E-02 0.12500000E+03</pdfrwt>
<pdfrwt beam="2">  1       21 0.38801238E-01 0.12500000E+03</pdfrwt>
<totfact> 0.58250970E+06</totfact>
</mgrwt>
</event>
<event>
 3    1  0.1620993E-001  0.1250000E+03  0.7546771E-02  0.1235069E+00
         21   -1    0    0  502  501  0.00000000000E+00  0.00000000000E+00  0.24087353534E+02  0.24087353534E+02  0.00000000000E+00 0. -1.
         21   -1    0    0  501  502 -0.00000000000E+00 -0.00000000000E+00 -0.16217016097E+03  0.16217016097E+03  0.00000000000E+00 0. -1.
         25    1    1    2    0    0  0.00000000000E+00  0.00000000000E+00 -0.13808280744E+03  0.18625751451E+03  0.12500000000E+03 0.  0.
<mgrwt>
<rscale>  0 0.12500000E+03</rscale>
<asrwt>0</asrwt>
<pdfrwt beam="1">  1       21 0.37057468E-02 0.12500000E+03</pdfrwt>
<pdfrwt beam="2">  1       21 0.24949255E-01 0.12500000E+03</pdfrwt>
<totfact> 0.66440843E+06</totfact>
</mgrwt>
</event>
<event>
 3    1  0.1620993E-001  0.1250000E+03  0.7546771E-02  0.1235069E+00
         21   -1    0    0  502  501  0.00000000000E+00  0.00000000000E+00  0.16996603484E+03  0.16996603484E+03  0.00000000000E+00 0.  1.
         21   -1    0    0  501  502 -0.00000000000E+00 -0.00000000000E+00 -0.22982532974E+02  0.22982532974E+02  0.00000000000E+00 0.  1.
         25    1    1    2    0    0  0.00000000000E+00  0.00000000000E+00  0.14698350186E+03  0.19294856781E+03  0.12500000000E+03 0.  0.
<mgrwt>
<rscale>  0 0.12500000E+03</rscale>
<asrwt>0</asrwt>
<pdfrwt beam="1">  1       21 0.26148620E-01 0.12500000E+03</pdfrwt>
<pdfrwt beam="2">  1       21 0.35357744E-02 0.12500000E+03</pdfrwt>
<totfact> 0.65696248E+06</totfact>
</mgrwt>
</event>
<event>
 3    1  0.1620993E-001  0.1250000E+03  0.7546771E-02  0.1235069E+00
         21   -1    0    0  502  501  0.00000000000E+00  0.00000000000E+00  0.38877044980E+02  0.38877044980E+02  0.00000000000E+00 0.  1.
         21   -1    0    0  501  502 -0.00000000000E+00 -0.00000000000E+00 -0.10047702962E+03  0.10047702962E+03  0.00000000000E+00 0.  1.
         25    1    1    2    0    0  0.00000000000E+00  0.00000000000E+00 -0.61599984642E+02  0.13935407460E+03  0.12500000000E+03 0.  0.
<mgrwt>
<rscale>  0 0.12500000E+03</rscale>
<asrwt>0</asrwt>
<pdfrwt beam="1">  1       21 0.59810839E-02 0.12500000E+03</pdfrwt>
<pdfrwt beam="2">  1       21 0.15458004E-01 0.12500000E+03</pdfrwt>
<totfact> 0.72123745E+06</totfact>
</mgrwt>
</event>
<event>
 3    1  0.1620993E-001  0.1250000E+03  0.7546771E-02  0.1235069E+00
         21   -1    0    0  502  501  0.00000000000E+00  0.00000000000E+00  0.11471547510E+02  0.11471547510E+02  0.00000000000E+00 0. -1.
         21   -1    0    0  501  502 -0.00000000000E+00 -0.00000000000E+00 -0.34051639472E+03  0.34051639472E+03  0.00000000000E+00 0. -1.
         25    1    1    2    0    0  0.00000000000E+00  0.00000000000E+00 -0.32904484721E+03  0.35198794223E+03  0.12500000000E+03 0.  0.
<mgrwt>
<rscale>  0 0.12500000E+03</rscale>
<asrwt>0</asrwt>
<pdfrwt beam="1">  1       21 0.17648534E-02 0.12500000E+03</pdfrwt>
<pdfrwt beam="2">  1       21 0.52387141E-01 0.12500000E+03</pdfrwt>
<totfact> 0.51391949E+06</totfact>
</mgrwt>
</event>
<event>
 3    1  0.1620993E-001  0.1250000E+03  0.7546771E-02  0.1235069E+00
         21   -1    0    0  502  501  0.00000000000E+00  0.00000000000E+00  0.36518120385E+02  0.36518120385E+02  0.00000000000E+00 0.  1.
         21   -1    0    0  501  502 -0.00000000000E+00 -0.00000000000E+00 -0.10696744407E+03  0.10696744407E+03  0.00000000000E+00 0.  1.
         25    1    1    2    0    0  0.00000000000E+00  0.00000000000E+00 -0.70449323688E+02  0.14348556446E+03  0.12500000000E+03 0.  0.
<mgrwt>
<rscale>  0 0.12500000E+03</rscale>
<asrwt>0</asrwt>
<pdfrwt beam="1">  1       21 0.56181725E-02 0.12500000E+03</pdfrwt>
<pdfrwt beam="2">  1       21 0.16456530E-01 0.12500000E+03</pdfrwt>
<totfact> 0.71587477E+06</totfact>
</mgrwt>
</event>
<event>
 3    1  0.1620993E-001  0.1250000E+03  0.7546771E-02  0.1235069E+00
         21   -1    0    0  502  501  0.00000000000E+00  0.00000000000E+00  0.53210704255E+03  0.53210704255E+03  0.00000000000E+00 0. -1.
         21   -1    0    0  501  502 -0.00000000000E+00 -0.00000000000E+00 -0.73410981017E+01  0.73410981017E+01  0.00000000000E+00 0. -1.
         25    1    1    2    0    0  0.00000000000E+00  0.00000000000E+00  0.52476594445E+03  0.53944814065E+03  0.12500000000E+03 0.  0.
<mgrwt>
<rscale>  0 0.12500000E+03</rscale>
<asrwt>0</asrwt>
<pdfrwt beam="1">  1       21 0.81862592E-01 0.12500000E+03</pdfrwt>
<pdfrwt beam="2">  1       21 0.11294001E-02 0.12500000E+03</pdfrwt>
<totfact> 0.39982461E+06</totfact>
</mgrwt>
</event>
<event>
 3    1  0.1620993E-001  0.1250000E+03  0.7546771E-02  0.1235069E+00
         21   -1    0    0  502  501  0.00000000000E+00  0.00000000000E+00  0.51113411434E+01  0.51113411434E+01  0.00000000000E+00 0. -1.
         21   -1    0    0  501  502 -0.00000000000E+00 -0.00000000000E+00 -0.76423190908E+03  0.76423190908E+03  0.00000000000E+00 0. -1.
         25    1    1    2    0    0  0.00000000000E+00  0.00000000000E+00 -0.75912056794E+03  0.76934325022E+03  0.12500000000E+03 0.  0.
<mgrwt>
<rscale>  0 0.12500000E+03</rscale>
<asrwt>0</asrwt>
<pdfrwt beam="1">  1       21 0.78635974E-03 0.12500000E+03</pdfrwt>
<pdfrwt beam="2">  1       21 0.11757420E+00 0.12500000E+03</pdfrwt>
<totfact> 0.30399893E+06</totfact>
</mgrwt>
</event>
<event>
 3    1  0.1620993E-001  0.1250000E+03  0.7546771E-02  0.1235069E+00
         21   -1    0    0  502  501  0.00000000000E+00  0.00000000000E+00  0.72579786709E+01  0.72579786709E+01  0.00000000000E+00 0. -1.
         21   -1    0    0  501  502 -0.00000000000E+00 -0.00000000000E+00 -0.53820081005E+03  0.53820081005E+03  0.00000000000E+00 0. -1.
         25    1    1    2    0    0  0.00000000000E+00  0.00000000000E+00 -0.53094283138E+03  0.54545878872E+03  0.12500000000E+03 0.  0.
<mgrwt>
<rscale>  0 0.12500000E+03</rscale>
<asrwt>0</asrwt>
<pdfrwt beam="1">  1       21 0.11166121E-02 0.12500000E+03</pdfrwt>
<pdfrwt beam="2">  1       21 0.82800123E-01 0.12500000E+03</pdfrwt>
<totfact> 0.39681383E+06</totfact>
</mgrwt>
</event>
<event>
 3    1  0.1620993E-001  0.1250000E+03  0.7546771E-02  0.1235069E+00
         21   -1    0    0  502  501  0.00000000000E+00  0.00000000000E+00  0.58329137698E+01  0.58329137698E+01  0.00000000000E+00 0.  1.
         21   -1    0    0  501  502 -0.00000000000E+00 -0.00000000000E+00 -0.66969102478E+03  0.66969102478E+03  0.00000000000E+00 0.  1.
         25    1    1    2    0    0  0.00000000000E+00  0.00000000000E+00 -0.66385811101E+03  0.67552393855E+03  0.12500000000E+03 0.  0.
<mgrwt>
<rscale>  0 0.12500000E+03</rscale>
<asrwt>0</asrwt>
<pdfrwt beam="1">  1       21 0.89737221E-03 0.12500000E+03</pdfrwt>
<pdfrwt beam="2">  1       21 0.10302929E+00 0.12500000E+03</pdfrwt>
<totfact> 0.33875329E+06</totfact>
</mgrwt>
</event>
<event>
 3    1  0.1620993E-001  0.1250000E+03  0.7546771E-02  0.1235069E+00
         21   -1    0    0  502  501  0.00000000000E+00  0.00000000000E+00  0.33243623312E+02  0.33243623312E+02  0.00000000000E+00 0. -1.
         21   -1    0    0  501  502 -0.00000000000E+00 -0.00000000000E+00 -0.11750373788E+03  0.11750373788E+03  0.00000000000E+00 0. -1.
         25    1    1    2    0    0  0.00000000000E+00  0.00000000000E+00 -0.84260114572E+02  0.15074736120E+03  0.12500000000E+03 0.  0.
<mgrwt>
<rscale>  0 0.12500000E+03</rscale>
<asrwt>0</asrwt>
<pdfrwt beam="1">  1       21 0.51144036E-02 0.12500000E+03</pdfrwt>
<pdfrwt beam="2">  1       21 0.18077498E-01 0.12500000E+03</pdfrwt>
<totfact> 0.70665445E+06</totfact>
</mgrwt>
</event>
<event>
 3    1  0.1620993E-001  0.1250000E+03  0.7546771E-02  0.1235069E+00
         21   -1    0    0  502  501  0.00000000000E+00  0.00000000000E+00  0.12112622783E+03  0.12112622783E+03  0.00000000000E+00 0. -1.
         21   -1    0    0  501  502 -0.00000000000E+00 -0.00000000000E+00 -0.32249415092E+02  0.32249415092E+02  0.00000000000E+00 0. -1.
         25    1    1    2    0    0  0.00000000000E+00  0.00000000000E+00  0.88876812742E+02  0.15337564293E+03  0.12500000000E+03 0.  0.
<mgrwt>
<rscale>  0 0.12500000E+03</rscale>
<asrwt>0</asrwt>
<pdfrwt beam="1">  1       21 0.18634804E-01 0.12500000E+03</pdfrwt>
<pdfrwt beam="2">  1       21 0.49614485E-02 0.12500000E+03</pdfrwt>
<totfact> 0.70337690E+06</totfact>
</mgrwt>
</event>
<event>
 3    1  0.1620993E-001  0.1250000E+03  0.7546771E-02  0.1235069E+00
         21   -1    0    0  502  501  0.00000000000E+00  0.00000000000E+00  0.51445199263E+02  0.51445199263E+02  0.00000000000E+00 0.  1.
         21   -1    0    0  501  502 -0.00000000000E+00 -0.00000000000E+00 -0.75930311399E+02  0.75930311399E+02  0.00000000000E+00 0.  1.
         25    1    1    2    0    0  0.00000000000E+00  0.00000000000E+00 -0.24485112136E+02  0.12737551066E+03  0.12500000000E+03 0.  0.
<mgrwt>
<rscale>  0 0.12500000E+03</rscale>
<asrwt>0</asrwt>
<pdfrwt beam="1">  1       21 0.79146460E-02 0.12500000E+03</pdfrwt>
<pdfrwt beam="2">  1       21 0.11681586E-01 0.12500000E+03</pdfrwt>
<totfact> 0.73718102E+06</totfact>
</mgrwt>
</event>
<event>
 3    1  0.1620993E-001  0.1250000E+03  0.7546771E-02  0.1235069E+00
         21   -1    0    0  502  501  0.00000000000E+00  0.00000000000E+00  0.10939721610E+04  0.10939721610E+04  0.00000000000E+00 0. -1.
         21   -1    0    0  501  502 -0.00000000000E+00 -0.00000000000E+00 -0.35707032951E+01  0.35707032951E+01  0.00000000000E+00 0. -1.
         25    1    1    2    0    0  0.00000000000E+00  0.00000000000E+00  0.10904014577E+04  0.10975428643E+04  0.12500000000E+03 0.  0.
<mgrwt>
<rscale>  0 0.12500000E+03</rscale>
<asrwt>0</asrwt>
<pdfrwt beam="1">  1       21 0.16830314E+00 0.12500000E+03</pdfrwt>
<pdfrwt beam="2">  1       21 0.54933984E-03 0.12500000E+03</pdfrwt>
<totfact> 0.21306171E+06</totfact>
</mgrwt>
</event>
<event>
 3    1  0.1620993E-001  0.1250000E+03  0.7546771E-02  0.1235069E+00
         21   -1    0    0  502  501  0.00000000000E+00  0.00000000000E+00  0.28527654785E+02  0.28527654785E+02  0.00000000000E+00 0. -1.
         21   -1    0    0  501  502 -0.00000000000E+00 -0.00000000000E+00 -0.13692853582E+03  0.13692853582E+03  0.00000000000E+00 0. -1.
         25    1    1    2    0    0  0.00000000000E+00  0.00000000000E+00 -0.10840088103E+03  0.16545619060E+03  0.12500000000E+03 0.  0.
<mgrwt>
<rscale>  0 0.12500000E+03</rscale>
<asrwt>0</asrwt>
<pdfrwt beam="1">  1       21 0.43888700E-02 0.12500000E+03</pdfrwt>
<pdfrwt beam="2">  1       21 0.21065928E-01 0.12500000E+03</pdfrwt>
<totfact> 0.68858878E+06</totfact>
</mgrwt>
</event>
<event>
 3    1  0.1620993E-001  0.1250000E+03  0.7546771E-02  0.1235069E+00
         21   -1    0    0  502  501  0.00000000000E+00  0.00000000000E+00  0.16513360641E+03  0.16513360641E+03  0.00000000000E+00 0.  1.
         21   -1    0    0  501  502 -0.00000000000E+00 -0.00000000000E+00 -0.23655088053E+02  0.23655088053E+02  0.00000000000E+00 0.  1.
         25    1    1    2    0    0  0.00000000000E+00  0.00000000000E+00  0.14147851835E+03  0.18878869446E+03  0.12500000000E+03 0.  0.
<mgrwt>
<rscale>  0 0.12500000E+03</rscale>
<asrwt>0</asrwt>
<pdfrwt beam="1">  1       21 0.25405169E-01 0.12500000E+03</pdfrwt>
<pdfrwt beam="2">  1       21 0.36392444E-02 0.12500000E+03</pdfrwt>
<totfact> 0.66157343E+06</totfact>
</mgrwt>
</event>
<event>
 3    1  0.1620993E-001  0.1250000E+03  0.7546771E-02  0.1235069E+00
         21   -1    0    0  502  501  0.00000000000E+00  0.00000000000E+00  0.36538912354E+02  0.36538912354E+02  0.00000000000E+00 0. -1.
         21   -1    0    0  501  502 -0.00000000000E+00 -0.00000000000E+00 -0.10690657571E+03  0.10690657571E+03  0.00000000000E+00 0. -1.
         25    1    1    2    0    0  0.00000000000E+00  0.00000000000E+00 -0.70367663357E+02  0.14344548807E+03  0.12500000000E+03 0.  0.
<mgrwt>
<rscale>  0 0.12500000E+03</rscale>
<asrwt>0</asrwt>
<pdfrwt beam="1">  1       21 0.56213712E-02 0.12500000E+03</pdfrwt>
<pdfrwt beam="2">  1       21 0.16447165E-01 0.12500000E+03</pdfrwt>
<totfact> 0.71592637E+06</totfact>
</mgrwt>
</event>
<event>
 3    1  0.1620993E-001  0.1250000E+03  0.7546771E-02  0.1235069E+00
         21   -1    0    0  502  501  0.00000000000E+00  0.00000000000E+00  0.51050172793E+02  0.51050172793E+02  0.00000000000E+00 0. -1.
         21   -1    0    0  501  502 -0.00000000000E+00 -0.00000000000E+00 -0.76517860494E+02  0.76517860494E+02  0.00000000000E+00 0. -1.
         25    1    1    2    0    0  0.00000000000E+00  0.00000000000E+00 -0.25467687701E+02  0.12756803329E+03  0.12500000000E+03 0.  0.
<mgrwt>
<rscale>  0 0.12500000E+03</rscale>
<asrwt>0</asrwt>
<pdfrwt beam="1">  1       21 0.78538727E-02 0.12500000E+03</pdfrwt>
<pdfrwt beam="2">  1       21 0.11771979E-01 0.12500000E+03</pdfrwt>
<totfact> 0.73691998E+06</totfact>
</mgrwt>
</event>
<event>
 3    1  0.1620993E-001  0.1250000E+03  0.7546771E-02  0.1235069E+00
         21   -1    0    0  502  501  0.00000000000E+00  0.00000000000E+00  0.30999368044E+01  0.30999368044E+01  0.00000000000E+00 0.  1.
         21   -1    0    0  501  502 -0.00000000000E+00 -0.00000000000E+00 -0.12601063333E+04  0.12601063333E+04  0.00000000000E+00 0.  1.
         25    1    1    2    0    0  0.00000000000E+00  0.00000000000E+00 -0.12570063965E+04  0.12632062701E+04  0.12500000000E+03 0.  0.
<mgrwt>
<rscale>  0 0.12500000E+03</rscale>
<asrwt>0</asrwt>
<pdfrwt beam="1">  1       21 0.47691283E-03 0.12500000E+03</pdfrwt>
<pdfrwt beam="2">  1       21 0.19386273E+00 0.12500000E+03</pdfrwt>
<totfact> 0.17926152E+06</totfact>
</mgrwt>
</event>
<event>
 3    1  0.1620993E-001  0.1250000E+03  0.7546771E-02  0.1235069E+00
         21   -1    0    0  502  501  0.00000000000E+00  0.00000000000E+00  0.84623424144E+02  0.84623424144E+02  0.00000000000E+00 0.  1.
         21   -1    0    0  501  502 -0.00000000000E+00 -0.00000000000E+00 -0.46160386908E+02  0.46160386908E+02  0.00000000000E+00 0.  1.
         25    1    1    2    0    0  0.00000000000E+00  0.00000000000E+00  0.38463037236E+02  0.13078381105E+03  0.12500000000E+03 0.  0.
<mgrwt>
<rscale>  0 0.12500000E+03</rscale>
<asrwt>0</asrwt>
<pdfrwt beam="1">  1       21 0.13018988E-01 0.12500000E+03</pdfrwt>
<pdfrwt beam="2">  1       21 0.71015980E-02 0.12500000E+03</pdfrwt>
<totfact> 0.73259819E+06</totfact>
</mgrwt>
</event>
<event>
 3    1  0.1620993E-001  0.1250000E+03  0.7546771E-02  0.1235069E+00
         21   -1    0    0  502  501  0.00000000000E+00  0.00000000000E+00  0.11237772189E+02  0.11237772189E+02  0.00000000000E+00 0. -1.
         21   -1    0    0  501  502 -0.00000000000E+00 -0.00000000000E+00 -0.34760003443E+03  0.34760003443E+03  0.00000000000E+00 0. -1.
         25    1    1    2    0    0  0.00000000000E+00  0.00000000000E+00 -0.33636226225E+03  0.35883780662E+03  0.12500000000E+03 0.  0.
<mgrwt>
<rscale>  0 0.12500000E+03</rscale>
<asrwt>0</asrwt>
<pdfrwt beam="1">  1       21 0.17288880E-02 0.12500000E+03</pdfrwt>
<pdfrwt beam="2">  1       21 0.53476929E-01 0.12500000E+03</pdfrwt>
<totfact> 0.50892285E+06</totfact>
</mgrwt>
</event>
<event>
 3    1  0.1620993E-001  0.1250000E+03  0.7546771E-02  0.1235069E+00
         21   -1    0    0  502  501  0.00000000000E+00  0.00000000000E+00  0.29054180682E+02  0.29054180682E+02  0.00000000000E+00 0. -1.
         21   -1    0    0  501  502 -0.00000000000E+00 -0.00000000000E+00 -0.13444708845E+03  0.13444708845E+03  0.00000000000E+00 0. -1.
         25    1    1    2    0    0  0.00000000000E+00  0.00000000000E+00 -0.10539290777E+03  0.16350126913E+03  0.12500000000E+03 0.  0.
<mgrwt>
<rscale>  0 0.12500000E+03</rscale>
<asrwt>0</asrwt>
<pdfrwt beam="1">  1       21 0.44698739E-02 0.12500000E+03</pdfrwt>
<pdfrwt beam="2">  1       21 0.20684168E-01 0.12500000E+03</pdfrwt>
<totfact> 0.69094189E+06</totfact>
</mgrwt>
</event>
<event>
 3    1  0.1620993E-001  0.1250000E+03  0.7546771E-02  0.1235069E+00
         21   -1    0    0  502  501  0.00000000000E+00  0.00000000000E+00  0.91814888561E+01  0.91814888561E+01  0.00000000000E+00 0.  1.
         21   -1    0    0  501  502 -0.00000000000E+00 -0.00000000000E+00 -0.42544842794E+03  0.42544842794E+03  0.00000000000E+00 0.  1.
         25    1    1    2    0    0  0.00000000000E+00  0.00000000000E+00 -0.41626693909E+03  0.43462991680E+03  0.12500000000E+03 0.  0.
<mgrwt>
<rscale>  0 0.12500000E+03</rscale>
<asrwt>0</asrwt>
<pdfrwt beam="1">  1       21 0.14125369E-02 0.12500000E+03</pdfrwt>
<pdfrwt beam="2">  1       21 0.65453597E-01 0.12500000E+03</pdfrwt>
<totfact> 0.45826121E+06</totfact>
</mgrwt>
</event>
<event>
 3    1  0.1620993E-001  0.1250000E+03  0.7546771E-02  0.1235069E+00
         21   -1    0    0  502  501  0.00000000000E+00  0.00000000000E+00  0.14204385823E+03  0.14204385823E+03  0.00000000000E+00 0.  1.
         21   -1    0    0  501  502 -0.00000000000E+00 -0.00000000000E+00 -0.27500309050E+02  0.27500309050E+02  0.00000000000E+00 0.  1.
         25    1    1    2    0    0  0.00000000000E+00  0.00000000000E+00  0.11454354918E+03  0.16954416728E+03  0.12500000000E+03 0.  0.
<mgrwt>
<rscale>  0 0.12500000E+03</rscale>
<asrwt>0</asrwt>
<pdfrwt beam="1">  1       21 0.21852901E-01 0.12500000E+03</pdfrwt>
<pdfrwt beam="2">  1       21 0.42308169E-02 0.12500000E+03</pdfrwt>
<totfact> 0.68371698E+06</totfact>
</mgrwt>
</event>
<event>
 3    1  0.1620993E-001  0.1250000E+03  0.7546771E-02  0.1235069E+00
         21   -1    0    0  502  501  0.00000000000E+00  0.00000000000E+00  0.40207176145E+03  0.40207176145E+03  0.00000000000E+00 0.  1.
         21   -1    0    0  501  502 -0.00000000000E+00 -0.00000000000E+00 -0.97153055114E+01  0.97153055114E+01  0.00000000000E+00 0.  1.
         25    1    1    2    0    0  0.00000000000E+00  0.00000000000E+00  0.39235645594E+03  0.41178706696E+03  0.12500000000E+03 0.  0.
<mgrwt>
<rscale>  0 0.12500000E+03</rscale>
<asrwt>0</asrwt>
<pdfrwt beam="1">  1       21 0.61857181E-01 0.12500000E+03</pdfrwt>
<pdfrwt beam="2">  1       21 0.14946627E-02 0.12500000E+03</pdfrwt>
<totfact> 0.47269235E+06</totfact>
</mgrwt>
</event>
<event>
 3    1  0.1620993E-001  0.1250000E+03  0.7546771E-02  0.1235069E+00
         21   -1    0    0  502  501  0.00000000000E+00  0.00000000000E+00  0.30563230299E+02  0.30563230299E+02  0.00000000000E+00 0.  1.
         21   -1    0    0  501  502 -0.00000000000E+00 -0.00000000000E+00 -0.12780880692E+03  0.12780880692E+03  0.00000000000E+00 0.  1.
         25    1    1    2    0    0  0.00000000000E+00  0.00000000000E+00 -0.97245576616E+02  0.15837203721E+03  0.12500000000E+03 0.  0.
<mgrwt>
<rscale>  0 0.12500000E+03</rscale>
<asrwt>0</asrwt>
<pdfrwt beam="1">  1       21 0.47020353E-02 0.12500000E+03</pdfrwt>
<pdfrwt beam="2">  1       21 0.19662894E-01 0.12500000E+03</pdfrwt>
<totfact> 0.69718964E+06</totfact>
</mgrwt>
</event>
<event>
 3    1  0.1620993E-001  0.1250000E+03  0.7546771E-02  0.1235069E+00
         21   -1    0    0  502  501  0.00000000000E+00  0.00000000000E+00  0.40032918082E+02  0.40032918082E+02  0.00000000000E+00 0. -1.
         21   -1    0    0  501  502 -0.00000000000E+00 -0.00000000000E+00 -0.97575949673E+02  0.97575949673E+02  0.00000000000E+00 0. -1.
         25    1    1    2    0    0  0.00000000000E+00  0.00000000000E+00 -0.57543031591E+02  0.13760886775E+03  0.12500000000E+03 0.  0.
<mgrwt>
<rscale>  0 0.12500000E+03</rscale>
<asrwt>0</asrwt>
<pdfrwt beam="1">  1       21 0.61589106E-02 0.12500000E+03</pdfrwt>
<pdfrwt beam="2">  1       21 0.15011684E-01 0.12500000E+03</pdfrwt>
<totfact> 0.72352847E+06</totfact>
</mgrwt>
</event>
<event>
 3    1  0.1620993E-001  0.1250000E+03  0.7546771E-02  0.1235069E+00
         21   -1    0    0  502  501  0.00000000000E+00  0.00000000000E+00  0.11202935479E+03  0.11202935479E+03  0.00000000000E+00 0. -1.
         21   -1    0    0  501  502 -0.00000000000E+00 -0.00000000000E+00 -0.34868093342E+02  0.34868093342E+02  0.00000000000E+00 0. -1.
         25    1    1    2    0    0  0.00000000000E+00  0.00000000000E+00  0.77161261452E+02  0.14689744814E+03  0.12500000000E+03 0.  0.
<mgrwt>
<rscale>  0 0.12500000E+03</rscale>
<asrwt>0</asrwt>
<pdfrwt beam="1">  1       21 0.17235285E-01 0.12500000E+03</pdfrwt>
<pdfrwt beam="2">  1       21 0.53643221E-02 0.12500000E+03</pdfrwt>
<totfact> 0.71151149E+06</totfact>
</mgrwt>
</event>
<event>
 3    1  0.1620993E-001  0.1250000E+03  0.7546771E-02  0.1235069E+00
         21   -1    0    0  502  501  0.00000000000E+00  0.00000000000E+00  0.36530846117E+03  0.36530846117E+03  0.00000000000E+00 0.  1.
         21   -1    0    0  501  502 -0.00000000000E+00 -0.00000000000E+00 -0.10693018135E+02  0.10693018135E+02  0.00000000000E+00 0.  1.
         25    1    1    2    0    0  0.00000000000E+00  0.00000000000E+00  0.35461544303E+03  0.37600147930E+03  0.12500000000E+03 0.  0.
<mgrwt>
<rscale>  0 0.12500000E+03</rscale>
<asrwt>0</asrwt>
<pdfrwt beam="1">  1       21 0.56201292E-01 0.12500000E+03</pdfrwt>
<pdfrwt beam="2">  1       21 0.16450800E-02 0.12500000E+03</pdfrwt>
<totfact> 0.49673635E+06</totfact>
</mgrwt>
</event>
<event>
 3    1  0.1620993E-001  0.1250000E+03  0.7546771E-02  0.1235069E+00
         21   -1    0    0  502  501  0.00000000000E+00  0.00000000000E+00  0.80281372447E+01  0.80281372447E+01  0.00000000000E+00 0.  1.
         21   -1    0    0  501  502 -0.00000000000E+00 -0.00000000000E+00 -0.48656990793E+03  0.48656990793E+03  0.00000000000E+00 0.  1.
         25    1    1    2    0    0  0.00000000000E+00  0.00000000000E+00 -0.47854177068E+03  0.49459804517E+03  0.12500000000E+03 0.  0.
<mgrwt>
<rscale>  0 0.12500000E+03</rscale>
<asrwt>0</asrwt>
<pdfrwt beam="1">  1       21 0.12350981E-02 0.12500000E+03</pdfrwt>
<pdfrwt beam="2">  1       21 0.74856905E-01 0.12500000E+03</pdfrwt>
<totfact> 0.42338555E+06</totfact>
</mgrwt>
</event>
<event>
 3    1  0.1620993E-001  0.1250000E+03  0.7546771E-02  0.1235069E+00
         21   -1    0    0  502  501  0.00000000000E+00  0.00000000000E+00  0.44411507378E+02  0.44411507378E+02  0.00000000000E+00 0.  1.
         21   -1    0    0  501  502 -0.00000000000E+00 -0.00000000000E+00 -0.87955807641E+02  0.87955807641E+02  0.00000000000E+00 0.  1.
         25    1    1    2    0    0  0.00000000000E+00  0.00000000000E+00 -0.43544300263E+02  0.13236731502E+03  0.12500000000E+03 0.  0.
<mgrwt>
<rscale>  0 0.12500000E+03</rscale>
<asrwt>0</asrwt>
<pdfrwt beam="1">  1       21 0.68325397E-02 0.12500000E+03</pdfrwt>
<pdfrwt beam="2">  1       21 0.13531663E-01 0.12500000E+03</pdfrwt>
<totfact> 0.73047001E+06</totfact>
</mgrwt>
</event>
<event>
 3    1  0.1620993E-001  0.1250000E+03  0.7546771E-02  0.1235069E+00
         21   -1    0    0  502  501  0.00000000000E+00  0.00000000000E+00  0.24593521621E+02  0.24593521621E+02  0.00000000000E+00 0. -1.
         21   -1    0    0  501  502 -0.00000000000E+00 -0.00000000000E+00 -0.15883247874E+03  0.15883247874E+03  0.00000000000E+00 0. -1.
         25    1    1    2    0    0  0.00000000000E+00  0.00000000000E+00 -0.13423895712E+03  0.18342600036E+03  0.12500000000E+03 0.  0.
<mgrwt>
<rscale>  0 0.12500000E+03</rscale>
<asrwt>0</asrwt>
<pdfrwt beam="1">  1       21 0.37836186E-02 0.12500000E+03</pdfrwt>
<pdfrwt beam="2">  1       21 0.24435767E-01 0.12500000E+03</pdfrwt>
<totfact> 0.66760673E+06</totfact>
</mgrwt>
</event>
<event>
 3    1  0.1620993E-001  0.1250000E+03  0.7546771E-02  0.1235069E+00
         21   -1    0    0  502  501  0.00000000000E+00  0.00000000000E+00  0.66959773934E+03  0.66959773934E+03  0.00000000000E+00 0.  1.
         21   -1    0    0  501  502 -0.00000000000E+00 -0.00000000000E+00 -0.58337263860E+01  0.58337263860E+01  0.00000000000E+00 0.  1.
         25    1    1    2    0    0  0.00000000000E+00  0.00000000000E+00  0.66376401295E+03  0.67543146572E+03  0.12500000000E+03 0.  0.
<mgrwt>
<rscale>  0 0.12500000E+03</rscale>
<asrwt>0</asrwt>
<pdfrwt beam="1">  1       21 0.10301498E+00 0.12500000E+03</pdfrwt>
<pdfrwt beam="2">  1       21 0.89749690E-03 0.12500000E+03</pdfrwt>
<totfact> 0.33879048E+06</totfact>
</mgrwt>
</event>
<event>
 3    1  0.1620993E-001  0.1250000E+03  0.7546771E-02  0.1235069E+00
         21   -1    0    0  502  501  0.00000000000E+00  0.00000000000E+00  0.30259123404E+02  0.30259123404E+02  0.00000000000E+00 0.  1.
         21   -1    0    0  501  502 -0.00000000000E+00 -0.00000000000E+00 -0.12909329685E+03  0.12909329685E+03  0.00000000000E+00 0.  1.
         25    1    1    2    0    0  0.00000000000E+00  0.00000000000E+00 -0.98834173444E+02  0.15935242025E+03  0.12500000000E+03 0.  0.
<mgrwt>
<rscale>  0 0.12500000E+03</rscale>
<asrwt>0</asrwt>
<pdfrwt beam="1">  1       21 0.46552497E-02 0.12500000E+03</pdfrwt>
<pdfrwt beam="2">  1       21 0.19860507E-01 0.12500000E+03</pdfrwt>
<totfact> 0.69598710E+06</totfact>
</mgrwt>
</event>
<event>
 3    1  0.1620993E-001  0.1250000E+03  0.7546771E-02  0.1235069E+00
         21   -1    0    0  502  501  0.00000000000E+00  0.00000000000E+00  0.16832390017E+01  0.16832390017E+01  0.00000000000E+00 0.  1.
         21   -1    0    0  501  502 -0.00000000000E+00 -0.00000000000E+00 -0.23206746018E+04  0.23206746018E+04  0.00000000000E+00 0.  1.
         25    1    1    2    0    0  0.00000000000E+00  0.00000000000E+00 -0.23189913628E+04  0.23223578408E+04  0.12500000000E+03 0.  0.
<mgrwt>
<rscale>  0 0.12500000E+03</rscale>
<asrwt>0</asrwt>
<pdfrwt beam="1">  1       21 0.25896090E-03 0.12500000E+03</pdfrwt>
<pdfrwt beam="2">  1       21 0.35702540E+00 0.12500000E+03</pdfrwt>
<totfact> 0.52102247E+05</totfact>
</mgrwt>
</event>
<event>
 3    1  0.1620993E-001  0.1250000E+03  0.7546771E-02  0.1235069E+00
         21   -1    0    0  502  501  0.00000000000E+00  0.00000000000E+00  0.93899581673E+01  0.93899581673E+01  0.00000000000E+00 0.  1.
         21   -1    0    0  501  502 -0.00000000000E+00 -0.00000000000E+00 -0.41600291827E+03  0.41600291827E+03  0.00000000000E+00 0.  1.
         25    1    1    2    0    0  0.00000000000E+00  0.00000000000E+00 -0.40661296010E+03  0.42539287643E+03  0.12500000000E+03 0.  0.
<mgrwt>
<rscale>  0 0.12500000E+03</rscale>
<asrwt>0</asrwt>
<pdfrwt beam="1">  1       21 0.14446088E-02 0.12500000E+03</pdfrwt>
<pdfrwt beam="2">  1       21 0.64000455E-01 0.12500000E+03</pdfrwt>
<totfact> 0.46401445E+06</totfact>
</mgrwt>
</event>
<event>
 3    1  0.1620993E-001  0.1250000E+03  0.7546771E-02  0.1235069E+00
         21   -1    0    0  502  501  0.00000000000E+00  0.00000000000E+00  0.43777813636E+01  0.43777813636E+01  0.00000000000E+00 0.  1.
         21   -1    0    0  501  502 -0.00000000000E+00 -0.00000000000E+00 -0.89228987827E+03  0.89228987827E+03  0.00000000000E+00 0.  1.
         25    1    1    2    0    0  0.00000000000E+00  0.00000000000E+00 -0.88791209691E+03  0.89666765963E+03  0.12500000000E+03 0.  0.
<mgrwt>
<rscale>  0 0.12500000E+03</rscale>
<asrwt>0</asrwt>
<pdfrwt beam="1">  1       21 0.67350366E-03 0.12500000E+03</pdfrwt>
<pdfrwt beam="2">  1       21 0.13727560E+00 0.12500000E+03</pdfrwt>
<totfact> 0.26395108E+06</totfact>
</mgrwt>
</event>
<event>
 3    1  0.1620993E-001  0.1250000E+03  0.7546771E-02  0.1235069E+00
         21   -1    0    0  502  501  0.00000000000E+00  0.00000000000E+00  0.11164207898E+03  0.11164207898E+03  0.00000000000E+00 0.  1.
         21   -1    0    0  501  502 -0.00000000000E+00 -0.00000000000E+00 -0.34989047462E+02  0.34989047462E+02  0.00000000000E+00 0.  1.
         25    1    1    2    0    0  0.00000000000E+00  0.00000000000E+00  0.76653031514E+02  0.14663112644E+03  0.12500000000E+03 0.  0.
<mgrwt>
<rscale>  0 0.12500000E+03</rscale>
<asrwt>0</asrwt>
<pdfrwt beam="1">  1       21 0.17175704E-01 0.12500000E+03</pdfrwt>
<pdfrwt beam="2">  1       21 0.53829304E-02 0.12500000E+03</pdfrwt>
<totfact> 0.71185004E+06</totfact>
</mgrwt>
</event>
<event>
 3    1  0.1620993E-001  0.1250000E+03  0.7546771E-02  0.1235069E+00
         21   -1    0    0  502  501  0.00000000000E+00  0.00000000000E+00  0.11448019899E+03  0.11448019899E+03  0.00000000000E+00 0.  1.
         21   -1    0    0  501  502 -0.00000000000E+00 -0.00000000000E+00 -0.34121621333E+02  0.34121621333E+02  0.00000000000E+00 0.  1.
         25    1    1    2    0    0  0.00000000000E+00  0.00000000000E+00  0.80358577655E+02  0.14860182032E+03  0.12500000000E+03 0.  0.
<mgrwt>
<rscale>  0 0.12500000E+03</rscale>
<asrwt>0</asrwt>
<pdfrwt beam="1">  1       21 0.17612338E-01 0.12500000E+03</pdfrwt>
<pdfrwt beam="2">  1       21 0.52494803E-02 0.12500000E+03</pdfrwt>
<totfact> 0.70935282E+06</totfact>
</mgrwt>
</event>
<event>
 3    1  0.1620993E-001  0.1250000E+03  0.7546771E-02  0.1235069E+00
         21   -1    0    0  502  501  0.00000000000E+00  0.00000000000E+00  0.12499148035E+03  0.12499148035E+03  0.00000000000E+00 0.  1.
         21   -1    0    0  501  502 -0.00000000000E+00 -0.00000000000E+00 -0.31252130057E+02  0.31252130057E+02  0.00000000000E+00 0.  1.
         25    1    1    2    0    0  0.00000000000E+00  0.00000000000E+00  0.93739350297E+02  0.15624361041E+03  0.12500000000E+03 0.  0.
<mgrwt>
<rscale>  0 0.12500000E+03</rscale>
<asrwt>0</asrwt>
<pdfrwt beam="1">  1       21 0.19229458E-01 0.12500000E+03</pdfrwt>
<pdfrwt beam="2">  1       21 0.48080201E-02 0.12500000E+03</pdfrwt>
<totfact> 0.69981423E+06</totfact>
</mgrwt>
</event>
<event>
 3    1  0.1620993E-001  0.1250000E+03  0.7546771E-02  0.1235069E+00
         21   -1    0    0  502  501  0.00000000000E+00  0.00000000000E+00  0.25589836837E+01  0.25589836837E+01  0.00000000000E+00 0.  1.
         21   -1    0    0  501  502 -0.00000000000E+00 -0.00000000000E+00 -0.15264849186E+04  0.15264849186E+04  0.00000000000E+00 0.  1.
         25    1    1    2    0    0  0.00000000000E+00  0.00000000000E+00 -0.15239259349E+04  0.15290439022E+04  0.12500000000E+03 0.  0.
<mgrwt>
<rscale>  0 0.12500000E+03</rscale>
<asrwt>0</asrwt>
<pdfrwt beam="1">  1       21 0.39368860E-03 0.12500000E+03</pdfrwt>
<pdfrwt beam="2">  1       21 0.23484455E+00 0.12500000E+03</pdfrwt>
<totfact> 0.13567501E+06</totfact>
</mgrwt>
</event>
<event>
 3    1  0.1620993E-001  0.1250000E+03  0.7546771E-02  0.1235069E+00
         21   -1    0    0  502  501  0.00000000000E+00  0.00000000000E+00  0.10211263203E+02  0.10211263203E+02  0.00000000000E+00 0.  1.
         21   -1    0    0  501  502 -0.00000000000E+00 -0.00000000000E+00 -0.38254326837E+03  0.38254326837E+03  0.00000000000E+00 0.  1.
         25    1    1    2    0    0  0.00000000000E+00  0.00000000000E+00 -0.37233200516E+03  0.39275453157E+03  0.12500000000E+03 0.  0.
<mgrwt>
<rscale>  0 0.12500000E+03</rscale>
<asrwt>0</asrwt>
<pdfrwt beam="1">  1       21 0.15709637E-02 0.12500000E+03</pdfrwt>
<pdfrwt beam="2">  1       21 0.58852806E-01 0.12500000E+03</pdfrwt>
<totfact> 0.48525679E+06</totfact>
</mgrwt>
</event>
<event>
 3    1  0.1620993E-001  0.1250000E+03  0.7546771E-02  0.1235069E+00
         21   -1    0    0  502  501  0.00000000000E+00  0.00000000000E+00  0.46779780858E+02  0.46779780858E+02  0.00000000000E+00 0.  1.
         21   -1    0    0  501  502 -0.00000000000E+00 -0.00000000000E+00 -0.83502956371E+02  0.83502956371E+02  0.00000000000E+00 0.  1.
         25    1    1    2    0    0  0.00000000000E+00  0.00000000000E+00 -0.36723175513E+02  0.13028273723E+03  0.12500000000E+03 0.  0.
<mgrwt>
<rscale>  0 0.12500000E+03</rscale>
<asrwt>0</asrwt>
<pdfrwt beam="1">  1       21 0.71968894E-02 0.12500000E+03</pdfrwt>
<pdfrwt beam="2">  1       21 0.12846609E-01 0.12500000E+03</pdfrwt>
<totfact> 0.73327151E+06</totfact>
</mgrwt>
</event>
<event>
 3    1  0.1620993E-001  0.1250000E+03  0.7546771E-02  0.1235069E+00
         21   -1    0    0  502  501  0.00000000000E+00  0.00000000000E+00  0.66038436410E+02  0.66038436410E+02  0.00000000000E+00 0. -1.
         21   -1    0    0  501  502 -0.00000000000E+00 -0.00000000000E+00 -0.59151158210E+02  0.59151158210E+02  0.00000000000E+00 0. -1.
         25    1    1    2    0    0  0.00000000000E+00  0.00000000000E+00  0.68872781997E+01  0.12518959462E+03  0.12500000000E+03 0.  0.
<mgrwt>
<rscale>  0 0.12500000E+03</rscale>
<asrwt>0</asrwt>
<pdfrwt beam="1">  1       21 0.10159759E-01 0.12500000E+03</pdfrwt>
<pdfrwt beam="2">  1       21 0.91001782E-02 0.12500000E+03</pdfrwt>
<totfact> 0.74017977E+06</totfact>
</mgrwt>
</event>
<event>
 3    1  0.1620993E-001  0.1250000E+03  0.7546771E-02  0.1235069E+00
         21   -1    0    0  502  501  0.00000000000E+00  0.00000000000E+00  0.64469631935E+01  0.64469631935E+01  0.00000000000E+00 0.  1.
         21   -1    0    0  501  502 -0.00000000000E+00 -0.00000000000E+00 -0.60590542908E+03  0.60590542908E+03  0.00000000000E+00 0.  1.
         25    1    1    2    0    0  0.00000000000E+00  0.00000000000E+00 -0.59945846589E+03  0.61235239227E+03  0.12500000000E+03 0.  0.
<mgrwt>
<rscale>  0 0.12500000E+03</rscale>
<asrwt>0</asrwt>
<pdfrwt beam="1">  1       21 0.99184071E-03 0.12500000E+03</pdfrwt>
<pdfrwt beam="2">  1       21 0.93216199E-01 0.12500000E+03</pdfrwt>
<totfact> 0.36539908E+06</totfact>
</mgrwt>
</event>
<event>
 3    1  0.1620993E-001  0.1250000E+03  0.7546771E-02  0.1235069E+00
         21   -1    0    0  502  501  0.00000000000E+00  0.00000000000E+00  0.28567040178E+03  0.28567040178E+03  0.00000000000E+00 0. -1.
         21   -1    0    0  501  502 -0.00000000000E+00 -0.00000000000E+00 -0.13673975237E+02  0.13673975237E+02  0.00000000000E+00 0. -1.
         25    1    1    2    0    0  0.00000000000E+00  0.00000000000E+00  0.27199642655E+03  0.29934437702E+03  0.12500000000E+03 0.  0.
<mgrwt>
<rscale>  0 0.12500000E+03</rscale>
<asrwt>0</asrwt>
<pdfrwt beam="1">  1       21 0.43949288E-01 0.12500000E+03</pdfrwt>
<pdfrwt beam="2">  1       21 0.21036887E-02 0.12500000E+03</pdfrwt>
<totfact> 0.55510704E+06</totfact>
</mgrwt>
</event>
<event>
 3    1  0.1620993E-001  0.1250000E+03  0.7546771E-02  0.1235069E+00
         21   -1    0    0  502  501  0.00000000000E+00  0.00000000000E+00  0.43994482602E+02  0.43994482602E+02  0.00000000000E+00 0. -1.
         21   -1    0    0  501  502 -0.00000000000E+00 -0.00000000000E+00 -0.88789542892E+02  0.88789542892E+02  0.00000000000E+00 0. -1.
         25    1    1    2    0    0  0.00000000000E+00  0.00000000000E+00 -0.44795060290E+02  0.13278402549E+03  0.12500000000E+03 0.  0.
<mgrwt>
<rscale>  0 0.12500000E+03</rscale>
<asrwt>0</asrwt>
<pdfrwt beam="1">  1       21 0.67683819E-02 0.12500000E+03</pdfrwt>
<pdfrwt beam="2">  1       21 0.13659930E-01 0.12500000E+03</pdfrwt>
<totfact> 0.72991252E+06</totfact>
</mgrwt>
</event>
<event>
 3    1  0.1620993E-001  0.1250000E+03  0.7546771E-02  0.1235069E+00
         21   -1    0    0  502  501  0.00000000000E+00  0.00000000000E+00  0.53273646506E+03  0.53273646506E+03  0.00000000000E+00 0.  1.
         21   -1    0    0  501  502 -0.00000000000E+00 -0.00000000000E+00 -0.73324246718E+01  0.73324246718E+01  0.00000000000E+00 0.  1.
         25    1    1    2    0    0  0.00000000000E+00  0.00000000000E+00  0.52540404039E+03  0.54006888973E+03  0.12500000000E+03 0.  0.
<mgrwt>
<rscale>  0 0.12500000E+03</rscale>
<asrwt>0</asrwt>
<pdfrwt beam="1">  1       21 0.81959426E-01 0.12500000E+03</pdfrwt>
<pdfrwt beam="2">  1       21 0.11280658E-02 0.12500000E+03</pdfrwt>
<totfact> 0.39951215E+06</totfact>
</mgrwt>
</event>
<event>
 3    1  0.1620993E-001  0.1250000E+03  0.7546771E-02  0.1235069E+00
         21   -1    0    0  502  501  0.00000000000E+00  0.00000000000E+00  0.46101781548E+02  0.46101781548E+02  0.00000000000E+00 0.  1.
         21   -1    0    0  501  502 -0.00000000000E+00 -0.00000000000E+00 -0.84730998865E+02  0.84730998865E+02  0.00000000000E+00 0.  1.
         25    1    1    2    0    0  0.00000000000E+00  0.00000000000E+00 -0.38629217317E+02  0.13083278041E+03  0.12500000000E+03 0.  0.
<mgrwt>
<rscale>  0 0.12500000E+03</rscale>
<asrwt>0</asrwt>
<pdfrwt beam="1">  1       21 0.70925818E-02 0.12500000E+03</pdfrwt>
<pdfrwt beam="2">  1       21 0.13035538E-01 0.12500000E+03</pdfrwt>
<totfact> 0.73253214E+06</totfact>
</mgrwt>
</event>
<event>
 3    1  0.1620993E-001  0.1250000E+03  0.7546771E-02  0.1235069E+00
         21   -1    0    0  502  501  0.00000000000E+00  0.00000000000E+00  0.18830966623E+03  0.18830966623E+03  0.00000000000E+00 0. -1.
         21   -1    0    0  501  502 -0.00000000000E+00 -0.00000000000E+00 -0.20743757228E+02  0.20743757228E+02  0.00000000000E+00 0. -1.
         25    1    1    2    0    0  0.00000000000E+00  0.00000000000E+00  0.16756590900E+03  0.20905342346E+03  0.12500000000E+03 0.  0.
<mgrwt>
<rscale>  0 0.12500000E+03</rscale>
<asrwt>0</asrwt>
<pdfrwt beam="1">  1       21 0.28970717E-01 0.12500000E+03</pdfrwt>
<pdfrwt beam="2">  1       21 0.31913474E-02 0.12500000E+03</pdfrwt>
<totfact> 0.63959265E+06</totfact>
</mgrwt>
</event>
<event>
 3    1  0.1620993E-001  0.1250000E+03  0.7546771E-02  0.1235069E+00
         21   -1    0    0  502  501  0.00000000000E+00  0.00000000000E+00  0.35648454341E+02  0.35648454341E+02  0.00000000000E+00 0.  1.
         21   -1    0    0  501  502 -0.00000000000E+00 -0.00000000000E+00 -0.10957698089E+03  0.10957698089E+03  0.00000000000E+00 0.  1.
         25    1    1    2    0    0  0.00000000000E+00  0.00000000000E+00 -0.73928526549E+02  0.14522543523E+03  0.12500000000E+03 0.  0.
<mgrwt>
<rscale>  0 0.12500000E+03</rscale>
<asrwt>0</asrwt>
<pdfrwt beam="1">  1       21 0.54843776E-02 0.12500000E+03</pdfrwt>
<pdfrwt beam="2">  1       21 0.16857997E-01 0.12500000E+03</pdfrwt>
<totfact> 0.71364261E+06</totfact>
</mgrwt>
</event>
<event>
 3    1  0.1620993E-001  0.1250000E+03  0.7546771E-02  0.1235069E+00
         21   -1    0    0  502  501  0.00000000000E+00  0.00000000000E+00  0.43368463473E+02  0.43368463473E+02  0.00000000000E+00 0.  1.
         21   -1    0    0  501  502 -0.00000000000E+00 -0.00000000000E+00 -0.90071210441E+02  0.90071210441E+02  0.00000000000E+00 0.  1.
         25    1    1    2    0    0  0.00000000000E+00  0.00000000000E+00 -0.46702746967E+02  0.13343967391E+03  0.12500000000E+03 0.  0.
<mgrwt>
<rscale>  0 0.12500000E+03</rscale>
<asrwt>0</asrwt>
<pdfrwt beam="1">  1       21 0.66720713E-02 0.12500000E+03</pdfrwt>
<pdfrwt beam="2">  1       21 0.13857109E-01 0.12500000E+03</pdfrwt>
<totfact> 0.72903743E+06</totfact>
</mgrwt>
</event>
<event>
 3    1  0.1620993E-001  0.1250000E+03  0.7546771E-02  0.1235069E+00
         21   -1    0    0  502  501  0.00000000000E+00  0.00000000000E+00  0.11145262794E+03  0.11145262794E+03  0.00000000000E+00 0. -1.
         21   -1    0    0  501  502 -0.00000000000E+00 -0.00000000000E+00 -0.35048523056E+02  0.35048523056E+02  0.00000000000E+00 0. -1.
         25    1    1    2    0    0  0.00000000000E+00  0.00000000000E+00  0.76404104885E+02  0.14650115100E+03  0.12500000000E+03 0.  0.
<mgrwt>
<rscale>  0 0.12500000E+03</rscale>
<asrwt>0</asrwt>
<pdfrwt beam="1">  1       21 0.17146558E-01 0.12500000E+03</pdfrwt>
<pdfrwt beam="2">  1       21 0.53920805E-02 0.12500000E+03</pdfrwt>
<totfact> 0.71201539E+06</totfact>
</mgrwt>
</event>
<event>
 3    1  0.1620993E-001  0.1250000E+03  0.7546771E-02  0.1235069E+00
         21   -1    0    0  502  501  0.00000000000E+00  0.00000000000E+00  0.10065966222E+03  0.10065966222E+03  0.00000000000E+00 0.  1.
         21   -1    0    0  501  502 -0.00000000000E+00 -0.00000000000E+00 -0.38806508128E+02  0.38806508128E+02  0.00000000000E+00 0.  1.
         25    1    1    2    0    0  0.00000000000E+00  0.00000000000E+00  0.61853154089E+02  0.13946617035E+03  0.12500000000E+03 0.  0.
<mgrwt>
<rscale>  0 0.12500000E+03</rscale>
<asrwt>0</asrwt>
<pdfrwt beam="1">  1       21 0.15486102E-01 0.12500000E+03</pdfrwt>
<pdfrwt beam="2">  1       21 0.59702321E-02 0.12500000E+03</pdfrwt>
<totfact> 0.72109075E+06</totfact>
</mgrwt>
</event>
<event>
 3    1  0.1620993E-001  0.1250000E+03  0.7546771E-02  0.1235069E+00
         21   -1    0    0  502  501  0.00000000000E+00  0.00000000000E+00  0.30236473660E+02  0.30236473660E+02  0.00000000000E+00 0.  1.
         21   -1    0    0  501  502 -0.00000000000E+00 -0.00000000000E+00 -0.12918999894E+03  0.12918999894E+03  0.00000000000E+00 0.  1.
         25    1    1    2    0    0  0.00000000000E+00  0.00000000000E+00 -0.98953525277E+02  0.15942647260E+03  0.12500000000E+03 0.  0.
<mgrwt>
<rscale>  0 0.12500000E+03</rscale>
<asrwt>0</asrwt>
<pdfrwt beam="1">  1       21 0.46517652E-02 0.12500000E+03</pdfrwt>
<pdfrwt beam="2">  1       21 0.19875384E-01 0.12500000E+03</pdfrwt>
<totfact> 0.69589643E+06</totfact>
</mgrwt>
</event>
<event>
 3    1  0.1620993E-001  0.1250000E+03  0.7546771E-02  0.1235069E+00
         21   -1    0    0  502  501  0.00000000000E+00  0.00000000000E+00  0.82119754635E+03  0.82119754635E+03  0.00000000000E+00 0. -1.
         21   -1    0    0  501  502 -0.00000000000E+00 -0.00000000000E+00 -0.47567726150E+01  0.47567726150E+01  0.00000000000E+00 0. -1.
         25    1    1    2    0    0  0.00000000000E+00  0.00000000000E+00  0.81644077374E+03  0.82595431897E+03  0.12500000000E+03 0.  0.
<mgrwt>
<rscale>  0 0.12500000E+03</rscale>
<asrwt>0</asrwt>
<pdfrwt beam="1">  1       21 0.12633797E+00 0.12500000E+03</pdfrwt>
<pdfrwt beam="2">  1       21 0.73181182E-03 0.12500000E+03</pdfrwt>
<totfact> 0.28520779E+06</totfact>
</mgrwt>
</event>
<event>
 3    1  0.1620993E-001  0.1250000E+03  0.7546771E-02  0.1235069E+00
         21   -1    0    0  502  501  0.00000000000E+00  0.00000000000E+00  0.44641754164E+03  0.44641754164E+03  0.00000000000E+00 0.  1.
         21   -1    0    0  501  502 -0.00000000000E+00 -0.00000000000E+00 -0.87502161891E+01  0.87502161891E+01  0.00000000000E+00 0.  1.
         25    1    1    2    0    0  0.00000000000E+00  0.00000000000E+00  0.43766732545E+03  0.45516775783E+03  0.12500000000E+03 0.  0.
<mgrwt>
<rscale>  0 0.12500000E+03</rscale>
<asrwt>0</asrwt>
<pdfrwt beam="1">  1       21 0.68679604E-01 0.12500000E+03</pdfrwt>
<pdfrwt beam="2">  1       21 0.13461874E-02 0.12500000E+03</pdfrwt>
<totfact> 0.44584655E+06</totfact>
</mgrwt>
</event>
<event>
 3    1  0.1620993E-001  0.1250000E+03  0.7546771E-02  0.1235069E+00
         21   -1    0    0  502  501  0.00000000000E+00  0.00000000000E+00  0.75682558852E+02  0.75682558852E+02  0.00000000000E+00 0.  1.
         21   -1    0    0  501  502 -0.00000000000E+00 -0.00000000000E+00 -0.51613608991E+02  0.51613608991E+02  0.00000000000E+00 0.  1.
         25    1    1    2    0    0  0.00000000000E+00  0.00000000000E+00  0.24068949861E+02  0.12729616784E+03  0.12500000000E+03 0.  0.
<mgrwt>
<rscale>  0 0.12500000E+03</rscale>
<asrwt>0</asrwt>
<pdfrwt beam="1">  1       21 0.11643471E-01 0.12500000E+03</pdfrwt>
<pdfrwt beam="2">  1       21 0.79405552E-02 0.12500000E+03</pdfrwt>
<totfact> 0.73728872E+06</totfact>
</mgrwt>
</event>
<event>
 3    1  0.1620993E-001  0.1250000E+03  0.7546771E-02  0.1235069E+00
         21   -1    0    0  502  501  0.00000000000E+00  0.00000000000E+00  0.22426449426E+03  0.22426449426E+03  0.00000000000E+00 0.  1.
         21   -1    0    0  501  502 -0.00000000000E+00 -0.00000000000E+00 -0.17418049223E+02  0.17418049223E+02  0.00000000000E+00 0.  1.
         25    1    1    2    0    0  0.00000000000E+00  0.00000000000E+00  0.20684644504E+03  0.24168254348E+03  0.12500000000E+03 0.  0.
<mgrwt>
<rscale>  0 0.12500000E+03</rscale>
<asrwt>0</asrwt>
<pdfrwt beam="1">  1       21 0.34502228E-01 0.12500000E+03</pdfrwt>
<pdfrwt beam="2">  1       21 0.26797000E-02 0.12500000E+03</pdfrwt>
<totfact> 0.60670227E+06</totfact>
</mgrwt>
</event>
<event>
 3    1  0.1620993E-001  0.1250000E+03  0.7546771E-02  0.1235069E+00
         21   -1    0    0  502  501  0.00000000000E+00  0.00000000000E+00  0.13252535521E+03  0.13252535521E+03  0.00000000000E+00 0. -1.
         21   -1    0    0  501  502 -0.00000000000E+00 -0.00000000000E+00 -0.29475491643E+02  0.29475491643E+02  0.00000000000E+00 0. -1.
         25    1    1    2    0    0  0.00000000000E+00  0.00000000000E+00  0.10304986357E+03  0.16200084685E+03  0.12500000000E+03 0.  0.
<mgrwt>
<rscale>  0 0.12500000E+03</rscale>
<asrwt>0</asrwt>
<pdfrwt beam="1">  1       21 0.20388516E-01 0.12500000E+03</pdfrwt>
<pdfrwt beam="2">  1       21 0.45346911E-02 0.12500000E+03</pdfrwt>
<totfact> 0.69275837E+06</totfact>
</mgrwt>
</event>
<event>
 3    1  0.1620993E-001  0.1250000E+03  0.7546771E-02  0.1235069E+00
         21   -1    0    0  502  501  0.00000000000E+00  0.00000000000E+00  0.81759987655E+02  0.81759987655E+02  0.00000000000E+00 0.  1.
         21   -1    0    0  501  502 -0.00000000000E+00 -0.00000000000E+00 -0.47777037546E+02  0.47777037546E+02  0.00000000000E+00 0.  1.
         25    1    1    2    0    0  0.00000000000E+00  0.00000000000E+00  0.33982950109E+02  0.12953702520E+03  0.12500000000E+03 0.  0.
<mgrwt>
<rscale>  0 0.12500000E+03</rscale>
<asrwt>0</asrwt>
<pdfrwt beam="1">  1       21 0.12578460E-01 0.12500000E+03</pdfrwt>
<pdfrwt beam="2">  1       21 0.73503135E-02 0.12500000E+03</pdfrwt>
<totfact> 0.73426857E+06</totfact>
</mgrwt>
</event>
<event>
 3    1  0.1620993E-001  0.1250000E+03  0.7546771E-02  0.1235069E+00
         21   -1    0    0  502  501  0.00000000000E+00  0.00000000000E+00  0.62650333339E+03  0.62650333339E+03  0.00000000000E+00 0.  1.
         21   -1    0    0  501  502 -0.00000000000E+00 -0.00000000000E+00 -0.62350027395E+01  0.62350027395E+01  0.00000000000E+00 0.  1.
         25    1    1    2    0    0  0.00000000000E+00  0.00000000000E+00  0.62026833065E+03  0.63273833613E+03  0.12500000000E+03 0.  0.
<mgrwt>
<rscale>  0 0.12500000E+03</rscale>
<asrwt>0</asrwt>
<pdfrwt beam="1">  1       21 0.96385079E-01 0.12500000E+03</pdfrwt>
<pdfrwt beam="2">  1       21 0.95923168E-03 0.12500000E+03</pdfrwt>
<totfact> 0.35652734E+06</totfact>
</mgrwt>
</event>
<event>
 3    1  0.1620993E-001  0.1250000E+03  0.7546771E-02  0.1235069E+00
         21   -1    0    0  502  501  0.00000000000E+00  0.00000000000E+00  0.68890903137E+03  0.68890903137E+03  0.00000000000E+00 0. -1.
         21   -1    0    0  501  502 -0.00000000000E+00 -0.00000000000E+00 -0.56701971119E+01  0.56701971119E+01  0.00000000000E+00 0. -1.
         25    1    1    2    0    0  0.00000000000E+00  0.00000000000E+00  0.68323883425E+03  0.69457922848E+03  0.12500000000E+03 0.  0.
<mgrwt>
<rscale>  0 0.12500000E+03</rscale>
<asrwt>0</asrwt>
<pdfrwt beam="1">  1       21 0.10598594E+00 0.12500000E+03</pdfrwt>
<pdfrwt beam="2">  1       21 0.87233856E-03 0.12500000E+03</pdfrwt>
<totfact> 0.33120195E+06</totfact>
</mgrwt>
</event>
<event>
 3    1  0.1620993E-001  0.1250000E+03  0.7546771E-02  0.1235069E+00
         21   -1    0    0  502  501  0.00000000000E+00  0.00000000000E+00  0.18253237586E+02  0.18253237586E+02  0.00000000000E+00 0. -1.
         21   -1    0    0  501  502 -0.00000000000E+00 -0.00000000000E+00 -0.21400313131E+03  0.21400313131E+03  0.00000000000E+00 0. -1.
         25    1    1    2    0    0  0.00000000000E+00  0.00000000000E+00 -0.19574989373E+03  0.23225636890E+03  0.12500000000E+03 0.  0.
<mgrwt>
<rscale>  0 0.12500000E+03</rscale>
<asrwt>0</asrwt>
<pdfrwt beam="1">  1       21 0.28081903E-02 0.12500000E+03</pdfrwt>
<pdfrwt beam="2">  1       21 0.32923560E-01 0.12500000E+03</pdfrwt>
<totfact> 0.61590145E+06</totfact>
</mgrwt>
</event>
<event>
 3    1  0.1620993E-001  0.1250000E+03  0.7546771E-02  0.1235069E+00
         21   -1    0    0  502  501  0.00000000000E+00  0.00000000000E+00  0.74654052114E+03  0.74654052114E+03  0.00000000000E+00 0. -1.
         21   -1    0    0  501  502 -0.00000000000E+00 -0.00000000000E+00 -0.52324688203E+01  0.52324688203E+01  0.00000000000E+00 0. -1.
         25    1    1    2    0    0  0.00000000000E+00  0.00000000000E+00  0.74130805232E+03  0.75177298996E+03  0.12500000000E+03 0.  0.
<mgrwt>
<rscale>  0 0.12500000E+03</rscale>
<asrwt>0</asrwt>
<pdfrwt beam="1">  1       21 0.11485230E+00 0.12500000E+03</pdfrwt>
<pdfrwt beam="2">  1       21 0.80499580E-03 0.12500000E+03</pdfrwt>
<totfact> 0.31006618E+06</totfact>
</mgrwt>
</event>
<event>
 3    1  0.1620993E-001  0.1250000E+03  0.7546771E-02  0.1235069E+00
         21   -1    0    0  502  501  0.00000000000E+00  0.00000000000E+00  0.17556966281E+03  0.17556966281E+03  0.00000000000E+00 0.  1.
         21   -1    0    0  501  502 -0.00000000000E+00 -0.00000000000E+00 -0.22249003259E+02  0.22249003259E+02  0.00000000000E+00 0.  1.
         25    1    1    2    0    0  0.00000000000E+00  0.00000000000E+00  0.15332065955E+03  0.19781866607E+03  0.12500000000E+03 0.  0.
<mgrwt>
<rscale>  0 0.12500000E+03</rscale>
<asrwt>0</asrwt>
<pdfrwt beam="1">  1       21 0.27010716E-01 0.12500000E+03</pdfrwt>
<pdfrwt beam="2">  1       21 0.34229237E-02 0.12500000E+03</pdfrwt>
<totfact> 0.65163841E+06</totfact>
</mgrwt>
</event>
<event>
 3    1  0.1620993E-001  0.1250000E+03  0.7546771E-02  0.1235069E+00
         21   -1    0    0  502  501  0.00000000000E+00  0.00000000000E+00  0.90954431589E+01  0.90954431589E+01  0.00000000000E+00 0.  1.
         21   -1    0    0  501  502 -0.00000000000E+00 -0.00000000000E+00 -0.42947330127E+03  0.42947330127E+03  0.00000000000E+00 0.  1.
         25    1    1    2    0    0  0.00000000000E+00  0.00000000000E+00 -0.42037785811E+03  0.43856874443E+03  0.12500000000E+03 0.  0.
<mgrwt>
<rscale>  0 0.12500000E+03</rscale>
<asrwt>0</asrwt>
<pdfrwt beam="1">  1       21 0.13992989E-02 0.12500000E+03</pdfrwt>
<pdfrwt beam="2">  1       21 0.66072820E-01 0.12500000E+03</pdfrwt>
<totfact> 0.45584087E+06</totfact>
</mgrwt>
</event>
<event>
 3    1  0.1620993E-001  0.1250000E+03  0.7546771E-02  0.1235069E+00
         21   -1    0    0  502  501  0.00000000000E+00  0.00000000000E+00  0.63530461002E+02  0.63530461002E+02  0.00000000000E+00 0.  1.
         21   -1    0    0  501  502 -0.00000000000E+00 -0.00000000000E+00 -0.61486253025E+02  0.61486253025E+02  0.00000000000E+00 0.  1.
         25    1    1    2    0    0  0.00000000000E+00  0.00000000000E+00  0.20442079772E+01  0.12501671403E+03  0.12500000000E+03 0.  0.
<mgrwt>
<rscale>  0 0.12500000E+03</rscale>
<asrwt>0</asrwt>
<pdfrwt beam="1">  1       21 0.97739171E-02 0.12500000E+03</pdfrwt>
<pdfrwt beam="2">  1       21 0.94594235E-02 0.12500000E+03</pdfrwt>
<totfact> 0.74041324E+06</totfact>
</mgrwt>
</event>
<event>
 3    1  0.1620993E-001  0.1250000E+03  0.7546771E-02  0.1235069E+00
         21   -1    0    0  502  501  0.00000000000E+00  0.00000000000E+00  0.23348569287E+02  0.23348569287E+02  0.00000000000E+00 0.  1.
         21   -1    0    0  501  502 -0.00000000000E+00 -0.00000000000E+00 -0.16730147154E+03  0.16730147154E+03  0.00000000000E+00 0.  1.
         25    1    1    2    0    0  0.00000000000E+00  0.00000000000E+00 -0.14395290225E+03  0.19065004082E+03  0.12500000000E+03 0.  0.
<mgrwt>
<rscale>  0 0.12500000E+03</rscale>
<asrwt>0</asrwt>
<pdfrwt beam="1">  1       21 0.35920876E-02 0.12500000E+03</pdfrwt>
<pdfrwt beam="2">  1       21 0.25738688E-01 0.12500000E+03</pdfrwt>
<totfact> 0.65950291E+06</totfact>
</mgrwt>
</event>
<event>
 3    1  0.1620993E-001  0.1250000E+03  0.7546771E-02  0.1235069E+00
         21   -1    0    0  502  501  0.00000000000E+00  0.00000000000E+00  0.19033790394E+03  0.19033790394E+03  0.00000000000E+00 0.  1.
         21   -1    0    0  501  502 -0.00000000000E+00 -0.00000000000E+00 -0.20522712077E+02  0.20522712077E+02  0.00000000000E+00 0.  1.
         25    1    1    2    0    0  0.00000000000E+00  0.00000000000E+00  0.16981519186E+03  0.21086061602E+03  0.12500000000E+03 0.  0.
<mgrwt>
<rscale>  0 0.12500000E+03</rscale>
<asrwt>0</asrwt>
<pdfrwt beam="1">  1       21 0.29282753E-01 0.12500000E+03</pdfrwt>
<pdfrwt beam="2">  1       21 0.31573405E-02 0.12500000E+03</pdfrwt>
<totfact> 0.63769103E+06</totfact>
</mgrwt>
</event>
<event>
 3    1  0.1620993E-001  0.1250000E+03  0.7546771E-02  0.1235069E+00
         21   -1    0    0  502  501  0.00000000000E+00  0.00000000000E+00  0.23270471356E+02  0.23270471356E+02  0.00000000000E+00 0.  1.
         21   -1    0    0  501  502 -0.00000000000E+00 -0.00000000000E+00 -0.16786295130E+03  0.16786295130E+03  0.00000000000E+00 0.  1.
         25    1    1    2    0    0  0.00000000000E+00  0.00000000000E+00 -0.14459247994E+03  0.19113342266E+03  0.12500000000E+03 0.  0.
<mgrwt>
<rscale>  0 0.12500000E+03</rscale>
<asrwt>0</asrwt>
<pdfrwt beam="1">  1       21 0.35800724E-02 0.12500000E+03</pdfrwt>
<pdfrwt beam="2">  1       21 0.25825070E-01 0.12500000E+03</pdfrwt>
<totfact> 0.65896715E+06</totfact>
</mgrwt>
</event>
<event>
 3    1  0.1620993E-001  0.1250000E+03  0.7546771E-02  0.1235069E+00
         21   -1    0    0  502  501  0.00000000000E+00  0.00000000000E+00  0.16074052146E+03  0.16074052146E+03  0.00000000000E+00 0. -1.
         21   -1    0    0  501  502 -0.00000000000E+00 -0.00000000000E+00 -0.24301588452E+02  0.24301588452E+02  0.00000000000E+00 0. -1.
         25    1    1    2    0    0  0.00000000000E+00  0.00000000000E+00  0.13643893301E+03  0.18504210991E+03  0.12500000000E+03 0.  0.
<mgrwt>
<rscale>  0 0.12500000E+03</rscale>
<asrwt>0</asrwt>
<pdfrwt beam="1">  1       21 0.24729310E-01 0.12500000E+03</pdfrwt>
<pdfrwt beam="2">  1       21 0.37387060E-02 0.12500000E+03</pdfrwt>
<totfact> 0.66577776E+06</totfact>
</mgrwt>
</event>
<event>
 3    1  0.1620993E-001  0.1250000E+03  0.7546771E-02  0.1235069E+00
         21   -1    0    0  502  501  0.00000000000E+00  0.00000000000E+00  0.15613160661E+04  0.15613160661E+04  0.00000000000E+00 0. -1.
         21   -1    0    0  501  502 -0.00000000000E+00 -0.00000000000E+00 -0.25018957307E+01  0.25018957307E+01  0.00000000000E+00 0. -1.
         25    1    1    2    0    0  0.00000000000E+00  0.00000000000E+00  0.15588141703E+04  0.15638179618E+04  0.12500000000E+03 0.  0.
<mgrwt>
<rscale>  0 0.12500000E+03</rscale>
<asrwt>0</asrwt>
<pdfrwt beam="1">  1       21 0.24020169E+00 0.12500000E+03</pdfrwt>
<pdfrwt beam="2">  1       21 0.38490828E-03 0.12500000E+03</pdfrwt>
<totfact> 0.13072707E+06</totfact>
</mgrwt>
</event>
<event>
 3    1  0.1620993E-001  0.1250000E+03  0.7546771E-02  0.1235069E+00
         21   -1    0    0  502  501  0.00000000000E+00  0.00000000000E+00  0.55629952968E+03  0.55629952968E+03  0.00000000000E+00 0.  1.
         21   -1    0    0  501  502 -0.00000000000E+00 -0.00000000000E+00 -0.70218466700E+01  0.70218466700E+01  0.00000000000E+00 0.  1.
         25    1    1    2    0    0  0.00000000000E+00  0.00000000000E+00  0.54927768301E+03  0.56332137635E+03  0.12500000000E+03 0.  0.
<mgrwt>
<rscale>  0 0.12500000E+03</rscale>
<asrwt>0</asrwt>
<pdfrwt beam="1">  1       21 0.85584509E-01 0.12500000E+03</pdfrwt>
<pdfrwt beam="2">  1       21 0.10802845E-02 0.12500000E+03</pdfrwt>
<totfact> 0.38805724E+06</totfact>
</mgrwt>
</event>
<event>
 3    1  0.1620993E-001  0.1250000E+03  0.7546771E-02  0.1235069E+00
         21   -1    0    0  502  501  0.00000000000E+00  0.00000000000E+00  0.13644642586E+02  0.13644642586E+02  0.00000000000E+00 0.  1.
         21   -1    0    0  501  502 -0.00000000000E+00 -0.00000000000E+00 -0.28628452343E+03  0.28628452343E+03  0.00000000000E+00 0.  1.
         25    1    1    2    0    0  0.00000000000E+00  0.00000000000E+00 -0.27263988084E+03  0.29992916601E+03  0.12500000000E+03 0.  0.
<mgrwt>
<rscale>  0 0.12500000E+03</rscale>
<asrwt>0</asrwt>
<pdfrwt beam="1">  1       21 0.20991757E-02 0.12500000E+03</pdfrwt>
<pdfrwt beam="2">  1       21 0.44043776E-01 0.12500000E+03</pdfrwt>
<totfact> 0.55462059E+06</totfact>
</mgrwt>
</event>
<event>
 3    1  0.1620993E-001  0.1250000E+03  0.7546771E-02  0.1235069E+00
         21   -1    0    0  502  501  0.00000000000E+00  0.00000000000E+00  0.24224622774E+02  0.24224622774E+02  0.00000000000E+00 0. -1.
         21   -1    0    0  501  502 -0.00000000000E+00 -0.00000000000E+00 -0.16125122098E+03  0.16125122098E+03  0.00000000000E+00 0. -1.
         25    1    1    2    0    0  0.00000000000E+00  0.00000000000E+00 -0.13702659821E+03  0.18547584375E+03  0.12500000000E+03 0.  0.
<mgrwt>
<rscale>  0 0.12500000E+03</rscale>
<asrwt>0</asrwt>
<pdfrwt beam="1">  1       21 0.37268651E-02 0.12500000E+03</pdfrwt>
<pdfrwt beam="2">  1       21 0.24807880E-01 0.12500000E+03</pdfrwt>
<totfact> 0.66528849E+06</totfact>
</mgrwt>
</event>
<event>
 3    1  0.1620993E-001  0.1250000E+03  0.7546771E-02  0.1235069E+00
         21   -1    0    0  502  501  0.00000000000E+00  0.00000000000E+00  0.31977135058E+02  0.31977135058E+02  0.00000000000E+00 0. -1.
         21   -1    0    0  501  502 -0.00000000000E+00 -0.00000000000E+00 -0.12215759770E+03  0.12215759770E+03  0.00000000000E+00 0. -1.
         25    1    1    2    0    0  0.00000000000E+00  0.00000000000E+00 -0.90180462640E+02  0.15413473276E+03  0.12500000000E+03 0.  0.
<mgrwt>
<rscale>  0 0.12500000E+03</rscale>
<asrwt>0</asrwt>
<pdfrwt beam="1">  1       21 0.49195592E-02 0.12500000E+03</pdfrwt>
<pdfrwt beam="2">  1       21 0.18793477E-01 0.12500000E+03</pdfrwt>
<totfact> 0.70243360E+06</totfact>
</mgrwt>
</event>
<event>
 3    1  0.1620993E-001  0.1250000E+03  0.7546771E-02  0.1235069E+00
         21   -1    0    0  502  501  0.00000000000E+00  0.00000000000E+00  0.34589253439E+03  0.34589253439E+03  0.00000000000E+00 0. -1.
         21   -1    0    0  501  502 -0.00000000000E+00 -0.00000000000E+00 -0.11293247502E+02  0.11293247502E+02  0.00000000000E+00 0. -1.
         25    1    1    2    0    0  0.00000000000E+00  0.00000000000E+00  0.33459928688E+03  0.35718578189E+03  0.12500000000E+03 0.  0.
<mgrwt>
<rscale>  0 0.12500000E+03</rscale>
<asrwt>0</asrwt>
<pdfrwt beam="1">  1       21 0.53214228E-01 0.12500000E+03</pdfrwt>
<pdfrwt beam="2">  1       21 0.17374230E-02 0.12500000E+03</pdfrwt>
<totfact> 0.51012085E+06</totfact>
</mgrwt>
</event>
<event>
 3    1  0.1620993E-001  0.1250000E+03  0.7546771E-02  0.1235069E+00
         21   -1    0    0  502  501  0.00000000000E+00  0.00000000000E+00  0.44474782435E+02  0.44474782435E+02  0.00000000000E+00 0. -1.
         21   -1    0    0  501  502 -0.00000000000E+00 -0.00000000000E+00 -0.87830671363E+02  0.87830671363E+02  0.00000000000E+00 0. -1.
         25    1    1    2    0    0  0.00000000000E+00  0.00000000000E+00 -0.43355888928E+02  0.13230545380E+03  0.12500000000E+03 0.  0.
<mgrwt>
<rscale>  0 0.12500000E+03</rscale>
<asrwt>0</asrwt>
<pdfrwt beam="1">  1       21 0.68422743E-02 0.12500000E+03</pdfrwt>
<pdfrwt beam="2">  1       21 0.13512411E-01 0.12500000E+03</pdfrwt>
<totfact> 0.73055286E+06</totfact>
</mgrwt>
</event>
<event>
 3    1  0.1620993E-001  0.1250000E+03  0.7546771E-02  0.1235069E+00
         21   -1    0    0  502  501  0.00000000000E+00  0.00000000000E+00  0.19342581741E+03  0.19342581741E+03  0.00000000000E+00 0. -1.
         21   -1    0    0  501  502 -0.00000000000E+00 -0.00000000000E+00 -0.20195080741E+02  0.20195080741E+02  0.00000000000E+00 0. -1.
         25    1    1    2    0    0  0.00000000000E+00  0.00000000000E+00  0.17323073667E+03  0.21362089815E+03  0.12500000000E+03 0.  0.
<mgrwt>
<rscale>  0 0.12500000E+03</rscale>
<asrwt>0</asrwt>
<pdfrwt beam="1">  1       21 0.29757817E-01 0.12500000E+03</pdfrwt>
<pdfrwt beam="2">  1       21 0.31069356E-02 0.12500000E+03</pdfrwt>
<totfact> 0.63480579E+06</totfact>
</mgrwt>
</event>
<event>
 3    1  0.1620993E-001  0.1250000E+03  0.7546771E-02  0.1235069E+00
         21   -1    0    0  502  501  0.00000000000E+00  0.00000000000E+00  0.68333073635E+01  0.68333073635E+01  0.00000000000E+00 0.  1.
         21   -1    0    0  501  502 -0.00000000000E+00 -0.00000000000E+00 -0.57164851400E+03  0.57164851400E+03  0.00000000000E+00 0.  1.
         25    1    1    2    0    0  0.00000000000E+00  0.00000000000E+00 -0.56481520663E+03  0.57848182136E+03  0.12500000000E+03 0.  0.
<mgrwt>
<rscale>  0 0.12500000E+03</rscale>
<asrwt>0</asrwt>
<pdfrwt beam="1">  1       21 0.10512778E-02 0.12500000E+03</pdfrwt>
<pdfrwt beam="2">  1       21 0.87945947E-01 0.12500000E+03</pdfrwt>
<totfact> 0.38084195E+06</totfact>
</mgrwt>
</event>
<event>
 3    1  0.1620993E-001  0.1250000E+03  0.7546771E-02  0.1235069E+00
         21   -1    0    0  502  501  0.00000000000E+00  0.00000000000E+00  0.64573510688E+03  0.64573510688E+03  0.00000000000E+00 0.  1.
         21   -1    0    0  501  502 -0.00000000000E+00 -0.00000000000E+00 -0.60493071515E+01  0.60493071515E+01  0.00000000000E+00 0.  1.
         25    1    1    2    0    0  0.00000000000E+00  0.00000000000E+00  0.63968579973E+03  0.65178441403E+03  0.12500000000E+03 0.  0.
<mgrwt>
<rscale>  0 0.12500000E+03</rscale>
<asrwt>0</asrwt>
<pdfrwt beam="1">  1       21 0.99343808E-01 0.12500000E+03</pdfrwt>
<pdfrwt beam="2">  1       21 0.93066315E-03 0.12500000E+03</pdfrwt>
<totfact> 0.34850443E+06</totfact>
</mgrwt>
</event>
<event>
 3    1  0.1620993E-001  0.1250000E+03  0.7546771E-02  0.1235069E+00
         21   -1    0    0  502  501  0.00000000000E+00  0.00000000000E+00  0.36192763657E+02  0.36192763657E+02  0.00000000000E+00 0. -1.
         21   -1    0    0  501  502 -0.00000000000E+00 -0.00000000000E+00 -0.10792903347E+03  0.10792903347E+03  0.00000000000E+00 0. -1.
         25    1    1    2    0    0  0.00000000000E+00  0.00000000000E+00 -0.71736269809E+02  0.14412179712E+03  0.12500000000E+03 0.  0.
<mgrwt>
<rscale>  0 0.12500000E+03</rscale>
<asrwt>0</asrwt>
<pdfrwt beam="1">  1       21 0.55681175E-02 0.12500000E+03</pdfrwt>
<pdfrwt beam="2">  1       21 0.16604467E-01 0.12500000E+03</pdfrwt>
<totfact> 0.71505677E+06</totfact>
</mgrwt>
</event>
<event>
 3    1  0.1620993E-001  0.1250000E+03  0.7546771E-02  0.1235069E+00
         21   -1    0    0  502  501  0.00000000000E+00  0.00000000000E+00  0.10175147833E+02  0.10175147833E+02  0.00000000000E+00 0. -1.
         21   -1    0    0  501  502 -0.00000000000E+00 -0.00000000000E+00 -0.38390105620E+03  0.38390105620E+03  0.00000000000E+00 0. -1.
         25    1    1    2    0    0  0.00000000000E+00  0.00000000000E+00 -0.37372590837E+03  0.39407620403E+03  0.12500000000E+03 0.  0.
<mgrwt>
<rscale>  0 0.12500000E+03</rscale>
<asrwt>0</asrwt>
<pdfrwt beam="1">  1       21 0.15654073E-02 0.12500000E+03</pdfrwt>
<pdfrwt beam="2">  1       21 0.59061703E-01 0.12500000E+03</pdfrwt>
<totfact> 0.48436766E+06</totfact>
</mgrwt>
</event>
<event>
 3    1  0.1620993E-001  0.1250000E+03  0.7546771E-02  0.1235069E+00
         21   -1    0    0  502  501  0.00000000000E+00  0.00000000000E+00  0.25200488788E+03  0.25200488788E+03  0.00000000000E+00 0. -1.
         21   -1    0    0  501  502 -0.00000000000E+00 -0.00000000000E+00 -0.15500691407E+02  0.15500691407E+02  0.00000000000E+00 0. -1.
         25    1    1    2    0    0  0.00000000000E+00  0.00000000000E+00  0.23650419647E+03  0.26750557928E+03  0.12500000000E+03 0.  0.
<mgrwt>
<rscale>  0 0.12500000E+03</rscale>
<asrwt>0</asrwt>
<pdfrwt beam="1">  1       21 0.38769980E-01 0.12500000E+03</pdfrwt>
<pdfrwt beam="2">  1       21 0.23847219E-02 0.12500000E+03</pdfrwt>
<totfact> 0.58268103E+06</totfact>
</mgrwt>
</event>
<event>
 3    1  0.1620993E-001  0.1250000E+03  0.7546771E-02  0.1235069E+00
         21   -1    0    0  502  501  0.00000000000E+00  0.00000000000E+00  0.12642825785E+02  0.12642825785E+02  0.00000000000E+00 0.  1.
         21   -1    0    0  501  502 -0.00000000000E+00 -0.00000000000E+00 -0.30896969288E+03  0.30896969288E+03  0.00000000000E+00 0.  1.
         25    1    1    2    0    0  0.00000000000E+00  0.00000000000E+00 -0.29632686709E+03  0.32161251866E+03  0.12500000000E+03 0.  0.
<mgrwt>
<rscale>  0 0.12500000E+03</rscale>
<asrwt>0</asrwt>
<pdfrwt beam="1">  1       21 0.19450504E-02 0.12500000E+03</pdfrwt>
<pdfrwt beam="2">  1       21 0.47533793E-01 0.12500000E+03</pdfrwt>
<totfact> 0.53705808E+06</totfact>
</mgrwt>
</event>
<event>
 3    1  0.1620993E-001  0.1250000E+03  0.7546771E-02  0.1235069E+00
         21   -1    0    0  502  501  0.00000000000E+00  0.00000000000E+00  0.79918659661E+01  0.79918659661E+01  0.00000000000E+00 0. -1.
         21   -1    0    0  501  502 -0.00000000000E+00 -0.00000000000E+00 -0.48877821732E+03  0.48877821732E+03  0.00000000000E+00 0. -1.
         25    1    1    2    0    0  0.00000000000E+00  0.00000000000E+00 -0.48078635136E+03  0.49677008329E+03  0.12500000000E+03 0.  0.
<mgrwt>
<rscale>  0 0.12500000E+03</rscale>
<asrwt>0</asrwt>
<pdfrwt beam="1">  1       21 0.12295175E-02 0.12500000E+03</pdfrwt>
<pdfrwt beam="2">  1       21 0.75196668E-01 0.12500000E+03</pdfrwt>
<totfact> 0.42219773E+06</totfact>
</mgrwt>
</event>
<event>
 3    1  0.1620993E-001  0.1250000E+03  0.7546771E-02  0.1235069E+00
         21   -1    0    0  502  501  0.00000000000E+00  0.00000000000E+00  0.30764317697E+01  0.30764317697E+01  0.00000000000E+00 0.  1.
         21   -1    0    0  501  502 -0.00000000000E+00 -0.00000000000E+00 -0.12697339946E+04  0.12697339946E+04  0.00000000000E+00 0.  1.
         25    1    1    2    0    0  0.00000000000E+00  0.00000000000E+00 -0.12666575628E+04  0.12728104264E+04  0.12500000000E+03 0.  0.
<mgrwt>
<rscale>  0 0.12500000E+03</rscale>
<asrwt>0</asrwt>
<pdfrwt beam="1">  1       21 0.47329702E-03 0.12500000E+03</pdfrwt>
<pdfrwt beam="2">  1       21 0.19534376E+00 0.12500000E+03</pdfrwt>
<totfact> 0.17747706E+06</totfact>
</mgrwt>
</event>
<event>
 3    1  0.1620993E-001  0.1250000E+03  0.7546771E-02  0.1235069E+00
         21   -1    0    0  502  501  0.00000000000E+00  0.00000000000E+00  0.23973264313E+03  0.23973264313E+03  0.00000000000E+00 0. -1.
         21   -1    0    0  501  502 -0.00000000000E+00 -0.00000000000E+00 -0.16294193185E+02  0.16294193185E+02  0.00000000000E+00 0. -1.
         25    1    1    2    0    0  0.00000000000E+00  0.00000000000E+00  0.22343844995E+03  0.25602683632E+03  0.12500000000E+03 0.  0.
<mgrwt>
<rscale>  0 0.12500000E+03</rscale>
<asrwt>0</asrwt>
<pdfrwt beam="1">  1       21 0.36881943E-01 0.12500000E+03</pdfrwt>
<pdfrwt beam="2">  1       21 0.25067991E-02 0.12500000E+03</pdfrwt>
<totfact> 0.59315368E+06</totfact>
</mgrwt>
</event>
<event>
 3    1  0.1620993E-001  0.1250000E+03  0.7546771E-02  0.1235069E+00
         21   -1    0    0  502  501  0.00000000000E+00  0.00000000000E+00  0.24638511946E+03  0.24638511946E+03  0.00000000000E+00 0. -1.
         21   -1    0    0  501  502 -0.00000000000E+00 -0.00000000000E+00 -0.15854244804E+02  0.15854244804E+02  0.00000000000E+00 0. -1.
         25    1    1    2    0    0  0.00000000000E+00  0.00000000000E+00  0.23053087465E+03  0.26223936426E+03  0.12500000000E+03 0.  0.
<mgrwt>
<rscale>  0 0.12500000E+03</rscale>
<asrwt>0</asrwt>
<pdfrwt beam="1">  1       21 0.37905400E-01 0.12500000E+03</pdfrwt>
<pdfrwt beam="2">  1       21 0.24391148E-02 0.12500000E+03</pdfrwt>
<totfact> 0.58744629E+06</totfact>
</mgrwt>
</event>
<event>
 3    1  0.1620993E-001  0.1250000E+03  0.7546771E-02  0.1235069E+00
         21   -1    0    0  502  501  0.00000000000E+00  0.00000000000E+00  0.10043673196E+03  0.10043673196E+03  0.00000000000E+00 0. -1.
         21   -1    0    0  501  502 -0.00000000000E+00 -0.00000000000E+00 -0.38892643397E+02  0.38892643397E+02  0.00000000000E+00 0. -1.
         25    1    1    2    0    0  0.00000000000E+00  0.00000000000E+00  0.61544088559E+02  0.13932937535E+03  0.12500000000E+03 0.  0.
<mgrwt>
<rscale>  0 0.12500000E+03</rscale>
<asrwt>0</asrwt>
<pdfrwt beam="1">  1       21 0.15451805E-01 0.12500000E+03</pdfrwt>
<pdfrwt beam="2">  1       21 0.59834836E-02 0.12500000E+03</pdfrwt>
<totfact> 0.72126978E+06</totfact>
</mgrwt>
</event>
<event>
 3    1  0.1620993E-001  0.1250000E+03  0.7546771E-02  0.1235069E+00
         21   -1    0    0  502  501  0.00000000000E+00  0.00000000000E+00  0.31085089925E+03  0.31085089925E+03  0.00000000000E+00 0.  1.
         21   -1    0    0  501  502 -0.00000000000E+00 -0.00000000000E+00 -0.12566313977E+02  0.12566313977E+02  0.00000000000E+00 0.  1.
         25    1    1    2    0    0  0.00000000000E+00  0.00000000000E+00  0.29828458527E+03  0.32341721323E+03  0.12500000000E+03 0.  0.
<mgrwt>
<rscale>  0 0.12500000E+03</rscale>
<asrwt>0</asrwt>
<pdfrwt beam="1">  1       21 0.47823209E-01 0.12500000E+03</pdfrwt>
<pdfrwt beam="2">  1       21 0.19332793E-02 0.12500000E+03</pdfrwt>
<totfact> 0.53563655E+06</totfact>
</mgrwt>
</event>
<event>
 3    1  0.1620993E-001  0.1250000E+03  0.7546771E-02  0.1235069E+00
         21   -1    0    0  502  501  0.00000000000E+00  0.00000000000E+00  0.73761167154E+02  0.73761167154E+02  0.00000000000E+00 0. -1.
         21   -1    0    0  501  502 -0.00000000000E+00 -0.00000000000E+00 -0.52958082833E+02  0.52958082833E+02  0.00000000000E+00 0. -1.
         25    1    1    2    0    0  0.00000000000E+00  0.00000000000E+00  0.20803084320E+02  0.12671924999E+03  0.12500000000E+03 0.  0.
<mgrwt>
<rscale>  0 0.12500000E+03</rscale>
<asrwt>0</asrwt>
<pdfrwt beam="1">  1       21 0.11347872E-01 0.12500000E+03</pdfrwt>
<pdfrwt beam="2">  1       21 0.81473973E-02 0.12500000E+03</pdfrwt>
<totfact> 0.73807407E+06</totfact>
</mgrwt>
</event>
<event>
 3    1  0.1620993E-001  0.1250000E+03  0.7546771E-02  0.1235069E+00
         21   -1    0    0  502  501  0.00000000000E+00  0.00000000000E+00  0.43849586377E+01  0.43849586377E+01  0.00000000000E+00 0.  1.
         21   -1    0    0  501  502 -0.00000000000E+00 -0.00000000000E+00 -0.89082938351E+03  0.89082938351E+03  0.00000000000E+00 0.  1.
         25    1    1    2    0    0  0.00000000000E+00  0.00000000000E+00 -0.88644442488E+03  0.89521434215E+03  0.12500000000E+03 0.  0.
<mgrwt>
<rscale>  0 0.12500000E+03</rscale>
<asrwt>0</asrwt>
<pdfrwt beam="1">  1       21 0.67460860E-03 0.12500000E+03</pdfrwt>
<pdfrwt beam="2">  1       21 0.13705076E+00 0.12500000E+03</pdfrwt>
<totfact> 0.26437164E+06</totfact>
</mgrwt>
</event>
<event>
 3    1  0.1620993E-001  0.1250000E+03  0.7546771E-02  0.1235069E+00
         21   -1    0    0  502  501  0.00000000000E+00  0.00000000000E+00  0.23697652284E+03  0.23697652284E+03  0.00000000000E+00 0. -1.
         21   -1    0    0  501  502 -0.00000000000E+00 -0.00000000000E+00 -0.16483700382E+02  0.16483700382E+02  0.00000000000E+00 0. -1.
         25    1    1    2    0    0  0.00000000000E+00  0.00000000000E+00  0.22049282246E+03  0.25346022322E+03  0.12500000000E+03 0.  0.
<mgrwt>
<rscale>  0 0.12500000E+03</rscale>
<asrwt>0</asrwt>
<pdfrwt beam="1">  1       21 0.36457924E-01 0.12500000E+03</pdfrwt>
<pdfrwt beam="2">  1       21 0.25359541E-02 0.12500000E+03</pdfrwt>
<totfact> 0.59553937E+06</totfact>
</mgrwt>
</event>
<event>
 3    1  0.1620993E-001  0.1250000E+03  0.7546771E-02  0.1235069E+00
         21   -1    0    0  502  501  0.00000000000E+00  0.00000000000E+00  0.49394738723E+02  0.49394738723E+02  0.00000000000E+00 0.  1.
         21   -1    0    0  501  502 -0.00000000000E+00 -0.00000000000E+00 -0.79082309189E+02  0.79082309189E+02  0.00000000000E+00 0.  1.
         25    1    1    2    0    0  0.00000000000E+00  0.00000000000E+00 -0.29687570466E+02  0.12847704791E+03  0.12500000000E+03 0.  0.
<mgrwt>
<rscale>  0 0.12500000E+03</rscale>
<asrwt>0</asrwt>
<pdfrwt beam="1">  1       21 0.75991906E-02 0.12500000E+03</pdfrwt>
<pdfrwt beam="2">  1       21 0.12166509E-01 0.12500000E+03</pdfrwt>
<totfact> 0.73569213E+06</totfact>
</mgrwt>
</event>
<event>
 3    1  0.1620993E-001  0.1250000E+03  0.7546771E-02  0.1235069E+00
         21   -1    0    0  502  501  0.00000000000E+00  0.00000000000E+00  0.61031951698E+02  0.61031951698E+02  0.00000000000E+00 0. -1.
         21   -1    0    0  501  502 -0.00000000000E+00 -0.00000000000E+00 -0.64003360392E+02  0.64003360392E+02  0.00000000000E+00 0. -1.
         25    1    1    2    0    0  0.00000000000E+00  0.00000000000E+00 -0.29714086938E+01  0.12503531209E+03  0.12500000000E+03 0.  0.
<mgrwt>
<rscale>  0 0.12500000E+03</rscale>
<asrwt>0</asrwt>
<pdfrwt beam="1">  1       21 0.93895310E-02 0.12500000E+03</pdfrwt>
<pdfrwt beam="2">  1       21 0.98466709E-02 0.12500000E+03</pdfrwt>
<totfact> 0.74038812E+06</totfact>
</mgrwt>
</event>
<event>
 3    1  0.1620993E-001  0.1250000E+03  0.7546771E-02  0.1235069E+00
         21   -1    0    0  502  501  0.00000000000E+00  0.00000000000E+00  0.65317213362E+02  0.65317213362E+02  0.00000000000E+00 0. -1.
         21   -1    0    0  501  502 -0.00000000000E+00 -0.00000000000E+00 -0.59804296585E+02  0.59804296585E+02  0.00000000000E+00 0. -1.
         25    1    1    2    0    0  0.00000000000E+00  0.00000000000E+00  0.55129167779E+01  0.12512150995E+03  0.12500000000E+03 0.  0.
<mgrwt>
<rscale>  0 0.12500000E+03</rscale>
<asrwt>0</asrwt>
<pdfrwt beam="1">  1       21 0.10048802E-01 0.12500000E+03</pdfrwt>
<pdfrwt beam="2">  1       21 0.92006610E-02 0.12500000E+03</pdfrwt>
<totfact> 0.74027170E+06</totfact>
</mgrwt>
</event>
<event>
 3    1  0.1620993E-001  0.1250000E+03  0.7546771E-02  0.1235069E+00
         21   -1    0    0  502  501  0.00000000000E+00  0.00000000000E+00  0.21722568750E+03  0.21722568750E+03  0.00000000000E+00 0. -1.
         21   -1    0    0  501  502 -0.00000000000E+00 -0.00000000000E+00 -0.17982449704E+02  0.17982449704E+02  0.00000000000E+00 0. -1.
         25    1    1    2    0    0  0.00000000000E+00  0.00000000000E+00  0.19924323780E+03  0.23520813721E+03  0.12500000000E+03 0.  0.
<mgrwt>
<rscale>  0 0.12500000E+03</rscale>
<asrwt>0</asrwt>
<pdfrwt beam="1">  1       21 0.33419335E-01 0.12500000E+03</pdfrwt>
<pdfrwt beam="2">  1       21 0.27665309E-02 0.12500000E+03</pdfrwt>
<totfact> 0.61299467E+06</totfact>
</mgrwt>
</event>
<event>
 3    1  0.1620993E-001  0.1250000E+03  0.7546771E-02  0.1235069E+00
         21   -1    0    0  502  501  0.00000000000E+00  0.00000000000E+00  0.12870871335E+02  0.12870871335E+02  0.00000000000E+00 0. -1.
         21   -1    0    0  501  502 -0.00000000000E+00 -0.00000000000E+00 -0.30349538103E+03  0.30349538103E+03  0.00000000000E+00 0. -1.
         25    1    1    2    0    0  0.00000000000E+00  0.00000000000E+00 -0.29062450969E+03  0.31636625236E+03  0.12500000000E+03 0.  0.
<mgrwt>
<rscale>  0 0.12500000E+03</rscale>
<asrwt>0</asrwt>
<pdfrwt beam="1">  1       21 0.19801340E-02 0.12500000E+03</pdfrwt>
<pdfrwt beam="2">  1       21 0.46691598E-01 0.12500000E+03</pdfrwt>
<totfact> 0.54122560E+06</totfact>
</mgrwt>
</event>
<event>
 3    1  0.1620993E-001  0.1250000E+03  0.7546771E-02  0.1235069E+00
         21   -1    0    0  502  501  0.00000000000E+00  0.00000000000E+00  0.44115521979E+02  0.44115521979E+02  0.00000000000E+00 0.  1.
         21   -1    0    0  501  502 -0.00000000000E+00 -0.00000000000E+00 -0.88545931790E+02  0.88545931790E+02  0.00000000000E+00 0.  1.
         25    1    1    2    0    0  0.00000000000E+00  0.00000000000E+00 -0.44430409811E+02  0.13266145377E+03  0.12500000000E+03 0.  0.
<mgrwt>
<rscale>  0 0.12500000E+03</rscale>
<asrwt>0</asrwt>
<pdfrwt beam="1">  1       21 0.67870035E-02 0.12500000E+03</pdfrwt>
<pdfrwt beam="2">  1       21 0.13622451E-01 0.12500000E+03</pdfrwt>
<totfact> 0.73007639E+06</totfact>
</mgrwt>
</event>
<event>
 3    1  0.1620993E-001  0.1250000E+03  0.7546771E-02  0.1235069E+00
         21   -1    0    0  502  501  0.00000000000E+00  0.00000000000E+00  0.30242520045E+02  0.30242520045E+02  0.00000000000E+00 0.  1.
         21   -1    0    0  501  502 -0.00000000000E+00 -0.00000000000E+00 -0.12916416999E+03  0.12916416999E+03  0.00000000000E+00 0.  1.
         25    1    1    2    0    0  0.00000000000E+00  0.00000000000E+00 -0.98921649943E+02  0.15940669003E+03  0.12500000000E+03 0.  0.
<mgrwt>
<rscale>  0 0.12500000E+03</rscale>
<asrwt>0</asrwt>
<pdfrwt beam="1">  1       21 0.46526954E-02 0.12500000E+03</pdfrwt>
<pdfrwt beam="2">  1       21 0.19871411E-01 0.12500000E+03</pdfrwt>
<totfact> 0.69592065E+06</totfact>
</mgrwt>
</event>
<event>
 3    1  0.1620993E-001  0.1250000E+03  0.7546771E-02  0.1235069E+00
         21   -1    0    0  502  501  0.00000000000E+00  0.00000000000E+00  0.48201887526E+02  0.48201887526E+02  0.00000000000E+00 0. -1.
         21   -1    0    0  501  502 -0.00000000000E+00 -0.00000000000E+00 -0.81039357596E+02  0.81039357596E+02  0.00000000000E+00 0. -1.
         25    1    1    2    0    0  0.00000000000E+00  0.00000000000E+00 -0.32837470071E+02  0.12924124512E+03  0.12500000000E+03 0.  0.
<mgrwt>
<rscale>  0 0.12500000E+03</rscale>
<asrwt>0</asrwt>
<pdfrwt beam="1">  1       21 0.74156750E-02 0.12500000E+03</pdfrwt>
<pdfrwt beam="2">  1       21 0.12467593E-01 0.12500000E+03</pdfrwt>
<totfact> 0.73466502E+06</totfact>
</mgrwt>
</event>
<event>
 3    1  0.1620993E-001  0.1250000E+03  0.7546771E-02  0.1235069E+00
         21   -1    0    0  502  501  0.00000000000E+00  0.00000000000E+00  0.22977335584E+02  0.22977335584E+02  0.00000000000E+00 0.  1.
         21   -1    0    0  501  502 -0.00000000000E+00 -0.00000000000E+00 -0.17000448053E+03  0.17000448053E+03  0.00000000000E+00 0.  1.
         25    1    1    2    0    0  0.00000000000E+00  0.00000000000E+00 -0.14702714495E+03  0.19298181612E+03  0.12500000000E+03 0.  0.
<mgrwt>
<rscale>  0 0.12500000E+03</rscale>
<asrwt>0</asrwt>
<pdfrwt beam="1">  1       21 0.35349748E-02 0.12500000E+03</pdfrwt>
<pdfrwt beam="2">  1       21 0.26154535E-01 0.12500000E+03</pdfrwt>
<totfact> 0.65692587E+06</totfact>
</mgrwt>
</event>
<event>
 3    1  0.1620993E-001  0.1250000E+03  0.7546771E-02  0.1235069E+00
         21   -1    0    0  502  501  0.00000000000E+00  0.00000000000E+00  0.32832370616E+03  0.32832370616E+03  0.00000000000E+00 0. -1.
         21   -1    0    0  501  502 -0.00000000000E+00 -0.00000000000E+00 -0.11897556974E+02  0.11897556974E+02  0.00000000000E+00 0. -1.
         25    1    1    2    0    0  0.00000000000E+00  0.00000000000E+00  0.31642614919E+03  0.34022126314E+03  0.12500000000E+03 0.  0.
<mgrwt>
<rscale>  0 0.12500000E+03</rscale>
<asrwt>0</asrwt>
<pdfrwt beam="1">  1       21 0.50511333E-01 0.12500000E+03</pdfrwt>
<pdfrwt beam="2">  1       21 0.18303936E-02 0.12500000E+03</pdfrwt>
<totfact> 0.52268831E+06</totfact>
</mgrwt>
</event>
<event>
 3    1  0.1620993E-001  0.1250000E+03  0.7546771E-02  0.1235069E+00
         21   -1    0    0  502  501  0.00000000000E+00  0.00000000000E+00  0.26849185423E+04  0.26849185423E+04  0.00000000000E+00 0. -1.
         21   -1    0    0  501  502 -0.00000000000E+00 -0.00000000000E+00 -0.14548858516E+01  0.14548858516E+01  0.00000000000E+00 0. -1.
         25    1    1    2    0    0  0.00000000000E+00  0.00000000000E+00  0.26834636565E+04  0.26863734282E+04  0.12500000000E+03 0.  0.
<mgrwt>
<rscale>  0 0.12500000E+03</rscale>
<asrwt>0</asrwt>
<pdfrwt beam="1">  1       21 0.41306043E+00 0.12500000E+03</pdfrwt>
<pdfrwt beam="2">  1       21 0.22383074E-03 0.12500000E+03</pdfrwt>
<totfact> 0.29996293E+05</totfact>
</mgrwt>
</event>
<event>
 3    1  0.1620993E-001  0.1250000E+03  0.7546771E-02  0.1235069E+00
         21   -1    0    0  502  501  0.00000000000E+00  0.00000000000E+00  0.40723135309E+02  0.40723135309E+02  0.00000000000E+00 0. -1.
         21   -1    0    0  501  502 -0.00000000000E+00 -0.00000000000E+00 -0.95922132968E+02  0.95922132968E+02  0.00000000000E+00 0. -1.
         25    1    1    2    0    0  0.00000000000E+00  0.00000000000E+00 -0.55198997659E+02  0.13664526828E+03  0.12500000000E+03 0.  0.
<mgrwt>
<rscale>  0 0.12500000E+03</rscale>
<asrwt>0</asrwt>
<pdfrwt beam="1">  1       21 0.62650977E-02 0.12500000E+03</pdfrwt>
<pdfrwt beam="2">  1       21 0.14757251E-01 0.12500000E+03</pdfrwt>
<totfact> 0.72479353E+06</totfact>
</mgrwt>
</event>
<event>
 3    1  0.1620993E-001  0.1250000E+03  0.7546771E-02  0.1235069E+00
         21   -1    0    0  502  501  0.00000000000E+00  0.00000000000E+00  0.22184588433E+02  0.22184588433E+02  0.00000000000E+00 0.  1.
         21   -1    0    0  501  502 -0.00000000000E+00 -0.00000000000E+00 -0.17607944415E+03  0.17607944415E+03  0.00000000000E+00 0.  1.
         25    1    1    2    0    0  0.00000000000E+00  0.00000000000E+00 -0.15389485572E+03  0.19826403259E+03  0.12500000000E+03 0.  0.
<mgrwt>
<rscale>  0 0.12500000E+03</rscale>
<asrwt>0</asrwt>
<pdfrwt beam="1">  1       21 0.34130136E-02 0.12500000E+03</pdfrwt>
<pdfrwt beam="2">  1       21 0.27089145E-01 0.12500000E+03</pdfrwt>
<totfact> 0.65115543E+06</totfact>
</mgrwt>
</event>
<event>
 3    1  0.1620993E-001  0.1250000E+03  0.7546771E-02  0.1235069E+00
         21   -1    0    0  502  501  0.00000000000E+00  0.00000000000E+00  0.54651919494E+02  0.54651919494E+02  0.00000000000E+00 0. -1.
         21   -1    0    0  501  502 -0.00000000000E+00 -0.00000000000E+00 -0.71475074181E+02  0.71475074181E+02  0.00000000000E+00 0. -1.
         25    1    1    2    0    0  0.00000000000E+00  0.00000000000E+00 -0.16823154687E+02  0.12612699368E+03  0.12500000000E+03 0.  0.
<mgrwt>
<rscale>  0 0.12500000E+03</rscale>
<asrwt>0</asrwt>
<pdfrwt beam="1">  1       21 0.84079877E-02 0.12500000E+03</pdfrwt>
<pdfrwt beam="2">  1       21 0.10996165E-01 0.12500000E+03</pdfrwt>
<totfact> 0.73888548E+06</totfact>
</mgrwt>
</event>
<event>
 3    1  0.1620993E-001  0.1250000E+03  0.7546771E-02  0.1235069E+00
         21   -1    0    0  502  501  0.00000000000E+00  0.00000000000E+00  0.18683064771E+02  0.18683064771E+02  0.00000000000E+00 0. -1.
         21   -1    0    0  501  502 -0.00000000000E+00 -0.00000000000E+00 -0.20907972262E+03  0.20907972262E+03  0.00000000000E+00 0. -1.
         25    1    1    2    0    0  0.00000000000E+00  0.00000000000E+00 -0.19039665785E+03  0.22776278739E+03  0.12500000000E+03 0.  0.
<mgrwt>
<rscale>  0 0.12500000E+03</rscale>
<asrwt>0</asrwt>
<pdfrwt beam="1">  1       21 0.28743177E-02 0.12500000E+03</pdfrwt>
<pdfrwt beam="2">  1       21 0.32166111E-01 0.12500000E+03</pdfrwt>
<totfact> 0.62037328E+06</totfact>
</mgrwt>
</event>
<event>
 3    1  0.1620993E-001  0.1250000E+03  0.7546771E-02  0.1235069E+00
         21   -1    0    0  502  501  0.00000000000E+00  0.00000000000E+00  0.14882970751E+02  0.14882970751E+02  0.00000000000E+00 0.  1.
         21   -1    0    0  501  502 -0.00000000000E+00 -0.00000000000E+00 -0.26246440078E+03  0.26246440078E+03  0.00000000000E+00 0.  1.
         25    1    1    2    0    0  0.00000000000E+00  0.00000000000E+00 -0.24758143003E+03  0.27734737153E+03  0.12500000000E+03 0.  0.
<mgrwt>
<rscale>  0 0.12500000E+03</rscale>
<asrwt>0</asrwt>
<pdfrwt beam="1">  1       21 0.22896880E-02 0.12500000E+03</pdfrwt>
<pdfrwt beam="2">  1       21 0.40379136E-01 0.12500000E+03</pdfrwt>
<totfact> 0.57392851E+06</totfact>
</mgrwt>
</event>
<event>
 3    1  0.1620993E-001  0.1250000E+03  0.7546771E-02  0.1235069E+00
         21   -1    0    0  502  501  0.00000000000E+00  0.00000000000E+00  0.31938769800E+02  0.31938769800E+02  0.00000000000E+00 0.  1.
         21   -1    0    0  501  502 -0.00000000000E+00 -0.00000000000E+00 -0.12230433497E+03  0.12230433497E+03  0.00000000000E+00 0.  1.
         25    1    1    2    0    0  0.00000000000E+00  0.00000000000E+00 -0.90365565167E+02  0.15424310477E+03  0.12500000000E+03 0.  0.
<mgrwt>
<rscale>  0 0.12500000E+03</rscale>
<asrwt>0</asrwt>
<pdfrwt beam="1">  1       21 0.49136569E-02 0.12500000E+03</pdfrwt>
<pdfrwt beam="2">  1       21 0.18816051E-01 0.12500000E+03</pdfrwt>
<totfact> 0.70229853E+06</totfact>
</mgrwt>
</event>
<event>
 3    1  0.1620993E-001  0.1250000E+03  0.7546771E-02  0.1235069E+00
         21   -1    0    0  502  501  0.00000000000E+00  0.00000000000E+00  0.25391475650E+02  0.25391475650E+02  0.00000000000E+00 0. -1.
         21   -1    0    0  501  502 -0.00000000000E+00 -0.00000000000E+00 -0.15384099978E+03  0.15384099978E+03  0.00000000000E+00 0. -1.
         25    1    1    2    0    0  0.00000000000E+00  0.00000000000E+00 -0.12844952413E+03  0.17923247543E+03  0.12500000000E+03 0.  0.
<mgrwt>
<rscale>  0 0.12500000E+03</rscale>
<asrwt>0</asrwt>
<pdfrwt beam="1">  1       21 0.39063808E-02 0.12500000E+03</pdfrwt>
<pdfrwt beam="2">  1       21 0.23667846E-01 0.12500000E+03</pdfrwt>
<totfact> 0.67239693E+06</totfact>
</mgrwt>
</event>
<event>
 3    1  0.1620993E-001  0.1250000E+03  0.7546771E-02  0.1235069E+00
         21   -1    0    0  502  501  0.00000000000E+00  0.00000000000E+00  0.12447949572E+02  0.12447949572E+02  0.00000000000E+00 0.  1.
         21   -1    0    0  501  502 -0.00000000000E+00 -0.00000000000E+00 -0.31380670184E+03  0.31380670184E+03  0.00000000000E+00 0.  1.
         25    1    1    2    0    0  0.00000000000E+00  0.00000000000E+00 -0.30135875227E+03  0.32625465141E+03  0.12500000000E+03 0.  0.
<mgrwt>
<rscale>  0 0.12500000E+03</rscale>
<asrwt>0</asrwt>
<pdfrwt beam="1">  1       21 0.19150693E-02 0.12500000E+03</pdfrwt>
<pdfrwt beam="2">  1       21 0.48277950E-01 0.12500000E+03</pdfrwt>
<totfact> 0.53341388E+06</totfact>
</mgrwt>
</event>
<event>
 3    1  0.1620993E-001  0.1250000E+03  0.7546771E-02  0.1235069E+00
         21   -1    0    0  502  501  0.00000000000E+00  0.00000000000E+00  0.60867217899E+02  0.60867217899E+02  0.00000000000E+00 0.  1.
         21   -1    0    0  501  502 -0.00000000000E+00 -0.00000000000E+00 -0.64176581990E+02  0.64176581990E+02  0.00000000000E+00 0.  1.
         25    1    1    2    0    0  0.00000000000E+00  0.00000000000E+00 -0.33093640904E+01  0.12504379989E+03  0.12500000000E+03 0.  0.
<mgrwt>
<rscale>  0 0.12500000E+03</rscale>
<asrwt>0</asrwt>
<pdfrwt beam="1">  1       21 0.93641874E-02 0.12500000E+03</pdfrwt>
<pdfrwt beam="2">  1       21 0.98733203E-02 0.12500000E+03</pdfrwt>
<totfact> 0.74037665E+06</totfact>
</mgrwt>
</event>
<event>
 3    1  0.1620993E-001  0.1250000E+03  0.7546771E-02  0.1235069E+00
         21   -1    0    0  502  501  0.00000000000E+00  0.00000000000E+00  0.45160389321E+03  0.45160389321E+03  0.00000000000E+00 0.  1.
         21   -1    0    0  501  502 -0.00000000000E+00 -0.00000000000E+00 -0.86497261400E+01  0.86497261400E+01  0.00000000000E+00 0.  1.
         25    1    1    2    0    0  0.00000000000E+00  0.00000000000E+00  0.44295416707E+03  0.46025361935E+03  0.12500000000E+03 0.  0.
<mgrwt>
<rscale>  0 0.12500000E+03</rscale>
<asrwt>0</asrwt>
<pdfrwt beam="1">  1       21 0.69477503E-01 0.12500000E+03</pdfrwt>
<pdfrwt beam="2">  1       21 0.13307275E-02 0.12500000E+03</pdfrwt>
<totfact> 0.44285012E+06</totfact>
</mgrwt>
</event>
<event>
 3    1  0.1620993E-001  0.1250000E+03  0.7546771E-02  0.1235069E+00
         21   -1    0    0  502  501  0.00000000000E+00  0.00000000000E+00  0.16680568856E+03  0.16680568856E+03  0.00000000000E+00 0.  1.
         21   -1    0    0  501  502 -0.00000000000E+00 -0.00000000000E+00 -0.23417966340E+02  0.23417966340E+02  0.00000000000E+00 0.  1.
         25    1    1    2    0    0  0.00000000000E+00  0.00000000000E+00  0.14338772222E+03  0.19022365490E+03  0.12500000000E+03 0.  0.
<mgrwt>
<rscale>  0 0.12500000E+03</rscale>
<asrwt>0</asrwt>
<pdfrwt beam="1">  1       21 0.25662413E-01 0.12500000E+03</pdfrwt>
<pdfrwt beam="2">  1       21 0.36027642E-02 0.12500000E+03</pdfrwt>
<totfact> 0.65997616E+06</totfact>
</mgrwt>
</event>
<event>
 3    1  0.1620993E-001  0.1250000E+03  0.7546771E-02  0.1235069E+00
         21   -1    0    0  502  501  0.00000000000E+00  0.00000000000E+00  0.52858678914E+01  0.52858678914E+01  0.00000000000E+00 0.  1.
         21   -1    0    0  501  502 -0.00000000000E+00 -0.00000000000E+00 -0.73899879457E+03  0.73899879457E+03  0.00000000000E+00 0.  1.
         25    1    1    2    0    0  0.00000000000E+00  0.00000000000E+00 -0.73371292668E+03  0.74428466246E+03  0.12500000000E+03 0.  0.
<mgrwt>
<rscale>  0 0.12500000E+03</rscale>
<asrwt>0</asrwt>
<pdfrwt beam="1">  1       21 0.81321064E-03 0.12500000E+03</pdfrwt>
<pdfrwt beam="2">  1       21 0.11369210E+00 0.12500000E+03</pdfrwt>
<totfact> 0.31270909E+06</totfact>
</mgrwt>
</event>
<event>
 3    1  0.1620993E-001  0.1250000E+03  0.7546771E-02  0.1235069E+00
         21   -1    0    0  502  501  0.00000000000E+00  0.00000000000E+00  0.69202461938E+03  0.69202461938E+03  0.00000000000E+00 0.  1.
         21   -1    0    0  501  502 -0.00000000000E+00 -0.00000000000E+00 -0.56446691210E+01  0.56446691210E+01  0.00000000000E+00 0.  1.
         25    1    1    2    0    0  0.00000000000E+00  0.00000000000E+00  0.68637995026E+03  0.69766928850E+03  0.12500000000E+03 0.  0.
<mgrwt>
<rscale>  0 0.12500000E+03</rscale>
<asrwt>0</asrwt>
<pdfrwt beam="1">  1       21 0.10646526E+00 0.12500000E+03</pdfrwt>
<pdfrwt beam="2">  1       21 0.86841118E-03 0.12500000E+03</pdfrwt>
<totfact> 0.33000207E+06</totfact>
</mgrwt>
</event>
<event>
 3    1  0.1620993E-001  0.1250000E+03  0.7546771E-02  0.1235069E+00
         21   -1    0    0  502  501  0.00000000000E+00  0.00000000000E+00  0.11447124438E+02  0.11447124438E+02  0.00000000000E+00 0.  1.
         21   -1    0    0  501  502 -0.00000000000E+00 -0.00000000000E+00 -0.34124290526E+03  0.34124290526E+03  0.00000000000E+00 0.  1.
         25    1    1    2    0    0  0.00000000000E+00  0.00000000000E+00 -0.32979578082E+03  0.35269002970E+03  0.12500000000E+03 0.  0.
<mgrwt>
<rscale>  0 0.12500000E+03</rscale>
<asrwt>0</asrwt>
<pdfrwt beam="1">  1       21 0.17610961E-02 0.12500000E+03</pdfrwt>
<pdfrwt beam="2">  1       21 0.52498907E-01 0.12500000E+03</pdfrwt>
<totfact> 0.51340378E+06</totfact>
</mgrwt>
</event>
<event>
 3    1  0.1620993E-001  0.1250000E+03  0.7546771E-02  0.1235069E+00
         21   -1    0    0  502  501  0.00000000000E+00  0.00000000000E+00  0.83331194420E+01  0.83331194420E+01  0.00000000000E+00 0.  1.
         21   -1    0    0  501  502 -0.00000000000E+00 -0.00000000000E+00 -0.46876203170E+03  0.46876203170E+03  0.00000000000E+00 0.  1.
         25    1    1    2    0    0  0.00000000000E+00  0.00000000000E+00 -0.46042891225E+03  0.47709515114E+03  0.12500000000E+03 0.  0.
<mgrwt>
<rscale>  0 0.12500000E+03</rscale>
<asrwt>0</asrwt>
<pdfrwt beam="1">  1       21 0.12820185E-02 0.12500000E+03</pdfrwt>
<pdfrwt beam="2">  1       21 0.72117228E-01 0.12500000E+03</pdfrwt>
<totfact> 0.43314130E+06</totfact>
</mgrwt>
</event>
<event>
 3    1  0.1620993E-001  0.1250000E+03  0.7546771E-02  0.1235069E+00
         21   -1    0    0  502  501  0.00000000000E+00  0.00000000000E+00  0.77135935667E+02  0.77135935667E+02  0.00000000000E+00 0.  1.
         21   -1    0    0  501  502 -0.00000000000E+00 -0.00000000000E+00 -0.50641117739E+02  0.50641117739E+02  0.00000000000E+00 0.  1.
         25    1    1    2    0    0  0.00000000000E+00  0.00000000000E+00  0.26494817928E+02  0.12777705341E+03  0.12500000000E+03 0.  0.
<mgrwt>
<rscale>  0 0.12500000E+03</rscale>
<asrwt>0</asrwt>
<pdfrwt beam="1">  1       21 0.11867067E-01 0.12500000E+03</pdfrwt>
<pdfrwt beam="2">  1       21 0.77909412E-02 0.12500000E+03</pdfrwt>
<totfact> 0.73663699E+06</totfact>
</mgrwt>
</event>
<event>
 3    1  0.1620993E-001  0.1250000E+03  0.7546771E-02  0.1235069E+00
         21   -1    0    0  502  501  0.00000000000E+00  0.00000000000E+00  0.54828958137E+02  0.54828958137E+02  0.00000000000E+00 0. -1.
         21   -1    0    0  501  502 -0.00000000000E+00 -0.00000000000E+00 -0.71244286463E+02  0.71244286463E+02  0.00000000000E+00 0. -1.
         25    1    1    2    0    0  0.00000000000E+00  0.00000000000E+00 -0.16415328326E+02  0.12607324460E+03  0.12500000000E+03 0.  0.
<mgrwt>
<rscale>  0 0.12500000E+03</rscale>
<asrwt>0</asrwt>
<pdfrwt beam="1">  1       21 0.84352244E-02 0.12500000E+03</pdfrwt>
<pdfrwt beam="2">  1       21 0.10960659E-01 0.12500000E+03</pdfrwt>
<totfact> 0.73895946E+06</totfact>
</mgrwt>
</event>
<event>
 3    1  0.1620993E-001  0.1250000E+03  0.7546771E-02  0.1235069E+00
         21   -1    0    0  502  501  0.00000000000E+00  0.00000000000E+00  0.39662225723E+03  0.39662225723E+03  0.00000000000E+00 0.  1.
         21   -1    0    0  501  502 -0.00000000000E+00 -0.00000000000E+00 -0.98487917125E+01  0.98487917125E+01  0.00000000000E+00 0.  1.
         25    1    1    2    0    0  0.00000000000E+00  0.00000000000E+00  0.38677346552E+03  0.40647104894E+03  0.12500000000E+03 0.  0.
<mgrwt>
<rscale>  0 0.12500000E+03</rscale>
<asrwt>0</asrwt>
<pdfrwt beam="1">  1       21 0.61018797E-01 0.12500000E+03</pdfrwt>
<pdfrwt beam="2">  1       21 0.15151990E-02 0.12500000E+03</pdfrwt>
<totfact> 0.47615079E+06</totfact>
</mgrwt>
</event>
<event>
 3    1  0.1620993E-001  0.1250000E+03  0.7546771E-02  0.1235069E+00
         21   -1    0    0  502  501  0.00000000000E+00  0.00000000000E+00  0.54085056215E+03  0.54085056215E+03  0.00000000000E+00 0. -1.
         21   -1    0    0  501  502 -0.00000000000E+00 -0.00000000000E+00 -0.72224201533E+01  0.72224201533E+01  0.00000000000E+00 0. -1.
         25    1    1    2    0    0  0.00000000000E+00  0.00000000000E+00  0.53362814200E+03  0.54807298230E+03  0.12500000000E+03 0.  0.
<mgrwt>
<rscale>  0 0.12500000E+03</rscale>
<asrwt>0</asrwt>
<pdfrwt beam="1">  1       21 0.83207747E-01 0.12500000E+03</pdfrwt>
<pdfrwt beam="2">  1       21 0.11111420E-02 0.12500000E+03</pdfrwt>
<totfact> 0.39551469E+06</totfact>
</mgrwt>
</event>
<event>
 3    1  0.1620993E-001  0.1250000E+03  0.7546771E-02  0.1235069E+00
         21   -1    0    0  502  501  0.00000000000E+00  0.00000000000E+00  0.46718132153E+02  0.46718132153E+02  0.00000000000E+00 0.  1.
         21   -1    0    0  501  502 -0.00000000000E+00 -0.00000000000E+00 -0.83613145902E+02  0.83613145902E+02  0.00000000000E+00 0.  1.
         25    1    1    2    0    0  0.00000000000E+00  0.00000000000E+00 -0.36895013749E+02  0.13033127806E+03  0.12500000000E+03 0.  0.
<mgrwt>
<rscale>  0 0.12500000E+03</rscale>
<asrwt>0</asrwt>
<pdfrwt beam="1">  1       21 0.71874050E-02 0.12500000E+03</pdfrwt>
<pdfrwt beam="2">  1       21 0.12863561E-01 0.12500000E+03</pdfrwt>
<totfact> 0.73320673E+06</totfact>
</mgrwt>
</event>
<event>
 3    1  0.1620993E-001  0.1250000E+03  0.7546771E-02  0.1235069E+00
         21   -1    0    0  502  501  0.00000000000E+00  0.00000000000E+00  0.17984094189E+02  0.17984094189E+02  0.00000000000E+00 0.  1.
         21   -1    0    0  501  502 -0.00000000000E+00 -0.00000000000E+00 -0.21720582416E+03  0.21720582416E+03  0.00000000000E+00 0.  1.
         25    1    1    2    0    0  0.00000000000E+00  0.00000000000E+00 -0.19922172997E+03  0.23518991835E+03  0.12500000000E+03 0.  0.
<mgrwt>
<rscale>  0 0.12500000E+03</rscale>
<asrwt>0</asrwt>
<pdfrwt beam="1">  1       21 0.27667839E-02 0.12500000E+03</pdfrwt>
<pdfrwt beam="2">  1       21 0.33416279E-01 0.12500000E+03</pdfrwt>
<totfact> 0.61301254E+06</totfact>
</mgrwt>
</event>
<event>
 3    1  0.1620993E-001  0.1250000E+03  0.7546771E-02  0.1235069E+00
         21   -1    0    0  502  501  0.00000000000E+00  0.00000000000E+00  0.99684832375E+01  0.99684832375E+01  0.00000000000E+00 0. -1.
         21   -1    0    0  501  502 -0.00000000000E+00 -0.00000000000E+00 -0.39186001591E+03  0.39186001591E+03  0.00000000000E+00 0. -1.
         25    1    1    2    0    0  0.00000000000E+00  0.00000000000E+00 -0.38189153267E+03  0.40182849914E+03  0.12500000000E+03 0.  0.
<mgrwt>
<rscale>  0 0.12500000E+03</rscale>
<asrwt>0</asrwt>
<pdfrwt beam="1">  1       21 0.15336132E-02 0.12500000E+03</pdfrwt>
<pdfrwt beam="2">  1       21 0.60286141E-01 0.12500000E+03</pdfrwt>
<totfact> 0.47920311E+06</totfact>
</mgrwt>
</event>
<event>
 3    1  0.1620993E-001  0.1250000E+03  0.7546771E-02  0.1235069E+00
         21   -1    0    0  502  501  0.00000000000E+00  0.00000000000E+00  0.12463010235E+03  0.12463010235E+03  0.00000000000E+00 0.  1.
         21   -1    0    0  501  502 -0.00000000000E+00 -0.00000000000E+00 -0.31342748873E+02  0.31342748873E+02  0.00000000000E+00 0.  1.
         25    1    1    2    0    0  0.00000000000E+00  0.00000000000E+00  0.93287353477E+02  0.15597285122E+03  0.12500000000E+03 0.  0.
<mgrwt>
<rscale>  0 0.12500000E+03</rscale>
<asrwt>0</asrwt>
<pdfrwt beam="1">  1       21 0.19173862E-01 0.12500000E+03</pdfrwt>
<pdfrwt beam="2">  1       21 0.48219614E-02 0.12500000E+03</pdfrwt>
<totfact> 0.70014947E+06</totfact>
</mgrwt>
</event>
<event>
 3    1  0.1620993E-001  0.1250000E+03  0.7546771E-02  0.1235069E+00
         21   -1    0    0  502  501  0.00000000000E+00  0.00000000000E+00  0.20873913973E+03  0.20873913973E+03  0.00000000000E+00 0.  1.
         21   -1    0    0  501  502 -0.00000000000E+00 -0.00000000000E+00 -0.18713548427E+02  0.18713548427E+02  0.00000000000E+00 0.  1.
         25    1    1    2    0    0  0.00000000000E+00  0.00000000000E+00  0.19002559130E+03  0.22745268816E+03  0.12500000000E+03 0.  0.
<mgrwt>
<rscale>  0 0.12500000E+03</rscale>
<asrwt>0</asrwt>
<pdfrwt beam="1">  1       21 0.32113712E-01 0.12500000E+03</pdfrwt>
<pdfrwt beam="2">  1       21 0.28790076E-02 0.12500000E+03</pdfrwt>
<totfact> 0.62068399E+06</totfact>
</mgrwt>
</event>
<event>
 3    1  0.1620993E-001  0.1250000E+03  0.7546771E-02  0.1235069E+00
         21   -1    0    0  502  501  0.00000000000E+00  0.00000000000E+00  0.71190605846E+03  0.71190605846E+03  0.00000000000E+00 0.  1.
         21   -1    0    0  501  502 -0.00000000000E+00 -0.00000000000E+00 -0.54870301405E+01  0.54870301405E+01  0.00000000000E+00 0.  1.
         25    1    1    2    0    0  0.00000000000E+00  0.00000000000E+00  0.70641902832E+03  0.71739308860E+03  0.12500000000E+03 0.  0.
<mgrwt>
<rscale>  0 0.12500000E+03</rscale>
<asrwt>0</asrwt>
<pdfrwt beam="1">  1       21 0.10952394E+00 0.12500000E+03</pdfrwt>
<pdfrwt beam="2">  1       21 0.84415905E-03 0.12500000E+03</pdfrwt>
<totfact> 0.32250292E+06</totfact>
</mgrwt>
</event>
<event>
 3    1  0.1620993E-001  0.1250000E+03  0.7546771E-02  0.1235069E+00
         21   -1    0    0  502  501  0.00000000000E+00  0.00000000000E+00  0.15507073630E+01  0.15507073630E+01  0.00000000000E+00 0. -1.
         21   -1    0    0  501  502 -0.00000000000E+00 -0.00000000000E+00 -0.25190117060E+04  0.25190117060E+04  0.00000000000E+00 0. -1.
         25    1    1    2    0    0  0.00000000000E+00  0.00000000000E+00 -0.25174609986E+04  0.25205624134E+04  0.12500000000E+03 0.  0.
<mgrwt>
<rscale>  0 0.12500000E+03</rscale>
<asrwt>0</asrwt>
<pdfrwt beam="1">  1       21 0.23857044E-03 0.12500000E+03</pdfrwt>
<pdfrwt beam="2">  1       21 0.38754013E+00 0.12500000E+03</pdfrwt>
<totfact> 0.38984511E+05</totfact>
</mgrwt>
</event>
<event>
 3    1  0.1620993E-001  0.1250000E+03  0.7546771E-02  0.1235069E+00
         21   -1    0    0  502  501  0.00000000000E+00  0.00000000000E+00  0.76224040959E+02  0.76224040959E+02  0.00000000000E+00 0.  1.
         21   -1    0    0  501  502 -0.00000000000E+00 -0.00000000000E+00 -0.51246955040E+02  0.51246955040E+02  0.00000000000E+00 0.  1.
         25    1    1    2    0    0  0.00000000000E+00  0.00000000000E+00  0.24977085919E+02  0.12747099600E+03  0.12500000000E+03 0.  0.
<mgrwt>
<rscale>  0 0.12500000E+03</rscale>
<asrwt>0</asrwt>
<pdfrwt beam="1">  1       21 0.11726775E-01 0.12500000E+03</pdfrwt>
<pdfrwt beam="2">  1       21 0.78841470E-02 0.12500000E+03</pdfrwt>
<totfact> 0.73705150E+06</totfact>
</mgrwt>
</event>
<event>
 3    1  0.1620993E-001  0.1250000E+03  0.7546771E-02  0.1235069E+00
         21   -1    0    0  502  501  0.00000000000E+00  0.00000000000E+00  0.72884357196E+03  0.72884357196E+03  0.00000000000E+00 0. -1.
         21   -1    0    0  501  502 -0.00000000000E+00 -0.00000000000E+00 -0.53595176665E+01  0.53595176665E+01  0.00000000000E+00 0. -1.
         25    1    1    2    0    0  0.00000000000E+00  0.00000000000E+00  0.72348405429E+03  0.73420308962E+03  0.12500000000E+03 0.  0.
<mgrwt>
<rscale>  0 0.12500000E+03</rscale>
<asrwt>0</asrwt>
<pdfrwt beam="1">  1       21 0.11212970E+00 0.12500000E+03</pdfrwt>
<pdfrwt beam="2">  1       21 0.82454175E-03 0.12500000E+03</pdfrwt>
<totfact> 0.31632439E+06</totfact>
</mgrwt>
</event>
<event>
 3    1  0.1620993E-001  0.1250000E+03  0.7546771E-02  0.1235069E+00
         21   -1    0    0  502  501  0.00000000000E+00  0.00000000000E+00  0.28272891248E+01  0.28272891248E+01  0.00000000000E+00 0. -1.
         21   -1    0    0  501  502 -0.00000000000E+00 -0.00000000000E+00 -0.13816238197E+04  0.13816238197E+04  0.00000000000E+00 0. -1.
         25    1    1    2    0    0  0.00000000000E+00  0.00000000000E+00 -0.13787965306E+04  0.13844511088E+04  0.12500000000E+03 0.  0.
<mgrwt>
<rscale>  0 0.12500000E+03</rscale>
<asrwt>0</asrwt>
<pdfrwt beam="1">  1       21 0.43496684E-03 0.12500000E+03</pdfrwt>
<pdfrwt beam="2">  1       21 0.21255786E+00 0.12500000E+03</pdfrwt>
<totfact> 0.15799760E+06</totfact>
</mgrwt>
</event>
<event>
 3    1  0.1620993E-001  0.1250000E+03  0.7546771E-02  0.1235069E+00
         21   -1    0    0  502  501  0.00000000000E+00  0.00000000000E+00  0.28415434241E+03  0.28415434241E+03  0.00000000000E+00 0.  1.
         21   -1    0    0  501  502 -0.00000000000E+00 -0.00000000000E+00 -0.13746930513E+02  0.13746930513E+02  0.00000000000E+00 0.  1.
         25    1    1    2    0    0  0.00000000000E+00  0.00000000000E+00  0.27040741190E+03  0.29790127292E+03  0.12500000000E+03 0.  0.
<mgrwt>
<rscale>  0 0.12500000E+03</rscale>
<asrwt>0</asrwt>
<pdfrwt beam="1">  1       21 0.43716048E-01 0.12500000E+03</pdfrwt>
<pdfrwt beam="2">  1       21 0.21149126E-02 0.12500000E+03</pdfrwt>
<totfact> 0.55631040E+06</totfact>
</mgrwt>
</event>
<event>
 3    1  0.1620993E-001  0.1250000E+03  0.7546771E-02  0.1235069E+00
         21   -1    0    0  502  501  0.00000000000E+00  0.00000000000E+00  0.10391293652E+03  0.10391293652E+03  0.00000000000E+00 0.  1.
         21   -1    0    0  501  502 -0.00000000000E+00 -0.00000000000E+00 -0.37591565891E+02  0.37591565891E+02  0.00000000000E+00 0.  1.
         25    1    1    2    0    0  0.00000000000E+00  0.00000000000E+00  0.66321370625E+02  0.14150450241E+03  0.12500000000E+03 0.  0.
<mgrwt>
<rscale>  0 0.12500000E+03</rscale>
<asrwt>0</asrwt>
<pdfrwt beam="1">  1       21 0.15986606E-01 0.12500000E+03</pdfrwt>
<pdfrwt beam="2">  1       21 0.57833179E-02 0.12500000E+03</pdfrwt>
<totfact> 0.71843503E+06</totfact>
</mgrwt>
</event>
<event>
 3    1  0.1620993E-001  0.1250000E+03  0.7546771E-02  0.1235069E+00
         21   -1    0    0  502  501  0.00000000000E+00  0.00000000000E+00  0.10025203955E+02  0.10025203955E+02  0.00000000000E+00 0.  1.
         21   -1    0    0  501  502 -0.00000000000E+00 -0.00000000000E+00 -0.38964294569E+03  0.38964294569E+03  0.00000000000E+00 0.  1.
         25    1    1    2    0    0  0.00000000000E+00  0.00000000000E+00 -0.37961774173E+03  0.39966814964E+03  0.12500000000E+03 0.  0.
<mgrwt>
<rscale>  0 0.12500000E+03</rscale>
<asrwt>0</asrwt>
<pdfrwt beam="1">  1       21 0.15423391E-02 0.12500000E+03</pdfrwt>
<pdfrwt beam="2">  1       21 0.59945069E-01 0.12500000E+03</pdfrwt>
<totfact> 0.48063369E+06</totfact>
</mgrwt>
</event>
<event>
 3    1  0.1620993E-001  0.1250000E+03  0.7546771E-02  0.1235069E+00
         21   -1    0    0  502  501  0.00000000000E+00  0.00000000000E+00  0.24183589556E+03  0.24183589556E+03  0.00000000000E+00 0.  1.
         21   -1    0    0  501  502 -0.00000000000E+00 -0.00000000000E+00 -0.16152482207E+02  0.16152482207E+02  0.00000000000E+00 0.  1.
         25    1    1    2    0    0  0.00000000000E+00  0.00000000000E+00  0.22568341335E+03  0.25798837776E+03  0.12500000000E+03 0.  0.
<mgrwt>
<rscale>  0 0.12500000E+03</rscale>
<asrwt>0</asrwt>
<pdfrwt beam="1">  1       21 0.37205520E-01 0.12500000E+03</pdfrwt>
<pdfrwt beam="2">  1       21 0.24849974E-02 0.12500000E+03</pdfrwt>
<totfact> 0.59134143E+06</totfact>
</mgrwt>
</event>
<event>
 3    1  0.1620993E-001  0.1250000E+03  0.7546771E-02  0.1235069E+00
         21   -1    0    0  502  501  0.00000000000E+00  0.00000000000E+00  0.15266947270E+04  0.15266947270E+04  0.00000000000E+00 0. -1.
         21   -1    0    0  501  502 -0.00000000000E+00 -0.00000000000E+00 -0.25586320113E+01  0.25586320113E+01  0.00000000000E+00 0. -1.
         25    1    1    2    0    0  0.00000000000E+00  0.00000000000E+00  0.15241360950E+04  0.15292533590E+04  0.12500000000E+03 0.  0.
<mgrwt>
<rscale>  0 0.12500000E+03</rscale>
<asrwt>0</asrwt>
<pdfrwt beam="1">  1       21 0.23487538E+00 0.12500000E+03</pdfrwt>
<pdfrwt beam="2">  1       21 0.39363691E-03 0.12500000E+03</pdfrwt>
<totfact> 0.13564608E+06</totfact>
</mgrwt>
</event>
<event>
 3    1  0.1620993E-001  0.1250000E+03  0.7546771E-02  0.1235069E+00
         21   -1    0    0  502  501  0.00000000000E+00  0.00000000000E+00  0.11977055362E+03  0.11977055362E+03  0.00000000000E+00 0.  1.
         21   -1    0    0  501  502 -0.00000000000E+00 -0.00000000000E+00 -0.32614443884E+02  0.32614443884E+02  0.00000000000E+00 0.  1.
         25    1    1    2    0    0  0.00000000000E+00  0.00000000000E+00  0.87156109737E+02  0.15238499750E+03  0.12500000000E+03 0.  0.
<mgrwt>
<rscale>  0 0.12500000E+03</rscale>
<asrwt>0</asrwt>
<pdfrwt beam="1">  1       21 0.18426239E-01 0.12500000E+03</pdfrwt>
<pdfrwt beam="2">  1       21 0.50176068E-02 0.12500000E+03</pdfrwt>
<totfact> 0.70460872E+06</totfact>
</mgrwt>
</event>
<event>
 3    1  0.1620993E-001  0.1250000E+03  0.7546771E-02  0.1235069E+00
         21   -1    0    0  502  501  0.00000000000E+00  0.00000000000E+00  0.39866268384E+02  0.39866268384E+02  0.00000000000E+00 0.  1.
         21   -1    0    0  501  502 -0.00000000000E+00 -0.00000000000E+00 -0.97983838427E+02  0.97983838427E+02  0.00000000000E+00 0.  1.
         25    1    1    2    0    0  0.00000000000E+00  0.00000000000E+00 -0.58117570043E+02  0.13785010681E+03  0.12500000000E+03 0.  0.
<mgrwt>
<rscale>  0 0.12500000E+03</rscale>
<asrwt>0</asrwt>
<pdfrwt beam="1">  1       21 0.61332721E-02 0.12500000E+03</pdfrwt>
<pdfrwt beam="2">  1       21 0.15074437E-01 0.12500000E+03</pdfrwt>
<totfact> 0.72321230E+06</totfact>
</mgrwt>
</event>
<event>
 3    1  0.1620993E-001  0.1250000E+03  0.7546771E-02  0.1235069E+00
         21   -1    0    0  502  501  0.00000000000E+00  0.00000000000E+00  0.23111714222E+02  0.23111714222E+02  0.00000000000E+00 0.  1.
         21   -1    0    0  501  502 -0.00000000000E+00 -0.00000000000E+00 -0.16901602202E+03  0.16901602202E+03  0.00000000000E+00 0.  1.
         25    1    1    2    0    0  0.00000000000E+00  0.00000000000E+00 -0.14590430780E+03  0.19212773625E+03  0.12500000000E+03 0.  0.
<mgrwt>
<rscale>  0 0.12500000E+03</rscale>
<asrwt>0</asrwt>
<pdfrwt beam="1">  1       21 0.35556484E-02 0.12500000E+03</pdfrwt>
<pdfrwt beam="2">  1       21 0.26002465E-01 0.12500000E+03</pdfrwt>
<totfact> 0.65786764E+06</totfact>
</mgrwt>
</event>
<event>
 3    1  0.1620993E-001  0.1250000E+03  0.7546771E-02  0.1235069E+00
         21   -1    0    0  502  501  0.00000000000E+00  0.00000000000E+00  0.20505458855E+03  0.20505458855E+03  0.00000000000E+00 0.  1.
         21   -1    0    0  501  502 -0.00000000000E+00 -0.00000000000E+00 -0.19049805360E+02  0.19049805360E+02  0.00000000000E+00 0.  1.
         25    1    1    2    0    0  0.00000000000E+00  0.00000000000E+00  0.18600478319E+03  0.22410439391E+03  0.12500000000E+03 0.  0.
<mgrwt>
<rscale>  0 0.12500000E+03</rscale>
<asrwt>0</asrwt>
<pdfrwt beam="1">  1       21 0.31546858E-01 0.12500000E+03</pdfrwt>
<pdfrwt beam="2">  1       21 0.29307394E-02 0.12500000E+03</pdfrwt>
<totfact> 0.62405459E+06</totfact>
</mgrwt>
</event>
<event>
 3    1  0.1620993E-001  0.1250000E+03  0.7546771E-02  0.1235069E+00
         21   -1    0    0  502  501  0.00000000000E+00  0.00000000000E+00  0.59458025827E+02  0.59458025827E+02  0.00000000000E+00 0.  1.
         21   -1    0    0  501  502 -0.00000000000E+00 -0.00000000000E+00 -0.65697606769E+02  0.65697606769E+02  0.00000000000E+00 0.  1.
         25    1    1    2    0    0  0.00000000000E+00  0.00000000000E+00 -0.62395809423E+01  0.12515563260E+03  0.12500000000E+03 0.  0.
<mgrwt>
<rscale>  0 0.12500000E+03</rscale>
<asrwt>0</asrwt>
<pdfrwt beam="1">  1       21 0.91473886E-02 0.12500000E+03</pdfrwt>
<pdfrwt beam="2">  1       21 0.10107324E-01 0.12500000E+03</pdfrwt>
<totfact> 0.74022563E+06</totfact>
</mgrwt>
</event>
<event>
 3    1  0.1620993E-001  0.1250000E+03  0.7546771E-02  0.1235069E+00
         21   -1    0    0  502  501  0.00000000000E+00  0.00000000000E+00  0.18420778545E+02  0.18420778545E+02  0.00000000000E+00 0.  1.
         21   -1    0    0  501  502 -0.00000000000E+00 -0.00000000000E+00 -0.21205672662E+03  0.21205672662E+03  0.00000000000E+00 0.  1.
         25    1    1    2    0    0  0.00000000000E+00  0.00000000000E+00 -0.19363594807E+03  0.23047750516E+03  0.12500000000E+03 0.  0.
<mgrwt>
<rscale>  0 0.12500000E+03</rscale>
<asrwt>0</asrwt>
<pdfrwt beam="1">  1       21 0.28339659E-02 0.12500000E+03</pdfrwt>
<pdfrwt beam="2">  1       21 0.32624112E-01 0.12500000E+03</pdfrwt>
<totfact> 0.61766491E+06</totfact>
</mgrwt>
</event>
<event>
 3    1  0.1620993E-001  0.1250000E+03  0.7546771E-02  0.1235069E+00
         21   -1    0    0  502  501  0.00000000000E+00  0.00000000000E+00  0.19064109306E+03  0.19064109306E+03  0.00000000000E+00 0.  1.
         21   -1    0    0  501  502 -0.00000000000E+00 -0.00000000000E+00 -0.20490073453E+02  0.20490073453E+02  0.00000000000E+00 0.  1.
         25    1    1    2    0    0  0.00000000000E+00  0.00000000000E+00  0.17015101961E+03  0.21113116651E+03  0.12500000000E+03 0.  0.
<mgrwt>
<rscale>  0 0.12500000E+03</rscale>
<asrwt>0</asrwt>
<pdfrwt beam="1">  1       21 0.29329398E-01 0.12500000E+03</pdfrwt>
<pdfrwt beam="2">  1       21 0.31523191E-02 0.12500000E+03</pdfrwt>
<totfact> 0.63740721E+06</totfact>
</mgrwt>
</event>
<event>
 3    1  0.1620993E-001  0.1250000E+03  0.7546771E-02  0.1235069E+00
         21   -1    0    0  502  501  0.00000000000E+00  0.00000000000E+00  0.18965362368E+02  0.18965362368E+02  0.00000000000E+00 0.  1.
         21   -1    0    0  501  502 -0.00000000000E+00 -0.00000000000E+00 -0.20596759103E+03  0.20596759103E+03  0.00000000000E+00 0.  1.
         25    1    1    2    0    0  0.00000000000E+00  0.00000000000E+00 -0.18700222866E+03  0.22493295340E+03  0.12500000000E+03 0.  0.
<mgrwt>
<rscale>  0 0.12500000E+03</rscale>
<asrwt>0</asrwt>
<pdfrwt beam="1">  1       21 0.29177480E-02 0.12500000E+03</pdfrwt>
<pdfrwt beam="2">  1       21 0.31687322E-01 0.12500000E+03</pdfrwt>
<totfact> 0.62321851E+06</totfact>
</mgrwt>
</event>
<event>
 3    1  0.1620993E-001  0.1250000E+03  0.7546771E-02  0.1235069E+00
         21   -1    0    0  502  501  0.00000000000E+00  0.00000000000E+00  0.82227350984E+02  0.82227350984E+02  0.00000000000E+00 0. -1.
         21   -1    0    0  501  502 -0.00000000000E+00 -0.00000000000E+00 -0.47505482705E+02  0.47505482705E+02  0.00000000000E+00 0. -1.
         25    1    1    2    0    0  0.00000000000E+00  0.00000000000E+00  0.34721868279E+02  0.12973283369E+03  0.12500000000E+03 0.  0.
<mgrwt>
<rscale>  0 0.12500000E+03</rscale>
<asrwt>0</asrwt>
<pdfrwt beam="1">  1       21 0.12650362E-01 0.12500000E+03</pdfrwt>
<pdfrwt beam="2">  1       21 0.73085358E-02 0.12500000E+03</pdfrwt>
<totfact> 0.73400643E+06</totfact>
</mgrwt>
</event>
<event>
 3    1  0.1620993E-001  0.1250000E+03  0.7546771E-02  0.1235069E+00
         21   -1    0    0  502  501  0.00000000000E+00  0.00000000000E+00  0.11256596146E+03  0.11256596146E+03  0.00000000000E+00 0. -1.
         21   -1    0    0  501  502 -0.00000000000E+00 -0.00000000000E+00 -0.34701875677E+02  0.34701875677E+02  0.00000000000E+00 0. -1.
         25    1    1    2    0    0  0.00000000000E+00  0.00000000000E+00  0.77864085780E+02  0.14726783713E+03  0.12500000000E+03 0.  0.
<mgrwt>
<rscale>  0 0.12500000E+03</rscale>
<asrwt>0</asrwt>
<pdfrwt beam="1">  1       21 0.17317840E-01 0.12500000E+03</pdfrwt>
<pdfrwt beam="2">  1       21 0.53387502E-02 0.12500000E+03</pdfrwt>
<totfact> 0.71104121E+06</totfact>
</mgrwt>
</event>
<event>
 3    1  0.1620993E-001  0.1250000E+03  0.7546771E-02  0.1235069E+00
         21   -1    0    0  502  501  0.00000000000E+00  0.00000000000E+00  0.25303431264E+03  0.25303431264E+03  0.00000000000E+00 0.  1.
         21   -1    0    0  501  502 -0.00000000000E+00 -0.00000000000E+00 -0.15437629621E+02  0.15437629621E+02  0.00000000000E+00 0.  1.
         25    1    1    2    0    0  0.00000000000E+00  0.00000000000E+00  0.23759668302E+03  0.26847194226E+03  0.12500000000E+03 0.  0.
<mgrwt>
<rscale>  0 0.12500000E+03</rscale>
<asrwt>0</asrwt>
<pdfrwt beam="1">  1       21 0.38928353E-01 0.12500000E+03</pdfrwt>
<pdfrwt beam="2">  1       21 0.23750201E-02 0.12500000E+03</pdfrwt>
<totfact> 0.58181369E+06</totfact>
</mgrwt>
</event>
<event>
 3    1  0.1620993E-001  0.1250000E+03  0.7546771E-02  0.1235069E+00
         21   -1    0    0  502  501  0.00000000000E+00  0.00000000000E+00  0.14997315657E+02  0.14997315657E+02  0.00000000000E+00 0. -1.
         21   -1    0    0  501  502 -0.00000000000E+00 -0.00000000000E+00 -0.26046327819E+03  0.26046327819E+03  0.00000000000E+00 0. -1.
         25    1    1    2    0    0  0.00000000000E+00  0.00000000000E+00 -0.24546596253E+03  0.27546059385E+03  0.12500000000E+03 0.  0.
<mgrwt>
<rscale>  0 0.12500000E+03</rscale>
<asrwt>0</asrwt>
<pdfrwt beam="1">  1       21 0.23072796E-02 0.12500000E+03</pdfrwt>
<pdfrwt beam="2">  1       21 0.40071269E-01 0.12500000E+03</pdfrwt>
<totfact> 0.57559209E+06</totfact>
</mgrwt>
</event>
<event>
 3    1  0.1620993E-001  0.1250000E+03  0.7546771E-02  0.1235069E+00
         21   -1    0    0  502  501  0.00000000000E+00  0.00000000000E+00  0.18925139033E+01  0.18925139033E+01  0.00000000000E+00 0. -1.
         21   -1    0    0  501  502 -0.00000000000E+00 -0.00000000000E+00 -0.20640535286E+04  0.20640535286E+04  0.00000000000E+00 0. -1.
         25    1    1    2    0    0  0.00000000000E+00  0.00000000000E+00 -0.20621610147E+04  0.20659460425E+04  0.12500000000E+03 0.  0.
<mgrwt>
<rscale>  0 0.12500000E+03</rscale>
<asrwt>0</asrwt>
<pdfrwt beam="1">  1       21 0.29115628E-03 0.12500000E+03</pdfrwt>
<pdfrwt beam="2">  1       21 0.31754638E+00 0.12500000E+03</pdfrwt>
<totfact> 0.73227524E+05</totfact>
</mgrwt>
</event>
<event>
 3    1  0.1620993E-001  0.1250000E+03  0.7546771E-02  0.1235069E+00
         21   -1    0    0  502  501  0.00000000000E+00  0.00000000000E+00  0.11405570796E+03  0.11405570796E+03  0.00000000000E+00 0.  1.
         21   -1    0    0  501  502 -0.00000000000E+00 -0.00000000000E+00 -0.34248614732E+02  0.34248614732E+02  0.00000000000E+00 0.  1.
         25    1    1    2    0    0  0.00000000000E+00  0.00000000000E+00  0.79807093233E+02  0.14830432270E+03  0.12500000000E+03 0.  0.
<mgrwt>
<rscale>  0 0.12500000E+03</rscale>
<asrwt>0</asrwt>
<pdfrwt beam="1">  1       21 0.17547032E-01 0.12500000E+03</pdfrwt>
<pdfrwt beam="2">  1       21 0.52690177E-02 0.12500000E+03</pdfrwt>
<totfact> 0.70972864E+06</totfact>
</mgrwt>
</event>
<event>
 3    1  0.1620993E-001  0.1250000E+03  0.7546771E-02  0.1235069E+00
         21   -1    0    0  502  501  0.00000000000E+00  0.00000000000E+00  0.68919707588E+02  0.68919707588E+02  0.00000000000E+00 0.  1.
         21   -1    0    0  501  502 -0.00000000000E+00 -0.00000000000E+00 -0.56678272975E+02  0.56678272975E+02  0.00000000000E+00 0.  1.
         25    1    1    2    0    0  0.00000000000E+00  0.00000000000E+00  0.12241434613E+02  0.12559798056E+03  0.12500000000E+03 0.  0.
<mgrwt>
<rscale>  0 0.12500000E+03</rscale>
<asrwt>0</asrwt>
<pdfrwt beam="1">  1       21 0.10603032E-01 0.12500000E+03</pdfrwt>
<pdfrwt beam="2">  1       21 0.87197343E-02 0.12500000E+03</pdfrwt>
<totfact> 0.73961724E+06</totfact>
</mgrwt>
</event>
<event>
 3    1  0.1620993E-001  0.1250000E+03  0.7546771E-02  0.1235069E+00
         21   -1    0    0  502  501  0.00000000000E+00  0.00000000000E+00  0.59576093700E+01  0.59576093700E+01  0.00000000000E+00 0. -1.
         21   -1    0    0  501  502 -0.00000000000E+00 -0.00000000000E+00 -0.65567407284E+03  0.65567407284E+03  0.00000000000E+00 0. -1.
         25    1    1    2    0    0  0.00000000000E+00  0.00000000000E+00 -0.64971646347E+03  0.66163168221E+03  0.12500000000E+03 0.  0.
<mgrwt>
<rscale>  0 0.12500000E+03</rscale>
<asrwt>0</asrwt>
<pdfrwt beam="1">  1       21 0.91655600E-03 0.12500000E+03</pdfrwt>
<pdfrwt beam="2">  1       21 0.10087286E+00 0.12500000E+03</pdfrwt>
<totfact> 0.34442401E+06</totfact>
</mgrwt>
</event>
<event>
 3    1  0.1620993E-001  0.1250000E+03  0.7546771E-02  0.1235069E+00
         21   -1    0    0  502  501  0.00000000000E+00  0.00000000000E+00  0.20330163413E+02  0.20330163413E+02  0.00000000000E+00 0. -1.
         21   -1    0    0  501  502 -0.00000000000E+00 -0.00000000000E+00 -0.19214061002E+03  0.19214061002E+03  0.00000000000E+00 0. -1.
         25    1    1    2    0    0  0.00000000000E+00  0.00000000000E+00 -0.17181044661E+03  0.21247077343E+03  0.12500000000E+03 0.  0.
<mgrwt>
<rscale>  0 0.12500000E+03</rscale>
<asrwt>0</asrwt>
<pdfrwt beam="1">  1       21 0.31277174E-02 0.12500000E+03</pdfrwt>
<pdfrwt beam="2">  1       21 0.29560094E-01 0.12500000E+03</pdfrwt>
<totfact> 0.63600516E+06</totfact>
</mgrwt>
</event>
<event>
 3    1  0.1620993E-001  0.1250000E+03  0.7546771E-02  0.1235069E+00
         21   -1    0    0  502  501  0.00000000000E+00  0.00000000000E+00  0.11978716267E+03  0.11978716267E+03  0.00000000000E+00 0. -1.
         21   -1    0    0  501  502 -0.00000000000E+00 -0.00000000000E+00 -0.32609921739E+02  0.32609921739E+02  0.00000000000E+00 0. -1.
         25    1    1    2    0    0  0.00000000000E+00  0.00000000000E+00  0.87177240932E+02  0.15239708441E+03  0.12500000000E+03 0.  0.
<mgrwt>
<rscale>  0 0.12500000E+03</rscale>
<asrwt>0</asrwt>
<pdfrwt beam="1">  1       21 0.18428794E-01 0.12500000E+03</pdfrwt>
<pdfrwt beam="2">  1       21 0.50169111E-02 0.12500000E+03</pdfrwt>
<totfact> 0.70459367E+06</totfact>
</mgrwt>
</event>
<event>
 3    1  0.1620993E-001  0.1250000E+03  0.7546771E-02  0.1235069E+00
         21   -1    0    0  502  501  0.00000000000E+00  0.00000000000E+00  0.17930339736E+03  0.17930339736E+03  0.00000000000E+00 0.  1.
         21   -1    0    0  501  502 -0.00000000000E+00 -0.00000000000E+00 -0.21785699867E+02  0.21785699867E+02  0.00000000000E+00 0.  1.
         25    1    1    2    0    0  0.00000000000E+00  0.00000000000E+00  0.15751769749E+03  0.20108909722E+03  0.12500000000E+03 0.  0.
<mgrwt>
<rscale>  0 0.12500000E+03</rscale>
<asrwt>0</asrwt>
<pdfrwt beam="1">  1       21 0.27585137E-01 0.12500000E+03</pdfrwt>
<pdfrwt beam="2">  1       21 0.33516463E-02 0.12500000E+03</pdfrwt>
<totfact> 0.64809433E+06</totfact>
</mgrwt>
</event>
<event>
 3    1  0.1620993E-001  0.1250000E+03  0.7546771E-02  0.1235069E+00
         21   -1    0    0  502  501  0.00000000000E+00  0.00000000000E+00  0.27104257887E+02  0.27104257887E+02  0.00000000000E+00 0.  1.
         21   -1    0    0  501  502 -0.00000000000E+00 -0.00000000000E+00 -0.14411942272E+03  0.14411942272E+03  0.00000000000E+00 0.  1.
         25    1    1    2    0    0  0.00000000000E+00  0.00000000000E+00 -0.11701516484E+03  0.17122368061E+03  0.12500000000E+03 0.  0.
<mgrwt>
<rscale>  0 0.12500000E+03</rscale>
<asrwt>0</asrwt>
<pdfrwt beam="1">  1       21 0.41698859E-02 0.12500000E+03</pdfrwt>
<pdfrwt beam="2">  1       21 0.22172218E-01 0.12500000E+03</pdfrwt>
<totfact> 0.68172871E+06</totfact>
</mgrwt>
</event>
<event>
 3    1  0.1620993E-001  0.1250000E+03  0.7546771E-02  0.1235069E+00
         21   -1    0    0  502  501  0.00000000000E+00  0.00000000000E+00  0.72449665841E+03  0.72449665841E+03  0.00000000000E+00 0.  1.
         21   -1    0    0  501  502 -0.00000000000E+00 -0.00000000000E+00 -0.53916742813E+01  0.53916742813E+01  0.00000000000E+00 0.  1.
         25    1    1    2    0    0  0.00000000000E+00  0.00000000000E+00  0.71910498413E+03  0.72988833269E+03  0.12500000000E+03 0.  0.
<mgrwt>
<rscale>  0 0.12500000E+03</rscale>
<asrwt>0</asrwt>
<pdfrwt beam="1">  1       21 0.11146095E+00 0.12500000E+03</pdfrwt>
<pdfrwt beam="2">  1       21 0.82948892E-03 0.12500000E+03</pdfrwt>
<totfact> 0.31789206E+06</totfact>
</mgrwt>
</event>
<event>
 3    1  0.1620993E-001  0.1250000E+03  0.7546771E-02  0.1235069E+00
         21   -1    0    0  502  501  0.00000000000E+00  0.00000000000E+00  0.63352180021E+01  0.63352180021E+01  0.00000000000E+00 0.  1.
         21   -1    0    0  501  502 -0.00000000000E+00 -0.00000000000E+00 -0.61659283054E+03  0.61659283054E+03  0.00000000000E+00 0.  1.
         25    1    1    2    0    0  0.00000000000E+00  0.00000000000E+00 -0.61025761254E+03  0.62292804854E+03  0.12500000000E+03 0.  0.
<mgrwt>
<rscale>  0 0.12500000E+03</rscale>
<asrwt>0</asrwt>
<pdfrwt beam="1">  1       21 0.97464906E-03 0.12500000E+03</pdfrwt>
<pdfrwt beam="2">  1       21 0.94860423E-01 0.12500000E+03</pdfrwt>
<totfact> 0.36075850E+06</totfact>
</mgrwt>
</event>
<event>
 3    1  0.1620993E-001  0.1250000E+03  0.7546771E-02  0.1235069E+00
         21   -1    0    0  502  501  0.00000000000E+00  0.00000000000E+00  0.22878833868E+03  0.22878833868E+03  0.00000000000E+00 0.  1.
         21   -1    0    0  501  502 -0.00000000000E+00 -0.00000000000E+00 -0.17073641177E+02  0.17073641177E+02  0.00000000000E+00 0.  1.
         25    1    1    2    0    0  0.00000000000E+00  0.00000000000E+00  0.21171469750E+03  0.24586197985E+03  0.12500000000E+03 0.  0.
<mgrwt>
<rscale>  0 0.12500000E+03</rscale>
<asrwt>0</asrwt>
<pdfrwt beam="1">  1       21 0.35198204E-01 0.12500000E+03</pdfrwt>
<pdfrwt beam="2">  1       21 0.26267142E-02 0.12500000E+03</pdfrwt>
<totfact> 0.60269981E+06</totfact>
</mgrwt>
</event>
<event>
 3    1  0.1620993E-001  0.1250000E+03  0.7546771E-02  0.1235069E+00
         21   -1    0    0  502  501  0.00000000000E+00  0.00000000000E+00  0.32627294404E+03  0.32627294404E+03  0.00000000000E+00 0.  1.
         21   -1    0    0  501  502 -0.00000000000E+00 -0.00000000000E+00 -0.11972338103E+02  0.11972338103E+02  0.00000000000E+00 0.  1.
         25    1    1    2    0    0  0.00000000000E+00  0.00000000000E+00  0.31430060593E+03  0.33824528214E+03  0.12500000000E+03 0.  0.
<mgrwt>
<rscale>  0 0.12500000E+03</rscale>
<asrwt>0</asrwt>
<pdfrwt beam="1">  1       21 0.50195831E-01 0.12500000E+03</pdfrwt>
<pdfrwt beam="2">  1       21 0.18418984E-02 0.12500000E+03</pdfrwt>
<totfact> 0.52418446E+06</totfact>
</mgrwt>
</event>
<event>
 3    1  0.1620993E-001  0.1250000E+03  0.7546771E-02  0.1235069E+00
         21   -1    0    0  502  501  0.00000000000E+00  0.00000000000E+00  0.34017874277E+02  0.34017874277E+02  0.00000000000E+00 0.  1.
         21   -1    0    0  501  502 -0.00000000000E+00 -0.00000000000E+00 -0.11482933849E+03  0.11482933849E+03  0.00000000000E+00 0.  1.
         25    1    1    2    0    0  0.00000000000E+00  0.00000000000E+00 -0.80811464210E+02  0.14884721276E+03  0.12500000000E+03 0.  0.
<mgrwt>
<rscale>  0 0.12500000E+03</rscale>
<asrwt>0</asrwt>
<pdfrwt beam="1">  1       21 0.52335191E-02 0.12500000E+03</pdfrwt>
<pdfrwt beam="2">  1       21 0.17666052E-01 0.12500000E+03</pdfrwt>
<totfact> 0.70904313E+06</totfact>
</mgrwt>
</event>
<event>
 3    1  0.1620993E-001  0.1250000E+03  0.7546771E-02  0.1235069E+00
         21   -1    0    0  502  501  0.00000000000E+00  0.00000000000E+00  0.64371184107E+01  0.64371184107E+01  0.00000000000E+00 0.  1.
         21   -1    0    0  501  502 -0.00000000000E+00 -0.00000000000E+00 -0.60683208709E+03  0.60683208709E+03  0.00000000000E+00 0.  1.
         25    1    1    2    0    0  0.00000000000E+00  0.00000000000E+00 -0.60039496868E+03  0.61326920550E+03  0.12500000000E+03 0.  0.
<mgrwt>
<rscale>  0 0.12500000E+03</rscale>
<asrwt>0</asrwt>
<pdfrwt beam="1">  1       21 0.99032537E-03 0.12500000E+03</pdfrwt>
<pdfrwt beam="2">  1       21 0.93358834E-01 0.12500000E+03</pdfrwt>
<totfact> 0.36499327E+06</totfact>
</mgrwt>
</event>
<event>
 3    1  0.1620993E-001  0.1250000E+03  0.7546771E-02  0.1235069E+00
         21   -1    0    0  502  501  0.00000000000E+00  0.00000000000E+00  0.14261524308E+04  0.14261524308E+04  0.00000000000E+00 0.  1.
         21   -1    0    0  501  502 -0.00000000000E+00 -0.00000000000E+00 -0.27390129663E+01  0.27390129663E+01  0.00000000000E+00 0.  1.
         25    1    1    2    0    0  0.00000000000E+00  0.00000000000E+00  0.14234134179E+04  0.14288914438E+04  0.12500000000E+03 0.  0.
<mgrwt>
<rscale>  0 0.12500000E+03</rscale>
<asrwt>0</asrwt>
<pdfrwt beam="1">  1       21 0.21940747E+00 0.12500000E+03</pdfrwt>
<pdfrwt beam="2">  1       21 0.42138775E-03 0.12500000E+03</pdfrwt>
<totfact> 0.15081248E+06</totfact>
</mgrwt>
</event>
<event>
 3    1  0.1620993E-001  0.1250000E+03  0.7546771E-02  0.1235069E+00
         21   -1    0    0  502  501  0.00000000000E+00  0.00000000000E+00  0.13266013313E+02  0.13266013313E+02  0.00000000000E+00 0.  1.
         21   -1    0    0  501  502 -0.00000000000E+00 -0.00000000000E+00 -0.29445545604E+03  0.29445545604E+03  0.00000000000E+00 0.  1.
         25    1    1    2    0    0  0.00000000000E+00  0.00000000000E+00 -0.28118944272E+03  0.30772146935E+03  0.12500000000E+03 0.  0.
<mgrwt>
<rscale>  0 0.12500000E+03</rscale>
<asrwt>0</asrwt>
<pdfrwt beam="1">  1       21 0.20409252E-02 0.12500000E+03</pdfrwt>
<pdfrwt beam="2">  1       21 0.45300837E-01 0.12500000E+03</pdfrwt>
<totfact> 0.54820533E+06</totfact>
</mgrwt>
</event>
<event>
 3    1  0.1620993E-001  0.1250000E+03  0.7546771E-02  0.1235069E+00
         21   -1    0    0  502  501  0.00000000000E+00  0.00000000000E+00  0.16501227692E+02  0.16501227692E+02  0.00000000000E+00 0. -1.
         21   -1    0    0  501  502 -0.00000000000E+00 -0.00000000000E+00 -0.23672481059E+03  0.23672481059E+03  0.00000000000E+00 0. -1.
         25    1    1    2    0    0  0.00000000000E+00  0.00000000000E+00 -0.22022358290E+03  0.25322603828E+03  0.12500000000E+03 0.  0.
<mgrwt>
<rscale>  0 0.12500000E+03</rscale>
<asrwt>0</asrwt>
<pdfrwt beam="1">  1       21 0.25386503E-02 0.12500000E+03</pdfrwt>
<pdfrwt beam="2">  1       21 0.36419203E-01 0.12500000E+03</pdfrwt>
<totfact> 0.59575784E+06</totfact>
</mgrwt>
</event>
<event>
 3    1  0.1620993E-001  0.1250000E+03  0.7546771E-02  0.1235069E+00
         21   -1    0    0  502  501  0.00000000000E+00  0.00000000000E+00  0.10147624039E+04  0.10147624039E+04  0.00000000000E+00 0. -1.
         21   -1    0    0  501  502 -0.00000000000E+00 -0.00000000000E+00 -0.38494232592E+01  0.38494232592E+01  0.00000000000E+00 0. -1.
         25    1    1    2    0    0  0.00000000000E+00  0.00000000000E+00  0.10109129806E+04  0.10186118271E+04  0.12500000000E+03 0.  0.
<mgrwt>
<rscale>  0 0.12500000E+03</rscale>
<asrwt>0</asrwt>
<pdfrwt beam="1">  1       21 0.15611708E+00 0.12500000E+03</pdfrwt>
<pdfrwt beam="2">  1       21 0.59221977E-03 0.12500000E+03</pdfrwt>
<totfact> 0.23157675E+06</totfact>
</mgrwt>
</event>
<event>
 3    1  0.1620993E-001  0.1250000E+03  0.7546771E-02  0.1235069E+00
         21   -1    0    0  502  501  0.00000000000E+00  0.00000000000E+00  0.36472904276E+03  0.36472904276E+03  0.00000000000E+00 0. -1.
         21   -1    0    0  501  502 -0.00000000000E+00 -0.00000000000E+00 -0.10710005352E+02  0.10710005352E+02  0.00000000000E+00 0. -1.
         25    1    1    2    0    0  0.00000000000E+00  0.00000000000E+00  0.35401903741E+03  0.37543904811E+03  0.12500000000E+03 0.  0.
<mgrwt>
<rscale>  0 0.12500000E+03</rscale>
<asrwt>0</asrwt>
<pdfrwt beam="1">  1       21 0.56112151E-01 0.12500000E+03</pdfrwt>
<pdfrwt beam="2">  1       21 0.16476934E-02 0.12500000E+03</pdfrwt>
<totfact> 0.49712835E+06</totfact>
</mgrwt>
</event>
<event>
 3    1  0.1620993E-001  0.1250000E+03  0.7546771E-02  0.1235069E+00
         21   -1    0    0  502  501  0.00000000000E+00  0.00000000000E+00  0.10673029921E+03  0.10673029921E+03  0.00000000000E+00 0.  1.
         21   -1    0    0  501  502 -0.00000000000E+00 -0.00000000000E+00 -0.36599260275E+02  0.36599260275E+02  0.00000000000E+00 0.  1.
         25    1    1    2    0    0  0.00000000000E+00  0.00000000000E+00  0.70131038933E+02  0.14332955948E+03  0.12500000000E+03 0.  0.
<mgrwt>
<rscale>  0 0.12500000E+03</rscale>
<asrwt>0</asrwt>
<pdfrwt beam="1">  1       21 0.16420046E-01 0.12500000E+03</pdfrwt>
<pdfrwt beam="2">  1       21 0.56306555E-02 0.12500000E+03</pdfrwt>
<totfact> 0.71607566E+06</totfact>
</mgrwt>
</event>
<event>
 3    1  0.1620993E-001  0.1250000E+03  0.7546771E-02  0.1235069E+00
         21   -1    0    0  502  501  0.00000000000E+00  0.00000000000E+00  0.61933214545E+03  0.61933214545E+03  0.00000000000E+00 0. -1.
         21   -1    0    0  501  502 -0.00000000000E+00 -0.00000000000E+00 -0.63071972425E+01  0.63071972425E+01  0.00000000000E+00 0. -1.
         25    1    1    2    0    0  0.00000000000E+00  0.00000000000E+00  0.61302494821E+03  0.62563934269E+03  0.12500000000E+03 0.  0.
<mgrwt>
<rscale>  0 0.12500000E+03</rscale>
<asrwt>0</asrwt>
<pdfrwt beam="1">  1       21 0.95281820E-01 0.12500000E+03</pdfrwt>
<pdfrwt beam="2">  1       21 0.97033853E-03 0.12500000E+03</pdfrwt>
<totfact> 0.35958221E+06</totfact>
</mgrwt>
</event>
<event>
 3    1  0.1620993E-001  0.1250000E+03  0.7546771E-02  0.1235069E+00
         21   -1    0    0  502  501  0.00000000000E+00  0.00000000000E+00  0.75263116993E+02  0.75263116993E+02  0.00000000000E+00 0. -1.
         21   -1    0    0  501  502 -0.00000000000E+00 -0.00000000000E+00 -0.51901251982E+02  0.51901251982E+02  0.00000000000E+00 0. -1.
         25    1    1    2    0    0  0.00000000000E+00  0.00000000000E+00  0.23361865012E+02  0.12716436898E+03  0.12500000000E+03 0.  0.
<mgrwt>
<rscale>  0 0.12500000E+03</rscale>
<asrwt>0</asrwt>
<pdfrwt beam="1">  1       21 0.11578941E-01 0.12500000E+03</pdfrwt>
<pdfrwt beam="2">  1       21 0.79848080E-02 0.12500000E+03</pdfrwt>
<totfact> 0.73746777E+06</totfact>
</mgrwt>
</event>
<event>
 3    1  0.1620993E-001  0.1250000E+03  0.7546771E-02  0.1235069E+00
         21   -1    0    0  502  501  0.00000000000E+00  0.00000000000E+00  0.10685142785E+03  0.10685142785E+03  0.00000000000E+00 0. -1.
         21   -1    0    0  501  502 -0.00000000000E+00 -0.00000000000E+00 -0.36557770716E+02  0.36557770716E+02  0.00000000000E+00 0. -1.
         25    1    1    2    0    0  0.00000000000E+00  0.00000000000E+00  0.70293657132E+02  0.14340919856E+03  0.12500000000E+03 0.  0.
<mgrwt>
<rscale>  0 0.12500000E+03</rscale>
<asrwt>0</asrwt>
<pdfrwt beam="1">  1       21 0.16438681E-01 0.12500000E+03</pdfrwt>
<pdfrwt beam="2">  1       21 0.56242725E-02 0.12500000E+03</pdfrwt>
<totfact> 0.71597309E+06</totfact>
</mgrwt>
</event>
<event>
 3    1  0.1620993E-001  0.1250000E+03  0.7546771E-02  0.1235069E+00
         21   -1    0    0  502  501  0.00000000000E+00  0.00000000000E+00  0.14968472747E+03  0.14968472747E+03  0.00000000000E+00 0.  1.
         21   -1    0    0  501  502 -0.00000000000E+00 -0.00000000000E+00 -0.26096516766E+02  0.26096516766E+02  0.00000000000E+00 0.  1.
         25    1    1    2    0    0  0.00000000000E+00  0.00000000000E+00  0.12358821070E+03  0.17578124424E+03  0.12500000000E+03 0.  0.
<mgrwt>
<rscale>  0 0.12500000E+03</rscale>
<asrwt>0</asrwt>
<pdfrwt beam="1">  1       21 0.23028419E-01 0.12500000E+03</pdfrwt>
<pdfrwt beam="2">  1       21 0.40148488E-02 0.12500000E+03</pdfrwt>
<totfact> 0.67638825E+06</totfact>
</mgrwt>
</event>
<event>
 3    1  0.1620993E-001  0.1250000E+03  0.7546771E-02  0.1235069E+00
         21   -1    0    0  502  501  0.00000000000E+00  0.00000000000E+00  0.23834803149E+02  0.23834803149E+02  0.00000000000E+00 0. -1.
         21   -1    0    0  501  502 -0.00000000000E+00 -0.00000000000E+00 -0.16388849430E+03  0.16388849430E+03  0.00000000000E+00 0. -1.
         25    1    1    2    0    0  0.00000000000E+00  0.00000000000E+00 -0.14005369115E+03  0.18772329745E+03  0.12500000000E+03 0.  0.
<mgrwt>
<rscale>  0 0.12500000E+03</rscale>
<asrwt>0</asrwt>
<pdfrwt beam="1">  1       21 0.36668928E-02 0.12500000E+03</pdfrwt>
<pdfrwt beam="2">  1       21 0.25213615E-01 0.12500000E+03</pdfrwt>
<totfact> 0.66276396E+06</totfact>
</mgrwt>
</event>
<event>
 3    1  0.1620993E-001  0.1250000E+03  0.7546771E-02  0.1235069E+00
         21   -1    0    0  502  501  0.00000000000E+00  0.00000000000E+00  0.10778548881E+02  0.10778548881E+02  0.00000000000E+00 0.  1.
         21   -1    0    0  501  502 -0.00000000000E+00 -0.00000000000E+00 -0.36240963816E+03  0.36240963816E+03  0.00000000000E+00 0.  1.
         25    1    1    2    0    0  0.00000000000E+00  0.00000000000E+00 -0.35163108928E+03  0.37318818704E+03  0.12500000000E+03 0.  0.
<mgrwt>
<rscale>  0 0.12500000E+03</rscale>
<asrwt>0</asrwt>
<pdfrwt beam="1">  1       21 0.16582383E-02 0.12500000E+03</pdfrwt>
<pdfrwt beam="2">  1       21 0.55755329E-01 0.12500000E+03</pdfrwt>
<totfact> 0.49870199E+06</totfact>
</mgrwt>
</event>
<event>
 3    1  0.1620993E-001  0.1250000E+03  0.7546771E-02  0.1235069E+00
         21   -1    0    0  502  501  0.00000000000E+00  0.00000000000E+00  0.60700235813E+02  0.60700235813E+02  0.00000000000E+00 0.  1.
         21   -1    0    0  501  502 -0.00000000000E+00 -0.00000000000E+00 -0.64353127261E+02  0.64353127261E+02  0.00000000000E+00 0.  1.
         25    1    1    2    0    0  0.00000000000E+00  0.00000000000E+00 -0.36528914481E+01  0.12505336307E+03  0.12500000000E+03 0.  0.
<mgrwt>
<rscale>  0 0.12500000E+03</rscale>
<asrwt>0</asrwt>
<pdfrwt beam="1">  1       21 0.93384978E-02 0.12500000E+03</pdfrwt>
<pdfrwt beam="2">  1       21 0.99004812E-02 0.12500000E+03</pdfrwt>
<totfact> 0.74036374E+06</totfact>
</mgrwt>
</event>
<event>
 3    1  0.1620993E-001  0.1250000E+03  0.7546771E-02  0.1235069E+00
         21   -1    0    0  502  501  0.00000000000E+00  0.00000000000E+00  0.27951157958E+02  0.27951157958E+02  0.00000000000E+00 0. -1.
         21   -1    0    0  501  502 -0.00000000000E+00 -0.00000000000E+00 -0.13975270741E+03  0.13975270741E+03  0.00000000000E+00 0. -1.
         25    1    1    2    0    0  0.00000000000E+00  0.00000000000E+00 -0.11180154946E+03  0.16770386537E+03  0.12500000000E+03 0.  0.
<mgrwt>
<rscale>  0 0.12500000E+03</rscale>
<asrwt>0</asrwt>
<pdfrwt beam="1">  1       21 0.43001782E-02 0.12500000E+03</pdfrwt>
<pdfrwt beam="2">  1       21 0.21500417E-01 0.12500000E+03</pdfrwt>
<totfact> 0.68590204E+06</totfact>
</mgrwt>
</event>
<event>
 3    1  0.1620993E-001  0.1250000E+03  0.7546771E-02  0.1235069E+00
         21   -1    0    0  502  501  0.00000000000E+00  0.00000000000E+00  0.34740568474E+02  0.34740568474E+02  0.00000000000E+00 0. -1.
         21   -1    0    0  501  502 -0.00000000000E+00 -0.00000000000E+00 -0.11244058953E+03  0.11244058953E+03  0.00000000000E+00 0. -1.
         25    1    1    2    0    0  0.00000000000E+00  0.00000000000E+00 -0.77700021060E+02  0.14718115801E+03  0.12500000000E+03 0.  0.
<mgrwt>
<rscale>  0 0.12500000E+03</rscale>
<asrwt>0</asrwt>
<pdfrwt beam="1">  1       21 0.53447027E-02 0.12500000E+03</pdfrwt>
<pdfrwt beam="2">  1       21 0.17298553E-01 0.12500000E+03</pdfrwt>
<totfact> 0.71115121E+06</totfact>
</mgrwt>
</event>
<event>
 3    1  0.1620993E-001  0.1250000E+03  0.7546771E-02  0.1235069E+00
         21   -1    0    0  502  501  0.00000000000E+00  0.00000000000E+00  0.37160117209E+03  0.37160117209E+03  0.00000000000E+00 0. -1.
         21   -1    0    0  501  502 -0.00000000000E+00 -0.00000000000E+00 -0.10511942086E+02  0.10511942086E+02  0.00000000000E+00 0. -1.
         25    1    1    2    0    0  0.00000000000E+00  0.00000000000E+00  0.36108923000E+03  0.38211311417E+03  0.12500000000E+03 0.  0.
<mgrwt>
<rscale>  0 0.12500000E+03</rscale>
<asrwt>0</asrwt>
<pdfrwt beam="1">  1       21 0.57169401E-01 0.12500000E+03</pdfrwt>
<pdfrwt beam="2">  1       21 0.16172221E-02 0.12500000E+03</pdfrwt>
<totfact> 0.49250778E+06</totfact>
</mgrwt>
</event>
<event>
 3    1  0.1620993E-001  0.1250000E+03  0.7546771E-02  0.1235069E+00
         21   -1    0    0  502  501  0.00000000000E+00  0.00000000000E+00  0.42848706756E+02  0.42848706756E+02  0.00000000000E+00 0.  1.
         21   -1    0    0  501  502 -0.00000000000E+00 -0.00000000000E+00 -0.91163778226E+02  0.91163778226E+02  0.00000000000E+00 0.  1.
         25    1    1    2    0    0  0.00000000000E+00  0.00000000000E+00 -0.48315071470E+02  0.13401248498E+03  0.12500000000E+03 0.  0.
<mgrwt>
<rscale>  0 0.12500000E+03</rscale>
<asrwt>0</asrwt>
<pdfrwt beam="1">  1       21 0.65921089E-02 0.12500000E+03</pdfrwt>
<pdfrwt beam="2">  1       21 0.14025196E-01 0.12500000E+03</pdfrwt>
<totfact> 0.72827493E+06</totfact>
</mgrwt>
</event>
<event>
 3    1  0.1620993E-001  0.1250000E+03  0.7546771E-02  0.1235069E+00
         21   -1    0    0  502  501  0.00000000000E+00  0.00000000000E+00  0.12817405289E+04  0.12817405289E+04  0.00000000000E+00 0.  1.
         21   -1    0    0  501  502 -0.00000000000E+00 -0.00000000000E+00 -0.30476137034E+01  0.30476137034E+01  0.00000000000E+00 0.  1.
         25    1    1    2    0    0  0.00000000000E+00  0.00000000000E+00  0.12786929152E+04  0.12847881426E+04  0.12500000000E+03 0.  0.
<mgrwt>
<rscale>  0 0.12500000E+03</rscale>
<asrwt>0</asrwt>
<pdfrwt beam="1">  1       21 0.19719042E+00 0.12500000E+03</pdfrwt>
<pdfrwt beam="2">  1       21 0.46886467E-03 0.12500000E+03</pdfrwt>
<totfact> 0.17527760E+06</totfact>
</mgrwt>
</event>
<event>
 3    1  0.1620993E-001  0.1250000E+03  0.7546771E-02  0.1235069E+00
         21   -1    0    0  502  501  0.00000000000E+00  0.00000000000E+00  0.11574106144E+03  0.11574106144E+03  0.00000000000E+00 0. -1.
         21   -1    0    0  501  502 -0.00000000000E+00 -0.00000000000E+00 -0.33749906485E+02  0.33749906485E+02  0.00000000000E+00 0. -1.
         25    1    1    2    0    0  0.00000000000E+00  0.00000000000E+00  0.81991154955E+02  0.14949096792E+03  0.12500000000E+03 0.  0.
<mgrwt>
<rscale>  0 0.12500000E+03</rscale>
<asrwt>0</asrwt>
<pdfrwt beam="1">  1       21 0.17806317E-01 0.12500000E+03</pdfrwt>
<pdfrwt beam="2">  1       21 0.51922934E-02 0.12500000E+03</pdfrwt>
<totfact> 0.70823203E+06</totfact>
</mgrwt>
</event>
<event>
 3    1  0.1620993E-001  0.1250000E+03  0.7546771E-02  0.1235069E+00
         21   -1    0    0  502  501  0.00000000000E+00  0.00000000000E+00  0.40531160579E+02  0.40531160579E+02  0.00000000000E+00 0. -1.
         21   -1    0    0  501  502 -0.00000000000E+00 -0.00000000000E+00 -0.96376465520E+02  0.96376465520E+02  0.00000000000E+00 0. -1.
         25    1    1    2    0    0  0.00000000000E+00  0.00000000000E+00 -0.55845304941E+02  0.13690762610E+03  0.12500000000E+03 0.  0.
<mgrwt>
<rscale>  0 0.12500000E+03</rscale>
<asrwt>0</asrwt>
<pdfrwt beam="1">  1       21 0.62355633E-02 0.12500000E+03</pdfrwt>
<pdfrwt beam="2">  1       21 0.14827148E-01 0.12500000E+03</pdfrwt>
<totfact> 0.72444862E+06</totfact>
</mgrwt>
</event>
<event>
 3    1  0.1620993E-001  0.1250000E+03  0.7546771E-02  0.1235069E+00
         21   -1    0    0  502  501  0.00000000000E+00  0.00000000000E+00  0.61958788990E+03  0.61958788990E+03  0.00000000000E+00 0.  1.
         21   -1    0    0  501  502 -0.00000000000E+00 -0.00000000000E+00 -0.63045938497E+01  0.63045938497E+01  0.00000000000E+00 0.  1.
         25    1    1    2    0    0  0.00000000000E+00  0.00000000000E+00  0.61328329605E+03  0.62589248375E+03  0.12500000000E+03 0.  0.
<mgrwt>
<rscale>  0 0.12500000E+03</rscale>
<asrwt>0</asrwt>
<pdfrwt beam="1">  1       21 0.95321165E-01 0.12500000E+03</pdfrwt>
<pdfrwt beam="2">  1       21 0.96993801E-03 0.12500000E+03</pdfrwt>
<totfact> 0.35947265E+06</totfact>
</mgrwt>
</event>
<event>
 3    1  0.1620993E-001  0.1250000E+03  0.7546771E-02  0.1235069E+00
         21   -1    0    0  502  501  0.00000000000E+00  0.00000000000E+00  0.12413070497E+03  0.12413070497E+03  0.00000000000E+00 0. -1.
         21   -1    0    0  501  502 -0.00000000000E+00 -0.00000000000E+00 -0.31468845689E+02  0.31468845689E+02  0.00000000000E+00 0. -1.
         25    1    1    2    0    0  0.00000000000E+00  0.00000000000E+00  0.92661859280E+02  0.15559955066E+03  0.12500000000E+03 0.  0.
<mgrwt>
<rscale>  0 0.12500000E+03</rscale>
<asrwt>0</asrwt>
<pdfrwt beam="1">  1       21 0.19097031E-01 0.12500000E+03</pdfrwt>
<pdfrwt beam="2">  1       21 0.48413609E-02 0.12500000E+03</pdfrwt>
<totfact> 0.70061219E+06</totfact>
</mgrwt>
</event>
<event>
 3    1  0.1620993E-001  0.1250000E+03  0.7546771E-02  0.1235069E+00
         21   -1    0    0  502  501  0.00000000000E+00  0.00000000000E+00  0.95176980297E+03  0.95176980297E+03  0.00000000000E+00 0. -1.
         21   -1    0    0  501  502 -0.00000000000E+00 -0.00000000000E+00 -0.41041961909E+01  0.41041961909E+01  0.00000000000E+00 0. -1.
         25    1    1    2    0    0  0.00000000000E+00  0.00000000000E+00  0.94766560678E+03  0.95587399917E+03  0.12500000000E+03 0.  0.
<mgrwt>
<rscale>  0 0.12500000E+03</rscale>
<asrwt>0</asrwt>
<pdfrwt beam="1">  1       21 0.14642595E+00 0.12500000E+03</pdfrwt>
<pdfrwt beam="2">  1       21 0.63141555E-03 0.12500000E+03</pdfrwt>
<totfact> 0.24754821E+06</totfact>
</mgrwt>
</event>
<event>
 3    1  0.1620993E-001  0.1250000E+03  0.7546771E-02  0.1235069E+00
         21   -1    0    0  502  501  0.00000000000E+00  0.00000000000E+00  0.96487307978E+01  0.96487307978E+01  0.00000000000E+00 0. -1.
         21   -1    0    0  501  502 -0.00000000000E+00 -0.00000000000E+00 -0.40484599290E+03  0.40484599290E+03  0.00000000000E+00 0. -1.
         25    1    1    2    0    0  0.00000000000E+00  0.00000000000E+00 -0.39519726210E+03  0.41449472369E+03  0.12500000000E+03 0.  0.
<mgrwt>
<rscale>  0 0.12500000E+03</rscale>
<asrwt>0</asrwt>
<pdfrwt beam="1">  1       21 0.14844201E-02 0.12500000E+03</pdfrwt>
<pdfrwt beam="2">  1       21 0.62283998E-01 0.12500000E+03</pdfrwt>
<totfact> 0.47094561E+06</totfact>
</mgrwt>
</event>
<event>
 3    1  0.1620993E-001  0.1250000E+03  0.7546771E-02  0.1235069E+00
         21   -1    0    0  502  501  0.00000000000E+00  0.00000000000E+00  0.10610576910E+03  0.10610576910E+03  0.00000000000E+00 0. -1.
         21   -1    0    0  501  502 -0.00000000000E+00 -0.00000000000E+00 -0.36814680606E+02  0.36814680606E+02  0.00000000000E+00 0. -1.
         25    1    1    2    0    0  0.00000000000E+00  0.00000000000E+00  0.69291088497E+02  0.14292044971E+03  0.12500000000E+03 0.  0.
<mgrwt>
<rscale>  0 0.12500000E+03</rscale>
<asrwt>0</asrwt>
<pdfrwt beam="1">  1       21 0.16323964E-01 0.12500000E+03</pdfrwt>
<pdfrwt beam="2">  1       21 0.56637971E-02 0.12500000E+03</pdfrwt>
<totfact> 0.71660305E+06</totfact>
</mgrwt>
</event>
<event>
 3    1  0.1620993E-001  0.1250000E+03  0.7546771E-02  0.1235069E+00
         21   -1    0    0  502  501  0.00000000000E+00  0.00000000000E+00  0.87314507584E+01  0.87314507584E+01  0.00000000000E+00 0. -1.
         21   -1    0    0  501  502 -0.00000000000E+00 -0.00000000000E+00 -0.44737697183E+03  0.44737697183E+03  0.00000000000E+00 0. -1.
         25    1    1    2    0    0  0.00000000000E+00  0.00000000000E+00 -0.43864552107E+03  0.45610842259E+03  0.12500000000E+03 0.  0.
<mgrwt>
<rscale>  0 0.12500000E+03</rscale>
<asrwt>0</asrwt>
<pdfrwt beam="1">  1       21 0.13432999E-02 0.12500000E+03</pdfrwt>
<pdfrwt beam="2">  1       21 0.68827238E-01 0.12500000E+03</pdfrwt>
<totfact> 0.44528992E+06</totfact>
</mgrwt>
</event>
<event>
 3    1  0.1620993E-001  0.1250000E+03  0.7546771E-02  0.1235069E+00
         21   -1    0    0  502  501  0.00000000000E+00  0.00000000000E+00  0.10397445100E+04  0.10397445100E+04  0.00000000000E+00 0.  1.
         21   -1    0    0  501  502 -0.00000000000E+00 -0.00000000000E+00 -0.37569325564E+01  0.37569325564E+01  0.00000000000E+00 0.  1.
         25    1    1    2    0    0  0.00000000000E+00  0.00000000000E+00  0.10359875774E+04  0.10435014426E+04  0.12500000000E+03 0.  0.
<mgrwt>
<rscale>  0 0.12500000E+03</rscale>
<asrwt>0</asrwt>
<pdfrwt beam="1">  1       21 0.15996046E+00 0.12500000E+03</pdfrwt>
<pdfrwt beam="2">  1       21 0.57799045E-03 0.12500000E+03</pdfrwt>
<totfact> 0.22553633E+06</totfact>
</mgrwt>
</event>
<event>
 3    1  0.1620993E-001  0.1250000E+03  0.7546771E-02  0.1235069E+00
         21   -1    0    0  502  501  0.00000000000E+00  0.00000000000E+00  0.49988680382E+02  0.49988680382E+02  0.00000000000E+00 0. -1.
         21   -1    0    0  501  502 -0.00000000000E+00 -0.00000000000E+00 -0.78142690908E+02  0.78142690908E+02  0.00000000000E+00 0. -1.
         25    1    1    2    0    0  0.00000000000E+00  0.00000000000E+00 -0.28154010525E+02  0.12813137129E+03  0.12500000000E+03 0.  0.
<mgrwt>
<rscale>  0 0.12500000E+03</rscale>
<asrwt>0</asrwt>
<pdfrwt beam="1">  1       21 0.76905663E-02 0.12500000E+03</pdfrwt>
<pdfrwt beam="2">  1       21 0.12021952E-01 0.12500000E+03</pdfrwt>
<totfact> 0.73615820E+06</totfact>
</mgrwt>
</event>
<event>
 3    1  0.1620993E-001  0.1250000E+03  0.7546771E-02  0.1235069E+00
         21   -1    0    0  502  501  0.00000000000E+00  0.00000000000E+00  0.15782903629E+03  0.15782903629E+03  0.00000000000E+00 0.  1.
         21   -1    0    0  501  502 -0.00000000000E+00 -0.00000000000E+00 -0.24749881846E+02  0.24749881846E+02  0.00000000000E+00 0.  1.
         25    1    1    2    0    0  0.00000000000E+00  0.00000000000E+00  0.13307915444E+03  0.18257891814E+03  0.12500000000E+03 0.  0.
<mgrwt>
<rscale>  0 0.12500000E+03</rscale>
<asrwt>0</asrwt>
<pdfrwt beam="1">  1       21 0.24281390E-01 0.12500000E+03</pdfrwt>
<pdfrwt beam="2">  1       21 0.38076742E-02 0.12500000E+03</pdfrwt>
<totfact> 0.66856916E+06</totfact>
</mgrwt>
</event>
<event>
 3    1  0.1620993E-001  0.1250000E+03  0.7546771E-02  0.1235069E+00
         21   -1    0    0  502  501  0.00000000000E+00  0.00000000000E+00  0.75028113161E+01  0.75028113161E+01  0.00000000000E+00 0.  1.
         21   -1    0    0  501  502 -0.00000000000E+00 -0.00000000000E+00 -0.52063817620E+03  0.52063817620E+03  0.00000000000E+00 0.  1.
         25    1    1    2    0    0  0.00000000000E+00  0.00000000000E+00 -0.51313536488E+03  0.52814098752E+03  0.12500000000E+03 0.  0.
<mgrwt>
<rscale>  0 0.12500000E+03</rscale>
<asrwt>0</asrwt>
<pdfrwt beam="1">  1       21 0.11542786E-02 0.12500000E+03</pdfrwt>
<pdfrwt beam="2">  1       21 0.80098184E-01 0.12500000E+03</pdfrwt>
<totfact> 0.40557918E+06</totfact>
</mgrwt>
</event>
<event>
 3    1  0.1620993E-001  0.1250000E+03  0.7546771E-02  0.1235069E+00
         21   -1    0    0  502  501  0.00000000000E+00  0.00000000000E+00  0.91197068215E+02  0.91197068215E+02  0.00000000000E+00 0. -1.
         21   -1    0    0  501  502 -0.00000000000E+00 -0.00000000000E+00 -0.42833065541E+02  0.42833065541E+02  0.00000000000E+00 0. -1.
         25    1    1    2    0    0  0.00000000000E+00  0.00000000000E+00  0.48364002674E+02  0.13403013376E+03  0.12500000000E+03 0.  0.
<mgrwt>
<rscale>  0 0.12500000E+03</rscale>
<asrwt>0</asrwt>
<pdfrwt beam="1">  1       21 0.14030318E-01 0.12500000E+03</pdfrwt>
<pdfrwt beam="2">  1       21 0.65897024E-02 0.12500000E+03</pdfrwt>
<totfact> 0.72825147E+06</totfact>
</mgrwt>
</event>
<event>
 3    1  0.1620993E-001  0.1250000E+03  0.7546771E-02  0.1235069E+00
         21   -1    0    0  502  501  0.00000000000E+00  0.00000000000E+00  0.19153201549E+02  0.19153201549E+02  0.00000000000E+00 0. -1.
         21   -1    0    0  501  502 -0.00000000000E+00 -0.00000000000E+00 -0.20394762672E+03  0.20394762672E+03  0.00000000000E+00 0. -1.
         25    1    1    2    0    0  0.00000000000E+00  0.00000000000E+00 -0.18479442518E+03  0.22310082827E+03  0.12500000000E+03 0.  0.
<mgrwt>
<rscale>  0 0.12500000E+03</rscale>
<asrwt>0</asrwt>
<pdfrwt beam="1">  1       21 0.29466464E-02 0.12500000E+03</pdfrwt>
<pdfrwt beam="2">  1       21 0.31376558E-01 0.12500000E+03</pdfrwt>
<totfact> 0.62506988E+06</totfact>
</mgrwt>
</event>
<event>
 3    1  0.1620993E-001  0.1250000E+03  0.7546771E-02  0.1235069E+00
         21   -1    0    0  502  501  0.00000000000E+00  0.00000000000E+00  0.69665652811E+02  0.69665652811E+02  0.00000000000E+00 0.  1.
         21   -1    0    0  501  502 -0.00000000000E+00 -0.00000000000E+00 -0.56071390167E+02  0.56071390167E+02  0.00000000000E+00 0.  1.
         25    1    1    2    0    0  0.00000000000E+00  0.00000000000E+00  0.13594262643E+02  0.12573704298E+03  0.12500000000E+03 0.  0.
<mgrwt>
<rscale>  0 0.12500000E+03</rscale>
<asrwt>0</asrwt>
<pdfrwt beam="1">  1       21 0.10717793E-01 0.12500000E+03</pdfrwt>
<pdfrwt beam="2">  1       21 0.86263677E-02 0.12500000E+03</pdfrwt>
<totfact> 0.73942397E+06</totfact>
</mgrwt>
</event>
<event>
 3    1  0.1620993E-001  0.1250000E+03  0.7546771E-02  0.1235069E+00
         21   -1    0    0  502  501  0.00000000000E+00  0.00000000000E+00  0.25656527745E+02  0.25656527745E+02  0.00000000000E+00 0. -1.
         21   -1    0    0  501  502 -0.00000000000E+00 -0.00000000000E+00 -0.15225170135E+03  0.15225170135E+03  0.00000000000E+00 0. -1.
         25    1    1    2    0    0  0.00000000000E+00  0.00000000000E+00 -0.12659517361E+03  0.17790822910E+03  0.12500000000E+03 0.  0.
<mgrwt>
<rscale>  0 0.12500000E+03</rscale>
<asrwt>0</asrwt>
<pdfrwt beam="1">  1       21 0.39471581E-02 0.12500000E+03</pdfrwt>
<pdfrwt beam="2">  1       21 0.23423339E-01 0.12500000E+03</pdfrwt>
<totfact> 0.67392311E+06</totfact>
</mgrwt>
</event>
<event>
 3    1  0.1620993E-001  0.1250000E+03  0.7546771E-02  0.1235069E+00
         21   -1    0    0  502  501  0.00000000000E+00  0.00000000000E+00  0.96633832807E+01  0.96633832807E+01  0.00000000000E+00 0.  1.
         21   -1    0    0  501  502 -0.00000000000E+00 -0.00000000000E+00 -0.40423212932E+03  0.40423212932E+03  0.00000000000E+00 0.  1.
         25    1    1    2    0    0  0.00000000000E+00  0.00000000000E+00 -0.39456874604E+03  0.41389551260E+03  0.12500000000E+03 0.  0.
<mgrwt>
<rscale>  0 0.12500000E+03</rscale>
<asrwt>0</asrwt>
<pdfrwt beam="1">  1       21 0.14866748E-02 0.12500000E+03</pdfrwt>
<pdfrwt beam="2">  1       21 0.62189539E-01 0.12500000E+03</pdfrwt>
<totfact> 0.47133138E+06</totfact>
</mgrwt>
</event>
<event>
 3    1  0.1620993E-001  0.1250000E+03  0.7546771E-02  0.1235069E+00
         21   -1    0    0  502  501  0.00000000000E+00  0.00000000000E+00  0.12161425489E+03  0.12161425489E+03  0.00000000000E+00 0.  1.
         21   -1    0    0  501  502 -0.00000000000E+00 -0.00000000000E+00 -0.32120001092E+02  0.32120001092E+02  0.00000000000E+00 0.  1.
         25    1    1    2    0    0  0.00000000000E+00  0.00000000000E+00  0.89494253801E+02  0.15373425599E+03  0.12500000000E+03 0.  0.
<mgrwt>
<rscale>  0 0.12500000E+03</rscale>
<asrwt>0</asrwt>
<pdfrwt beam="1">  1       21 0.18709885E-01 0.12500000E+03</pdfrwt>
<pdfrwt beam="2">  1       21 0.49415387E-02 0.12500000E+03</pdfrwt>
<totfact> 0.70293202E+06</totfact>
</mgrwt>
</event>
<event>
 3    1  0.1620993E-001  0.1250000E+03  0.7546771E-02  0.1235069E+00
         21   -1    0    0  502  501  0.00000000000E+00  0.00000000000E+00  0.23009004519E+03  0.23009004519E+03  0.00000000000E+00 0.  1.
         21   -1    0    0  501  502 -0.00000000000E+00 -0.00000000000E+00 -0.16977049124E+02  0.16977049124E+02  0.00000000000E+00 0.  1.
         25    1    1    2    0    0  0.00000000000E+00  0.00000000000E+00  0.21311299606E+03  0.24706709431E+03  0.12500000000E+03 0.  0.
<mgrwt>
<rscale>  0 0.12500000E+03</rscale>
<asrwt>0</asrwt>
<pdfrwt beam="1">  1       21 0.35398466E-01 0.12500000E+03</pdfrwt>
<pdfrwt beam="2">  1       21 0.26118539E-02 0.12500000E+03</pdfrwt>
<totfact> 0.60155423E+06</totfact>
</mgrwt>
</event>
<event>
 3    1  0.1620993E-001  0.1250000E+03  0.7546771E-02  0.1235069E+00
         21   -1    0    0  502  501  0.00000000000E+00  0.00000000000E+00  0.93220572689E+01  0.93220572689E+01  0.00000000000E+00 0. -1.
         21   -1    0    0  501  502 -0.00000000000E+00 -0.00000000000E+00 -0.41903304038E+03  0.41903304038E+03  0.00000000000E+00 0. -1.
         25    1    1    2    0    0  0.00000000000E+00  0.00000000000E+00 -0.40971098311E+03  0.42835509765E+03  0.12500000000E+03 0.  0.
<mgrwt>
<rscale>  0 0.12500000E+03</rscale>
<asrwt>0</asrwt>
<pdfrwt beam="1">  1       21 0.14341626E-02 0.12500000E+03</pdfrwt>
<pdfrwt beam="2">  1       21 0.64466625E-01 0.12500000E+03</pdfrwt>
<totfact> 0.46215748E+06</totfact>
</mgrwt>
</event>
<event>
 3    1  0.1620993E-001  0.1250000E+03  0.7546771E-02  0.1235069E+00
         21   -1    0    0  502  501  0.00000000000E+00  0.00000000000E+00  0.16780605644E+04  0.16780605644E+04  0.00000000000E+00 0.  1.
         21   -1    0    0  501  502 -0.00000000000E+00 -0.00000000000E+00 -0.23278361239E+01  0.23278361239E+01  0.00000000000E+00 0.  1.
         25    1    1    2    0    0  0.00000000000E+00  0.00000000000E+00  0.16757327283E+04  0.16803884006E+04  0.12500000000E+03 0.  0.
<mgrwt>
<rscale>  0 0.12500000E+03</rscale>
<asrwt>0</asrwt>
<pdfrwt beam="1">  1       21 0.25816220E+00 0.12500000E+03</pdfrwt>
<pdfrwt beam="2">  1       21 0.35812998E-03 0.12500000E+03</pdfrwt>
<totfact> 0.11516862E+06</totfact>
</mgrwt>
</event>
<event>
 3    1  0.1620993E-001  0.1250000E+03  0.7546771E-02  0.1235069E+00
         21   -1    0    0  502  501  0.00000000000E+00  0.00000000000E+00  0.11990730108E+02  0.11990730108E+02  0.00000000000E+00 0.  1.
         21   -1    0    0  501  502 -0.00000000000E+00 -0.00000000000E+00 -0.32577248965E+03  0.32577248965E+03  0.00000000000E+00 0.  1.
         25    1    1    2    0    0  0.00000000000E+00  0.00000000000E+00 -0.31378175954E+03  0.33776321976E+03  0.12500000000E+03 0.  0.
<mgrwt>
<rscale>  0 0.12500000E+03</rscale>
<asrwt>0</asrwt>
<pdfrwt beam="1">  1       21 0.18447281E-02 0.12500000E+03</pdfrwt>
<pdfrwt beam="2">  1       21 0.50118834E-01 0.12500000E+03</pdfrwt>
<totfact> 0.52455053E+06</totfact>
</mgrwt>
</event>
<event>
 3    1  0.1620993E-001  0.1250000E+03  0.7546771E-02  0.1235069E+00
         21   -1    0    0  502  501  0.00000000000E+00  0.00000000000E+00  0.20888302729E+03  0.20888302729E+03  0.00000000000E+00 0. -1.
         21   -1    0    0  501  502 -0.00000000000E+00 -0.00000000000E+00 -0.18700657735E+02  0.18700657735E+02  0.00000000000E+00 0. -1.
         25    1    1    2    0    0  0.00000000000E+00  0.00000000000E+00  0.19018236956E+03  0.22758368503E+03  0.12500000000E+03 0.  0.
<mgrwt>
<rscale>  0 0.12500000E+03</rscale>
<asrwt>0</asrwt>
<pdfrwt beam="1">  1       21 0.32135849E-01 0.12500000E+03</pdfrwt>
<pdfrwt beam="2">  1       21 0.28770244E-02 0.12500000E+03</pdfrwt>
<totfact> 0.62055271E+06</totfact>
</mgrwt>
</event>
<event>
 3    1  0.1620993E-001  0.1250000E+03  0.7546771E-02  0.1235069E+00
         21   -1    0    0  502  501  0.00000000000E+00  0.00000000000E+00  0.35470513358E+02  0.35470513358E+02  0.00000000000E+00 0. -1.
         21   -1    0    0  501  502 -0.00000000000E+00 -0.00000000000E+00 -0.11012668355E+03  0.11012668355E+03  0.00000000000E+00 0. -1.
         25    1    1    2    0    0  0.00000000000E+00  0.00000000000E+00 -0.74656170196E+02  0.14559719691E+03  0.12500000000E+03 0.  0.
<mgrwt>
<rscale>  0 0.12500000E+03</rscale>
<asrwt>0</asrwt>
<pdfrwt beam="1">  1       21 0.54570021E-02 0.12500000E+03</pdfrwt>
<pdfrwt beam="2">  1       21 0.16942566E-01 0.12500000E+03</pdfrwt>
<totfact> 0.71316760E+06</totfact>
</mgrwt>
</event>
<event>
 3    1  0.1620993E-001  0.1250000E+03  0.7546771E-02  0.1235069E+00
         21   -1    0    0  502  501  0.00000000000E+00  0.00000000000E+00  0.30332361396E+02  0.30332361396E+02  0.00000000000E+00 0.  1.
         21   -1    0    0  501  502 -0.00000000000E+00 -0.00000000000E+00 -0.12878159893E+03  0.12878159893E+03  0.00000000000E+00 0.  1.
         25    1    1    2    0    0  0.00000000000E+00  0.00000000000E+00 -0.98449237537E+02  0.15911396033E+03  0.12500000000E+03 0.  0.
<mgrwt>
<rscale>  0 0.12500000E+03</rscale>
<asrwt>0</asrwt>
<pdfrwt beam="1">  1       21 0.46665170E-02 0.12500000E+03</pdfrwt>
<pdfrwt beam="2">  1       21 0.19812554E-01 0.12500000E+03</pdfrwt>
<totfact> 0.69627922E+06</totfact>
</mgrwt>
</event>
<event>
 3    1  0.1620993E-001  0.1250000E+03  0.7546771E-02  0.1235069E+00
         21   -1    0    0  502  501  0.00000000000E+00  0.00000000000E+00  0.15096339464E+02  0.15096339464E+02  0.00000000000E+00 0. -1.
         21   -1    0    0  501  502 -0.00000000000E+00 -0.00000000000E+00 -0.25875478021E+03  0.25875478021E+03  0.00000000000E+00 0. -1.
         25    1    1    2    0    0  0.00000000000E+00  0.00000000000E+00 -0.24365844074E+03  0.27385111967E+03  0.12500000000E+03 0.  0.
<mgrwt>
<rscale>  0 0.12500000E+03</rscale>
<asrwt>0</asrwt>
<pdfrwt beam="1">  1       21 0.23225141E-02 0.12500000E+03</pdfrwt>
<pdfrwt beam="2">  1       21 0.39808422E-01 0.12500000E+03</pdfrwt>
<totfact> 0.57701752E+06</totfact>
</mgrwt>
</event>
<event>
 3    1  0.1620993E-001  0.1250000E+03  0.7546771E-02  0.1235069E+00
         21   -1    0    0  502  501  0.00000000000E+00  0.00000000000E+00  0.20319963447E+04  0.20319963447E+04  0.00000000000E+00 0.  1.
         21   -1    0    0  501  502 -0.00000000000E+00 -0.00000000000E+00 -0.19223705841E+01  0.19223705841E+01  0.00000000000E+00 0.  1.
         25    1    1    2    0    0  0.00000000000E+00  0.00000000000E+00  0.20300739741E+04  0.20339187152E+04  0.12500000000E+03 0.  0.
<mgrwt>
<rscale>  0 0.12500000E+03</rscale>
<asrwt>0</asrwt>
<pdfrwt beam="1">  1       21 0.31261310E+00 0.12500000E+03</pdfrwt>
<pdfrwt beam="2">  1       21 0.29575095E-03 0.12500000E+03</pdfrwt>
<totfact> 0.76220169E+05</totfact>
</mgrwt>
</event>
<event>
 3    1  0.1620993E-001  0.1250000E+03  0.7546771E-02  0.1235069E+00
         21   -1    0    0  502  501  0.00000000000E+00  0.00000000000E+00  0.47163124569E+02  0.47163124569E+02  0.00000000000E+00 0. -1.
         21   -1    0    0  501  502 -0.00000000000E+00 -0.00000000000E+00 -0.82824241093E+02  0.82824241093E+02  0.00000000000E+00 0. -1.
         25    1    1    2    0    0  0.00000000000E+00  0.00000000000E+00 -0.35661116523E+02  0.12998736566E+03  0.12500000000E+03 0.  0.
<mgrwt>
<rscale>  0 0.12500000E+03</rscale>
<asrwt>0</asrwt>
<pdfrwt beam="1">  1       21 0.72558654E-02 0.12500000E+03</pdfrwt>
<pdfrwt beam="2">  1       21 0.12742191E-01 0.12500000E+03</pdfrwt>
<totfact> 0.73366604E+06</totfact>
</mgrwt>
</event>
<event>
 3    1  0.1620993E-001  0.1250000E+03  0.7546771E-02  0.1235069E+00
         21   -1    0    0  502  501  0.00000000000E+00  0.00000000000E+00  0.56929478654E+03  0.56929478654E+03  0.00000000000E+00 0. -1.
         21   -1    0    0  501  502 -0.00000000000E+00 -0.00000000000E+00 -0.68615594106E+01  0.68615594106E+01  0.00000000000E+00 0. -1.
         25    1    1    2    0    0  0.00000000000E+00  0.00000000000E+00  0.56243322713E+03  0.57615634595E+03  0.12500000000E+03 0.  0.
<mgrwt>
<rscale>  0 0.12500000E+03</rscale>
<asrwt>0</asrwt>
<pdfrwt beam="1">  1       21 0.87583776E-01 0.12500000E+03</pdfrwt>
<pdfrwt beam="2">  1       21 0.10556250E-02 0.12500000E+03</pdfrwt>
<totfact> 0.38193629E+06</totfact>
</mgrwt>
</event>
<event>
 3    1  0.1620993E-001  0.1250000E+03  0.7546771E-02  0.1235069E+00
         21   -1    0    0  502  501  0.00000000000E+00  0.00000000000E+00  0.37982683887E+02  0.37982683887E+02  0.00000000000E+00 0.  1.
         21   -1    0    0  501  502 -0.00000000000E+00 -0.00000000000E+00 -0.10284291683E+03  0.10284291683E+03  0.00000000000E+00 0.  1.
         25    1    1    2    0    0  0.00000000000E+00  0.00000000000E+00 -0.64860232944E+02  0.14082560072E+03  0.12500000000E+03 0.  0.
<mgrwt>
<rscale>  0 0.12500000E+03</rscale>
<asrwt>0</asrwt>
<pdfrwt beam="1">  1       21 0.58434898E-02 0.12500000E+03</pdfrwt>
<pdfrwt beam="2">  1       21 0.15821987E-01 0.12500000E+03</pdfrwt>
<totfact> 0.71931710E+06</totfact>
</mgrwt>
</event>
<event>
 3    1  0.1620993E-001  0.1250000E+03  0.7546771E-02  0.1235069E+00
         21   -1    0    0  502  501  0.00000000000E+00  0.00000000000E+00  0.36527842756E+02  0.36527842756E+02  0.00000000000E+00 0.  1.
         21   -1    0    0  501  502 -0.00000000000E+00 -0.00000000000E+00 -0.10693897327E+03  0.10693897327E+03  0.00000000000E+00 0.  1.
         25    1    1    2    0    0  0.00000000000E+00  0.00000000000E+00 -0.70411130512E+02  0.14346681602E+03  0.12500000000E+03 0.  0.
<mgrwt>
<rscale>  0 0.12500000E+03</rscale>
<asrwt>0</asrwt>
<pdfrwt beam="1">  1       21 0.56196682E-02 0.12500000E+03</pdfrwt>
<pdfrwt beam="2">  1       21 0.16452149E-01 0.12500000E+03</pdfrwt>
<totfact> 0.71589891E+06</totfact>
</mgrwt>
</event>
<event>
 3    1  0.1620993E-001  0.1250000E+03  0.7546771E-02  0.1235069E+00
         21   -1    0    0  502  501  0.00000000000E+00  0.00000000000E+00  0.19952697739E+02  0.19952697739E+02  0.00000000000E+00 0. -1.
         21   -1    0    0  501  502 -0.00000000000E+00 -0.00000000000E+00 -0.19577553126E+03  0.19577553126E+03  0.00000000000E+00 0. -1.
         25    1    1    2    0    0  0.00000000000E+00  0.00000000000E+00 -0.17582283352E+03  0.21572822900E+03  0.12500000000E+03 0.  0.
<mgrwt>
<rscale>  0 0.12500000E+03</rscale>
<asrwt>0</asrwt>
<pdfrwt beam="1">  1       21 0.30696459E-02 0.12500000E+03</pdfrwt>
<pdfrwt beam="2">  1       21 0.30119312E-01 0.12500000E+03</pdfrwt>
<totfact> 0.63261855E+06</totfact>
</mgrwt>
</event>
<event>
 3    1  0.1620993E-001  0.1250000E+03  0.7546771E-02  0.1235069E+00
         21   -1    0    0  502  501  0.00000000000E+00  0.00000000000E+00  0.14798525826E+03  0.14798525826E+03  0.00000000000E+00 0.  1.
         21   -1    0    0  501  502 -0.00000000000E+00 -0.00000000000E+00 -0.26396210312E+02  0.26396210312E+02  0.00000000000E+00 0.  1.
         25    1    1    2    0    0  0.00000000000E+00  0.00000000000E+00  0.12158904794E+03  0.17438146857E+03  0.12500000000E+03 0.  0.
<mgrwt>
<rscale>  0 0.12500000E+03</rscale>
<asrwt>0</asrwt>
<pdfrwt beam="1">  1       21 0.22766962E-01 0.12500000E+03</pdfrwt>
<pdfrwt beam="2">  1       21 0.40609555E-02 0.12500000E+03</pdfrwt>
<totfact> 0.67801996E+06</totfact>
</mgrwt>
</event>
<event>
 3    1  0.1620993E-001  0.1250000E+03  0.7546771E-02  0.1235069E+00
         21   -1    0    0  502  501  0.00000000000E+00  0.00000000000E+00  0.42618980683E+03  0.42618980683E+03  0.00000000000E+00 0.  1.
         21   -1    0    0  501  502 -0.00000000000E+00 -0.00000000000E+00 -0.91655171884E+01  0.91655171884E+01  0.00000000000E+00 0.  1.
         25    1    1    2    0    0  0.00000000000E+00  0.00000000000E+00  0.41702428964E+03  0.43535532401E+03  0.12500000000E+03 0.  0.
<mgrwt>
<rscale>  0 0.12500000E+03</rscale>
<asrwt>0</asrwt>
<pdfrwt beam="1">  1       21 0.65567647E-01 0.12500000E+03</pdfrwt>
<pdfrwt beam="2">  1       21 0.14100799E-02 0.12500000E+03</pdfrwt>
<totfact> 0.45781403E+06</totfact>
</mgrwt>
</event>
<event>
 3    1  0.1620993E-001  0.1250000E+03  0.7546771E-02  0.1235069E+00
         21   -1    0    0  502  501  0.00000000000E+00  0.00000000000E+00  0.73899677085E+01  0.73899677085E+01  0.00000000000E+00 0.  1.
         21   -1    0    0  501  502 -0.00000000000E+00 -0.00000000000E+00 -0.52858823666E+03  0.52858823666E+03  0.00000000000E+00 0.  1.
         25    1    1    2    0    0  0.00000000000E+00  0.00000000000E+00 -0.52119826895E+03  0.53597820437E+03  0.12500000000E+03 0.  0.
<mgrwt>
<rscale>  0 0.12500000E+03</rscale>
<asrwt>0</asrwt>
<pdfrwt beam="1">  1       21 0.11369184E-02 0.12500000E+03</pdfrwt>
<pdfrwt beam="2">  1       21 0.81321249E-01 0.12500000E+03</pdfrwt>
<totfact> 0.40157781E+06</totfact>
</mgrwt>
</event>
<event>
 3    1  0.1620993E-001  0.1250000E+03  0.7546771E-02  0.1235069E+00
         21   -1    0    0  502  501  0.00000000000E+00  0.00000000000E+00  0.30884052340E+02  0.30884052340E+02  0.00000000000E+00 0. -1.
         21   -1    0    0  501  502 -0.00000000000E+00 -0.00000000000E+00 -0.12648113522E+03  0.12648113522E+03  0.00000000000E+00 0. -1.
         25    1    1    2    0    0  0.00000000000E+00  0.00000000000E+00 -0.95597082876E+02  0.15736518756E+03  0.12500000000E+03 0.  0.
<mgrwt>
<rscale>  0 0.12500000E+03</rscale>
<asrwt>0</asrwt>
<pdfrwt beam="1">  1       21 0.47513927E-02 0.12500000E+03</pdfrwt>
<pdfrwt beam="2">  1       21 0.19458636E-01 0.12500000E+03</pdfrwt>
<totfact> 0.69842883E+06</totfact>
</mgrwt>
</event>
<event>
 3    1  0.1620993E-001  0.1250000E+03  0.7546771E-02  0.1235069E+00
         21   -1    0    0  502  501  0.00000000000E+00  0.00000000000E+00  0.92655747646E+02  0.92655747646E+02  0.00000000000E+00 0.  1.
         21   -1    0    0  501  502 -0.00000000000E+00 -0.00000000000E+00 -0.42158744592E+02  0.42158744592E+02  0.00000000000E+00 0.  1.
         25    1    1    2    0    0  0.00000000000E+00  0.00000000000E+00  0.50497003054E+02  0.13481449224E+03  0.12500000000E+03 0.  0.
<mgrwt>
<rscale>  0 0.12500000E+03</rscale>
<asrwt>0</asrwt>
<pdfrwt beam="1">  1       21 0.14254730E-01 0.12500000E+03</pdfrwt>
<pdfrwt beam="2">  1       21 0.64859607E-02 0.12500000E+03</pdfrwt>
<totfact> 0.72721044E+06</totfact>
</mgrwt>
</event>
<event>
 3    1  0.1620993E-001  0.1250000E+03  0.7546771E-02  0.1235069E+00
         21   -1    0    0  502  501  0.00000000000E+00  0.00000000000E+00  0.23807440351E+01  0.23807440351E+01  0.00000000000E+00 0. -1.
         21   -1    0    0  501  502 -0.00000000000E+00 -0.00000000000E+00 -0.16407685759E+04  0.16407685759E+04  0.00000000000E+00 0. -1.
         25    1    1    2    0    0  0.00000000000E+00  0.00000000000E+00 -0.16383878318E+04  0.16431493199E+04  0.12500000000E+03 0.  0.
<mgrwt>
<rscale>  0 0.12500000E+03</rscale>
<asrwt>0</asrwt>
<pdfrwt beam="1">  1       21 0.36626785E-03 0.12500000E+03</pdfrwt>
<pdfrwt beam="2">  1       21 0.25242625E+00 0.12500000E+03</pdfrwt>
<totfact> 0.11997443E+06</totfact>
</mgrwt>
</event>
<event>
 3    1  0.1620993E-001  0.1250000E+03  0.7546771E-02  0.1235069E+00
         21   -1    0    0  502  501  0.00000000000E+00  0.00000000000E+00  0.18285530944E+02  0.18285530944E+02  0.00000000000E+00 0. -1.
         21   -1    0    0  501  502 -0.00000000000E+00 -0.00000000000E+00 -0.21362518879E+03  0.21362518879E+03  0.00000000000E+00 0. -1.
         25    1    1    2    0    0  0.00000000000E+00  0.00000000000E+00 -0.19533965785E+03  0.23191071974E+03  0.12500000000E+03 0.  0.
<mgrwt>
<rscale>  0 0.12500000E+03</rscale>
<asrwt>0</asrwt>
<pdfrwt beam="1">  1       21 0.28131586E-02 0.12500000E+03</pdfrwt>
<pdfrwt beam="2">  1       21 0.32865414E-01 0.12500000E+03</pdfrwt>
<totfact> 0.61624342E+06</totfact>
</mgrwt>
</event>
<event>
 3    1  0.1620993E-001  0.1250000E+03  0.7546771E-02  0.1235069E+00
         21   -1    0    0  502  501  0.00000000000E+00  0.00000000000E+00  0.55079405888E+02  0.55079405888E+02  0.00000000000E+00 0. -1.
         21   -1    0    0  501  502 -0.00000000000E+00 -0.00000000000E+00 -0.70920336504E+02  0.70920336504E+02  0.00000000000E+00 0. -1.
         25    1    1    2    0    0  0.00000000000E+00  0.00000000000E+00 -0.15840930616E+02  0.12599974239E+03  0.12500000000E+03 0.  0.
<mgrwt>
<rscale>  0 0.12500000E+03</rscale>
<asrwt>0</asrwt>
<pdfrwt beam="1">  1       21 0.84737548E-02 0.12500000E+03</pdfrwt>
<pdfrwt beam="2">  1       21 0.10910821E-01 0.12500000E+03</pdfrwt>
<totfact> 0.73906074E+06</totfact>
</mgrwt>
</event>
<event>
 3    1  0.1620993E-001  0.1250000E+03  0.7546771E-02  0.1235069E+00
         21   -1    0    0  502  501  0.00000000000E+00  0.00000000000E+00  0.71050733470E+01  0.71050733470E+01  0.00000000000E+00 0.  1.
         21   -1    0    0  501  502 -0.00000000000E+00 -0.00000000000E+00 -0.54978320549E+03  0.54978320549E+03  0.00000000000E+00 0.  1.
         25    1    1    2    0    0  0.00000000000E+00  0.00000000000E+00 -0.54267813215E+03  0.55688827884E+03  0.12500000000E+03 0.  0.
<mgrwt>
<rscale>  0 0.12500000E+03</rscale>
<asrwt>0</asrwt>
<pdfrwt beam="1">  1       21 0.10930880E-02 0.12500000E+03</pdfrwt>
<pdfrwt beam="2">  1       21 0.84582049E-01 0.12500000E+03</pdfrwt>
<totfact> 0.39117826E+06</totfact>
</mgrwt>
</event>
<event>
 3    1  0.1620993E-001  0.1250000E+03  0.7546771E-02  0.1235069E+00
         21   -1    0    0  502  501  0.00000000000E+00  0.00000000000E+00  0.16057246156E+03  0.16057246156E+03  0.00000000000E+00 0.  1.
         21   -1    0    0  501  502 -0.00000000000E+00 -0.00000000000E+00 -0.24327023215E+02  0.24327023215E+02  0.00000000000E+00 0.  1.
         25    1    1    2    0    0  0.00000000000E+00  0.00000000000E+00  0.13624543834E+03  0.18489948477E+03  0.12500000000E+03 0.  0.
<mgrwt>
<rscale>  0 0.12500000E+03</rscale>
<asrwt>0</asrwt>
<pdfrwt beam="1">  1       21 0.24703455E-01 0.12500000E+03</pdfrwt>
<pdfrwt beam="2">  1       21 0.37426191E-02 0.12500000E+03</pdfrwt>
<totfact> 0.66593880E+06</totfact>
</mgrwt>
</event>
<event>
 3    1  0.1620993E-001  0.1250000E+03  0.7546771E-02  0.1235069E+00
         21   -1    0    0  502  501  0.00000000000E+00  0.00000000000E+00  0.19748099128E+02  0.19748099128E+02  0.00000000000E+00 0.  1.
         21   -1    0    0  501  502 -0.00000000000E+00 -0.00000000000E+00 -0.19780384809E+03  0.19780384809E+03  0.00000000000E+00 0.  1.
         25    1    1    2    0    0  0.00000000000E+00  0.00000000000E+00 -0.17805574896E+03  0.21755194722E+03  0.12500000000E+03 0.  0.
<mgrwt>
<rscale>  0 0.12500000E+03</rscale>
<asrwt>0</asrwt>
<pdfrwt beam="1">  1       21 0.30381691E-02 0.12500000E+03</pdfrwt>
<pdfrwt beam="2">  1       21 0.30431361E-01 0.12500000E+03</pdfrwt>
<totfact> 0.63073639E+06</totfact>
</mgrwt>
</event>
<event>
 3    1  0.1620993E-001  0.1250000E+03  0.7546771E-02  0.1235069E+00
         21   -1    0    0  502  501  0.00000000000E+00  0.00000000000E+00  0.18001497293E+03  0.18001497293E+03  0.00000000000E+00 0.  1.
         21   -1    0    0  501  502 -0.00000000000E+00 -0.00000000000E+00 -0.21699583854E+02  0.21699583854E+02  0.00000000000E+00 0.  1.
         25    1    1    2    0    0  0.00000000000E+00  0.00000000000E+00  0.15831538907E+03  0.20171455678E+03  0.12500000000E+03 0.  0.
<mgrwt>
<rscale>  0 0.12500000E+03</rscale>
<asrwt>0</asrwt>
<pdfrwt beam="1">  1       21 0.27694610E-01 0.12500000E+03</pdfrwt>
<pdfrwt beam="2">  1       21 0.33383976E-02 0.12500000E+03</pdfrwt>
<totfact> 0.64741942E+06</totfact>
</mgrwt>
</event>
<event>
 3    1  0.1620993E-001  0.1250000E+03  0.7546771E-02  0.1235069E+00
         21   -1    0    0  502  501  0.00000000000E+00  0.00000000000E+00  0.32478049013E+03  0.32478049013E+03  0.00000000000E+00 0.  1.
         21   -1    0    0  501  502 -0.00000000000E+00 -0.00000000000E+00 -0.12027354224E+02  0.12027354224E+02  0.00000000000E+00 0.  1.
         25    1    1    2    0    0  0.00000000000E+00  0.00000000000E+00  0.31275313591E+03  0.33680784436E+03  0.12500000000E+03 0.  0.
<mgrwt>
<rscale>  0 0.12500000E+03</rscale>
<asrwt>0</asrwt>
<pdfrwt beam="1">  1       21 0.49966223E-01 0.12500000E+03</pdfrwt>
<pdfrwt beam="2">  1       21 0.18503624E-02 0.12500000E+03</pdfrwt>
<totfact> 0.52527720E+06</totfact>
</mgrwt>
</event>
<event>
 3    1  0.1620993E-001  0.1250000E+03  0.7546771E-02  0.1235069E+00
         21   -1    0    0  502  501  0.00000000000E+00  0.00000000000E+00  0.27955016472E+01  0.27955016472E+01  0.00000000000E+00 0. -1.
         21   -1    0    0  501  502 -0.00000000000E+00 -0.00000000000E+00 -0.13973341793E+04  0.13973341793E+04  0.00000000000E+00 0. -1.
         25    1    1    2    0    0  0.00000000000E+00  0.00000000000E+00 -0.13945386777E+04  0.14001296810E+04  0.12500000000E+03 0.  0.
<mgrwt>
<rscale>  0 0.12500000E+03</rscale>
<asrwt>0</asrwt>
<pdfrwt beam="1">  1       21 0.43007541E-03 0.12500000E+03</pdfrwt>
<pdfrwt beam="2">  1       21 0.21497537E+00 0.12500000E+03</pdfrwt>
<totfact> 0.15542572E+06</totfact>
</mgrwt>
</event>
<event>
 3    1  0.1620993E-001  0.1250000E+03  0.7546771E-02  0.1235069E+00
         21   -1    0    0  502  501  0.00000000000E+00  0.00000000000E+00  0.69647074948E+02  0.69647074948E+02  0.00000000000E+00 0. -1.
         21   -1    0    0  501  502 -0.00000000000E+00 -0.00000000000E+00 -0.56086346812E+02  0.56086346812E+02  0.00000000000E+00 0. -1.
         25    1    1    2    0    0  0.00000000000E+00  0.00000000000E+00  0.13560728136E+02  0.12573342176E+03  0.12500000000E+03 0.  0.
<mgrwt>
<rscale>  0 0.12500000E+03</rscale>
<asrwt>0</asrwt>
<pdfrwt beam="1">  1       21 0.10714935E-01 0.12500000E+03</pdfrwt>
<pdfrwt beam="2">  1       21 0.86286687E-02 0.12500000E+03</pdfrwt>
<totfact> 0.73942899E+06</totfact>
</mgrwt>
</event>
<event>
 3    1  0.1620993E-001  0.1250000E+03  0.7546771E-02  0.1235069E+00
         21   -1    0    0  502  501  0.00000000000E+00  0.00000000000E+00  0.72298310839E+02  0.72298310839E+02  0.00000000000E+00 0. -1.
         21   -1    0    0  501  502 -0.00000000000E+00 -0.00000000000E+00 -0.54029616386E+02  0.54029616386E+02  0.00000000000E+00 0. -1.
         25    1    1    2    0    0  0.00000000000E+00  0.00000000000E+00  0.18268694453E+02  0.12632792723E+03  0.12500000000E+03 0.  0.
<mgrwt>
<rscale>  0 0.12500000E+03</rscale>
<asrwt>0</asrwt>
<pdfrwt beam="1">  1       21 0.11122817E-01 0.12500000E+03</pdfrwt>
<pdfrwt beam="2">  1       21 0.83122486E-02 0.12500000E+03</pdfrwt>
<totfact> 0.73860947E+06</totfact>
</mgrwt>
</event>
<event>
 3    1  0.1620993E-001  0.1250000E+03  0.7546771E-02  0.1235069E+00
         21   -1    0    0  502  501  0.00000000000E+00  0.00000000000E+00  0.18069526990E+03  0.18069526990E+03  0.00000000000E+00 0. -1.
         21   -1    0    0  501  502 -0.00000000000E+00 -0.00000000000E+00 -0.21617887409E+02  0.21617887409E+02  0.00000000000E+00 0. -1.
         25    1    1    2    0    0  0.00000000000E+00  0.00000000000E+00  0.15907738249E+03  0.20231315731E+03  0.12500000000E+03 0.  0.
<mgrwt>
<rscale>  0 0.12500000E+03</rscale>
<asrwt>0</asrwt>
<pdfrwt beam="1">  1       21 0.27799271E-01 0.12500000E+03</pdfrwt>
<pdfrwt beam="2">  1       21 0.33258290E-02 0.12500000E+03</pdfrwt>
<totfact> 0.64677465E+06</totfact>
</mgrwt>
</event>
<event>
 3    1  0.1620993E-001  0.1250000E+03  0.7546771E-02  0.1235069E+00
         21   -1    0    0  502  501  0.00000000000E+00  0.00000000000E+00  0.81093325852E+02  0.81093325852E+02  0.00000000000E+00 0.  1.
         21   -1    0    0  501  502 -0.00000000000E+00 -0.00000000000E+00 -0.48169808785E+02  0.48169808785E+02  0.00000000000E+00 0.  1.
         25    1    1    2    0    0  0.00000000000E+00  0.00000000000E+00  0.32923517067E+02  0.12926313464E+03  0.12500000000E+03 0.  0.
<mgrwt>
<rscale>  0 0.12500000E+03</rscale>
<asrwt>0</asrwt>
<pdfrwt beam="1">  1       21 0.12475896E-01 0.12500000E+03</pdfrwt>
<pdfrwt beam="2">  1       21 0.74107398E-02 0.12500000E+03</pdfrwt>
<totfact> 0.73463566E+06</totfact>
</mgrwt>
</event>
<event>
 3    1  0.1620993E-001  0.1250000E+03  0.7546771E-02  0.1235069E+00
         21   -1    0    0  502  501  0.00000000000E+00  0.00000000000E+00  0.14471767399E+02  0.14471767399E+02  0.00000000000E+00 0.  1.
         21   -1    0    0  501  502 -0.00000000000E+00 -0.00000000000E+00 -0.26992211056E+03  0.26992211056E+03  0.00000000000E+00 0.  1.
         25    1    1    2    0    0  0.00000000000E+00  0.00000000000E+00 -0.25545034317E+03  0.28439387796E+03  0.12500000000E+03 0.  0.
<mgrwt>
<rscale>  0 0.12500000E+03</rscale>
<asrwt>0</asrwt>
<pdfrwt beam="1">  1       21 0.22264259E-02 0.12500000E+03</pdfrwt>
<pdfrwt beam="2">  1       21 0.41526476E-01 0.12500000E+03</pdfrwt>
<totfact> 0.56778565E+06</totfact>
</mgrwt>
</event>
<event>
 3    1  0.1620993E-001  0.1250000E+03  0.7546771E-02  0.1235069E+00
         21   -1    0    0  502  501  0.00000000000E+00  0.00000000000E+00  0.73006947689E+03  0.73006947689E+03  0.00000000000E+00 0. -1.
         21   -1    0    0  501  502 -0.00000000000E+00 -0.00000000000E+00 -0.53505181680E+01  0.53505181680E+01  0.00000000000E+00 0. -1.
         25    1    1    2    0    0  0.00000000000E+00  0.00000000000E+00  0.72471895872E+03  0.73541999506E+03  0.12500000000E+03 0.  0.
<mgrwt>
<rscale>  0 0.12500000E+03</rscale>
<asrwt>0</asrwt>
<pdfrwt beam="1">  1       21 0.11231830E+00 0.12500000E+03</pdfrwt>
<pdfrwt beam="2">  1       21 0.82315722E-03 0.12500000E+03</pdfrwt>
<totfact> 0.31588449E+06</totfact>
</mgrwt>
</event>
<event>
 3    1  0.1620993E-001  0.1250000E+03  0.7546771E-02  0.1235069E+00
         21   -1    0    0  502  501  0.00000000000E+00  0.00000000000E+00  0.65718859930E+02  0.65718859930E+02  0.00000000000E+00 0.  1.
         21   -1    0    0  501  502 -0.00000000000E+00 -0.00000000000E+00 -0.59438797389E+02  0.59438797389E+02  0.00000000000E+00 0.  1.
         25    1    1    2    0    0  0.00000000000E+00  0.00000000000E+00  0.62800625407E+01  0.12515765732E+03  0.12500000000E+03 0.  0.
<mgrwt>
<rscale>  0 0.12500000E+03</rscale>
<asrwt>0</asrwt>
<pdfrwt beam="1">  1       21 0.10110594E-01 0.12500000E+03</pdfrwt>
<pdfrwt beam="2">  1       21 0.91444304E-02 0.12500000E+03</pdfrwt>
<totfact> 0.74022289E+06</totfact>
</mgrwt>
</event>
<event>
 3    1  0.1620993E-001  0.1250000E+03  0.7546771E-02  0.1235069E+00
         21   -1    0    0  502  501  0.00000000000E+00  0.00000000000E+00  0.10203885722E+02  0.10203885722E+02  0.00000000000E+00 0. -1.
         21   -1    0    0  501  502 -0.00000000000E+00 -0.00000000000E+00 -0.38281984986E+03  0.38281984986E+03  0.00000000000E+00 0. -1.
         25    1    1    2    0    0  0.00000000000E+00  0.00000000000E+00 -0.37261596414E+03  0.39302373558E+03  0.12500000000E+03 0.  0.
<mgrwt>
<rscale>  0 0.12500000E+03</rscale>
<asrwt>0</asrwt>
<pdfrwt beam="1">  1       21 0.15698287E-02 0.12500000E+03</pdfrwt>
<pdfrwt beam="2">  1       21 0.58895355E-01 0.12500000E+03</pdfrwt>
<totfact> 0.48507550E+06</totfact>
</mgrwt>
</event>
<event>
 3    1  0.1620993E-001  0.1250000E+03  0.7546771E-02  0.1235069E+00
         21   -1    0    0  502  501  0.00000000000E+00  0.00000000000E+00  0.24984172855E+02  0.24984172855E+02  0.00000000000E+00 0.  1.
         21   -1    0    0  501  502 -0.00000000000E+00 -0.00000000000E+00 -0.15634898232E+03  0.15634898232E+03  0.00000000000E+00 0.  1.
         25    1    1    2    0    0  0.00000000000E+00  0.00000000000E+00 -0.13136480946E+03  0.18133315517E+03  0.12500000000E+03 0.  0.
<mgrwt>
<rscale>  0 0.12500000E+03</rscale>
<asrwt>0</asrwt>
<pdfrwt beam="1">  1       21 0.38437189E-02 0.12500000E+03</pdfrwt>
<pdfrwt beam="2">  1       21 0.24053689E-01 0.12500000E+03</pdfrwt>
<totfact> 0.66998930E+06</totfact>
</mgrwt>
</event>
<event>
 3    1  0.1620993E-001  0.1250000E+03  0.7546771E-02  0.1235069E+00
         21   -1    0    0  502  501  0.00000000000E+00  0.00000000000E+00  0.83393793738E+01  0.83393793738E+01  0.00000000000E+00 0.  1.
         21   -1    0    0  501  502 -0.00000000000E+00 -0.00000000000E+00 -0.46841015679E+03  0.46841015679E+03  0.00000000000E+00 0.  1.
         25    1    1    2    0    0  0.00000000000E+00  0.00000000000E+00 -0.46007077742E+03  0.47674953616E+03  0.12500000000E+03 0.  0.
<mgrwt>
<rscale>  0 0.12500000E+03</rscale>
<asrwt>0</asrwt>
<pdfrwt beam="1">  1       21 0.12829813E-02 0.12500000E+03</pdfrwt>
<pdfrwt beam="2">  1       21 0.72063112E-01 0.12500000E+03</pdfrwt>
<totfact> 0.43333725E+06</totfact>
</mgrwt>
</event>
<event>
 3    1  0.1620993E-001  0.1250000E+03  0.7546771E-02  0.1235069E+00
         21   -1    0    0  502  501  0.00000000000E+00  0.00000000000E+00  0.49503548702E+01  0.49503548702E+01  0.00000000000E+00 0.  1.
         21   -1    0    0  501  502 -0.00000000000E+00 -0.00000000000E+00 -0.78908484390E+03  0.78908484390E+03  0.00000000000E+00 0.  1.
         25    1    1    2    0    0  0.00000000000E+00  0.00000000000E+00 -0.78413448903E+03  0.79403519877E+03  0.12500000000E+03 0.  0.
<mgrwt>
<rscale>  0 0.12500000E+03</rscale>
<asrwt>0</asrwt>
<pdfrwt beam="1">  1       21 0.76159266E-03 0.12500000E+03</pdfrwt>
<pdfrwt beam="2">  1       21 0.12139773E+00 0.12500000E+03</pdfrwt>
<totfact> 0.29561388E+06</totfact>
</mgrwt>
</event>
<event>
 3    1  0.1620993E-001  0.1250000E+03  0.7546771E-02  0.1235069E+00
         21   -1    0    0  502  501  0.00000000000E+00  0.00000000000E+00  0.63536909966E+03  0.63536909966E+03  0.00000000000E+00 0.  1.
         21   -1    0    0  501  502 -0.00000000000E+00 -0.00000000000E+00 -0.61480012202E+01  0.61480012202E+01  0.00000000000E+00 0.  1.
         25    1    1    2    0    0  0.00000000000E+00  0.00000000000E+00  0.62922109844E+03  0.64151710088E+03  0.12500000000E+03 0.  0.
<mgrwt>
<rscale>  0 0.12500000E+03</rscale>
<asrwt>0</asrwt>
<pdfrwt beam="1">  1       21 0.97749040E-01 0.12500000E+03</pdfrwt>
<pdfrwt beam="2">  1       21 0.94584684E-03 0.12500000E+03</pdfrwt>
<totfact> 0.35279824E+06</totfact>
</mgrwt>
</event>
<event>
 3    1  0.1620993E-001  0.1250000E+03  0.7546771E-02  0.1235069E+00
         21   -1    0    0  502  501  0.00000000000E+00  0.00000000000E+00  0.50953703801E+02  0.50953703801E+02  0.00000000000E+00 0.  1.
         21   -1    0    0  501  502 -0.00000000000E+00 -0.00000000000E+00 -0.76662729274E+02  0.76662729274E+02  0.00000000000E+00 0.  1.
         25    1    1    2    0    0  0.00000000000E+00  0.00000000000E+00 -0.25709025473E+02  0.12761643307E+03  0.12500000000E+03 0.  0.
<mgrwt>
<rscale>  0 0.12500000E+03</rscale>
<asrwt>0</asrwt>
<pdfrwt beam="1">  1       21 0.78390313E-02 0.12500000E+03</pdfrwt>
<pdfrwt beam="2">  1       21 0.11794266E-01 0.12500000E+03</pdfrwt>
<totfact> 0.73685441E+06</totfact>
</mgrwt>
</event>
<event>
 3    1  0.1620993E-001  0.1250000E+03  0.7546771E-02  0.1235069E+00
         21   -1    0    0  502  501  0.00000000000E+00  0.00000000000E+00  0.35742443017E+02  0.35742443017E+02  0.00000000000E+00 0.  1.
         21   -1    0    0  501  502 -0.00000000000E+00 -0.00000000000E+00 -0.10928883619E+03  0.10928883619E+03  0.00000000000E+00 0.  1.
         25    1    1    2    0    0  0.00000000000E+00  0.00000000000E+00 -0.73546393176E+02  0.14503127921E+03  0.12500000000E+03 0.  0.
<mgrwt>
<rscale>  0 0.12500000E+03</rscale>
<asrwt>0</asrwt>
<pdfrwt beam="1">  1       21 0.54988373E-02 0.12500000E+03</pdfrwt>
<pdfrwt beam="2">  1       21 0.16813667E-01 0.12500000E+03</pdfrwt>
<totfact> 0.71389096E+06</totfact>
</mgrwt>
</event>
<event>
 3    1  0.1620993E-001  0.1250000E+03  0.7546771E-02  0.1235069E+00
         21   -1    0    0  502  501  0.00000000000E+00  0.00000000000E+00  0.14500326047E+03  0.14500326047E+03  0.00000000000E+00 0. -1.
         21   -1    0    0  501  502 -0.00000000000E+00 -0.00000000000E+00 -0.26939049421E+02  0.26939049421E+02  0.00000000000E+00 0. -1.
         25    1    1    2    0    0  0.00000000000E+00  0.00000000000E+00  0.11806421105E+03  0.17194230989E+03  0.12500000000E+03 0.  0.
<mgrwt>
<rscale>  0 0.12500000E+03</rscale>
<asrwt>0</asrwt>
<pdfrwt beam="1">  1       21 0.22308193E-01 0.12500000E+03</pdfrwt>
<pdfrwt beam="2">  1       21 0.41444692E-02 0.12500000E+03</pdfrwt>
<totfact> 0.68088129E+06</totfact>
</mgrwt>
</event>
<event>
 3    1  0.1620993E-001  0.1250000E+03  0.7546771E-02  0.1235069E+00
         21   -1    0    0  502  501  0.00000000000E+00  0.00000000000E+00  0.39257932485E+02  0.39257932485E+02  0.00000000000E+00 0. -1.
         21   -1    0    0  501  502 -0.00000000000E+00 -0.00000000000E+00 -0.99502183451E+02  0.99502183451E+02  0.00000000000E+00 0. -1.
         25    1    1    2    0    0  0.00000000000E+00  0.00000000000E+00 -0.60244250966E+02  0.13876011594E+03  0.12500000000E+03 0.  0.
<mgrwt>
<rscale>  0 0.12500000E+03</rscale>
<asrwt>0</asrwt>
<pdfrwt beam="1">  1       21 0.60396820E-02 0.12500000E+03</pdfrwt>
<pdfrwt beam="2">  1       21 0.15308028E-01 0.12500000E+03</pdfrwt>
<totfact> 0.72201588E+06</totfact>
</mgrwt>
</event>
<event>
 3    1  0.1620993E-001  0.1250000E+03  0.7546771E-02  0.1235069E+00
         21   -1    0    0  502  501  0.00000000000E+00  0.00000000000E+00  0.10782525360E+02  0.10782525360E+02  0.00000000000E+00 0. -1.
         21   -1    0    0  501  502 -0.00000000000E+00 -0.00000000000E+00 -0.36227598540E+03  0.36227598540E+03  0.00000000000E+00 0. -1.
         25    1    1    2    0    0  0.00000000000E+00  0.00000000000E+00 -0.35149346004E+03  0.37305851076E+03  0.12500000000E+03 0.  0.
<mgrwt>
<rscale>  0 0.12500000E+03</rscale>
<asrwt>0</asrwt>
<pdfrwt beam="1">  1       21 0.16588502E-02 0.12500000E+03</pdfrwt>
<pdfrwt beam="2">  1       21 0.55734763E-01 0.12500000E+03</pdfrwt>
<totfact> 0.49879291E+06</totfact>
</mgrwt>
</event>
<event>
 3    1  0.1620993E-001  0.1250000E+03  0.7546771E-02  0.1235069E+00
         21   -1    0    0  502  501  0.00000000000E+00  0.00000000000E+00  0.38291720801E+03  0.38291720801E+03  0.00000000000E+00 0.  1.
         21   -1    0    0  501  502 -0.00000000000E+00 -0.00000000000E+00 -0.10201291345E+02  0.10201291345E+02  0.00000000000E+00 0.  1.
         25    1    1    2    0    0  0.00000000000E+00  0.00000000000E+00  0.37271591666E+03  0.39311849935E+03  0.12500000000E+03 0.  0.
<mgrwt>
<rscale>  0 0.12500000E+03</rscale>
<asrwt>0</asrwt>
<pdfrwt beam="1">  1       21 0.58910329E-01 0.12500000E+03</pdfrwt>
<pdfrwt beam="2">  1       21 0.15694297E-02 0.12500000E+03</pdfrwt>
<totfact> 0.48501172E+06</totfact>
</mgrwt>
</event>
<event>
 3    1  0.1620993E-001  0.1250000E+03  0.7546771E-02  0.1235069E+00
         21   -1    0    0  502  501  0.00000000000E+00  0.00000000000E+00  0.46568000330E+01  0.46568000330E+01  0.00000000000E+00 0. -1.
         21   -1    0    0  501  502 -0.00000000000E+00 -0.00000000000E+00 -0.83882708562E+03  0.83882708562E+03  0.00000000000E+00 0. -1.
         25    1    1    2    0    0  0.00000000000E+00  0.00000000000E+00 -0.83417028558E+03  0.84348388565E+03  0.12500000000E+03 0.  0.
<mgrwt>
<rscale>  0 0.12500000E+03</rscale>
<asrwt>0</asrwt>
<pdfrwt beam="1">  1       21 0.71643157E-03 0.12500000E+03</pdfrwt>
<pdfrwt beam="2">  1       21 0.12905018E+00 0.12500000E+03</pdfrwt>
<totfact> 0.27971858E+06</totfact>
</mgrwt>
</event>
<event>
 3    1  0.1620993E-001  0.1250000E+03  0.7546771E-02  0.1235069E+00
         21   -1    0    0  502  501  0.00000000000E+00  0.00000000000E+00  0.25582134457E+02  0.25582134457E+02  0.00000000000E+00 0.  1.
         21   -1    0    0  501  502 -0.00000000000E+00 -0.00000000000E+00 -0.15269445193E+03  0.15269445193E+03  0.00000000000E+00 0.  1.
         25    1    1    2    0    0  0.00000000000E+00  0.00000000000E+00 -0.12711231747E+03  0.17827658638E+03  0.12500000000E+03 0.  0.
<mgrwt>
<rscale>  0 0.12500000E+03</rscale>
<asrwt>0</asrwt>
<pdfrwt beam="1">  1       21 0.39357130E-02 0.12500000E+03</pdfrwt>
<pdfrwt beam="2">  1       21 0.23491454E-01 0.12500000E+03</pdfrwt>
<totfact> 0.67349793E+06</totfact>
</mgrwt>
</event>
<event>
 3    1  0.1620993E-001  0.1250000E+03  0.7546771E-02  0.1235069E+00
         21   -1    0    0  502  501  0.00000000000E+00  0.00000000000E+00  0.12502519928E+02  0.12502519928E+02  0.00000000000E+00 0. -1.
         21   -1    0    0  501  502 -0.00000000000E+00 -0.00000000000E+00 -0.31243701450E+03  0.31243701450E+03  0.00000000000E+00 0. -1.
         25    1    1    2    0    0  0.00000000000E+00  0.00000000000E+00 -0.29993449457E+03  0.32493953443E+03  0.12500000000E+03 0.  0.
<mgrwt>
<rscale>  0 0.12500000E+03</rscale>
<asrwt>0</asrwt>
<pdfrwt beam="1">  1       21 0.19234644E-02 0.12500000E+03</pdfrwt>
<pdfrwt beam="2">  1       21 0.48067237E-01 0.12500000E+03</pdfrwt>
<totfact> 0.53444214E+06</totfact>
</mgrwt>
</event>
<event>
 3    1  0.1620993E-001  0.1250000E+03  0.7546771E-02  0.1235069E+00
         21   -1    0    0  502  501  0.00000000000E+00  0.00000000000E+00  0.14084930026E+03  0.14084930026E+03  0.00000000000E+00 0. -1.
         21   -1    0    0  501  502 -0.00000000000E+00 -0.00000000000E+00 -0.27733542110E+02  0.27733542110E+02  0.00000000000E+00 0. -1.
         25    1    1    2    0    0  0.00000000000E+00  0.00000000000E+00  0.11311575815E+03  0.16858284237E+03  0.12500000000E+03 0.  0.
<mgrwt>
<rscale>  0 0.12500000E+03</rscale>
<asrwt>0</asrwt>
<pdfrwt beam="1">  1       21 0.21669123E-01 0.12500000E+03</pdfrwt>
<pdfrwt beam="2">  1       21 0.42666989E-02 0.12500000E+03</pdfrwt>
<totfact> 0.68485676E+06</totfact>
</mgrwt>
</event>
<event>
 3    1  0.1620993E-001  0.1250000E+03  0.7546771E-02  0.1235069E+00
         21   -1    0    0  502  501  0.00000000000E+00  0.00000000000E+00  0.94326172844E+01  0.94326172844E+01  0.00000000000E+00 0. -1.
         21   -1    0    0  501  502 -0.00000000000E+00 -0.00000000000E+00 -0.41412154042E+03  0.41412154042E+03  0.00000000000E+00 0. -1.
         25    1    1    2    0    0  0.00000000000E+00  0.00000000000E+00 -0.40468892313E+03  0.42355415770E+03  0.12500000000E+03 0.  0.
<mgrwt>
<rscale>  0 0.12500000E+03</rscale>
<asrwt>0</asrwt>
<pdfrwt beam="1">  1       21 0.14511719E-02 0.12500000E+03</pdfrwt>
<pdfrwt beam="2">  1       21 0.63711004E-01 0.12500000E+03</pdfrwt>
<totfact> 0.46517288E+06</totfact>
</mgrwt>
</event>
<event>
 3    1  0.1620993E-001  0.1250000E+03  0.7546771E-02  0.1235069E+00
         21   -1    0    0  502  501  0.00000000000E+00  0.00000000000E+00  0.59199597923E+02  0.59199597923E+02  0.00000000000E+00 0. -1.
         21   -1    0    0  501  502 -0.00000000000E+00 -0.00000000000E+00 -0.65984400859E+02  0.65984400859E+02  0.00000000000E+00 0. -1.
         25    1    1    2    0    0  0.00000000000E+00  0.00000000000E+00 -0.67848029362E+01  0.12518399878E+03  0.12500000000E+03 0.  0.
<mgrwt>
<rscale>  0 0.12500000E+03</rscale>
<asrwt>0</asrwt>
<pdfrwt beam="1">  1       21 0.91076304E-02 0.12500000E+03</pdfrwt>
<pdfrwt beam="2">  1       21 0.10151446E-01 0.12500000E+03</pdfrwt>
<totfact> 0.74018732E+06</totfact>
</mgrwt>
</event>
<event>
 3    1  0.1620993E-001  0.1250000E+03  0.7546771E-02  0.1235069E+00
         21   -1    0    0  502  501  0.00000000000E+00  0.00000000000E+00  0.51186500676E+02  0.51186500676E+02  0.00000000000E+00 0. -1.
         21   -1    0    0  501  502 -0.00000000000E+00 -0.00000000000E+00 -0.76314066177E+02  0.76314066177E+02  0.00000000000E+00 0. -1.
         25    1    1    2    0    0  0.00000000000E+00  0.00000000000E+00 -0.25127565501E+02  0.12750056685E+03  0.12500000000E+03 0.  0.
<mgrwt>
<rscale>  0 0.12500000E+03</rscale>
<asrwt>0</asrwt>
<pdfrwt beam="1">  1       21 0.78748463E-02 0.12500000E+03</pdfrwt>
<pdfrwt beam="2">  1       21 0.11740626E-01 0.12500000E+03</pdfrwt>
<totfact> 0.73701141E+06</totfact>
</mgrwt>
</event>
<event>
 3    1  0.1620993E-001  0.1250000E+03  0.7546771E-02  0.1235069E+00
         21   -1    0    0  502  501  0.00000000000E+00  0.00000000000E+00  0.11502404379E+03  0.11502404379E+03  0.00000000000E+00 0.  1.
         21   -1    0    0  501  502 -0.00000000000E+00 -0.00000000000E+00 -0.33960291008E+02  0.33960291008E+02  0.00000000000E+00 0.  1.
         25    1    1    2    0    0  0.00000000000E+00  0.00000000000E+00  0.81063752783E+02  0.14898433480E+03  0.12500000000E+03 0.  0.
<mgrwt>
<rscale>  0 0.12500000E+03</rscale>
<asrwt>0</asrwt>
<pdfrwt beam="1">  1       21 0.17696007E-01 0.12500000E+03</pdfrwt>
<pdfrwt beam="2">  1       21 0.52246602E-02 0.12500000E+03</pdfrwt>
<totfact> 0.70887021E+06</totfact>
</mgrwt>
</event>
<event>
 3    1  0.1620993E-001  0.1250000E+03  0.7546771E-02  0.1235069E+00
         21   -1    0    0  502  501  0.00000000000E+00  0.00000000000E+00  0.19863991832E+03  0.19863991832E+03  0.00000000000E+00 0.  1.
         21   -1    0    0  501  502 -0.00000000000E+00 -0.00000000000E+00 -0.19664979895E+02  0.19664979895E+02  0.00000000000E+00 0.  1.
         25    1    1    2    0    0  0.00000000000E+00  0.00000000000E+00  0.17897493842E+03  0.21830489821E+03  0.12500000000E+03 0.  0.
<mgrwt>
<rscale>  0 0.12500000E+03</rscale>
<asrwt>0</asrwt>
<pdfrwt beam="1">  1       21 0.30559986E-01 0.12500000E+03</pdfrwt>
<pdfrwt beam="2">  1       21 0.30253817E-02 0.12500000E+03</pdfrwt>
<totfact> 0.62996219E+06</totfact>
</mgrwt>
</event>
<event>
 3    1  0.1620993E-001  0.1250000E+03  0.7546771E-02  0.1235069E+00
         21   -1    0    0  502  501  0.00000000000E+00  0.00000000000E+00  0.57868545227E+03  0.57868545227E+03  0.00000000000E+00 0.  1.
         21   -1    0    0  501  502 -0.00000000000E+00 -0.00000000000E+00 -0.67502128914E+01  0.67502128914E+01  0.00000000000E+00 0.  1.
         25    1    1    2    0    0  0.00000000000E+00  0.00000000000E+00  0.57193523938E+03  0.58543566516E+03  0.12500000000E+03 0.  0.
<mgrwt>
<rscale>  0 0.12500000E+03</rscale>
<asrwt>0</asrwt>
<pdfrwt beam="1">  1       21 0.89028492E-01 0.12500000E+03</pdfrwt>
<pdfrwt beam="2">  1       21 0.10384947E-02 0.12500000E+03</pdfrwt>
<totfact> 0.37759688E+06</totfact>
</mgrwt>
</event>
<event>
 3    1  0.1620993E-001  0.1250000E+03  0.7546771E-02  0.1235069E+00
         21   -1    0    0  502  501  0.00000000000E+00  0.00000000000E+00  0.10572410963E+02  0.10572410963E+02  0.00000000000E+00 0. -1.
         21   -1    0    0  501  502 -0.00000000000E+00 -0.00000000000E+00 -0.36947580015E+03  0.36947580015E+03  0.00000000000E+00 0. -1.
         25    1    1    2    0    0  0.00000000000E+00  0.00000000000E+00 -0.35890338919E+03  0.38004821111E+03  0.12500000000E+03 0.  0.
<mgrwt>
<rscale>  0 0.12500000E+03</rscale>
<asrwt>0</asrwt>
<pdfrwt beam="1">  1       21 0.16265248E-02 0.12500000E+03</pdfrwt>
<pdfrwt beam="2">  1       21 0.56842429E-01 0.12500000E+03</pdfrwt>
<totfact> 0.49393009E+06</totfact>
</mgrwt>
</event>
<event>
 3    1  0.1620993E-001  0.1250000E+03  0.7546771E-02  0.1235069E+00
         21   -1    0    0  502  501  0.00000000000E+00  0.00000000000E+00  0.11489259433E+02  0.11489259433E+02  0.00000000000E+00 0. -1.
         21   -1    0    0  501  502 -0.00000000000E+00 -0.00000000000E+00 -0.33999145226E+03  0.33999145226E+03  0.00000000000E+00 0. -1.
         25    1    1    2    0    0  0.00000000000E+00  0.00000000000E+00 -0.32850219282E+03  0.35148071169E+03  0.12500000000E+03 0.  0.
<mgrwt>
<rscale>  0 0.12500000E+03</rscale>
<asrwt>0</asrwt>
<pdfrwt beam="1">  1       21 0.17675781E-02 0.12500000E+03</pdfrwt>
<pdfrwt beam="2">  1       21 0.52306386E-01 0.12500000E+03</pdfrwt>
<totfact> 0.51429259E+06</totfact>
</mgrwt>
</event>
<event>
 3    1  0.1620993E-001  0.1250000E+03  0.7546771E-02  0.1235069E+00
         21   -1    0    0  502  501  0.00000000000E+00  0.00000000000E+00  0.12954221128E+02  0.12954221128E+02  0.00000000000E+00 0. -1.
         21   -1    0    0  501  502 -0.00000000000E+00 -0.00000000000E+00 -0.30154263707E+03  0.30154263707E+03  0.00000000000E+00 0. -1.
         25    1    1    2    0    0  0.00000000000E+00  0.00000000000E+00 -0.28858841594E+03  0.31449685820E+03  0.12500000000E+03 0.  0.
<mgrwt>
<rscale>  0 0.12500000E+03</rscale>
<asrwt>0</asrwt>
<pdfrwt beam="1">  1       21 0.19929572E-02 0.12500000E+03</pdfrwt>
<pdfrwt beam="2">  1       21 0.46391173E-01 0.12500000E+03</pdfrwt>
<totfact> 0.54272341E+06</totfact>
</mgrwt>
</event>
<event>
 3    1  0.1620993E-001  0.1250000E+03  0.7546771E-02  0.1235069E+00
         21   -1    0    0  502  501  0.00000000000E+00  0.00000000000E+00  0.17718617524E+03  0.17718617524E+03  0.00000000000E+00 0. -1.
         21   -1    0    0  501  502 -0.00000000000E+00 -0.00000000000E+00 -0.22046020208E+02  0.22046020208E+02  0.00000000000E+00 0. -1.
         25    1    1    2    0    0  0.00000000000E+00  0.00000000000E+00  0.15514015503E+03  0.19923219545E+03  0.12500000000E+03 0.  0.
<mgrwt>
<rscale>  0 0.12500000E+03</rscale>
<asrwt>0</asrwt>
<pdfrwt beam="1">  1       21 0.27259411E-01 0.12500000E+03</pdfrwt>
<pdfrwt beam="2">  1       21 0.33916955E-02 0.12500000E+03</pdfrwt>
<totfact> 0.65010544E+06</totfact>
</mgrwt>
</event>
<event>
 3    1  0.1620993E-001  0.1250000E+03  0.7546771E-02  0.1235069E+00
         21   -1    0    0  502  501  0.00000000000E+00  0.00000000000E+00  0.20234124513E+03  0.20234124513E+03  0.00000000000E+00 0.  1.
         21   -1    0    0  501  502 -0.00000000000E+00 -0.00000000000E+00 -0.19305258290E+02  0.19305258290E+02  0.00000000000E+00 0.  1.
         25    1    1    2    0    0  0.00000000000E+00  0.00000000000E+00  0.18303598684E+03  0.22164650342E+03  0.12500000000E+03 0.  0.
<mgrwt>
<rscale>  0 0.12500000E+03</rscale>
<asrwt>0</asrwt>
<pdfrwt beam="1">  1       21 0.31129421E-01 0.12500000E+03</pdfrwt>
<pdfrwt beam="2">  1       21 0.29700399E-02 0.12500000E+03</pdfrwt>
<totfact> 0.62654637E+06</totfact>
</mgrwt>
</event>
<event>
 3    1  0.1620993E-001  0.1250000E+03  0.7546771E-02  0.1235069E+00
         21   -1    0    0  502  501  0.00000000000E+00  0.00000000000E+00  0.33279904427E+03  0.33279904427E+03  0.00000000000E+00 0. -1.
         21   -1    0    0  501  502 -0.00000000000E+00 -0.00000000000E+00 -0.11737563756E+02  0.11737563756E+02  0.00000000000E+00 0. -1.
         25    1    1    2    0    0  0.00000000000E+00  0.00000000000E+00  0.32106148051E+03  0.34453660803E+03  0.12500000000E+03 0.  0.
<mgrwt>
<rscale>  0 0.12500000E+03</rscale>
<asrwt>0</asrwt>
<pdfrwt beam="1">  1       21 0.51199846E-01 0.12500000E+03</pdfrwt>
<pdfrwt beam="2">  1       21 0.18057793E-02 0.12500000E+03</pdfrwt>
<totfact> 0.51944470E+06</totfact>
</mgrwt>
</event>
<event>
 3    1  0.1620993E-001  0.1250000E+03  0.7546771E-02  0.1235069E+00
         21   -1    0    0  502  501  0.00000000000E+00  0.00000000000E+00  0.80317826504E+02  0.80317826504E+02  0.00000000000E+00 0.  1.
         21   -1    0    0  501  502 -0.00000000000E+00 -0.00000000000E+00 -0.48634906720E+02  0.48634906720E+02  0.00000000000E+00 0.  1.
         25    1    1    2    0    0  0.00000000000E+00  0.00000000000E+00  0.31682919783E+02  0.12895273322E+03  0.12500000000E+03 0.  0.
<mgrwt>
<rscale>  0 0.12500000E+03</rscale>
<asrwt>0</asrwt>
<pdfrwt beam="1">  1       21 0.12356589E-01 0.12500000E+03</pdfrwt>
<pdfrwt beam="2">  1       21 0.74822934E-02 0.12500000E+03</pdfrwt>
<totfact> 0.73505229E+06</totfact>
</mgrwt>
</event>
<event>
 3    1  0.1620993E-001  0.1250000E+03  0.7546771E-02  0.1235069E+00
         21   -1    0    0  502  501  0.00000000000E+00  0.00000000000E+00  0.94361132934E+02  0.94361132934E+02  0.00000000000E+00 0.  1.
         21   -1    0    0  501  502 -0.00000000000E+00 -0.00000000000E+00 -0.41396811150E+02  0.41396811150E+02  0.00000000000E+00 0.  1.
         25    1    1    2    0    0  0.00000000000E+00  0.00000000000E+00  0.52964321784E+02  0.13575794408E+03  0.12500000000E+03 0.  0.
<mgrwt>
<rscale>  0 0.12500000E+03</rscale>
<asrwt>0</asrwt>
<pdfrwt beam="1">  1       21 0.14517097E-01 0.12500000E+03</pdfrwt>
<pdfrwt beam="2">  1       21 0.63687402E-02 0.12500000E+03</pdfrwt>
<totfact> 0.72596270E+06</totfact>
</mgrwt>
</event>
<event>
 3    1  0.1620993E-001  0.1250000E+03  0.7546771E-02  0.1235069E+00
         21   -1    0    0  502  501  0.00000000000E+00  0.00000000000E+00  0.26533781905E+03  0.26533781905E+03  0.00000000000E+00 0.  1.
         21   -1    0    0  501  502 -0.00000000000E+00 -0.00000000000E+00 -0.14721798853E+02  0.14721798853E+02  0.00000000000E+00 0.  1.
         25    1    1    2    0    0  0.00000000000E+00  0.00000000000E+00  0.25061602019E+03  0.28005961790E+03  0.12500000000E+03 0.  0.
<mgrwt>
<rscale>  0 0.12500000E+03</rscale>
<asrwt>0</asrwt>
<pdfrwt beam="1">  1       21 0.40821199E-01 0.12500000E+03</pdfrwt>
<pdfrwt beam="2">  1       21 0.22648923E-02 0.12500000E+03</pdfrwt>
<totfact> 0.57155109E+06</totfact>
</mgrwt>
</event>
<event>
 3    1  0.1620993E-001  0.1250000E+03  0.7546771E-02  0.1235069E+00
         21   -1    0    0  502  501  0.00000000000E+00  0.00000000000E+00  0.23266362649E+02  0.23266362649E+02  0.00000000000E+00 0.  1.
         21   -1    0    0  501  502 -0.00000000000E+00 -0.00000000000E+00 -0.16789259494E+03  0.16789259494E+03  0.00000000000E+00 0.  1.
         25    1    1    2    0    0  0.00000000000E+00  0.00000000000E+00 -0.14462623230E+03  0.19115895759E+03  0.12500000000E+03 0.  0.
<mgrwt>
<rscale>  0 0.12500000E+03</rscale>
<asrwt>0</asrwt>
<pdfrwt beam="1">  1       21 0.35794405E-02 0.12500000E+03</pdfrwt>
<pdfrwt beam="2">  1       21 0.25829629E-01 0.12500000E+03</pdfrwt>
<totfact> 0.65893888E+06</totfact>
</mgrwt>
</event>
<event>
 3    1  0.1620993E-001  0.1250000E+03  0.7546771E-02  0.1235069E+00
         21   -1    0    0  502  501  0.00000000000E+00  0.00000000000E+00  0.16591089913E+03  0.16591089913E+03  0.00000000000E+00 0.  1.
         21   -1    0    0  501  502 -0.00000000000E+00 -0.00000000000E+00 -0.23544263942E+02  0.23544263942E+02  0.00000000000E+00 0.  1.
         25    1    1    2    0    0  0.00000000000E+00  0.00000000000E+00  0.14236663519E+03  0.18945516307E+03  0.12500000000E+03 0.  0.
<mgrwt>
<rscale>  0 0.12500000E+03</rscale>
<asrwt>0</asrwt>
<pdfrwt beam="1">  1       21 0.25524753E-01 0.12500000E+03</pdfrwt>
<pdfrwt beam="2">  1       21 0.36221946E-02 0.12500000E+03</pdfrwt>
<totfact> 0.66083069E+06</totfact>
</mgrwt>
</event>
<event>
 3    1  0.1620993E-001  0.1250000E+03  0.7546771E-02  0.1235069E+00
         21   -1    0    0  502  501  0.00000000000E+00  0.00000000000E+00  0.17362616848E+03  0.17362616848E+03  0.00000000000E+00 0.  1.
         21   -1    0    0  501  502 -0.00000000000E+00 -0.00000000000E+00 -0.22498048734E+02  0.22498048734E+02  0.00000000000E+00 0.  1.
         25    1    1    2    0    0  0.00000000000E+00  0.00000000000E+00  0.15112811974E+03  0.19612421721E+03  0.12500000000E+03 0.  0.
<mgrwt>
<rscale>  0 0.12500000E+03</rscale>
<asrwt>0</asrwt>
<pdfrwt beam="1">  1       21 0.26711717E-01 0.12500000E+03</pdfrwt>
<pdfrwt beam="2">  1       21 0.34612384E-02 0.12500000E+03</pdfrwt>
<totfact> 0.65348191E+06</totfact>
</mgrwt>
</event>
<event>
 3    1  0.1620993E-001  0.1250000E+03  0.7546771E-02  0.1235069E+00
         21   -1    0    0  502  501  0.00000000000E+00  0.00000000000E+00  0.80962173627E+03  0.80962173627E+03  0.00000000000E+00 0.  1.
         21   -1    0    0  501  502 -0.00000000000E+00 -0.00000000000E+00 -0.48247840010E+01  0.48247840010E+01  0.00000000000E+00 0.  1.
         25    1    1    2    0    0  0.00000000000E+00  0.00000000000E+00  0.80479695227E+03  0.81444652027E+03  0.12500000000E+03 0.  0.
<mgrwt>
<rscale>  0 0.12500000E+03</rscale>
<asrwt>0</asrwt>
<pdfrwt beam="1">  1       21 0.12455708E+00 0.12500000E+03</pdfrwt>
<pdfrwt beam="2">  1       21 0.74227510E-03 0.12500000E+03</pdfrwt>
<totfact> 0.28889748E+06</totfact>
</mgrwt>
</event>
<event>
 3    1  0.1620993E-001  0.1250000E+03  0.7546771E-02  0.1235069E+00
         21   -1    0    0  502  501  0.00000000000E+00  0.00000000000E+00  0.30296466268E+02  0.30296466268E+02  0.00000000000E+00 0. -1.
         21   -1    0    0  501  502 -0.00000000000E+00 -0.00000000000E+00 -0.12893417884E+03  0.12893417884E+03  0.00000000000E+00 0. -1.
         25    1    1    2    0    0  0.00000000000E+00  0.00000000000E+00 -0.98637712571E+02  0.15923064511E+03  0.12500000000E+03 0.  0.
<mgrwt>
<rscale>  0 0.12500000E+03</rscale>
<asrwt>0</asrwt>
<pdfrwt beam="1">  1       21 0.46609949E-02 0.12500000E+03</pdfrwt>
<pdfrwt beam="2">  1       21 0.19836027E-01 0.12500000E+03</pdfrwt>
<totfact> 0.69613625E+06</totfact>
</mgrwt>
</event>
<event>
 3    1  0.1620993E-001  0.1250000E+03  0.7546771E-02  0.1235069E+00
         21   -1    0    0  502  501  0.00000000000E+00  0.00000000000E+00  0.43209525087E+01  0.43209525087E+01  0.00000000000E+00 0.  1.
         21   -1    0    0  501  502 -0.00000000000E+00 -0.00000000000E+00 -0.90402521020E+03  0.90402521020E+03  0.00000000000E+00 0.  1.
         25    1    1    2    0    0  0.00000000000E+00  0.00000000000E+00 -0.89970425770E+03  0.90834616271E+03  0.12500000000E+03 0.  0.
<mgrwt>
<rscale>  0 0.12500000E+03</rscale>
<asrwt>0</asrwt>
<pdfrwt beam="1">  1       21 0.66476082E-03 0.12500000E+03</pdfrwt>
<pdfrwt beam="2">  1       21 0.13908103E+00 0.12500000E+03</pdfrwt>
<totfact> 0.26060512E+06</totfact>
</mgrwt>
</event>
<event>
 3    1  0.1620993E-001  0.1250000E+03  0.7546771E-02  0.1235069E+00
         21   -1    0    0  502  501  0.00000000000E+00  0.00000000000E+00  0.24691388669E+02  0.24691388669E+02  0.00000000000E+00 0.  1.
         21   -1    0    0  501  502 -0.00000000000E+00 -0.00000000000E+00 -0.15820292865E+03  0.15820292865E+03  0.00000000000E+00 0.  1.
         25    1    1    2    0    0  0.00000000000E+00  0.00000000000E+00 -0.13351153998E+03  0.18289431732E+03  0.12500000000E+03 0.  0.
<mgrwt>
<rscale>  0 0.12500000E+03</rscale>
<asrwt>0</asrwt>
<pdfrwt beam="1">  1       21 0.37986751E-02 0.12500000E+03</pdfrwt>
<pdfrwt beam="2">  1       21 0.24338912E-01 0.12500000E+03</pdfrwt>
<totfact> 0.66821051E+06</totfact>
</mgrwt>
</event>
<event>
 3    1  0.1620993E-001  0.1250000E+03  0.7546771E-02  0.1235069E+00
         21   -1    0    0  502  501  0.00000000000E+00  0.00000000000E+00  0.11943472116E+03  0.11943472116E+03  0.00000000000E+00 0. -1.
         21   -1    0    0  501  502 -0.00000000000E+00 -0.00000000000E+00 -0.32706150793E+02  0.32706150793E+02  0.00000000000E+00 0. -1.
         25    1    1    2    0    0  0.00000000000E+00  0.00000000000E+00  0.86728570362E+02  0.15214087195E+03  0.12500000000E+03 0.  0.
<mgrwt>
<rscale>  0 0.12500000E+03</rscale>
<asrwt>0</asrwt>
<pdfrwt beam="1">  1       21 0.18374572E-01 0.12500000E+03</pdfrwt>
<pdfrwt beam="2">  1       21 0.50317156E-02 0.12500000E+03</pdfrwt>
<totfact> 0.70491294E+06</totfact>
</mgrwt>
</event>
<event>
 3    1  0.1620993E-001  0.1250000E+03  0.7546771E-02  0.1235069E+00
         21   -1    0    0  502  501  0.00000000000E+00  0.00000000000E+00  0.15656393345E+03  0.15656393345E+03  0.00000000000E+00 0. -1.
         21   -1    0    0  501  502 -0.00000000000E+00 -0.00000000000E+00 -0.24949871365E+02  0.24949871365E+02  0.00000000000E+00 0. -1.
         25    1    1    2    0    0  0.00000000000E+00  0.00000000000E+00  0.13161406209E+03  0.18151380482E+03  0.12500000000E+03 0.  0.
<mgrwt>
<rscale>  0 0.12500000E+03</rscale>
<asrwt>0</asrwt>
<pdfrwt beam="1">  1       21 0.24086758E-01 0.12500000E+03</pdfrwt>
<pdfrwt beam="2">  1       21 0.38384418E-02 0.12500000E+03</pdfrwt>
<totfact> 0.66978301E+06</totfact>
</mgrwt>
</event>
<event>
 3    1  0.1620993E-001  0.1250000E+03  0.7546771E-02  0.1235069E+00
         21   -1    0    0  502  501  0.00000000000E+00  0.00000000000E+00  0.31028562525E+03  0.31028562525E+03  0.00000000000E+00 0. -1.
         21   -1    0    0  501  502 -0.00000000000E+00 -0.00000000000E+00 -0.12589207112E+02  0.12589207112E+02  0.00000000000E+00 0. -1.
         25    1    1    2    0    0  0.00000000000E+00  0.00000000000E+00  0.29769641813E+03  0.32287483236E+03  0.12500000000E+03 0.  0.
<mgrwt>
<rscale>  0 0.12500000E+03</rscale>
<asrwt>0</asrwt>
<pdfrwt beam="1">  1       21 0.47736244E-01 0.12500000E+03</pdfrwt>
<pdfrwt beam="2">  1       21 0.19368013E-02 0.12500000E+03</pdfrwt>
<totfact> 0.53606313E+06</totfact>
</mgrwt>
</event>
<event>
 3    1  0.1620993E-001  0.1250000E+03  0.7546771E-02  0.1235069E+00
         21   -1    0    0  502  501  0.00000000000E+00  0.00000000000E+00  0.52584409500E+02  0.52584409500E+02  0.00000000000E+00 0.  1.
         21   -1    0    0  501  502 -0.00000000000E+00 -0.00000000000E+00 -0.74285325957E+02  0.74285325957E+02  0.00000000000E+00 0.  1.
         25    1    1    2    0    0  0.00000000000E+00  0.00000000000E+00 -0.21700916457E+02  0.12686973546E+03  0.12500000000E+03 0.  0.
<mgrwt>
<rscale>  0 0.12500000E+03</rscale>
<asrwt>0</asrwt>
<pdfrwt beam="1">  1       21 0.80899091E-02 0.12500000E+03</pdfrwt>
<pdfrwt beam="2">  1       21 0.11428512E-01 0.12500000E+03</pdfrwt>
<totfact> 0.73786880E+06</totfact>
</mgrwt>
</event>
<event>
 3    1  0.1620993E-001  0.1250000E+03  0.7546771E-02  0.1235069E+00
         21   -1    0    0  502  501  0.00000000000E+00  0.00000000000E+00  0.10944640481E+04  0.10944640481E+04  0.00000000000E+00 0. -1.
         21   -1    0    0  501  502 -0.00000000000E+00 -0.00000000000E+00 -0.35690985071E+01  0.35690985071E+01  0.00000000000E+00 0. -1.
         25    1    1    2    0    0  0.00000000000E+00  0.00000000000E+00  0.10908949496E+04  0.10980331466E+04  0.12500000000E+03 0.  0.
<mgrwt>
<rscale>  0 0.12500000E+03</rscale>
<asrwt>0</asrwt>
<pdfrwt beam="1">  1       21 0.16837882E+00 0.12500000E+03</pdfrwt>
<pdfrwt beam="2">  1       21 0.54909295E-03 0.12500000E+03</pdfrwt>
<totfact> 0.21295238E+06</totfact>
</mgrwt>
</event>
<event>
 3    1  0.1620993E-001  0.1250000E+03  0.7546771E-02  0.1235069E+00
         21   -1    0    0  502  501  0.00000000000E+00  0.00000000000E+00  0.32200166459E+01  0.32200166459E+01  0.00000000000E+00 0. -1.
         21   -1    0    0  501  502 -0.00000000000E+00 -0.00000000000E+00 -0.12131148468E+04  0.12131148468E+04  0.00000000000E+00 0. -1.
         25    1    1    2    0    0  0.00000000000E+00  0.00000000000E+00 -0.12098948301E+04  0.12163348634E+04  0.12500000000E+03 0.  0.
<mgrwt>
<rscale>  0 0.12500000E+03</rscale>
<asrwt>0</asrwt>
<pdfrwt beam="1">  1       21 0.49538705E-03 0.12500000E+03</pdfrwt>
<pdfrwt beam="2">  1       21 0.18663310E+00 0.12500000E+03</pdfrwt>
<totfact> 0.18820853E+06</totfact>
</mgrwt>
</event>
<event>
 3    1  0.1620993E-001  0.1250000E+03  0.7546771E-02  0.1235069E+00
         21   -1    0    0  502  501  0.00000000000E+00  0.00000000000E+00  0.40569102947E+02  0.40569102947E+02  0.00000000000E+00 0.  1.
         21   -1    0    0  501  502 -0.00000000000E+00 -0.00000000000E+00 -0.96286329158E+02  0.96286329158E+02  0.00000000000E+00 0.  1.
         25    1    1    2    0    0  0.00000000000E+00  0.00000000000E+00 -0.55717226211E+02  0.13685543211E+03  0.12500000000E+03 0.  0.
<mgrwt>
<rscale>  0 0.12500000E+03</rscale>
<asrwt>0</asrwt>
<pdfrwt beam="1">  1       21 0.62414004E-02 0.12500000E+03</pdfrwt>
<pdfrwt beam="2">  1       21 0.14813282E-01 0.12500000E+03</pdfrwt>
<totfact> 0.72451721E+06</totfact>
</mgrwt>
</event>
<event>
 3    1  0.1620993E-001  0.1250000E+03  0.7546771E-02  0.1235069E+00
         21   -1    0    0  502  501  0.00000000000E+00  0.00000000000E+00  0.71992820497E+01  0.71992820497E+01  0.00000000000E+00 0.  1.
         21   -1    0    0  501  502 -0.00000000000E+00 -0.00000000000E+00 -0.54258882664E+03  0.54258882664E+03  0.00000000000E+00 0.  1.
         25    1    1    2    0    0  0.00000000000E+00  0.00000000000E+00 -0.53538954459E+03  0.54978810869E+03  0.12500000000E+03 0.  0.
<mgrwt>
<rscale>  0 0.12500000E+03</rscale>
<asrwt>0</asrwt>
<pdfrwt beam="1">  1       21 0.11075819E-02 0.12500000E+03</pdfrwt>
<pdfrwt beam="2">  1       21 0.83475204E-01 0.12500000E+03</pdfrwt>
<totfact> 0.39466547E+06</totfact>
</mgrwt>
</event>
<event>
 3    1  0.1620993E-001  0.1250000E+03  0.7546771E-02  0.1235069E+00
         21   -1    0    0  502  501  0.00000000000E+00  0.00000000000E+00  0.78317797262E+01  0.78317797262E+01  0.00000000000E+00 0. -1.
         21   -1    0    0  501  502 -0.00000000000E+00 -0.00000000000E+00 -0.49876913506E+03  0.49876913506E+03  0.00000000000E+00 0. -1.
         25    1    1    2    0    0  0.00000000000E+00  0.00000000000E+00 -0.49093735533E+03  0.50660091478E+03  0.12500000000E+03 0.  0.
<mgrwt>
<rscale>  0 0.12500000E+03</rscale>
<asrwt>0</asrwt>
<pdfrwt beam="1">  1       21 0.12048893E-02 0.12500000E+03</pdfrwt>
<pdfrwt beam="2">  1       21 0.76733708E-01 0.12500000E+03</pdfrwt>
<totfact> 0.41688337E+06</totfact>
</mgrwt>
</event>
<event>
 3    1  0.1620993E-001  0.1250000E+03  0.7546771E-02  0.1235069E+00
         21   -1    0    0  502  501  0.00000000000E+00  0.00000000000E+00  0.42149546478E+03  0.42149546478E+03  0.00000000000E+00 0. -1.
         21   -1    0    0  501  502 -0.00000000000E+00 -0.00000000000E+00 -0.92675967511E+01  0.92675967511E+01  0.00000000000E+00 0. -1.
         25    1    1    2    0    0  0.00000000000E+00  0.00000000000E+00  0.41222786803E+03  0.43076306153E+03  0.12500000000E+03 0.  0.
<mgrwt>
<rscale>  0 0.12500000E+03</rscale>
<asrwt>0</asrwt>
<pdfrwt beam="1">  1       21 0.64845442E-01 0.12500000E+03</pdfrwt>
<pdfrwt beam="2">  1       21 0.14257844E-02 0.12500000E+03</pdfrwt>
<totfact> 0.46065639E+06</totfact>
</mgrwt>
</event>
<event>
 3    1  0.1620993E-001  0.1250000E+03  0.7546771E-02  0.1235069E+00
         21   -1    0    0  502  501  0.00000000000E+00  0.00000000000E+00  0.16751823275E+03  0.16751823275E+03  0.00000000000E+00 0.  1.
         21   -1    0    0  501  502 -0.00000000000E+00 -0.00000000000E+00 -0.23318357267E+02  0.23318357267E+02  0.00000000000E+00 0.  1.
         25    1    1    2    0    0  0.00000000000E+00  0.00000000000E+00  0.14419987548E+03  0.19083659002E+03  0.12500000000E+03 0.  0.
<mgrwt>
<rscale>  0 0.12500000E+03</rscale>
<asrwt>0</asrwt>
<pdfrwt beam="1">  1       21 0.25772035E-01 0.12500000E+03</pdfrwt>
<pdfrwt beam="2">  1       21 0.35874397E-02 0.12500000E+03</pdfrwt>
<totfact> 0.65929606E+06</totfact>
</mgrwt>
</event>
<event>
 3    1  0.1620993E-001  0.1250000E+03  0.7546771E-02  0.1235069E+00
         21   -1    0    0  502  501  0.00000000000E+00  0.00000000000E+00  0.17935003083E+03  0.17935003083E+03  0.00000000000E+00 0.  1.
         21   -1    0    0  501  502 -0.00000000000E+00 -0.00000000000E+00 -0.21780035286E+02  0.21780035286E+02  0.00000000000E+00 0.  1.
         25    1    1    2    0    0  0.00000000000E+00  0.00000000000E+00  0.15756999554E+03  0.20113006611E+03  0.12500000000E+03 0.  0.
<mgrwt>
<rscale>  0 0.12500000E+03</rscale>
<asrwt>0</asrwt>
<pdfrwt beam="1">  1       21 0.27592312E-01 0.12500000E+03</pdfrwt>
<pdfrwt beam="2">  1       21 0.33507748E-02 0.12500000E+03</pdfrwt>
<totfact> 0.64805008E+06</totfact>
</mgrwt>
</event>
<event>
 3    1  0.1620993E-001  0.1250000E+03  0.7546771E-02  0.1235069E+00
         21   -1    0    0  502  501  0.00000000000E+00  0.00000000000E+00  0.49527438922E+03  0.49527438922E+03  0.00000000000E+00 0. -1.
         21   -1    0    0  501  502 -0.00000000000E+00 -0.00000000000E+00 -0.78870421831E+01  0.78870421831E+01  0.00000000000E+00 0. -1.
         25    1    1    2    0    0  0.00000000000E+00  0.00000000000E+00  0.48738734704E+03  0.50316143140E+03  0.12500000000E+03 0.  0.
<mgrwt>
<rscale>  0 0.12500000E+03</rscale>
<asrwt>0</asrwt>
<pdfrwt beam="1">  1       21 0.76196035E-01 0.12500000E+03</pdfrwt>
<pdfrwt beam="2">  1       21 0.12133915E-02 0.12500000E+03</pdfrwt>
<totfact> 0.41873145E+06</totfact>
</mgrwt>
</event>
<event>
 3    1  0.1620993E-001  0.1250000E+03  0.7546771E-02  0.1235069E+00
         21   -1    0    0  502  501  0.00000000000E+00  0.00000000000E+00  0.21066316059E+02  0.21066316059E+02  0.00000000000E+00 0. -1.
         21   -1    0    0  501  502 -0.00000000000E+00 -0.00000000000E+00 -0.18542634550E+03  0.18542634550E+03  0.00000000000E+00 0. -1.
         25    1    1    2    0    0  0.00000000000E+00  0.00000000000E+00 -0.16436002944E+03  0.20649266156E+03  0.12500000000E+03 0.  0.
<mgrwt>
<rscale>  0 0.12500000E+03</rscale>
<asrwt>0</asrwt>
<pdfrwt beam="1">  1       21 0.32409717E-02 0.12500000E+03</pdfrwt>
<pdfrwt beam="2">  1       21 0.28527130E-01 0.12500000E+03</pdfrwt>
<totfact> 0.64230447E+06</totfact>
</mgrwt>
</event>
<event>
 3    1  0.1620993E-001  0.1250000E+03  0.7546771E-02  0.1235069E+00
         21   -1    0    0  502  501  0.00000000000E+00  0.00000000000E+00  0.24694019633E+03  0.24694019633E+03  0.00000000000E+00 0. -1.
         21   -1    0    0  501  502 -0.00000000000E+00 -0.00000000000E+00 -0.15818607331E+02  0.15818607331E+02  0.00000000000E+00 0. -1.
         25    1    1    2    0    0  0.00000000000E+00  0.00000000000E+00  0.23112158900E+03  0.26275880366E+03  0.12500000000E+03 0.  0.
<mgrwt>
<rscale>  0 0.12500000E+03</rscale>
<asrwt>0</asrwt>
<pdfrwt beam="1">  1       21 0.37990797E-01 0.12500000E+03</pdfrwt>
<pdfrwt beam="2">  1       21 0.24336321E-02 0.12500000E+03</pdfrwt>
<totfact> 0.58697332E+06</totfact>
</mgrwt>
</event>
<event>
 3    1  0.1620993E-001  0.1250000E+03  0.7546771E-02  0.1235069E+00
         21   -1    0    0  502  501  0.00000000000E+00  0.00000000000E+00  0.30849052839E+03  0.30849052839E+03  0.00000000000E+00 0.  1.
         21   -1    0    0  501  502 -0.00000000000E+00 -0.00000000000E+00 -0.12662463319E+02  0.12662463319E+02  0.00000000000E+00 0.  1.
         25    1    1    2    0    0  0.00000000000E+00  0.00000000000E+00  0.29582806507E+03  0.32115299170E+03  0.12500000000E+03 0.  0.
<mgrwt>
<rscale>  0 0.12500000E+03</rscale>
<asrwt>0</asrwt>
<pdfrwt beam="1">  1       21 0.47460076E-01 0.12500000E+03</pdfrwt>
<pdfrwt beam="2">  1       21 0.19480715E-02 0.12500000E+03</pdfrwt>
<totfact> 0.53742103E+06</totfact>
</mgrwt>
</event>
<event>
 3    1  0.1620993E-001  0.1250000E+03  0.7546771E-02  0.1235069E+00
         21   -1    0    0  502  501  0.00000000000E+00  0.00000000000E+00  0.19413584967E+02  0.19413584967E+02  0.00000000000E+00 0. -1.
         21   -1    0    0  501  502 -0.00000000000E+00 -0.00000000000E+00 -0.20121219273E+03  0.20121219273E+03  0.00000000000E+00 0. -1.
         25    1    1    2    0    0  0.00000000000E+00  0.00000000000E+00 -0.18179860776E+03  0.22062577770E+03  0.12500000000E+03 0.  0.
<mgrwt>
<rscale>  0 0.12500000E+03</rscale>
<asrwt>0</asrwt>
<pdfrwt beam="1">  1       21 0.29867055E-02 0.12500000E+03</pdfrwt>
<pdfrwt beam="2">  1       21 0.30955720E-01 0.12500000E+03</pdfrwt>
<totfact> 0.62758631E+06</totfact>
</mgrwt>
</event>
<event>
 3    1  0.1620993E-001  0.1250000E+03  0.7546771E-02  0.1235069E+00
         21   -1    0    0  502  501  0.00000000000E+00  0.00000000000E+00  0.55400073658E+02  0.55400073658E+02  0.00000000000E+00 0. -1.
         21   -1    0    0  501  502 -0.00000000000E+00 -0.00000000000E+00 -0.70509834051E+02  0.70509834051E+02  0.00000000000E+00 0. -1.
         25    1    1    2    0    0  0.00000000000E+00  0.00000000000E+00 -0.15109760393E+02  0.12590990771E+03  0.12500000000E+03 0.  0.
<mgrwt>
<rscale>  0 0.12500000E+03</rscale>
<asrwt>0</asrwt>
<pdfrwt beam="1">  1       21 0.85230883E-02 0.12500000E+03</pdfrwt>
<pdfrwt beam="2">  1       21 0.10847667E-01 0.12500000E+03</pdfrwt>
<totfact> 0.73918472E+06</totfact>
</mgrwt>
</event>
<event>
 3    1  0.1620993E-001  0.1250000E+03  0.7546771E-02  0.1235069E+00
         21   -1    0    0  502  501  0.00000000000E+00  0.00000000000E+00  0.44820829028E+03  0.44820829028E+03  0.00000000000E+00 0.  1.
         21   -1    0    0  501  502 -0.00000000000E+00 -0.00000000000E+00 -0.87152560198E+01  0.87152560198E+01  0.00000000000E+00 0.  1.
         25    1    1    2    0    0  0.00000000000E+00  0.00000000000E+00  0.43949303426E+03  0.45692354630E+03  0.12500000000E+03 0.  0.
<mgrwt>
<rscale>  0 0.12500000E+03</rscale>
<asrwt>0</asrwt>
<pdfrwt beam="1">  1       21 0.68955104E-01 0.12500000E+03</pdfrwt>
<pdfrwt beam="2">  1       21 0.13408090E-02 0.12500000E+03</pdfrwt>
<totfact> 0.44480864E+06</totfact>
</mgrwt>
</event>
<event>
 3    1  0.1620993E-001  0.1250000E+03  0.7546771E-02  0.1235069E+00
         21   -1    0    0  502  501  0.00000000000E+00  0.00000000000E+00  0.15690020164E+04  0.15690020164E+04  0.00000000000E+00 0.  1.
         21   -1    0    0  501  502 -0.00000000000E+00 -0.00000000000E+00 -0.24896398852E+01  0.24896398852E+01  0.00000000000E+00 0.  1.
         25    1    1    2    0    0  0.00000000000E+00  0.00000000000E+00  0.15665123765E+04  0.15714916563E+04  0.12500000000E+03 0.  0.
<mgrwt>
<rscale>  0 0.12500000E+03</rscale>
<asrwt>0</asrwt>
<pdfrwt beam="1">  1       21 0.24138414E+00 0.12500000E+03</pdfrwt>
<pdfrwt beam="2">  1       21 0.38302277E-03 0.12500000E+03</pdfrwt>
<totfact> 0.12965557E+06</totfact>
</mgrwt>
</event>
<event>
 3    1  0.1620993E-001  0.1250000E+03  0.7546771E-02  0.1235069E+00
         21   -1    0    0  502  501  0.00000000000E+00  0.00000000000E+00  0.29469989935E+02  0.29469989935E+02  0.00000000000E+00 0.  1.
         21   -1    0    0  501  502 -0.00000000000E+00 -0.00000000000E+00 -0.13255009617E+03  0.13255009617E+03  0.00000000000E+00 0.  1.
         25    1    1    2    0    0  0.00000000000E+00  0.00000000000E+00 -0.10308010624E+03  0.16202008611E+03  0.12500000000E+03 0.  0.
<mgrwt>
<rscale>  0 0.12500000E+03</rscale>
<asrwt>0</asrwt>
<pdfrwt beam="1">  1       21 0.45338447E-02 0.12500000E+03</pdfrwt>
<pdfrwt beam="2">  1       21 0.20392322E-01 0.12500000E+03</pdfrwt>
<totfact> 0.69273502E+06</totfact>
</mgrwt>
</event>
<event>
 3    1  0.1620993E-001  0.1250000E+03  0.7546771E-02  0.1235069E+00
         21   -1    0    0  502  501  0.00000000000E+00  0.00000000000E+00  0.32832913617E+03  0.32832913617E+03  0.00000000000E+00 0. -1.
         21   -1    0    0  501  502 -0.00000000000E+00 -0.00000000000E+00 -0.11897360209E+02  0.11897360209E+02  0.00000000000E+00 0. -1.
         25    1    1    2    0    0  0.00000000000E+00  0.00000000000E+00  0.31643177596E+03  0.34022649637E+03  0.12500000000E+03 0.  0.
<mgrwt>
<rscale>  0 0.12500000E+03</rscale>
<asrwt>0</asrwt>
<pdfrwt beam="1">  1       21 0.50512168E-01 0.12500000E+03</pdfrwt>
<pdfrwt beam="2">  1       21 0.18303634E-02 0.12500000E+03</pdfrwt>
<totfact> 0.52268436E+06</totfact>
</mgrwt>
</event>
<event>
 3    1  0.1620993E-001  0.1250000E+03  0.7546771E-02  0.1235069E+00
         21   -1    0    0  502  501  0.00000000000E+00  0.00000000000E+00  0.35299969374E+01  0.35299969374E+01  0.00000000000E+00 0. -1.
         21   -1    0    0  501  502 -0.00000000000E+00 -0.00000000000E+00 -0.11065873623E+04  0.11065873623E+04  0.00000000000E+00 0. -1.
         25    1    1    2    0    0  0.00000000000E+00  0.00000000000E+00 -0.11030573654E+04  0.11101173593E+04  0.12500000000E+03 0.  0.
<mgrwt>
<rscale>  0 0.12500000E+03</rscale>
<asrwt>0</asrwt>
<pdfrwt beam="1">  1       21 0.54307604E-03 0.12500000E+03</pdfrwt>
<pdfrwt beam="2">  1       21 0.17024434E+00 0.12500000E+03</pdfrwt>
<totfact> 0.21027777E+06</totfact>
</mgrwt>
</event>
<event>
 3    1  0.1620993E-001  0.1250000E+03  0.7546771E-02  0.1235069E+00
         21   -1    0    0  502  501  0.00000000000E+00  0.00000000000E+00  0.13475423731E+02  0.13475423731E+02  0.00000000000E+00 0. -1.
         21   -1    0    0  501  502 -0.00000000000E+00 -0.00000000000E+00 -0.28987956727E+03  0.28987956727E+03  0.00000000000E+00 0. -1.
         25    1    1    2    0    0  0.00000000000E+00  0.00000000000E+00 -0.27640414354E+03  0.30335499100E+03  0.12500000000E+03 0.  0.
<mgrwt>
<rscale>  0 0.12500000E+03</rscale>
<asrwt>0</asrwt>
<pdfrwt beam="1">  1       21 0.20731424E-02 0.12500000E+03</pdfrwt>
<pdfrwt beam="2">  1       21 0.44596850E-01 0.12500000E+03</pdfrwt>
<totfact> 0.55178511E+06</totfact>
</mgrwt>
</event>
<event>
 3    1  0.1620993E-001  0.1250000E+03  0.7546771E-02  0.1235069E+00
         21   -1    0    0  502  501  0.00000000000E+00  0.00000000000E+00  0.25344030145E+02  0.25344030145E+02  0.00000000000E+00 0.  1.
         21   -1    0    0  501  502 -0.00000000000E+00 -0.00000000000E+00 -0.15412899912E+03  0.15412899912E+03  0.00000000000E+00 0.  1.
         25    1    1    2    0    0  0.00000000000E+00  0.00000000000E+00 -0.12878496898E+03  0.17947302927E+03  0.12500000000E+03 0.  0.
<mgrwt>
<rscale>  0 0.12500000E+03</rscale>
<asrwt>0</asrwt>
<pdfrwt beam="1">  1       21 0.38990817E-02 0.12500000E+03</pdfrwt>
<pdfrwt beam="2">  1       21 0.23712153E-01 0.12500000E+03</pdfrwt>
<totfact> 0.67212041E+06</totfact>
</mgrwt>
</event>
<event>
 3    1  0.1620993E-001  0.1250000E+03  0.7546771E-02  0.1235069E+00
         21   -1    0    0  502  501  0.00000000000E+00  0.00000000000E+00  0.90847706755E+02  0.90847706755E+02  0.00000000000E+00 0.  1.
         21   -1    0    0  501  502 -0.00000000000E+00 -0.00000000000E+00 -0.42997783208E+02  0.42997783208E+02  0.00000000000E+00 0.  1.
         25    1    1    2    0    0  0.00000000000E+00  0.00000000000E+00  0.47849923547E+02  0.13384548996E+03  0.12500000000E+03 0.  0.
<mgrwt>
<rscale>  0 0.12500000E+03</rscale>
<asrwt>0</asrwt>
<pdfrwt beam="1">  1       21 0.13976570E-01 0.12500000E+03</pdfrwt>
<pdfrwt beam="2">  1       21 0.66150436E-02 0.12500000E+03</pdfrwt>
<totfact> 0.72849704E+06</totfact>
</mgrwt>
</event>
<event>
 3    1  0.1620993E-001  0.1250000E+03  0.7546771E-02  0.1235069E+00
         21   -1    0    0  502  501  0.00000000000E+00  0.00000000000E+00  0.39724383967E+03  0.39724383967E+03  0.00000000000E+00 0. -1.
         21   -1    0    0  501  502 -0.00000000000E+00 -0.00000000000E+00 -0.98333809361E+01  0.98333809361E+01  0.00000000000E+00 0. -1.
         25    1    1    2    0    0  0.00000000000E+00  0.00000000000E+00  0.38741045874E+03  0.40707722061E+03  0.12500000000E+03 0.  0.
<mgrwt>
<rscale>  0 0.12500000E+03</rscale>
<asrwt>0</asrwt>
<pdfrwt beam="1">  1       21 0.61114425E-01 0.12500000E+03</pdfrwt>
<pdfrwt beam="2">  1       21 0.15128281E-02 0.12500000E+03</pdfrwt>
<totfact> 0.47575447E+06</totfact>
</mgrwt>
</event>
<event>
 3    1  0.1620993E-001  0.1250000E+03  0.7546771E-02  0.1235069E+00
         21   -1    0    0  502  501  0.00000000000E+00  0.00000000000E+00  0.34949653508E+02  0.34949653508E+02  0.00000000000E+00 0.  1.
         21   -1    0    0  501  502 -0.00000000000E+00 -0.00000000000E+00 -0.11176791779E+03  0.11176791779E+03  0.00000000000E+00 0.  1.
         25    1    1    2    0    0  0.00000000000E+00  0.00000000000E+00 -0.76818264282E+02  0.14671757130E+03  0.12500000000E+03 0.  0.
<mgrwt>
<rscale>  0 0.12500000E+03</rscale>
<asrwt>0</asrwt>
<pdfrwt beam="1">  1       21 0.53768698E-02 0.12500000E+03</pdfrwt>
<pdfrwt beam="2">  1       21 0.17195064E-01 0.12500000E+03</pdfrwt>
<totfact> 0.71174011E+06</totfact>
</mgrwt>
</event>
<event>
 3    1  0.1620993E-001  0.1250000E+03  0.7546771E-02  0.1235069E+00
         21   -1    0    0  502  501  0.00000000000E+00  0.00000000000E+00  0.18787958962E+04  0.18787958962E+04  0.00000000000E+00 0.  1.
         21   -1    0    0  501  502 -0.00000000000E+00 -0.00000000000E+00 -0.20791241921E+01  0.20791241921E+01  0.00000000000E+00 0.  1.
         25    1    1    2    0    0  0.00000000000E+00  0.00000000000E+00  0.18767167721E+04  0.18808750204E+04  0.12500000000E+03 0.  0.
<mgrwt>
<rscale>  0 0.12500000E+03</rscale>
<asrwt>0</asrwt>
<pdfrwt beam="1">  1       21 0.28904416E+00 0.12500000E+03</pdfrwt>
<pdfrwt beam="2">  1       21 0.31986676E-03 0.12500000E+03</pdfrwt>
<totfact> 0.91694906E+05</totfact>
</mgrwt>
</event>
<event>
 3    1  0.1620993E-001  0.1250000E+03  0.7546771E-02  0.1235069E+00
         21   -1    0    0  502  501  0.00000000000E+00  0.00000000000E+00  0.97571159532E+02  0.97571159532E+02  0.00000000000E+00 0. -1.
         21   -1    0    0  501  502 -0.00000000000E+00 -0.00000000000E+00 -0.40034883451E+02  0.40034883451E+02  0.00000000000E+00 0. -1.
         25    1    1    2    0    0  0.00000000000E+00  0.00000000000E+00  0.57536276081E+02  0.13760604298E+03  0.12500000000E+03 0.  0.
<mgrwt>
<rscale>  0 0.12500000E+03</rscale>
<asrwt>0</asrwt>
<pdfrwt beam="1">  1       21 0.15010948E-01 0.12500000E+03</pdfrwt>
<pdfrwt beam="2">  1       21 0.61592129E-02 0.12500000E+03</pdfrwt>
<totfact> 0.72353218E+06</totfact>
</mgrwt>
</event>
<event>
 3    1  0.1620993E-001  0.1250000E+03  0.7546771E-02  0.1235069E+00
         21   -1    0    0  502  501  0.00000000000E+00  0.00000000000E+00  0.23909120925E+03  0.23909120925E+03  0.00000000000E+00 0. -1.
         21   -1    0    0  501  502 -0.00000000000E+00 -0.00000000000E+00 -0.16337907246E+02  0.16337907246E+02  0.00000000000E+00 0. -1.
         25    1    1    2    0    0  0.00000000000E+00  0.00000000000E+00  0.22275330200E+03  0.25542911649E+03  0.12500000000E+03 0.  0.
<mgrwt>
<rscale>  0 0.12500000E+03</rscale>
<asrwt>0</asrwt>
<pdfrwt beam="1">  1       21 0.36783260E-01 0.12500000E+03</pdfrwt>
<pdfrwt beam="2">  1       21 0.25135244E-02 0.12500000E+03</pdfrwt>
<totfact> 0.59370780E+06</totfact>
</mgrwt>
</event>
<event>
 3    1  0.1620993E-001  0.1250000E+03  0.7546771E-02  0.1235069E+00
         21   -1    0    0  502  501  0.00000000000E+00  0.00000000000E+00  0.60636381429E+01  0.60636381429E+01  0.00000000000E+00 0.  1.
         21   -1    0    0  501  502 -0.00000000000E+00 -0.00000000000E+00 -0.64420895640E+03  0.64420895640E+03  0.00000000000E+00 0.  1.
         25    1    1    2    0    0  0.00000000000E+00  0.00000000000E+00 -0.63814531826E+03  0.65027259454E+03  0.12500000000E+03 0.  0.
<mgrwt>
<rscale>  0 0.12500000E+03</rscale>
<asrwt>0</asrwt>
<pdfrwt beam="1">  1       21 0.93286812E-03 0.12500000E+03</pdfrwt>
<pdfrwt beam="2">  1       21 0.99108994E-01 0.12500000E+03</pdfrwt>
<totfact> 0.34913218E+06</totfact>
</mgrwt>
</event>
<event>
 3    1  0.1620993E-001  0.1250000E+03  0.7546771E-02  0.1235069E+00
         21   -1    0    0  502  501  0.00000000000E+00  0.00000000000E+00  0.84853052140E+02  0.84853052140E+02  0.00000000000E+00 0.  1.
         21   -1    0    0  501  502 -0.00000000000E+00 -0.00000000000E+00 -0.46035468395E+02  0.46035468395E+02  0.00000000000E+00 0.  1.
         25    1    1    2    0    0  0.00000000000E+00  0.00000000000E+00  0.38817583746E+02  0.13088852054E+03  0.12500000000E+03 0.  0.
<mgrwt>
<rscale>  0 0.12500000E+03</rscale>
<asrwt>0</asrwt>
<pdfrwt beam="1">  1       21 0.13054316E-01 0.12500000E+03</pdfrwt>
<pdfrwt beam="2">  1       21 0.70823798E-02 0.12500000E+03</pdfrwt>
<totfact> 0.73245698E+06</totfact>
</mgrwt>
</event>
<event>
 3    1  0.1620993E-001  0.1250000E+03  0.7546771E-02  0.1235069E+00
         21   -1    0    0  502  501  0.00000000000E+00  0.00000000000E+00  0.66643026987E+01  0.66643026987E+01  0.00000000000E+00 0. -1.
         21   -1    0    0  501  502 -0.00000000000E+00 -0.00000000000E+00 -0.58614534433E+03  0.58614534433E+03  0.00000000000E+00 0. -1.
         25    1    1    2    0    0  0.00000000000E+00  0.00000000000E+00 -0.57948104163E+03  0.59280964703E+03  0.12500000000E+03 0.  0.
<mgrwt>
<rscale>  0 0.12500000E+03</rscale>
<asrwt>0</asrwt>
<pdfrwt beam="1">  1       21 0.10252772E-02 0.12500000E+03</pdfrwt>
<pdfrwt beam="2">  1       21 0.90176215E-01 0.12500000E+03</pdfrwt>
<totfact> 0.37419834E+06</totfact>
</mgrwt>
</event>
<event>
 3    1  0.1620993E-001  0.1250000E+03  0.7546771E-02  0.1235069E+00
         21   -1    0    0  502  501  0.00000000000E+00  0.00000000000E+00  0.38160147617E+01  0.38160147617E+01  0.00000000000E+00 0. -1.
         21   -1    0    0  501  502 -0.00000000000E+00 -0.00000000000E+00 -0.10236464594E+04  0.10236464594E+04  0.00000000000E+00 0. -1.
         25    1    1    2    0    0  0.00000000000E+00  0.00000000000E+00 -0.10198304447E+04  0.10274624742E+04  0.12500000000E+03 0.  0.
<mgrwt>
<rscale>  0 0.12500000E+03</rscale>
<asrwt>0</asrwt>
<pdfrwt beam="1">  1       21 0.58707883E-03 0.12500000E+03</pdfrwt>
<pdfrwt beam="2">  1       21 0.15748417E+00 0.12500000E+03</pdfrwt>
<totfact> 0.22940633E+06</totfact>
</mgrwt>
</event>
<event>
 3    1  0.1620993E-001  0.1250000E+03  0.7546771E-02  0.1235069E+00
         21   -1    0    0  502  501  0.00000000000E+00  0.00000000000E+00  0.10283398989E+02  0.10283398989E+02  0.00000000000E+00 0. -1.
         21   -1    0    0  501  502 -0.00000000000E+00 -0.00000000000E+00 -0.37985981136E+03  0.37985981136E+03  0.00000000000E+00 0. -1.
         25    1    1    2    0    0  0.00000000000E+00  0.00000000000E+00 -0.36957641237E+03  0.39014321035E+03  0.12500000000E+03 0.  0.
<mgrwt>
<rscale>  0 0.12500000E+03</rscale>
<asrwt>0</asrwt>
<pdfrwt beam="1">  1       21 0.15820613E-02 0.12500000E+03</pdfrwt>
<pdfrwt beam="2">  1       21 0.58439975E-01 0.12500000E+03</pdfrwt>
<totfact> 0.48702085E+06</totfact>
</mgrwt>
</event>
<event>
 3    1  0.1620993E-001  0.1250000E+03  0.7546771E-02  0.1235069E+00
         21   -1    0    0  502  501  0.00000000000E+00  0.00000000000E+00  0.63530210341E+02  0.63530210341E+02  0.00000000000E+00 0. -1.
         21   -1    0    0  501  502 -0.00000000000E+00 -0.00000000000E+00 -0.61486495622E+02  0.61486495622E+02  0.00000000000E+00 0. -1.
         25    1    1    2    0    0  0.00000000000E+00  0.00000000000E+00  0.20437147187E+01  0.12501670596E+03  0.12500000000E+03 0.  0.
<mgrwt>
<rscale>  0 0.12500000E+03</rscale>
<asrwt>0</asrwt>
<pdfrwt beam="1">  1       21 0.97738785E-02 0.12500000E+03</pdfrwt>
<pdfrwt beam="2">  1       21 0.94594608E-02 0.12500000E+03</pdfrwt>
<totfact> 0.74041325E+06</totfact>
</mgrwt>
</event>
<event>
 3    1  0.1620993E-001  0.1250000E+03  0.7546771E-02  0.1235069E+00
         21   -1    0    0  502  501  0.00000000000E+00  0.00000000000E+00  0.31769490938E+03  0.31769490938E+03  0.00000000000E+00 0.  1.
         21   -1    0    0  501  502 -0.00000000000E+00 -0.00000000000E+00 -0.12295601487E+02  0.12295601487E+02  0.00000000000E+00 0.  1.
         25    1    1    2    0    0  0.00000000000E+00  0.00000000000E+00  0.30539930789E+03  0.32999051086E+03  0.12500000000E+03 0.  0.
<mgrwt>
<rscale>  0 0.12500000E+03</rscale>
<asrwt>0</asrwt>
<pdfrwt beam="1">  1       21 0.48876134E-01 0.12500000E+03</pdfrwt>
<pdfrwt beam="2">  1       21 0.18916312E-02 0.12500000E+03</pdfrwt>
<totfact> 0.53051025E+06</totfact>
</mgrwt>
</event>
<event>
 3    1  0.1620993E-001  0.1250000E+03  0.7546771E-02  0.1235069E+00
         21   -1    0    0  502  501  0.00000000000E+00  0.00000000000E+00  0.34561022837E+03  0.34561022837E+03  0.00000000000E+00 0.  1.
         21   -1    0    0  501  502 -0.00000000000E+00 -0.00000000000E+00 -0.11302472205E+02  0.11302472205E+02  0.00000000000E+00 0.  1.
         25    1    1    2    0    0  0.00000000000E+00  0.00000000000E+00  0.33430775617E+03  0.35691270058E+03  0.12500000000E+03 0.  0.
<mgrwt>
<rscale>  0 0.12500000E+03</rscale>
<asrwt>0</asrwt>
<pdfrwt beam="1">  1       21 0.53170796E-01 0.12500000E+03</pdfrwt>
<pdfrwt beam="2">  1       21 0.17388421E-02 0.12500000E+03</pdfrwt>
<totfact> 0.51031931E+06</totfact>
</mgrwt>
</event>
<event>
 3    1  0.1620993E-001  0.1250000E+03  0.7546771E-02  0.1235069E+00
         21   -1    0    0  502  501  0.00000000000E+00  0.00000000000E+00  0.65452068658E+01  0.65452068658E+01  0.00000000000E+00 0.  1.
         21   -1    0    0  501  502 -0.00000000000E+00 -0.00000000000E+00 -0.59681077773E+03  0.59681077773E+03  0.00000000000E+00 0.  1.
         25    1    1    2    0    0  0.00000000000E+00  0.00000000000E+00 -0.59026557087E+03  0.60335598460E+03  0.12500000000E+03 0.  0.
<mgrwt>
<rscale>  0 0.12500000E+03</rscale>
<asrwt>0</asrwt>
<pdfrwt beam="1">  1       21 0.10069547E-02 0.12500000E+03</pdfrwt>
<pdfrwt beam="2">  1       21 0.91817063E-01 0.12500000E+03</pdfrwt>
<totfact> 0.36941293E+06</totfact>
</mgrwt>
</event>
<event>
 3    1  0.1620993E-001  0.1250000E+03  0.7546771E-02  0.1235069E+00
         21   -1    0    0  502  501  0.00000000000E+00  0.00000000000E+00  0.96696867885E+02  0.96696867885E+02  0.00000000000E+00 0. -1.
         21   -1    0    0  501  502 -0.00000000000E+00 -0.00000000000E+00 -0.40396861712E+02  0.40396861712E+02  0.00000000000E+00 0. -1.
         25    1    1    2    0    0  0.00000000000E+00  0.00000000000E+00  0.56300006173E+02  0.13709372960E+03  0.12500000000E+03 0.  0.
<mgrwt>
<rscale>  0 0.12500000E+03</rscale>
<asrwt>0</asrwt>
<pdfrwt beam="1">  1       21 0.14876441E-01 0.12500000E+03</pdfrwt>
<pdfrwt beam="2">  1       21 0.62149018E-02 0.12500000E+03</pdfrwt>
<totfact> 0.72420418E+06</totfact>
</mgrwt>
</event>
<event>
 3    1  0.1620993E-001  0.1250000E+03  0.7546771E-02  0.1235069E+00
         21   -1    0    0  502  501  0.00000000000E+00  0.00000000000E+00  0.19764042424E+03  0.19764042424E+03  0.00000000000E+00 0.  1.
         21   -1    0    0  501  502 -0.00000000000E+00 -0.00000000000E+00 -0.19764428330E+02  0.19764428330E+02  0.00000000000E+00 0.  1.
         25    1    1    2    0    0  0.00000000000E+00  0.00000000000E+00  0.17787599591E+03  0.21740485257E+03  0.12500000000E+03 0.  0.
<mgrwt>
<rscale>  0 0.12500000E+03</rscale>
<asrwt>0</asrwt>
<pdfrwt beam="1">  1       21 0.30406218E-01 0.12500000E+03</pdfrwt>
<pdfrwt beam="2">  1       21 0.30406814E-02 0.12500000E+03</pdfrwt>
<totfact> 0.63088784E+06</totfact>
</mgrwt>
</event>
<event>
 3    1  0.1620993E-001  0.1250000E+03  0.7546771E-02  0.1235069E+00
         21   -1    0    0  502  501  0.00000000000E+00  0.00000000000E+00  0.12494152983E+04  0.12494152983E+04  0.00000000000E+00 0. -1.
         21   -1    0    0  501  502 -0.00000000000E+00 -0.00000000000E+00 -0.31264624384E+01  0.31264624384E+01  0.00000000000E+00 0. -1.
         25    1    1    2    0    0  0.00000000000E+00  0.00000000000E+00  0.12462888358E+04  0.12525417607E+04  0.12500000000E+03 0.  0.
<mgrwt>
<rscale>  0 0.12500000E+03</rscale>
<asrwt>0</asrwt>
<pdfrwt beam="1">  1       21 0.19221734E+00 0.12500000E+03</pdfrwt>
<pdfrwt beam="2">  1       21 0.48099522E-03 0.12500000E+03</pdfrwt>
<totfact> 0.18126559E+06</totfact>
</mgrwt>
</event>
<event>
 3    1  0.1620993E-001  0.1250000E+03  0.7546771E-02  0.1235069E+00
         21   -1    0    0  502  501  0.00000000000E+00  0.00000000000E+00  0.23038385804E+03  0.23038385804E+03  0.00000000000E+00 0. -1.
         21   -1    0    0  501  502 -0.00000000000E+00 -0.00000000000E+00 -0.16955397974E+02  0.16955397974E+02  0.00000000000E+00 0. -1.
         25    1    1    2    0    0  0.00000000000E+00  0.00000000000E+00  0.21342846007E+03  0.24733925602E+03  0.12500000000E+03 0.  0.
<mgrwt>
<rscale>  0 0.12500000E+03</rscale>
<asrwt>0</asrwt>
<pdfrwt beam="1">  1       21 0.35443668E-01 0.12500000E+03</pdfrwt>
<pdfrwt beam="2">  1       21 0.26085229E-02 0.12500000E+03</pdfrwt>
<totfact> 0.60129603E+06</totfact>
</mgrwt>
</event>
<event>
 3    1  0.1620993E-001  0.1250000E+03  0.7546771E-02  0.1235069E+00
         21   -1    0    0  502  501  0.00000000000E+00  0.00000000000E+00  0.41546462554E+03  0.41546462554E+03  0.00000000000E+00 0.  1.
         21   -1    0    0  501  502 -0.00000000000E+00 -0.00000000000E+00 -0.94021241758E+01  0.94021241758E+01  0.00000000000E+00 0.  1.
         25    1    1    2    0    0  0.00000000000E+00  0.00000000000E+00  0.40606250137E+03  0.42486674972E+03  0.12500000000E+03 0.  0.
<mgrwt>
<rscale>  0 0.12500000E+03</rscale>
<asrwt>0</asrwt>
<pdfrwt beam="1">  1       21 0.63917621E-01 0.12500000E+03</pdfrwt>
<pdfrwt beam="2">  1       21 0.14464810E-02 0.12500000E+03</pdfrwt>
<totfact> 0.46434554E+06</totfact>
</mgrwt>
</event>
<event>
 3    1  0.1620993E-001  0.1250000E+03  0.7546771E-02  0.1235069E+00
         21   -1    0    0  502  501  0.00000000000E+00  0.00000000000E+00  0.50186019516E+03  0.50186019516E+03  0.00000000000E+00 0.  1.
         21   -1    0    0  501  502 -0.00000000000E+00 -0.00000000000E+00 -0.77835421849E+01  0.77835421849E+01  0.00000000000E+00 0.  1.
         25    1    1    2    0    0  0.00000000000E+00  0.00000000000E+00  0.49407665298E+03  0.50964373735E+03  0.12500000000E+03 0.  0.
<mgrwt>
<rscale>  0 0.12500000E+03</rscale>
<asrwt>0</asrwt>
<pdfrwt beam="1">  1       21 0.77209235E-01 0.12500000E+03</pdfrwt>
<pdfrwt beam="2">  1       21 0.11974684E-02 0.12500000E+03</pdfrwt>
<totfact> 0.41525861E+06</totfact>
</mgrwt>
</event>
<event>
 3    1  0.1620993E-001  0.1250000E+03  0.7546771E-02  0.1235069E+00
         21   -1    0    0  502  501  0.00000000000E+00  0.00000000000E+00  0.72283805671E+03  0.72283805671E+03  0.00000000000E+00 0. -1.
         21   -1    0    0  501  502 -0.00000000000E+00 -0.00000000000E+00 -0.54040458492E+01  0.54040458492E+01  0.00000000000E+00 0. -1.
         25    1    1    2    0    0  0.00000000000E+00  0.00000000000E+00  0.71743401086E+03  0.72824210256E+03  0.12500000000E+03 0.  0.
<mgrwt>
<rscale>  0 0.12500000E+03</rscale>
<asrwt>0</asrwt>
<pdfrwt beam="1">  1       21 0.11120578E+00 0.12500000E+03</pdfrwt>
<pdfrwt beam="2">  1       21 0.83139224E-03 0.12500000E+03</pdfrwt>
<totfact> 0.31849347E+06</totfact>
</mgrwt>
</event>
<event>
 3    1  0.1620993E-001  0.1250000E+03  0.7546771E-02  0.1235069E+00
         21   -1    0    0  502  501  0.00000000000E+00  0.00000000000E+00  0.34514918812E+03  0.34514918812E+03  0.00000000000E+00 0. -1.
         21   -1    0    0  501  502 -0.00000000000E+00 -0.00000000000E+00 -0.11317569719E+02  0.11317569719E+02  0.00000000000E+00 0. -1.
         25    1    1    2    0    0  0.00000000000E+00  0.00000000000E+00  0.33383161840E+03  0.35646675784E+03  0.12500000000E+03 0.  0.
<mgrwt>
<rscale>  0 0.12500000E+03</rscale>
<asrwt>0</asrwt>
<pdfrwt beam="1">  1       21 0.53099867E-01 0.12500000E+03</pdfrwt>
<pdfrwt beam="2">  1       21 0.17411648E-02 0.12500000E+03</pdfrwt>
<totfact> 0.51064365E+06</totfact>
</mgrwt>
</event>
<event>
 3    1  0.1620993E-001  0.1250000E+03  0.7546771E-02  0.1235069E+00
         21   -1    0    0  502  501  0.00000000000E+00  0.00000000000E+00  0.53466411109E+01  0.53466411109E+01  0.00000000000E+00 0.  1.
         21   -1    0    0  501  502 -0.00000000000E+00 -0.00000000000E+00 -0.73059887861E+03  0.73059887861E+03  0.00000000000E+00 0.  1.
         25    1    1    2    0    0  0.00000000000E+00  0.00000000000E+00 -0.72525223750E+03  0.73594551973E+03  0.12500000000E+03 0.  0.
<mgrwt>
<rscale>  0 0.12500000E+03</rscale>
<asrwt>0</asrwt>
<pdfrwt beam="1">  1       21 0.82256004E-03 0.12500000E+03</pdfrwt>
<pdfrwt beam="2">  1       21 0.11239985E+00 0.12500000E+03</pdfrwt>
<totfact> 0.31569459E+06</totfact>
</mgrwt>
</event>
<event>
 3    1  0.1620993E-001  0.1250000E+03  0.7546771E-02  0.1235069E+00
         21   -1    0    0  502  501  0.00000000000E+00  0.00000000000E+00  0.56203159387E+02  0.56203159387E+02  0.00000000000E+00 0.  1.
         21   -1    0    0  501  502 -0.00000000000E+00 -0.00000000000E+00 -0.69502320557E+02  0.69502320557E+02  0.00000000000E+00 0.  1.
         25    1    1    2    0    0  0.00000000000E+00  0.00000000000E+00 -0.13299161171E+02  0.12570547994E+03  0.12500000000E+03 0.  0.
<mgrwt>
<rscale>  0 0.12500000E+03</rscale>
<asrwt>0</asrwt>
<pdfrwt beam="1">  1       21 0.86466400E-02 0.12500000E+03</pdfrwt>
<pdfrwt beam="2">  1       21 0.10692665E-01 0.12500000E+03</pdfrwt>
<totfact> 0.73946776E+06</totfact>
</mgrwt>
</event>
<event>
 3    1  0.1620993E-001  0.1250000E+03  0.7546771E-02  0.1235069E+00
         21   -1    0    0  502  501  0.00000000000E+00  0.00000000000E+00  0.21291001559E+02  0.21291001559E+02  0.00000000000E+00 0.  1.
         21   -1    0    0  501  502 -0.00000000000E+00 -0.00000000000E+00 -0.18346952768E+03  0.18346952768E+03  0.00000000000E+00 0.  1.
         25    1    1    2    0    0  0.00000000000E+00  0.00000000000E+00 -0.16217852612E+03  0.20476052924E+03  0.12500000000E+03 0.  0.
<mgrwt>
<rscale>  0 0.12500000E+03</rscale>
<asrwt>0</asrwt>
<pdfrwt beam="1">  1       21 0.32755387E-02 0.12500000E+03</pdfrwt>
<pdfrwt beam="2">  1       21 0.28226081E-01 0.12500000E+03</pdfrwt>
<totfact> 0.64415039E+06</totfact>
</mgrwt>
</event>
<event>
 3    1  0.1620993E-001  0.1250000E+03  0.7546771E-02  0.1235069E+00
         21   -1    0    0  502  501  0.00000000000E+00  0.00000000000E+00  0.26036359602E+02  0.26036359602E+02  0.00000000000E+00 0.  1.
         21   -1    0    0  501  502 -0.00000000000E+00 -0.00000000000E+00 -0.15003057492E+03  0.15003057492E+03  0.00000000000E+00 0.  1.
         25    1    1    2    0    0  0.00000000000E+00  0.00000000000E+00 -0.12399421532E+03  0.17606693452E+03  0.12500000000E+03 0.  0.
<mgrwt>
<rscale>  0 0.12500000E+03</rscale>
<asrwt>0</asrwt>
<pdfrwt beam="1">  1       21 0.40055938E-02 0.12500000E+03</pdfrwt>
<pdfrwt beam="2">  1       21 0.23081627E-01 0.12500000E+03</pdfrwt>
<totfact> 0.67605615E+06</totfact>
</mgrwt>
</event>
<event>
 3    1  0.1620993E-001  0.1250000E+03  0.7546771E-02  0.1235069E+00
         21   -1    0    0  502  501  0.00000000000E+00  0.00000000000E+00  0.14758269944E+02  0.14758269944E+02  0.00000000000E+00 0.  1.
         21   -1    0    0  501  502 -0.00000000000E+00 -0.00000000000E+00 -0.26468210806E+03  0.26468210806E+03  0.00000000000E+00 0.  1.
         25    1    1    2    0    0  0.00000000000E+00  0.00000000000E+00 -0.24992383811E+03  0.27944037800E+03  0.12500000000E+03 0.  0.
<mgrwt>
<rscale>  0 0.12500000E+03</rscale>
<asrwt>0</asrwt>
<pdfrwt beam="1">  1       21 0.22705033E-02 0.12500000E+03</pdfrwt>
<pdfrwt beam="2">  1       21 0.40720321E-01 0.12500000E+03</pdfrwt>
<totfact> 0.57209244E+06</totfact>
</mgrwt>
</event>
<event>
 3    1  0.1620993E-001  0.1250000E+03  0.7546771E-02  0.1235069E+00
         21   -1    0    0  502  501  0.00000000000E+00  0.00000000000E+00  0.44183642520E+02  0.44183642520E+02  0.00000000000E+00 0. -1.
         21   -1    0    0  501  502 -0.00000000000E+00 -0.00000000000E+00 -0.88409415276E+02  0.88409415276E+02  0.00000000000E+00 0. -1.
         25    1    1    2    0    0  0.00000000000E+00  0.00000000000E+00 -0.44225772756E+02  0.13259305780E+03  0.12500000000E+03 0.  0.
<mgrwt>
<rscale>  0 0.12500000E+03</rscale>
<asrwt>0</asrwt>
<pdfrwt beam="1">  1       21 0.67974834E-02 0.12500000E+03</pdfrwt>
<pdfrwt beam="2">  1       21 0.13601449E-01 0.12500000E+03</pdfrwt>
<totfact> 0.73016787E+06</totfact>
</mgrwt>
</event>
<event>
 3    1  0.1620993E-001  0.1250000E+03  0.7546771E-02  0.1235069E+00
         21   -1    0    0  502  501  0.00000000000E+00  0.00000000000E+00  0.22361154695E+02  0.22361154695E+02  0.00000000000E+00 0. -1.
         21   -1    0    0  501  502 -0.00000000000E+00 -0.00000000000E+00 -0.17468910051E+03  0.17468910051E+03  0.00000000000E+00 0. -1.
         25    1    1    2    0    0  0.00000000000E+00  0.00000000000E+00 -0.15232794582E+03  0.19705025520E+03  0.12500000000E+03 0.  0.
<mgrwt>
<rscale>  0 0.12500000E+03</rscale>
<asrwt>0</asrwt>
<pdfrwt beam="1">  1       21 0.34401774E-02 0.12500000E+03</pdfrwt>
<pdfrwt beam="2">  1       21 0.26875248E-01 0.12500000E+03</pdfrwt>
<totfact> 0.65247323E+06</totfact>
</mgrwt>
</event>
<event>
 3    1  0.1620993E-001  0.1250000E+03  0.7546771E-02  0.1235069E+00
         21   -1    0    0  502  501  0.00000000000E+00  0.00000000000E+00  0.17979414930E+02  0.17979414930E+02  0.00000000000E+00 0.  1.
         21   -1    0    0  501  502 -0.00000000000E+00 -0.00000000000E+00 -0.21726235338E+03  0.21726235338E+03  0.00000000000E+00 0.  1.
         25    1    1    2    0    0  0.00000000000E+00  0.00000000000E+00 -0.19928293845E+03  0.23524176831E+03  0.12500000000E+03 0.  0.
<mgrwt>
<rscale>  0 0.12500000E+03</rscale>
<asrwt>0</asrwt>
<pdfrwt beam="1">  1       21 0.27660639E-02 0.12500000E+03</pdfrwt>
<pdfrwt beam="2">  1       21 0.33424977E-01 0.12500000E+03</pdfrwt>
<totfact> 0.61296169E+06</totfact>
</mgrwt>
</event>
<event>
 3    1  0.1620993E-001  0.1250000E+03  0.7546771E-02  0.1235069E+00
         21   -1    0    0  502  501  0.00000000000E+00  0.00000000000E+00  0.15087260232E+03  0.15087260232E+03  0.00000000000E+00 0.  1.
         21   -1    0    0  501  502 -0.00000000000E+00 -0.00000000000E+00 -0.25891049401E+02  0.25891049401E+02  0.00000000000E+00 0.  1.
         25    1    1    2    0    0  0.00000000000E+00  0.00000000000E+00  0.12498155292E+03  0.17676365172E+03  0.12500000000E+03 0.  0.
<mgrwt>
<rscale>  0 0.12500000E+03</rscale>
<asrwt>0</asrwt>
<pdfrwt beam="1">  1       21 0.23211169E-01 0.12500000E+03</pdfrwt>
<pdfrwt beam="2">  1       21 0.39832385E-02 0.12500000E+03</pdfrwt>
<totfact> 0.67524753E+06</totfact>
</mgrwt>
</event>
<event>
 3    1  0.1620993E-001  0.1250000E+03  0.7546771E-02  0.1235069E+00
         21   -1    0    0  502  501  0.00000000000E+00  0.00000000000E+00  0.12268155057E+04  0.12268155057E+04  0.00000000000E+00 0. -1.
         21   -1    0    0  501  502 -0.00000000000E+00 -0.00000000000E+00 -0.31840565936E+01  0.31840565936E+01  0.00000000000E+00 0. -1.
         25    1    1    2    0    0  0.00000000000E+00  0.00000000000E+00  0.12236314491E+04  0.12299995623E+04  0.12500000000E+03 0.  0.
<mgrwt>
<rscale>  0 0.12500000E+03</rscale>
<asrwt>0</asrwt>
<pdfrwt beam="1">  1       21 0.18874047E+00 0.12500000E+03</pdfrwt>
<pdfrwt beam="2">  1       21 0.48985584E-03 0.12500000E+03</pdfrwt>
<totfact> 0.18555667E+06</totfact>
</mgrwt>
</event>
<event>
 3    1  0.1620993E-001  0.1250000E+03  0.7546771E-02  0.1235069E+00
         21   -1    0    0  502  501  0.00000000000E+00  0.00000000000E+00  0.90002361929E+02  0.90002361929E+02  0.00000000000E+00 0. -1.
         21   -1    0    0  501  502 -0.00000000000E+00 -0.00000000000E+00 -0.43401638760E+02  0.43401638760E+02  0.00000000000E+00 0. -1.
         25    1    1    2    0    0  0.00000000000E+00  0.00000000000E+00  0.46600723169E+02  0.13340400069E+03  0.12500000000E+03 0.  0.
<mgrwt>
<rscale>  0 0.12500000E+03</rscale>
<asrwt>0</asrwt>
<pdfrwt beam="1">  1       21 0.13846517E-01 0.12500000E+03</pdfrwt>
<pdfrwt beam="2">  1       21 0.66771752E-02 0.12500000E+03</pdfrwt>
<totfact> 0.72908498E+06</totfact>
</mgrwt>
</event>
<event>
 3    1  0.1620993E-001  0.1250000E+03  0.7546771E-02  0.1235069E+00
         21   -1    0    0  502  501  0.00000000000E+00  0.00000000000E+00  0.30348816102E+01  0.30348816102E+01  0.00000000000E+00 0. -1.
         21   -1    0    0  501  502 -0.00000000000E+00 -0.00000000000E+00 -0.12871177534E+04  0.12871177534E+04  0.00000000000E+00 0. -1.
         25    1    1    2    0    0  0.00000000000E+00  0.00000000000E+00 -0.12840828718E+04  0.12901526350E+04  0.12500000000E+03 0.  0.
<mgrwt>
<rscale>  0 0.12500000E+03</rscale>
<asrwt>0</asrwt>
<pdfrwt beam="1">  1       21 0.46690380E-03 0.12500000E+03</pdfrwt>
<pdfrwt beam="2">  1       21 0.19801857E+00 0.12500000E+03</pdfrwt>
<totfact> 0.17430033E+06</totfact>
</mgrwt>
</event>
<event>
 3    1  0.1620993E-001  0.1250000E+03  0.7546771E-02  0.1235069E+00
         21   -1    0    0  502  501  0.00000000000E+00  0.00000000000E+00  0.97721241135E+02  0.97721241135E+02  0.00000000000E+00 0.  1.
         21   -1    0    0  501  502 -0.00000000000E+00 -0.00000000000E+00 -0.39973397336E+02  0.39973397336E+02  0.00000000000E+00 0.  1.
         25    1    1    2    0    0  0.00000000000E+00  0.00000000000E+00  0.57747843799E+02  0.13769463847E+03  0.12500000000E+03 0.  0.
<mgrwt>
<rscale>  0 0.12500000E+03</rscale>
<asrwt>0</asrwt>
<pdfrwt beam="1">  1       21 0.15034037E-01 0.12500000E+03</pdfrwt>
<pdfrwt beam="2">  1       21 0.61497535E-02 0.12500000E+03</pdfrwt>
<totfact> 0.72341610E+06</totfact>
</mgrwt>
</event>
<event>
 3    1  0.1620993E-001  0.1250000E+03  0.7546771E-02  0.1235069E+00
         21   -1    0    0  502  501  0.00000000000E+00  0.00000000000E+00  0.19499842817E+03  0.19499842817E+03  0.00000000000E+00 0.  1.
         21   -1    0    0  501  502 -0.00000000000E+00 -0.00000000000E+00 -0.20032212755E+02  0.20032212755E+02  0.00000000000E+00 0.  1.
         25    1    1    2    0    0  0.00000000000E+00  0.00000000000E+00  0.17496621542E+03  0.21503064093E+03  0.12500000000E+03 0.  0.
<mgrwt>
<rscale>  0 0.12500000E+03</rscale>
<asrwt>0</asrwt>
<pdfrwt beam="1">  1       21 0.29999757E-01 0.12500000E+03</pdfrwt>
<pdfrwt beam="2">  1       21 0.30818790E-02 0.12500000E+03</pdfrwt>
<totfact> 0.63334111E+06</totfact>
</mgrwt>
</event>
<event>
 3    1  0.1620993E-001  0.1250000E+03  0.7546771E-02  0.1235069E+00
         21   -1    0    0  502  501  0.00000000000E+00  0.00000000000E+00  0.27091676241E+02  0.27091676241E+02  0.00000000000E+00 0.  1.
         21   -1    0    0  501  502 -0.00000000000E+00 -0.00000000000E+00 -0.14418635323E+03  0.14418635323E+03  0.00000000000E+00 0.  1.
         25    1    1    2    0    0  0.00000000000E+00  0.00000000000E+00 -0.11709467699E+03  0.17127802947E+03  0.12500000000E+03 0.  0.
<mgrwt>
<rscale>  0 0.12500000E+03</rscale>
<asrwt>0</asrwt>
<pdfrwt beam="1">  1       21 0.41679502E-02 0.12500000E+03</pdfrwt>
<pdfrwt beam="2">  1       21 0.22182516E-01 0.12500000E+03</pdfrwt>
<totfact> 0.68166455E+06</totfact>
</mgrwt>
</event>
<event>
 3    1  0.1620993E-001  0.1250000E+03  0.7546771E-02  0.1235069E+00
         21   -1    0    0  502  501  0.00000000000E+00  0.00000000000E+00  0.66909400821E+03  0.66909400821E+03  0.00000000000E+00 0.  1.
         21   -1    0    0  501  502 -0.00000000000E+00 -0.00000000000E+00 -0.58381183392E+01  0.58381183392E+01  0.00000000000E+00 0.  1.
         25    1    1    2    0    0  0.00000000000E+00  0.00000000000E+00  0.66325588987E+03  0.67493212655E+03  0.12500000000E+03 0.  0.
<mgrwt>
<rscale>  0 0.12500000E+03</rscale>
<asrwt>0</asrwt>
<pdfrwt beam="1">  1       21 0.10293748E+00 0.12500000E+03</pdfrwt>
<pdfrwt beam="2">  1       21 0.89817258E-03 0.12500000E+03</pdfrwt>
<totfact> 0.33899192E+06</totfact>
</mgrwt>
</event>
<event>
 3    1  0.1620993E-001  0.1250000E+03  0.7546771E-02  0.1235069E+00
         21   -1    0    0  502  501  0.00000000000E+00  0.00000000000E+00  0.10242263452E+02  0.10242263452E+02  0.00000000000E+00 0.  1.
         21   -1    0    0  501  502 -0.00000000000E+00 -0.00000000000E+00 -0.38138542506E+03  0.38138542506E+03  0.00000000000E+00 0.  1.
         25    1    1    2    0    0  0.00000000000E+00  0.00000000000E+00 -0.37114316160E+03  0.39162768851E+03  0.12500000000E+03 0.  0.
<mgrwt>
<rscale>  0 0.12500000E+03</rscale>
<asrwt>0</asrwt>
<pdfrwt beam="1">  1       21 0.15757328E-02 0.12500000E+03</pdfrwt>
<pdfrwt beam="2">  1       21 0.58674684E-01 0.12500000E+03</pdfrwt>
<totfact> 0.48601678E+06</totfact>
</mgrwt>
</event>
<event>
 3    1  0.1620993E-001  0.1250000E+03  0.7546771E-02  0.1235069E+00
         21   -1    0    0  502  501  0.00000000000E+00  0.00000000000E+00  0.67218422820E+02  0.67218422820E+02  0.00000000000E+00 0.  1.
         21   -1    0    0  501  502 -0.00000000000E+00 -0.00000000000E+00 -0.58112788669E+02  0.58112788669E+02  0.00000000000E+00 0.  1.
         25    1    1    2    0    0  0.00000000000E+00  0.00000000000E+00  0.91056341504E+01  0.12533121149E+03  0.12500000000E+03 0.  0.
<mgrwt>
<rscale>  0 0.12500000E+03</rscale>
<asrwt>0</asrwt>
<pdfrwt beam="1">  1       21 0.10341296E-01 0.12500000E+03</pdfrwt>
<pdfrwt beam="2">  1       21 0.89404291E-02 0.12500000E+03</pdfrwt>
<totfact> 0.73998858E+06</totfact>
</mgrwt>
</event>
<event>
 3    1  0.1620993E-001  0.1250000E+03  0.7546771E-02  0.1235069E+00
         21   -1    0    0  502  501  0.00000000000E+00  0.00000000000E+00  0.11073351100E+03  0.11073351100E+03  0.00000000000E+00 0. -1.
         21   -1    0    0  501  502 -0.00000000000E+00 -0.00000000000E+00 -0.35276132445E+02  0.35276132445E+02  0.00000000000E+00 0. -1.
         25    1    1    2    0    0  0.00000000000E+00  0.00000000000E+00  0.75457378550E+02  0.14600964344E+03  0.12500000000E+03 0.  0.
<mgrwt>
<rscale>  0 0.12500000E+03</rscale>
<asrwt>0</asrwt>
<pdfrwt beam="1">  1       21 0.17035925E-01 0.12500000E+03</pdfrwt>
<pdfrwt beam="2">  1       21 0.54270973E-02 0.12500000E+03</pdfrwt>
<totfact> 0.71264139E+06</totfact>
</mgrwt>
</event>
<event>
 3    1  0.1620993E-001  0.1250000E+03  0.7546771E-02  0.1235069E+00
         21   -1    0    0  502  501  0.00000000000E+00  0.00000000000E+00  0.56567969840E+02  0.56567969840E+02  0.00000000000E+00 0.  1.
         21   -1    0    0  501  502 -0.00000000000E+00 -0.00000000000E+00 -0.69054095649E+02  0.69054095649E+02  0.00000000000E+00 0.  1.
         25    1    1    2    0    0  0.00000000000E+00  0.00000000000E+00 -0.12486125809E+02  0.12562206549E+03  0.12500000000E+03 0.  0.
<mgrwt>
<rscale>  0 0.12500000E+03</rscale>
<asrwt>0</asrwt>
<pdfrwt beam="1">  1       21 0.87027646E-02 0.12500000E+03</pdfrwt>
<pdfrwt beam="2">  1       21 0.10623707E-01 0.12500000E+03</pdfrwt>
<totfact> 0.73958370E+06</totfact>
</mgrwt>
</event>
<event>
 3    1  0.1620993E-001  0.1250000E+03  0.7546771E-02  0.1235069E+00
         21   -1    0    0  502  501  0.00000000000E+00  0.00000000000E+00  0.34118230273E+02  0.34118230273E+02  0.00000000000E+00 0.  1.
         21   -1    0    0  501  502 -0.00000000000E+00 -0.00000000000E+00 -0.11449157734E+03  0.11449157734E+03  0.00000000000E+00 0.  1.
         25    1    1    2    0    0  0.00000000000E+00  0.00000000000E+00 -0.80373347068E+02  0.14860980761E+03  0.12500000000E+03 0.  0.
<mgrwt>
<rscale>  0 0.12500000E+03</rscale>
<asrwt>0</asrwt>
<pdfrwt beam="1">  1       21 0.52489585E-02 0.12500000E+03</pdfrwt>
<pdfrwt beam="2">  1       21 0.17614089E-01 0.12500000E+03</pdfrwt>
<totfact> 0.70934274E+06</totfact>
</mgrwt>
</event>
<event>
 3    1  0.1620993E-001  0.1250000E+03  0.7546771E-02  0.1235069E+00
         21   -1    0    0  502  501  0.00000000000E+00  0.00000000000E+00  0.19742350876E+03  0.19742350876E+03  0.00000000000E+00 0. -1.
         21   -1    0    0  501  502 -0.00000000000E+00 -0.00000000000E+00 -0.19786144135E+02  0.19786144135E+02  0.00000000000E+00 0. -1.
         25    1    1    2    0    0  0.00000000000E+00  0.00000000000E+00  0.17763736462E+03  0.21720965290E+03  0.12500000000E+03 0.  0.
<mgrwt>
<rscale>  0 0.12500000E+03</rscale>
<asrwt>0</asrwt>
<pdfrwt beam="1">  1       21 0.30372846E-01 0.12500000E+03</pdfrwt>
<pdfrwt beam="2">  1       21 0.30440223E-02 0.12500000E+03</pdfrwt>
<totfact> 0.63108890E+06</totfact>
</mgrwt>
</event>
<event>
 3    1  0.1620993E-001  0.1250000E+03  0.7546771E-02  0.1235069E+00
         21   -1    0    0  502  501  0.00000000000E+00  0.00000000000E+00  0.18410278249E+02  0.18410278249E+02  0.00000000000E+00 0. -1.
         21   -1    0    0  501  502 -0.00000000000E+00 -0.00000000000E+00 -0.21217767310E+03  0.21217767310E+03  0.00000000000E+00 0. -1.
         25    1    1    2    0    0  0.00000000000E+00  0.00000000000E+00 -0.19376739485E+03  0.23058795135E+03  0.12500000000E+03 0.  0.
<mgrwt>
<rscale>  0 0.12500000E+03</rscale>
<asrwt>0</asrwt>
<pdfrwt beam="1">  1       21 0.28323505E-02 0.12500000E+03</pdfrwt>
<pdfrwt beam="2">  1       21 0.32642719E-01 0.12500000E+03</pdfrwt>
<totfact> 0.61755516E+06</totfact>
</mgrwt>
</event>
<event>
 3    1  0.1620993E-001  0.1250000E+03  0.7546771E-02  0.1235069E+00
         21   -1    0    0  502  501  0.00000000000E+00  0.00000000000E+00  0.12075741530E+04  0.12075741530E+04  0.00000000000E+00 0.  1.
         21   -1    0    0  501  502 -0.00000000000E+00 -0.00000000000E+00 -0.32347909983E+01  0.32347909983E+01  0.00000000000E+00 0.  1.
         25    1    1    2    0    0  0.00000000000E+00  0.00000000000E+00  0.12043393620E+04  0.12108089440E+04  0.12500000000E+03 0.  0.
<mgrwt>
<rscale>  0 0.12500000E+03</rscale>
<asrwt>0</asrwt>
<pdfrwt beam="1">  1       21 0.18578028E+00 0.12500000E+03</pdfrwt>
<pdfrwt beam="2">  1       21 0.49766112E-03 0.12500000E+03</pdfrwt>
<totfact> 0.18929334E+06</totfact>
</mgrwt>
</event>
<event>
 3    1  0.1620993E-001  0.1250000E+03  0.7546771E-02  0.1235069E+00
         21   -1    0    0  502  501  0.00000000000E+00  0.00000000000E+00  0.13268110122E+03  0.13268110122E+03  0.00000000000E+00 0.  1.
         21   -1    0    0  501  502 -0.00000000000E+00 -0.00000000000E+00 -0.29440892214E+02  0.29440892214E+02  0.00000000000E+00 0.  1.
         25    1    1    2    0    0  0.00000000000E+00  0.00000000000E+00  0.10324020901E+03  0.16212199344E+03  0.12500000000E+03 0.  0.
<mgrwt>
<rscale>  0 0.12500000E+03</rscale>
<asrwt>0</asrwt>
<pdfrwt beam="1">  1       21 0.20412477E-01 0.12500000E+03</pdfrwt>
<pdfrwt beam="2">  1       21 0.45293681E-02 0.12500000E+03</pdfrwt>
<totfact> 0.69261136E+06</totfact>
</mgrwt>
</event>
<event>
 3    1  0.1620993E-001  0.1250000E+03  0.7546771E-02  0.1235069E+00
         21   -1    0    0  502  501  0.00000000000E+00  0.00000000000E+00  0.39146227104E+02  0.39146227104E+02  0.00000000000E+00 0. -1.
         21   -1    0    0  501  502 -0.00000000000E+00 -0.00000000000E+00 -0.99786117053E+02  0.99786117053E+02  0.00000000000E+00 0. -1.
         25    1    1    2    0    0  0.00000000000E+00  0.00000000000E+00 -0.60639889949E+02  0.13893234416E+03  0.12500000000E+03 0.  0.
<mgrwt>
<rscale>  0 0.12500000E+03</rscale>
<asrwt>0</asrwt>
<pdfrwt beam="1">  1       21 0.60224965E-02 0.12500000E+03</pdfrwt>
<pdfrwt beam="2">  1       21 0.15351710E-01 0.12500000E+03</pdfrwt>
<totfact> 0.72178996E+06</totfact>
</mgrwt>
</event>
<event>
 3    1  0.1620993E-001  0.1250000E+03  0.7546771E-02  0.1235069E+00
         21   -1    0    0  502  501  0.00000000000E+00  0.00000000000E+00  0.31506949122E+02  0.31506949122E+02  0.00000000000E+00 0.  1.
         21   -1    0    0  501  502 -0.00000000000E+00 -0.00000000000E+00 -0.12398058552E+03  0.12398058552E+03  0.00000000000E+00 0.  1.
         25    1    1    2    0    0  0.00000000000E+00  0.00000000000E+00 -0.92473636396E+02  0.15548753464E+03  0.12500000000E+03 0.  0.
<mgrwt>
<rscale>  0 0.12500000E+03</rscale>
<asrwt>0</asrwt>
<pdfrwt beam="1">  1       21 0.48472230E-02 0.12500000E+03</pdfrwt>
<pdfrwt beam="2">  1       21 0.19073936E-01 0.12500000E+03</pdfrwt>
<totfact> 0.70075115E+06</totfact>
</mgrwt>
</event>
<event>
 3    1  0.1620993E-001  0.1250000E+03  0.7546771E-02  0.1235069E+00
         21   -1    0    0  502  501  0.00000000000E+00  0.00000000000E+00  0.86959029358E+03  0.86959029358E+03  0.00000000000E+00 0. -1.
         21   -1    0    0  501  502 -0.00000000000E+00 -0.00000000000E+00 -0.44920579598E+01  0.44920579598E+01  0.00000000000E+00 0. -1.
         25    1    1    2    0    0  0.00000000000E+00  0.00000000000E+00  0.86509823562E+03  0.87408235154E+03  0.12500000000E+03 0.  0.
<mgrwt>
<rscale>  0 0.12500000E+03</rscale>
<asrwt>0</asrwt>
<pdfrwt beam="1">  1       21 0.13378299E+00 0.12500000E+03</pdfrwt>
<pdfrwt beam="2">  1       21 0.69108653E-03 0.12500000E+03</pdfrwt>
<totfact> 0.27049897E+06</totfact>
</mgrwt>
</event>
<event>
 3    1  0.1620993E-001  0.1250000E+03  0.7546771E-02  0.1235069E+00
         21   -1    0    0  502  501  0.00000000000E+00  0.00000000000E+00  0.20072598920E+03  0.20072598920E+03  0.00000000000E+00 0.  1.
         21   -1    0    0  501  502 -0.00000000000E+00 -0.00000000000E+00 -0.19460609040E+02  0.19460609040E+02  0.00000000000E+00 0.  1.
         25    1    1    2    0    0  0.00000000000E+00  0.00000000000E+00  0.18126538017E+03  0.22018659824E+03  0.12500000000E+03 0.  0.
<mgrwt>
<rscale>  0 0.12500000E+03</rscale>
<asrwt>0</asrwt>
<pdfrwt beam="1">  1       21 0.30880920E-01 0.12500000E+03</pdfrwt>
<pdfrwt beam="2">  1       21 0.29939400E-02 0.12500000E+03</pdfrwt>
<totfact> 0.62803468E+06</totfact>
</mgrwt>
</event>
<event>
 3    1  0.1620993E-001  0.1250000E+03  0.7546771E-02  0.1235069E+00
         21   -1    0    0  502  501  0.00000000000E+00  0.00000000000E+00  0.12080018148E+01  0.12080018148E+01  0.00000000000E+00 0.  1.
         21   -1    0    0  501  502 -0.00000000000E+00 -0.00000000000E+00 -0.32336458042E+04  0.32336458042E+04  0.00000000000E+00 0.  1.
         25    1    1    2    0    0  0.00000000000E+00  0.00000000000E+00 -0.32324378024E+04  0.32348538060E+04  0.12500000000E+03 0.  0.
<mgrwt>
<rscale>  0 0.12500000E+03</rscale>
<asrwt>0</asrwt>
<pdfrwt beam="1">  1       21 0.18584870E-03 0.12500000E+03</pdfrwt>
<pdfrwt beam="2">  1       21 0.49747791E+00 0.12500000E+03</pdfrwt>
<totfact> 0.11044987E+05</totfact>
</mgrwt>
</event>
<event>
 3    1  0.1620993E-001  0.1250000E+03  0.7546771E-02  0.1235069E+00
         21   -1    0    0  502  501  0.00000000000E+00  0.00000000000E+00  0.10855517757E+02  0.10855517757E+02  0.00000000000E+00 0.  1.
         21   -1    0    0  501  502 -0.00000000000E+00 -0.00000000000E+00 -0.35984004518E+03  0.35984004518E+03  0.00000000000E+00 0.  1.
         25    1    1    2    0    0  0.00000000000E+00  0.00000000000E+00 -0.34898452742E+03  0.37069556293E+03  0.12500000000E+03 0.  0.
<mgrwt>
<rscale>  0 0.12500000E+03</rscale>
<asrwt>0</asrwt>
<pdfrwt beam="1">  1       21 0.16700794E-02 0.12500000E+03</pdfrwt>
<pdfrwt beam="2">  1       21 0.55360015E-01 0.12500000E+03</pdfrwt>
<totfact> 0.50045386E+06</totfact>
</mgrwt>
</event>
<event>
 3    1  0.1620993E-001  0.1250000E+03  0.7546771E-02  0.1235069E+00
         21   -1    0    0  502  501  0.00000000000E+00  0.00000000000E+00  0.21907075812E+01  0.21907075812E+01  0.00000000000E+00 0. -1.
         21   -1    0    0  501  502 -0.00000000000E+00 -0.00000000000E+00 -0.17830996859E+04  0.17830996859E+04  0.00000000000E+00 0. -1.
         25    1    1    2    0    0  0.00000000000E+00  0.00000000000E+00 -0.17809089783E+04  0.17852903935E+04  0.12500000000E+03 0.  0.
<mgrwt>
<rscale>  0 0.12500000E+03</rscale>
<asrwt>0</asrwt>
<pdfrwt beam="1">  1       21 0.33703208E-03 0.12500000E+03</pdfrwt>
<pdfrwt beam="2">  1       21 0.27432291E+00 0.12500000E+03</pdfrwt>
<totfact> 0.10240233E+06</totfact>
</mgrwt>
</event>
<event>
 3    1  0.1620993E-001  0.1250000E+03  0.7546771E-02  0.1235069E+00
         21   -1    0    0  502  501  0.00000000000E+00  0.00000000000E+00  0.34788342438E+03  0.34788342438E+03  0.00000000000E+00 0. -1.
         21   -1    0    0  501  502 -0.00000000000E+00 -0.00000000000E+00 -0.11228617768E+02  0.11228617768E+02  0.00000000000E+00 0. -1.
         25    1    1    2    0    0  0.00000000000E+00  0.00000000000E+00  0.33665480661E+03  0.35911204215E+03  0.12500000000E+03 0.  0.
<mgrwt>
<rscale>  0 0.12500000E+03</rscale>
<asrwt>0</asrwt>
<pdfrwt beam="1">  1       21 0.53520518E-01 0.12500000E+03</pdfrwt>
<pdfrwt beam="2">  1       21 0.17274799E-02 0.12500000E+03</pdfrwt>
<totfact> 0.50872446E+06</totfact>
</mgrwt>
</event>
<event>
 3    1  0.1620993E-001  0.1250000E+03  0.7546771E-02  0.1235069E+00
         21   -1    0    0  502  501  0.00000000000E+00  0.00000000000E+00  0.82230490943E+03  0.82230490943E+03  0.00000000000E+00 0. -1.
         21   -1    0    0  501  502 -0.00000000000E+00 -0.00000000000E+00 -0.47503668715E+01  0.47503668715E+01  0.00000000000E+00 0. -1.
         25    1    1    2    0    0  0.00000000000E+00  0.00000000000E+00  0.81755454256E+03  0.82705527630E+03  0.12500000000E+03 0.  0.
<mgrwt>
<rscale>  0 0.12500000E+03</rscale>
<asrwt>0</asrwt>
<pdfrwt beam="1">  1       21 0.12650833E+00 0.12500000E+03</pdfrwt>
<pdfrwt beam="2">  1       21 0.73082633E-03 0.12500000E+03</pdfrwt>
<totfact> 0.28485841E+06</totfact>
</mgrwt>
</event>
<event>
 3    1  0.1620993E-001  0.1250000E+03  0.7546771E-02  0.1235069E+00
         21   -1    0    0  502  501  0.00000000000E+00  0.00000000000E+00  0.11801674592E+02  0.11801674592E+02  0.00000000000E+00 0.  1.
         21   -1    0    0  501  502 -0.00000000000E+00 -0.00000000000E+00 -0.33099116312E+03  0.33099116312E+03  0.00000000000E+00 0.  1.
         25    1    1    2    0    0  0.00000000000E+00  0.00000000000E+00 -0.31918948853E+03  0.34279283771E+03  0.12500000000E+03 0.  0.
<mgrwt>
<rscale>  0 0.12500000E+03</rscale>
<asrwt>0</asrwt>
<pdfrwt beam="1">  1       21 0.18156420E-02 0.12500000E+03</pdfrwt>
<pdfrwt beam="2">  1       21 0.50921723E-01 0.12500000E+03</pdfrwt>
<totfact> 0.52075142E+06</totfact>
</mgrwt>
</event>
<event>
 3    1  0.1620993E-001  0.1250000E+03  0.7546771E-02  0.1235069E+00
         21   -1    0    0  502  501  0.00000000000E+00  0.00000000000E+00  0.28184721593E+02  0.28184721593E+02  0.00000000000E+00 0.  1.
         21   -1    0    0  501  502 -0.00000000000E+00 -0.00000000000E+00 -0.13859459236E+03  0.13859459236E+03  0.00000000000E+00 0.  1.
         25    1    1    2    0    0  0.00000000000E+00  0.00000000000E+00 -0.11040987077E+03  0.16677931395E+03  0.12500000000E+03 0.  0.
<mgrwt>
<rscale>  0 0.12500000E+03</rscale>
<asrwt>0</asrwt>
<pdfrwt beam="1">  1       21 0.43361110E-02 0.12500000E+03</pdfrwt>
<pdfrwt beam="2">  1       21 0.21322245E-01 0.12500000E+03</pdfrwt>
<totfact> 0.68700479E+06</totfact>
</mgrwt>
</event>
<event>
 3    1  0.1620993E-001  0.1250000E+03  0.7546771E-02  0.1235069E+00
         21   -1    0    0  502  501  0.00000000000E+00  0.00000000000E+00  0.50807765474E+03  0.50807765474E+03  0.00000000000E+00 0.  1.
         21   -1    0    0  501  502 -0.00000000000E+00 -0.00000000000E+00 -0.76882932433E+01  0.76882932433E+01  0.00000000000E+00 0.  1.
         25    1    1    2    0    0  0.00000000000E+00  0.00000000000E+00  0.50038936149E+03  0.51576594798E+03  0.12500000000E+03 0.  0.
<mgrwt>
<rscale>  0 0.12500000E+03</rscale>
<asrwt>0</asrwt>
<pdfrwt beam="1">  1       21 0.78165766E-01 0.12500000E+03</pdfrwt>
<pdfrwt beam="2">  1       21 0.11828148E-02 0.12500000E+03</pdfrwt>
<totfact> 0.41201764E+06</totfact>
</mgrwt>
</event>
<event>
 3    1  0.1620993E-001  0.1250000E+03  0.7546771E-02  0.1235069E+00
         21   -1    0    0  502  501  0.00000000000E+00  0.00000000000E+00  0.15333131765E+03  0.15333131765E+03  0.00000000000E+00 0. -1.
         21   -1    0    0  501  502 -0.00000000000E+00 -0.00000000000E+00 -0.25475878379E+02  0.25475878379E+02  0.00000000000E+00 0. -1.
         25    1    1    2    0    0  0.00000000000E+00  0.00000000000E+00  0.12785543927E+03  0.17880719602E+03  0.12500000000E+03 0.  0.
<mgrwt>
<rscale>  0 0.12500000E+03</rscale>
<asrwt>0</asrwt>
<pdfrwt beam="1">  1       21 0.23589433E-01 0.12500000E+03</pdfrwt>
<pdfrwt beam="2">  1       21 0.39193660E-02 0.12500000E+03</pdfrwt>
<totfact> 0.67288635E+06</totfact>
</mgrwt>
</event>
<event>
 3    1  0.1620993E-001  0.1250000E+03  0.7546771E-02  0.1235069E+00
         21   -1    0    0  502  501  0.00000000000E+00  0.00000000000E+00  0.37860178178E+02  0.37860178178E+02  0.00000000000E+00 0.  1.
         21   -1    0    0  501  502 -0.00000000000E+00 -0.00000000000E+00 -0.10317568981E+03  0.10317568981E+03  0.00000000000E+00 0.  1.
         25    1    1    2    0    0  0.00000000000E+00  0.00000000000E+00 -0.65315511635E+02  0.14103586799E+03  0.12500000000E+03 0.  0.
<mgrwt>
<rscale>  0 0.12500000E+03</rscale>
<asrwt>0</asrwt>
<pdfrwt beam="1">  1       21 0.58246429E-02 0.12500000E+03</pdfrwt>
<pdfrwt beam="2">  1       21 0.15873183E-01 0.12500000E+03</pdfrwt>
<totfact> 0.71904365E+06</totfact>
</mgrwt>
</event>
<event>
 3    1  0.1620993E-001  0.1250000E+03  0.7546771E-02  0.1235069E+00
         21   -1    0    0  502  501  0.00000000000E+00  0.00000000000E+00  0.10750722542E+02  0.10750722542E+02  0.00000000000E+00 0. -1.
         21   -1    0    0  501  502 -0.00000000000E+00 -0.00000000000E+00 -0.36334767127E+03  0.36334767127E+03  0.00000000000E+00 0. -1.
         25    1    1    2    0    0  0.00000000000E+00  0.00000000000E+00 -0.35259694873E+03  0.37409839382E+03  0.12500000000E+03 0.  0.
<mgrwt>
<rscale>  0 0.12500000E+03</rscale>
<asrwt>0</asrwt>
<pdfrwt beam="1">  1       21 0.16539573E-02 0.12500000E+03</pdfrwt>
<pdfrwt beam="2">  1       21 0.55899643E-01 0.12500000E+03</pdfrwt>
<totfact> 0.49806468E+06</totfact>
</mgrwt>
</event>
<event>
 3    1  0.1620993E-001  0.1250000E+03  0.7546771E-02  0.1235069E+00
         21   -1    0    0  502  501  0.00000000000E+00  0.00000000000E+00  0.26109563842E+02  0.26109563842E+02  0.00000000000E+00 0. -1.
         21   -1    0    0  501  502 -0.00000000000E+00 -0.00000000000E+00 -0.14960992928E+03  0.14960992928E+03  0.00000000000E+00 0. -1.
         25    1    1    2    0    0  0.00000000000E+00  0.00000000000E+00 -0.12350036544E+03  0.17571949313E+03  0.12500000000E+03 0.  0.
<mgrwt>
<rscale>  0 0.12500000E+03</rscale>
<asrwt>0</asrwt>
<pdfrwt beam="1">  1       21 0.40168560E-02 0.12500000E+03</pdfrwt>
<pdfrwt beam="2">  1       21 0.23016912E-01 0.12500000E+03</pdfrwt>
<totfact> 0.67646008E+06</totfact>
</mgrwt>
</event>
<event>
 3    1  0.1620993E-001  0.1250000E+03  0.7546771E-02  0.1235069E+00
         21   -1    0    0  502  501  0.00000000000E+00  0.00000000000E+00  0.10680218843E+02  0.10680218843E+02  0.00000000000E+00 0.  1.
         21   -1    0    0  501  502 -0.00000000000E+00 -0.00000000000E+00 -0.36574625084E+03  0.36574625084E+03  0.00000000000E+00 0.  1.
         25    1    1    2    0    0  0.00000000000E+00  0.00000000000E+00 -0.35506603200E+03  0.37642646969E+03  0.12500000000E+03 0.  0.
<mgrwt>
<rscale>  0 0.12500000E+03</rscale>
<asrwt>0</asrwt>
<pdfrwt beam="1">  1       21 0.16431108E-02 0.12500000E+03</pdfrwt>
<pdfrwt beam="2">  1       21 0.56268648E-01 0.12500000E+03</pdfrwt>
<totfact> 0.49644045E+06</totfact>
</mgrwt>
</event>
<event>
 3    1  0.1620993E-001  0.1250000E+03  0.7546771E-02  0.1235069E+00
         21   -1    0    0  502  501  0.00000000000E+00  0.00000000000E+00  0.75101716715E+02  0.75101716715E+02  0.00000000000E+00 0.  1.
         21   -1    0    0  501  502 -0.00000000000E+00 -0.00000000000E+00 -0.52012792395E+02  0.52012792395E+02  0.00000000000E+00 0.  1.
         25    1    1    2    0    0  0.00000000000E+00  0.00000000000E+00  0.23088924320E+02  0.12711450911E+03  0.12500000000E+03 0.  0.
<mgrwt>
<rscale>  0 0.12500000E+03</rscale>
<asrwt>0</asrwt>
<pdfrwt beam="1">  1       21 0.11554110E-01 0.12500000E+03</pdfrwt>
<pdfrwt beam="2">  1       21 0.80019681E-02 0.12500000E+03</pdfrwt>
<totfact> 0.73753556E+06</totfact>
</mgrwt>
</event>
<event>
 3    1  0.1620993E-001  0.1250000E+03  0.7546771E-02  0.1235069E+00
         21   -1    0    0  502  501  0.00000000000E+00  0.00000000000E+00  0.22798892219E+01  0.22798892219E+01  0.00000000000E+00 0. -1.
         21   -1    0    0  501  502 -0.00000000000E+00 -0.00000000000E+00 -0.17133507902E+04  0.17133507902E+04  0.00000000000E+00 0. -1.
         25    1    1    2    0    0  0.00000000000E+00  0.00000000000E+00 -0.17110709010E+04  0.17156306794E+04  0.12500000000E+03 0.  0.
<mgrwt>
<rscale>  0 0.12500000E+03</rscale>
<asrwt>0</asrwt>
<pdfrwt beam="1">  1       21 0.35074910E-03 0.12500000E+03</pdfrwt>
<pdfrwt beam="2">  1       21 0.26359475E+00 0.12500000E+03</pdfrwt>
<totfact> 0.11075566E+06</totfact>
</mgrwt>
</event>
<event>
 3    1  0.1620993E-001  0.1250000E+03  0.7546771E-02  0.1235069E+00
         21   -1    0    0  502  501  0.00000000000E+00  0.00000000000E+00  0.10873900597E+02  0.10873900597E+02  0.00000000000E+00 0. -1.
         21   -1    0    0  501  502 -0.00000000000E+00 -0.00000000000E+00 -0.35923171865E+03  0.35923171865E+03  0.00000000000E+00 0. -1.
         25    1    1    2    0    0  0.00000000000E+00  0.00000000000E+00 -0.34835781805E+03  0.37010561925E+03  0.12500000000E+03 0.  0.
<mgrwt>
<rscale>  0 0.12500000E+03</rscale>
<asrwt>0</asrwt>
<pdfrwt beam="1">  1       21 0.16729080E-02 0.12500000E+03</pdfrwt>
<pdfrwt beam="2">  1       21 0.55266412E-01 0.12500000E+03</pdfrwt>
<totfact> 0.50086997E+06</totfact>
</mgrwt>
</event>
<event>
 3    1  0.1620993E-001  0.1250000E+03  0.7546771E-02  0.1235069E+00
         21   -1    0    0  502  501  0.00000000000E+00  0.00000000000E+00  0.27000997999E+02  0.27000997999E+02  0.00000000000E+00 0.  1.
         21   -1    0    0  501  502 -0.00000000000E+00 -0.00000000000E+00 -0.14467057848E+03  0.14467057848E+03  0.00000000000E+00 0.  1.
         25    1    1    2    0    0  0.00000000000E+00  0.00000000000E+00 -0.11766958048E+03  0.17167157648E+03  0.12500000000E+03 0.  0.
<mgrwt>
<rscale>  0 0.12500000E+03</rscale>
<asrwt>0</asrwt>
<pdfrwt beam="1">  1       21 0.41539997E-02 0.12500000E+03</pdfrwt>
<pdfrwt beam="2">  1       21 0.22257012E-01 0.12500000E+03</pdfrwt>
<totfact> 0.68120030E+06</totfact>
</mgrwt>
</event>
<event>
 3    1  0.1620993E-001  0.1250000E+03  0.7546771E-02  0.1235069E+00
         21   -1    0    0  502  501  0.00000000000E+00  0.00000000000E+00  0.20093852145E+02  0.20093852145E+02  0.00000000000E+00 0.  1.
         21   -1    0    0  501  502 -0.00000000000E+00 -0.00000000000E+00 -0.19440025595E+03  0.19440025595E+03  0.00000000000E+00 0.  1.
         25    1    1    2    0    0  0.00000000000E+00  0.00000000000E+00 -0.17430640380E+03  0.21449410809E+03  0.12500000000E+03 0.  0.
<mgrwt>
<rscale>  0 0.12500000E+03</rscale>
<asrwt>0</asrwt>
<pdfrwt beam="1">  1       21 0.30913618E-02 0.12500000E+03</pdfrwt>
<pdfrwt beam="2">  1       21 0.29907732E-01 0.12500000E+03</pdfrwt>
<totfact> 0.63389784E+06</totfact>
</mgrwt>
</event>
<event>
 3    1  0.1620993E-001  0.1250000E+03  0.7546771E-02  0.1235069E+00
         21   -1    0    0  502  501  0.00000000000E+00  0.00000000000E+00  0.52880937943E+03  0.52880937943E+03  0.00000000000E+00 0.  1.
         21   -1    0    0  501  502 -0.00000000000E+00 -0.00000000000E+00 -0.73868772982E+01  0.73868772982E+01  0.00000000000E+00 0.  1.
         25    1    1    2    0    0  0.00000000000E+00  0.00000000000E+00  0.52142250214E+03  0.53619625673E+03  0.12500000000E+03 0.  0.
<mgrwt>
<rscale>  0 0.12500000E+03</rscale>
<asrwt>0</asrwt>
<pdfrwt beam="1">  1       21 0.81355259E-01 0.12500000E+03</pdfrwt>
<pdfrwt beam="2">  1       21 0.11364431E-02 0.12500000E+03</pdfrwt>
<totfact> 0.40146735E+06</totfact>
</mgrwt>
</event>
<event>
 3    1  0.1620993E-001  0.1250000E+03  0.7546771E-02  0.1235069E+00
         21   -1    0    0  502  501  0.00000000000E+00  0.00000000000E+00  0.11101333436E+03  0.11101333436E+03  0.00000000000E+00 0.  1.
         21   -1    0    0  501  502 -0.00000000000E+00 -0.00000000000E+00 -0.35187214425E+02  0.35187214425E+02  0.00000000000E+00 0.  1.
         25    1    1    2    0    0  0.00000000000E+00  0.00000000000E+00  0.75826119931E+02  0.14620054878E+03  0.12500000000E+03 0.  0.
<mgrwt>
<rscale>  0 0.12500000E+03</rscale>
<asrwt>0</asrwt>
<pdfrwt beam="1">  1       21 0.17078974E-01 0.12500000E+03</pdfrwt>
<pdfrwt beam="2">  1       21 0.54134177E-02 0.12500000E+03</pdfrwt>
<totfact> 0.71239811E+06</totfact>
</mgrwt>
</event>
<event>
 3    1  0.1620993E-001  0.1250000E+03  0.7546771E-02  0.1235069E+00
         21   -1    0    0  502  501  0.00000000000E+00  0.00000000000E+00  0.16785186638E+02  0.16785186638E+02  0.00000000000E+00 0.  1.
         21   -1    0    0  501  502 -0.00000000000E+00 -0.00000000000E+00 -0.23272008136E+03  0.23272008136E+03  0.00000000000E+00 0.  1.
         25    1    1    2    0    0  0.00000000000E+00  0.00000000000E+00 -0.21593489472E+03  0.24950526800E+03  0.12500000000E+03 0.  0.
<mgrwt>
<rscale>  0 0.12500000E+03</rscale>
<asrwt>0</asrwt>
<pdfrwt beam="1">  1       21 0.25823365E-02 0.12500000E+03</pdfrwt>
<pdfrwt beam="2">  1       21 0.35803088E-01 0.12500000E+03</pdfrwt>
<totfact> 0.59924799E+06</totfact>
</mgrwt>
</event>
<event>
 3    1  0.1620993E-001  0.1250000E+03  0.7546771E-02  0.1235069E+00
         21   -1    0    0  502  501  0.00000000000E+00  0.00000000000E+00  0.10120563644E+02  0.10120563644E+02  0.00000000000E+00 0. -1.
         21   -1    0    0  501  502 -0.00000000000E+00 -0.00000000000E+00 -0.38597158591E+03  0.38597158591E+03  0.00000000000E+00 0. -1.
         25    1    1    2    0    0  0.00000000000E+00  0.00000000000E+00 -0.37585102227E+03  0.39609214955E+03  0.12500000000E+03 0.  0.
<mgrwt>
<rscale>  0 0.12500000E+03</rscale>
<asrwt>0</asrwt>
<pdfrwt beam="1">  1       21 0.15570102E-02 0.12500000E+03</pdfrwt>
<pdfrwt beam="2">  1       21 0.59380228E-01 0.12500000E+03</pdfrwt>
<totfact> 0.48301646E+06</totfact>
</mgrwt>
</event>
<event>
 3    1  0.1620993E-001  0.1250000E+03  0.7546771E-02  0.1235069E+00
         21   -1    0    0  502  501  0.00000000000E+00  0.00000000000E+00  0.28843348527E+02  0.28843348527E+02  0.00000000000E+00 0.  1.
         21   -1    0    0  501  502 -0.00000000000E+00 -0.00000000000E+00 -0.13542983736E+03  0.13542983736E+03  0.00000000000E+00 0.  1.
         25    1    1    2    0    0  0.00000000000E+00  0.00000000000E+00 -0.10658648883E+03  0.16427318589E+03  0.12500000000E+03 0.  0.
<mgrwt>
<rscale>  0 0.12500000E+03</rscale>
<asrwt>0</asrwt>
<pdfrwt beam="1">  1       21 0.44374381E-02 0.12500000E+03</pdfrwt>
<pdfrwt beam="2">  1       21 0.20835360E-01 0.12500000E+03</pdfrwt>
<totfact> 0.69001092E+06</totfact>
</mgrwt>
</event>
<event>
 3    1  0.1620993E-001  0.1250000E+03  0.7546771E-02  0.1235069E+00
         21   -1    0    0  502  501  0.00000000000E+00  0.00000000000E+00  0.22246737981E+03  0.22246737981E+03  0.00000000000E+00 0. -1.
         21   -1    0    0  501  502 -0.00000000000E+00 -0.00000000000E+00 -0.17558754022E+02  0.17558754022E+02  0.00000000000E+00 0. -1.
         25    1    1    2    0    0  0.00000000000E+00  0.00000000000E+00  0.20490862578E+03  0.24002613383E+03  0.12500000000E+03 0.  0.
<mgrwt>
<rscale>  0 0.12500000E+03</rscale>
<asrwt>0</asrwt>
<pdfrwt beam="1">  1       21 0.34225749E-01 0.12500000E+03</pdfrwt>
<pdfrwt beam="2">  1       21 0.27013469E-02 0.12500000E+03</pdfrwt>
<totfact> 0.60830135E+06</totfact>
</mgrwt>
</event>
<event>
 3    1  0.1620993E-001  0.1250000E+03  0.7546771E-02  0.1235069E+00
         21   -1    0    0  502  501  0.00000000000E+00  0.00000000000E+00  0.18608263485E+01  0.18608263485E+01  0.00000000000E+00 0. -1.
         21   -1    0    0  501  502 -0.00000000000E+00 -0.00000000000E+00 -0.20992017891E+04  0.20992017891E+04  0.00000000000E+00 0. -1.
         25    1    1    2    0    0  0.00000000000E+00  0.00000000000E+00 -0.20973409628E+04  0.21010626155E+04  0.12500000000E+03 0.  0.
<mgrwt>
<rscale>  0 0.12500000E+03</rscale>
<asrwt>0</asrwt>
<pdfrwt beam="1">  1       21 0.28628126E-03 0.12500000E+03</pdfrwt>
<pdfrwt beam="2">  1       21 0.32295380E+00 0.12500000E+03</pdfrwt>
<totfact> 0.70040312E+05</totfact>
</mgrwt>
</event>
<event>
 3    1  0.1620993E-001  0.1250000E+03  0.7546771E-02  0.1235069E+00
         21   -1    0    0  502  501  0.00000000000E+00  0.00000000000E+00  0.82284756193E+01  0.82284756193E+01  0.00000000000E+00 0. -1.
         21   -1    0    0  501  502 -0.00000000000E+00 -0.00000000000E+00 -0.47472340938E+03  0.47472340938E+03  0.00000000000E+00 0. -1.
         25    1    1    2    0    0  0.00000000000E+00  0.00000000000E+00 -0.46649493376E+03  0.48295188500E+03  0.12500000000E+03 0.  0.
<mgrwt>
<rscale>  0 0.12500000E+03</rscale>
<asrwt>0</asrwt>
<pdfrwt beam="1">  1       21 0.12659195E-02 0.12500000E+03</pdfrwt>
<pdfrwt beam="2">  1       21 0.73034360E-01 0.12500000E+03</pdfrwt>
<totfact> 0.42983983E+06</totfact>
</mgrwt>
</event>
<event>
 3    1  0.1620993E-001  0.1250000E+03  0.7546771E-02  0.1235069E+00
         21   -1    0    0  502  501  0.00000000000E+00  0.00000000000E+00  0.28026738513E+02  0.28026738513E+02  0.00000000000E+00 0. -1.
         21   -1    0    0  501  502 -0.00000000000E+00 -0.00000000000E+00 -0.13937583205E+03  0.13937583205E+03  0.00000000000E+00 0. -1.
         25    1    1    2    0    0  0.00000000000E+00  0.00000000000E+00 -0.11134909354E+03  0.16740257057E+03  0.12500000000E+03 0.  0.
<mgrwt>
<rscale>  0 0.12500000E+03</rscale>
<asrwt>0</asrwt>
<pdfrwt beam="1">  1       21 0.43118059E-02 0.12500000E+03</pdfrwt>
<pdfrwt beam="2">  1       21 0.21442436E-01 0.12500000E+03</pdfrwt>
<totfact> 0.68626104E+06</totfact>
</mgrwt>
</event>
<event>
 3    1  0.1620993E-001  0.1250000E+03  0.7546771E-02  0.1235069E+00
         21   -1    0    0  502  501  0.00000000000E+00  0.00000000000E+00  0.50297094396E+01  0.50297094396E+01  0.00000000000E+00 0. -1.
         21   -1    0    0  501  502 -0.00000000000E+00 -0.00000000000E+00 -0.77663531997E+03  0.77663531997E+03  0.00000000000E+00 0. -1.
         25    1    1    2    0    0  0.00000000000E+00  0.00000000000E+00 -0.77160561053E+03  0.78166502941E+03  0.12500000000E+03 0.  0.
<mgrwt>
<rscale>  0 0.12500000E+03</rscale>
<asrwt>0</asrwt>
<pdfrwt beam="1">  1       21 0.77380175E-03 0.12500000E+03</pdfrwt>
<pdfrwt beam="2">  1       21 0.11948231E+00 0.12500000E+03</pdfrwt>
<totfact> 0.29979368E+06</totfact>
</mgrwt>
</event>
<event>
 3    1  0.1620993E-001  0.1250000E+03  0.7546771E-02  0.1235069E+00
         21   -1    0    0  502  501  0.00000000000E+00  0.00000000000E+00  0.11368247819E+03  0.11368247819E+03  0.00000000000E+00 0. -1.
         21   -1    0    0  501  502 -0.00000000000E+00 -0.00000000000E+00 -0.34361056006E+02  0.34361056006E+02  0.00000000000E+00 0. -1.
         25    1    1    2    0    0  0.00000000000E+00  0.00000000000E+00  0.79321422185E+02  0.14804353420E+03  0.12500000000E+03 0.  0.
<mgrwt>
<rscale>  0 0.12500000E+03</rscale>
<asrwt>0</asrwt>
<pdfrwt beam="1">  1       21 0.17489612E-01 0.12500000E+03</pdfrwt>
<pdfrwt beam="2">  1       21 0.52863164E-02 0.12500000E+03</pdfrwt>
<totfact> 0.71005842E+06</totfact>
</mgrwt>
</event>
<event>
 3    1  0.1620993E-001  0.1250000E+03  0.7546771E-02  0.1235069E+00
         21   -1    0    0  502  501  0.00000000000E+00  0.00000000000E+00  0.10201165340E+04  0.10201165340E+04  0.00000000000E+00 0.  1.
         21   -1    0    0  501  502 -0.00000000000E+00 -0.00000000000E+00 -0.38292193781E+01  0.38292193781E+01  0.00000000000E+00 0.  1.
         25    1    1    2    0    0  0.00000000000E+00  0.00000000000E+00  0.10162873146E+04  0.10239457534E+04  0.12500000000E+03 0.  0.
<mgrwt>
<rscale>  0 0.12500000E+03</rscale>
<asrwt>0</asrwt>
<pdfrwt beam="1">  1       21 0.15694079E+00 0.12500000E+03</pdfrwt>
<pdfrwt beam="2">  1       21 0.58911149E-03 0.12500000E+03</pdfrwt>
<totfact> 0.23026611E+06</totfact>
</mgrwt>
</event>
<event>
 3    1  0.1620993E-001  0.1250000E+03  0.7546771E-02  0.1235069E+00
         21   -1    0    0  502  501  0.00000000000E+00  0.00000000000E+00  0.99579587091E+03  0.99579587091E+03  0.00000000000E+00 0. -1.
         21   -1    0    0  501  502 -0.00000000000E+00 -0.00000000000E+00 -0.39227417125E+01  0.39227417125E+01  0.00000000000E+00 0. -1.
         25    1    1    2    0    0  0.00000000000E+00  0.00000000000E+00  0.99187312920E+03  0.99971861262E+03  0.12500000000E+03 0.  0.
<mgrwt>
<rscale>  0 0.12500000E+03</rscale>
<asrwt>0</asrwt>
<pdfrwt beam="1">  1       21 0.15319916E+00 0.12500000E+03</pdfrwt>
<pdfrwt beam="2">  1       21 0.60349952E-03 0.12500000E+03</pdfrwt>
<totfact> 0.23625754E+06</totfact>
</mgrwt>
</event>
<event>
 3    1  0.1620993E-001  0.1250000E+03  0.7546771E-02  0.1235069E+00
         21   -1    0    0  502  501  0.00000000000E+00  0.00000000000E+00  0.16347140935E+02  0.16347140935E+02  0.00000000000E+00 0. -1.
         21   -1    0    0  501  502 -0.00000000000E+00 -0.00000000000E+00 -0.23895615848E+03  0.23895615848E+03  0.00000000000E+00 0. -1.
         25    1    1    2    0    0  0.00000000000E+00  0.00000000000E+00 -0.22260901754E+03  0.25530329941E+03  0.12500000000E+03 0.  0.
<mgrwt>
<rscale>  0 0.12500000E+03</rscale>
<asrwt>0</asrwt>
<pdfrwt beam="1">  1       21 0.25149447E-02 0.12500000E+03</pdfrwt>
<pdfrwt beam="2">  1       21 0.36762486E-01 0.12500000E+03</pdfrwt>
<totfact> 0.59382453E+06</totfact>
</mgrwt>
</event>
<event>
 3    1  0.1620993E-001  0.1250000E+03  0.7546771E-02  0.1235069E+00
         21   -1    0    0  502  501  0.00000000000E+00  0.00000000000E+00  0.96686770328E+03  0.96686770328E+03  0.00000000000E+00 0.  1.
         21   -1    0    0  501  502 -0.00000000000E+00 -0.00000000000E+00 -0.40401080590E+01  0.40401080590E+01  0.00000000000E+00 0.  1.
         25    1    1    2    0    0  0.00000000000E+00  0.00000000000E+00  0.96282759522E+03  0.97090781134E+03  0.12500000000E+03 0.  0.
<mgrwt>
<rscale>  0 0.12500000E+03</rscale>
<asrwt>0</asrwt>
<pdfrwt beam="1">  1       21 0.14874869E+00 0.12500000E+03</pdfrwt>
<pdfrwt beam="2">  1       21 0.62155586E-03 0.12500000E+03</pdfrwt>
<totfact> 0.24359890E+06</totfact>
</mgrwt>
</event>
<event>
 3    1  0.1620993E-001  0.1250000E+03  0.7546771E-02  0.1235069E+00
         21   -1    0    0  502  501  0.00000000000E+00  0.00000000000E+00  0.10584473132E+03  0.10584473132E+03  0.00000000000E+00 0. -1.
         21   -1    0    0  501  502 -0.00000000000E+00 -0.00000000000E+00 -0.36905474193E+02  0.36905474193E+02  0.00000000000E+00 0. -1.
         25    1    1    2    0    0  0.00000000000E+00  0.00000000000E+00  0.68939257122E+02  0.14275020551E+03  0.12500000000E+03 0.  0.
<mgrwt>
<rscale>  0 0.12500000E+03</rscale>
<asrwt>0</asrwt>
<pdfrwt beam="1">  1       21 0.16283805E-01 0.12500000E+03</pdfrwt>
<pdfrwt beam="2">  1       21 0.56777653E-02 0.12500000E+03</pdfrwt>
<totfact> 0.71682277E+06</totfact>
</mgrwt>
</event>
<event>
 3    1  0.1620993E-001  0.1250000E+03  0.7546771E-02  0.1235069E+00
         21   -1    0    0  502  501  0.00000000000E+00  0.00000000000E+00  0.21361933734E+03  0.21361933734E+03  0.00000000000E+00 0.  1.
         21   -1    0    0  501  502 -0.00000000000E+00 -0.00000000000E+00 -0.18286031820E+02  0.18286031820E+02  0.00000000000E+00 0.  1.
         25    1    1    2    0    0  0.00000000000E+00  0.00000000000E+00  0.19533330552E+03  0.23190536916E+03  0.12500000000E+03 0.  0.
<mgrwt>
<rscale>  0 0.12500000E+03</rscale>
<asrwt>0</asrwt>
<pdfrwt beam="1">  1       21 0.32864512E-01 0.12500000E+03</pdfrwt>
<pdfrwt beam="2">  1       21 0.28132358E-02 0.12500000E+03</pdfrwt>
<totfact> 0.61624872E+06</totfact>
</mgrwt>
</event>
<event>
 3    1  0.1620993E-001  0.1250000E+03  0.7546771E-02  0.1235069E+00
         21   -1    0    0  502  501  0.00000000000E+00  0.00000000000E+00  0.25309158850E+03  0.25309158850E+03  0.00000000000E+00 0. -1.
         21   -1    0    0  501  502 -0.00000000000E+00 -0.00000000000E+00 -0.15434136010E+02  0.15434136010E+02  0.00000000000E+00 0. -1.
         25    1    1    2    0    0  0.00000000000E+00  0.00000000000E+00  0.23765745249E+03  0.26852572451E+03  0.12500000000E+03 0.  0.
<mgrwt>
<rscale>  0 0.12500000E+03</rscale>
<asrwt>0</asrwt>
<pdfrwt beam="1">  1       21 0.38937164E-01 0.12500000E+03</pdfrwt>
<pdfrwt beam="2">  1       21 0.23744827E-02 0.12500000E+03</pdfrwt>
<totfact> 0.58176549E+06</totfact>
</mgrwt>
</event>
<event>
 3    1  0.1620993E-001  0.1250000E+03  0.7546771E-02  0.1235069E+00
         21   -1    0    0  502  501  0.00000000000E+00  0.00000000000E+00  0.19944038960E+03  0.19944038960E+03  0.00000000000E+00 0. -1.
         21   -1    0    0  501  502 -0.00000000000E+00 -0.00000000000E+00 -0.19586052795E+02  0.19586052795E+02  0.00000000000E+00 0. -1.
         25    1    1    2    0    0  0.00000000000E+00  0.00000000000E+00  0.17985433680E+03  0.21902644239E+03  0.12500000000E+03 0.  0.
<mgrwt>
<rscale>  0 0.12500000E+03</rscale>
<asrwt>0</asrwt>
<pdfrwt beam="1">  1       21 0.30683135E-01 0.12500000E+03</pdfrwt>
<pdfrwt beam="2">  1       21 0.30132390E-02 0.12500000E+03</pdfrwt>
<totfact> 0.62922185E+06</totfact>
</mgrwt>
</event>
<event>
 3    1  0.1620993E-001  0.1250000E+03  0.7546771E-02  0.1235069E+00
         21   -1    0    0  502  501  0.00000000000E+00  0.00000000000E+00  0.76175668419E+01  0.76175668419E+01  0.00000000000E+00 0.  1.
         21   -1    0    0  501  502 -0.00000000000E+00 -0.00000000000E+00 -0.51279497523E+03  0.51279497523E+03  0.00000000000E+00 0.  1.
         25    1    1    2    0    0  0.00000000000E+00  0.00000000000E+00 -0.50517740838E+03  0.52041254207E+03  0.12500000000E+03 0.  0.
<mgrwt>
<rscale>  0 0.12500000E+03</rscale>
<asrwt>0</asrwt>
<pdfrwt beam="1">  1       21 0.11719327E-02 0.12500000E+03</pdfrwt>
<pdfrwt beam="2">  1       21 0.78891576E-01 0.12500000E+03</pdfrwt>
<totfact> 0.40958243E+06</totfact>
</mgrwt>
</event>
<event>
 3    1  0.1620993E-001  0.1250000E+03  0.7546771E-02  0.1235069E+00
         21   -1    0    0  502  501  0.00000000000E+00  0.00000000000E+00  0.58514252957E+02  0.58514252957E+02  0.00000000000E+00 0.  1.
         21   -1    0    0  501  502 -0.00000000000E+00 -0.00000000000E+00 -0.66757239521E+02  0.66757239521E+02  0.00000000000E+00 0.  1.
         25    1    1    2    0    0  0.00000000000E+00  0.00000000000E+00 -0.82429865642E+01  0.12527149248E+03  0.12500000000E+03 0.  0.
<mgrwt>
<rscale>  0 0.12500000E+03</rscale>
<asrwt>0</asrwt>
<pdfrwt beam="1">  1       21 0.90021928E-02 0.12500000E+03</pdfrwt>
<pdfrwt beam="2">  1       21 0.10270345E-01 0.12500000E+03</pdfrwt>
<totfact> 0.74006920E+06</totfact>
</mgrwt>
</event>
<event>
 3    1  0.1620993E-001  0.1250000E+03  0.7546771E-02  0.1235069E+00
         21   -1    0    0  502  501  0.00000000000E+00  0.00000000000E+00  0.13649166448E+03  0.13649166448E+03  0.00000000000E+00 0. -1.
         21   -1    0    0  501  502 -0.00000000000E+00 -0.00000000000E+00 -0.28618963765E+02  0.28618963765E+02  0.00000000000E+00 0. -1.
         25    1    1    2    0    0  0.00000000000E+00  0.00000000000E+00  0.10787270071E+03  0.16511062824E+03  0.12500000000E+03 0.  0.
<mgrwt>
<rscale>  0 0.12500000E+03</rscale>
<asrwt>0</asrwt>
<pdfrwt beam="1">  1       21 0.20998717E-01 0.12500000E+03</pdfrwt>
<pdfrwt beam="2">  1       21 0.44029176E-02 0.12500000E+03</pdfrwt>
<totfact> 0.68900362E+06</totfact>
</mgrwt>
</event>
<event>
 3    1  0.1620993E-001  0.1250000E+03  0.7546771E-02  0.1235069E+00
         21   -1    0    0  502  501  0.00000000000E+00  0.00000000000E+00  0.15811282882E+02  0.15811282882E+02  0.00000000000E+00 0. -1.
         21   -1    0    0  501  502 -0.00000000000E+00 -0.00000000000E+00 -0.24705458938E+03  0.24705458938E+03  0.00000000000E+00 0. -1.
         25    1    1    2    0    0  0.00000000000E+00  0.00000000000E+00 -0.23124330650E+03  0.26286587226E+03  0.12500000000E+03 0.  0.
<mgrwt>
<rscale>  0 0.12500000E+03</rscale>
<asrwt>0</asrwt>
<pdfrwt beam="1">  1       21 0.24325053E-02 0.12500000E+03</pdfrwt>
<pdfrwt beam="2">  1       21 0.38008395E-01 0.12500000E+03</pdfrwt>
<totfact> 0.58687592E+06</totfact>
</mgrwt>
</event>
<event>
 3    1  0.1620993E-001  0.1250000E+03  0.7546771E-02  0.1235069E+00
         21   -1    0    0  502  501  0.00000000000E+00  0.00000000000E+00  0.11176785499E+03  0.11176785499E+03  0.00000000000E+00 0. -1.
         21   -1    0    0  501  502 -0.00000000000E+00 -0.00000000000E+00 -0.34949673146E+02  0.34949673146E+02  0.00000000000E+00 0. -1.
         25    1    1    2    0    0  0.00000000000E+00  0.00000000000E+00  0.76818181841E+02  0.14671752813E+03  0.12500000000E+03 0.  0.
<mgrwt>
<rscale>  0 0.12500000E+03</rscale>
<asrwt>0</asrwt>
<pdfrwt beam="1">  1       21 0.17195054E-01 0.12500000E+03</pdfrwt>
<pdfrwt beam="2">  1       21 0.53768729E-02 0.12500000E+03</pdfrwt>
<totfact> 0.71174017E+06</totfact>
</mgrwt>
</event>
<event>
 3    1  0.1620993E-001  0.1250000E+03  0.7546771E-02  0.1235069E+00
         21   -1    0    0  502  501  0.00000000000E+00  0.00000000000E+00  0.12522951270E+04  0.12522951270E+04  0.00000000000E+00 0.  1.
         21   -1    0    0  501  502 -0.00000000000E+00 -0.00000000000E+00 -0.31192726984E+01  0.31192726984E+01  0.00000000000E+00 0.  1.
         25    1    1    2    0    0  0.00000000000E+00  0.00000000000E+00  0.12491758543E+04  0.12554143997E+04  0.12500000000E+03 0.  0.
<mgrwt>
<rscale>  0 0.12500000E+03</rscale>
<asrwt>0</asrwt>
<pdfrwt beam="1">  1       21 0.19266039E+00 0.12500000E+03</pdfrwt>
<pdfrwt beam="2">  1       21 0.47988911E-03 0.12500000E+03</pdfrwt>
<totfact> 0.18072371E+06</totfact>
</mgrwt>
</event>
<event>
 3    1  0.1620993E-001  0.1250000E+03  0.7546771E-02  0.1235069E+00
         21   -1    0    0  502  501  0.00000000000E+00  0.00000000000E+00  0.37414183797E+03  0.37414183797E+03  0.00000000000E+00 0.  1.
         21   -1    0    0  501  502 -0.00000000000E+00 -0.00000000000E+00 -0.10440559177E+02  0.10440559177E+02  0.00000000000E+00 0.  1.
         25    1    1    2    0    0  0.00000000000E+00  0.00000000000E+00  0.36370127880E+03  0.38458239715E+03  0.12500000000E+03 0.  0.
<mgrwt>
<rscale>  0 0.12500000E+03</rscale>
<asrwt>0</asrwt>
<pdfrwt beam="1">  1       21 0.57560272E-01 0.12500000E+03</pdfrwt>
<pdfrwt beam="2">  1       21 0.16062402E-02 0.12500000E+03</pdfrwt>
<totfact> 0.49081086E+06</totfact>
</mgrwt>
</event>
<event>
 3    1  0.1620993E-001  0.1250000E+03  0.7546771E-02  0.1235069E+00
         21   -1    0    0  502  501  0.00000000000E+00  0.00000000000E+00  0.43383398827E+02  0.43383398827E+02  0.00000000000E+00 0. -1.
         21   -1    0    0  501  502 -0.00000000000E+00 -0.00000000000E+00 -0.90040202141E+02  0.90040202141E+02  0.00000000000E+00 0. -1.
         25    1    1    2    0    0  0.00000000000E+00  0.00000000000E+00 -0.46656803314E+02  0.13342360097E+03  0.12500000000E+03 0.  0.
<mgrwt>
<rscale>  0 0.12500000E+03</rscale>
<asrwt>0</asrwt>
<pdfrwt beam="1">  1       21 0.66743692E-02 0.12500000E+03</pdfrwt>
<pdfrwt beam="2">  1       21 0.13852339E-01 0.12500000E+03</pdfrwt>
<totfact> 0.72905885E+06</totfact>
</mgrwt>
</event>
<event>
 3    1  0.1620993E-001  0.1250000E+03  0.7546771E-02  0.1235069E+00
         21   -1    0    0  502  501  0.00000000000E+00  0.00000000000E+00  0.14058471811E+03  0.14058471811E+03  0.00000000000E+00 0.  1.
         21   -1    0    0  501  502 -0.00000000000E+00 -0.00000000000E+00 -0.27785736974E+02  0.27785736974E+02  0.00000000000E+00 0.  1.
         25    1    1    2    0    0  0.00000000000E+00  0.00000000000E+00  0.11279898113E+03  0.16837045508E+03  0.12500000000E+03 0.  0.
<mgrwt>
<rscale>  0 0.12500000E+03</rscale>
<asrwt>0</asrwt>
<pdfrwt beam="1">  1       21 0.21628418E-01 0.12500000E+03</pdfrwt>
<pdfrwt beam="2">  1       21 0.42747289E-02 0.12500000E+03</pdfrwt>
<totfact> 0.68510905E+06</totfact>
</mgrwt>
</event>
<event>
 3    1  0.1620993E-001  0.1250000E+03  0.7546771E-02  0.1235069E+00
         21   -1    0    0  502  501  0.00000000000E+00  0.00000000000E+00  0.16862873398E+02  0.16862873398E+02  0.00000000000E+00 0.  1.
         21   -1    0    0  501  502 -0.00000000000E+00 -0.00000000000E+00 -0.23164794681E+03  0.23164794681E+03  0.00000000000E+00 0.  1.
         25    1    1    2    0    0  0.00000000000E+00  0.00000000000E+00 -0.21478507341E+03  0.24851082021E+03  0.12500000000E+03 0.  0.
<mgrwt>
<rscale>  0 0.12500000E+03</rscale>
<asrwt>0</asrwt>
<pdfrwt beam="1">  1       21 0.25942881E-02 0.12500000E+03</pdfrwt>
<pdfrwt beam="2">  1       21 0.35638147E-01 0.12500000E+03</pdfrwt>
<totfact> 0.60018676E+06</totfact>
</mgrwt>
</event>
<event>
 3    1  0.1620993E-001  0.1250000E+03  0.7546771E-02  0.1235069E+00
         21   -1    0    0  502  501  0.00000000000E+00  0.00000000000E+00  0.48327305743E+02  0.48327305743E+02  0.00000000000E+00 0. -1.
         21   -1    0    0  501  502 -0.00000000000E+00 -0.00000000000E+00 -0.80829045607E+02  0.80829045607E+02  0.00000000000E+00 0. -1.
         25    1    1    2    0    0  0.00000000000E+00  0.00000000000E+00 -0.32501739864E+02  0.12915635135E+03  0.12500000000E+03 0.  0.
<mgrwt>
<rscale>  0 0.12500000E+03</rscale>
<asrwt>0</asrwt>
<pdfrwt beam="1">  1       21 0.74349702E-02 0.12500000E+03</pdfrwt>
<pdfrwt beam="2">  1       21 0.12435238E-01 0.12500000E+03</pdfrwt>
<totfact> 0.73477891E+06</totfact>
</mgrwt>
</event>
<event>
 3    1  0.1620993E-001  0.1250000E+03  0.7546771E-02  0.1235069E+00
         21   -1    0    0  502  501  0.00000000000E+00  0.00000000000E+00  0.18860871909E+02  0.18860871909E+02  0.00000000000E+00 0.  1.
         21   -1    0    0  501  502 -0.00000000000E+00 -0.00000000000E+00 -0.20710866490E+03  0.20710866490E+03  0.00000000000E+00 0.  1.
         25    1    1    2    0    0  0.00000000000E+00  0.00000000000E+00 -0.18824779299E+03  0.22596953681E+03  0.12500000000E+03 0.  0.
<mgrwt>
<rscale>  0 0.12500000E+03</rscale>
<asrwt>0</asrwt>
<pdfrwt beam="1">  1       21 0.29016728E-02 0.12500000E+03</pdfrwt>
<pdfrwt beam="2">  1       21 0.31862869E-01 0.12500000E+03</pdfrwt>
<totfact> 0.62217382E+06</totfact>
</mgrwt>
</event>
<event>
 3    1  0.1620993E-001  0.1250000E+03  0.7546771E-02  0.1235069E+00
         21   -1    0    0  502  501  0.00000000000E+00  0.00000000000E+00  0.10934203914E+02  0.10934203914E+02  0.00000000000E+00 0.  1.
         21   -1    0    0  501  502 -0.00000000000E+00 -0.00000000000E+00 -0.35725051687E+03  0.35725051687E+03  0.00000000000E+00 0.  1.
         25    1    1    2    0    0  0.00000000000E+00  0.00000000000E+00 -0.34631631295E+03  0.36818472078E+03  0.12500000000E+03 0.  0.
<mgrwt>
<rscale>  0 0.12500000E+03</rscale>
<asrwt>0</asrwt>
<pdfrwt beam="1">  1       21 0.16821851E-02 0.12500000E+03</pdfrwt>
<pdfrwt beam="2">  1       21 0.54961622E-01 0.12500000E+03</pdfrwt>
<totfact> 0.50222842E+06</totfact>
</mgrwt>
</event>
<event>
 3    1  0.1620993E-001  0.1250000E+03  0.7546771E-02  0.1235069E+00
         21   -1    0    0  502  501  0.00000000000E+00  0.00000000000E+00  0.59274445342E+03  0.59274445342E+03  0.00000000000E+00 0. -1.
         21   -1    0    0  501  502 -0.00000000000E+00 -0.00000000000E+00 -0.65901080600E+01  0.65901080600E+01  0.00000000000E+00 0. -1.
         25    1    1    2    0    0  0.00000000000E+00  0.00000000000E+00  0.58615434536E+03  0.59933456148E+03  0.12500000000E+03 0.  0.
<mgrwt>
<rscale>  0 0.12500000E+03</rscale>
<asrwt>0</asrwt>
<pdfrwt beam="1">  1       21 0.91191412E-01 0.12500000E+03</pdfrwt>
<pdfrwt beam="2">  1       21 0.10138632E-02 0.12500000E+03</pdfrwt>
<totfact> 0.37122754E+06</totfact>
</mgrwt>
</event>
<event>
 3    1  0.1620993E-001  0.1250000E+03  0.7546771E-02  0.1235069E+00
         21   -1    0    0  502  501  0.00000000000E+00  0.00000000000E+00  0.26152146603E+03  0.26152146603E+03  0.00000000000E+00 0. -1.
         21   -1    0    0  501  502 -0.00000000000E+00 -0.00000000000E+00 -0.14936632389E+02  0.14936632389E+02  0.00000000000E+00 0. -1.
         25    1    1    2    0    0  0.00000000000E+00  0.00000000000E+00  0.24658483364E+03  0.27645809842E+03  0.12500000000E+03 0.  0.
<mgrwt>
<rscale>  0 0.12500000E+03</rscale>
<asrwt>0</asrwt>
<pdfrwt beam="1">  1       21 0.40234069E-01 0.12500000E+03</pdfrwt>
<pdfrwt beam="2">  1       21 0.22979436E-02 0.12500000E+03</pdfrwt>
<totfact> 0.57471159E+06</totfact>
</mgrwt>
</event>
<event>
 3    1  0.1620993E-001  0.1250000E+03  0.7546771E-02  0.1235069E+00
         21   -1    0    0  502  501  0.00000000000E+00  0.00000000000E+00  0.25007925252E+02  0.25007925252E+02  0.00000000000E+00 0.  1.
         21   -1    0    0  501  502 -0.00000000000E+00 -0.00000000000E+00 -0.15620048287E+03  0.15620048287E+03  0.00000000000E+00 0.  1.
         25    1    1    2    0    0  0.00000000000E+00  0.00000000000E+00 -0.13119255762E+03  0.18120840812E+03  0.12500000000E+03 0.  0.
<mgrwt>
<rscale>  0 0.12500000E+03</rscale>
<asrwt>0</asrwt>
<pdfrwt beam="1">  1       21 0.38473731E-02 0.12500000E+03</pdfrwt>
<pdfrwt beam="2">  1       21 0.24030844E-01 0.12500000E+03</pdfrwt>
<totfact> 0.67013181E+06</totfact>
</mgrwt>
</event>
<event>
 3    1  0.1620993E-001  0.1250000E+03  0.7546771E-02  0.1235069E+00
         21   -1    0    0  502  501  0.00000000000E+00  0.00000000000E+00  0.78421669230E+02  0.78421669230E+02  0.00000000000E+00 0.  1.
         21   -1    0    0  501  502 -0.00000000000E+00 -0.00000000000E+00 -0.49810849965E+02  0.49810849965E+02  0.00000000000E+00 0.  1.
         25    1    1    2    0    0  0.00000000000E+00  0.00000000000E+00  0.28610819266E+02  0.12823251919E+03  0.12500000000E+03 0.  0.
<mgrwt>
<rscale>  0 0.12500000E+03</rscale>
<asrwt>0</asrwt>
<pdfrwt beam="1">  1       21 0.12064872E-01 0.12500000E+03</pdfrwt>
<pdfrwt beam="2">  1       21 0.76632077E-02 0.12500000E+03</pdfrwt>
<totfact> 0.73602172E+06</totfact>
</mgrwt>
</event>
<event>
 3    1  0.1620993E-001  0.1250000E+03  0.7546771E-02  0.1235069E+00
         21   -1    0    0  502  501  0.00000000000E+00  0.00000000000E+00  0.21752314327E+02  0.21752314327E+02  0.00000000000E+00 0.  1.
         21   -1    0    0  501  502 -0.00000000000E+00 -0.00000000000E+00 -0.17957859294E+03  0.17957859294E+03  0.00000000000E+00 0.  1.
         25    1    1    2    0    0  0.00000000000E+00  0.00000000000E+00 -0.15782627861E+03  0.20133090727E+03  0.12500000000E+03 0.  0.
<mgrwt>
<rscale>  0 0.12500000E+03</rscale>
<asrwt>0</asrwt>
<pdfrwt beam="1">  1       21 0.33465097E-02 0.12500000E+03</pdfrwt>
<pdfrwt beam="2">  1       21 0.27627477E-01 0.12500000E+03</pdfrwt>
<totfact> 0.64783323E+06</totfact>
</mgrwt>
</event>
<event>
 3    1  0.1620993E-001  0.1250000E+03  0.7546771E-02  0.1235069E+00
         21   -1    0    0  502  501  0.00000000000E+00  0.00000000000E+00  0.34232470213E+02  0.34232470213E+02  0.00000000000E+00 0.  1.
         21   -1    0    0  501  502 -0.00000000000E+00 -0.00000000000E+00 -0.11410949825E+03  0.11410949825E+03  0.00000000000E+00 0.  1.
         25    1    1    2    0    0  0.00000000000E+00  0.00000000000E+00 -0.79877028042E+02  0.14834196847E+03  0.12500000000E+03 0.  0.
<mgrwt>
<rscale>  0 0.12500000E+03</rscale>
<asrwt>0</asrwt>
<pdfrwt beam="1">  1       21 0.52665339E-02 0.12500000E+03</pdfrwt>
<pdfrwt beam="2">  1       21 0.17555307E-01 0.12500000E+03</pdfrwt>
<totfact> 0.70968106E+06</totfact>
</mgrwt>
</event>
<event>
 3    1  0.1620993E-001  0.1250000E+03  0.7546771E-02  0.1235069E+00
         21   -1    0    0  502  501  0.00000000000E+00  0.00000000000E+00  0.90808218319E+01  0.90808218319E+01  0.00000000000E+00 0. -1.
         21   -1    0    0  501  502 -0.00000000000E+00 -0.00000000000E+00 -0.43016481022E+03  0.43016481022E+03  0.00000000000E+00 0. -1.
         25    1    1    2    0    0  0.00000000000E+00  0.00000000000E+00 -0.42108398839E+03  0.43924563206E+03  0.12500000000E+03 0.  0.
<mgrwt>
<rscale>  0 0.12500000E+03</rscale>
<asrwt>0</asrwt>
<pdfrwt beam="1">  1       21 0.13970492E-02 0.12500000E+03</pdfrwt>
<pdfrwt beam="2">  1       21 0.66179215E-01 0.12500000E+03</pdfrwt>
<totfact> 0.45542687E+06</totfact>
</mgrwt>
</event>
<event>
 3    1  0.1620993E-001  0.1250000E+03  0.7546771E-02  0.1235069E+00
         21   -1    0    0  502  501  0.00000000000E+00  0.00000000000E+00  0.14574133759E+02  0.14574133759E+02  0.00000000000E+00 0.  1.
         21   -1    0    0  501  502 -0.00000000000E+00 -0.00000000000E+00 -0.26802622129E+03  0.26802622129E+03  0.00000000000E+00 0.  1.
         25    1    1    2    0    0  0.00000000000E+00  0.00000000000E+00 -0.25345208754E+03  0.28260035505E+03  0.12500000000E+03 0.  0.
<mgrwt>
<rscale>  0 0.12500000E+03</rscale>
<asrwt>0</asrwt>
<pdfrwt beam="1">  1       21 0.22421746E-02 0.12500000E+03</pdfrwt>
<pdfrwt beam="2">  1       21 0.41234800E-01 0.12500000E+03</pdfrwt>
<totfact> 0.56933879E+06</totfact>
</mgrwt>
</event>
<event>
 3    1  0.1620993E-001  0.1250000E+03  0.7546771E-02  0.1235069E+00
         21   -1    0    0  502  501  0.00000000000E+00  0.00000000000E+00  0.42149275312E+02  0.42149275312E+02  0.00000000000E+00 0. -1.
         21   -1    0    0  501  502 -0.00000000000E+00 -0.00000000000E+00 -0.92676563739E+02  0.92676563739E+02  0.00000000000E+00 0. -1.
         25    1    1    2    0    0  0.00000000000E+00  0.00000000000E+00 -0.50527288427E+02  0.13482583905E+03  0.12500000000E+03 0.  0.
<mgrwt>
<rscale>  0 0.12500000E+03</rscale>
<asrwt>0</asrwt>
<pdfrwt beam="1">  1       21 0.64845039E-02 0.12500000E+03</pdfrwt>
<pdfrwt beam="2">  1       21 0.14257933E-01 0.12500000E+03</pdfrwt>
<totfact> 0.72719540E+06</totfact>
</mgrwt>
</event>
<event>
 3    1  0.1620993E-001  0.1250000E+03  0.7546771E-02  0.1235069E+00
         21   -1    0    0  502  501  0.00000000000E+00  0.00000000000E+00  0.10409080708E+03  0.10409080708E+03  0.00000000000E+00 0.  1.
         21   -1    0    0  501  502 -0.00000000000E+00 -0.00000000000E+00 -0.37527329353E+02  0.37527329353E+02  0.00000000000E+00 0.  1.
         25    1    1    2    0    0  0.00000000000E+00  0.00000000000E+00  0.66563477729E+02  0.14161813644E+03  0.12500000000E+03 0.  0.
<mgrwt>
<rscale>  0 0.12500000E+03</rscale>
<asrwt>0</asrwt>
<pdfrwt beam="1">  1       21 0.16013970E-01 0.12500000E+03</pdfrwt>
<pdfrwt beam="2">  1       21 0.57734353E-02 0.12500000E+03</pdfrwt>
<totfact> 0.71828762E+06</totfact>
</mgrwt>
</event>
<event>
 3    1  0.1620993E-001  0.1250000E+03  0.7546771E-02  0.1235069E+00
         21   -1    0    0  502  501  0.00000000000E+00  0.00000000000E+00  0.45915073666E+03  0.45915073666E+03  0.00000000000E+00 0.  1.
         21   -1    0    0  501  502 -0.00000000000E+00 -0.00000000000E+00 -0.85075546833E+01  0.85075546833E+01  0.00000000000E+00 0.  1.
         25    1    1    2    0    0  0.00000000000E+00  0.00000000000E+00  0.45064318198E+03  0.46765829134E+03  0.12500000000E+03 0.  0.
<mgrwt>
<rscale>  0 0.12500000E+03</rscale>
<asrwt>0</asrwt>
<pdfrwt beam="1">  1       21 0.70638556E-01 0.12500000E+03</pdfrwt>
<pdfrwt beam="2">  1       21 0.13088549E-02 0.12500000E+03</pdfrwt>
<totfact> 0.43854156E+06</totfact>
</mgrwt>
</event>
<event>
 3    1  0.1620993E-001  0.1250000E+03  0.7546771E-02  0.1235069E+00
         21   -1    0    0  502  501  0.00000000000E+00  0.00000000000E+00  0.42794603129E+02  0.42794603129E+02  0.00000000000E+00 0. -1.
         21   -1    0    0  501  502 -0.00000000000E+00 -0.00000000000E+00 -0.91279033206E+02  0.91279033206E+02  0.00000000000E+00 0. -1.
         25    1    1    2    0    0  0.00000000000E+00  0.00000000000E+00 -0.48484430077E+02  0.13407363633E+03  0.12500000000E+03 0.  0.
<mgrwt>
<rscale>  0 0.12500000E+03</rscale>
<asrwt>0</asrwt>
<pdfrwt beam="1">  1       21 0.65837851E-02 0.12500000E+03</pdfrwt>
<pdfrwt beam="2">  1       21 0.14042928E-01 0.12500000E+03</pdfrwt>
<totfact> 0.72819364E+06</totfact>
</mgrwt>
</event>
<event>
 3    1  0.1620993E-001  0.1250000E+03  0.7546771E-02  0.1235069E+00
         21   -1    0    0  502  501  0.00000000000E+00  0.00000000000E+00  0.10234836328E+02  0.10234836328E+02  0.00000000000E+00 0.  1.
         21   -1    0    0  501  502 -0.00000000000E+00 -0.00000000000E+00 -0.38166218539E+03  0.38166218539E+03  0.00000000000E+00 0.  1.
         25    1    1    2    0    0  0.00000000000E+00  0.00000000000E+00 -0.37142734906E+03  0.39189702172E+03  0.12500000000E+03 0.  0.
<mgrwt>
<rscale>  0 0.12500000E+03</rscale>
<asrwt>0</asrwt>
<pdfrwt beam="1">  1       21 0.15745904E-02 0.12500000E+03</pdfrwt>
<pdfrwt beam="2">  1       21 0.58717254E-01 0.12500000E+03</pdfrwt>
<totfact> 0.48583500E+06</totfact>
</mgrwt>
</event>
<event>
 3    1  0.1620993E-001  0.1250000E+03  0.7546771E-02  0.1235069E+00
         21   -1    0    0  502  501  0.00000000000E+00  0.00000000000E+00  0.17456478646E+03  0.17456478646E+03  0.00000000000E+00 0.  1.
         21   -1    0    0  501  502 -0.00000000000E+00 -0.00000000000E+00 -0.22377078901E+02  0.22377078901E+02  0.00000000000E+00 0.  1.
         25    1    1    2    0    0  0.00000000000E+00  0.00000000000E+00  0.15218770756E+03  0.19694186536E+03  0.12500000000E+03 0.  0.
<mgrwt>
<rscale>  0 0.12500000E+03</rscale>
<asrwt>0</asrwt>
<pdfrwt beam="1">  1       21 0.26856120E-01 0.12500000E+03</pdfrwt>
<pdfrwt beam="2">  1       21 0.34426276E-02 0.12500000E+03</pdfrwt>
<totfact> 0.65259116E+06</totfact>
</mgrwt>
</event>
<event>
 3    1  0.1620993E-001  0.1250000E+03  0.7546771E-02  0.1235069E+00
         21   -1    0    0  502  501  0.00000000000E+00  0.00000000000E+00  0.29884847106E+02  0.29884847106E+02  0.00000000000E+00 0.  1.
         21   -1    0    0  501  502 -0.00000000000E+00 -0.00000000000E+00 -0.13071005470E+03  0.13071005470E+03  0.00000000000E+00 0.  1.
         25    1    1    2    0    0  0.00000000000E+00  0.00000000000E+00 -0.10082520760E+03  0.16059490181E+03  0.12500000000E+03 0.  0.
<mgrwt>
<rscale>  0 0.12500000E+03</rscale>
<asrwt>0</asrwt>
<pdfrwt beam="1">  1       21 0.45976688E-02 0.12500000E+03</pdfrwt>
<pdfrwt beam="2">  1       21 0.20109239E-01 0.12500000E+03</pdfrwt>
<totfact> 0.69446878E+06</totfact>
</mgrwt>
</event>
<event>
 3    1  0.1620993E-001  0.1250000E+03  0.7546771E-02  0.1235069E+00
         21   -1    0    0  502  501  0.00000000000E+00  0.00000000000E+00  0.42331501011E+03  0.42331501011E+03  0.00000000000E+00 0. -1.
         21   -1    0    0  501  502 -0.00000000000E+00 -0.00000000000E+00 -0.92277616117E+01  0.92277616117E+01  0.00000000000E+00 0. -1.
         25    1    1    2    0    0  0.00000000000E+00  0.00000000000E+00  0.41408724850E+03  0.43254277172E+03  0.12500000000E+03 0.  0.
<mgrwt>
<rscale>  0 0.12500000E+03</rscale>
<asrwt>0</asrwt>
<pdfrwt beam="1">  1       21 0.65125371E-01 0.12500000E+03</pdfrwt>
<pdfrwt beam="2">  1       21 0.14196560E-02 0.12500000E+03</pdfrwt>
<totfact> 0.45955166E+06</totfact>
</mgrwt>
</event>
<event>
 3    1  0.1620993E-001  0.1250000E+03  0.7546771E-02  0.1235069E+00
         21   -1    0    0  502  501  0.00000000000E+00  0.00000000000E+00  0.91795226036E+02  0.91795226036E+02  0.00000000000E+00 0. -1.
         21   -1    0    0  501  502 -0.00000000000E+00 -0.00000000000E+00 -0.42553955894E+02  0.42553955894E+02  0.00000000000E+00 0. -1.
         25    1    1    2    0    0  0.00000000000E+00  0.00000000000E+00  0.49241270143E+02  0.13434918193E+03  0.12500000000E+03 0.  0.
<mgrwt>
<rscale>  0 0.12500000E+03</rscale>
<asrwt>0</asrwt>
<pdfrwt beam="1">  1       21 0.14122342E-01 0.12500000E+03</pdfrwt>
<pdfrwt beam="2">  1       21 0.65467624E-02 0.12500000E+03</pdfrwt>
<totfact> 0.72782760E+06</totfact>
</mgrwt>
</event>
<event>
 3    1  0.1620993E-001  0.1250000E+03  0.7546771E-02  0.1235069E+00
         21   -1    0    0  502  501  0.00000000000E+00  0.00000000000E+00  0.15802069519E+03  0.15802069519E+03  0.00000000000E+00 0.  1.
         21   -1    0    0  501  502 -0.00000000000E+00 -0.00000000000E+00 -0.24719863404E+02  0.24719863404E+02  0.00000000000E+00 0.  1.
         25    1    1    2    0    0  0.00000000000E+00  0.00000000000E+00  0.13330083179E+03  0.18274055859E+03  0.12500000000E+03 0.  0.
<mgrwt>
<rscale>  0 0.12500000E+03</rscale>
<asrwt>0</asrwt>
<pdfrwt beam="1">  1       21 0.24310876E-01 0.12500000E+03</pdfrwt>
<pdfrwt beam="2">  1       21 0.38030560E-02 0.12500000E+03</pdfrwt>
<totfact> 0.66838531E+06</totfact>
</mgrwt>
</event>
<event>
 3    1  0.1620993E-001  0.1250000E+03  0.7546771E-02  0.1235069E+00
         21   -1    0    0  502  501  0.00000000000E+00  0.00000000000E+00  0.29922922712E+01  0.29922922712E+01  0.00000000000E+00 0. -1.
         21   -1    0    0  501  502 -0.00000000000E+00 -0.00000000000E+00 -0.13054373189E+04  0.13054373189E+04  0.00000000000E+00 0. -1.
         25    1    1    2    0    0  0.00000000000E+00  0.00000000000E+00 -0.13024450267E+04  0.13084296112E+04  0.12500000000E+03 0.  0.
<mgrwt>
<rscale>  0 0.12500000E+03</rscale>
<asrwt>0</asrwt>
<pdfrwt beam="1">  1       21 0.46035367E-03 0.12500000E+03</pdfrwt>
<pdfrwt beam="2">  1       21 0.20083607E+00 0.12500000E+03</pdfrwt>
<totfact> 0.17101708E+06</totfact>
</mgrwt>
</event>
<event>
 3    1  0.1620993E-001  0.1250000E+03  0.7546771E-02  0.1235069E+00
         21   -1    0    0  502  501  0.00000000000E+00  0.00000000000E+00  0.29889090117E+03  0.29889090117E+03  0.00000000000E+00 0.  1.
         21   -1    0    0  501  502 -0.00000000000E+00 -0.00000000000E+00 -0.13069149930E+02  0.13069149930E+02  0.00000000000E+00 0.  1.
         25    1    1    2    0    0  0.00000000000E+00  0.00000000000E+00  0.28582175124E+03  0.31196005110E+03  0.12500000000E+03 0.  0.
<mgrwt>
<rscale>  0 0.12500000E+03</rscale>
<asrwt>0</asrwt>
<pdfrwt beam="1">  1       21 0.45983210E-01 0.12500000E+03</pdfrwt>
<pdfrwt beam="2">  1       21 0.20106387E-02 0.12500000E+03</pdfrwt>
<totfact> 0.54476666E+06</totfact>
</mgrwt>
</event>
<event>
 3    1  0.1620993E-001  0.1250000E+03  0.7546771E-02  0.1235069E+00
         21   -1    0    0  502  501  0.00000000000E+00  0.00000000000E+00  0.46024547945E+01  0.46024547945E+01  0.00000000000E+00 0.  1.
         21   -1    0    0  501  502 -0.00000000000E+00 -0.00000000000E+00 -0.84873185602E+03  0.84873185602E+03  0.00000000000E+00 0.  1.
         25    1    1    2    0    0  0.00000000000E+00  0.00000000000E+00 -0.84412940123E+03  0.85333431082E+03  0.12500000000E+03 0.  0.
<mgrwt>
<rscale>  0 0.12500000E+03</rscale>
<asrwt>0</asrwt>
<pdfrwt beam="1">  1       21 0.70806990E-03 0.12500000E+03</pdfrwt>
<pdfrwt beam="2">  1       21 0.13057414E+00 0.12500000E+03</pdfrwt>
<totfact> 0.27670127E+06</totfact>
</mgrwt>
</event>
<event>
 3    1  0.1620993E-001  0.1250000E+03  0.7546771E-02  0.1235069E+00
         21   -1    0    0  502  501  0.00000000000E+00  0.00000000000E+00  0.94957929490E+02  0.94957929490E+02  0.00000000000E+00 0. -1.
         21   -1    0    0  501  502 -0.00000000000E+00 -0.00000000000E+00 -0.41136638309E+02  0.41136638309E+02  0.00000000000E+00 0. -1.
         25    1    1    2    0    0  0.00000000000E+00  0.00000000000E+00  0.53821291181E+02  0.13609456780E+03  0.12500000000E+03 0.  0.
<mgrwt>
<rscale>  0 0.12500000E+03</rscale>
<asrwt>0</asrwt>
<pdfrwt beam="1">  1       21 0.14608912E-01 0.12500000E+03</pdfrwt>
<pdfrwt beam="2">  1       21 0.63287136E-02 0.12500000E+03</pdfrwt>
<totfact> 0.72551867E+06</totfact>
</mgrwt>
</event>
<event>
 3    1  0.1620993E-001  0.1250000E+03  0.7546771E-02  0.1235069E+00
         21   -1    0    0  502  501  0.00000000000E+00  0.00000000000E+00  0.17244151656E+03  0.17244151656E+03  0.00000000000E+00 0.  1.
         21   -1    0    0  501  502 -0.00000000000E+00 -0.00000000000E+00 -0.22652607550E+02  0.22652607550E+02  0.00000000000E+00 0.  1.
         25    1    1    2    0    0  0.00000000000E+00  0.00000000000E+00  0.14978890902E+03  0.19509412411E+03  0.12500000000E+03 0.  0.
<mgrwt>
<rscale>  0 0.12500000E+03</rscale>
<asrwt>0</asrwt>
<pdfrwt beam="1">  1       21 0.26529463E-01 0.12500000E+03</pdfrwt>
<pdfrwt beam="2">  1       21 0.34850167E-02 0.12500000E+03</pdfrwt>
<totfact> 0.65460723E+06</totfact>
</mgrwt>
</event>
<event>
 3    1  0.1620993E-001  0.1250000E+03  0.7546771E-02  0.1235069E+00
         21   -1    0    0  502  501  0.00000000000E+00  0.00000000000E+00  0.20597040929E+02  0.20597040929E+02  0.00000000000E+00 0. -1.
         21   -1    0    0  501  502 -0.00000000000E+00 -0.00000000000E+00 -0.18965102868E+03  0.18965102868E+03  0.00000000000E+00 0. -1.
         25    1    1    2    0    0  0.00000000000E+00  0.00000000000E+00 -0.16905398775E+03  0.21024806961E+03  0.12500000000E+03 0.  0.
<mgrwt>
<rscale>  0 0.12500000E+03</rscale>
<asrwt>0</asrwt>
<pdfrwt beam="1">  1       21 0.31687755E-02 0.12500000E+03</pdfrwt>
<pdfrwt beam="2">  1       21 0.29177081E-01 0.12500000E+03</pdfrwt>
<totfact> 0.63833445E+06</totfact>
</mgrwt>
</event>
<event>
 3    1  0.1620993E-001  0.1250000E+03  0.7546771E-02  0.1235069E+00
         21   -1    0    0  502  501  0.00000000000E+00  0.00000000000E+00  0.48223165389E+02  0.48223165389E+02  0.00000000000E+00 0. -1.
         21   -1    0    0  501  502 -0.00000000000E+00 -0.00000000000E+00 -0.81003600002E+02  0.81003600002E+02  0.00000000000E+00 0. -1.
         25    1    1    2    0    0  0.00000000000E+00  0.00000000000E+00 -0.32780434614E+02  0.12922676539E+03  0.12500000000E+03 0.  0.
<mgrwt>
<rscale>  0 0.12500000E+03</rscale>
<asrwt>0</asrwt>
<pdfrwt beam="1">  1       21 0.74189486E-02 0.12500000E+03</pdfrwt>
<pdfrwt beam="2">  1       21 0.12462092E-01 0.12500000E+03</pdfrwt>
<totfact> 0.73468444E+06</totfact>
</mgrwt>
</event>
<event>
 3    1  0.1620993E-001  0.1250000E+03  0.7546771E-02  0.1235069E+00
         21   -1    0    0  502  501  0.00000000000E+00  0.00000000000E+00  0.59049159544E+03  0.59049159544E+03  0.00000000000E+00 0.  1.
         21   -1    0    0  501  502 -0.00000000000E+00 -0.00000000000E+00 -0.66152508015E+01  0.66152508015E+01  0.00000000000E+00 0.  1.
         25    1    1    2    0    0  0.00000000000E+00  0.00000000000E+00  0.58387634464E+03  0.59710684624E+03  0.12500000000E+03 0.  0.
<mgrwt>
<rscale>  0 0.12500000E+03</rscale>
<asrwt>0</asrwt>
<pdfrwt beam="1">  1       21 0.90844819E-01 0.12500000E+03</pdfrwt>
<pdfrwt beam="2">  1       21 0.10177314E-02 0.12500000E+03</pdfrwt>
<totfact> 0.37223810E+06</totfact>
</mgrwt>
</event>
<event>
 3    1  0.1620993E-001  0.1250000E+03  0.7546771E-02  0.1235069E+00
         21   -1    0    0  502  501  0.00000000000E+00  0.00000000000E+00  0.67901915674E+01  0.67901915674E+01  0.00000000000E+00 0. -1.
         21   -1    0    0  501  502 -0.00000000000E+00 -0.00000000000E+00 -0.57527832038E+03  0.57527832038E+03  0.00000000000E+00 0. -1.
         25    1    1    2    0    0  0.00000000000E+00  0.00000000000E+00 -0.56848812882E+03  0.58206851195E+03  0.12500000000E+03 0.  0.
<mgrwt>
<rscale>  0 0.12500000E+03</rscale>
<asrwt>0</asrwt>
<pdfrwt beam="1">  1       21 0.10446439E-02 0.12500000E+03</pdfrwt>
<pdfrwt beam="2">  1       21 0.88504442E-01 0.12500000E+03</pdfrwt>
<totfact> 0.37916295E+06</totfact>
</mgrwt>
</event>
<event>
 3    1  0.1620993E-001  0.1250000E+03  0.7546771E-02  0.1235069E+00
         21   -1    0    0  502  501  0.00000000000E+00  0.00000000000E+00  0.33431325825E+02  0.33431325825E+02  0.00000000000E+00 0.  1.
         21   -1    0    0  501  502 -0.00000000000E+00 -0.00000000000E+00 -0.11684400494E+03  0.11684400494E+03  0.00000000000E+00 0.  1.
         25    1    1    2    0    0  0.00000000000E+00  0.00000000000E+00 -0.83412679117E+02  0.15027533077E+03  0.12500000000E+03 0.  0.
<mgrwt>
<rscale>  0 0.12500000E+03</rscale>
<asrwt>0</asrwt>
<pdfrwt beam="1">  1       21 0.51432808E-02 0.12500000E+03</pdfrwt>
<pdfrwt beam="2">  1       21 0.17976001E-01 0.12500000E+03</pdfrwt>
<totfact> 0.70724632E+06</totfact>
</mgrwt>
</event>
<event>
 3    1  0.1620993E-001  0.1250000E+03  0.7546771E-02  0.1235069E+00
         21   -1    0    0  502  501  0.00000000000E+00  0.00000000000E+00  0.89749377869E+03  0.89749377869E+03  0.00000000000E+00 0.  1.
         21   -1    0    0  501  502 -0.00000000000E+00 -0.00000000000E+00 -0.43523978581E+01  0.43523978581E+01  0.00000000000E+00 0.  1.
         25    1    1    2    0    0  0.00000000000E+00  0.00000000000E+00  0.89314138083E+03  0.90184617655E+03  0.12500000000E+03 0.  0.
<mgrwt>
<rscale>  0 0.12500000E+03</rscale>
<asrwt>0</asrwt>
<pdfrwt beam="1">  1       21 0.13807582E+00 0.12500000E+03</pdfrwt>
<pdfrwt beam="2">  1       21 0.66960038E-03 0.12500000E+03</pdfrwt>
<totfact> 0.26246126E+06</totfact>
</mgrwt>
</event>
<event>
 3    1  0.1620993E-001  0.1250000E+03  0.7546771E-02  0.1235069E+00
         21   -1    0    0  502  501  0.00000000000E+00  0.00000000000E+00  0.10079358220E+03  0.10079358220E+03  0.00000000000E+00 0.  1.
         21   -1    0    0  501  502 -0.00000000000E+00 -0.00000000000E+00 -0.38754947635E+02  0.38754947635E+02  0.00000000000E+00 0.  1.
         25    1    1    2    0    0  0.00000000000E+00  0.00000000000E+00  0.62038634563E+02  0.13954852983E+03  0.12500000000E+03 0.  0.
<mgrwt>
<rscale>  0 0.12500000E+03</rscale>
<asrwt>0</asrwt>
<pdfrwt beam="1">  1       21 0.15506705E-01 0.12500000E+03</pdfrwt>
<pdfrwt beam="2">  1       21 0.59622997E-02 0.12500000E+03</pdfrwt>
<totfact> 0.72098301E+06</totfact>
</mgrwt>
</event>
<event>
 3    1  0.1620993E-001  0.1250000E+03  0.7546771E-02  0.1235069E+00
         21   -1    0    0  502  501  0.00000000000E+00  0.00000000000E+00  0.40717697899E+02  0.40717697899E+02  0.00000000000E+00 0.  1.
         21   -1    0    0  501  502 -0.00000000000E+00 -0.00000000000E+00 -0.95934942335E+02  0.95934942335E+02  0.00000000000E+00 0.  1.
         25    1    1    2    0    0  0.00000000000E+00  0.00000000000E+00 -0.55217244436E+02  0.13665264023E+03  0.12500000000E+03 0.  0.
<mgrwt>
<rscale>  0 0.12500000E+03</rscale>
<asrwt>0</asrwt>
<pdfrwt beam="1">  1       21 0.62642613E-02 0.12500000E+03</pdfrwt>
<pdfrwt beam="2">  1       21 0.14759222E-01 0.12500000E+03</pdfrwt>
<totfact> 0.72478383E+06</totfact>
</mgrwt>
</event>
<event>
 3    1  0.1620993E-001  0.1250000E+03  0.7546771E-02  0.1235069E+00
         21   -1    0    0  502  501  0.00000000000E+00  0.00000000000E+00  0.12095818236E+04  0.12095818236E+04  0.00000000000E+00 0. -1.
         21   -1    0    0  501  502 -0.00000000000E+00 -0.00000000000E+00 -0.32294218743E+01  0.32294218743E+01  0.00000000000E+00 0. -1.
         25    1    1    2    0    0  0.00000000000E+00  0.00000000000E+00  0.12063524018E+04  0.12128112455E+04  0.12500000000E+03 0.  0.
<mgrwt>
<rscale>  0 0.12500000E+03</rscale>
<asrwt>0</asrwt>
<pdfrwt beam="1">  1       21 0.18608915E+00 0.12500000E+03</pdfrwt>
<pdfrwt beam="2">  1       21 0.49683510E-03 0.12500000E+03</pdfrwt>
<totfact> 0.18889966E+06</totfact>
</mgrwt>
</event>
<event>
 3    1  0.1620993E-001  0.1250000E+03  0.7546771E-02  0.1235069E+00
         21   -1    0    0  502  501  0.00000000000E+00  0.00000000000E+00  0.12395989372E+03  0.12395989372E+03  0.00000000000E+00 0.  1.
         21   -1    0    0  501  502 -0.00000000000E+00 -0.00000000000E+00 -0.31512208367E+02  0.31512208367E+02  0.00000000000E+00 0.  1.
         25    1    1    2    0    0  0.00000000000E+00  0.00000000000E+00  0.92447685350E+02  0.15547210208E+03  0.12500000000E+03 0.  0.
<mgrwt>
<rscale>  0 0.12500000E+03</rscale>
<asrwt>0</asrwt>
<pdfrwt beam="1">  1       21 0.19070753E-01 0.12500000E+03</pdfrwt>
<pdfrwt beam="2">  1       21 0.48480321E-02 0.12500000E+03</pdfrwt>
<totfact> 0.70077030E+06</totfact>
</mgrwt>
</event>
<event>
 3    1  0.1620993E-001  0.1250000E+03  0.7546771E-02  0.1235069E+00
         21   -1    0    0  502  501  0.00000000000E+00  0.00000000000E+00  0.54802323682E+01  0.54802323682E+01  0.00000000000E+00 0.  1.
         21   -1    0    0  501  502 -0.00000000000E+00 -0.00000000000E+00 -0.71278911870E+03  0.71278911870E+03  0.00000000000E+00 0.  1.
         25    1    1    2    0    0  0.00000000000E+00  0.00000000000E+00 -0.70730888633E+03  0.71826935107E+03  0.12500000000E+03 0.  0.
<mgrwt>
<rscale>  0 0.12500000E+03</rscale>
<asrwt>0</asrwt>
<pdfrwt beam="1">  1       21 0.84311304E-03 0.12500000E+03</pdfrwt>
<pdfrwt beam="2">  1       21 0.10965982E+00 0.12500000E+03</pdfrwt>
<totfact> 0.32217602E+06</totfact>
</mgrwt>
</event>
<event>
 3    1  0.1620993E-001  0.1250000E+03  0.7546771E-02  0.1235069E+00
         21   -1    0    0  502  501  0.00000000000E+00  0.00000000000E+00  0.13849676127E+03  0.13849676127E+03  0.00000000000E+00 0.  1.
         21   -1    0    0  501  502 -0.00000000000E+00 -0.00000000000E+00 -0.28204630665E+02  0.28204630665E+02  0.00000000000E+00 0.  1.
         25    1    1    2    0    0  0.00000000000E+00  0.00000000000E+00  0.11029213061E+03  0.16670139194E+03  0.12500000000E+03 0.  0.
<mgrwt>
<rscale>  0 0.12500000E+03</rscale>
<asrwt>0</asrwt>
<pdfrwt beam="1">  1       21 0.21307194E-01 0.12500000E+03</pdfrwt>
<pdfrwt beam="2">  1       21 0.43391740E-02 0.12500000E+03</pdfrwt>
<totfact> 0.68709788E+06</totfact>
</mgrwt>
</event>
<event>
 3    1  0.1620993E-001  0.1250000E+03  0.7546771E-02  0.1235069E+00
         21   -1    0    0  502  501  0.00000000000E+00  0.00000000000E+00  0.18533950133E+02  0.18533950133E+02  0.00000000000E+00 0.  1.
         21   -1    0    0  501  502 -0.00000000000E+00 -0.00000000000E+00 -0.21076187062E+03  0.21076187062E+03  0.00000000000E+00 0.  1.
         25    1    1    2    0    0  0.00000000000E+00  0.00000000000E+00 -0.19222792048E+03  0.22929582075E+03  0.12500000000E+03 0.  0.
<mgrwt>
<rscale>  0 0.12500000E+03</rscale>
<asrwt>0</asrwt>
<pdfrwt beam="1">  1       21 0.28513769E-02 0.12500000E+03</pdfrwt>
<pdfrwt beam="2">  1       21 0.32424904E-01 0.12500000E+03</pdfrwt>
<totfact> 0.61884127E+06</totfact>
</mgrwt>
</event>
<event>
 3    1  0.1620993E-001  0.1250000E+03  0.7546771E-02  0.1235069E+00
         21   -1    0    0  502  501  0.00000000000E+00  0.00000000000E+00  0.42131283033E+01  0.42131283033E+01  0.00000000000E+00 0. -1.
         21   -1    0    0  501  502 -0.00000000000E+00 -0.00000000000E+00 -0.92716141518E+03  0.92716141518E+03  0.00000000000E+00 0. -1.
         25    1    1    2    0    0  0.00000000000E+00  0.00000000000E+00 -0.92294828688E+03  0.93137454349E+03  0.12500000000E+03 0.  0.
<mgrwt>
<rscale>  0 0.12500000E+03</rscale>
<asrwt>0</asrwt>
<pdfrwt beam="1">  1       21 0.64817374E-03 0.12500000E+03</pdfrwt>
<pdfrwt beam="2">  1       21 0.14264018E+00 0.12500000E+03</pdfrwt>
<totfact> 0.25416803E+06</totfact>
</mgrwt>
</event>
<event>
 3    1  0.1620993E-001  0.1250000E+03  0.7546771E-02  0.1235069E+00
         21   -1    0    0  502  501  0.00000000000E+00  0.00000000000E+00  0.16573556976E+02  0.16573556976E+02  0.00000000000E+00 0.  1.
         21   -1    0    0  501  502 -0.00000000000E+00 -0.00000000000E+00 -0.23569171094E+03  0.23569171094E+03  0.00000000000E+00 0.  1.
         25    1    1    2    0    0  0.00000000000E+00  0.00000000000E+00 -0.21911815397E+03  0.25226526792E+03  0.12500000000E+03 0.  0.
<mgrwt>
<rscale>  0 0.12500000E+03</rscale>
<asrwt>0</asrwt>
<pdfrwt beam="1">  1       21 0.25497781E-02 0.12500000E+03</pdfrwt>
<pdfrwt beam="2">  1       21 0.36260262E-01 0.12500000E+03</pdfrwt>
<totfact> 0.59665571E+06</totfact>
</mgrwt>
</event>
<event>
 3    1  0.1620993E-001  0.1250000E+03  0.7546771E-02  0.1235069E+00
         21   -1    0    0  502  501  0.00000000000E+00  0.00000000000E+00  0.31094493719E+01  0.31094493719E+01  0.00000000000E+00 0.  1.
         21   -1    0    0  501  502 -0.00000000000E+00 -0.00000000000E+00 -0.12562513593E+04  0.12562513593E+04  0.00000000000E+00 0.  1.
         25    1    1    2    0    0  0.00000000000E+00  0.00000000000E+00 -0.12531419099E+04  0.12593608086E+04  0.12500000000E+03 0.  0.
<mgrwt>
<rscale>  0 0.12500000E+03</rscale>
<asrwt>0</asrwt>
<pdfrwt beam="1">  1       21 0.47837675E-03 0.12500000E+03</pdfrwt>
<pdfrwt beam="2">  1       21 0.19326947E+00 0.12500000E+03</pdfrwt>
<totfact> 0.17998147E+06</totfact>
</mgrwt>
</event>
<event>
 3    1  0.1620993E-001  0.1250000E+03  0.7546771E-02  0.1235069E+00
         21   -1    0    0  502  501  0.00000000000E+00  0.00000000000E+00  0.21083846447E+03  0.21083846447E+03  0.00000000000E+00 0.  1.
         21   -1    0    0  501  502 -0.00000000000E+00 -0.00000000000E+00 -0.18527217080E+02  0.18527217080E+02  0.00000000000E+00 0.  1.
         25    1    1    2    0    0  0.00000000000E+00  0.00000000000E+00  0.19231124738E+03  0.22936568155E+03  0.12500000000E+03 0.  0.
<mgrwt>
<rscale>  0 0.12500000E+03</rscale>
<asrwt>0</asrwt>
<pdfrwt beam="1">  1       21 0.32436685E-01 0.12500000E+03</pdfrwt>
<pdfrwt beam="2">  1       21 0.28503412E-02 0.12500000E+03</pdfrwt>
<totfact> 0.61877163E+06</totfact>
</mgrwt>
</event>
<event>
 3    1  0.1620993E-001  0.1250000E+03  0.7546771E-02  0.1235069E+00
         21   -1    0    0  502  501  0.00000000000E+00  0.00000000000E+00  0.11260386203E+03  0.11260386203E+03  0.00000000000E+00 0.  1.
         21   -1    0    0  501  502 -0.00000000000E+00 -0.00000000000E+00 -0.34690195606E+02  0.34690195606E+02  0.00000000000E+00 0.  1.
         25    1    1    2    0    0  0.00000000000E+00  0.00000000000E+00  0.77913666428E+02  0.14729405764E+03  0.12500000000E+03 0.  0.
<mgrwt>
<rscale>  0 0.12500000E+03</rscale>
<asrwt>0</asrwt>
<pdfrwt beam="1">  1       21 0.17323671E-01 0.12500000E+03</pdfrwt>
<pdfrwt beam="2">  1       21 0.53369532E-02 0.12500000E+03</pdfrwt>
<totfact> 0.71100795E+06</totfact>
</mgrwt>
</event>
<event>
 3    1  0.1620993E-001  0.1250000E+03  0.7546771E-02  0.1235069E+00
         21   -1    0    0  502  501  0.00000000000E+00  0.00000000000E+00  0.21703518634E+03  0.21703518634E+03  0.00000000000E+00 0. -1.
         21   -1    0    0  501  502 -0.00000000000E+00 -0.00000000000E+00 -0.17998233678E+02  0.17998233678E+02  0.00000000000E+00 0. -1.
         25    1    1    2    0    0  0.00000000000E+00  0.00000000000E+00  0.19903695266E+03  0.23503342002E+03  0.12500000000E+03 0.  0.
<mgrwt>
<rscale>  0 0.12500000E+03</rscale>
<asrwt>0</asrwt>
<pdfrwt beam="1">  1       21 0.33390027E-01 0.12500000E+03</pdfrwt>
<pdfrwt beam="2">  1       21 0.27689592E-02 0.12500000E+03</pdfrwt>
<totfact> 0.61316606E+06</totfact>
</mgrwt>
</event>
<event>
 3    1  0.1620993E-001  0.1250000E+03  0.7546771E-02  0.1235069E+00
         21   -1    0    0  502  501  0.00000000000E+00  0.00000000000E+00  0.61611186310E+02  0.61611186310E+02  0.00000000000E+00 0. -1.
         21   -1    0    0  501  502 -0.00000000000E+00 -0.00000000000E+00 -0.63401635871E+02  0.63401635871E+02  0.00000000000E+00 0. -1.
         25    1    1    2    0    0  0.00000000000E+00  0.00000000000E+00 -0.17904495615E+01  0.12501282218E+03  0.12500000000E+03 0.  0.
<mgrwt>
<rscale>  0 0.12500000E+03</rscale>
<asrwt>0</asrwt>
<pdfrwt beam="1">  1       21 0.94786441E-02 0.12500000E+03</pdfrwt>
<pdfrwt beam="2">  1       21 0.97540977E-02 0.12500000E+03</pdfrwt>
<totfact> 0.74041850E+06</totfact>
</mgrwt>
</event>
<event>
 3    1  0.1620993E-001  0.1250000E+03  0.7546771E-02  0.1235069E+00
         21   -1    0    0  502  501  0.00000000000E+00  0.00000000000E+00  0.23976767066E+02  0.23976767066E+02  0.00000000000E+00 0.  1.
         21   -1    0    0  501  502 -0.00000000000E+00 -0.00000000000E+00 -0.16291812776E+03  0.16291812776E+03  0.00000000000E+00 0.  1.
         25    1    1    2    0    0  0.00000000000E+00  0.00000000000E+00 -0.13894136069E+03  0.18689489482E+03  0.12500000000E+03 0.  0.
<mgrwt>
<rscale>  0 0.12500000E+03</rscale>
<asrwt>0</asrwt>
<pdfrwt beam="1">  1       21 0.36887335E-02 0.12500000E+03</pdfrwt>
<pdfrwt beam="2">  1       21 0.25064327E-01 0.12500000E+03</pdfrwt>
<totfact> 0.66369242E+06</totfact>
</mgrwt>
</event>
<event>
 3    1  0.1620993E-001  0.1250000E+03  0.7546771E-02  0.1235069E+00
         21   -1    0    0  502  501  0.00000000000E+00  0.00000000000E+00  0.11495217591E+04  0.11495217591E+04  0.00000000000E+00 0.  1.
         21   -1    0    0  501  502 -0.00000000000E+00 -0.00000000000E+00 -0.33981522918E+01  0.33981522918E+01  0.00000000000E+00 0.  1.
         25    1    1    2    0    0  0.00000000000E+00  0.00000000000E+00  0.11461236068E+04  0.11529199113E+04  0.12500000000E+03 0.  0.
<mgrwt>
<rscale>  0 0.12500000E+03</rscale>
<asrwt>0</asrwt>
<pdfrwt beam="1">  1       21 0.17684919E+00 0.12500000E+03</pdfrwt>
<pdfrwt beam="2">  1       21 0.52279357E-03 0.12500000E+03</pdfrwt>
<totfact> 0.20107638E+06</totfact>
</mgrwt>
</event>
<event>
 3    1  0.1620993E-001  0.1250000E+03  0.7546771E-02  0.1235069E+00
         21   -1    0    0  502  501  0.00000000000E+00  0.00000000000E+00  0.10339745649E+02  0.10339745649E+02  0.00000000000E+00 0.  1.
         21   -1    0    0  501  502 -0.00000000000E+00 -0.00000000000E+00 -0.37778975737E+03  0.37778975737E+03  0.00000000000E+00 0.  1.
         25    1    1    2    0    0  0.00000000000E+00  0.00000000000E+00 -0.36745001172E+03  0.38812950302E+03  0.12500000000E+03 0.  0.
<mgrwt>
<rscale>  0 0.12500000E+03</rscale>
<asrwt>0</asrwt>
<pdfrwt beam="1">  1       21 0.15907303E-02 0.12500000E+03</pdfrwt>
<pdfrwt beam="2">  1       21 0.58121493E-01 0.12500000E+03</pdfrwt>
<totfact> 0.48838807E+06</totfact>
</mgrwt>
</event>
<event>
 3    1  0.1620993E-001  0.1250000E+03  0.7546771E-02  0.1235069E+00
         21   -1    0    0  502  501  0.00000000000E+00  0.00000000000E+00  0.12638794038E+03  0.12638794038E+03  0.00000000000E+00 0.  1.
         21   -1    0    0  501  502 -0.00000000000E+00 -0.00000000000E+00 -0.30906825352E+02  0.30906825352E+02  0.00000000000E+00 0.  1.
         25    1    1    2    0    0  0.00000000000E+00  0.00000000000E+00  0.95481115033E+02  0.15729476574E+03  0.12500000000E+03 0.  0.
<mgrwt>
<rscale>  0 0.12500000E+03</rscale>
<asrwt>0</asrwt>
<pdfrwt beam="1">  1       21 0.19444298E-01 0.12500000E+03</pdfrwt>
<pdfrwt beam="2">  1       21 0.47548963E-02 0.12500000E+03</pdfrwt>
<totfact> 0.69851566E+06</totfact>
</mgrwt>
</event>
<event>
 3    1  0.1620993E-001  0.1250000E+03  0.7546771E-02  0.1235069E+00
         21   -1    0    0  502  501  0.00000000000E+00  0.00000000000E+00  0.33724190899E+03  0.33724190899E+03  0.00000000000E+00 0.  1.
         21   -1    0    0  501  502 -0.00000000000E+00 -0.00000000000E+00 -0.11582931705E+02  0.11582931705E+02  0.00000000000E+00 0.  1.
         25    1    1    2    0    0  0.00000000000E+00  0.00000000000E+00  0.32565897728E+03  0.34882484070E+03  0.12500000000E+03 0.  0.
<mgrwt>
<rscale>  0 0.12500000E+03</rscale>
<asrwt>0</asrwt>
<pdfrwt beam="1">  1       21 0.51883363E-01 0.12500000E+03</pdfrwt>
<pdfrwt beam="2">  1       21 0.17819897E-02 0.12500000E+03</pdfrwt>
<totfact> 0.51625341E+06</totfact>
</mgrwt>
</event>
<event>
 3    1  0.1620993E-001  0.1250000E+03  0.7546771E-02  0.1235069E+00
         21   -1    0    0  502  501  0.00000000000E+00  0.00000000000E+00  0.71813090421E+02  0.71813090421E+02  0.00000000000E+00 0.  1.
         21   -1    0    0  501  502 -0.00000000000E+00 -0.00000000000E+00 -0.54394678980E+02  0.54394678980E+02  0.00000000000E+00 0.  1.
         25    1    1    2    0    0  0.00000000000E+00  0.00000000000E+00  0.17418411441E+02  0.12620776940E+03  0.12500000000E+03 0.  0.
<mgrwt>
<rscale>  0 0.12500000E+03</rscale>
<asrwt>0</asrwt>
<pdfrwt beam="1">  1       21 0.11048168E-01 0.12500000E+03</pdfrwt>
<pdfrwt beam="2">  1       21 0.83684122E-02 0.12500000E+03</pdfrwt>
<totfact> 0.73877442E+06</totfact>
</mgrwt>
</event>
<event>
 3    1  0.1620993E-001  0.1250000E+03  0.7546771E-02  0.1235069E+00
         21   -1    0    0  502  501  0.00000000000E+00  0.00000000000E+00  0.62551877469E+03  0.62551877469E+03  0.00000000000E+00 0.  1.
         21   -1    0    0  501  502 -0.00000000000E+00 -0.00000000000E+00 -0.62448165555E+01  0.62448165555E+01  0.00000000000E+00 0.  1.
         25    1    1    2    0    0  0.00000000000E+00  0.00000000000E+00  0.61927395814E+03  0.63176359125E+03  0.12500000000E+03 0.  0.
<mgrwt>
<rscale>  0 0.12500000E+03</rscale>
<asrwt>0</asrwt>
<pdfrwt beam="1">  1       21 0.96233608E-01 0.12500000E+03</pdfrwt>
<pdfrwt beam="2">  1       21 0.96074151E-03 0.12500000E+03</pdfrwt>
<totfact> 0.35694465E+06</totfact>
</mgrwt>
</event>
<event>
 3    1  0.1620993E-001  0.1250000E+03  0.7546771E-02  0.1235069E+00
         21   -1    0    0  502  501  0.00000000000E+00  0.00000000000E+00  0.89077383346E+01  0.89077383346E+01  0.00000000000E+00 0. -1.
         21   -1    0    0  501  502 -0.00000000000E+00 -0.00000000000E+00 -0.43852320907E+03  0.43852320907E+03  0.00000000000E+00 0. -1.
         25    1    1    2    0    0  0.00000000000E+00  0.00000000000E+00 -0.42961547073E+03  0.44743094740E+03  0.12500000000E+03 0.  0.
<mgrwt>
<rscale>  0 0.12500000E+03</rscale>
<asrwt>0</asrwt>
<pdfrwt beam="1">  1       21 0.13704209E-02 0.12500000E+03</pdfrwt>
<pdfrwt beam="2">  1       21 0.67465126E-01 0.12500000E+03</pdfrwt>
<totfact> 0.45046388E+06</totfact>
</mgrwt>
</event>
<event>
 3    1  0.1620993E-001  0.1250000E+03  0.7546771E-02  0.1235069E+00
         21   -1    0    0  502  501  0.00000000000E+00  0.00000000000E+00  0.27131873035E+02  0.27131873035E+02  0.00000000000E+00 0.  1.
         21   -1    0    0  501  502 -0.00000000000E+00 -0.00000000000E+00 -0.14397273623E+03  0.14397273623E+03  0.00000000000E+00 0.  1.
         25    1    1    2    0    0  0.00000000000E+00  0.00000000000E+00 -0.11684086320E+03  0.17110460927E+03  0.12500000000E+03 0.  0.
<mgrwt>
<rscale>  0 0.12500000E+03</rscale>
<asrwt>0</asrwt>
<pdfrwt beam="1">  1       21 0.41741343E-02 0.12500000E+03</pdfrwt>
<pdfrwt beam="2">  1       21 0.22149652E-01 0.12500000E+03</pdfrwt>
<totfact> 0.68186931E+06</totfact>
</mgrwt>
</event>
<event>
 3    1  0.1620993E-001  0.1250000E+03  0.7546771E-02  0.1235069E+00
         21   -1    0    0  502  501  0.00000000000E+00  0.00000000000E+00  0.15954329992E+02  0.15954329992E+02  0.00000000000E+00 0. -1.
         21   -1    0    0  501  502 -0.00000000000E+00 -0.00000000000E+00 -0.24483948884E+03  0.24483948884E+03  0.00000000000E+00 0. -1.
         25    1    1    2    0    0  0.00000000000E+00  0.00000000000E+00 -0.22888515884E+03  0.26079381883E+03  0.12500000000E+03 0.  0.
<mgrwt>
<rscale>  0 0.12500000E+03</rscale>
<asrwt>0</asrwt>
<pdfrwt beam="1">  1       21 0.24545122E-02 0.12500000E+03</pdfrwt>
<pdfrwt beam="2">  1       21 0.37667616E-01 0.12500000E+03</pdfrwt>
<totfact> 0.58876588E+06</totfact>
</mgrwt>
</event>
<event>
 3    1  0.1620993E-001  0.1250000E+03  0.7546771E-02  0.1235069E+00
         21   -1    0    0  502  501  0.00000000000E+00  0.00000000000E+00  0.57118812838E+02  0.57118812838E+02  0.00000000000E+00 0. -1.
         21   -1    0    0  501  502 -0.00000000000E+00 -0.00000000000E+00 -0.68388151047E+02  0.68388151047E+02  0.00000000000E+00 0. -1.
         25    1    1    2    0    0  0.00000000000E+00  0.00000000000E+00 -0.11269338209E+02  0.12550696389E+03  0.12500000000E+03 0.  0.
<mgrwt>
<rscale>  0 0.12500000E+03</rscale>
<asrwt>0</asrwt>
<pdfrwt beam="1">  1       21 0.87875097E-02 0.12500000E+03</pdfrwt>
<pdfrwt beam="2">  1       21 0.10521254E-01 0.12500000E+03</pdfrwt>
<totfact> 0.73974423E+06</totfact>
</mgrwt>
</event>
<event>
 3    1  0.1620993E-001  0.1250000E+03  0.7546771E-02  0.1235069E+00
         21   -1    0    0  502  501  0.00000000000E+00  0.00000000000E+00  0.56185597485E+03  0.56185597485E+03  0.00000000000E+00 0. -1.
         21   -1    0    0  501  502 -0.00000000000E+00 -0.00000000000E+00 -0.69524044860E+01  0.69524044860E+01  0.00000000000E+00 0. -1.
         25    1    1    2    0    0  0.00000000000E+00  0.00000000000E+00  0.55490357036E+03  0.56880837933E+03  0.12500000000E+03 0.  0.
<mgrwt>
<rscale>  0 0.12500000E+03</rscale>
<asrwt>0</asrwt>
<pdfrwt beam="1">  1       21 0.86439345E-01 0.12500000E+03</pdfrwt>
<pdfrwt beam="2">  1       21 0.10696011E-02 0.12500000E+03</pdfrwt>
<totfact> 0.38542338E+06</totfact>
</mgrwt>
</event>
<event>
 3    1  0.1620993E-001  0.1250000E+03  0.7546771E-02  0.1235069E+00
         21   -1    0    0  502  501  0.00000000000E+00  0.00000000000E+00  0.68541755042E+02  0.68541755042E+02  0.00000000000E+00 0. -1.
         21   -1    0    0  501  502 -0.00000000000E+00 -0.00000000000E+00 -0.56990807977E+02  0.56990807977E+02  0.00000000000E+00 0. -1.
         25    1    1    2    0    0  0.00000000000E+00  0.00000000000E+00  0.11550947065E+02  0.12553256302E+03  0.12500000000E+03 0.  0.
<mgrwt>
<rscale>  0 0.12500000E+03</rscale>
<asrwt>0</asrwt>
<pdfrwt beam="1">  1       21 0.10544885E-01 0.12500000E+03</pdfrwt>
<pdfrwt beam="2">  1       21 0.87678166E-02 0.12500000E+03</pdfrwt>
<totfact> 0.73970847E+06</totfact>
</mgrwt>
</event>
<event>
 3    1  0.1620993E-001  0.1250000E+03  0.7546771E-02  0.1235069E+00
         21   -1    0    0  502  501  0.00000000000E+00  0.00000000000E+00  0.63612285111E+03  0.63612285111E+03  0.00000000000E+00 0. -1.
         21   -1    0    0  501  502 -0.00000000000E+00 -0.00000000000E+00 -0.61407163619E+01  0.61407163619E+01  0.00000000000E+00 0. -1.
         25    1    1    2    0    0  0.00000000000E+00  0.00000000000E+00  0.62998213475E+03  0.64226356747E+03  0.12500000000E+03 0.  0.
<mgrwt>
<rscale>  0 0.12500000E+03</rscale>
<asrwt>0</asrwt>
<pdfrwt beam="1">  1       21 0.97865002E-01 0.12500000E+03</pdfrwt>
<pdfrwt beam="2">  1       21 0.94472610E-03 0.12500000E+03</pdfrwt>
<totfact> 0.35248360E+06</totfact>
</mgrwt>
</event>
<event>
 3    1  0.1620993E-001  0.1250000E+03  0.7546771E-02  0.1235069E+00
         21   -1    0    0  502  501  0.00000000000E+00  0.00000000000E+00  0.14993992251E+02  0.14993992251E+02  0.00000000000E+00 0. -1.
         21   -1    0    0  501  502 -0.00000000000E+00 -0.00000000000E+00 -0.26052100966E+03  0.26052100966E+03  0.00000000000E+00 0. -1.
         25    1    1    2    0    0  0.00000000000E+00  0.00000000000E+00 -0.24552701740E+03  0.27551500191E+03  0.12500000000E+03 0.  0.
<mgrwt>
<rscale>  0 0.12500000E+03</rscale>
<asrwt>0</asrwt>
<pdfrwt beam="1">  1       21 0.23067680E-02 0.12500000E+03</pdfrwt>
<pdfrwt beam="2">  1       21 0.40080155E-01 0.12500000E+03</pdfrwt>
<totfact> 0.57554399E+06</totfact>
</mgrwt>
</event>
<event>
 3    1  0.1620993E-001  0.1250000E+03  0.7546771E-02  0.1235069E+00
         21   -1    0    0  502  501  0.00000000000E+00  0.00000000000E+00  0.16926893736E+03  0.16926893736E+03  0.00000000000E+00 0. -1.
         21   -1    0    0  501  502 -0.00000000000E+00 -0.00000000000E+00 -0.23077181561E+02  0.23077181561E+02  0.00000000000E+00 0. -1.
         25    1    1    2    0    0  0.00000000000E+00  0.00000000000E+00  0.14619175580E+03  0.19234611892E+03  0.12500000000E+03 0.  0.
<mgrwt>
<rscale>  0 0.12500000E+03</rscale>
<asrwt>0</asrwt>
<pdfrwt beam="1">  1       21 0.26041374E-01 0.12500000E+03</pdfrwt>
<pdfrwt beam="2">  1       21 0.35503357E-02 0.12500000E+03</pdfrwt>
<totfact> 0.65762660E+06</totfact>
</mgrwt>
</event>
<event>
 3    1  0.1620993E-001  0.1250000E+03  0.7546771E-02  0.1235069E+00
         21   -1    0    0  502  501  0.00000000000E+00  0.00000000000E+00  0.25410409822E+01  0.25410409822E+01  0.00000000000E+00 0. -1.
         21   -1    0    0  501  502 -0.00000000000E+00 -0.00000000000E+00 -0.15372636755E+04  0.15372636755E+04  0.00000000000E+00 0. -1.
         25    1    1    2    0    0  0.00000000000E+00  0.00000000000E+00 -0.15347226345E+04  0.15398047165E+04  0.12500000000E+03 0.  0.
<mgrwt>
<rscale>  0 0.12500000E+03</rscale>
<asrwt>0</asrwt>
<pdfrwt beam="1">  1       21 0.39092966E-03 0.12500000E+03</pdfrwt>
<pdfrwt beam="2">  1       21 0.23650193E+00 0.12500000E+03</pdfrwt>
<totfact> 0.13412763E+06</totfact>
</mgrwt>
</event>
<event>
 3    1  0.1620993E-001  0.1250000E+03  0.7546771E-02  0.1235069E+00
         21   -1    0    0  502  501  0.00000000000E+00  0.00000000000E+00  0.19286084588E+02  0.19286084588E+02  0.00000000000E+00 0. -1.
         21   -1    0    0  501  502 -0.00000000000E+00 -0.00000000000E+00 -0.20254240731E+03  0.20254240731E+03  0.00000000000E+00 0. -1.
         25    1    1    2    0    0  0.00000000000E+00  0.00000000000E+00 -0.18325632272E+03  0.22182849190E+03  0.12500000000E+03 0.  0.
<mgrwt>
<rscale>  0 0.12500000E+03</rscale>
<asrwt>0</asrwt>
<pdfrwt beam="1">  1       21 0.29670899E-02 0.12500000E+03</pdfrwt>
<pdfrwt beam="2">  1       21 0.31160370E-01 0.12500000E+03</pdfrwt>
<totfact> 0.62636126E+06</totfact>
</mgrwt>
</event>
<event>
 3    1  0.1620993E-001  0.1250000E+03  0.7546771E-02  0.1235069E+00
         21   -1    0    0  502  501  0.00000000000E+00  0.00000000000E+00  0.24357429275E+02  0.24357429275E+02  0.00000000000E+00 0.  1.
         21   -1    0    0  501  502 -0.00000000000E+00 -0.00000000000E+00 -0.16037201446E+03  0.16037201446E+03  0.00000000000E+00 0.  1.
         25    1    1    2    0    0  0.00000000000E+00  0.00000000000E+00 -0.13601458519E+03  0.18472944374E+03  0.12500000000E+03 0.  0.
<mgrwt>
<rscale>  0 0.12500000E+03</rscale>
<asrwt>0</asrwt>
<pdfrwt beam="1">  1       21 0.37472970E-02 0.12500000E+03</pdfrwt>
<pdfrwt beam="2">  1       21 0.24672617E-01 0.12500000E+03</pdfrwt>
<totfact> 0.66613088E+06</totfact>
</mgrwt>
</event>
<event>
 3    1  0.1620993E-001  0.1250000E+03  0.7546771E-02  0.1235069E+00
         21   -1    0    0  502  501  0.00000000000E+00  0.00000000000E+00  0.12085198620E+02  0.12085198620E+02  0.00000000000E+00 0.  1.
         21   -1    0    0  501  502 -0.00000000000E+00 -0.00000000000E+00 -0.32322596615E+03  0.32322596615E+03  0.00000000000E+00 0.  1.
         25    1    1    2    0    0  0.00000000000E+00  0.00000000000E+00 -0.31114076754E+03  0.33531116477E+03  0.12500000000E+03 0.  0.
<mgrwt>
<rscale>  0 0.12500000E+03</rscale>
<asrwt>0</asrwt>
<pdfrwt beam="1">  1       21 0.18592615E-02 0.12500000E+03</pdfrwt>
<pdfrwt beam="2">  1       21 0.49727067E-01 0.12500000E+03</pdfrwt>
<totfact> 0.52641887E+06</totfact>
</mgrwt>
</event>
<event>
 3    1  0.1620993E-001  0.1250000E+03  0.7546771E-02  0.1235069E+00
         21   -1    0    0  502  501  0.00000000000E+00  0.00000000000E+00  0.60131640991E+03  0.60131640991E+03  0.00000000000E+00 0. -1.
         21   -1    0    0  501  502 -0.00000000000E+00 -0.00000000000E+00 -0.64961639757E+01  0.64961639757E+01  0.00000000000E+00 0. -1.
         25    1    1    2    0    0  0.00000000000E+00  0.00000000000E+00  0.59482024593E+03  0.60781257388E+03  0.12500000000E+03 0.  0.
<mgrwt>
<rscale>  0 0.12500000E+03</rscale>
<asrwt>0</asrwt>
<pdfrwt beam="1">  1       21 0.92510173E-01 0.12500000E+03</pdfrwt>
<pdfrwt beam="2">  1       21 0.99941031E-03 0.12500000E+03</pdfrwt>
<totfact> 0.36741697E+06</totfact>
</mgrwt>
</event>
<event>
 3    1  0.1620993E-001  0.1250000E+03  0.7546771E-02  0.1235069E+00
         21   -1    0    0  502  501  0.00000000000E+00  0.00000000000E+00  0.14553333930E+03  0.14553333930E+03  0.00000000000E+00 0.  1.
         21   -1    0    0  501  502 -0.00000000000E+00 -0.00000000000E+00 -0.26840928812E+02  0.26840928812E+02  0.00000000000E+00 0.  1.
         25    1    1    2    0    0  0.00000000000E+00  0.00000000000E+00  0.11869241049E+03  0.17237426811E+03  0.12500000000E+03 0.  0.
<mgrwt>
<rscale>  0 0.12500000E+03</rscale>
<asrwt>0</asrwt>
<pdfrwt beam="1">  1       21 0.22389744E-01 0.12500000E+03</pdfrwt>
<pdfrwt beam="2">  1       21 0.41293738E-02 0.12500000E+03</pdfrwt>
<totfact> 0.68037288E+06</totfact>
</mgrwt>
</event>
<event>
 3    1  0.1620993E-001  0.1250000E+03  0.7546771E-02  0.1235069E+00
         21   -1    0    0  502  501  0.00000000000E+00  0.00000000000E+00  0.43971123889E+02  0.43971123889E+02  0.00000000000E+00 0. -1.
         21   -1    0    0  501  502 -0.00000000000E+00 -0.00000000000E+00 -0.88836710426E+02  0.88836710426E+02  0.00000000000E+00 0. -1.
         25    1    1    2    0    0  0.00000000000E+00  0.00000000000E+00 -0.44865586537E+02  0.13280783431E+03  0.12500000000E+03 0.  0.
<mgrwt>
<rscale>  0 0.12500000E+03</rscale>
<asrwt>0</asrwt>
<pdfrwt beam="1">  1       21 0.67647883E-02 0.12500000E+03</pdfrwt>
<pdfrwt beam="2">  1       21 0.13667186E-01 0.12500000E+03</pdfrwt>
<totfact> 0.72988070E+06</totfact>
</mgrwt>
</event>
<event>
 3    1  0.1620993E-001  0.1250000E+03  0.7546771E-02  0.1235069E+00
         21   -1    0    0  502  501  0.00000000000E+00  0.00000000000E+00  0.68518969773E+02  0.68518969773E+02  0.00000000000E+00 0.  1.
         21   -1    0    0  501  502 -0.00000000000E+00 -0.00000000000E+00 -0.57009759676E+02  0.57009759676E+02  0.00000000000E+00 0.  1.
         25    1    1    2    0    0  0.00000000000E+00  0.00000000000E+00  0.11509210098E+02  0.12552872945E+03  0.12500000000E+03 0.  0.
<mgrwt>
<rscale>  0 0.12500000E+03</rscale>
<asrwt>0</asrwt>
<pdfrwt beam="1">  1       21 0.10541380E-01 0.12500000E+03</pdfrwt>
<pdfrwt beam="2">  1       21 0.87707323E-02 0.12500000E+03</pdfrwt>
<totfact> 0.73971382E+06</totfact>
</mgrwt>
</event>
<event>
 3    1  0.1620993E-001  0.1250000E+03  0.7546771E-02  0.1235069E+00
         21   -1    0    0  502  501  0.00000000000E+00  0.00000000000E+00  0.18093880318E+02  0.18093880318E+02  0.00000000000E+00 0.  1.
         21   -1    0    0  501  502 -0.00000000000E+00 -0.00000000000E+00 -0.21588790969E+03  0.21588790969E+03  0.00000000000E+00 0.  1.
         25    1    1    2    0    0  0.00000000000E+00  0.00000000000E+00 -0.19779402937E+03  0.23398179000E+03  0.12500000000E+03 0.  0.
<mgrwt>
<rscale>  0 0.12500000E+03</rscale>
<asrwt>0</asrwt>
<pdfrwt beam="1">  1       21 0.27836737E-02 0.12500000E+03</pdfrwt>
<pdfrwt beam="2">  1       21 0.33213527E-01 0.12500000E+03</pdfrwt>
<totfact> 0.61419938E+06</totfact>
</mgrwt>
</event>
<event>
 3    1  0.1620993E-001  0.1250000E+03  0.7546771E-02  0.1235069E+00
         21   -1    0    0  502  501  0.00000000000E+00  0.00000000000E+00  0.57196028857E+01  0.57196028857E+01  0.00000000000E+00 0. -1.
         21   -1    0    0  501  502 -0.00000000000E+00 -0.00000000000E+00 -0.68295825393E+03  0.68295825393E+03  0.00000000000E+00 0. -1.
         25    1    1    2    0    0  0.00000000000E+00  0.00000000000E+00 -0.67723865104E+03  0.68867785681E+03  0.12500000000E+03 0.  0.
<mgrwt>
<rscale>  0 0.12500000E+03</rscale>
<asrwt>0</asrwt>
<pdfrwt beam="1">  1       21 0.87993917E-03 0.12500000E+03</pdfrwt>
<pdfrwt beam="2">  1       21 0.10507047E+00 0.12500000E+03</pdfrwt>
<totfact> 0.33351245E+06</totfact>
</mgrwt>
</event>
<event>
 3    1  0.1620993E-001  0.1250000E+03  0.7546771E-02  0.1235069E+00
         21   -1    0    0  502  501  0.00000000000E+00  0.00000000000E+00  0.31337064828E+01  0.31337064828E+01  0.00000000000E+00 0.  1.
         21   -1    0    0  501  502 -0.00000000000E+00 -0.00000000000E+00 -0.12465270827E+04  0.12465270827E+04  0.00000000000E+00 0.  1.
         25    1    1    2    0    0  0.00000000000E+00  0.00000000000E+00 -0.12433933762E+04  0.12496607892E+04  0.12500000000E+03 0.  0.
<mgrwt>
<rscale>  0 0.12500000E+03</rscale>
<asrwt>0</asrwt>
<pdfrwt beam="1">  1       21 0.48210801E-03 0.12500000E+03</pdfrwt>
<pdfrwt beam="2">  1       21 0.19177367E+00 0.12500000E+03</pdfrwt>
<totfact> 0.18180949E+06</totfact>
</mgrwt>
</event>
<event>
 3    1  0.1620993E-001  0.1250000E+03  0.7546771E-02  0.1235069E+00
         21   -1    0    0  502  501  0.00000000000E+00  0.00000000000E+00  0.50869706712E+02  0.50869706712E+02  0.00000000000E+00 0.  1.
         21   -1    0    0  501  502 -0.00000000000E+00 -0.00000000000E+00 -0.76789316324E+02  0.76789316324E+02  0.00000000000E+00 0.  1.
         25    1    1    2    0    0  0.00000000000E+00  0.00000000000E+00 -0.25919609612E+02  0.12765902304E+03  0.12500000000E+03 0.  0.
<mgrwt>
<rscale>  0 0.12500000E+03</rscale>
<asrwt>0</asrwt>
<pdfrwt beam="1">  1       21 0.78261088E-02 0.12500000E+03</pdfrwt>
<pdfrwt beam="2">  1       21 0.11813741E-01 0.12500000E+03</pdfrwt>
<totfact> 0.73679673E+06</totfact>
</mgrwt>
</event>
<event>
 3    1  0.1620993E-001  0.1250000E+03  0.7546771E-02  0.1235069E+00
         21   -1    0    0  502  501  0.00000000000E+00  0.00000000000E+00  0.29197412361E+02  0.29197412361E+02  0.00000000000E+00 0. -1.
         21   -1    0    0  501  502 -0.00000000000E+00 -0.00000000000E+00 -0.13378754088E+03  0.13378754088E+03  0.00000000000E+00 0. -1.
         25    1    1    2    0    0  0.00000000000E+00  0.00000000000E+00 -0.10459012852E+03  0.16298495325E+03  0.12500000000E+03 0.  0.
<mgrwt>
<rscale>  0 0.12500000E+03</rscale>
<asrwt>0</asrwt>
<pdfrwt beam="1">  1       21 0.44919096E-02 0.12500000E+03</pdfrwt>
<pdfrwt beam="2">  1       21 0.20582698E-01 0.12500000E+03</pdfrwt>
<totfact> 0.69156594E+06</totfact>
</mgrwt>
</event>
<event>
 3    1  0.1620993E-001  0.1250000E+03  0.7546771E-02  0.1235069E+00
         21   -1    0    0  502  501  0.00000000000E+00  0.00000000000E+00  0.52029815127E+02  0.52029815127E+02  0.00000000000E+00 0. -1.
         21   -1    0    0  501  502 -0.00000000000E+00 -0.00000000000E+00 -0.75077145489E+02  0.75077145489E+02  0.00000000000E+00 0. -1.
         25    1    1    2    0    0  0.00000000000E+00  0.00000000000E+00 -0.23047330362E+02  0.12710696062E+03  0.12500000000E+03 0.  0.
<mgrwt>
<rscale>  0 0.12500000E+03</rscale>
<asrwt>0</asrwt>
<pdfrwt beam="1">  1       21 0.80045870E-02 0.12500000E+03</pdfrwt>
<pdfrwt beam="2">  1       21 0.11550330E-01 0.12500000E+03</pdfrwt>
<totfact> 0.73754583E+06</totfact>
</mgrwt>
</event>
<event>
 3    1  0.1620993E-001  0.1250000E+03  0.7546771E-02  0.1235069E+00
         21   -1    0    0  502  501  0.00000000000E+00  0.00000000000E+00  0.66826241117E+02  0.66826241117E+02  0.00000000000E+00 0.  1.
         21   -1    0    0  501  502 -0.00000000000E+00 -0.00000000000E+00 -0.58453833923E+02  0.58453833923E+02  0.00000000000E+00 0.  1.
         25    1    1    2    0    0  0.00000000000E+00  0.00000000000E+00  0.83724071941E+01  0.12528007504E+03  0.12500000000E+03 0.  0.
<mgrwt>
<rscale>  0 0.12500000E+03</rscale>
<asrwt>0</asrwt>
<pdfrwt beam="1">  1       21 0.10280960E-01 0.12500000E+03</pdfrwt>
<pdfrwt beam="2">  1       21 0.89928975E-02 0.12500000E+03</pdfrwt>
<totfact> 0.74005761E+06</totfact>
</mgrwt>
</event>
<event>
 3    1  0.1620993E-001  0.1250000E+03  0.7546771E-02  0.1235069E+00
         21   -1    0    0  502  501  0.00000000000E+00  0.00000000000E+00  0.29884396934E+03  0.29884396934E+03  0.00000000000E+00 0. -1.
         21   -1    0    0  501  502 -0.00000000000E+00 -0.00000000000E+00 -0.13071202369E+02  0.13071202369E+02  0.00000000000E+00 0. -1.
         25    1    1    2    0    0  0.00000000000E+00  0.00000000000E+00  0.28577276697E+03  0.31191517171E+03  0.12500000000E+03 0.  0.
<mgrwt>
<rscale>  0 0.12500000E+03</rscale>
<asrwt>0</asrwt>
<pdfrwt beam="1">  1       21 0.45975990E-01 0.12500000E+03</pdfrwt>
<pdfrwt beam="2">  1       21 0.20109544E-02 0.12500000E+03</pdfrwt>
<totfact> 0.54480288E+06</totfact>
</mgrwt>
</event>
<event>
 3    1  0.1620993E-001  0.1250000E+03  0.7546771E-02  0.1235069E+00
         21   -1    0    0  502  501  0.00000000000E+00  0.00000000000E+00  0.28442973145E+03  0.28442973145E+03  0.00000000000E+00 0.  1.
         21   -1    0    0  501  502 -0.00000000000E+00 -0.00000000000E+00 -0.13733620533E+02  0.13733620533E+02  0.00000000000E+00 0.  1.
         25    1    1    2    0    0  0.00000000000E+00  0.00000000000E+00  0.27069611091E+03  0.29816335198E+03  0.12500000000E+03 0.  0.
<mgrwt>
<rscale>  0 0.12500000E+03</rscale>
<asrwt>0</asrwt>
<pdfrwt beam="1">  1       21 0.43758416E-01 0.12500000E+03</pdfrwt>
<pdfrwt beam="2">  1       21 0.21128649E-02 0.12500000E+03</pdfrwt>
<totfact> 0.55609154E+06</totfact>
</mgrwt>
</event>
<event>
 3    1  0.1620993E-001  0.1250000E+03  0.7546771E-02  0.1235069E+00
         21   -1    0    0  502  501  0.00000000000E+00  0.00000000000E+00  0.27468142161E+02  0.27468142161E+02  0.00000000000E+00 0. -1.
         21   -1    0    0  501  502 -0.00000000000E+00 -0.00000000000E+00 -0.14221020035E+03  0.14221020035E+03  0.00000000000E+00 0. -1.
         25    1    1    2    0    0  0.00000000000E+00  0.00000000000E+00 -0.11474205819E+03  0.16967834251E+03  0.12500000000E+03 0.  0.
<mgrwt>
<rscale>  0 0.12500000E+03</rscale>
<asrwt>0</asrwt>
<pdfrwt beam="1">  1       21 0.42258680E-02 0.12500000E+03</pdfrwt>
<pdfrwt beam="2">  1       21 0.21878492E-01 0.12500000E+03</pdfrwt>
<totfact> 0.68355786E+06</totfact>
</mgrwt>
</event>
<event>
 3    1  0.1620993E-001  0.1250000E+03  0.7546771E-02  0.1235069E+00
         21   -1    0    0  502  501  0.00000000000E+00  0.00000000000E+00  0.11245879462E+04  0.11245879462E+04  0.00000000000E+00 0. -1.
         21   -1    0    0  501  502 -0.00000000000E+00 -0.00000000000E+00 -0.34734944590E+01  0.34734944590E+01  0.00000000000E+00 0. -1.
         25    1    1    2    0    0  0.00000000000E+00  0.00000000000E+00  0.11211144518E+04  0.11280614407E+04  0.12500000000E+03 0.  0.
<mgrwt>
<rscale>  0 0.12500000E+03</rscale>
<asrwt>0</asrwt>
<pdfrwt beam="1">  1       21 0.17301324E+00 0.12500000E+03</pdfrwt>
<pdfrwt beam="2">  1       21 0.53438466E-03 0.12500000E+03</pdfrwt>
<totfact> 0.20637928E+06</totfact>
</mgrwt>
</event>
<event>
 3    1  0.1620993E-001  0.1250000E+03  0.7546771E-02  0.1235069E+00
         21   -1    0    0  502  501  0.00000000000E+00  0.00000000000E+00  0.11674777388E+03  0.11674777388E+03  0.00000000000E+00 0.  1.
         21   -1    0    0  501  502 -0.00000000000E+00 -0.00000000000E+00 -0.33458882085E+02  0.33458882085E+02  0.00000000000E+00 0.  1.
         25    1    1    2    0    0  0.00000000000E+00  0.00000000000E+00  0.83288891797E+02  0.15020665597E+03  0.12500000000E+03 0.  0.
<mgrwt>
<rscale>  0 0.12500000E+03</rscale>
<asrwt>0</asrwt>
<pdfrwt beam="1">  1       21 0.17961196E-01 0.12500000E+03</pdfrwt>
<pdfrwt beam="2">  1       21 0.51475204E-02 0.12500000E+03</pdfrwt>
<totfact> 0.70733251E+06</totfact>
</mgrwt>
</event>
<event>
 3    1  0.1620993E-001  0.1250000E+03  0.7546771E-02  0.1235069E+00
         21   -1    0    0  502  501  0.00000000000E+00  0.00000000000E+00  0.25842368962E+02  0.25842368962E+02  0.00000000000E+00 0. -1.
         21   -1    0    0  501  502 -0.00000000000E+00 -0.00000000000E+00 -0.15115680787E+03  0.15115680787E+03  0.00000000000E+00 0. -1.
         25    1    1    2    0    0  0.00000000000E+00  0.00000000000E+00 -0.12531443890E+03  0.17699917683E+03  0.12500000000E+03 0.  0.
<mgrwt>
<rscale>  0 0.12500000E+03</rscale>
<asrwt>0</asrwt>
<pdfrwt beam="1">  1       21 0.39757491E-02 0.12500000E+03</pdfrwt>
<pdfrwt beam="2">  1       21 0.23254893E-01 0.12500000E+03</pdfrwt>
<totfact> 0.67497460E+06</totfact>
</mgrwt>
</event>
<event>
 3    1  0.1620993E-001  0.1250000E+03  0.7546771E-02  0.1235069E+00
         21   -1    0    0  502  501  0.00000000000E+00  0.00000000000E+00  0.83707098922E+02  0.83707098922E+02  0.00000000000E+00 0. -1.
         21   -1    0    0  501  502 -0.00000000000E+00 -0.00000000000E+00 -0.46665695626E+02  0.46665695626E+02  0.00000000000E+00 0. -1.
         25    1    1    2    0    0  0.00000000000E+00  0.00000000000E+00  0.37041403296E+02  0.13037279455E+03  0.12500000000E+03 0.  0.
<mgrwt>
<rscale>  0 0.12500000E+03</rscale>
<asrwt>0</asrwt>
<pdfrwt beam="1">  1       21 0.12878015E-01 0.12500000E+03</pdfrwt>
<pdfrwt beam="2">  1       21 0.71793378E-02 0.12500000E+03</pdfrwt>
<totfact> 0.73315133E+06</totfact>
</mgrwt>
</event>
<event>
 3    1  0.1620993E-001  0.1250000E+03  0.7546771E-02  0.1235069E+00
         21   -1    0    0  502  501  0.00000000000E+00  0.00000000000E+00  0.25087199602E+03  0.25087199602E+03  0.00000000000E+00 0.  1.
         21   -1    0    0  501  502 -0.00000000000E+00 -0.00000000000E+00 -0.15570689682E+02  0.15570689682E+02  0.00000000000E+00 0.  1.
         25    1    1    2    0    0  0.00000000000E+00  0.00000000000E+00  0.23530130634E+03  0.26644268570E+03  0.12500000000E+03 0.  0.
<mgrwt>
<rscale>  0 0.12500000E+03</rscale>
<asrwt>0</asrwt>
<pdfrwt beam="1">  1       21 0.38595689E-01 0.12500000E+03</pdfrwt>
<pdfrwt beam="2">  1       21 0.23954909E-02 0.12500000E+03</pdfrwt>
<totfact> 0.58363753E+06</totfact>
</mgrwt>
</event>
<event>
 3    1  0.1620993E-001  0.1250000E+03  0.7546771E-02  0.1235069E+00
         21   -1    0    0  502  501  0.00000000000E+00  0.00000000000E+00  0.24634965981E+02  0.24634965981E+02  0.00000000000E+00 0.  1.
         21   -1    0    0  501  502 -0.00000000000E+00 -0.00000000000E+00 -0.15856526869E+03  0.15856526869E+03  0.00000000000E+00 0.  1.
         25    1    1    2    0    0  0.00000000000E+00  0.00000000000E+00 -0.13393030271E+03  0.18320023467E+03  0.12500000000E+03 0.  0.
<mgrwt>
<rscale>  0 0.12500000E+03</rscale>
<asrwt>0</asrwt>
<pdfrwt beam="1">  1       21 0.37899949E-02 0.12500000E+03</pdfrwt>
<pdfrwt beam="2">  1       21 0.24394656E-01 0.12500000E+03</pdfrwt>
<totfact> 0.66786299E+06</totfact>
</mgrwt>
</event>
<event>
 3    1  0.1620993E-001  0.1250000E+03  0.7546771E-02  0.1235069E+00
         21   -1    0    0  502  501  0.00000000000E+00  0.00000000000E+00  0.12859420540E+04  0.12859420540E+04  0.00000000000E+00 0. -1.
         21   -1    0    0  501  502 -0.00000000000E+00 -0.00000000000E+00 -0.30376563141E+01  0.30376563141E+01  0.00000000000E+00 0. -1.
         25    1    1    2    0    0  0.00000000000E+00  0.00000000000E+00  0.12829043977E+04  0.12889797103E+04  0.12500000000E+03 0.  0.
<mgrwt>
<rscale>  0 0.12500000E+03</rscale>
<asrwt>0</asrwt>
<pdfrwt beam="1">  1       21 0.19783680E+00 0.12500000E+03</pdfrwt>
<pdfrwt beam="2">  1       21 0.46733277E-03 0.12500000E+03</pdfrwt>
<totfact> 0.17451434E+06</totfact>
</mgrwt>
</event>
<event>
 3    1  0.1620993E-001  0.1250000E+03  0.7546771E-02  0.1235069E+00
         21   -1    0    0  502  501  0.00000000000E+00  0.00000000000E+00  0.22202023931E+02  0.22202023931E+02  0.00000000000E+00 0. -1.
         21   -1    0    0  501  502 -0.00000000000E+00 -0.00000000000E+00 -0.17594116699E+03  0.17594116699E+03  0.00000000000E+00 0. -1.
         25    1    1    2    0    0  0.00000000000E+00  0.00000000000E+00 -0.15373914306E+03  0.19814319092E+03  0.12500000000E+03 0.  0.
<mgrwt>
<rscale>  0 0.12500000E+03</rscale>
<asrwt>0</asrwt>
<pdfrwt beam="1">  1       21 0.34156960E-02 0.12500000E+03</pdfrwt>
<pdfrwt beam="2">  1       21 0.27067872E-01 0.12500000E+03</pdfrwt>
<totfact> 0.65128641E+06</totfact>
</mgrwt>
</event>
<event>
 3    1  0.1620993E-001  0.1250000E+03  0.7546771E-02  0.1235069E+00
         21   -1    0    0  502  501  0.00000000000E+00  0.00000000000E+00  0.47813182033E+02  0.47813182033E+02  0.00000000000E+00 0.  1.
         21   -1    0    0  501  502 -0.00000000000E+00 -0.00000000000E+00 -0.81698181001E+02  0.81698181001E+02  0.00000000000E+00 0.  1.
         25    1    1    2    0    0  0.00000000000E+00  0.00000000000E+00 -0.33884998968E+02  0.12951136303E+03  0.12500000000E+03 0.  0.
<mgrwt>
<rscale>  0 0.12500000E+03</rscale>
<asrwt>0</asrwt>
<pdfrwt beam="1">  1       21 0.73558742E-02 0.12500000E+03</pdfrwt>
<pdfrwt beam="2">  1       21 0.12568951E-01 0.12500000E+03</pdfrwt>
<totfact> 0.73430294E+06</totfact>
</mgrwt>
</event>
<event>
 3    1  0.1620993E-001  0.1250000E+03  0.7546771E-02  0.1235069E+00
         21   -1    0    0  502  501  0.00000000000E+00  0.00000000000E+00  0.71047538400E+02  0.71047538400E+02  0.00000000000E+00 0. -1.
         21   -1    0    0  501  502 -0.00000000000E+00 -0.00000000000E+00 -0.54980792973E+02  0.54980792973E+02  0.00000000000E+00 0. -1.
         25    1    1    2    0    0  0.00000000000E+00  0.00000000000E+00  0.16066745427E+02  0.12602833137E+03  0.12500000000E+03 0.  0.
<mgrwt>
<rscale>  0 0.12500000E+03</rscale>
<asrwt>0</asrwt>
<pdfrwt beam="1">  1       21 0.10930391E-01 0.12500000E+03</pdfrwt>
<pdfrwt beam="2">  1       21 0.84585835E-02 0.12500000E+03</pdfrwt>
<totfact> 0.73902133E+06</totfact>
</mgrwt>
</event>
<event>
 3    1  0.1620993E-001  0.1250000E+03  0.7546771E-02  0.1235069E+00
         21   -1    0    0  502  501  0.00000000000E+00  0.00000000000E+00  0.87440987283E+02  0.87440987283E+02  0.00000000000E+00 0.  1.
         21   -1    0    0  501  502 -0.00000000000E+00 -0.00000000000E+00 -0.44672985992E+02  0.44672985992E+02  0.00000000000E+00 0.  1.
         25    1    1    2    0    0  0.00000000000E+00  0.00000000000E+00  0.42768001291E+02  0.13211397327E+03  0.12500000000E+03 0.  0.
<mgrwt>
<rscale>  0 0.12500000E+03</rscale>
<asrwt>0</asrwt>
<pdfrwt beam="1">  1       21 0.13452460E-01 0.12500000E+03</pdfrwt>
<pdfrwt beam="2">  1       21 0.68727671E-02 0.12500000E+03</pdfrwt>
<totfact> 0.73080945E+06</totfact>
</mgrwt>
</event>
<event>
 3    1  0.1620993E-001  0.1250000E+03  0.7546771E-02  0.1235069E+00
         21   -1    0    0  502  501  0.00000000000E+00  0.00000000000E+00  0.51755969089E+02  0.51755969089E+02  0.00000000000E+00 0. -1.
         21   -1    0    0  501  502 -0.00000000000E+00 -0.00000000000E+00 -0.75474386216E+02  0.75474386216E+02  0.00000000000E+00 0. -1.
         25    1    1    2    0    0  0.00000000000E+00  0.00000000000E+00 -0.23718417127E+02  0.12723035530E+03  0.12500000000E+03 0.  0.
<mgrwt>
<rscale>  0 0.12500000E+03</rscale>
<asrwt>0</asrwt>
<pdfrwt beam="1">  1       21 0.79624567E-02 0.12500000E+03</pdfrwt>
<pdfrwt beam="2">  1       21 0.11611444E-01 0.12500000E+03</pdfrwt>
<totfact> 0.73737810E+06</totfact>
</mgrwt>
</event>
<event>
 3    1  0.1620993E-001  0.1250000E+03  0.7546771E-02  0.1235069E+00
         21   -1    0    0  502  501  0.00000000000E+00  0.00000000000E+00  0.67273210678E+02  0.67273210678E+02  0.00000000000E+00 0.  1.
         21   -1    0    0  501  502 -0.00000000000E+00 -0.00000000000E+00 -0.58065461134E+02  0.58065461134E+02  0.00000000000E+00 0.  1.
         25    1    1    2    0    0  0.00000000000E+00  0.00000000000E+00  0.92077495445E+01  0.12533867181E+03  0.12500000000E+03 0.  0.
<mgrwt>
<rscale>  0 0.12500000E+03</rscale>
<asrwt>0</asrwt>
<pdfrwt beam="1">  1       21 0.10349725E-01 0.12500000E+03</pdfrwt>
<pdfrwt beam="2">  1       21 0.89331478E-02 0.12500000E+03</pdfrwt>
<totfact> 0.73997851E+06</totfact>
</mgrwt>
</event>
<event>
 3    1  0.1620993E-001  0.1250000E+03  0.7546771E-02  0.1235069E+00
         21   -1    0    0  502  501  0.00000000000E+00  0.00000000000E+00  0.14238604360E+02  0.14238604360E+02  0.00000000000E+00 0.  1.
         21   -1    0    0  501  502 -0.00000000000E+00 -0.00000000000E+00 -0.27434219684E+03  0.27434219684E+03  0.00000000000E+00 0.  1.
         25    1    1    2    0    0  0.00000000000E+00  0.00000000000E+00 -0.26010359248E+03  0.28858080120E+03  0.12500000000E+03 0.  0.
<mgrwt>
<rscale>  0 0.12500000E+03</rscale>
<asrwt>0</asrwt>
<pdfrwt beam="1">  1       21 0.21905548E-02 0.12500000E+03</pdfrwt>
<pdfrwt beam="2">  1       21 0.42206486E-01 0.12500000E+03</pdfrwt>
<totfact> 0.56418712E+06</totfact>
</mgrwt>
</event>
<event>
 3    1  0.1620993E-001  0.1250000E+03  0.7546771E-02  0.1235069E+00
         21   -1    0    0  502  501  0.00000000000E+00  0.00000000000E+00  0.12594469619E+02  0.12594469619E+02  0.00000000000E+00 0.  1.
         21   -1    0    0  501  502 -0.00000000000E+00 -0.00000000000E+00 -0.31015597465E+03  0.31015597465E+03  0.00000000000E+00 0.  1.
         25    1    1    2    0    0  0.00000000000E+00  0.00000000000E+00 -0.29756150503E+03  0.32275044427E+03  0.12500000000E+03 0.  0.
<mgrwt>
<rscale>  0 0.12500000E+03</rscale>
<asrwt>0</asrwt>
<pdfrwt beam="1">  1       21 0.19376108E-02 0.12500000E+03</pdfrwt>
<pdfrwt beam="2">  1       21 0.47716303E-01 0.12500000E+03</pdfrwt>
<totfact> 0.53616101E+06</totfact>
</mgrwt>
</event>
<event>
 3    1  0.1620993E-001  0.1250000E+03  0.7546771E-02  0.1235069E+00
         21   -1    0    0  502  501  0.00000000000E+00  0.00000000000E+00  0.16883316812E+03  0.16883316812E+03  0.00000000000E+00 0.  1.
         21   -1    0    0  501  502 -0.00000000000E+00 -0.00000000000E+00 -0.23136745247E+02  0.23136745247E+02  0.00000000000E+00 0.  1.
         25    1    1    2    0    0  0.00000000000E+00  0.00000000000E+00  0.14569642287E+03  0.19196991337E+03  0.12500000000E+03 0.  0.
<mgrwt>
<rscale>  0 0.12500000E+03</rscale>
<asrwt>0</asrwt>
<pdfrwt beam="1">  1       21 0.25974333E-01 0.12500000E+03</pdfrwt>
<pdfrwt beam="2">  1       21 0.35594994E-02 0.12500000E+03</pdfrwt>
<totfact> 0.65804194E+06</totfact>
</mgrwt>
</event>
<event>
 3    1  0.1620993E-001  0.1250000E+03  0.7546771E-02  0.1235069E+00
         21   -1    0    0  502  501  0.00000000000E+00  0.00000000000E+00  0.42728661942E+03  0.42728661942E+03  0.00000000000E+00 0. -1.
         21   -1    0    0  501  502 -0.00000000000E+00 -0.00000000000E+00 -0.91419899957E+01  0.91419899957E+01  0.00000000000E+00 0. -1.
         25    1    1    2    0    0  0.00000000000E+00  0.00000000000E+00  0.41814462942E+03  0.43642860941E+03  0.12500000000E+03 0.  0.
<mgrwt>
<rscale>  0 0.12500000E+03</rscale>
<asrwt>0</asrwt>
<pdfrwt beam="1">  1       21 0.65736387E-01 0.12500000E+03</pdfrwt>
<pdfrwt beam="2">  1       21 0.14064603E-02 0.12500000E+03</pdfrwt>
<totfact> 0.45715358E+06</totfact>
</mgrwt>
</event>
<event>
 3    1  0.1620993E-001  0.1250000E+03  0.7546771E-02  0.1235069E+00
         21   -1    0    0  502  501  0.00000000000E+00  0.00000000000E+00  0.76390067757E+02  0.76390067757E+02  0.00000000000E+00 0.  1.
         21   -1    0    0  501  502 -0.00000000000E+00 -0.00000000000E+00 -0.51135574489E+02  0.51135574489E+02  0.00000000000E+00 0.  1.
         25    1    1    2    0    0  0.00000000000E+00  0.00000000000E+00  0.25254493267E+02  0.12752564225E+03  0.12500000000E+03 0.  0.
<mgrwt>
<rscale>  0 0.12500000E+03</rscale>
<asrwt>0</asrwt>
<pdfrwt beam="1">  1       21 0.11752318E-01 0.12500000E+03</pdfrwt>
<pdfrwt beam="2">  1       21 0.78670115E-02 0.12500000E+03</pdfrwt>
<totfact> 0.73697742E+06</totfact>
</mgrwt>
</event>
<event>
 3    1  0.1620993E-001  0.1250000E+03  0.7546771E-02  0.1235069E+00
         21   -1    0    0  502  501  0.00000000000E+00  0.00000000000E+00  0.17994797725E+04  0.17994797725E+04  0.00000000000E+00 0.  1.
         21   -1    0    0  501  502 -0.00000000000E+00 -0.00000000000E+00 -0.21707662735E+01  0.21707662735E+01  0.00000000000E+00 0.  1.
         25    1    1    2    0    0  0.00000000000E+00  0.00000000000E+00  0.17973090062E+04  0.18016505388E+04  0.12500000000E+03 0.  0.
<mgrwt>
<rscale>  0 0.12500000E+03</rscale>
<asrwt>0</asrwt>
<pdfrwt beam="1">  1       21 0.27684185E+00 0.12500000E+03</pdfrwt>
<pdfrwt beam="2">  1       21 0.33396548E-03 0.12500000E+03</pdfrwt>
<totfact> 0.10051015E+06</totfact>
</mgrwt>
</event>
<event>
 3    1  0.1620993E-001  0.1250000E+03  0.7546771E-02  0.1235069E+00
         21   -1    0    0  502  501  0.00000000000E+00  0.00000000000E+00  0.10003335949E+02  0.10003335949E+02  0.00000000000E+00 0.  1.
         21   -1    0    0  501  502 -0.00000000000E+00 -0.00000000000E+00 -0.39049473296E+03  0.39049473296E+03  0.00000000000E+00 0.  1.
         25    1    1    2    0    0  0.00000000000E+00  0.00000000000E+00 -0.38049139701E+03  0.40049806891E+03  0.12500000000E+03 0.  0.
<mgrwt>
<rscale>  0 0.12500000E+03</rscale>
<asrwt>0</asrwt>
<pdfrwt beam="1">  1       21 0.15389752E-02 0.12500000E+03</pdfrwt>
<pdfrwt beam="2">  1       21 0.60076096E-01 0.12500000E+03</pdfrwt>
<totfact> 0.48008339E+06</totfact>
</mgrwt>
</event>
<event>
 3    1  0.1620993E-001  0.1250000E+03  0.7546771E-02  0.1235069E+00
         21   -1    0    0  502  501  0.00000000000E+00  0.00000000000E+00  0.26553120104E+03  0.26553120104E+03  0.00000000000E+00 0.  1.
         21   -1    0    0  501  502 -0.00000000000E+00 -0.00000000000E+00 -0.14711077209E+02  0.14711077209E+02  0.00000000000E+00 0.  1.
         25    1    1    2    0    0  0.00000000000E+00  0.00000000000E+00  0.25082012383E+03  0.28024227825E+03  0.12500000000E+03 0.  0.
<mgrwt>
<rscale>  0 0.12500000E+03</rscale>
<asrwt>0</asrwt>
<pdfrwt beam="1">  1       21 0.40850950E-01 0.12500000E+03</pdfrwt>
<pdfrwt beam="2">  1       21 0.22632428E-02 0.12500000E+03</pdfrwt>
<totfact> 0.57139156E+06</totfact>
</mgrwt>
</event>
<event>
 3    1  0.1620993E-001  0.1250000E+03  0.7546771E-02  0.1235069E+00
         21   -1    0    0  502  501  0.00000000000E+00  0.00000000000E+00  0.68965529697E+02  0.68965529697E+02  0.00000000000E+00 0.  1.
         21   -1    0    0  501  502 -0.00000000000E+00 -0.00000000000E+00 -0.56640614770E+02  0.56640614770E+02  0.00000000000E+00 0.  1.
         25    1    1    2    0    0  0.00000000000E+00  0.00000000000E+00  0.12324914927E+02  0.12560614447E+03  0.12500000000E+03 0.  0.
<mgrwt>
<rscale>  0 0.12500000E+03</rscale>
<asrwt>0</asrwt>
<pdfrwt beam="1">  1       21 0.10610082E-01 0.12500000E+03</pdfrwt>
<pdfrwt beam="2">  1       21 0.87139407E-02 0.12500000E+03</pdfrwt>
<totfact> 0.73960587E+06</totfact>
</mgrwt>
</event>
<event>
 3    1  0.1620993E-001  0.1250000E+03  0.7546771E-02  0.1235069E+00
         21   -1    0    0  502  501  0.00000000000E+00  0.00000000000E+00  0.38493360253E+02  0.38493360253E+02  0.00000000000E+00 0.  1.
         21   -1    0    0  501  502 -0.00000000000E+00 -0.00000000000E+00 -0.10147854005E+03  0.10147854005E+03  0.00000000000E+00 0.  1.
         25    1    1    2    0    0  0.00000000000E+00  0.00000000000E+00 -0.62985179794E+02  0.13997190030E+03  0.12500000000E+03 0.  0.
<mgrwt>
<rscale>  0 0.12500000E+03</rscale>
<asrwt>0</asrwt>
<pdfrwt beam="1">  1       21 0.59220553E-02 0.12500000E+03</pdfrwt>
<pdfrwt beam="2">  1       21 0.15612083E-01 0.12500000E+03</pdfrwt>
<totfact> 0.72042977E+06</totfact>
</mgrwt>
</event>
<event>
 3    1  0.1620993E-001  0.1250000E+03  0.7546771E-02  0.1235069E+00
         21   -1    0    0  502  501  0.00000000000E+00  0.00000000000E+00  0.65000813136E+03  0.65000813136E+03  0.00000000000E+00 0. -1.
         21   -1    0    0  501  502 -0.00000000000E+00 -0.00000000000E+00 -0.60095402065E+01  0.60095402065E+01  0.00000000000E+00 0. -1.
         25    1    1    2    0    0  0.00000000000E+00  0.00000000000E+00  0.64399859116E+03  0.65601767157E+03  0.12500000000E+03 0.  0.
<mgrwt>
<rscale>  0 0.12500000E+03</rscale>
<asrwt>0</asrwt>
<pdfrwt beam="1">  1       21 0.10000120E+00 0.12500000E+03</pdfrwt>
<pdfrwt beam="2">  1       21 0.92454516E-03 0.12500000E+03</pdfrwt>
<totfact> 0.34675506E+06</totfact>
</mgrwt>
</event>
<event>
 3    1  0.1620993E-001  0.1250000E+03  0.7546771E-02  0.1235069E+00
         21   -1    0    0  502  501  0.00000000000E+00  0.00000000000E+00  0.41203759270E+03  0.41203759270E+03  0.00000000000E+00 0.  1.
         21   -1    0    0  501  502 -0.00000000000E+00 -0.00000000000E+00 -0.94803242938E+01  0.94803242938E+01  0.00000000000E+00 0.  1.
         25    1    1    2    0    0  0.00000000000E+00  0.00000000000E+00  0.40255726840E+03  0.42151791699E+03  0.12500000000E+03 0.  0.
<mgrwt>
<rscale>  0 0.12500000E+03</rscale>
<asrwt>0</asrwt>
<pdfrwt beam="1">  1       21 0.63390385E-01 0.12500000E+03</pdfrwt>
<pdfrwt beam="2">  1       21 0.14585117E-02 0.12500000E+03</pdfrwt>
<totfact> 0.46646096E+06</totfact>
</mgrwt>
</event>
<event>
 3    1  0.1620993E-001  0.1250000E+03  0.7546771E-02  0.1235069E+00
         21   -1    0    0  502  501  0.00000000000E+00  0.00000000000E+00  0.67018728229E+02  0.67018728229E+02  0.00000000000E+00 0. -1.
         21   -1    0    0  501  502 -0.00000000000E+00 -0.00000000000E+00 -0.58285946380E+02  0.58285946380E+02  0.00000000000E+00 0. -1.
         25    1    1    2    0    0  0.00000000000E+00  0.00000000000E+00  0.87327818489E+01  0.12530467461E+03  0.12500000000E+03 0.  0.
<mgrwt>
<rscale>  0 0.12500000E+03</rscale>
<asrwt>0</asrwt>
<pdfrwt beam="1">  1       21 0.10310574E-01 0.12500000E+03</pdfrwt>
<pdfrwt beam="2">  1       21 0.89670686E-02 0.12500000E+03</pdfrwt>
<totfact> 0.74002440E+06</totfact>
</mgrwt>
</event>
<event>
 3    1  0.1620993E-001  0.1250000E+03  0.7546771E-02  0.1235069E+00
         21   -1    0    0  502  501  0.00000000000E+00  0.00000000000E+00  0.32157189615E+03  0.32157189615E+03  0.00000000000E+00 0.  1.
         21   -1    0    0  501  502 -0.00000000000E+00 -0.00000000000E+00 -0.12147361280E+02  0.12147361280E+02  0.00000000000E+00 0.  1.
         25    1    1    2    0    0  0.00000000000E+00  0.00000000000E+00  0.30942453487E+03  0.33371925743E+03  0.12500000000E+03 0.  0.
<mgrwt>
<rscale>  0 0.12500000E+03</rscale>
<asrwt>0</asrwt>
<pdfrwt beam="1">  1       21 0.49472593E-01 0.12500000E+03</pdfrwt>
<pdfrwt beam="2">  1       21 0.18688251E-02 0.12500000E+03</pdfrwt>
<totfact> 0.52763762E+06</totfact>
</mgrwt>
</event>
<event>
 3    1  0.1620993E-001  0.1250000E+03  0.7546771E-02  0.1235069E+00
         21   -1    0    0  502  501  0.00000000000E+00  0.00000000000E+00  0.16116906297E+04  0.16116906297E+04  0.00000000000E+00 0.  1.
         21   -1    0    0  501  502 -0.00000000000E+00 -0.00000000000E+00 -0.24236971587E+01  0.24236971587E+01  0.00000000000E+00 0.  1.
         25    1    1    2    0    0  0.00000000000E+00  0.00000000000E+00  0.16092669326E+04  0.16141143269E+04  0.12500000000E+03 0.  0.
<mgrwt>
<rscale>  0 0.12500000E+03</rscale>
<asrwt>0</asrwt>
<pdfrwt beam="1">  1       21 0.24795155E+00 0.12500000E+03</pdfrwt>
<pdfrwt beam="2">  1       21 0.37287777E-03 0.12500000E+03</pdfrwt>
<totfact> 0.12383149E+06</totfact>
</mgrwt>
</event>
<event>
 3    1  0.1620993E-001  0.1250000E+03  0.7546771E-02  0.1235069E+00
         21   -1    0    0  502  501  0.00000000000E+00  0.00000000000E+00  0.96348044862E+02  0.96348044862E+02  0.00000000000E+00 0.  1.
         21   -1    0    0  501  502 -0.00000000000E+00 -0.00000000000E+00 -0.40543116423E+02  0.40543116423E+02  0.00000000000E+00 0.  1.
         25    1    1    2    0    0  0.00000000000E+00  0.00000000000E+00  0.55804928438E+02  0.13689116129E+03  0.12500000000E+03 0.  0.
<mgrwt>
<rscale>  0 0.12500000E+03</rscale>
<asrwt>0</asrwt>
<pdfrwt beam="1">  1       21 0.14822776E-01 0.12500000E+03</pdfrwt>
<pdfrwt beam="2">  1       21 0.62374025E-02 0.12500000E+03</pdfrwt>
<totfact> 0.72447026E+06</totfact>
</mgrwt>
</event>
<event>
 3    1  0.1620993E-001  0.1250000E+03  0.7546771E-02  0.1235069E+00
         21   -1    0    0  502  501  0.00000000000E+00  0.00000000000E+00  0.18678923102E+03  0.18678923102E+03  0.00000000000E+00 0.  1.
         21   -1    0    0  501  502 -0.00000000000E+00 -0.00000000000E+00 -0.20912608177E+02  0.20912608177E+02  0.00000000000E+00 0.  1.
         25    1    1    2    0    0  0.00000000000E+00  0.00000000000E+00  0.16587662284E+03  0.20770183920E+03  0.12500000000E+03 0.  0.
<mgrwt>
<rscale>  0 0.12500000E+03</rscale>
<asrwt>0</asrwt>
<pdfrwt beam="1">  1       21 0.28736804E-01 0.12500000E+03</pdfrwt>
<pdfrwt beam="2">  1       21 0.32173245E-02 0.12500000E+03</pdfrwt>
<totfact> 0.64102143E+06</totfact>
</mgrwt>
</event>
<event>
 3    1  0.1620993E-001  0.1250000E+03  0.7546771E-02  0.1235069E+00
         21   -1    0    0  502  501  0.00000000000E+00  0.00000000000E+00  0.19816442104E+02  0.19816442104E+02  0.00000000000E+00 0. -1.
         21   -1    0    0  501  502 -0.00000000000E+00 -0.00000000000E+00 -0.19712166188E+03  0.19712166188E+03  0.00000000000E+00 0. -1.
         25    1    1    2    0    0  0.00000000000E+00  0.00000000000E+00 -0.17730521977E+03  0.21693810398E+03  0.12500000000E+03 0.  0.
<mgrwt>
<rscale>  0 0.12500000E+03</rscale>
<asrwt>0</asrwt>
<pdfrwt beam="1">  1       21 0.30486833E-02 0.12500000E+03</pdfrwt>
<pdfrwt beam="2">  1       21 0.30326410E-01 0.12500000E+03</pdfrwt>
<totfact> 0.63136879E+06</totfact>
</mgrwt>
</event>
<event>
 3    1  0.1620993E-001  0.1250000E+03  0.7546771E-02  0.1235069E+00
         21   -1    0    0  502  501  0.00000000000E+00  0.00000000000E+00  0.17568609922E+02  0.17568609922E+02  0.00000000000E+00 0.  1.
         21   -1    0    0  501  502 -0.00000000000E+00 -0.00000000000E+00 -0.22234257676E+03  0.22234257676E+03  0.00000000000E+00 0.  1.
         25    1    1    2    0    0  0.00000000000E+00  0.00000000000E+00 -0.20477396683E+03  0.23991118668E+03  0.12500000000E+03 0.  0.
<mgrwt>
<rscale>  0 0.12500000E+03</rscale>
<asrwt>0</asrwt>
<pdfrwt beam="1">  1       21 0.27028631E-02 0.12500000E+03</pdfrwt>
<pdfrwt beam="2">  1       21 0.34206549E-01 0.12500000E+03</pdfrwt>
<totfact> 0.60841258E+06</totfact>
</mgrwt>
</event>
<event>
 3    1  0.1620993E-001  0.1250000E+03  0.7546771E-02  0.1235069E+00
         21   -1    0    0  502  501  0.00000000000E+00  0.00000000000E+00  0.12060617581E+03  0.12060617581E+03  0.00000000000E+00 0.  1.
         21   -1    0    0  501  502 -0.00000000000E+00 -0.00000000000E+00 -0.32388474088E+02  0.32388474088E+02  0.00000000000E+00 0.  1.
         25    1    1    2    0    0  0.00000000000E+00  0.00000000000E+00  0.88217701722E+02  0.15299464990E+03  0.12500000000E+03 0.  0.
<mgrwt>
<rscale>  0 0.12500000E+03</rscale>
<asrwt>0</asrwt>
<pdfrwt beam="1">  1       21 0.18554796E-01 0.12500000E+03</pdfrwt>
<pdfrwt beam="2">  1       21 0.49828422E-02 0.12500000E+03</pdfrwt>
<totfact> 0.70385014E+06</totfact>
</mgrwt>
</event>
<event>
 3    1  0.1620993E-001  0.1250000E+03  0.7546771E-02  0.1235069E+00
         21   -1    0    0  502  501  0.00000000000E+00  0.00000000000E+00  0.10225367425E+02  0.10225367425E+02  0.00000000000E+00 0. -1.
         21   -1    0    0  501  502 -0.00000000000E+00 -0.00000000000E+00 -0.38201561252E+03  0.38201561252E+03  0.00000000000E+00 0. -1.
         25    1    1    2    0    0  0.00000000000E+00  0.00000000000E+00 -0.37179024510E+03  0.39224097995E+03  0.12500000000E+03 0.  0.
<mgrwt>
<rscale>  0 0.12500000E+03</rscale>
<asrwt>0</asrwt>
<pdfrwt beam="1">  1       21 0.15731334E-02 0.12500000E+03</pdfrwt>
<pdfrwt beam="2">  1       21 0.58771636E-01 0.12500000E+03</pdfrwt>
<totfact> 0.48560290E+06</totfact>
</mgrwt>
</event>
<event>
 3    1  0.1620993E-001  0.1250000E+03  0.7546771E-02  0.1235069E+00
         21   -1    0    0  502  501  0.00000000000E+00  0.00000000000E+00  0.36166613605E+03  0.36166613605E+03  0.00000000000E+00 0. -1.
         21   -1    0    0  501  502 -0.00000000000E+00 -0.00000000000E+00 -0.10800707091E+02  0.10800707091E+02  0.00000000000E+00 0. -1.
         25    1    1    2    0    0  0.00000000000E+00  0.00000000000E+00  0.35086542896E+03  0.37246684314E+03  0.12500000000E+03 0.  0.
<mgrwt>
<rscale>  0 0.12500000E+03</rscale>
<asrwt>0</asrwt>
<pdfrwt beam="1">  1       21 0.55640935E-01 0.12500000E+03</pdfrwt>
<pdfrwt beam="2">  1       21 0.16616475E-02 0.12500000E+03</pdfrwt>
<totfact> 0.49920803E+06</totfact>
</mgrwt>
</event>
<event>
 3    1  0.1620993E-001  0.1250000E+03  0.7546771E-02  0.1235069E+00
         21   -1    0    0  502  501  0.00000000000E+00  0.00000000000E+00  0.22803444322E+03  0.22803444322E+03  0.00000000000E+00 0.  1.
         21   -1    0    0  501  502 -0.00000000000E+00 -0.00000000000E+00 -0.17130087652E+02  0.17130087652E+02  0.00000000000E+00 0.  1.
         25    1    1    2    0    0  0.00000000000E+00  0.00000000000E+00  0.21090435557E+03  0.24516453087E+03  0.12500000000E+03 0.  0.
<mgrwt>
<rscale>  0 0.12500000E+03</rscale>
<asrwt>0</asrwt>
<pdfrwt beam="1">  1       21 0.35082220E-01 0.12500000E+03</pdfrwt>
<pdfrwt beam="2">  1       21 0.26353983E-02 0.12500000E+03</pdfrwt>
<totfact> 0.60336453E+06</totfact>
</mgrwt>
</event>
<event>
 3    1  0.1620993E-001  0.1250000E+03  0.7546771E-02  0.1235069E+00
         21   -1    0    0  502  501  0.00000000000E+00  0.00000000000E+00  0.43772698635E+02  0.43772698635E+02  0.00000000000E+00 0. -1.
         21   -1    0    0  501  502 -0.00000000000E+00 -0.00000000000E+00 -0.89239414562E+02  0.89239414562E+02  0.00000000000E+00 0. -1.
         25    1    1    2    0    0  0.00000000000E+00  0.00000000000E+00 -0.45466715927E+02  0.13301211320E+03  0.12500000000E+03 0.  0.
<mgrwt>
<rscale>  0 0.12500000E+03</rscale>
<asrwt>0</asrwt>
<pdfrwt beam="1">  1       21 0.67342613E-02 0.12500000E+03</pdfrwt>
<pdfrwt beam="2">  1       21 0.13729141E-01 0.12500000E+03</pdfrwt>
<totfact> 0.72960781E+06</totfact>
</mgrwt>
</event>
<event>
 3    1  0.1620993E-001  0.1250000E+03  0.7546771E-02  0.1235069E+00
         21   -1    0    0  502  501  0.00000000000E+00  0.00000000000E+00  0.50243964858E+01  0.50243964858E+01  0.00000000000E+00 0. -1.
         21   -1    0    0  501  502 -0.00000000000E+00 -0.00000000000E+00 -0.77745655842E+03  0.77745655842E+03  0.00000000000E+00 0. -1.
         25    1    1    2    0    0  0.00000000000E+00  0.00000000000E+00 -0.77243216194E+03  0.78248095491E+03  0.12500000000E+03 0.  0.
<mgrwt>
<rscale>  0 0.12500000E+03</rscale>
<asrwt>0</asrwt>
<pdfrwt beam="1">  1       21 0.77298383E-03 0.12500000E+03</pdfrwt>
<pdfrwt beam="2">  1       21 0.11960874E+00 0.12500000E+03</pdfrwt>
<totfact> 0.29951527E+06</totfact>
</mgrwt>
</event>
<event>
 3    1  0.1620993E-001  0.1250000E+03  0.7546771E-02  0.1235069E+00
         21   -1    0    0  502  501  0.00000000000E+00  0.00000000000E+00  0.10795079322E+02  0.10795079322E+02  0.00000000000E+00 0.  1.
         21   -1    0    0  501  502 -0.00000000000E+00 -0.00000000000E+00 -0.36185468244E+03  0.36185468244E+03  0.00000000000E+00 0.  1.
         25    1    1    2    0    0  0.00000000000E+00  0.00000000000E+00 -0.35105960312E+03  0.37264976177E+03  0.12500000000E+03 0.  0.
<mgrwt>
<rscale>  0 0.12500000E+03</rscale>
<asrwt>0</asrwt>
<pdfrwt beam="1">  1       21 0.16607812E-02 0.12500000E+03</pdfrwt>
<pdfrwt beam="2">  1       21 0.55669958E-01 0.12500000E+03</pdfrwt>
<totfact> 0.49907957E+06</totfact>
</mgrwt>
</event>
<event>
 3    1  0.1620993E-001  0.1250000E+03  0.7546771E-02  0.1235069E+00
         21   -1    0    0  502  501  0.00000000000E+00  0.00000000000E+00  0.26342230375E+02  0.26342230375E+02  0.00000000000E+00 0.  1.
         21   -1    0    0  501  502 -0.00000000000E+00 -0.00000000000E+00 -0.14828850649E+03  0.14828850649E+03  0.00000000000E+00 0.  1.
         25    1    1    2    0    0  0.00000000000E+00  0.00000000000E+00 -0.12194627612E+03  0.17463073687E+03  0.12500000000E+03 0.  0.
<mgrwt>
<rscale>  0 0.12500000E+03</rscale>
<asrwt>0</asrwt>
<pdfrwt beam="1">  1       21 0.40526509E-02 0.12500000E+03</pdfrwt>
<pdfrwt beam="2">  1       21 0.22813616E-01 0.12500000E+03</pdfrwt>
<totfact> 0.67772884E+06</totfact>
</mgrwt>
</event>
<event>
 3    1  0.1620993E-001  0.1250000E+03  0.7546771E-02  0.1235069E+00
         21   -1    0    0  502  501  0.00000000000E+00  0.00000000000E+00  0.89750729425E+02  0.89750729425E+02  0.00000000000E+00 0.  1.
         21   -1    0    0  501  502 -0.00000000000E+00 -0.00000000000E+00 -0.43523323153E+02  0.43523323153E+02  0.00000000000E+00 0.  1.
         25    1    1    2    0    0  0.00000000000E+00  0.00000000000E+00  0.46227406272E+02  0.13327405258E+03  0.12500000000E+03 0.  0.
<mgrwt>
<rscale>  0 0.12500000E+03</rscale>
<asrwt>0</asrwt>
<pdfrwt beam="1">  1       21 0.13807804E-01 0.12500000E+03</pdfrwt>
<pdfrwt beam="2">  1       21 0.66958959E-02 0.12500000E+03</pdfrwt>
<totfact> 0.72925825E+06</totfact>
</mgrwt>
</event>
<event>
 3    1  0.1620993E-001  0.1250000E+03  0.7546771E-02  0.1235069E+00
         21   -1    0    0  502  501  0.00000000000E+00  0.00000000000E+00  0.24835438139E+02  0.24835438139E+02  0.00000000000E+00 0.  1.
         21   -1    0    0  501  502 -0.00000000000E+00 -0.00000000000E+00 -0.15728532664E+03  0.15728532664E+03  0.00000000000E+00 0.  1.
         25    1    1    2    0    0  0.00000000000E+00  0.00000000000E+00 -0.13244988850E+03  0.18212076478E+03  0.12500000000E+03 0.  0.
<mgrwt>
<rscale>  0 0.12500000E+03</rscale>
<asrwt>0</asrwt>
<pdfrwt beam="1">  1       21 0.38208366E-02 0.12500000E+03</pdfrwt>
<pdfrwt beam="2">  1       21 0.24197743E-01 0.12500000E+03</pdfrwt>
<totfact> 0.66909078E+06</totfact>
</mgrwt>
</event>
<event>
 3    1  0.1620993E-001  0.1250000E+03  0.7546771E-02  0.1235069E+00
         21   -1    0    0  502  501  0.00000000000E+00  0.00000000000E+00  0.16954443248E+03  0.16954443248E+03  0.00000000000E+00 0. -1.
         21   -1    0    0  501  502 -0.00000000000E+00 -0.00000000000E+00 -0.23039683125E+02  0.23039683125E+02  0.00000000000E+00 0. -1.
         25    1    1    2    0    0  0.00000000000E+00  0.00000000000E+00  0.14650474936E+03  0.19258411561E+03  0.12500000000E+03 0.  0.
<mgrwt>
<rscale>  0 0.12500000E+03</rscale>
<asrwt>0</asrwt>
<pdfrwt beam="1">  1       21 0.26083758E-01 0.12500000E+03</pdfrwt>
<pdfrwt beam="2">  1       21 0.35445667E-02 0.12500000E+03</pdfrwt>
<totfact> 0.65736409E+06</totfact>
</mgrwt>
</event>
<event>
 3    1  0.1620993E-001  0.1250000E+03  0.7546771E-02  0.1235069E+00
         21   -1    0    0  502  501  0.00000000000E+00  0.00000000000E+00  0.19338489861E+01  0.19338489861E+01  0.00000000000E+00 0. -1.
         21   -1    0    0  501  502 -0.00000000000E+00 -0.00000000000E+00 -0.20199353869E+04  0.20199353869E+04  0.00000000000E+00 0. -1.
         25    1    1    2    0    0  0.00000000000E+00  0.00000000000E+00 -0.20180015379E+04  0.20218692359E+04  0.12500000000E+03 0.  0.
<mgrwt>
<rscale>  0 0.12500000E+03</rscale>
<asrwt>0</asrwt>
<pdfrwt beam="1">  1       21 0.29751459E-03 0.12500000E+03</pdfrwt>
<pdfrwt beam="2">  1       21 0.31075996E+00 0.12500000E+03</pdfrwt>
<totfact> 0.77365979E+05</totfact>
</mgrwt>
</event>
<event>
 3    1  0.1620993E-001  0.1250000E+03  0.7546771E-02  0.1235069E+00
         21   -1    0    0  502  501  0.00000000000E+00  0.00000000000E+00  0.39868252150E+02  0.39868252150E+02  0.00000000000E+00 0.  1.
         21   -1    0    0  501  502 -0.00000000000E+00 -0.00000000000E+00 -0.97978962944E+02  0.97978962944E+02  0.00000000000E+00 0.  1.
         25    1    1    2    0    0  0.00000000000E+00  0.00000000000E+00 -0.58110710795E+02  0.13784721509E+03  0.12500000000E+03 0.  0.
<mgrwt>
<rscale>  0 0.12500000E+03</rscale>
<asrwt>0</asrwt>
<pdfrwt beam="1">  1       21 0.61335774E-02 0.12500000E+03</pdfrwt>
<pdfrwt beam="2">  1       21 0.15073686E-01 0.12500000E+03</pdfrwt>
<totfact> 0.72321611E+06</totfact>
</mgrwt>
</event>
<event>
 3    1  0.1620993E-001  0.1250000E+03  0.7546771E-02  0.1235069E+00
         21   -1    0    0  502  501  0.00000000000E+00  0.00000000000E+00  0.11887791072E+03  0.11887791072E+03  0.00000000000E+00 0.  1.
         21   -1    0    0  501  502 -0.00000000000E+00 -0.00000000000E+00 -0.32859342633E+02  0.32859342633E+02  0.00000000000E+00 0.  1.
         25    1    1    2    0    0  0.00000000000E+00  0.00000000000E+00  0.86018568092E+02  0.15173725336E+03  0.12500000000E+03 0.  0.
<mgrwt>
<rscale>  0 0.12500000E+03</rscale>
<asrwt>0</asrwt>
<pdfrwt beam="1">  1       21 0.18288909E-01 0.12500000E+03</pdfrwt>
<pdfrwt beam="2">  1       21 0.50552835E-02 0.12500000E+03</pdfrwt>
<totfact> 0.70541647E+06</totfact>
</mgrwt>
</event>
<event>
 3    1  0.1620993E-001  0.1250000E+03  0.7546771E-02  0.1235069E+00
         21   -1    0    0  502  501  0.00000000000E+00  0.00000000000E+00  0.42161371279E+03  0.42161371279E+03  0.00000000000E+00 0. -1.
         21   -1    0    0  501  502 -0.00000000000E+00 -0.00000000000E+00 -0.92649975119E+01  0.92649975119E+01  0.00000000000E+00 0. -1.
         25    1    1    2    0    0  0.00000000000E+00  0.00000000000E+00  0.41234871528E+03  0.43087871030E+03  0.12500000000E+03 0.  0.
<mgrwt>
<rscale>  0 0.12500000E+03</rscale>
<asrwt>0</asrwt>
<pdfrwt beam="1">  1       21 0.64863633E-01 0.12500000E+03</pdfrwt>
<pdfrwt beam="2">  1       21 0.14253846E-02 0.12500000E+03</pdfrwt>
<totfact> 0.46058448E+06</totfact>
</mgrwt>
</event>
<event>
 3    1  0.1620993E-001  0.1250000E+03  0.7546771E-02  0.1235069E+00
         21   -1    0    0  502  501  0.00000000000E+00  0.00000000000E+00  0.48490604266E+02  0.48490604266E+02  0.00000000000E+00 0.  1.
         21   -1    0    0  501  502 -0.00000000000E+00 -0.00000000000E+00 -0.80556843106E+02  0.80556843106E+02  0.00000000000E+00 0.  1.
         25    1    1    2    0    0  0.00000000000E+00  0.00000000000E+00 -0.32066238840E+02  0.12904744737E+03  0.12500000000E+03 0.  0.
<mgrwt>
<rscale>  0 0.12500000E+03</rscale>
<asrwt>0</asrwt>
<pdfrwt beam="1">  1       21 0.74600930E-02 0.12500000E+03</pdfrwt>
<pdfrwt beam="2">  1       21 0.12393360E-01 0.12500000E+03</pdfrwt>
<totfact> 0.73492509E+06</totfact>
</mgrwt>
</event>
<event>
 3    1  0.1620993E-001  0.1250000E+03  0.7546771E-02  0.1235069E+00
         21   -1    0    0  502  501  0.00000000000E+00  0.00000000000E+00  0.65152872753E+02  0.65152872753E+02  0.00000000000E+00 0. -1.
         21   -1    0    0  501  502 -0.00000000000E+00 -0.00000000000E+00 -0.59955146027E+02  0.59955146027E+02  0.00000000000E+00 0. -1.
         25    1    1    2    0    0  0.00000000000E+00  0.00000000000E+00  0.51977267263E+01  0.12510801878E+03  0.12500000000E+03 0.  0.
<mgrwt>
<rscale>  0 0.12500000E+03</rscale>
<asrwt>0</asrwt>
<pdfrwt beam="1">  1       21 0.10023519E-01 0.12500000E+03</pdfrwt>
<pdfrwt beam="2">  1       21 0.92238686E-02 0.12500000E+03</pdfrwt>
<totfact> 0.74028992E+06</totfact>
</mgrwt>
</event>
<event>
 3    1  0.1620993E-001  0.1250000E+03  0.7546771E-02  0.1235069E+00
         21   -1    0    0  502  501  0.00000000000E+00  0.00000000000E+00  0.24511156738E+03  0.24511156738E+03  0.00000000000E+00 0.  1.
         21   -1    0    0  501  502 -0.00000000000E+00 -0.00000000000E+00 -0.15936620380E+02  0.15936620380E+02  0.00000000000E+00 0.  1.
         25    1    1    2    0    0  0.00000000000E+00  0.00000000000E+00  0.22917494700E+03  0.26104818776E+03  0.12500000000E+03 0.  0.
<mgrwt>
<rscale>  0 0.12500000E+03</rscale>
<asrwt>0</asrwt>
<pdfrwt beam="1">  1       21 0.37709469E-01 0.12500000E+03</pdfrwt>
<pdfrwt beam="2">  1       21 0.24517879E-02 0.12500000E+03</pdfrwt>
<totfact> 0.58853333E+06</totfact>
</mgrwt>
</event>
<event>
 3    1  0.1620993E-001  0.1250000E+03  0.7546771E-02  0.1235069E+00
         21   -1    0    0  502  501  0.00000000000E+00  0.00000000000E+00  0.11072565579E+02  0.11072565579E+02  0.00000000000E+00 0. -1.
         21   -1    0    0  501  502 -0.00000000000E+00 -0.00000000000E+00 -0.35278635039E+03  0.35278635039E+03  0.00000000000E+00 0. -1.
         25    1    1    2    0    0  0.00000000000E+00  0.00000000000E+00 -0.34171378481E+03  0.36385891597E+03  0.12500000000E+03 0.  0.
<mgrwt>
<rscale>  0 0.12500000E+03</rscale>
<asrwt>0</asrwt>
<pdfrwt beam="1">  1       21 0.17034718E-02 0.12500000E+03</pdfrwt>
<pdfrwt beam="2">  1       21 0.54274818E-01 0.12500000E+03</pdfrwt>
<totfact> 0.50530919E+06</totfact>
</mgrwt>
</event>
