<event>
 4    1  0.4774032E-002  0.4013660E+03  0.7818608E-02  0.1043308E+00
         21   -1    0    0  501  502  0.00000000000E+00  0.00000000000E+00  0.69368179288E+03  0.69368179288E+03  0.00000000000E+00 0.  1.
         21   -1    0    0  502  503 -0.00000000000E+00 -0.00000000000E+00 -0.29274048244E+03  0.29274048244E+03  0.00000000000E+00 0.  1.
    9000005    1    1    2  501    0 -0.13579301803E+02 -0.30170247558E+02  0.42470495209E+03  0.58435343552E+03  0.40000000000E+03 0.  1.
   -9000005    1    1    2    0  503  0.13579301803E+02  0.30170247558E+02 -0.23763641658E+02  0.40206883980E+03  0.40000000000E+03 0.  1.
<mgrwt>
<rscale>  2 0.40136597E+03</rscale>
<asrwt>0</asrwt>
<pdfrwt beam="1">  1       21 0.10672028E+00 0.40136597E+03</pdfrwt>
<pdfrwt beam="2">  1       21 0.45036997E-01 0.40136597E+03</pdfrwt>
<totfact> 0.29399039E+03</totfact>
</mgrwt>
</event>
<event>
 4    1  0.4774032E-002  0.4373293E+03  0.7818608E-02  0.1031569E+00
         21   -1    0    0  503  502  0.00000000000E+00  0.00000000000E+00  0.58649896661E+03  0.58649896661E+03  0.00000000000E+00 0.  1.
         21   -1    0    0  501  503 -0.00000000000E+00 -0.00000000000E+00 -0.37637910902E+03  0.37637910902E+03  0.00000000000E+00 0. -1.
    9000005    1    1    2  501    0  0.13505995914E+03 -0.11408653461E+03  0.28102446731E+03  0.51983812978E+03  0.40000000000E+03 0.  1.
   -9000005    1    1    2    0  502 -0.13505995914E+03  0.11408653461E+03 -0.70904609722E+02  0.44303994585E+03  0.40000000000E+03 0. -1.
<mgrwt>
<rscale>  2 0.43732932E+03</rscale>
<asrwt>0</asrwt>
<pdfrwt beam="1">  1       21 0.90230610E-01 0.43732932E+03</pdfrwt>
<pdfrwt beam="2">  1       21 0.57904479E-01 0.43732932E+03</pdfrwt>
<totfact> 0.25444855E+03</totfact>
</mgrwt>
</event>
<event>
 4    1  0.4774032E-002  0.4177269E+03  0.7818608E-02  0.1037809E+00
         21   -1    0    0  501  502  0.00000000000E+00  0.00000000000E+00  0.16051038518E+04  0.16051038518E+04  0.00000000000E+00 0. -1.
         21   -1    0    0  502  503 -0.00000000000E+00 -0.00000000000E+00 -0.12922840632E+03  0.12922840632E+03  0.00000000000E+00 0. -1.
    9000005    1    1    2  501    0 -0.87135740184E+02  0.83084881209E+02  0.10834494941E+04  0.11611884175E+04  0.40000000000E+03 0.  1.
   -9000005    1    1    2    0  503  0.87135740184E+02 -0.83084881209E+02  0.39242595135E+03  0.57314384058E+03  0.40000000000E+03 0.  1.
<mgrwt>
<rscale>  2 0.41772687E+03</rscale>
<asrwt>0</asrwt>
<pdfrwt beam="1">  1       21 0.24693904E+00 0.41772687E+03</pdfrwt>
<pdfrwt beam="2">  1       21 0.19881294E-01 0.41772687E+03</pdfrwt>
<totfact> 0.13591686E+03</totfact>
</mgrwt>
</event>
<event>
 4    1  0.4774032E-002  0.4172721E+03  0.7818608E-02  0.1037958E+00
         21   -1    0    0  503  502  0.00000000000E+00  0.00000000000E+00  0.12444087841E+04  0.12444087841E+04  0.00000000000E+00 0. -1.
         21   -1    0    0  501  503 -0.00000000000E+00 -0.00000000000E+00 -0.16478382056E+03  0.16478382056E+03  0.00000000000E+00 0. -1.
    9000005    1    1    2  501    0  0.10991730996E+03  0.45102141450E+02  0.26611005431E+03  0.49490461626E+03  0.40000000000E+03 0. -1.
   -9000005    1    1    2    0  502 -0.10991730996E+03 -0.45102141450E+02  0.81351490921E+03  0.91428798838E+03  0.40000000000E+03 0. -1.
<mgrwt>
<rscale>  2 0.41727212E+03</rscale>
<asrwt>0</asrwt>
<pdfrwt beam="1">  1       21 0.19144750E+00 0.41727212E+03</pdfrwt>
<pdfrwt beam="2">  1       21 0.25351358E-01 0.41727212E+03</pdfrwt>
<totfact> 0.19332511E+03</totfact>
</mgrwt>
</event>
<event>
 4    1  0.4774032E-002  0.5831254E+03  0.7818608E-02  0.9941047E-01
         21   -1    0    0  503  502  0.00000000000E+00  0.00000000000E+00  0.12063058985E+04  0.12063058985E+04  0.00000000000E+00 0. -1.
         21   -1    0    0  501  503 -0.00000000000E+00 -0.00000000000E+00 -0.50473989949E+03  0.50473989949E+03  0.00000000000E+00 0. -1.
    9000005    1    1    2  501    0  0.13390306863E+03  0.40262288465E+03 -0.21769335087E+03  0.62243522879E+03  0.40000000000E+03 0. -1.
   -9000005    1    1    2    0  502 -0.13390306863E+03 -0.40262288465E+03  0.91925934984E+03  0.10886105692E+04  0.40000000000E+03 0. -1.
<mgrwt>
<rscale>  2 0.58312539E+03</rscale>
<asrwt>0</asrwt>
<pdfrwt beam="1">  1       21 0.18558552E+00 0.58312539E+03</pdfrwt>
<pdfrwt beam="2">  1       21 0.77652293E-01 0.58312539E+03</pdfrwt>
<totfact> 0.18720225E+02</totfact>
</mgrwt>
</event>
<event>
 4    1  0.4774032E-002  0.5084779E+03  0.7818608E-02  0.1011589E+00
         21   -1    0    0  501  502  0.00000000000E+00  0.00000000000E+00  0.38755470559E+03  0.38755470559E+03  0.00000000000E+00 0.  1.
         21   -1    0    0  502  503 -0.00000000000E+00 -0.00000000000E+00 -0.95224622314E+03  0.95224622314E+03  0.00000000000E+00 0. -1.
    9000005    1    1    2  501    0  0.19218580002E+03  0.24822238155E+03  0.84214943040E+02  0.51540458774E+03  0.40000000000E+03 0.  1.
   -9000005    1    1    2    0  503 -0.19218580002E+03 -0.24822238155E+03 -0.64890646060E+03  0.82439634099E+03  0.40000000000E+03 0. -1.
<mgrwt>
<rscale>  2 0.50847786E+03</rscale>
<asrwt>0</asrwt>
<pdfrwt beam="1">  1       21 0.59623801E-01 0.50847786E+03</pdfrwt>
<pdfrwt beam="2">  1       21 0.14649942E+00 0.50847786E+03</pdfrwt>
<totfact> 0.68400661E+02</totfact>
</mgrwt>
</event>
<event>
 4    1  0.4774032E-002  0.6060652E+03  0.7818608E-02  0.9892902E-01
         21   -1    0    0  503  502  0.00000000000E+00  0.00000000000E+00  0.13372822432E+04  0.13372822432E+04  0.00000000000E+00 0. -1.
         21   -1    0    0  501  503 -0.00000000000E+00 -0.00000000000E+00 -0.30169906920E+03  0.30169906920E+03  0.00000000000E+00 0.  1.
    9000005    1    1    2  501    0  0.34839350608E+03 -0.29315007265E+03  0.27251820562E+03  0.66451574291E+03  0.40000000000E+03 0.  1.
   -9000005    1    1    2    0  502 -0.34839350608E+03  0.29315007265E+03  0.76306496837E+03  0.97446556949E+03  0.40000000000E+03 0. -1.
<mgrwt>
<rscale>  2 0.60606518E+03</rscale>
<asrwt>0</asrwt>
<pdfrwt beam="1">  1       21 0.20573573E+00 0.60606518E+03</pdfrwt>
<pdfrwt beam="2">  1       21 0.46415242E-01 0.60606518E+03</pdfrwt>
<totfact> 0.42120384E+02</totfact>
</mgrwt>
</event>
<event>
 4    1  0.4774032E-002  0.5242910E+03  0.7818608E-02  0.1007626E+00
         21   -1    0    0  503  502  0.00000000000E+00  0.00000000000E+00  0.39121868048E+03  0.39121868048E+03  0.00000000000E+00 0.  1.
         21   -1    0    0  501  503 -0.00000000000E+00 -0.00000000000E+00 -0.70537871497E+03  0.70537871497E+03  0.00000000000E+00 0. -1.
    9000005    1    1    2  501    0 -0.21201124352E+03 -0.26444716010E+03 -0.12283831867E+03  0.53848892319E+03  0.40000000000E+03 0.  1.
   -9000005    1    1    2    0  502  0.21201124352E+03  0.26444716010E+03 -0.19132171582E+03  0.55810847226E+03  0.40000000000E+03 0.  1.
<mgrwt>
<rscale>  2 0.52429101E+03</rscale>
<asrwt>0</asrwt>
<pdfrwt beam="1">  1       21 0.60187490E-01 0.52429101E+03</pdfrwt>
<pdfrwt beam="2">  1       21 0.10851980E+00 0.52429101E+03</pdfrwt>
<totfact> 0.14483087E+03</totfact>
</mgrwt>
</event>
<event>
 4    1  0.4774032E-002  0.4274900E+03  0.7818608E-02  0.1034656E+00
         21   -1    0    0  501  502  0.00000000000E+00  0.00000000000E+00  0.31454665705E+04  0.31454665705E+04  0.00000000000E+00 0. -1.
         21   -1    0    0  502  503 -0.00000000000E+00 -0.00000000000E+00 -0.76357545908E+02  0.76357545908E+02  0.00000000000E+00 0. -1.
    9000005    1    1    2  501    0 -0.15047808867E+03 -0.10201309164E+02  0.74681660548E+03  0.86051308189E+03  0.40000000000E+03 0.  1.
   -9000005    1    1    2    0  503  0.15047808867E+03  0.10201309164E+02  0.23222924191E+04  0.23613110345E+04  0.40000000000E+03 0.  1.
<mgrwt>
<rscale>  2 0.42749003E+03</rscale>
<asrwt>0</asrwt>
<pdfrwt beam="1">  1       21 0.48391783E+00 0.42749003E+03</pdfrwt>
<pdfrwt beam="2">  1       21 0.11747317E-01 0.42749003E+03</pdfrwt>
<totfact> 0.11407475E+02</totfact>
</mgrwt>
</event>
<event>
 4    1  0.4774032E-002  0.5192943E+03  0.7818608E-02  0.1008862E+00
         21   -1    0    0  501  502  0.00000000000E+00  0.00000000000E+00  0.60388372747E+03  0.60388372747E+03  0.00000000000E+00 0. -1.
         21   -1    0    0  502  503 -0.00000000000E+00 -0.00000000000E+00 -0.45826291026E+03  0.45826291026E+03  0.00000000000E+00 0.  1.
    9000005    1    1    2  501    0 -0.33115481899E+03  0.17402112337E+01  0.15770109042E+03  0.54271187236E+03  0.40000000000E+03 0.  1.
   -9000005    1    1    2    0  503  0.33115481899E+03 -0.17402112337E+01 -0.12080273205E+02  0.51943476537E+03  0.40000000000E+03 0.  1.
<mgrwt>
<rscale>  2 0.51929427E+03</rscale>
<asrwt>0</asrwt>
<pdfrwt beam="1">  1       21 0.92905189E-01 0.51929427E+03</pdfrwt>
<pdfrwt beam="2">  1       21 0.70501986E-01 0.51929427E+03</pdfrwt>
<totfact> 0.14896517E+03</totfact>
</mgrwt>
</event>
<event>
 4    1  0.4774032E-002  0.5349691E+03  0.7818608E-02  0.1005034E+00
         21   -1    0    0  501  502  0.00000000000E+00  0.00000000000E+00  0.29591013603E+03  0.29591013603E+03  0.00000000000E+00 0. -1.
         21   -1    0    0  502  503 -0.00000000000E+00 -0.00000000000E+00 -0.97299362490E+03  0.97299362490E+03  0.00000000000E+00 0. -1.
    9000005    1    1    2  501    0 -0.19538006329E+02 -0.35469733874E+03 -0.38767519420E+03  0.66066935149E+03  0.40000000000E+03 0. -1.
   -9000005    1    1    2    0  503  0.19538006329E+02  0.35469733874E+03 -0.28940829467E+03  0.60823440944E+03  0.40000000000E+03 0. -1.
<mgrwt>
<rscale>  2 0.53496910E+03</rscale>
<asrwt>0</asrwt>
<pdfrwt beam="1">  1       21 0.45524635E-01 0.53496910E+03</pdfrwt>
<pdfrwt beam="2">  1       21 0.14969133E+00 0.53496910E+03</pdfrwt>
<totfact> 0.11406033E+03</totfact>
</mgrwt>
</event>
<event>
 4    1  0.4774032E-002  0.4926169E+03  0.7818608E-02  0.1015724E+00
         21   -1    0    0  503  502  0.00000000000E+00  0.00000000000E+00  0.73755932094E+03  0.73755932094E+03  0.00000000000E+00 0.  1.
         21   -1    0    0  501  503 -0.00000000000E+00 -0.00000000000E+00 -0.34513994723E+03  0.34513994723E+03  0.00000000000E+00 0.  1.
    9000005    1    1    2  501    0 -0.21330172201E+03  0.19280493781E+03  0.79214140289E+02  0.49894513594E+03  0.40000000000E+03 0.  1.
   -9000005    1    1    2    0  502  0.21330172201E+03 -0.19280493781E+03  0.31320523342E+03  0.58375413223E+03  0.40000000000E+03 0.  1.
<mgrwt>
<rscale>  2 0.49261686E+03</rscale>
<asrwt>0</asrwt>
<pdfrwt beam="1">  1       21 0.11347066E+00 0.49261686E+03</pdfrwt>
<pdfrwt beam="2">  1       21 0.53098454E-01 0.49261686E+03</pdfrwt>
<totfact> 0.17203449E+03</totfact>
</mgrwt>
</event>
<event>
 4    1  0.4774032E-002  0.5197575E+03  0.7818608E-02  0.1008747E+00
         21   -1    0    0  503  502  0.00000000000E+00  0.00000000000E+00  0.63101312669E+03  0.63101312669E+03  0.00000000000E+00 0.  1.
         21   -1    0    0  501  503 -0.00000000000E+00 -0.00000000000E+00 -0.50564353169E+03  0.50564353169E+03  0.00000000000E+00 0. -1.
    9000005    1    1    2  501    0  0.30210835180E+03  0.13739885000E+03  0.28522077908E+03  0.59287333641E+03  0.40000000000E+03 0. -1.
   -9000005    1    1    2    0  502 -0.30210835180E+03 -0.13739885000E+03 -0.15985118407E+03  0.54378332197E+03  0.40000000000E+03 0. -1.
<mgrwt>
<rscale>  2 0.51975754E+03</rscale>
<asrwt>0</asrwt>
<pdfrwt beam="1">  1       21 0.97078943E-01 0.51975754E+03</pdfrwt>
<pdfrwt beam="2">  1       21 0.77791312E-01 0.51975754E+03</pdfrwt>
<totfact> 0.10703676E+03</totfact>
</mgrwt>
</event>
<event>
 4    1  0.4774032E-002  0.4203869E+03  0.7818608E-02  0.1036940E+00
         21   -1    0    0  501  502  0.00000000000E+00  0.00000000000E+00  0.56062184711E+03  0.56062184711E+03  0.00000000000E+00 0.  1.
         21   -1    0    0  502  503 -0.00000000000E+00 -0.00000000000E+00 -0.64407823146E+03  0.64407823146E+03  0.00000000000E+00 0.  1.
    9000005    1    1    2  501    0  0.12394701189E+03 -0.36909559696E+02  0.38867647551E+03  0.57253347497E+03  0.40000000000E+03 0.  1.
   -9000005    1    1    2    0  503 -0.12394701189E+03  0.36909559696E+02 -0.47213285985E+03  0.63216660360E+03  0.40000000000E+03 0.  1.
<mgrwt>
<rscale>  2 0.42038694E+03</rscale>
<asrwt>0</asrwt>
<pdfrwt beam="1">  1       21 0.86249515E-01 0.42038694E+03</pdfrwt>
<pdfrwt beam="2">  1       21 0.99088958E-01 0.42038694E+03</pdfrwt>
<totfact> 0.83375054E+02</totfact>
</mgrwt>
</event>
<event>
 4    1  0.4774032E-002  0.4804522E+03  0.7818608E-02  0.1019011E+00
         21   -1    0    0  501  502  0.00000000000E+00  0.00000000000E+00  0.21216874275E+03  0.21216874275E+03  0.00000000000E+00 0.  1.
         21   -1    0    0  502  503 -0.00000000000E+00 -0.00000000000E+00 -0.11971214558E+04  0.11971214558E+04  0.00000000000E+00 0.  1.
    9000005    1    1    2  501    0  0.23000952519E+03 -0.13390254582E+03 -0.27970837047E+03  0.55594158503E+03  0.40000000000E+03 0.  1.
   -9000005    1    1    2    0  503 -0.23000952519E+03  0.13390254582E+03 -0.70524434253E+03  0.85334861348E+03  0.40000000000E+03 0.  1.
<mgrwt>
<rscale>  2 0.48045216E+03</rscale>
<asrwt>0</asrwt>
<pdfrwt beam="1">  1       21 0.32641345E-01 0.48045216E+03</pdfrwt>
<pdfrwt beam="2">  1       21 0.18417253E+00 0.48045216E+03</pdfrwt>
<totfact> 0.12807351E+03</totfact>
</mgrwt>
</event>
<event>
 4    1  0.4774032E-002  0.6742151E+03  0.7818608E-02  0.9762373E-01
         21   -1    0    0  501  502  0.00000000000E+00  0.00000000000E+00  0.18748977621E+04  0.18748977621E+04  0.00000000000E+00 0. -1.
         21   -1    0    0  502  503 -0.00000000000E+00 -0.00000000000E+00 -0.35606168658E+03  0.35606168658E+03  0.00000000000E+00 0.  1.
    9000005    1    1    2  501    0 -0.37114058062E+03  0.39600591474E+03  0.13895239672E+04  0.15444555256E+04  0.40000000000E+03 0. -1.
   -9000005    1    1    2    0  503  0.37114058062E+03 -0.39600591474E+03  0.12931210836E+03  0.68650392312E+03  0.40000000000E+03 0.  1.
<mgrwt>
<rscale>  2 0.67421511E+03</rscale>
<asrwt>0</asrwt>
<pdfrwt beam="1">  1       21 0.28844580E+00 0.67421511E+03</pdfrwt>
<pdfrwt beam="2">  1       21 0.54778722E-01 0.67421511E+03</pdfrwt>
<totfact> 0.86581010E+01</totfact>
</mgrwt>
</event>
<event>
 4    1  0.4774032E-002  0.5991734E+03  0.7818608E-02  0.9907122E-01
         21   -1    0    0  503  502  0.00000000000E+00  0.00000000000E+00  0.85223344671E+03  0.85223344671E+03  0.00000000000E+00 0.  1.
         21   -1    0    0  501  503 -0.00000000000E+00 -0.00000000000E+00 -0.69883411079E+03  0.69883411079E+03  0.00000000000E+00 0.  1.
    9000005    1    1    2  501    0 -0.28492771483E+03 -0.34325641192E+03 -0.41207196236E+03  0.72719465699E+03  0.40000000000E+03 0.  1.
   -9000005    1    1    2    0  502  0.28492771483E+03  0.34325641192E+03  0.56547129829E+03  0.82387290051E+03  0.40000000000E+03 0.  1.
<mgrwt>
<rscale>  2 0.59917340E+03</rscale>
<asrwt>0</asrwt>
<pdfrwt beam="1">  1       21 0.13111284E+00 0.59917340E+03</pdfrwt>
<pdfrwt beam="2">  1       21 0.10751294E+00 0.59917340E+03</pdfrwt>
<totfact> 0.22498871E+02</totfact>
</mgrwt>
</event>
<event>
 4    1  0.4774032E-002  0.4434349E+03  0.7818608E-02  0.1029698E+00
         21   -1    0    0  501  502  0.00000000000E+00  0.00000000000E+00  0.26543895177E+03  0.26543895177E+03  0.00000000000E+00 0. -1.
         21   -1    0    0  502  503 -0.00000000000E+00 -0.00000000000E+00 -0.88946337423E+03  0.88946337423E+03  0.00000000000E+00 0. -1.
    9000005    1    1    2  501    0 -0.18487673770E+03 -0.49549409835E+02 -0.75927613950E+02  0.44988838029E+03  0.40000000000E+03 0. -1.
   -9000005    1    1    2    0  503  0.18487673770E+03  0.49549409835E+02 -0.54809680851E+03  0.70501394572E+03  0.40000000000E+03 0. -1.
<mgrwt>
<rscale>  2 0.44343495E+03</rscale>
<asrwt>0</asrwt>
<pdfrwt beam="1">  1       21 0.40836761E-01 0.44343495E+03</pdfrwt>
<pdfrwt beam="2">  1       21 0.13684052E+00 0.44343495E+03</pdfrwt>
<totfact> 0.18842445E+03</totfact>
</mgrwt>
</event>
<event>
 4    1  0.4774032E-002  0.4410722E+03  0.7818608E-02  0.1030418E+00
         21   -1    0    0  503  502  0.00000000000E+00  0.00000000000E+00  0.32097873918E+03  0.32097873918E+03  0.00000000000E+00 0.  1.
         21   -1    0    0  501  503 -0.00000000000E+00 -0.00000000000E+00 -0.97655643020E+03  0.97655643020E+03  0.00000000000E+00 0.  1.
    9000005    1    1    2  501    0  0.13304155512E+03  0.12978703025E+03 -0.72737453406E+03  0.85065765229E+03  0.40000000000E+03 0.  1.
   -9000005    1    1    2    0  502 -0.13304155512E+03 -0.12978703025E+03  0.71796843034E+02  0.44687751709E+03  0.40000000000E+03 0.  1.
<mgrwt>
<rscale>  2 0.44107225E+03</rscale>
<asrwt>0</asrwt>
<pdfrwt beam="1">  1       21 0.49381345E-01 0.44107225E+03</pdfrwt>
<pdfrwt beam="2">  1       21 0.15023945E+00 0.44107225E+03</pdfrwt>
<totfact> 0.98659665E+02</totfact>
</mgrwt>
</event>
<event>
 4    1  0.4774032E-002  0.4164199E+03  0.7818608E-02  0.1038238E+00
         21   -1    0    0  501  502  0.00000000000E+00  0.00000000000E+00  0.10059793774E+03  0.10059793774E+03  0.00000000000E+00 0.  1.
         21   -1    0    0  502  503 -0.00000000000E+00 -0.00000000000E+00 -0.21211850814E+04  0.21211850814E+04  0.00000000000E+00 0.  1.
    9000005    1    1    2  501    0  0.97898725835E+02 -0.61817490106E+02 -0.52943630308E+03  0.67357877165E+03  0.40000000000E+03 0.  1.
   -9000005    1    1    2    0  503 -0.97898725835E+02  0.61817490106E+02 -0.14911508406E+04  0.15482042475E+04  0.40000000000E+03 0.  1.
<mgrwt>
<rscale>  2 0.41641994E+03</rscale>
<asrwt>0</asrwt>
<pdfrwt beam="1">  1       21 0.15476607E-01 0.41641994E+03</pdfrwt>
<pdfrwt beam="2">  1       21 0.32633613E+00 0.41641994E+03</pdfrwt>
<totfact> 0.72324179E+02</totfact>
</mgrwt>
</event>
<event>
 4    1  0.4774032E-002  0.8009904E+03  0.7818608E-02  0.9558585E-01
         21   -1    0    0  503  502  0.00000000000E+00  0.00000000000E+00  0.95035768968E+03  0.95035768968E+03  0.00000000000E+00 0.  1.
         21   -1    0    0  501  503 -0.00000000000E+00 -0.00000000000E+00 -0.84618296025E+03  0.84618296025E+03  0.00000000000E+00 0.  1.
    9000005    1    1    2  501    0 -0.59993110524E+03 -0.34880979225E+03 -0.35181785012E+03  0.87484935953E+03  0.40000000000E+03 0.  1.
   -9000005    1    1    2    0  502  0.59993110524E+03  0.34880979225E+03  0.45599257954E+03  0.92169129040E+03  0.40000000000E+03 0.  1.
<mgrwt>
<rscale>  2 0.80099039E+03</rscale>
<asrwt>0</asrwt>
<pdfrwt beam="1">  1       21 0.14620888E+00 0.80099039E+03</pdfrwt>
<pdfrwt beam="2">  1       21 0.13018199E+00 0.80099039E+03</pdfrwt>
<totfact> 0.96326273E+01</totfact>
</mgrwt>
</event>
<event>
 4    1  0.4774032E-002  0.5941963E+03  0.7818608E-02  0.9917521E-01
         21   -1    0    0  503  502  0.00000000000E+00  0.00000000000E+00  0.24240575788E+03  0.24240575788E+03  0.00000000000E+00 0. -1.
         21   -1    0    0  501  503 -0.00000000000E+00 -0.00000000000E+00 -0.16569477186E+04  0.16569477186E+04  0.00000000000E+00 0. -1.
    9000005    1    1    2  501    0  0.22969158290E+03  0.37458107422E+03 -0.10375634221E+04  0.11956617663E+04  0.40000000000E+03 0. -1.
   -9000005    1    1    2    0  502 -0.22969158290E+03 -0.37458107422E+03 -0.37697853858E+03  0.70369171018E+03  0.40000000000E+03 0. -1.
<mgrwt>
<rscale>  2 0.59419627E+03</rscale>
<asrwt>0</asrwt>
<pdfrwt beam="1">  1       21 0.37293193E-01 0.59419627E+03</pdfrwt>
<pdfrwt beam="2">  1       21 0.25491503E+00 0.59419627E+03</pdfrwt>
<totfact> 0.32384067E+02</totfact>
</mgrwt>
</event>
<event>
 4    1  0.4774032E-002  0.5149427E+03  0.7818608E-02  0.1009951E+00
         21   -1    0    0  501  502  0.00000000000E+00  0.00000000000E+00  0.19558338016E+03  0.19558338016E+03  0.00000000000E+00 0. -1.
         21   -1    0    0  502  503 -0.00000000000E+00 -0.00000000000E+00 -0.14413048263E+04  0.14413048263E+04  0.00000000000E+00 0.  1.
    9000005    1    1    2  501    0 -0.13052286636E+03  0.29686659842E+03 -0.42347976651E+03  0.66670916338E+03  0.40000000000E+03 0.  1.
   -9000005    1    1    2    0  503  0.13052286636E+03 -0.29686659842E+03 -0.82224167960E+03  0.97017904305E+03  0.40000000000E+03 0.  1.
<mgrwt>
<rscale>  2 0.51494271E+03</rscale>
<asrwt>0</asrwt>
<pdfrwt beam="1">  1       21 0.30089750E-01 0.51494271E+03</pdfrwt>
<pdfrwt beam="2">  1       21 0.22173921E+00 0.51494271E+03</pdfrwt>
<totfact> 0.83492942E+02</totfact>
</mgrwt>
</event>
<event>
 4    1  0.4774032E-002  0.4258337E+03  0.7818608E-02  0.1035184E+00
         21   -1    0    0  503  502  0.00000000000E+00  0.00000000000E+00  0.31962345893E+03  0.31962345893E+03  0.00000000000E+00 0.  1.
         21   -1    0    0  501  503 -0.00000000000E+00 -0.00000000000E+00 -0.60819431441E+03  0.60819431441E+03  0.00000000000E+00 0.  1.
    9000005    1    1    2  501    0 -0.68115607872E+02  0.12920744575E+03 -0.26452432827E+03  0.50130571543E+03  0.40000000000E+03 0.  1.
   -9000005    1    1    2    0  502  0.68115607872E+02 -0.12920744575E+03 -0.24046527201E+02  0.42651205791E+03  0.40000000000E+03 0.  1.
<mgrwt>
<rscale>  2 0.42583365E+03</rscale>
<asrwt>0</asrwt>
<pdfrwt beam="1">  1       21 0.49172840E-01 0.42583365E+03</pdfrwt>
<pdfrwt beam="2">  1       21 0.93568355E-01 0.42583365E+03</pdfrwt>
<totfact> 0.33294114E+03</totfact>
</mgrwt>
</event>
<event>
 4    1  0.4774032E-002  0.4162688E+03  0.7818608E-02  0.1038288E+00
         21   -1    0    0  501  502  0.00000000000E+00  0.00000000000E+00  0.20764993375E+04  0.20764993375E+04  0.00000000000E+00 0. -1.
         21   -1    0    0  502  503 -0.00000000000E+00 -0.00000000000E+00 -0.86106445299E+02  0.86106445299E+02  0.00000000000E+00 0. -1.
    9000005    1    1    2  501    0  0.60517586310E+02  0.98068030718E+02  0.80520091286E+03  0.90643710591E+03  0.40000000000E+03 0. -1.
   -9000005    1    1    2    0  503 -0.60517586310E+02 -0.98068030718E+02  0.11851919794E+04  0.12561686769E+04  0.40000000000E+03 0. -1.
<mgrwt>
<rscale>  2 0.41626880E+03</rscale>
<asrwt>0</asrwt>
<pdfrwt beam="1">  1       21 0.31946140E+00 0.41626880E+03</pdfrwt>
<pdfrwt beam="2">  1       21 0.13247147E-01 0.41626880E+03</pdfrwt>
<totfact> 0.10602263E+03</totfact>
</mgrwt>
</event>
<event>
 4    1  0.4774032E-002  0.4664388E+03  0.7818608E-02  0.1022930E+00
         21   -1    0    0  503  502  0.00000000000E+00  0.00000000000E+00  0.31209049968E+03  0.31209049968E+03  0.00000000000E+00 0.  1.
         21   -1    0    0  501  503 -0.00000000000E+00 -0.00000000000E+00 -0.89626943346E+03  0.89626943346E+03  0.00000000000E+00 0.  1.
    9000005    1    1    2  501    0  0.23491266766E+03  0.48797184252E+02 -0.57688585576E+03  0.74186415009E+03  0.40000000000E+03 0.  1.
   -9000005    1    1    2    0  502 -0.23491266766E+03 -0.48797184252E+02 -0.72930780186E+01  0.46649578305E+03  0.40000000000E+03 0.  1.
<mgrwt>
<rscale>  2 0.46643877E+03</rscale>
<asrwt>0</asrwt>
<pdfrwt beam="1">  1       21 0.48013924E-01 0.46643877E+03</pdfrwt>
<pdfrwt beam="2">  1       21 0.13788760E+00 0.46643877E+03</pdfrwt>
<totfact> 0.13043180E+03</totfact>
</mgrwt>
</event>
<event>
 4    1  0.4774032E-002  0.4785622E+03  0.7818608E-02  0.1019531E+00
         21   -1    0    0  501  502  0.00000000000E+00  0.00000000000E+00  0.28628165675E+03  0.28628165675E+03  0.00000000000E+00 0. -1.
         21   -1    0    0  502  503 -0.00000000000E+00 -0.00000000000E+00 -0.92264151893E+03  0.92264151893E+03  0.00000000000E+00 0. -1.
    9000005    1    1    2  501    0 -0.12182160498E+03  0.23276872558E+03 -0.97789426883E+02  0.48845117981E+03  0.40000000000E+03 0. -1.
   -9000005    1    1    2    0  503  0.12182160498E+03 -0.23276872558E+03 -0.53857043530E+03  0.72047199586E+03  0.40000000000E+03 0. -1.
<mgrwt>
<rscale>  2 0.47856220E+03</rscale>
<asrwt>0</asrwt>
<pdfrwt beam="1">  1       21 0.44043332E-01 0.47856220E+03</pdfrwt>
<pdfrwt beam="2">  1       21 0.14194485E+00 0.47856220E+03</pdfrwt>
<totfact> 0.14407927E+03</totfact>
</mgrwt>
</event>
<event>
 4    1  0.4774032E-002  0.4868019E+03  0.7818608E-02  0.1017282E+00
         21   -1    0    0  501  502  0.00000000000E+00  0.00000000000E+00  0.67847833105E+03  0.67847833105E+03  0.00000000000E+00 0.  1.
         21   -1    0    0  502  503 -0.00000000000E+00 -0.00000000000E+00 -0.35498774643E+03  0.35498774643E+03  0.00000000000E+00 0.  1.
    9000005    1    1    2  501    0 -0.18514218569E+03 -0.20663598366E+03  0.22729213708E+03  0.53725019707E+03  0.40000000000E+03 0.  1.
   -9000005    1    1    2    0  503  0.18514218569E+03  0.20663598366E+03  0.96198447541E+02  0.49621588041E+03  0.40000000000E+03 0.  1.
<mgrwt>
<rscale>  2 0.48680187E+03</rscale>
<asrwt>0</asrwt>
<pdfrwt beam="1">  1       21 0.10438128E+00 0.48680187E+03</pdfrwt>
<pdfrwt beam="2">  1       21 0.54613500E-01 0.48680187E+03</pdfrwt>
<totfact> 0.19961670E+03</totfact>
</mgrwt>
</event>
<event>
 4    1  0.4774032E-002  0.4840458E+03  0.7818608E-02  0.1018029E+00
         21   -1    0    0  503  502  0.00000000000E+00  0.00000000000E+00  0.11705287869E+04  0.11705287869E+04  0.00000000000E+00 0. -1.
         21   -1    0    0  501  503 -0.00000000000E+00 -0.00000000000E+00 -0.36618139227E+03  0.36618139227E+03  0.00000000000E+00 0. -1.
    9000005    1    1    2  501    0  0.27247622679E+03 -0.75557633175E+01 -0.11518012082E+03  0.49756089472E+03  0.40000000000E+03 0. -1.
   -9000005    1    1    2    0  502 -0.27247622679E+03  0.75557633175E+01  0.91952751544E+03  0.10391492845E+04  0.40000000000E+03 0. -1.
<mgrwt>
<rscale>  2 0.48404585E+03</rscale>
<asrwt>0</asrwt>
<pdfrwt beam="1">  1       21 0.18008135E+00 0.48404585E+03</pdfrwt>
<pdfrwt beam="2">  1       21 0.56335599E-01 0.48404585E+03</pdfrwt>
<totfact> 0.43776958E+02</totfact>
</mgrwt>
</event>
<event>
 4    1  0.4774032E-002  0.4005964E+03  0.7818608E-02  0.1043573E+00
         21   -1    0    0  501  502  0.00000000000E+00  0.00000000000E+00  0.33721224514E+03  0.33721224514E+03  0.00000000000E+00 0. -1.
         21   -1    0    0  502  503 -0.00000000000E+00 -0.00000000000E+00 -0.90872895707E+03  0.90872895707E+03  0.00000000000E+00 0. -1.
    9000005    1    1    2  501    0  0.16339493033E+01  0.21790869067E+02 -0.71570166452E+03  0.82018679845E+03  0.40000000000E+03 0. -1.
   -9000005    1    1    2    0  503 -0.16339493033E+01 -0.21790869067E+02  0.14418495259E+03  0.42575440376E+03  0.40000000000E+03 0. -1.
<mgrwt>
<rscale>  2 0.40059645E+03</rscale>
<asrwt>0</asrwt>
<pdfrwt beam="1">  1       21 0.51878808E-01 0.40059645E+03</pdfrwt>
<pdfrwt beam="2">  1       21 0.13980445E+00 0.40059645E+03</pdfrwt>
<totfact> 0.10975464E+03</totfact>
</mgrwt>
</event>
<event>
 4    1  0.4774032E-002  0.5194156E+03  0.7818608E-02  0.1008832E+00
         21   -1    0    0  503  502  0.00000000000E+00  0.00000000000E+00  0.49070405380E+03  0.49070405380E+03  0.00000000000E+00 0. -1.
         21   -1    0    0  501  503 -0.00000000000E+00 -0.00000000000E+00 -0.88789237773E+03  0.88789237773E+03  0.00000000000E+00 0.  1.
    9000005    1    1    2  501    0  0.23807599341E+03  0.23046125075E+03 -0.62393798288E+03  0.81184430356E+03  0.40000000000E+03 0.  1.
   -9000005    1    1    2    0  502 -0.23807599341E+03 -0.23046125075E+03  0.22674965895E+03  0.56675212798E+03  0.40000000000E+03 0. -1.
<mgrwt>
<rscale>  2 0.51941560E+03</rscale>
<asrwt>0</asrwt>
<pdfrwt beam="1">  1       21 0.75492931E-01 0.51941560E+03</pdfrwt>
<pdfrwt beam="2">  1       21 0.13659883E+00 0.51941560E+03</pdfrwt>
<totfact> 0.48406543E+02</totfact>
</mgrwt>
</event>
<event>
 4    1  0.4774032E-002  0.4182591E+03  0.7818608E-02  0.1037634E+00
         21   -1    0    0  501  502  0.00000000000E+00  0.00000000000E+00  0.11637789855E+03  0.11637789855E+03  0.00000000000E+00 0.  1.
         21   -1    0    0  502  503 -0.00000000000E+00 -0.00000000000E+00 -0.17621736611E+04  0.17621736611E+04  0.00000000000E+00 0.  1.
    9000005    1    1    2  501    0 -0.12105716491E+03 -0.16907137961E+02 -0.46282844745E+03  0.62381957348E+03  0.40000000000E+03 0.  1.
   -9000005    1    1    2    0  503  0.12105716491E+03  0.16907137961E+02 -0.11829673151E+04  0.12547319861E+04  0.40000000000E+03 0.  1.
<mgrwt>
<rscale>  2 0.41825912E+03</rscale>
<asrwt>0</asrwt>
<pdfrwt beam="1">  1       21 0.17904292E-01 0.41825912E+03</pdfrwt>
<pdfrwt beam="2">  1       21 0.27110364E+00 0.41825912E+03</pdfrwt>
<totfact> 0.11809598E+03</totfact>
</mgrwt>
</event>
<event>
 4    1  0.4774032E-002  0.4359028E+03  0.7818608E-02  0.1032011E+00
         21   -1    0    0  501  502  0.00000000000E+00  0.00000000000E+00  0.40739577931E+03  0.40739577931E+03  0.00000000000E+00 0.  1.
         21   -1    0    0  502  503 -0.00000000000E+00 -0.00000000000E+00 -0.65401842399E+03  0.65401842399E+03  0.00000000000E+00 0.  1.
    9000005    1    1    2  501    0  0.16686004054E+03  0.46572455105E+02  0.16093334260E+03  0.46466203575E+03  0.40000000000E+03 0.  1.
   -9000005    1    1    2    0  503 -0.16686004054E+03 -0.46572455105E+02 -0.40755598728E+03  0.59675216755E+03  0.40000000000E+03 0.  1.
<mgrwt>
<rscale>  2 0.43590282E+03</rscale>
<asrwt>0</asrwt>
<pdfrwt beam="1">  1       21 0.62676274E-01 0.43590282E+03</pdfrwt>
<pdfrwt beam="2">  1       21 0.10061822E+00 0.43590282E+03</pdfrwt>
<totfact> 0.16481627E+03</totfact>
</mgrwt>
</event>
<event>
 4    1  0.4774032E-002  0.4944154E+03  0.7818608E-02  0.1015247E+00
         21   -1    0    0  501  502  0.00000000000E+00  0.00000000000E+00  0.82613154859E+03  0.82613154859E+03  0.00000000000E+00 0.  1.
         21   -1    0    0  502  503 -0.00000000000E+00 -0.00000000000E+00 -0.30217817366E+03  0.30217817366E+03  0.00000000000E+00 0.  1.
    9000005    1    1    2  501    0 -0.52491723423E+01  0.29054959461E+03  0.18061458743E+03  0.52637272909E+03  0.40000000000E+03 0.  1.
   -9000005    1    1    2    0  503  0.52491723423E+01 -0.29054959461E+03  0.34333878750E+03  0.60193699316E+03  0.40000000000E+03 0.  1.
<mgrwt>
<rscale>  2 0.49441543E+03</rscale>
<asrwt>0</asrwt>
<pdfrwt beam="1">  1       21 0.12709716E+00 0.49441543E+03</pdfrwt>
<pdfrwt beam="2">  1       21 0.46488950E-01 0.49441543E+03</pdfrwt>
<totfact> 0.17094711E+03</totfact>
</mgrwt>
</event>
<event>
 4    1  0.4774032E-002  0.5135092E+03  0.7818608E-02  0.1010312E+00
         21   -1    0    0  501  502  0.00000000000E+00  0.00000000000E+00  0.83944360856E+03  0.83944360856E+03  0.00000000000E+00 0.  1.
         21   -1    0    0  502  503 -0.00000000000E+00 -0.00000000000E+00 -0.43774577191E+03  0.43774577191E+03  0.00000000000E+00 0. -1.
    9000005    1    1    2  501    0  0.20314214563E+03 -0.24984996225E+03  0.54020597619E+03  0.74532827108E+03  0.40000000000E+03 0.  1.
   -9000005    1    1    2    0  503 -0.20314214563E+03  0.24984996225E+03 -0.13850813953E+03  0.53186110939E+03  0.40000000000E+03 0. -1.
<mgrwt>
<rscale>  2 0.51350924E+03</rscale>
<asrwt>0</asrwt>
<pdfrwt beam="1">  1       21 0.12914517E+00 0.51350924E+03</pdfrwt>
<pdfrwt beam="2">  1       21 0.67345504E-01 0.51350924E+03</pdfrwt>
<totfact> 0.72800515E+02</totfact>
</mgrwt>
</event>
<event>
 4    1  0.4774032E-002  0.5125310E+03  0.7818608E-02  0.1010559E+00
         21   -1    0    0  501  502  0.00000000000E+00  0.00000000000E+00  0.61114522331E+03  0.61114522331E+03  0.00000000000E+00 0.  1.
         21   -1    0    0  502  503 -0.00000000000E+00 -0.00000000000E+00 -0.12469304990E+04  0.12469304990E+04  0.00000000000E+00 0.  1.
    9000005    1    1    2  501    0 -0.26492907130E+03 -0.18027934805E+03  0.43416346972E+03  0.67170378486E+03  0.40000000000E+03 0.  1.
   -9000005    1    1    2    0  503  0.26492907130E+03  0.18027934805E+03 -0.10699487454E+04  0.11863719374E+04  0.40000000000E+03 0.  1.
<mgrwt>
<rscale>  2 0.51253103E+03</rscale>
<asrwt>0</asrwt>
<pdfrwt beam="1">  1       21 0.94022343E-01 0.51253103E+03</pdfrwt>
<pdfrwt beam="2">  1       21 0.19183546E+00 0.51253103E+03</pdfrwt>
<totfact> 0.11145828E+02</totfact>
</mgrwt>
</event>
<event>
 4    1  0.4774032E-002  0.4258745E+03  0.7818608E-02  0.1035171E+00
         21   -1    0    0  503  502  0.00000000000E+00  0.00000000000E+00  0.85494471942E+03  0.85494471942E+03  0.00000000000E+00 0. -1.
         21   -1    0    0  501  503 -0.00000000000E+00 -0.00000000000E+00 -0.34716705550E+03  0.34716705550E+03  0.00000000000E+00 0. -1.
    9000005    1    1    2  501    0  0.88183817858E+02  0.11658781062E+03 -0.12095802572E+03  0.44271881291E+03  0.40000000000E+03 0. -1.
   -9000005    1    1    2    0  502 -0.88183817858E+02 -0.11658781062E+03  0.62873568964E+03  0.75939296201E+03  0.40000000000E+03 0. -1.
<mgrwt>
<rscale>  2 0.42587452E+03</rscale>
<asrwt>0</asrwt>
<pdfrwt beam="1">  1       21 0.13152996E+00 0.42587452E+03</pdfrwt>
<pdfrwt beam="2">  1       21 0.53410316E-01 0.42587452E+03</pdfrwt>
<totfact> 0.11962337E+03</totfact>
</mgrwt>
</event>
<event>
 4    1  0.4774032E-002  0.4243647E+03  0.7818608E-02  0.1035655E+00
         21   -1    0    0  503  502  0.00000000000E+00  0.00000000000E+00  0.68598163724E+03  0.68598163724E+03  0.00000000000E+00 0. -1.
         21   -1    0    0  501  503 -0.00000000000E+00 -0.00000000000E+00 -0.86573030806E+03  0.86573030806E+03  0.00000000000E+00 0. -1.
    9000005    1    1    2  501    0 -0.43337368174E+02  0.13493418256E+03 -0.73749903967E+03  0.85087613353E+03  0.40000000000E+03 0. -1.
   -9000005    1    1    2    0  502  0.43337368174E+02 -0.13493418256E+03  0.55775036884E+03  0.70083581176E+03  0.40000000000E+03 0. -1.
<mgrwt>
<rscale>  2 0.42436466E+03</rscale>
<asrwt>0</asrwt>
<pdfrwt beam="1">  1       21 0.10553564E+00 0.42436466E+03</pdfrwt>
<pdfrwt beam="2">  1       21 0.13318928E+00 0.42436466E+03</pdfrwt>
<totfact> 0.24415552E+02</totfact>
</mgrwt>
</event>
<event>
 4    1  0.4774032E-002  0.5320737E+03  0.7818608E-02  0.1005730E+00
         21   -1    0    0  501  502  0.00000000000E+00  0.00000000000E+00  0.14920172945E+03  0.14920172945E+03  0.00000000000E+00 0. -1.
         21   -1    0    0  502  503 -0.00000000000E+00 -0.00000000000E+00 -0.20684782533E+04  0.20684782533E+04  0.00000000000E+00 0. -1.
    9000005    1    1    2  501    0  0.21636128631E+03  0.27620687054E+03 -0.64079256157E+03  0.83289708158E+03  0.40000000000E+03 0. -1.
   -9000005    1    1    2    0  503 -0.21636128631E+03 -0.27620687054E+03 -0.12784839623E+04  0.13847829012E+04  0.40000000000E+03 0. -1.
<mgrwt>
<rscale>  2 0.53207372E+03</rscale>
<asrwt>0</asrwt>
<pdfrwt beam="1">  1       21 0.22954114E-01 0.53207372E+03</pdfrwt>
<pdfrwt beam="2">  1       21 0.31822740E+00 0.53207372E+03</pdfrwt>
<totfact> 0.35990748E+02</totfact>
</mgrwt>
</event>
<event>
 4    1  0.4774032E-002  0.5399111E+03  0.7818608E-02  0.1003856E+00
         21   -1    0    0  503  502  0.00000000000E+00  0.00000000000E+00  0.98704052360E+03  0.98704052360E+03  0.00000000000E+00 0.  1.
         21   -1    0    0  501  503 -0.00000000000E+00 -0.00000000000E+00 -0.29678775341E+03  0.29678775341E+03  0.00000000000E+00 0.  1.
    9000005    1    1    2  501    0 -0.27614350333E+03  0.23505043867E+03  0.39009452733E+03  0.66609134764E+03  0.40000000000E+03 0.  1.
   -9000005    1    1    2    0  502  0.27614350333E+03 -0.23505043867E+03  0.30015824287E+03  0.61773692937E+03  0.40000000000E+03 0.  1.
<mgrwt>
<rscale>  2 0.53991105E+03</rscale>
<asrwt>0</asrwt>
<pdfrwt beam="1">  1       21 0.15185239E+00 0.53991105E+03</pdfrwt>
<pdfrwt beam="2">  1       21 0.45659655E-01 0.53991105E+03</pdfrwt>
<totfact> 0.10880482E+03</totfact>
</mgrwt>
</event>
<event>
 4    1  0.4774032E-002  0.4409715E+03  0.7818608E-02  0.1030449E+00
         21   -1    0    0  501  502  0.00000000000E+00  0.00000000000E+00  0.12969760973E+04  0.12969760973E+04  0.00000000000E+00 0. -1.
         21   -1    0    0  502  503 -0.00000000000E+00 -0.00000000000E+00 -0.19688964048E+03  0.19688964048E+03  0.00000000000E+00 0.  1.
    9000005    1    1    2  501    0  0.74885830175E+02 -0.16984691952E+03  0.91482377811E+03  0.10155581759E+04  0.40000000000E+03 0.  1.
   -9000005    1    1    2    0  503 -0.74885830175E+02  0.16984691952E+03  0.18526267872E+03  0.47830756189E+03  0.40000000000E+03 0.  1.
<mgrwt>
<rscale>  2 0.44097150E+03</rscale>
<asrwt>0</asrwt>
<pdfrwt beam="1">  1       21 0.19953478E+00 0.44097150E+03</pdfrwt>
<pdfrwt beam="2">  1       21 0.30290715E-01 0.44097150E+03</pdfrwt>
<totfact> 0.11886814E+03</totfact>
</mgrwt>
</event>
<event>
 4    1  0.4774032E-002  0.4507757E+03  0.7818608E-02  0.1027491E+00
         21   -1    0    0  503  502  0.00000000000E+00  0.00000000000E+00  0.47674442902E+03  0.47674442902E+03  0.00000000000E+00 0. -1.
         21   -1    0    0  501  503 -0.00000000000E+00 -0.00000000000E+00 -0.66591722407E+03  0.66591722407E+03  0.00000000000E+00 0.  1.
    9000005    1    1    2  501    0  0.17709225693E+03 -0.10879810215E+03 -0.43736028966E+03  0.62807859179E+03  0.40000000000E+03 0.  1.
   -9000005    1    1    2    0  502 -0.17709225693E+03  0.10879810215E+03  0.24818749461E+03  0.51458306130E+03  0.40000000000E+03 0. -1.
<mgrwt>
<rscale>  2 0.45077566E+03</rscale>
<asrwt>0</asrwt>
<pdfrwt beam="1">  1       21 0.73345297E-01 0.45077566E+03</pdfrwt>
<pdfrwt beam="2">  1       21 0.10244880E+00 0.45077566E+03</pdfrwt>
<totfact> 0.11026525E+03</totfact>
</mgrwt>
</event>
<event>
 4    1  0.4774032E-002  0.4529518E+03  0.7818608E-02  0.1026845E+00
         21   -1    0    0  503  502  0.00000000000E+00  0.00000000000E+00  0.76307511326E+03  0.76307511326E+03  0.00000000000E+00 0. -1.
         21   -1    0    0  501  503 -0.00000000000E+00 -0.00000000000E+00 -0.38862310100E+03  0.38862310100E+03  0.00000000000E+00 0. -1.
    9000005    1    1    2  501    0  0.15276499730E+03  0.14774354225E+03 -0.13243834609E+03  0.47191653308E+03  0.40000000000E+03 0. -1.
   -9000005    1    1    2    0  502 -0.15276499730E+03 -0.14774354225E+03  0.50689035835E+03  0.67978168118E+03  0.40000000000E+03 0. -1.
<mgrwt>
<rscale>  2 0.45295176E+03</rscale>
<asrwt>0</asrwt>
<pdfrwt beam="1">  1       21 0.11739617E+00 0.45295176E+03</pdfrwt>
<pdfrwt beam="2">  1       21 0.59788170E-01 0.45295176E+03</pdfrwt>
<totfact> 0.12396467E+03</totfact>
</mgrwt>
</event>
<event>
 4    1  0.4774032E-002  0.4711154E+03  0.7818608E-02  0.1021606E+00
         21   -1    0    0  503  502  0.00000000000E+00  0.00000000000E+00  0.29403152176E+03  0.29403152176E+03  0.00000000000E+00 0. -1.
         21   -1    0    0  501  503 -0.00000000000E+00 -0.00000000000E+00 -0.76674018170E+03  0.76674018170E+03  0.00000000000E+00 0. -1.
    9000005    1    1    2  501    0 -0.24503169164E+03  0.43694108148E+02 -0.30240259196E+03  0.55981874979E+03  0.40000000000E+03 0. -1.
   -9000005    1    1    2    0  502  0.24503169164E+03 -0.43694108148E+02 -0.17030606798E+03  0.50095295366E+03  0.40000000000E+03 0. -1.
<mgrwt>
<rscale>  2 0.47111538E+03</rscale>
<asrwt>0</asrwt>
<pdfrwt beam="1">  1       21 0.45235618E-01 0.47111538E+03</pdfrwt>
<pdfrwt beam="2">  1       21 0.11796003E+00 0.47111538E+03</pdfrwt>
<totfact> 0.22108355E+03</totfact>
</mgrwt>
</event>
<event>
 4    1  0.4774032E-002  0.4726721E+03  0.7818608E-02  0.1021169E+00
         21   -1    0    0  501  502  0.00000000000E+00  0.00000000000E+00  0.21607985224E+03  0.21607985224E+03  0.00000000000E+00 0. -1.
         21   -1    0    0  502  503 -0.00000000000E+00 -0.00000000000E+00 -0.11098417211E+04  0.11098417211E+04  0.00000000000E+00 0. -1.
    9000005    1    1    2  501    0 -0.94464595972E+01  0.25165397752E+03 -0.27353558939E+03  0.54611416267E+03  0.40000000000E+03 0. -1.
   -9000005    1    1    2    0  503  0.94464595972E+01 -0.25165397752E+03 -0.62022627948E+03  0.77980741068E+03  0.40000000000E+03 0. -1.
<mgrwt>
<rscale>  2 0.47267215E+03</rscale>
<asrwt>0</asrwt>
<pdfrwt beam="1">  1       21 0.33243055E-01 0.47267215E+03</pdfrwt>
<pdfrwt beam="2">  1       21 0.17074488E+00 0.47267215E+03</pdfrwt>
<totfact> 0.15435911E+03</totfact>
</mgrwt>
</event>
<event>
 4    1  0.4774032E-002  0.5064463E+03  0.7818608E-02  0.1012110E+00
         21   -1    0    0  503  502  0.00000000000E+00  0.00000000000E+00  0.39020275596E+03  0.39020275596E+03  0.00000000000E+00 0.  1.
         21   -1    0    0  501  503 -0.00000000000E+00 -0.00000000000E+00 -0.16646747265E+04  0.16646747265E+04  0.00000000000E+00 0. -1.
    9000005    1    1    2  501    0  0.16842861464E+03 -0.26099733848E+03 -0.14364859136E+04  0.15231479209E+04  0.40000000000E+03 0. -1.
   -9000005    1    1    2    0  502 -0.16842861464E+03  0.26099733848E+03  0.16201394305E+03  0.53172956159E+03  0.40000000000E+03 0.  1.
<mgrwt>
<rscale>  2 0.50644625E+03</rscale>
<asrwt>0</asrwt>
<pdfrwt beam="1">  1       21 0.60031193E-01 0.50644625E+03</pdfrwt>
<pdfrwt beam="2">  1       21 0.25610381E+00 0.50644625E+03</pdfrwt>
<totfact> 0.12084870E+02</totfact>
</mgrwt>
</event>
<event>
 4    1  0.4774032E-002  0.6971272E+03  0.7818608E-02  0.9722158E-01
         21   -1    0    0  501  502  0.00000000000E+00  0.00000000000E+00  0.45947519598E+03  0.45947519598E+03  0.00000000000E+00 0. -1.
         21   -1    0    0  502  503 -0.00000000000E+00 -0.00000000000E+00 -0.10644882433E+04  0.10644882433E+04  0.00000000000E+00 0.  1.
    9000005    1    1    2  501    0 -0.19861556823E+03 -0.53529262676E+03 -0.24165200730E+03  0.73782249413E+03  0.40000000000E+03 0.  1.
   -9000005    1    1    2    0  503  0.19861556823E+03  0.53529262676E+03 -0.36336103999E+03  0.78614094512E+03  0.40000000000E+03 0. -1.
<mgrwt>
<rscale>  2 0.69712721E+03</rscale>
<asrwt>0</asrwt>
<pdfrwt beam="1">  1       21 0.70688493E-01 0.69712721E+03</pdfrwt>
<pdfrwt beam="2">  1       21 0.16376742E+00 0.69712721E+03</pdfrwt>
<totfact> 0.32152199E+02</totfact>
</mgrwt>
</event>
<event>
 4    1  0.4774032E-002  0.4053082E+03  0.7818608E-02  0.1041957E+00
         21   -1    0    0  501  502  0.00000000000E+00  0.00000000000E+00  0.41253501140E+04  0.41253501140E+04  0.00000000000E+00 0. -1.
         21   -1    0    0  502  503 -0.00000000000E+00 -0.00000000000E+00 -0.40489186279E+02  0.40489186279E+02  0.00000000000E+00 0. -1.
    9000005    1    1    2  501    0  0.10653029421E+02  0.64507819976E+02  0.23100491513E+04  0.23453361864E+04  0.40000000000E+03 0. -1.
   -9000005    1    1    2    0  503 -0.10653029421E+02 -0.64507819976E+02  0.17748117765E+04  0.18205031139E+04  0.40000000000E+03 0. -1.
<mgrwt>
<rscale>  2 0.40530821E+03</rscale>
<asrwt>0</asrwt>
<pdfrwt beam="1">  1       21 0.63466892E+00 0.40530821E+03</pdfrwt>
<pdfrwt beam="2">  1       21 0.62291088E-02 0.40530821E+03</pdfrwt>
<totfact> 0.25926258E+01</totfact>
</mgrwt>
</event>
<event>
 4    1  0.4774032E-002  0.5664075E+03  0.7818608E-02  0.9977660E-01
         21   -1    0    0  503  502  0.00000000000E+00  0.00000000000E+00  0.24561274946E+03  0.24561274946E+03  0.00000000000E+00 0. -1.
         21   -1    0    0  501  503 -0.00000000000E+00 -0.00000000000E+00 -0.15963018179E+04  0.15963018179E+04  0.00000000000E+00 0. -1.
    9000005    1    1    2  501    0 -0.25026669830E+03 -0.31334334305E+03 -0.10679560245E+04  0.12088620853E+04  0.40000000000E+03 0. -1.
   -9000005    1    1    2    0  502  0.25026669830E+03  0.31334334305E+03 -0.28273304387E+03  0.63305248203E+03  0.40000000000E+03 0. -1.
<mgrwt>
<rscale>  2 0.56640751E+03</rscale>
<asrwt>0</asrwt>
<pdfrwt beam="1">  1       21 0.37786577E-01 0.56640751E+03</pdfrwt>
<pdfrwt beam="2">  1       21 0.24558490E+00 0.56640751E+03</pdfrwt>
<totfact> 0.36447307E+02</totfact>
</mgrwt>
</event>
<event>
 4    1  0.4774032E-002  0.4388871E+03  0.7818608E-02  0.1031089E+00
         21   -1    0    0  501  502  0.00000000000E+00  0.00000000000E+00  0.16178347906E+04  0.16178347906E+04  0.00000000000E+00 0.  1.
         21   -1    0    0  502  503 -0.00000000000E+00 -0.00000000000E+00 -0.56332280355E+03  0.56332280355E+03  0.00000000000E+00 0.  1.
    9000005    1    1    2  501    0 -0.17981933122E+03  0.16936706830E+02  0.14957515335E+04  0.15588118854E+04  0.40000000000E+03 0.  1.
   -9000005    1    1    2    0  503  0.17981933122E+03 -0.16936706830E+02 -0.44123954645E+03  0.62234570881E+03  0.40000000000E+03 0.  1.
<mgrwt>
<rscale>  2 0.43888705E+03</rscale>
<asrwt>0</asrwt>
<pdfrwt beam="1">  1       21 0.24889766E+00 0.43888705E+03</pdfrwt>
<pdfrwt beam="2">  1       21 0.86665048E-01 0.43888705E+03</pdfrwt>
<totfact> 0.60531374E+01</totfact>
</mgrwt>
</event>
<event>
 4    1  0.4774032E-002  0.4253472E+03  0.7818608E-02  0.1035340E+00
         21   -1    0    0  501  502  0.00000000000E+00  0.00000000000E+00  0.79163261306E+03  0.79163261306E+03  0.00000000000E+00 0. -1.
         21   -1    0    0  502  503 -0.00000000000E+00 -0.00000000000E+00 -0.24769322232E+03  0.24769322232E+03  0.00000000000E+00 0. -1.
    9000005    1    1    2  501    0 -0.37792290224E+02 -0.13961375151E+03  0.41647302868E+03  0.59528987932E+03  0.40000000000E+03 0.  1.
   -9000005    1    1    2    0  503  0.37792290224E+02  0.13961375151E+03  0.12746636207E+03  0.44403595605E+03  0.40000000000E+03 0.  1.
<mgrwt>
<rscale>  2 0.42534722E+03</rscale>
<asrwt>0</asrwt>
<pdfrwt beam="1">  1       21 0.12178963E+00 0.42534722E+03</pdfrwt>
<pdfrwt beam="2">  1       21 0.38106650E-01 0.42534722E+03</pdfrwt>
<totfact> 0.29574896E+03</totfact>
</mgrwt>
</event>
<event>
 4    1  0.4774032E-002  0.4867334E+03  0.7818608E-02  0.1017301E+00
         21   -1    0    0  503  502  0.00000000000E+00  0.00000000000E+00  0.66144141593E+03  0.66144141593E+03  0.00000000000E+00 0.  1.
         21   -1    0    0  501  503 -0.00000000000E+00 -0.00000000000E+00 -0.41853772335E+03  0.41853772335E+03  0.00000000000E+00 0.  1.
    9000005    1    1    2  501    0 -0.18820964309E+03 -0.20368252952E+03  0.32652801135E+03  0.58611431033E+03  0.40000000000E+03 0.  1.
   -9000005    1    1    2    0  502  0.18820964309E+03  0.20368252952E+03 -0.83624318761E+02  0.49386482895E+03  0.40000000000E+03 0.  1.
<mgrwt>
<rscale>  2 0.48673344E+03</rscale>
<asrwt>0</asrwt>
<pdfrwt beam="1">  1       21 0.10176022E+00 0.48673344E+03</pdfrwt>
<pdfrwt beam="2">  1       21 0.64390419E-01 0.48673344E+03</pdfrwt>
<totfact> 0.14812818E+03</totfact>
</mgrwt>
</event>
<event>
 4    1  0.4774032E-002  0.4503091E+03  0.7818608E-02  0.1027630E+00
         21   -1    0    0  503  502  0.00000000000E+00  0.00000000000E+00  0.55014389530E+03  0.55014389530E+03  0.00000000000E+00 0. -1.
         21   -1    0    0  501  503 -0.00000000000E+00 -0.00000000000E+00 -0.41510175757E+03  0.41510175757E+03  0.00000000000E+00 0.  1.
    9000005    1    1    2  501    0 -0.18546389134E+03 -0.91550294080E+02 -0.94028345640E+02  0.46002134855E+03  0.40000000000E+03 0.  1.
   -9000005    1    1    2    0  502  0.18546389134E+03  0.91550294080E+02  0.22907048337E+03  0.50522430433E+03  0.40000000000E+03 0. -1.
<mgrwt>
<rscale>  2 0.45030913E+03</rscale>
<asrwt>0</asrwt>
<pdfrwt beam="1">  1       21 0.84637522E-01 0.45030913E+03</pdfrwt>
<pdfrwt beam="2">  1       21 0.63861809E-01 0.45030913E+03</pdfrwt>
<totfact> 0.23740997E+03</totfact>
</mgrwt>
</event>
<event>
 4    1  0.4774032E-002  0.5938053E+03  0.7818608E-02  0.9918342E-01
         21   -1    0    0  503  502  0.00000000000E+00  0.00000000000E+00  0.15373080343E+04  0.15373080343E+04  0.00000000000E+00 0. -1.
         21   -1    0    0  501  503 -0.00000000000E+00 -0.00000000000E+00 -0.45918631716E+03  0.45918631716E+03  0.00000000000E+00 0. -1.
    9000005    1    1    2  501    0  0.34672317925E+03 -0.26904973371E+03 -0.16715706511E+03  0.61688427331E+03  0.40000000000E+03 0. -1.
   -9000005    1    1    2    0  502 -0.34672317925E+03  0.26904973371E+03  0.12452787823E+04  0.13796100782E+04  0.40000000000E+03 0. -1.
<mgrwt>
<rscale>  2 0.59380529E+03</rscale>
<asrwt>0</asrwt>
<pdfrwt beam="1">  1       21 0.23650893E+00 0.59380529E+03</pdfrwt>
<pdfrwt beam="2">  1       21 0.70644049E-01 0.59380529E+03</pdfrwt>
<totfact> 0.10666649E+02</totfact>
</mgrwt>
</event>
<event>
 4    1  0.4774032E-002  0.4004287E+03  0.7818608E-02  0.1043631E+00
         21   -1    0    0  501  502  0.00000000000E+00  0.00000000000E+00  0.18961524732E+03  0.18961524732E+03  0.00000000000E+00 0.  1.
         21   -1    0    0  502  503 -0.00000000000E+00 -0.00000000000E+00 -0.13896321578E+04  0.13896321578E+04  0.00000000000E+00 0.  1.
    9000005    1    1    2  501    0 -0.15318131142E+02  0.10414440366E+02 -0.10595588689E+03  0.41420979669E+03  0.40000000000E+03 0.  1.
   -9000005    1    1    2    0  503  0.15318131142E+02 -0.10414440366E+02 -0.10940610236E+04  0.11650376084E+04  0.40000000000E+03 0.  1.
<mgrwt>
<rscale>  2 0.40042865E+03</rscale>
<asrwt>0</asrwt>
<pdfrwt beam="1">  1       21 0.29171576E-01 0.40042865E+03</pdfrwt>
<pdfrwt beam="2">  1       21 0.21378956E+00 0.40042865E+03</pdfrwt>
<totfact> 0.10538622E+03</totfact>
</mgrwt>
</event>
<event>
 4    1  0.4774032E-002  0.4387518E+03  0.7818608E-02  0.1031130E+00
         21   -1    0    0  503  502  0.00000000000E+00  0.00000000000E+00  0.86212165987E+03  0.86212165987E+03  0.00000000000E+00 0.  1.
         21   -1    0    0  501  503 -0.00000000000E+00 -0.00000000000E+00 -0.22379742204E+03  0.22379742204E+03  0.00000000000E+00 0.  1.
    9000005    1    1    2  501    0 -0.14847833274E+03  0.10226115139E+03  0.34501554875E+03  0.55815668701E+03  0.40000000000E+03 0.  1.
   -9000005    1    1    2    0  502  0.14847833274E+03 -0.10226115139E+03  0.29330868907E+03  0.52776239489E+03  0.40000000000E+03 0.  1.
<mgrwt>
<rscale>  2 0.43875182E+03</rscale>
<asrwt>0</asrwt>
<pdfrwt beam="1">  1       21 0.13263410E+00 0.43875182E+03</pdfrwt>
<pdfrwt beam="2">  1       21 0.34430373E-01 0.43875182E+03</pdfrwt>
<totfact> 0.29017488E+03</totfact>
</mgrwt>
</event>
<event>
 4    1  0.4774032E-002  0.4096783E+03  0.7818608E-02  0.1040479E+00
         21   -1    0    0  503  502  0.00000000000E+00  0.00000000000E+00  0.45608284948E+03  0.45608284948E+03  0.00000000000E+00 0. -1.
         21   -1    0    0  501  503 -0.00000000000E+00 -0.00000000000E+00 -0.46939693405E+03  0.46939693405E+03  0.00000000000E+00 0. -1.
    9000005    1    1    2  501    0 -0.87274131518E+02  0.14818032584E+02 -0.22173171890E+03  0.46583398683E+03  0.40000000000E+03 0. -1.
   -9000005    1    1    2    0  502  0.87274131518E+02 -0.14818032584E+02  0.20841763433E+03  0.45964579670E+03  0.40000000000E+03 0. -1.
<mgrwt>
<rscale>  2 0.40967835E+03</rscale>
<asrwt>0</asrwt>
<pdfrwt beam="1">  1       21 0.70166593E-01 0.40967835E+03</pdfrwt>
<pdfrwt beam="2">  1       21 0.72214913E-01 0.40967835E+03</pdfrwt>
<totfact> 0.28139081E+03</totfact>
</mgrwt>
</event>
<event>
 4    1  0.4774032E-002  0.4502301E+03  0.7818608E-02  0.1027653E+00
         21   -1    0    0  501  502  0.00000000000E+00  0.00000000000E+00  0.30386734891E+03  0.30386734891E+03  0.00000000000E+00 0. -1.
         21   -1    0    0  502  503 -0.00000000000E+00 -0.00000000000E+00 -0.11048190129E+04  0.11048190129E+04  0.00000000000E+00 0. -1.
    9000005    1    1    2  501    0 -0.20029961148E+03 -0.50864289579E+02  0.42868354856E+02  0.45226630005E+03  0.40000000000E+03 0. -1.
   -9000005    1    1    2    0  503  0.20029961148E+03  0.50864289579E+02 -0.84382001884E+03  0.95642006175E+03  0.40000000000E+03 0. -1.
<mgrwt>
<rscale>  2 0.45023006E+03</rscale>
<asrwt>0</asrwt>
<pdfrwt beam="1">  1       21 0.46748822E-01 0.45023006E+03</pdfrwt>
<pdfrwt beam="2">  1       21 0.16997216E+00 0.45023006E+03</pdfrwt>
<totfact> 0.78269808E+02</totfact>
</mgrwt>
</event>
<event>
 4    1  0.4774032E-002  0.5772170E+03  0.7818608E-02  0.9953834E-01
         21   -1    0    0  503  502  0.00000000000E+00  0.00000000000E+00  0.10540447853E+04  0.10540447853E+04  0.00000000000E+00 0. -1.
         21   -1    0    0  501  503 -0.00000000000E+00 -0.00000000000E+00 -0.31675771361E+03  0.31675771361E+03  0.00000000000E+00 0. -1.
    9000005    1    1    2  501    0 -0.30979359332E+03  0.27786212240E+03  0.33731871518E+03  0.66855317301E+03  0.40000000000E+03 0. -1.
   -9000005    1    1    2    0  502  0.30979359332E+03 -0.27786212240E+03  0.39996835653E+03  0.70224932592E+03  0.40000000000E+03 0. -1.
<mgrwt>
<rscale>  2 0.57721697E+03</rscale>
<asrwt>0</asrwt>
<pdfrwt beam="1">  1       21 0.16216073E+00 0.57721697E+03</pdfrwt>
<pdfrwt beam="2">  1       21 0.48731957E-01 0.57721697E+03</pdfrwt>
<totfact> 0.77924172E+02</totfact>
</mgrwt>
</event>
<event>
 4    1  0.4774032E-002  0.6388759E+03  0.7818608E-02  0.9827880E-01
         21   -1    0    0  501  502  0.00000000000E+00  0.00000000000E+00  0.34654385441E+04  0.34654385441E+04  0.00000000000E+00 0. -1.
         21   -1    0    0  502  503 -0.00000000000E+00 -0.00000000000E+00 -0.13927659007E+03  0.13927659007E+03  0.00000000000E+00 0.  1.
    9000005    1    1    2  501    0  0.49271223031E+03  0.73464471706E+02  0.23711537241E+04  0.24557142248E+04  0.40000000000E+03 0. -1.
   -9000005    1    1    2    0  503 -0.49271223031E+03 -0.73464471706E+02  0.95500822990E+03  0.11490009093E+04  0.40000000000E+03 0.  1.
<mgrwt>
<rscale>  2 0.63887586E+03</rscale>
<asrwt>0</asrwt>
<pdfrwt beam="1">  1       21 0.53314433E+00 0.63887586E+03</pdfrwt>
<pdfrwt beam="2">  1       21 0.21427170E-01 0.63887586E+03</pdfrwt>
<totfact> 0.14361089E+01</totfact>
</mgrwt>
</event>
<event>
 4    1  0.4774032E-002  0.5129419E+03  0.7818608E-02  0.1010455E+00
         21   -1    0    0  503  502  0.00000000000E+00  0.00000000000E+00  0.89520938246E+03  0.89520938246E+03  0.00000000000E+00 0. -1.
         21   -1    0    0  501  503 -0.00000000000E+00 -0.00000000000E+00 -0.32372663519E+03  0.32372663519E+03  0.00000000000E+00 0. -1.
    9000005    1    1    2  501    0 -0.31497760924E+03  0.62437978906E+02  0.10077023020E+03  0.52274662584E+03  0.40000000000E+03 0. -1.
   -9000005    1    1    2    0  502  0.31497760924E+03 -0.62437978906E+02  0.47071251708E+03  0.69618939181E+03  0.40000000000E+03 0. -1.
<mgrwt>
<rscale>  2 0.51294190E+03</rscale>
<asrwt>0</asrwt>
<pdfrwt beam="1">  1       21 0.13772452E+00 0.51294190E+03</pdfrwt>
<pdfrwt beam="2">  1       21 0.49804098E-01 0.51294190E+03</pdfrwt>
<totfact> 0.11894504E+03</totfact>
</mgrwt>
</event>
<event>
 4    1  0.4774032E-002  0.4128377E+03  0.7818608E-02  0.1039423E+00
         21   -1    0    0  501  502  0.00000000000E+00  0.00000000000E+00  0.35874617552E+03  0.35874617552E+03  0.00000000000E+00 0. -1.
         21   -1    0    0  502  503 -0.00000000000E+00 -0.00000000000E+00 -0.61107178003E+03  0.61107178003E+03  0.00000000000E+00 0. -1.
    9000005    1    1    2  501    0 -0.72808672093E+02 -0.71650722933E+02  0.10258790582E+03  0.42539300329E+03  0.40000000000E+03 0. -1.
   -9000005    1    1    2    0  503  0.72808672093E+02  0.71650722933E+02 -0.35491351032E+03  0.54442495226E+03  0.40000000000E+03 0. -1.
<mgrwt>
<rscale>  2 0.41283765E+03</rscale>
<asrwt>0</asrwt>
<pdfrwt beam="1">  1       21 0.55191719E-01 0.41283765E+03</pdfrwt>
<pdfrwt beam="2">  1       21 0.94011044E-01 0.41283765E+03</pdfrwt>
<totfact> 0.25849356E+03</totfact>
</mgrwt>
</event>
<event>
 4    1  0.4774032E-002  0.4572284E+03  0.7818608E-02  0.1025588E+00
         21   -1    0    0  503  502  0.00000000000E+00  0.00000000000E+00  0.10304770874E+03  0.10304770874E+03  0.00000000000E+00 0.  1.
         21   -1    0    0  501  503 -0.00000000000E+00 -0.00000000000E+00 -0.21404572119E+04  0.21404572119E+04  0.00000000000E+00 0.  1.
    9000005    1    1    2  501    0  0.18675388359E+03  0.11908308515E+03 -0.76243993685E+03  0.88902893739E+03  0.40000000000E+03 0.  1.
   -9000005    1    1    2    0  502 -0.18675388359E+03 -0.11908308515E+03 -0.12749695663E+04  0.13544759833E+04  0.40000000000E+03 0.  1.
<mgrwt>
<rscale>  2 0.45722838E+03</rscale>
<asrwt>0</asrwt>
<pdfrwt beam="1">  1       21 0.15853492E-01 0.45722838E+03</pdfrwt>
<pdfrwt beam="2">  1       21 0.32930114E+00 0.45722838E+03</pdfrwt>
<totfact> 0.64779852E+02</totfact>
</mgrwt>
</event>
<event>
 4    1  0.4774032E-002  0.4743944E+03  0.7818608E-02  0.1020687E+00
         21   -1    0    0  503  502  0.00000000000E+00  0.00000000000E+00  0.74645812658E+03  0.74645812658E+03  0.00000000000E+00 0.  1.
         21   -1    0    0  501  503 -0.00000000000E+00 -0.00000000000E+00 -0.56789499301E+03  0.56789499301E+03  0.00000000000E+00 0. -1.
    9000005    1    1    2  501    0 -0.24645500043E+03 -0.65650755679E+02 -0.36082853214E+03  0.59602627338E+03  0.40000000000E+03 0. -1.
   -9000005    1    1    2    0  502  0.24645500043E+03  0.65650755679E+02  0.53939166571E+03  0.71832684621E+03  0.40000000000E+03 0.  1.
<mgrwt>
<rscale>  2 0.47439444E+03</rscale>
<asrwt>0</asrwt>
<pdfrwt beam="1">  1       21 0.11483971E+00 0.47439444E+03</pdfrwt>
<pdfrwt beam="2">  1       21 0.87368460E-01 0.47439444E+03</pdfrwt>
<totfact> 0.54902891E+02</totfact>
</mgrwt>
</event>
<event>
 4    1  0.4774032E-002  0.4172625E+03  0.7818608E-02  0.1037961E+00
         21   -1    0    0  501  502  0.00000000000E+00  0.00000000000E+00  0.35128655859E+03  0.35128655859E+03  0.00000000000E+00 0.  1.
         21   -1    0    0  502  503 -0.00000000000E+00 -0.00000000000E+00 -0.50396293966E+03  0.50396293966E+03  0.00000000000E+00 0. -1.
    9000005    1    1    2  501    0  0.10119527875E+03  0.62188989336E+02 -0.13132742197E+03  0.43744124931E+03  0.40000000000E+03 0. -1.
   -9000005    1    1    2    0  503 -0.10119527875E+03 -0.62188989336E+02 -0.21348959096E+02  0.41780824895E+03  0.40000000000E+03 0.  1.
<mgrwt>
<rscale>  2 0.41726245E+03</rscale>
<asrwt>0</asrwt>
<pdfrwt beam="1">  1       21 0.54044086E-01 0.41726245E+03</pdfrwt>
<pdfrwt beam="2">  1       21 0.77532760E-01 0.41726245E+03</pdfrwt>
<totfact> 0.42366164E+03</totfact>
</mgrwt>
</event>
<event>
 4    1  0.4774032E-002  0.4112373E+03  0.7818608E-02  0.1039957E+00
         21   -1    0    0  501  502  0.00000000000E+00  0.00000000000E+00  0.16361956931E+03  0.16361956931E+03  0.00000000000E+00 0. -1.
         21   -1    0    0  502  503 -0.00000000000E+00 -0.00000000000E+00 -0.17448984827E+04  0.17448984827E+04  0.00000000000E+00 0. -1.
    9000005    1    1    2  501    0 -0.73092707822E+02 -0.61429229181E+02 -0.18137032707E+03  0.44945666051E+03  0.40000000000E+03 0. -1.
   -9000005    1    1    2    0  503  0.73092707822E+02  0.61429229181E+02 -0.13999085863E+04  0.14590613915E+04  0.40000000000E+03 0. -1.
<mgrwt>
<rscale>  2 0.41123727E+03</rscale>
<asrwt>0</asrwt>
<pdfrwt beam="1">  1       21 0.25172241E-01 0.41123727E+03</pdfrwt>
<pdfrwt beam="2">  1       21 0.26844593E+00 0.41123727E+03</pdfrwt>
<totfact> 0.64142426E+02</totfact>
</mgrwt>
</event>
<event>
 4    1  0.4774032E-002  0.4300452E+03  0.7818608E-02  0.1033846E+00
         21   -1    0    0  501  502  0.00000000000E+00  0.00000000000E+00  0.94191572512E+03  0.94191572512E+03  0.00000000000E+00 0.  1.
         21   -1    0    0  502  503 -0.00000000000E+00 -0.00000000000E+00 -0.23169945754E+03  0.23169945754E+03  0.00000000000E+00 0.  1.
    9000005    1    1    2  501    0  0.14803536008E+03 -0.54994935375E+02  0.58433488305E+03  0.72552475237E+03  0.40000000000E+03 0.  1.
   -9000005    1    1    2    0  503 -0.14803536008E+03  0.54994935375E+02  0.12588138453E+03  0.44809043029E+03  0.40000000000E+03 0.  1.
<mgrwt>
<rscale>  2 0.43004524E+03</rscale>
<asrwt>0</asrwt>
<pdfrwt beam="1">  1       21 0.14491011E+00 0.43004524E+03</pdfrwt>
<pdfrwt beam="2">  1       21 0.35646071E-01 0.43004524E+03</pdfrwt>
<totfact> 0.21475568E+03</totfact>
</mgrwt>
</event>
<event>
 4    1  0.4774032E-002  0.5014660E+03  0.7818608E-02  0.1013397E+00
         21   -1    0    0  501  502  0.00000000000E+00  0.00000000000E+00  0.35574648023E+03  0.35574648023E+03  0.00000000000E+00 0.  1.
         21   -1    0    0  502  503 -0.00000000000E+00 -0.00000000000E+00 -0.76493475363E+03  0.76493475363E+03  0.00000000000E+00 0. -1.
    9000005    1    1    2  501    0 -0.37129408802E+02  0.30014921322E+03 -0.50218387256E+02  0.50397423507E+03  0.40000000000E+03 0.  1.
   -9000005    1    1    2    0  503  0.37129408802E+02 -0.30014921322E+03 -0.35896988614E+03  0.61670699879E+03  0.40000000000E+03 0.  1.
<mgrwt>
<rscale>  2 0.50146599E+03</rscale>
<asrwt>0</asrwt>
<pdfrwt beam="1">  1       21 0.54730228E-01 0.50146599E+03</pdfrwt>
<pdfrwt beam="2">  1       21 0.11768227E+00 0.50146599E+03</pdfrwt>
<totfact> 0.14661903E+03</totfact>
</mgrwt>
</event>
<event>
 4    1  0.4774032E-002  0.4061839E+03  0.7818608E-02  0.1041659E+00
         21   -1    0    0  503  502  0.00000000000E+00  0.00000000000E+00  0.16837235504E+03  0.16837235504E+03  0.00000000000E+00 0.  1.
         21   -1    0    0  501  503 -0.00000000000E+00 -0.00000000000E+00 -0.10013050748E+04  0.10013050748E+04  0.00000000000E+00 0.  1.
    9000005    1    1    2  501    0 -0.56126356025E+02  0.42838688880E+02 -0.50200786451E+03  0.64575321690E+03  0.40000000000E+03 0. -1.
   -9000005    1    1    2    0  502  0.56126356025E+02 -0.42838688880E+02 -0.33092485528E+03  0.52392421298E+03  0.40000000000E+03 0. -1.
<mgrwt>
<rscale>  2 0.40618385E+03</rscale>
<asrwt>0</asrwt>
<pdfrwt beam="1">  1       21 0.25903441E-01 0.40618385E+03</pdfrwt>
<pdfrwt beam="2">  1       21 0.15404693E+00 0.40618385E+03</pdfrwt>
<totfact> 0.34663638E+03</totfact>
</mgrwt>
</event>
<event>
 4    1  0.4774032E-002  0.4175008E+03  0.7818608E-02  0.1037883E+00
         21   -1    0    0  503  502  0.00000000000E+00  0.00000000000E+00  0.66563890944E+03  0.66563890944E+03  0.00000000000E+00 0.  1.
         21   -1    0    0  501  503 -0.00000000000E+00 -0.00000000000E+00 -0.29368222211E+03  0.29368222211E+03  0.00000000000E+00 0.  1.
    9000005    1    1    2  501    0  0.10124416055E+03 -0.63691123463E+02  0.28096421809E+02  0.41844515551E+03  0.40000000000E+03 0.  1.
   -9000005    1    1    2    0  502 -0.10124416055E+03  0.63691123463E+02  0.34386026552E+03  0.54087597604E+03  0.40000000000E+03 0.  1.
<mgrwt>
<rscale>  2 0.41750083E+03</rscale>
<asrwt>0</asrwt>
<pdfrwt beam="1">  1       21 0.10240599E+00 0.41750083E+03</pdfrwt>
<pdfrwt beam="2">  1       21 0.45181881E-01 0.41750083E+03</pdfrwt>
<totfact> 0.32106344E+03</totfact>
</mgrwt>
</event>
<event>
 4    1  0.4774032E-002  0.4104279E+03  0.7818608E-02  0.1040228E+00
         21   -1    0    0  501  502  0.00000000000E+00  0.00000000000E+00  0.39148966995E+03  0.39148966995E+03  0.00000000000E+00 0. -1.
         21   -1    0    0  502  503 -0.00000000000E+00 -0.00000000000E+00 -0.66188640727E+03  0.66188640727E+03  0.00000000000E+00 0. -1.
    9000005    1    1    2  501    0 -0.81108467588E+02 -0.43272121181E+02  0.17635674947E+03  0.44671328956E+03  0.40000000000E+03 0. -1.
   -9000005    1    1    2    0  503  0.81108467588E+02  0.43272121181E+02 -0.44675348678E+03  0.60666278766E+03  0.40000000000E+03 0. -1.
<mgrwt>
<rscale>  2 0.41042790E+03</rscale>
<asrwt>0</asrwt>
<pdfrwt beam="1">  1       21 0.60229180E-01 0.41042790E+03</pdfrwt>
<pdfrwt beam="2">  1       21 0.10182868E+00 0.41042790E+03</pdfrwt>
<totfact> 0.17655019E+03</totfact>
</mgrwt>
</event>
<event>
 4    1  0.4774032E-002  0.4136475E+03  0.7818608E-02  0.1039154E+00
         21   -1    0    0  503  502  0.00000000000E+00  0.00000000000E+00  0.83427435299E+03  0.83427435299E+03  0.00000000000E+00 0.  1.
         21   -1    0    0  501  503 -0.00000000000E+00 -0.00000000000E+00 -0.31757471826E+03  0.31757471826E+03  0.00000000000E+00 0.  1.
    9000005    1    1    2  501    0  0.87655705175E+02 -0.58486750397E+02 -0.84404301383E+02  0.42217094726E+03  0.40000000000E+03 0.  1.
   -9000005    1    1    2    0  502 -0.87655705175E+02  0.58486750397E+02  0.60110393611E+03  0.72967812399E+03  0.40000000000E+03 0.  1.
<mgrwt>
<rscale>  2 0.41364746E+03</rscale>
<asrwt>0</asrwt>
<pdfrwt beam="1">  1       21 0.12834990E+00 0.41364746E+03</pdfrwt>
<pdfrwt beam="2">  1       21 0.48857649E-01 0.41364746E+03</pdfrwt>
<totfact> 0.15491075E+03</totfact>
</mgrwt>
</event>
<event>
 4    1  0.4774032E-002  0.4237895E+03  0.7818608E-02  0.1035840E+00
         21   -1    0    0  501  502  0.00000000000E+00  0.00000000000E+00  0.16969786203E+03  0.16969786203E+03  0.00000000000E+00 0.  1.
         21   -1    0    0  502  503 -0.00000000000E+00 -0.00000000000E+00 -0.11385742591E+04  0.11385742591E+04  0.00000000000E+00 0.  1.
    9000005    1    1    2  501    0 -0.27439983559E+02 -0.13727565392E+03 -0.31078813427E+03  0.52553479643E+03  0.40000000000E+03 0.  1.
   -9000005    1    1    2    0  503  0.27439983559E+02  0.13727565392E+03 -0.65808826284E+03  0.78273732474E+03  0.40000000000E+03 0.  1.
<mgrwt>
<rscale>  2 0.42378952E+03</rscale>
<asrwt>0</asrwt>
<pdfrwt beam="1">  1       21 0.26107364E-01 0.42378952E+03</pdfrwt>
<pdfrwt beam="2">  1       21 0.17516527E+00 0.42378952E+03</pdfrwt>
<totfact> 0.23633048E+03</totfact>
</mgrwt>
</event>
<event>
 4    1  0.4774032E-002  0.5206648E+03  0.7818608E-02  0.1008522E+00
         21   -1    0    0  503  502  0.00000000000E+00  0.00000000000E+00  0.68915012141E+03  0.68915012141E+03  0.00000000000E+00 0. -1.
         21   -1    0    0  501  503 -0.00000000000E+00 -0.00000000000E+00 -0.80737415753E+03  0.80737415753E+03  0.00000000000E+00 0.  1.
    9000005    1    1    2  501    0  0.31352716218E+03 -0.11310404475E+03 -0.59493097417E+03  0.79059134222E+03  0.40000000000E+03 0.  1.
   -9000005    1    1    2    0  502 -0.31352716218E+03  0.11310404475E+03  0.47670693806E+03  0.70593293672E+03  0.40000000000E+03 0. -1.
<mgrwt>
<rscale>  2 0.52066477E+03</rscale>
<asrwt>0</asrwt>
<pdfrwt beam="1">  1       21 0.10602310E+00 0.52066477E+03</pdfrwt>
<pdfrwt beam="2">  1       21 0.12421141E+00 0.52066477E+03</pdfrwt>
<totfact> 0.27646706E+02</totfact>
</mgrwt>
</event>
<event>
 4    1  0.4774032E-002  0.4162376E+03  0.7818608E-02  0.1038298E+00
         21   -1    0    0  503  502  0.00000000000E+00  0.00000000000E+00  0.28758653248E+03  0.28758653248E+03  0.00000000000E+00 0.  1.
         21   -1    0    0  501  503 -0.00000000000E+00 -0.00000000000E+00 -0.70642020967E+03  0.70642020967E+03  0.00000000000E+00 0.  1.
    9000005    1    1    2  501    0 -0.84490355846E+02  0.78199017109E+02 -0.40009570890E+03  0.57734762733E+03  0.40000000000E+03 0.  1.
   -9000005    1    1    2    0  502  0.84490355846E+02 -0.78199017109E+02 -0.18737968287E+02  0.41665911482E+03  0.40000000000E+03 0.  1.
<mgrwt>
<rscale>  2 0.41623756E+03</rscale>
<asrwt>0</asrwt>
<pdfrwt beam="1">  1       21 0.44244082E-01 0.41623756E+03</pdfrwt>
<pdfrwt beam="2">  1       21 0.10868003E+00 0.41623756E+03</pdfrwt>
<totfact> 0.28997434E+03</totfact>
</mgrwt>
</event>
<event>
 4    1  0.4774032E-002  0.4947700E+03  0.7818608E-02  0.1015153E+00
         21   -1    0    0  501  502  0.00000000000E+00  0.00000000000E+00  0.55722544700E+03  0.55722544700E+03  0.00000000000E+00 0. -1.
         21   -1    0    0  502  503 -0.00000000000E+00 -0.00000000000E+00 -0.49086710983E+03  0.49086710983E+03  0.00000000000E+00 0. -1.
    9000005    1    1    2  501    0  0.29074106651E+03 -0.16338638055E+02  0.20300832211E+03  0.53479874504E+03  0.40000000000E+03 0. -1.
   -9000005    1    1    2    0  503 -0.29074106651E+03  0.16338638055E+02 -0.13664998493E+03  0.51329381180E+03  0.40000000000E+03 0. -1.
<mgrwt>
<rscale>  2 0.49476997E+03</rscale>
<asrwt>0</asrwt>
<pdfrwt beam="1">  1       21 0.85726992E-01 0.49476997E+03</pdfrwt>
<pdfrwt beam="2">  1       21 0.75518017E-01 0.49476997E+03</pdfrwt>
<totfact> 0.15544700E+03</totfact>
</mgrwt>
</event>
<event>
 4    1  0.4774032E-002  0.4127825E+03  0.7818608E-02  0.1039441E+00
         21   -1    0    0  501  502  0.00000000000E+00  0.00000000000E+00  0.48763809117E+03  0.48763809117E+03  0.00000000000E+00 0. -1.
         21   -1    0    0  502  503 -0.00000000000E+00 -0.00000000000E+00 -0.41462203574E+03  0.41462203574E+03  0.00000000000E+00 0. -1.
    9000005    1    1    2  501    0 -0.98780603689E+02 -0.25135629427E+02  0.21540938313E+03  0.46560778545E+03  0.40000000000E+03 0. -1.
   -9000005    1    1    2    0  503  0.98780603689E+02  0.25135629427E+02 -0.14239332770E+03  0.43665234146E+03  0.40000000000E+03 0. -1.
<mgrwt>
<rscale>  2 0.41278252E+03</rscale>
<asrwt>0</asrwt>
<pdfrwt beam="1">  1       21 0.75021245E-01 0.41278252E+03</pdfrwt>
<pdfrwt beam="2">  1       21 0.63788006E-01 0.41278252E+03</pdfrwt>
<totfact> 0.31878597E+03</totfact>
</mgrwt>
</event>
<event>
 4    1  0.4774032E-002  0.5289006E+03  0.7818608E-02  0.1006499E+00
         21   -1    0    0  503  502  0.00000000000E+00  0.00000000000E+00  0.67836798684E+03  0.67836798684E+03  0.00000000000E+00 0.  1.
         21   -1    0    0  501  503 -0.00000000000E+00 -0.00000000000E+00 -0.80497565415E+03  0.80497565415E+03  0.00000000000E+00 0.  1.
    9000005    1    1    2  501    0 -0.79631921025E+02 -0.33674110755E+03 -0.58126947901E+03  0.78588168549E+03  0.40000000000E+03 0.  1.
   -9000005    1    1    2    0  502  0.79631921025E+02  0.33674110755E+03  0.45466181170E+03  0.69746195551E+03  0.40000000000E+03 0.  1.
<mgrwt>
<rscale>  2 0.52890057E+03</rscale>
<asrwt>0</asrwt>
<pdfrwt beam="1">  1       21 0.10436431E+00 0.52890057E+03</pdfrwt>
<pdfrwt beam="2">  1       21 0.12384241E+00 0.52890057E+03</pdfrwt>
<totfact> 0.28869704E+02</totfact>
</mgrwt>
</event>
<event>
 4    1  0.4774032E-002  0.5652306E+03  0.7818608E-02  0.9980288E-01
         21   -1    0    0  501  502  0.00000000000E+00  0.00000000000E+00  0.13390221686E+04  0.13390221686E+04  0.00000000000E+00 0.  1.
         21   -1    0    0  502  503 -0.00000000000E+00 -0.00000000000E+00 -0.23878064914E+03  0.23878064914E+03  0.00000000000E+00 0. -1.
    9000005    1    1    2  501    0  0.32309937021E+03 -0.23471786888E+03  0.57204331953E+03  0.80418856024E+03  0.40000000000E+03 0. -1.
   -9000005    1    1    2    0  503 -0.32309937021E+03  0.23471786888E+03  0.52819819994E+03  0.77361425751E+03  0.40000000000E+03 0. -1.
<mgrwt>
<rscale>  2 0.56523064E+03</rscale>
<asrwt>0</asrwt>
<pdfrwt beam="1">  1       21 0.20600341E+00 0.56523064E+03</pdfrwt>
<pdfrwt beam="2">  1       21 0.36735485E-01 0.56523064E+03</pdfrwt>
<totfact> 0.69292987E+02</totfact>
</mgrwt>
</event>
<event>
 4    1  0.4774032E-002  0.6068590E+03  0.7818608E-02  0.9891277E-01
         21   -1    0    0  501  502  0.00000000000E+00  0.00000000000E+00  0.56035181532E+03  0.56035181532E+03  0.00000000000E+00 0. -1.
         21   -1    0    0  502  503 -0.00000000000E+00 -0.00000000000E+00 -0.79501526641E+03  0.79501526641E+03  0.00000000000E+00 0. -1.
    9000005    1    1    2  501    0  0.44645674850E+03  0.94627030738E+02  0.16479651293E+03  0.62883685794E+03  0.40000000000E+03 0. -1.
   -9000005    1    1    2    0  503 -0.44645674850E+03 -0.94627030738E+02 -0.39945996402E+03  0.72653022379E+03  0.40000000000E+03 0. -1.
<mgrwt>
<rscale>  2 0.60685905E+03</rscale>
<asrwt>0</asrwt>
<pdfrwt beam="1">  1       21 0.86207972E-01 0.60685905E+03</pdfrwt>
<pdfrwt beam="2">  1       21 0.12231004E+00 0.60685905E+03</pdfrwt>
<totfact> 0.45946209E+02</totfact>
</mgrwt>
</event>
<event>
 4    1  0.4774032E-002  0.4655888E+03  0.7818608E-02  0.1023173E+00
         21   -1    0    0  501  502  0.00000000000E+00  0.00000000000E+00  0.66151185211E+03  0.66151185211E+03  0.00000000000E+00 0.  1.
         21   -1    0    0  502  503 -0.00000000000E+00 -0.00000000000E+00 -0.33090473643E+03  0.33090473643E+03  0.00000000000E+00 0.  1.
    9000005    1    1    2  501    0 -0.23507567606E+03 -0.38888470831E+02  0.21418837154E+03  0.51249345863E+03  0.40000000000E+03 0.  1.
   -9000005    1    1    2    0  503  0.23507567606E+03  0.38888470831E+02  0.11641874414E+03  0.47992312991E+03  0.40000000000E+03 0.  1.
<mgrwt>
<rscale>  2 0.46558875E+03</rscale>
<asrwt>0</asrwt>
<pdfrwt beam="1">  1       21 0.10177105E+00 0.46558875E+03</pdfrwt>
<pdfrwt beam="2">  1       21 0.50908421E-01 0.46558875E+03</pdfrwt>
<totfact> 0.24887617E+03</totfact>
</mgrwt>
</event>
<event>
 4    1  0.4774032E-002  0.4137119E+03  0.7818608E-02  0.1039133E+00
         21   -1    0    0  503  502  0.00000000000E+00  0.00000000000E+00  0.40686082999E+03  0.40686082999E+03  0.00000000000E+00 0. -1.
         21   -1    0    0  501  503 -0.00000000000E+00 -0.00000000000E+00 -0.71874883683E+03  0.71874883683E+03  0.00000000000E+00 0. -1.
    9000005    1    1    2  501    0  0.98087494203E+02  0.39196733427E+02 -0.51837783764E+03  0.66322931403E+03  0.40000000000E+03 0. -1.
   -9000005    1    1    2    0  502 -0.98087494203E+02 -0.39196733427E+02  0.20648983079E+03  0.46238035279E+03  0.40000000000E+03 0. -1.
<mgrwt>
<rscale>  2 0.41371191E+03</rscale>
<asrwt>0</asrwt>
<pdfrwt beam="1">  1       21 0.62593975E-01 0.41371191E+03</pdfrwt>
<pdfrwt beam="2">  1       21 0.11057674E+00 0.41371191E+03</pdfrwt>
<totfact> 0.13227808E+03</totfact>
</mgrwt>
</event>
<event>
 4    1  0.4774032E-002  0.4780988E+03  0.7818608E-02  0.1019659E+00
         21   -1    0    0  501  502  0.00000000000E+00  0.00000000000E+00  0.27937583334E+03  0.27937583334E+03  0.00000000000E+00 0.  1.
         21   -1    0    0  502  503 -0.00000000000E+00 -0.00000000000E+00 -0.84909090780E+03  0.84909090780E+03  0.00000000000E+00 0. -1.
    9000005    1    1    2  501    0  0.13356834123E+01 -0.26187149099E+03 -0.17719386967E+03  0.50987854367E+03  0.40000000000E+03 0.  1.
   -9000005    1    1    2    0  503 -0.13356834123E+01  0.26187149099E+03 -0.39252120478E+03  0.61858819747E+03  0.40000000000E+03 0.  1.
<mgrwt>
<rscale>  2 0.47809880E+03</rscale>
<asrwt>0</asrwt>
<pdfrwt beam="1">  1       21 0.42980897E-01 0.47809880E+03</pdfrwt>
<pdfrwt beam="2">  1       21 0.13062937E+00 0.47809880E+03</pdfrwt>
<totfact> 0.18879091E+03</totfact>
</mgrwt>
</event>
<event>
 4    1  0.4774032E-002  0.4286588E+03  0.7818608E-02  0.1034284E+00
         21   -1    0    0  503  502  0.00000000000E+00  0.00000000000E+00  0.52664033455E+03  0.52664033455E+03  0.00000000000E+00 0.  1.
         21   -1    0    0  501  503 -0.00000000000E+00 -0.00000000000E+00 -0.34919171261E+03  0.34919171261E+03  0.00000000000E+00 0.  1.
    9000005    1    1    2  501    0  0.11469285914E+03 -0.10292663464E+03  0.10123516053E+03  0.44045079383E+03  0.40000000000E+03 0.  1.
   -9000005    1    1    2    0  502 -0.11469285914E+03  0.10292663464E+03  0.76213461416E+02  0.43538125334E+03  0.40000000000E+03 0.  1.
<mgrwt>
<rscale>  2 0.42865877E+03</rscale>
<asrwt>0</asrwt>
<pdfrwt beam="1">  1       21 0.81021590E-01 0.42865877E+03</pdfrwt>
<pdfrwt beam="2">  1       21 0.53721802E-01 0.42865877E+03</pdfrwt>
<totfact> 0.38619520E+03</totfact>
</mgrwt>
</event>
<event>
 4    1  0.4774032E-002  0.4054064E+03  0.7818608E-02  0.1041924E+00
         21   -1    0    0  501  502  0.00000000000E+00  0.00000000000E+00  0.84352961354E+03  0.84352961354E+03  0.00000000000E+00 0. -1.
         21   -1    0    0  502  503 -0.00000000000E+00 -0.00000000000E+00 -0.65770215086E+03  0.65770215086E+03  0.00000000000E+00 0. -1.
    9000005    1    1    2  501    0  0.65718378529E+02  0.59561416716E+01  0.72260599439E+03  0.82856128562E+03  0.40000000000E+03 0. -1.
   -9000005    1    1    2    0  503 -0.65718378529E+02 -0.59561416716E+01 -0.53677853171E+03  0.67267047877E+03  0.40000000000E+03 0. -1.
<mgrwt>
<rscale>  2 0.40540644E+03</rscale>
<asrwt>0</asrwt>
<pdfrwt beam="1">  1       21 0.12977379E+00 0.40540644E+03</pdfrwt>
<pdfrwt beam="2">  1       21 0.10118495E+00 0.40540644E+03</pdfrwt>
<totfact> 0.29248442E+02</totfact>
</mgrwt>
</event>
<event>
 4    1  0.4774032E-002  0.5066514E+03  0.7818608E-02  0.1012057E+00
         21   -1    0    0  501  502  0.00000000000E+00  0.00000000000E+00  0.40924199952E+03  0.40924199952E+03  0.00000000000E+00 0.  1.
         21   -1    0    0  502  503 -0.00000000000E+00 -0.00000000000E+00 -0.63632791161E+03  0.63632791161E+03  0.00000000000E+00 0.  1.
    9000005    1    1    2  501    0  0.15152551932E+03 -0.27154311329E+03 -0.51089379355E+02  0.50922074787E+03  0.40000000000E+03 0.  1.
   -9000005    1    1    2    0  503 -0.15152551932E+03  0.27154311329E+03 -0.17599653273E+03  0.53634916325E+03  0.40000000000E+03 0.  1.
<mgrwt>
<rscale>  2 0.50665140E+03</rscale>
<asrwt>0</asrwt>
<pdfrwt beam="1">  1       21 0.62960308E-01 0.50665140E+03</pdfrwt>
<pdfrwt beam="2">  1       21 0.97896602E-01 0.50665140E+03</pdfrwt>
<totfact> 0.16990671E+03</totfact>
</mgrwt>
</event>
<event>
 4    1  0.4774032E-002  0.4023650E+03  0.7818608E-02  0.1042964E+00
         21   -1    0    0  501  502  0.00000000000E+00  0.00000000000E+00  0.38356377701E+03  0.38356377701E+03  0.00000000000E+00 0.  1.
         21   -1    0    0  502  503 -0.00000000000E+00 -0.00000000000E+00 -0.42212151414E+03  0.42212151414E+03  0.00000000000E+00 0.  1.
    9000005    1    1    2  501    0 -0.18921764707E+02  0.39237631083E+02 -0.15683447116E+02  0.40267057924E+03  0.40000000000E+03 0. -1.
   -9000005    1    1    2    0  503  0.18921764707E+02 -0.39237631083E+02 -0.22874290017E+02  0.40301471191E+03  0.40000000000E+03 0. -1.
<mgrwt>
<rscale>  2 0.40236504E+03</rscale>
<asrwt>0</asrwt>
<pdfrwt beam="1">  1       21 0.59009812E-01 0.40236504E+03</pdfrwt>
<pdfrwt beam="2">  1       21 0.64941771E-01 0.40236504E+03</pdfrwt>
<totfact> 0.52500975E+03</totfact>
</mgrwt>
</event>
<event>
 4    1  0.4774032E-002  0.4022698E+03  0.7818608E-02  0.1042997E+00
         21   -1    0    0  501  502  0.00000000000E+00  0.00000000000E+00  0.10376730015E+04  0.10376730015E+04  0.00000000000E+00 0. -1.
         21   -1    0    0  502  503 -0.00000000000E+00 -0.00000000000E+00 -0.92701162179E+03  0.92701162179E+03  0.00000000000E+00 0. -1.
    9000005    1    1    2  501    0 -0.34209539765E+02  0.25508848202E+02  0.95124385899E+03  0.10328048573E+04  0.40000000000E+03 0. -1.
   -9000005    1    1    2    0  503  0.34209539765E+02 -0.25508848202E+02 -0.84058247925E+03  0.93187976604E+03  0.40000000000E+03 0. -1.
<mgrwt>
<rscale>  2 0.40226980E+03</rscale>
<asrwt>0</asrwt>
<pdfrwt beam="1">  1       21 0.15964200E+00 0.40226980E+03</pdfrwt>
<pdfrwt beam="2">  1       21 0.14261717E+00 0.40226980E+03</pdfrwt>
<totfact> 0.70533493E+01</totfact>
</mgrwt>
</event>
<event>
 4    1  0.4774032E-002  0.4059025E+03  0.7818608E-02  0.1041755E+00
         21   -1    0    0  503  502  0.00000000000E+00  0.00000000000E+00  0.15866222401E+04  0.15866222401E+04  0.00000000000E+00 0. -1.
         21   -1    0    0  501  503 -0.00000000000E+00 -0.00000000000E+00 -0.88250259286E+03  0.88250259286E+03  0.00000000000E+00 0. -1.
    9000005    1    1    2  501    0  0.59212083535E+02  0.35365698893E+02 -0.80759668468E+03  0.90386349002E+03  0.40000000000E+03 0. -1.
   -9000005    1    1    2    0  502 -0.59212083535E+02 -0.35365698893E+02  0.15117163320E+04  0.15652613430E+04  0.40000000000E+03 0. -1.
<mgrwt>
<rscale>  2 0.40590246E+03</rscale>
<asrwt>0</asrwt>
<pdfrwt beam="1">  1       21 0.24409573E+00 0.40590246E+03</pdfrwt>
<pdfrwt beam="2">  1       21 0.13576963E+00 0.40590246E+03</pdfrwt>
<totfact> 0.21831638E+01</totfact>
</mgrwt>
</event>
<event>
 4    1  0.4774032E-002  0.5270379E+03  0.7818608E-02  0.1006953E+00
         21   -1    0    0  501  502  0.00000000000E+00  0.00000000000E+00  0.22488405523E+03  0.22488405523E+03  0.00000000000E+00 0. -1.
         21   -1    0    0  502  503 -0.00000000000E+00 -0.00000000000E+00 -0.13637268726E+04  0.13637268726E+04  0.00000000000E+00 0.  1.
    9000005    1    1    2  501    0 -0.33713543760E+03  0.64098987796E+02 -0.81330322675E+03  0.96913937190E+03  0.40000000000E+03 0. -1.
   -9000005    1    1    2    0  503  0.33713543760E+03 -0.64098987796E+02 -0.32553959057E+03  0.61947155589E+03  0.40000000000E+03 0. -1.
<mgrwt>
<rscale>  2 0.52703793E+03</rscale>
<asrwt>0</asrwt>
<pdfrwt beam="1">  1       21 0.34597547E-01 0.52703793E+03</pdfrwt>
<pdfrwt beam="2">  1       21 0.20980414E+00 0.52703793E+03</pdfrwt>
<totfact> 0.75007894E+02</totfact>
</mgrwt>
</event>
<event>
 4    1  0.4774032E-002  0.4491123E+03  0.7818608E-02  0.1027987E+00
         21   -1    0    0  501  502  0.00000000000E+00  0.00000000000E+00  0.31292931190E+03  0.31292931190E+03  0.00000000000E+00 0.  1.
         21   -1    0    0  502  503 -0.00000000000E+00 -0.00000000000E+00 -0.16661067374E+04  0.16661067374E+04  0.00000000000E+00 0.  1.
    9000005    1    1    2  501    0 -0.63625221248E+02 -0.19404560388E+03  0.98232173843E+02  0.45972973054E+03  0.40000000000E+03 0.  1.
   -9000005    1    1    2    0  503  0.63625221248E+02  0.19404560388E+03 -0.14514095993E+04  0.15193063188E+04  0.40000000000E+03 0.  1.
<mgrwt>
<rscale>  2 0.44911231E+03</rscale>
<asrwt>0</asrwt>
<pdfrwt beam="1">  1       21 0.48142972E-01 0.44911231E+03</pdfrwt>
<pdfrwt beam="2">  1       21 0.25632411E+00 0.44911231E+03</pdfrwt>
<totfact> 0.20011104E+02</totfact>
</mgrwt>
</event>
<event>
 4    1  0.4774032E-002  0.4202028E+03  0.7818608E-02  0.1037000E+00
         21   -1    0    0  501  502  0.00000000000E+00  0.00000000000E+00  0.10323209147E+03  0.10323209147E+03  0.00000000000E+00 0. -1.
         21   -1    0    0  502  503 -0.00000000000E+00 -0.00000000000E+00 -0.17104263203E+04  0.17104263203E+04  0.00000000000E+00 0. -1.
    9000005    1    1    2  501    0 -0.28733377922E+02 -0.12547818582E+03 -0.80512953882E+03  0.90818718137E+03  0.40000000000E+03 0. -1.
   -9000005    1    1    2    0  503  0.28733377922E+02  0.12547818582E+03 -0.80206468997E+03  0.90547123037E+03  0.40000000000E+03 0. -1.
<mgrwt>
<rscale>  2 0.42020279E+03</rscale>
<asrwt>0</asrwt>
<pdfrwt beam="1">  1       21 0.15881861E-01 0.42020279E+03</pdfrwt>
<pdfrwt beam="2">  1       21 0.26314250E+00 0.42020279E+03</pdfrwt>
<totfact> 0.16492203E+03</totfact>
</mgrwt>
</event>
<event>
 4    1  0.4774032E-002  0.4313211E+03  0.7818608E-02  0.1033443E+00
         21   -1    0    0  501  502  0.00000000000E+00  0.00000000000E+00  0.16065809963E+04  0.16065809963E+04  0.00000000000E+00 0. -1.
         21   -1    0    0  502  503 -0.00000000000E+00 -0.00000000000E+00 -0.16314825993E+03  0.16314825993E+03  0.00000000000E+00 0. -1.
    9000005    1    1    2  501    0  0.16135486028E+03  0.15676476628E+01  0.11984213610E+04  0.12736764137E+04  0.40000000000E+03 0. -1.
   -9000005    1    1    2    0  503 -0.16135486028E+03 -0.15676476628E+01  0.24501137536E+03  0.49605284246E+03  0.40000000000E+03 0. -1.
<mgrwt>
<rscale>  2 0.43132105E+03</rscale>
<asrwt>0</asrwt>
<pdfrwt beam="1">  1       21 0.24716630E+00 0.43132105E+03</pdfrwt>
<pdfrwt beam="2">  1       21 0.25099733E-01 0.43132105E+03</pdfrwt>
<totfact> 0.85959014E+02</totfact>
</mgrwt>
</event>
<event>
 4    1  0.4774032E-002  0.4783227E+03  0.7818608E-02  0.1019597E+00
         21   -1    0    0  501  502  0.00000000000E+00  0.00000000000E+00  0.14436815660E+04  0.14436815660E+04  0.00000000000E+00 0. -1.
         21   -1    0    0  502  503 -0.00000000000E+00 -0.00000000000E+00 -0.16580962275E+03  0.16580962275E+03  0.00000000000E+00 0. -1.
    9000005    1    1    2  501    0  0.22653674814E+03  0.13218799763E+03  0.80815041519E+03  0.93909512753E+03  0.40000000000E+03 0. -1.
   -9000005    1    1    2    0  503 -0.22653674814E+03 -0.13218799763E+03  0.46972152802E+03  0.67039606119E+03  0.40000000000E+03 0. -1.
<mgrwt>
<rscale>  2 0.47832266E+03</rscale>
<asrwt>0</asrwt>
<pdfrwt beam="1">  1       21 0.22210485E+00 0.47832266E+03</pdfrwt>
<pdfrwt beam="2">  1       21 0.25509174E-01 0.47832266E+03</pdfrwt>
<totfact> 0.11683866E+03</totfact>
</mgrwt>
</event>
<event>
 4    1  0.4774032E-002  0.5663160E+03  0.7818608E-02  0.9977864E-01
         21   -1    0    0  503  502  0.00000000000E+00  0.00000000000E+00  0.25735073092E+04  0.25735073092E+04  0.00000000000E+00 0. -1.
         21   -1    0    0  501  503 -0.00000000000E+00 -0.00000000000E+00 -0.15467331983E+03  0.15467331983E+03  0.00000000000E+00 0.  1.
    9000005    1    1    2  501    0  0.35550004822E+03 -0.18529311762E+03  0.60814321889E+03  0.83099458386E+03  0.40000000000E+03 0. -1.
   -9000005    1    1    2    0  502 -0.35550004822E+03  0.18529311762E+03  0.18106907704E+04  0.18971860451E+04  0.40000000000E+03 0. -1.
<mgrwt>
<rscale>  2 0.56631601E+03</rscale>
<asrwt>0</asrwt>
<pdfrwt beam="1">  1       21 0.39592417E+00 0.56631601E+03</pdfrwt>
<pdfrwt beam="2">  1       21 0.23795897E-01 0.56631601E+03</pdfrwt>
<totfact> 0.10816727E+02</totfact>
</mgrwt>
</event>
<event>
 4    1  0.4774032E-002  0.4122250E+03  0.7818608E-02  0.1039627E+00
         21   -1    0    0  503  502  0.00000000000E+00  0.00000000000E+00  0.64075975775E+03  0.64075975775E+03  0.00000000000E+00 0.  1.
         21   -1    0    0  501  503 -0.00000000000E+00 -0.00000000000E+00 -0.60839984087E+03  0.60839984087E+03  0.00000000000E+00 0.  1.
    9000005    1    1    2  501    0  0.51963408062E+02 -0.85024814288E+02 -0.45292173294E+03  0.61242755571E+03  0.40000000000E+03 0.  1.
   -9000005    1    1    2    0  502 -0.51963408062E+02  0.85024814288E+02  0.48528164981E+03  0.63673204291E+03  0.40000000000E+03 0.  1.
<mgrwt>
<rscale>  2 0.41222496E+03</rscale>
<asrwt>0</asrwt>
<pdfrwt beam="1">  1       21 0.98578424E-01 0.41222496E+03</pdfrwt>
<pdfrwt beam="2">  1       21 0.93599975E-01 0.41222496E+03</pdfrwt>
<totfact> 0.69846820E+02</totfact>
</mgrwt>
</event>
<event>
 4    1  0.4774032E-002  0.4422625E+03  0.7818608E-02  0.1030055E+00
         21   -1    0    0  501  502  0.00000000000E+00  0.00000000000E+00  0.56064731121E+03  0.56064731121E+03  0.00000000000E+00 0.  1.
         21   -1    0    0  502  503 -0.00000000000E+00 -0.00000000000E+00 -0.11691929889E+04  0.11691929889E+04  0.00000000000E+00 0.  1.
    9000005    1    1    2  501    0  0.11423819783E+02 -0.18832327496E+03  0.42020294962E+03  0.61005465199E+03  0.40000000000E+03 0.  1.
   -9000005    1    1    2    0  503 -0.11423819783E+02  0.18832327496E+03 -0.10287486273E+04  0.11197856481E+04  0.40000000000E+03 0.  1.
<mgrwt>
<rscale>  2 0.44226255E+03</rscale>
<asrwt>0</asrwt>
<pdfrwt beam="1">  1       21 0.86253433E-01 0.44226255E+03</pdfrwt>
<pdfrwt beam="2">  1       21 0.17987584E+00 0.44226255E+03</pdfrwt>
<totfact> 0.17168461E+02</totfact>
</mgrwt>
</event>
<event>
 4    1  0.4774032E-002  0.4721876E+03  0.7818608E-02  0.1021305E+00
         21   -1    0    0  503  502  0.00000000000E+00  0.00000000000E+00  0.18721581070E+04  0.18721581070E+04  0.00000000000E+00 0.  1.
         21   -1    0    0  501  503 -0.00000000000E+00 -0.00000000000E+00 -0.19561208719E+03  0.19561208719E+03  0.00000000000E+00 0. -1.
    9000005    1    1    2  501    0 -0.25088330853E+03  0.43290225258E+01  0.19163840278E+03  0.50959439985E+03  0.40000000000E+03 0. -1.
   -9000005    1    1    2    0  502  0.25088330853E+03 -0.43290225258E+01  0.14849076170E+04  0.15581757944E+04  0.40000000000E+03 0.  1.
<mgrwt>
<rscale>  2 0.47218765E+03</rscale>
<asrwt>0</asrwt>
<pdfrwt beam="1">  1       21 0.28802431E+00 0.47218765E+03</pdfrwt>
<pdfrwt beam="2">  1       21 0.30094169E-01 0.47218765E+03</pdfrwt>
<totfact> 0.33238336E+02</totfact>
</mgrwt>
</event>
<event>
 4    1  0.4774032E-002  0.4852006E+03  0.7818608E-02  0.1017716E+00
         21   -1    0    0  503  502  0.00000000000E+00  0.00000000000E+00  0.29730246045E+03  0.29730246045E+03  0.00000000000E+00 0.  1.
         21   -1    0    0  501  503 -0.00000000000E+00 -0.00000000000E+00 -0.79780377358E+03  0.79780377358E+03  0.00000000000E+00 0.  1.
    9000005    1    1    2  501    0 -0.27404642035E+03 -0.17838545968E+02 -0.20295858199E+03  0.52593900809E+03  0.40000000000E+03 0.  1.
   -9000005    1    1    2    0  502  0.27404642035E+03  0.17838545968E+02 -0.29754273114E+03  0.56916722594E+03  0.40000000000E+03 0.  1.
<mgrwt>
<rscale>  2 0.48520063E+03</rscale>
<asrwt>0</asrwt>
<pdfrwt beam="1">  1       21 0.45738841E-01 0.48520063E+03</pdfrwt>
<pdfrwt beam="2">  1       21 0.12273904E+00 0.48520063E+03</pdfrwt>
<totfact> 0.19419805E+03</totfact>
</mgrwt>
</event>
<event>
 4    1  0.4774032E-002  0.4690975E+03  0.7818608E-02  0.1022175E+00
         21   -1    0    0  503  502  0.00000000000E+00  0.00000000000E+00  0.65440501991E+03  0.65440501991E+03  0.00000000000E+00 0. -1.
         21   -1    0    0  501  503 -0.00000000000E+00 -0.00000000000E+00 -0.42754149635E+03  0.42754149635E+03  0.00000000000E+00 0. -1.
    9000005    1    1    2  501    0 -0.19042872792E+03  0.15423813626E+03  0.36339133825E+03  0.59338500807E+03  0.40000000000E+03 0. -1.
   -9000005    1    1    2    0  502  0.19042872792E+03 -0.15423813626E+03 -0.13652781468E+03  0.48856150818E+03  0.40000000000E+03 0. -1.
<mgrwt>
<rscale>  2 0.46909754E+03</rscale>
<asrwt>0</asrwt>
<pdfrwt beam="1">  1       21 0.10067770E+00 0.46909754E+03</pdfrwt>
<pdfrwt beam="2">  1       21 0.65775614E-01 0.46909754E+03</pdfrwt>
<totfact> 0.14597545E+03</totfact>
</mgrwt>
</event>
<event>
 4    1  0.4774032E-002  0.4973947E+03  0.7818608E-02  0.1014461E+00
         21   -1    0    0  503  502  0.00000000000E+00  0.00000000000E+00  0.16882401918E+04  0.16882401918E+04  0.00000000000E+00 0.  1.
         21   -1    0    0  501  503 -0.00000000000E+00 -0.00000000000E+00 -0.30832254044E+03  0.30832254044E+03  0.00000000000E+00 0.  1.
    9000005    1    1    2  501    0  0.23683892268E+03 -0.17694285262E+03 -0.33161886279E+02  0.49849890581E+03  0.40000000000E+03 0.  1.
   -9000005    1    1    2    0  502 -0.23683892268E+03  0.17694285262E+03  0.14130795377E+04  0.14980638265E+04  0.40000000000E+03 0.  1.
<mgrwt>
<rscale>  2 0.49739466E+03</rscale>
<asrwt>0</asrwt>
<pdfrwt beam="1">  1       21 0.25972926E+00 0.49739466E+03</pdfrwt>
<pdfrwt beam="2">  1       21 0.47434238E-01 0.49739466E+03</pdfrwt>
<totfact> 0.19161600E+02</totfact>
</mgrwt>
</event>
<event>
 4    1  0.4774032E-002  0.5342248E+03  0.7818608E-02  0.1005213E+00
         21   -1    0    0  503  502  0.00000000000E+00  0.00000000000E+00  0.74754580787E+03  0.74754580787E+03  0.00000000000E+00 0.  1.
         21   -1    0    0  501  503 -0.00000000000E+00 -0.00000000000E+00 -0.59624910871E+03  0.59624910871E+03  0.00000000000E+00 0.  1.
    9000005    1    1    2  501    0  0.32872941592E+03 -0.13165532457E+03 -0.32732289209E+03  0.62652727719E+03  0.40000000000E+03 0.  1.
   -9000005    1    1    2    0  502 -0.32872941592E+03  0.13165532457E+03  0.47861959125E+03  0.71726763938E+03  0.40000000000E+03 0.  1.
<mgrwt>
<rscale>  2 0.53422482E+03</rscale>
<asrwt>0</asrwt>
<pdfrwt beam="1">  1       21 0.11500705E+00 0.53422482E+03</pdfrwt>
<pdfrwt beam="2">  1       21 0.91730632E-01 0.53422482E+03</pdfrwt>
<totfact> 0.47582256E+02</totfact>
</mgrwt>
</event>
<event>
 4    1  0.4774032E-002  0.4418490E+03  0.7818608E-02  0.1030181E+00
         21   -1    0    0  501  502  0.00000000000E+00  0.00000000000E+00  0.47651569779E+03  0.47651569779E+03  0.00000000000E+00 0. -1.
         21   -1    0    0  502  503 -0.00000000000E+00 -0.00000000000E+00 -0.41617140548E+03  0.41617140548E+03  0.00000000000E+00 0. -1.
    9000005    1    1    2  501    0  0.88028549557E+01  0.18749143632E+03 -0.25467994698E+02  0.44258236262E+03  0.40000000000E+03 0. -1.
   -9000005    1    1    2    0  503 -0.88028549557E+01 -0.18749143632E+03  0.85812287006E+02  0.45010474065E+03  0.40000000000E+03 0. -1.
<mgrwt>
<rscale>  2 0.44184899E+03</rscale>
<asrwt>0</asrwt>
<pdfrwt beam="1">  1       21 0.73310107E-01 0.44184899E+03</pdfrwt>
<pdfrwt beam="2">  1       21 0.64026370E-01 0.44184899E+03</pdfrwt>
<totfact> 0.32965275E+03</totfact>
</mgrwt>
</event>
<event>
 4    1  0.4774032E-002  0.5329178E+03  0.7818608E-02  0.1005527E+00
         21   -1    0    0  503  502  0.00000000000E+00  0.00000000000E+00  0.15140434076E+04  0.15140434076E+04  0.00000000000E+00 0. -1.
         21   -1    0    0  501  503 -0.00000000000E+00 -0.00000000000E+00 -0.19135054689E+03  0.19135054689E+03  0.00000000000E+00 0.  1.
    9000005    1    1    2  501    0 -0.21183551633E+03 -0.28129529710E+03  0.78107382960E+03  0.94555679757E+03  0.40000000000E+03 0. -1.
   -9000005    1    1    2    0  502  0.21183551633E+03  0.28129529710E+03  0.54161903107E+03  0.75983715687E+03  0.40000000000E+03 0.  1.
<mgrwt>
<rscale>  2 0.53291775E+03</rscale>
<asrwt>0</asrwt>
<pdfrwt beam="1">  1       21 0.23292975E+00 0.53291775E+03</pdfrwt>
<pdfrwt beam="2">  1       21 0.29438547E-01 0.53291775E+03</pdfrwt>
<totfact> 0.73481617E+02</totfact>
</mgrwt>
</event>
<event>
 4    1  0.4774032E-002  0.4631502E+03  0.7818608E-02  0.1023872E+00
         21   -1    0    0  501  502  0.00000000000E+00  0.00000000000E+00  0.81802322957E+03  0.81802322957E+03  0.00000000000E+00 0.  1.
         21   -1    0    0  502  503 -0.00000000000E+00 -0.00000000000E+00 -0.42873406423E+03  0.42873406423E+03  0.00000000000E+00 0. -1.
    9000005    1    1    2  501    0 -0.17837770727E+03  0.15063024810E+03  0.58312915712E+03  0.74467959015E+03  0.40000000000E+03 0.  1.
   -9000005    1    1    2    0  503  0.17837770727E+03 -0.15063024810E+03 -0.19383999178E+03  0.50207770365E+03  0.40000000000E+03 0. -1.
<mgrwt>
<rscale>  2 0.46315017E+03</rscale>
<asrwt>0</asrwt>
<pdfrwt beam="1">  1       21 0.12584973E+00 0.46315017E+03</pdfrwt>
<pdfrwt beam="2">  1       21 0.65959087E-01 0.46315017E+03</pdfrwt>
<totfact> 0.83193145E+02</totfact>
</mgrwt>
</event>
<event>
 4    1  0.4774032E-002  0.4350937E+03  0.7818608E-02  0.1032263E+00
         21   -1    0    0  501  502  0.00000000000E+00  0.00000000000E+00  0.85246748855E+03  0.85246748855E+03  0.00000000000E+00 0.  1.
         21   -1    0    0  502  503 -0.00000000000E+00 -0.00000000000E+00 -0.30608815716E+03  0.30608815716E+03  0.00000000000E+00 0.  1.
    9000005    1    1    2  501    0  0.14160250280E+03  0.96204373772E+02  0.57668565623E+03  0.72240770790E+03  0.40000000000E+03 0.  1.
   -9000005    1    1    2    0  503 -0.14160250280E+03 -0.96204373772E+02 -0.30306324841E+02  0.43614793781E+03  0.40000000000E+03 0.  1.
<mgrwt>
<rscale>  2 0.43509373E+03</rscale>
<asrwt>0</asrwt>
<pdfrwt beam="1">  1       21 0.13114884E+00 0.43509373E+03</pdfrwt>
<pdfrwt beam="2">  1       21 0.47090486E-01 0.43509373E+03</pdfrwt>
<totfact> 0.15692238E+03</totfact>
</mgrwt>
</event>
<event>
 4    1  0.4774032E-002  0.5938961E+03  0.7818608E-02  0.9918151E-01
         21   -1    0    0  501  502  0.00000000000E+00  0.00000000000E+00  0.70043222253E+03  0.70043222253E+03  0.00000000000E+00 0.  1.
         21   -1    0    0  502  503 -0.00000000000E+00 -0.00000000000E+00 -0.61265676111E+03  0.61265676111E+03  0.00000000000E+00 0.  1.
    9000005    1    1    2  501    0 -0.39513785542E+03  0.19125543604E+03  0.32093456192E+03  0.67506411521E+03  0.40000000000E+03 0.  1.
   -9000005    1    1    2    0  503  0.39513785542E+03 -0.19125543604E+03 -0.23315910050E+03  0.63802486844E+03  0.40000000000E+03 0.  1.
<mgrwt>
<rscale>  2 0.59389609E+03</rscale>
<asrwt>0</asrwt>
<pdfrwt beam="1">  1       21 0.10775880E+00 0.59389609E+03</pdfrwt>
<pdfrwt beam="2">  1       21 0.94254886E-01 0.59389609E+03</pdfrwt>
<totfact> 0.51363395E+02</totfact>
</mgrwt>
</event>
<event>
 4    1  0.4774032E-002  0.5181175E+03  0.7818608E-02  0.1009155E+00
         21   -1    0    0  501  502  0.00000000000E+00  0.00000000000E+00  0.40967105636E+03  0.40967105636E+03  0.00000000000E+00 0. -1.
         21   -1    0    0  502  503 -0.00000000000E+00 -0.00000000000E+00 -0.66175114589E+03  0.66175114589E+03  0.00000000000E+00 0. -1.
    9000005    1    1    2  501    0  0.32096338343E+02 -0.32774308463E+03 -0.73029276619E+02  0.52323893175E+03  0.40000000000E+03 0. -1.
   -9000005    1    1    2    0  503 -0.32096338343E+02  0.32774308463E+03 -0.17905081290E+03  0.54818327050E+03  0.40000000000E+03 0. -1.
<mgrwt>
<rscale>  2 0.51811746E+03</rscale>
<asrwt>0</asrwt>
<pdfrwt beam="1">  1       21 0.63026317E-01 0.51811746E+03</pdfrwt>
<pdfrwt beam="2">  1       21 0.10180787E+00 0.51811746E+03</pdfrwt>
<totfact> 0.15348329E+03</totfact>
</mgrwt>
</event>
<event>
 4    1  0.4774032E-002  0.4103006E+03  0.7818608E-02  0.1040270E+00
         21   -1    0    0  503  502  0.00000000000E+00  0.00000000000E+00  0.20228293313E+04  0.20228293313E+04  0.00000000000E+00 0. -1.
         21   -1    0    0  501  503 -0.00000000000E+00 -0.00000000000E+00 -0.14670460769E+03  0.14670460769E+03  0.00000000000E+00 0. -1.
    9000005    1    1    2  501    0  0.24818765331E+01  0.91325819595E+02  0.22449093350E+03  0.46769941657E+03  0.40000000000E+03 0. -1.
   -9000005    1    1    2    0  502 -0.24818765331E+01 -0.91325819595E+02  0.16516337901E+04  0.17018345224E+04  0.40000000000E+03 0. -1.
<mgrwt>
<rscale>  2 0.41030058E+03</rscale>
<asrwt>0</asrwt>
<pdfrwt beam="1">  1       21 0.31120449E+00 0.41030058E+03</pdfrwt>
<pdfrwt beam="2">  1       21 0.22569941E-01 0.41030058E+03</pdfrwt>
<totfact> 0.43903593E+02</totfact>
</mgrwt>
</event>
<event>
 4    1  0.4774032E-002  0.4585654E+03  0.7818608E-02  0.1025198E+00
         21   -1    0    0  501  502  0.00000000000E+00  0.00000000000E+00  0.55560252500E+03  0.55560252500E+03  0.00000000000E+00 0. -1.
         21   -1    0    0  502  503 -0.00000000000E+00 -0.00000000000E+00 -0.38919377275E+03  0.38919377275E+03  0.00000000000E+00 0.  1.
    9000005    1    1    2  501    0 -0.22057313263E+03  0.40370061894E+02  0.16159723735E+03  0.48620563124E+03  0.40000000000E+03 0. -1.
   -9000005    1    1    2    0  503  0.22057313263E+03 -0.40370061894E+02  0.48115148968E+01  0.45859066651E+03  0.40000000000E+03 0. -1.
<mgrwt>
<rscale>  2 0.45856542E+03</rscale>
<asrwt>0</asrwt>
<pdfrwt beam="1">  1       21 0.85477311E-01 0.45856542E+03</pdfrwt>
<pdfrwt beam="2">  1       21 0.59875965E-01 0.45856542E+03</pdfrwt>
<totfact> 0.26659163E+03</totfact>
</mgrwt>
</event>
<event>
 4    1  0.4774032E-002  0.4293939E+03  0.7818608E-02  0.1034052E+00
         21   -1    0    0  503  502  0.00000000000E+00  0.00000000000E+00  0.18105124220E+03  0.18105124220E+03  0.00000000000E+00 0. -1.
         21   -1    0    0  501  503 -0.00000000000E+00 -0.00000000000E+00 -0.16031077566E+04  0.16031077566E+04  0.00000000000E+00 0.  1.
    9000005    1    1    2  501    0  0.81988585121E+02  0.13287971200E+03 -0.12497923993E+04  0.13214992196E+04  0.40000000000E+03 0.  1.
   -9000005    1    1    2    0  502 -0.81988585121E+02 -0.13287971200E+03 -0.17226411507E+03  0.46265977920E+03  0.40000000000E+03 0. -1.
<mgrwt>
<rscale>  2 0.42939393E+03</rscale>
<asrwt>0</asrwt>
<pdfrwt beam="1">  1       21 0.27854037E-01 0.42939393E+03</pdfrwt>
<pdfrwt beam="2">  1       21 0.24663197E+00 0.42939393E+03</pdfrwt>
<totfact> 0.70724156E+02</totfact>
</mgrwt>
</event>
<event>
 4    1  0.4774032E-002  0.4465141E+03  0.7818608E-02  0.1028767E+00
         21   -1    0    0  503  502  0.00000000000E+00  0.00000000000E+00  0.91392599984E+03  0.91392599984E+03  0.00000000000E+00 0. -1.
         21   -1    0    0  501  503 -0.00000000000E+00 -0.00000000000E+00 -0.29980113052E+03  0.29980113052E+03  0.00000000000E+00 0. -1.
    9000005    1    1    2  501    0 -0.16968786164E+03  0.10286324490E+03 -0.96390634152E+01  0.44661810205E+03  0.40000000000E+03 0. -1.
   -9000005    1    1    2    0  502  0.16968786164E+03 -0.10286324490E+03  0.62376393273E+03  0.76710902831E+03  0.40000000000E+03 0. -1.
<mgrwt>
<rscale>  2 0.44651407E+03</rscale>
<asrwt>0</asrwt>
<pdfrwt beam="1">  1       21 0.14060400E+00 0.44651407E+03</pdfrwt>
<pdfrwt beam="2">  1       21 0.46123251E-01 0.44651407E+03</pdfrwt>
<totfact> 0.13588070E+03</totfact>
</mgrwt>
</event>
<event>
 4    1  0.4774032E-002  0.4902222E+03  0.7818608E-02  0.1016363E+00
         21   -1    0    0  503  502  0.00000000000E+00  0.00000000000E+00  0.88982608554E+03  0.88982608554E+03  0.00000000000E+00 0.  1.
         21   -1    0    0  501  503 -0.00000000000E+00 -0.00000000000E+00 -0.28177607042E+03  0.28177607042E+03  0.00000000000E+00 0.  1.
    9000005    1    1    2  501    0 -0.28241851849E+03  0.23614045113E+02  0.18463958264E+03  0.52384121467E+03  0.40000000000E+03 0.  1.
   -9000005    1    1    2    0  502  0.28241851849E+03 -0.23614045113E+02  0.42341043249E+03  0.64776094129E+03  0.40000000000E+03 0.  1.
<mgrwt>
<rscale>  2 0.49022224E+03</rscale>
<asrwt>0</asrwt>
<pdfrwt beam="1">  1       21 0.13689632E+00 0.49022224E+03</pdfrwt>
<pdfrwt beam="2">  1       21 0.43350165E-01 0.49022224E+03</pdfrwt>
<totfact> 0.16330651E+03</totfact>
</mgrwt>
</event>
<event>
 4    1  0.4774032E-002  0.4573772E+03  0.7818608E-02  0.1025545E+00
         21   -1    0    0  501  502  0.00000000000E+00  0.00000000000E+00  0.73652397817E+03  0.73652397817E+03  0.00000000000E+00 0.  1.
         21   -1    0    0  502  503 -0.00000000000E+00 -0.00000000000E+00 -0.33338161089E+03  0.33338161089E+03  0.00000000000E+00 0. -1.
    9000005    1    1    2  501    0 -0.21778707851E+03 -0.41984637822E+02  0.40739763474E+03  0.61250857477E+03  0.40000000000E+03 0.  1.
   -9000005    1    1    2    0  503  0.21778707851E+03  0.41984637822E+02 -0.42552674530E+01  0.45739701429E+03  0.40000000000E+03 0. -1.
<mgrwt>
<rscale>  2 0.45737722E+03</rscale>
<asrwt>0</asrwt>
<pdfrwt beam="1">  1       21 0.11331138E+00 0.45737722E+03</pdfrwt>
<pdfrwt beam="2">  1       21 0.51289479E-01 0.45737722E+03</pdfrwt>
<totfact> 0.18838130E+03</totfact>
</mgrwt>
</event>
<event>
 4    1  0.4774032E-002  0.5256943E+03  0.7818608E-02  0.1007282E+00
         21   -1    0    0  503  502  0.00000000000E+00  0.00000000000E+00  0.10652090252E+04  0.10652090252E+04  0.00000000000E+00 0.  1.
         21   -1    0    0  501  503 -0.00000000000E+00 -0.00000000000E+00 -0.79715991371E+03  0.79715991371E+03  0.00000000000E+00 0. -1.
    9000005    1    1    2  501    0  0.24940239805E+03 -0.23270788039E+03 -0.63076564644E+03  0.82110889319E+03  0.40000000000E+03 0. -1.
   -9000005    1    1    2    0  502 -0.24940239805E+03  0.23270788039E+03  0.89881475791E+03  0.10412600457E+04  0.40000000000E+03 0.  1.
<mgrwt>
<rscale>  2 0.52569432E+03</rscale>
<asrwt>0</asrwt>
<pdfrwt beam="1">  1       21 0.16387831E+00 0.52569432E+03</pdfrwt>
<pdfrwt beam="2">  1       21 0.12263999E+00 0.52569432E+03</pdfrwt>
<totfact> 0.90749530E+01</totfact>
</mgrwt>
</event>
<event>
 4    1  0.4774032E-002  0.4892667E+03  0.7818608E-02  0.1016619E+00
         21   -1    0    0  503  502  0.00000000000E+00  0.00000000000E+00  0.12678390002E+04  0.12678390002E+04  0.00000000000E+00 0. -1.
         21   -1    0    0  501  503 -0.00000000000E+00 -0.00000000000E+00 -0.20455272606E+03  0.20455272606E+03  0.00000000000E+00 0. -1.
    9000005    1    1    2  501    0  0.17044895934E+03  0.22434140450E+03  0.32741418767E+03  0.58871212303E+03  0.40000000000E+03 0. -1.
   -9000005    1    1    2    0  502 -0.17044895934E+03 -0.22434140450E+03  0.73587208651E+03  0.88367960326E+03  0.40000000000E+03 0. -1.
<mgrwt>
<rscale>  2 0.48926671E+03</rscale>
<asrwt>0</asrwt>
<pdfrwt beam="1">  1       21 0.19505215E+00 0.48926671E+03</pdfrwt>
<pdfrwt beam="2">  1       21 0.31469651E-01 0.48926671E+03</pdfrwt>
<totfact> 0.11560016E+03</totfact>
</mgrwt>
</event>
<event>
 4    1  0.4774032E-002  0.4756380E+03  0.7818608E-02  0.1020341E+00
         21   -1    0    0  501  502  0.00000000000E+00  0.00000000000E+00  0.52335681523E+03  0.52335681523E+03  0.00000000000E+00 0. -1.
         21   -1    0    0  502  503 -0.00000000000E+00 -0.00000000000E+00 -0.65815049369E+03  0.65815049369E+03  0.00000000000E+00 0. -1.
    9000005    1    1    2  501    0  0.14994046228E+03 -0.20916358068E+03  0.27868833923E+03  0.55127011177E+03  0.40000000000E+03 0. -1.
   -9000005    1    1    2    0  503 -0.14994046228E+03  0.20916358068E+03 -0.41348201770E+03  0.63023719715E+03  0.40000000000E+03 0. -1.
<mgrwt>
<rscale>  2 0.47563804E+03</rscale>
<asrwt>0</asrwt>
<pdfrwt beam="1">  1       21 0.80516434E-01 0.47563804E+03</pdfrwt>
<pdfrwt beam="2">  1       21 0.10125392E+00 0.47563804E+03</pdfrwt>
<totfact> 0.90707660E+02</totfact>
</mgrwt>
</event>
<event>
 4    1  0.4774032E-002  0.4318309E+03  0.7818608E-02  0.1033283E+00
         21   -1    0    0  503  502  0.00000000000E+00  0.00000000000E+00  0.20964851480E+03  0.20964851480E+03  0.00000000000E+00 0.  1.
         21   -1    0    0  501  503 -0.00000000000E+00 -0.00000000000E+00 -0.10374479277E+04  0.10374479277E+04  0.00000000000E+00 0.  1.
    9000005    1    1    2  501    0 -0.13241820347E+03  0.94569432427E+02 -0.64938950933E+03  0.77986197047E+03  0.40000000000E+03 0.  1.
   -9000005    1    1    2    0  502  0.13241820347E+03 -0.94569432427E+02 -0.17840990357E+03  0.46723447203E+03  0.40000000000E+03 0.  1.
<mgrwt>
<rscale>  2 0.43183094E+03</rscale>
<asrwt>0</asrwt>
<pdfrwt beam="1">  1       21 0.32253618E-01 0.43183094E+03</pdfrwt>
<pdfrwt beam="2">  1       21 0.15960737E+00 0.43183094E+03</pdfrwt>
<totfact> 0.20168752E+03</totfact>
</mgrwt>
</event>
<event>
 4    1  0.4774032E-002  0.5552666E+03  0.7818608E-02  0.1000282E+00
         21   -1    0    0  503  502  0.00000000000E+00  0.00000000000E+00  0.32186416499E+03  0.32186416499E+03  0.00000000000E+00 0. -1.
         21   -1    0    0  501  503 -0.00000000000E+00 -0.00000000000E+00 -0.17007499095E+04  0.17007499095E+04  0.00000000000E+00 0. -1.
    9000005    1    1    2  501    0 -0.29788614626E+03  0.24409999596E+03 -0.13577971409E+04  0.14669471838E+04  0.40000000000E+03 0. -1.
   -9000005    1    1    2    0  502  0.29788614626E+03 -0.24409999596E+03 -0.21088603545E+02  0.55566689065E+03  0.40000000000E+03 0. -1.
<mgrwt>
<rscale>  2 0.55526657E+03</rscale>
<asrwt>0</asrwt>
<pdfrwt beam="1">  1       21 0.49517564E-01 0.55526657E+03</pdfrwt>
<pdfrwt beam="2">  1       21 0.26165383E+00 0.55526657E+03</pdfrwt>
<totfact> 0.16544809E+02</totfact>
</mgrwt>
</event>
<event>
 4    1  0.4774032E-002  0.5455195E+03  0.7818608E-02  0.1002536E+00
         21   -1    0    0  501  502  0.00000000000E+00  0.00000000000E+00  0.67658046810E+03  0.67658046810E+03  0.00000000000E+00 0.  1.
         21   -1    0    0  502  503 -0.00000000000E+00 -0.00000000000E+00 -0.12428820066E+04  0.12428820066E+04  0.00000000000E+00 0. -1.
    9000005    1    1    2  501    0  0.96954112035E+02 -0.35803831851E+03  0.48828906354E+03  0.73213232884E+03  0.40000000000E+03 0.  1.
   -9000005    1    1    2    0  503 -0.96954112035E+02  0.35803831851E+03 -0.10545906020E+04  0.11873301458E+04  0.40000000000E+03 0. -1.
<mgrwt>
<rscale>  2 0.54551951E+03</rscale>
<asrwt>0</asrwt>
<pdfrwt beam="1">  1       21 0.10408930E+00 0.54551951E+03</pdfrwt>
<pdfrwt beam="2">  1       21 0.19121262E+00 0.54551951E+03</pdfrwt>
<totfact> 0.86507451E+01</totfact>
</mgrwt>
</event>
<event>
 4    1  0.4774032E-002  0.4406234E+03  0.7818608E-02  0.1030556E+00
         21   -1    0    0  503  502  0.00000000000E+00  0.00000000000E+00  0.35887378968E+03  0.35887378968E+03  0.00000000000E+00 0. -1.
         21   -1    0    0  501  503 -0.00000000000E+00 -0.00000000000E+00 -0.54853258186E+03  0.54853258186E+03  0.00000000000E+00 0.  1.
    9000005    1    1    2  501    0  0.82941508648E+02 -0.16513547092E+03 -0.41645607817E+02  0.44258713748E+03  0.40000000000E+03 0.  1.
   -9000005    1    1    2    0  502 -0.82941508648E+02  0.16513547092E+03 -0.14801318436E+03  0.46481923406E+03  0.40000000000E+03 0.  1.
<mgrwt>
<rscale>  2 0.44062344E+03</rscale>
<asrwt>0</asrwt>
<pdfrwt beam="1">  1       21 0.55211353E-01 0.44062344E+03</pdfrwt>
<pdfrwt beam="2">  1       21 0.84389627E-01 0.44062344E+03</pdfrwt>
<totfact> 0.32980566E+03</totfact>
</mgrwt>
</event>
<event>
 4    1  0.4774032E-002  0.4562542E+03  0.7818608E-02  0.1025873E+00
         21   -1    0    0  501  502  0.00000000000E+00  0.00000000000E+00  0.84602716588E+03  0.84602716588E+03  0.00000000000E+00 0.  1.
         21   -1    0    0  502  503 -0.00000000000E+00 -0.00000000000E+00 -0.25772094670E+03  0.25772094670E+03  0.00000000000E+00 0. -1.
    9000005    1    1    2  501    0 -0.19143146773E+03  0.10734024109E+03  0.41157613760E+03  0.61446143185E+03  0.40000000000E+03 0.  1.
   -9000005    1    1    2    0  503  0.19143146773E+03 -0.10734024109E+03  0.17673008158E+03  0.48928668072E+03  0.40000000000E+03 0.  1.
<mgrwt>
<rscale>  2 0.45625424E+03</rscale>
<asrwt>0</asrwt>
<pdfrwt beam="1">  1       21 0.13015802E+00 0.45625424E+03</pdfrwt>
<pdfrwt beam="2">  1       21 0.39649377E-01 0.45625424E+03</pdfrwt>
<totfact> 0.22708021E+03</totfact>
</mgrwt>
</event>
<event>
 4    1  0.4774032E-002  0.7327019E+03  0.7818608E-02  0.9662886E-01
         21   -1    0    0  501  502  0.00000000000E+00  0.00000000000E+00  0.11475099815E+04  0.11475099815E+04  0.00000000000E+00 0. -1.
         21   -1    0    0  502  503 -0.00000000000E+00 -0.00000000000E+00 -0.48142123339E+03  0.48142123339E+03  0.00000000000E+00 0. -1.
    9000005    1    1    2  501    0 -0.51181322779E+03  0.33896799238E+03  0.46983793626E+03  0.87040207166E+03  0.40000000000E+03 0. -1.
   -9000005    1    1    2    0  503  0.51181322779E+03 -0.33896799238E+03  0.19625081187E+03  0.75852914325E+03  0.40000000000E+03 0. -1.
<mgrwt>
<rscale>  2 0.73270190E+03</rscale>
<asrwt>0</asrwt>
<pdfrwt beam="1">  1       21 0.17654000E+00 0.73270190E+03</pdfrwt>
<pdfrwt beam="2">  1       21 0.74064805E-01 0.73270190E+03</pdfrwt>
<totfact> 0.22993713E+02</totfact>
</mgrwt>
</event>
<event>
 4    1  0.4774032E-002  0.4505486E+03  0.7818608E-02  0.1027559E+00
         21   -1    0    0  503  502  0.00000000000E+00  0.00000000000E+00  0.22953540779E+03  0.22953540779E+03  0.00000000000E+00 0. -1.
         21   -1    0    0  501  503 -0.00000000000E+00 -0.00000000000E+00 -0.13662736578E+04  0.13662736578E+04  0.00000000000E+00 0.  1.
    9000005    1    1    2  501    0 -0.51454685935E+02 -0.20086422958E+03 -0.94495432841E+02  0.46035139867E+03  0.40000000000E+03 0. -1.
   -9000005    1    1    2    0  502  0.51454685935E+02  0.20086422958E+03 -0.10422428172E+04  0.11354576669E+04  0.40000000000E+03 0. -1.
<mgrwt>
<rscale>  2 0.45054858E+03</rscale>
<asrwt>0</asrwt>
<pdfrwt beam="1">  1       21 0.35313140E-01 0.45054858E+03</pdfrwt>
<pdfrwt beam="2">  1       21 0.21019595E+00 0.45054858E+03</pdfrwt>
<totfact> 0.73986649E+02</totfact>
</mgrwt>
</event>
<event>
 4    1  0.4774032E-002  0.4410762E+03  0.7818608E-02  0.1030417E+00
         21   -1    0    0  503  502  0.00000000000E+00  0.00000000000E+00  0.17156176560E+03  0.17156176560E+03  0.00000000000E+00 0.  1.
         21   -1    0    0  501  503 -0.00000000000E+00 -0.00000000000E+00 -0.11347871497E+04  0.11347871497E+04  0.00000000000E+00 0. -1.
    9000005    1    1    2  501    0  0.14595059403E+03  0.11509406694E+03 -0.49899436762E+03  0.66599068992E+03  0.40000000000E+03 0.  1.
   -9000005    1    1    2    0  502 -0.14595059403E+03 -0.11509406694E+03 -0.46423101643E+03  0.64035822534E+03  0.40000000000E+03 0.  1.
<mgrwt>
<rscale>  2 0.44107621E+03</rscale>
<asrwt>0</asrwt>
<pdfrwt beam="1">  1       21 0.26394119E-01 0.44107621E+03</pdfrwt>
<pdfrwt beam="2">  1       21 0.17458263E+00 0.44107621E+03</pdfrwt>
<totfact> 0.23189024E+03</totfact>
</mgrwt>
</event>
<event>
 4    1  0.4774032E-002  0.4594263E+03  0.7818608E-02  0.1024948E+00
         21   -1    0    0  501  502  0.00000000000E+00  0.00000000000E+00  0.12319962517E+04  0.12319962517E+04  0.00000000000E+00 0.  1.
         21   -1    0    0  502  503 -0.00000000000E+00 -0.00000000000E+00 -0.47046436073E+03  0.47046436073E+03  0.00000000000E+00 0.  1.
    9000005    1    1    2  501    0 -0.49716966187E+02 -0.22045579770E+03  0.10595318750E+04  0.11548507824E+04  0.40000000000E+03 0.  1.
   -9000005    1    1    2    0  503  0.49716966187E+02  0.22045579770E+03 -0.29799998403E+03  0.54760983003E+03  0.40000000000E+03 0.  1.
<mgrwt>
<rscale>  2 0.45942631E+03</rscale>
<asrwt>0</asrwt>
<pdfrwt beam="1">  1       21 0.18953788E+00 0.45942631E+03</pdfrwt>
<pdfrwt beam="2">  1       21 0.72379133E-01 0.45942631E+03</pdfrwt>
<totfact> 0.21839028E+02</totfact>
</mgrwt>
</event>
<event>
 4    1  0.4774032E-002  0.7454175E+03  0.7818608E-02  0.9642567E-01
         21   -1    0    0  501  502  0.00000000000E+00  0.00000000000E+00  0.11429855656E+04  0.11429855656E+04  0.00000000000E+00 0.  1.
         21   -1    0    0  502  503 -0.00000000000E+00 -0.00000000000E+00 -0.61868778605E+03  0.61868778605E+03  0.00000000000E+00 0. -1.
    9000005    1    1    2  501    0  0.52250304222E+03 -0.35019691665E+03  0.66985868987E+03  0.10021766181E+04  0.40000000000E+03 0.  1.
   -9000005    1    1    2    0  503 -0.52250304222E+03  0.35019691665E+03 -0.14556091034E+03  0.75949673349E+03  0.40000000000E+03 0. -1.
<mgrwt>
<rscale>  2 0.74541754E+03</rscale>
<asrwt>0</asrwt>
<pdfrwt beam="1">  1       21 0.17584393E+00 0.74541754E+03</pdfrwt>
<pdfrwt beam="2">  1       21 0.95182737E-01 0.74541754E+03</pdfrwt>
<totfact> 0.12812092E+02</totfact>
</mgrwt>
</event>
<event>
 4    1  0.4774032E-002  0.5118152E+03  0.7818608E-02  0.1010740E+00
         21   -1    0    0  501  502  0.00000000000E+00  0.00000000000E+00  0.69400733256E+03  0.69400733256E+03  0.00000000000E+00 0. -1.
         21   -1    0    0  502  503 -0.00000000000E+00 -0.00000000000E+00 -0.67036963851E+03  0.67036963851E+03  0.00000000000E+00 0. -1.
    9000005    1    1    2  501    0 -0.13207135469E+03  0.29070945381E+03  0.46275969749E+03  0.69000099050E+03  0.40000000000E+03 0. -1.
   -9000005    1    1    2    0  503  0.13207135469E+03 -0.29070945381E+03 -0.43912200344E+03  0.67437598057E+03  0.40000000000E+03 0. -1.
<mgrwt>
<rscale>  2 0.51181523E+03</rscale>
<asrwt>0</asrwt>
<pdfrwt beam="1">  1       21 0.10677036E+00 0.51181523E+03</pdfrwt>
<pdfrwt beam="2">  1       21 0.10313379E+00 0.51181523E+03</pdfrwt>
<totfact> 0.43497008E+02</totfact>
</mgrwt>
</event>
<event>
 4    1  0.4774032E-002  0.4990888E+03  0.7818608E-02  0.1014017E+00
         21   -1    0    0  501  502  0.00000000000E+00  0.00000000000E+00  0.19766125270E+04  0.19766125270E+04  0.00000000000E+00 0.  1.
         21   -1    0    0  502  503 -0.00000000000E+00 -0.00000000000E+00 -0.31005180008E+03  0.31005180008E+03  0.00000000000E+00 0.  1.
    9000005    1    1    2  501    0  0.22547694061E+02  0.29762592566E+03  0.17141336768E+04  0.17853133765E+04  0.40000000000E+03 0.  1.
   -9000005    1    1    2    0  503 -0.22547694061E+02 -0.29762592566E+03 -0.47572949902E+02  0.50135095063E+03  0.40000000000E+03 0.  1.
<mgrwt>
<rscale>  2 0.49908876E+03</rscale>
<asrwt>0</asrwt>
<pdfrwt beam="1">  1       21 0.30409423E+00 0.49908876E+03</pdfrwt>
<pdfrwt beam="2">  1       21 0.47700278E-01 0.49908876E+03</pdfrwt>
<totfact> 0.10184027E+02</totfact>
</mgrwt>
</event>
<event>
 4    1  0.4774032E-002  0.4224300E+03  0.7818608E-02  0.1036278E+00
         21   -1    0    0  501  502  0.00000000000E+00  0.00000000000E+00  0.23437586514E+03  0.23437586514E+03  0.00000000000E+00 0.  1.
         21   -1    0    0  502  503 -0.00000000000E+00 -0.00000000000E+00 -0.96463969403E+03  0.96463969403E+03  0.00000000000E+00 0.  1.
    9000005    1    1    2  501    0  0.11730148985E+03 -0.68465029726E+02 -0.89932825282E+02  0.43189699337E+03  0.40000000000E+03 0.  1.
   -9000005    1    1    2    0  503 -0.11730148985E+03  0.68465029726E+02 -0.64033100361E+03  0.76711856580E+03  0.40000000000E+03 0.  1.
<mgrwt>
<rscale>  2 0.42242999E+03</rscale>
<asrwt>0</asrwt>
<pdfrwt beam="1">  1       21 0.36057824E-01 0.42242999E+03</pdfrwt>
<pdfrwt beam="2">  1       21 0.14840611E+00 0.42242999E+03</pdfrwt>
<totfact> 0.19738954E+03</totfact>
</mgrwt>
</event>
<event>
 4    1  0.4774032E-002  0.6266759E+03  0.7818608E-02  0.9851557E-01
         21   -1    0    0  503  502  0.00000000000E+00  0.00000000000E+00  0.48239390663E+03  0.48239390663E+03  0.00000000000E+00 0. -1.
         21   -1    0    0  501  503 -0.00000000000E+00 -0.00000000000E+00 -0.27826621749E+04  0.27826621749E+04  0.00000000000E+00 0. -1.
    9000005    1    1    2  501    0 -0.46259173673E+03  0.13686352823E+03 -0.25232387753E+04  0.25998955089E+04  0.40000000000E+03 0. -1.
   -9000005    1    1    2    0  502  0.46259173673E+03 -0.13686352823E+03  0.22297050706E+03  0.66516057255E+03  0.40000000000E+03 0. -1.
<mgrwt>
<rscale>  2 0.62667595E+03</rscale>
<asrwt>0</asrwt>
<pdfrwt beam="1">  1       21 0.74214449E-01 0.62667595E+03</pdfrwt>
<pdfrwt beam="2">  1       21 0.42810186E+00 0.62667595E+03</pdfrwt>
<totfact> 0.59255525E+00</totfact>
</mgrwt>
</event>
<event>
 4    1  0.4774032E-002  0.4132439E+03  0.7818608E-02  0.1039288E+00
         21   -1    0    0  503  502  0.00000000000E+00  0.00000000000E+00  0.74834465621E+03  0.74834465621E+03  0.00000000000E+00 0.  1.
         21   -1    0    0  501  503 -0.00000000000E+00 -0.00000000000E+00 -0.31050328249E+03  0.31050328249E+03  0.00000000000E+00 0.  1.
    9000005    1    1    2  501    0 -0.10073341157E+03 -0.24966034870E+02 -0.53653779468E+02  0.41671243221E+03  0.40000000000E+03 0.  1.
   -9000005    1    1    2    0  502  0.10073341157E+03  0.24966034870E+02  0.49149515318E+03  0.64213550650E+03  0.40000000000E+03 0.  1.
<mgrwt>
<rscale>  2 0.41324390E+03</rscale>
<asrwt>0</asrwt>
<pdfrwt beam="1">  1       21 0.11512995E+00 0.41324390E+03</pdfrwt>
<pdfrwt beam="2">  1       21 0.47769736E-01 0.41324390E+03</pdfrwt>
<totfact> 0.21422144E+03</totfact>
</mgrwt>
</event>
<event>
 4    1  0.4774032E-002  0.4059912E+03  0.7818608E-02  0.1041725E+00
         21   -1    0    0  503  502  0.00000000000E+00  0.00000000000E+00  0.67821895414E+03  0.67821895414E+03  0.00000000000E+00 0. -1.
         21   -1    0    0  501  503 -0.00000000000E+00 -0.00000000000E+00 -0.33344342255E+03  0.33344342255E+03  0.00000000000E+00 0. -1.
    9000005    1    1    2  501    0  0.15737884460E+02  0.67684334146E+02 -0.91006542037E+02  0.41606614954E+03  0.40000000000E+03 0. -1.
   -9000005    1    1    2    0  502 -0.15737884460E+02 -0.67684334146E+02  0.43578207363E+03  0.59559622715E+03  0.40000000000E+03 0. -1.
<mgrwt>
<rscale>  2 0.40599119E+03</rscale>
<asrwt>0</asrwt>
<pdfrwt beam="1">  1       21 0.10434138E+00 0.40599119E+03</pdfrwt>
<pdfrwt beam="2">  1       21 0.51298988E-01 0.40599119E+03</pdfrwt>
<totfact> 0.23563865E+03</totfact>
</mgrwt>
</event>
<event>
 4    1  0.4774032E-002  0.5775010E+03  0.7818608E-02  0.9953216E-01
         21   -1    0    0  501  502  0.00000000000E+00  0.00000000000E+00  0.38550689476E+03  0.38550689476E+03  0.00000000000E+00 0.  1.
         21   -1    0    0  502  503 -0.00000000000E+00 -0.00000000000E+00 -0.86891421476E+03  0.86891421476E+03  0.00000000000E+00 0. -1.
    9000005    1    1    2  501    0 -0.10451782013E+03  0.40321638454E+03 -0.20022481582E+03  0.61122614829E+03  0.40000000000E+03 0.  1.
   -9000005    1    1    2    0  503  0.10451782013E+03 -0.40321638454E+03 -0.28318250417E+03  0.64319496123E+03  0.40000000000E+03 0.  1.
<mgrwt>
<rscale>  2 0.57750102E+03</rscale>
<asrwt>0</asrwt>
<pdfrwt beam="1">  1       21 0.59308753E-01 0.57750102E+03</pdfrwt>
<pdfrwt beam="2">  1       21 0.13367911E+00 0.57750102E+03</pdfrwt>
<totfact> 0.86246154E+02</totfact>
</mgrwt>
</event>
<event>
 4    1  0.4774032E-002  0.5303491E+03  0.7818608E-02  0.1006147E+00
         21   -1    0    0  503  502  0.00000000000E+00  0.00000000000E+00  0.86878427336E+03  0.86878427336E+03  0.00000000000E+00 0. -1.
         21   -1    0    0  501  503 -0.00000000000E+00 -0.00000000000E+00 -0.12912875251E+04  0.12912875251E+04  0.00000000000E+00 0.  1.
    9000005    1    1    2  501    0  0.32453577609E+03 -0.12628031203E+03 -0.11461411472E+04  0.12628973499E+04  0.40000000000E+03 0.  1.
   -9000005    1    1    2    0  502 -0.32453577609E+03  0.12628031203E+03  0.72363789551E+03  0.89717444847E+03  0.40000000000E+03 0. -1.
<mgrwt>
<rscale>  2 0.53034912E+03</rscale>
<asrwt>0</asrwt>
<pdfrwt beam="1">  1       21 0.13365912E+00 0.53034912E+03</pdfrwt>
<pdfrwt beam="2">  1       21 0.19865962E+00 0.53034912E+03</pdfrwt>
<totfact> 0.41074308E+01</totfact>
</mgrwt>
</event>
<event>
 4    1  0.4774032E-002  0.4804944E+03  0.7818608E-02  0.1018999E+00
         21   -1    0    0  503  502  0.00000000000E+00  0.00000000000E+00  0.12103686780E+03  0.12103686780E+03  0.00000000000E+00 0. -1.
         21   -1    0    0  501  503 -0.00000000000E+00 -0.00000000000E+00 -0.26554391346E+04  0.26554391346E+04  0.00000000000E+00 0. -1.
    9000005    1    1    2  501    0 -0.26536723868E+03 -0.21332895821E+02 -0.53042426042E+03  0.71569879129E+03  0.40000000000E+03 0. -1.
   -9000005    1    1    2    0  502  0.26536723868E+03  0.21332895821E+02 -0.20039780064E+04  0.20607772111E+04  0.40000000000E+03 0. -1.
<mgrwt>
<rscale>  2 0.48049440E+03</rscale>
<asrwt>0</asrwt>
<pdfrwt beam="1">  1       21 0.18621058E-01 0.48049440E+03</pdfrwt>
<pdfrwt beam="2">  1       21 0.40852907E+00 0.48049440E+03</pdfrwt>
<totfact> 0.15093066E+02</totfact>
</mgrwt>
</event>
<event>
 4    1  0.4774032E-002  0.4462404E+03  0.7818608E-02  0.1028849E+00
         21   -1    0    0  503  502  0.00000000000E+00  0.00000000000E+00  0.77768980519E+03  0.77768980519E+03  0.00000000000E+00 0.  1.
         21   -1    0    0  501  503 -0.00000000000E+00 -0.00000000000E+00 -0.29313770797E+03  0.29313770797E+03  0.00000000000E+00 0. -1.
    9000005    1    1    2  501    0 -0.60294119285E+02  0.18840152283E+03  0.51841478236E+02  0.44924164265E+03  0.40000000000E+03 0. -1.
   -9000005    1    1    2    0  502  0.60294119285E+02 -0.18840152283E+03  0.43271061898E+03  0.62158587050E+03  0.40000000000E+03 0. -1.
<mgrwt>
<rscale>  2 0.44624042E+03</rscale>
<asrwt>0</asrwt>
<pdfrwt beam="1">  1       21 0.11964458E+00 0.44624042E+03</pdfrwt>
<pdfrwt beam="2">  1       21 0.45098109E-01 0.44624042E+03</pdfrwt>
<totfact> 0.21663446E+03</totfact>
</mgrwt>
</event>
<event>
 4    1  0.4774032E-002  0.4481870E+03  0.7818608E-02  0.1028264E+00
         21   -1    0    0  501  502  0.00000000000E+00  0.00000000000E+00  0.20582231435E+03  0.20582231435E+03  0.00000000000E+00 0. -1.
         21   -1    0    0  502  503 -0.00000000000E+00 -0.00000000000E+00 -0.12363405280E+04  0.12363405280E+04  0.00000000000E+00 0. -1.
    9000005    1    1    2  501    0 -0.20076687294E+03 -0.23754397223E+02 -0.18433333126E+03  0.48461364577E+03  0.40000000000E+03 0. -1.
   -9000005    1    1    2    0  503  0.20076687294E+03  0.23754397223E+02 -0.84618488234E+03  0.95754919653E+03  0.40000000000E+03 0. -1.
<mgrwt>
<rscale>  2 0.44818702E+03</rscale>
<asrwt>0</asrwt>
<pdfrwt beam="1">  1       21 0.31664972E-01 0.44818702E+03</pdfrwt>
<pdfrwt beam="2">  1       21 0.19020623E+00 0.44818702E+03</pdfrwt>
<totfact> 0.12538707E+03</totfact>
</mgrwt>
</event>
<event>
 4    1  0.4774032E-002  0.4455293E+03  0.7818608E-02  0.1029064E+00
         21   -1    0    0  501  502  0.00000000000E+00  0.00000000000E+00  0.78798803800E+03  0.78798803800E+03  0.00000000000E+00 0.  1.
         21   -1    0    0  502  503 -0.00000000000E+00 -0.00000000000E+00 -0.39714726596E+03  0.39714726596E+03  0.00000000000E+00 0.  1.
    9000005    1    1    2  501    0  0.19606335114E+03 -0.74511254700E+01  0.55377418841E+03  0.71074764065E+03  0.40000000000E+03 0.  1.
   -9000005    1    1    2    0  503 -0.19606335114E+03  0.74511254700E+01 -0.16293341637E+03  0.47438766331E+03  0.40000000000E+03 0.  1.
<mgrwt>
<rscale>  2 0.44552930E+03</rscale>
<asrwt>0</asrwt>
<pdfrwt beam="1">  1       21 0.12122893E+00 0.44552930E+03</pdfrwt>
<pdfrwt beam="2">  1       21 0.61099580E-01 0.44552930E+03</pdfrwt>
<totfact> 0.10927892E+03</totfact>
</mgrwt>
</event>
<event>
 4    1  0.4774032E-002  0.4892978E+03  0.7818608E-02  0.1016611E+00
         21   -1    0    0  503  502  0.00000000000E+00  0.00000000000E+00  0.32715211589E+03  0.32715211589E+03  0.00000000000E+00 0.  1.
         21   -1    0    0  501  503 -0.00000000000E+00 -0.00000000000E+00 -0.74976903072E+03  0.74976903072E+03  0.00000000000E+00 0. -1.
    9000005    1    1    2  501    0 -0.28166370159E+03  0.88238924047E+01 -0.29465055493E+03  0.57116657062E+03  0.40000000000E+03 0.  1.
   -9000005    1    1    2    0  502  0.28166370159E+03 -0.88238924047E+01 -0.12796635991E+03  0.50575457599E+03  0.40000000000E+03 0. -1.
<mgrwt>
<rscale>  2 0.48929776E+03</rscale>
<asrwt>0</asrwt>
<pdfrwt beam="1">  1       21 0.50331095E-01 0.48929776E+03</pdfrwt>
<pdfrwt beam="2">  1       21 0.11534908E+00 0.48929776E+03</pdfrwt>
<totfact> 0.18538125E+03</totfact>
</mgrwt>
</event>
<event>
 4    1  0.4774032E-002  0.4372559E+03  0.7818608E-02  0.1031592E+00
         21   -1    0    0  501  502  0.00000000000E+00  0.00000000000E+00  0.35753646514E+04  0.35753646514E+04  0.00000000000E+00 0. -1.
         21   -1    0    0  502  503 -0.00000000000E+00 -0.00000000000E+00 -0.33401821900E+03  0.33401821900E+03  0.00000000000E+00 0. -1.
    9000005    1    1    2  501    0 -0.24797374194E+02 -0.17486503421E+03  0.34120750144E+04  0.34399779932E+04  0.40000000000E+03 0. -1.
   -9000005    1    1    2    0  503  0.24797374194E+02  0.17486503421E+03 -0.17072858204E+03  0.46940487714E+03  0.40000000000E+03 0. -1.
<mgrwt>
<rscale>  2 0.43725586E+03</rscale>
<asrwt>0</asrwt>
<pdfrwt beam="1">  1       21 0.55005607E+00 0.43725586E+03</pdfrwt>
<pdfrwt beam="2">  1       21 0.51387421E-01 0.43725586E+03</pdfrwt>
<totfact> 0.21003320E+00</totfact>
</mgrwt>
</event>
<event>
 4    1  0.4774032E-002  0.4418936E+03  0.7818608E-02  0.1030167E+00
         21   -1    0    0  503  502  0.00000000000E+00  0.00000000000E+00  0.34966553190E+03  0.34966553190E+03  0.00000000000E+00 0. -1.
         21   -1    0    0  501  503 -0.00000000000E+00 -0.00000000000E+00 -0.64301303423E+03  0.64301303423E+03  0.00000000000E+00 0. -1.
    9000005    1    1    2  501    0 -0.15850200948E+03 -0.10073270316E+03 -0.32667045849E+03  0.54953030212E+03  0.40000000000E+03 0. -1.
   -9000005    1    1    2    0  502  0.15850200948E+03  0.10073270316E+03  0.33322956168E+02  0.44314826402E+03  0.40000000000E+03 0. -1.
<mgrwt>
<rscale>  2 0.44189361E+03</rscale>
<asrwt>0</asrwt>
<pdfrwt beam="1">  1       21 0.53794698E-01 0.44189361E+03</pdfrwt>
<pdfrwt beam="2">  1       21 0.98925081E-01 0.44189361E+03</pdfrwt>
<totfact> 0.23901360E+03</totfact>
</mgrwt>
</event>
<event>
 4    1  0.4774032E-002  0.4340590E+03  0.7818608E-02  0.1032585E+00
         21   -1    0    0  503  502  0.00000000000E+00  0.00000000000E+00  0.17607228418E+04  0.17607228418E+04  0.00000000000E+00 0.  1.
         21   -1    0    0  501  503 -0.00000000000E+00 -0.00000000000E+00 -0.10715183608E+03  0.10715183608E+03  0.00000000000E+00 0.  1.
    9000005    1    1    2  501    0 -0.16854286409E+03 -0.74784670982E+00  0.79228692588E+03  0.90339682821E+03  0.40000000000E+03 0.  1.
   -9000005    1    1    2    0  502  0.16854286409E+03  0.74784670982E+00  0.86128407987E+03  0.96447784969E+03  0.40000000000E+03 0.  1.
<mgrwt>
<rscale>  2 0.43405905E+03</rscale>
<asrwt>0</asrwt>
<pdfrwt beam="1">  1       21 0.27088042E+00 0.43405905E+03</pdfrwt>
<pdfrwt beam="2">  1       21 0.16484899E-01 0.43405905E+03</pdfrwt>
<totfact> 0.13714786E+03</totfact>
</mgrwt>
</event>
<event>
 4    1  0.4774032E-002  0.5350195E+03  0.7818608E-02  0.1005022E+00
         21   -1    0    0  503  502  0.00000000000E+00  0.00000000000E+00  0.72238507821E+03  0.72238507821E+03  0.00000000000E+00 0.  1.
         21   -1    0    0  501  503 -0.00000000000E+00 -0.00000000000E+00 -0.65294255759E+03  0.65294255759E+03  0.00000000000E+00 0.  1.
    9000005    1    1    2  501    0 -0.33923548449E+03 -0.10566514339E+03 -0.39644468059E+03  0.66589355097E+03  0.40000000000E+03 0.  1.
   -9000005    1    1    2    0  502  0.33923548449E+03  0.10566514339E+03  0.46588720121E+03  0.70943408483E+03  0.40000000000E+03 0.  1.
<mgrwt>
<rscale>  2 0.53501947E+03</rscale>
<asrwt>0</asrwt>
<pdfrwt beam="1">  1       21 0.11113617E+00 0.53501947E+03</pdfrwt>
<pdfrwt beam="2">  1       21 0.10045270E+00 0.53501947E+03</pdfrwt>
<totfact> 0.41623505E+02</totfact>
</mgrwt>
</event>
<event>
 4    1  0.4774032E-002  0.1140624E+04  0.7818608E-02  0.9166477E-01
         21   -1    0    0  501  502  0.00000000000E+00  0.00000000000E+00  0.10580021612E+04  0.10580021612E+04  0.00000000000E+00 0.  1.
         21   -1    0    0  502  503 -0.00000000000E+00 -0.00000000000E+00 -0.17354392307E+04  0.17354392307E+04  0.00000000000E+00 0. -1.
    9000005    1    1    2  501    0  0.11989160211E+03 -0.10614377241E+04  0.41527683617E+03  0.12138693872E+04  0.40000000000E+03 0.  1.
   -9000005    1    1    2    0  503 -0.11989160211E+03  0.10614377241E+04 -0.10927139057E+04  0.15795720047E+04  0.40000000000E+03 0. -1.
<mgrwt>
<rscale>  2 0.11406244E+04</rscale>
<asrwt>0</asrwt>
<pdfrwt beam="1">  1       21 0.16276956E+00 0.11406244E+04</pdfrwt>
<pdfrwt beam="2">  1       21 0.26699065E+00 0.11406244E+04</pdfrwt>
<totfact> 0.68934019E+00</totfact>
</mgrwt>
</event>
<event>
 4    1  0.4774032E-002  0.4047238E+03  0.7818608E-02  0.1042156E+00
         21   -1    0    0  503  502  0.00000000000E+00  0.00000000000E+00  0.16085587282E+04  0.16085587282E+04  0.00000000000E+00 0.  1.
         21   -1    0    0  501  503 -0.00000000000E+00 -0.00000000000E+00 -0.12955657348E+03  0.12955657348E+03  0.00000000000E+00 0.  1.
    9000005    1    1    2  501    0 -0.50755239652E+02  0.35004038438E+02  0.33747151040E+03  0.52696147619E+03  0.40000000000E+03 0. -1.
   -9000005    1    1    2    0  502  0.50755239652E+02 -0.35004038438E+02  0.11415306443E+04  0.12111538255E+04  0.40000000000E+03 0. -1.
<mgrwt>
<rscale>  2 0.40472383E+03</rscale>
<asrwt>0</asrwt>
<pdfrwt beam="1">  1       21 0.24747056E+00 0.40472383E+03</pdfrwt>
<pdfrwt beam="2">  1       21 0.19931782E-01 0.40472383E+03</pdfrwt>
<totfact> 0.13517954E+03</totfact>
</mgrwt>
</event>
<event>
 4    1  0.4774032E-002  0.5657466E+03  0.7818608E-02  0.9979135E-01
         21   -1    0    0  503  502  0.00000000000E+00  0.00000000000E+00  0.12923300907E+04  0.12923300907E+04  0.00000000000E+00 0.  1.
         21   -1    0    0  501  503 -0.00000000000E+00 -0.00000000000E+00 -0.29240767924E+03  0.29240767924E+03  0.00000000000E+00 0. -1.
    9000005    1    1    2  501    0 -0.19904270117E+03  0.34706078333E+03  0.80990150623E+03  0.98793199868E+03  0.40000000000E+03 0. -1.
   -9000005    1    1    2    0  502  0.19904270117E+03 -0.34706078333E+03  0.19002090527E+03  0.59680577130E+03  0.40000000000E+03 0.  1.
<mgrwt>
<rscale>  2 0.56574657E+03</rscale>
<asrwt>0</asrwt>
<pdfrwt beam="1">  1       21 0.19882001E+00 0.56574657E+03</pdfrwt>
<pdfrwt beam="2">  1       21 0.44985797E-01 0.56574657E+03</pdfrwt>
<totfact> 0.50828697E+02</totfact>
</mgrwt>
</event>
<event>
 4    1  0.4774032E-002  0.4314671E+03  0.7818608E-02  0.1033398E+00
         21   -1    0    0  501  502  0.00000000000E+00  0.00000000000E+00  0.19413532809E+04  0.19413532809E+04  0.00000000000E+00 0.  1.
         21   -1    0    0  502  503 -0.00000000000E+00 -0.00000000000E+00 -0.11418504036E+03  0.11418504036E+03  0.00000000000E+00 0.  1.
    9000005    1    1    2  501    0 -0.14461585205E+03 -0.72457908195E+02  0.13249342504E+04  0.13934183367E+04  0.40000000000E+03 0.  1.
   -9000005    1    1    2    0  503  0.14461585205E+03  0.72457908195E+02  0.50223399011E+03  0.66211998455E+03  0.40000000000E+03 0.  1.
<mgrwt>
<rscale>  2 0.43146714E+03</rscale>
<asrwt>0</asrwt>
<pdfrwt beam="1">  1       21 0.29866971E+00 0.43146714E+03</pdfrwt>
<pdfrwt beam="2">  1       21 0.17566931E-01 0.43146714E+03</pdfrwt>
<totfact> 0.82981604E+02</totfact>
</mgrwt>
</event>
<event>
 4    1  0.4774032E-002  0.5143940E+03  0.7818608E-02  0.1010089E+00
         21   -1    0    0  501  502  0.00000000000E+00  0.00000000000E+00  0.79531767641E+03  0.79531767641E+03  0.00000000000E+00 0. -1.
         21   -1    0    0  502  503 -0.00000000000E+00 -0.00000000000E+00 -0.33314722300E+03  0.33314722300E+03  0.00000000000E+00 0. -1.
    9000005    1    1    2  501    0  0.22039621781E+03  0.23669949057E+03  0.21038182646E+03  0.55575323172E+03  0.40000000000E+03 0.  1.
   -9000005    1    1    2    0  503 -0.22039621781E+03 -0.23669949057E+03  0.25178862695E+03  0.57271166770E+03  0.40000000000E+03 0.  1.
<mgrwt>
<rscale>  2 0.51439396E+03</rscale>
<asrwt>0</asrwt>
<pdfrwt beam="1">  1       21 0.12235656E+00 0.51439396E+03</pdfrwt>
<pdfrwt beam="2">  1       21 0.51253419E-01 0.51439396E+03</pdfrwt>
<totfact> 0.15219532E+03</totfact>
</mgrwt>
</event>
<event>
 4    1  0.4774032E-002  0.4516314E+03  0.7818608E-02  0.1027237E+00
         21   -1    0    0  501  502  0.00000000000E+00  0.00000000000E+00  0.26148269840E+03  0.26148269840E+03  0.00000000000E+00 0. -1.
         21   -1    0    0  502  503 -0.00000000000E+00 -0.00000000000E+00 -0.98094048946E+03  0.98094048946E+03  0.00000000000E+00 0.  1.
    9000005    1    1    2  501    0 -0.19651939178E+03 -0.73150820825E+02 -0.78608476426E+02  0.45842142892E+03  0.40000000000E+03 0. -1.
   -9000005    1    1    2    0  503  0.19651939178E+03  0.73150820825E+02 -0.64084931464E+03  0.78400175893E+03  0.40000000000E+03 0.  1.
<mgrwt>
<rscale>  2 0.45163139E+03</rscale>
<asrwt>0</asrwt>
<pdfrwt beam="1">  1       21 0.40228107E-01 0.45163139E+03</pdfrwt>
<pdfrwt beam="2">  1       21 0.15091392E+00 0.45163139E+03</pdfrwt>
<totfact> 0.14898963E+03</totfact>
</mgrwt>
</event>
<event>
 4    1  0.4774032E-002  0.4456953E+03  0.7818608E-02  0.1029014E+00
         21   -1    0    0  501  502  0.00000000000E+00  0.00000000000E+00  0.35010557166E+03  0.35010557166E+03  0.00000000000E+00 0.  1.
         21   -1    0    0  502  503 -0.00000000000E+00 -0.00000000000E+00 -0.10804110999E+04  0.10804110999E+04  0.00000000000E+00 0.  1.
    9000005    1    1    2  501    0 -0.19562003271E+03 -0.19419776940E+02  0.12772421274E+03  0.46363541653E+03  0.40000000000E+03 0.  1.
   -9000005    1    1    2    0  503  0.19562003271E+03  0.19419776940E+02 -0.85802974096E+03  0.96688125502E+03  0.40000000000E+03 0.  1.
<mgrwt>
<rscale>  2 0.44569533E+03</rscale>
<asrwt>0</asrwt>
<pdfrwt beam="1">  1       21 0.53862396E-01 0.44569533E+03</pdfrwt>
<pdfrwt beam="2">  1       21 0.16621709E+00 0.44569533E+03</pdfrwt>
<totfact> 0.61812001E+02</totfact>
</mgrwt>
</event>
<event>
 4    1  0.4774032E-002  0.4408061E+03  0.7818608E-02  0.1030500E+00
         21   -1    0    0  501  502  0.00000000000E+00  0.00000000000E+00  0.75756642493E+03  0.75756642493E+03  0.00000000000E+00 0.  1.
         21   -1    0    0  502  503 -0.00000000000E+00 -0.00000000000E+00 -0.33200057188E+03  0.33200057188E+03  0.00000000000E+00 0.  1.
    9000005    1    1    2  501    0 -0.11403503464E+03 -0.14596595168E+03  0.47259028005E+03  0.64625971634E+03  0.40000000000E+03 0.  1.
   -9000005    1    1    2    0  503  0.11403503464E+03  0.14596595168E+03 -0.47024426994E+02  0.44330728046E+03  0.40000000000E+03 0.  1.
<mgrwt>
<rscale>  2 0.44080613E+03</rscale>
<asrwt>0</asrwt>
<pdfrwt beam="1">  1       21 0.11654868E+00 0.44080613E+03</pdfrwt>
<pdfrwt beam="2">  1       21 0.51077011E-01 0.44080613E+03</pdfrwt>
<totfact> 0.17827120E+03</totfact>
</mgrwt>
</event>
<event>
 4    1  0.4774032E-002  0.4373248E+03  0.7818608E-02  0.1031571E+00
         21   -1    0    0  501  502  0.00000000000E+00  0.00000000000E+00  0.35887332179E+03  0.35887332179E+03  0.00000000000E+00 0. -1.
         21   -1    0    0  502  503 -0.00000000000E+00 -0.00000000000E+00 -0.55288514207E+03  0.55288514207E+03  0.00000000000E+00 0. -1.
    9000005    1    1    2  501    0  0.17417824710E+03  0.30248088414E+02 -0.18362242684E+03  0.47431024051E+03  0.40000000000E+03 0. -1.
   -9000005    1    1    2    0  503 -0.17417824710E+03 -0.30248088414E+02 -0.10389393445E+02  0.43744822335E+03  0.40000000000E+03 0. -1.
<mgrwt>
<rscale>  2 0.43732483E+03</rscale>
<asrwt>0</asrwt>
<pdfrwt beam="1">  1       21 0.55211280E-01 0.43732483E+03</pdfrwt>
<pdfrwt beam="2">  1       21 0.85059253E-01 0.43732483E+03</pdfrwt>
<totfact> 0.32415432E+03</totfact>
</mgrwt>
</event>
<event>
 4    1  0.4774032E-002  0.5113195E+03  0.7818608E-02  0.1010866E+00
         21   -1    0    0  501  502  0.00000000000E+00  0.00000000000E+00  0.22185910837E+04  0.22185910837E+04  0.00000000000E+00 0. -1.
         21   -1    0    0  502  503 -0.00000000000E+00 -0.00000000000E+00 -0.35588046937E+03  0.35588046937E+03  0.00000000000E+00 0. -1.
    9000005    1    1    2  501    0 -0.26833654572E+03  0.17159005634E+03  0.19841114248E+04  0.20489377236E+04  0.40000000000E+03 0. -1.
   -9000005    1    1    2    0  503  0.26833654572E+03 -0.17159005634E+03 -0.12140081041E+03  0.52553382952E+03  0.40000000000E+03 0. -1.
<mgrwt>
<rscale>  2 0.51131952E+03</rscale>
<asrwt>0</asrwt>
<pdfrwt beam="1">  1       21 0.34132170E+00 0.51131952E+03</pdfrwt>
<pdfrwt beam="2">  1       21 0.54750843E-01 0.51131952E+03</pdfrwt>
<totfact> 0.44711813E+01</totfact>
</mgrwt>
</event>
<event>
 4    1  0.4774032E-002  0.5221378E+03  0.7818608E-02  0.1008157E+00
         21   -1    0    0  501  502  0.00000000000E+00  0.00000000000E+00  0.57946439941E+03  0.57946439941E+03  0.00000000000E+00 0.  1.
         21   -1    0    0  502  503 -0.00000000000E+00 -0.00000000000E+00 -0.47513292422E+03  0.47513292422E+03  0.00000000000E+00 0.  1.
    9000005    1    1    2  501    0 -0.13973572384E+03  0.30512596735E+03  0.10433201162E+03  0.53245947932E+03  0.40000000000E+03 0.  1.
   -9000005    1    1    2    0  503  0.13973572384E+03 -0.30512596735E+03 -0.53643597790E-03  0.52213784432E+03  0.40000000000E+03 0.  1.
<mgrwt>
<rscale>  2 0.52213784E+03</rscale>
<asrwt>0</asrwt>
<pdfrwt beam="1">  1       21 0.89148369E-01 0.52213784E+03</pdfrwt>
<pdfrwt beam="2">  1       21 0.73097373E-01 0.52213784E+03</pdfrwt>
<totfact> 0.15127041E+03</totfact>
</mgrwt>
</event>
<event>
 4    1  0.4774032E-002  0.4847144E+03  0.7818608E-02  0.1017848E+00
         21   -1    0    0  503  502  0.00000000000E+00  0.00000000000E+00  0.36317240607E+03  0.36317240607E+03  0.00000000000E+00 0. -1.
         21   -1    0    0  501  503 -0.00000000000E+00 -0.00000000000E+00 -0.11231045113E+04  0.11231045113E+04  0.00000000000E+00 0. -1.
    9000005    1    1    2  501    0  0.12572110250E+03 -0.24319172665E+03 -0.86385044058E+03  0.99054812867E+03  0.40000000000E+03 0. -1.
   -9000005    1    1    2    0  502 -0.12572110250E+03  0.24319172665E+03  0.10391833535E+03  0.49572878870E+03  0.40000000000E+03 0. -1.
<mgrwt>
<rscale>  2 0.48471436E+03</rscale>
<asrwt>0</asrwt>
<pdfrwt beam="1">  1       21 0.55872679E-01 0.48471436E+03</pdfrwt>
<pdfrwt beam="2">  1       21 0.17278531E+00 0.48471436E+03</pdfrwt>
<totfact> 0.50243856E+02</totfact>
</mgrwt>
</event>
<event>
 4    1  0.4774032E-002  0.5256056E+03  0.7818608E-02  0.1007303E+00
         21   -1    0    0  503  502  0.00000000000E+00  0.00000000000E+00  0.46995554435E+03  0.46995554435E+03  0.00000000000E+00 0. -1.
         21   -1    0    0  501  503 -0.00000000000E+00 -0.00000000000E+00 -0.59955753668E+03  0.59955753668E+03  0.00000000000E+00 0.  1.
    9000005    1    1    2  501    0 -0.27497378162E+03  0.20162008962E+03  0.99397296118E+01  0.52569957138E+03  0.40000000000E+03 0.  1.
   -9000005    1    1    2    0  502  0.27497378162E+03 -0.20162008962E+03 -0.13954172194E+03  0.54381350966E+03  0.40000000000E+03 0. -1.
<mgrwt>
<rscale>  2 0.52560559E+03</rscale>
<asrwt>0</asrwt>
<pdfrwt beam="1">  1       21 0.72300853E-01 0.52560559E+03</pdfrwt>
<pdfrwt beam="2">  1       21 0.92239621E-01 0.52560559E+03</pdfrwt>
<totfact> 0.14283328E+03</totfact>
</mgrwt>
</event>
<event>
 4    1  0.4774032E-002  0.4739040E+03  0.7818608E-02  0.1020824E+00
         21   -1    0    0  503  502  0.00000000000E+00  0.00000000000E+00  0.16747352249E+04  0.16747352249E+04  0.00000000000E+00 0.  1.
         21   -1    0    0  501  503 -0.00000000000E+00 -0.00000000000E+00 -0.21667709267E+03  0.21667709267E+03  0.00000000000E+00 0.  1.
    9000005    1    1    2  501    0  0.16750435909E+02  0.25358308393E+03  0.14521459220E+03  0.49565334191E+03  0.40000000000E+03 0.  1.
   -9000005    1    1    2    0  502 -0.16750435909E+02 -0.25358308393E+03  0.13128435400E+04  0.13957589757E+04  0.40000000000E+03 0.  1.
<mgrwt>
<rscale>  2 0.47390395E+03</rscale>
<asrwt>0</asrwt>
<pdfrwt beam="1">  1       21 0.25765157E+00 0.47390395E+03</pdfrwt>
<pdfrwt beam="2">  1       21 0.33334938E-01 0.47390395E+03</pdfrwt>
<totfact> 0.41351138E+02</totfact>
</mgrwt>
</event>
<event>
 4    1  0.4774032E-002  0.4075911E+03  0.7818608E-02  0.1041182E+00
         21   -1    0    0  501  502  0.00000000000E+00  0.00000000000E+00  0.22308226731E+03  0.22308226731E+03  0.00000000000E+00 0. -1.
         21   -1    0    0  502  503 -0.00000000000E+00 -0.00000000000E+00 -0.99232023933E+03  0.99232023933E+03  0.00000000000E+00 0. -1.
    9000005    1    1    2  501    0  0.52111685945E+02  0.58436732725E+02 -0.81053150010E+02  0.41557200660E+03  0.40000000000E+03 0. -1.
   -9000005    1    1    2    0  503 -0.52111685945E+02 -0.58436732725E+02 -0.68818482201E+03  0.79983050004E+03  0.40000000000E+03 0. -1.
<mgrwt>
<rscale>  2 0.40759107E+03</rscale>
<asrwt>0</asrwt>
<pdfrwt beam="1">  1       21 0.34320349E-01 0.40759107E+03</pdfrwt>
<pdfrwt beam="2">  1       21 0.15266465E+00 0.40759107E+03</pdfrwt>
<totfact> 0.20330428E+03</totfact>
</mgrwt>
</event>
<event>
 4    1  0.4774032E-002  0.4860035E+03  0.7818608E-02  0.1017498E+00
         21   -1    0    0  503  502  0.00000000000E+00  0.00000000000E+00  0.37004836486E+03  0.37004836486E+03  0.00000000000E+00 0.  1.
         21   -1    0    0  501  503 -0.00000000000E+00 -0.00000000000E+00 -0.67391594360E+03  0.67391594360E+03  0.00000000000E+00 0. -1.
    9000005    1    1    2  501    0  0.13496479481E+03  0.24079841004E+03 -0.31924124561E+02  0.48705083908E+03  0.40000000000E+03 0.  1.
   -9000005    1    1    2    0  502 -0.13496479481E+03 -0.24079841004E+03 -0.27194345418E+03  0.55691346939E+03  0.40000000000E+03 0. -1.
<mgrwt>
<rscale>  2 0.48600347E+03</rscale>
<asrwt>0</asrwt>
<pdfrwt beam="1">  1       21 0.56930518E-01 0.48600347E+03</pdfrwt>
<pdfrwt beam="2">  1       21 0.10367937E+00 0.48600347E+03</pdfrwt>
<totfact> 0.18553557E+03</totfact>
</mgrwt>
</event>
<event>
 4    1  0.4774032E-002  0.4542719E+03  0.7818608E-02  0.1026456E+00
         21   -1    0    0  503  502  0.00000000000E+00  0.00000000000E+00  0.10676191835E+04  0.10676191835E+04  0.00000000000E+00 0.  1.
         21   -1    0    0  501  503 -0.00000000000E+00 -0.00000000000E+00 -0.41579077884E+03  0.41579077884E+03  0.00000000000E+00 0.  1.
    9000005    1    1    2  501    0  0.56038760771E+02 -0.20790054866E+03 -0.21665721841E+03  0.50329249064E+03  0.40000000000E+03 0.  1.
   -9000005    1    1    2    0  502 -0.56038760771E+02  0.20790054866E+03  0.86848562305E+03  0.98011747168E+03  0.40000000000E+03 0.  1.
<mgrwt>
<rscale>  2 0.45427192E+03</rscale>
<asrwt>0</asrwt>
<pdfrwt beam="1">  1       21 0.16424910E+00 0.45427192E+03</pdfrwt>
<pdfrwt beam="2">  1       21 0.63967812E-01 0.45427192E+03</pdfrwt>
<totfact> 0.43737256E+02</totfact>
</mgrwt>
</event>
<event>
 4    1  0.4774032E-002  0.6578449E+03  0.7818608E-02  0.9792169E-01
         21   -1    0    0  503  502  0.00000000000E+00  0.00000000000E+00  0.45979896347E+03  0.45979896347E+03  0.00000000000E+00 0. -1.
         21   -1    0    0  501  503 -0.00000000000E+00 -0.00000000000E+00 -0.13596884536E+04  0.13596884536E+04  0.00000000000E+00 0. -1.
    9000005    1    1    2  501    0 -0.37286075510E+03  0.36569759049E+03 -0.95465762118E+03  0.11593666564E+04  0.40000000000E+03 0. -1.
   -9000005    1    1    2    0  502  0.37286075510E+03 -0.36569759049E+03  0.54768131099E+02  0.66012076059E+03  0.40000000000E+03 0. -1.
<mgrwt>
<rscale>  2 0.65784487E+03</rscale>
<asrwt>0</asrwt>
<pdfrwt beam="1">  1       21 0.70738302E-01 0.65784487E+03</pdfrwt>
<pdfrwt beam="2">  1       21 0.20918284E+00 0.65784487E+03</pdfrwt>
<totfact> 0.15569771E+02</totfact>
</mgrwt>
</event>
<event>
 4    1  0.4774032E-002  0.4092709E+03  0.7818608E-02  0.1040616E+00
         21   -1    0    0  501  502  0.00000000000E+00  0.00000000000E+00  0.18926618546E+04  0.18926618546E+04  0.00000000000E+00 0.  1.
         21   -1    0    0  502  503 -0.00000000000E+00 -0.00000000000E+00 -0.88994249335E+02  0.88994249335E+02  0.00000000000E+00 0.  1.
    9000005    1    1    2  501    0  0.41790641590E+02 -0.75869724052E+02  0.97559070407E+03  0.10579602519E+04  0.40000000000E+03 0. -1.
   -9000005    1    1    2    0  503 -0.41790641590E+02  0.75869724052E+02  0.82807690116E+03  0.92369585199E+03  0.40000000000E+03 0. -1.
<mgrwt>
<rscale>  2 0.40927090E+03</rscale>
<asrwt>0</asrwt>
<pdfrwt beam="1">  1       21 0.29117872E+00 0.40927090E+03</pdfrwt>
<pdfrwt beam="2">  1       21 0.13691424E-01 0.40927090E+03</pdfrwt>
<totfact> 0.14804049E+03</totfact>
</mgrwt>
</event>
<event>
 4    1  0.4774032E-002  0.4904164E+03  0.7818608E-02  0.1016311E+00
         21   -1    0    0  501  502  0.00000000000E+00  0.00000000000E+00  0.39725956714E+03  0.39725956714E+03  0.00000000000E+00 0.  1.
         21   -1    0    0  502  503 -0.00000000000E+00 -0.00000000000E+00 -0.62290851759E+03  0.62290851759E+03  0.00000000000E+00 0. -1.
    9000005    1    1    2  501    0  0.14395579513E+03  0.24450958585E+03 -0.19829715311E+03  0.52898957406E+03  0.40000000000E+03 0. -1.
   -9000005    1    1    2    0  503 -0.14395579513E+03 -0.24450958585E+03 -0.27351797333E+02  0.49117851067E+03  0.40000000000E+03 0.  1.
<mgrwt>
<rscale>  2 0.49041636E+03</rscale>
<asrwt>0</asrwt>
<pdfrwt beam="1">  1       21 0.61116856E-01 0.49041636E+03</pdfrwt>
<pdfrwt beam="2">  1       21 0.95832080E-01 0.49041636E+03</pdfrwt>
<totfact> 0.19207296E+03</totfact>
</mgrwt>
</event>
<event>
 4    1  0.4774032E-002  0.7282238E+03  0.7818608E-02  0.9670147E-01
         21   -1    0    0  503  502  0.00000000000E+00  0.00000000000E+00  0.11970037601E+04  0.11970037601E+04  0.00000000000E+00 0. -1.
         21   -1    0    0  501  503 -0.00000000000E+00 -0.00000000000E+00 -0.56849100637E+03  0.56849100637E+03  0.00000000000E+00 0.  1.
    9000005    1    1    2  501    0  0.10308541840E+03 -0.59973602953E+03 -0.10043699685E+03  0.73511733685E+03  0.40000000000E+03 0. -1.
   -9000005    1    1    2    0  502 -0.10308541840E+03  0.59973602953E+03  0.72894975059E+03  0.10303774296E+04  0.40000000000E+03 0. -1.
<mgrwt>
<rscale>  2 0.72822380E+03</rscale>
<asrwt>0</asrwt>
<pdfrwt beam="1">  1       21 0.18415442E+00 0.72822380E+03</pdfrwt>
<pdfrwt beam="2">  1       21 0.87460155E-01 0.72822380E+03</pdfrwt>
<totfact> 0.13760717E+02</totfact>
</mgrwt>
</event>
<event>
 4    1  0.4774032E-002  0.4708804E+03  0.7818608E-02  0.1021672E+00
         21   -1    0    0  503  502  0.00000000000E+00  0.00000000000E+00  0.50084113559E+03  0.50084113559E+03  0.00000000000E+00 0.  1.
         21   -1    0    0  501  503 -0.00000000000E+00 -0.00000000000E+00 -0.80687676501E+03  0.80687676501E+03  0.00000000000E+00 0. -1.
    9000005    1    1    2  501    0 -0.16226623888E+03 -0.18814350669E+03 -0.59228575966E+03  0.75665760584E+03  0.40000000000E+03 0. -1.
   -9000005    1    1    2    0  502  0.16226623888E+03  0.18814350669E+03  0.28625013024E+03  0.55106029475E+03  0.40000000000E+03 0.  1.
<mgrwt>
<rscale>  2 0.47088036E+03</rscale>
<asrwt>0</asrwt>
<pdfrwt beam="1">  1       21 0.77052483E-01 0.47088036E+03</pdfrwt>
<pdfrwt beam="2">  1       21 0.12413489E+00 0.47088036E+03</pdfrwt>
<totfact> 0.60438167E+02</totfact>
</mgrwt>
</event>
<event>
 4    1  0.4774032E-002  0.4208008E+03  0.7818608E-02  0.1036806E+00
         21   -1    0    0  501  502  0.00000000000E+00  0.00000000000E+00  0.39869166778E+03  0.39869166778E+03  0.00000000000E+00 0. -1.
         21   -1    0    0  502  503 -0.00000000000E+00 -0.00000000000E+00 -0.44816251120E+03  0.44816251120E+03  0.00000000000E+00 0. -1.
    9000005    1    1    2  501    0  0.10603027069E+03 -0.76360051944E+02 -0.64871196661E+02  0.42577170877E+03  0.40000000000E+03 0.  1.
   -9000005    1    1    2    0  503 -0.10603027069E+03  0.76360051944E+02  0.15400353249E+02  0.42108247021E+03  0.40000000000E+03 0.  1.
<mgrwt>
<rscale>  2 0.42080076E+03</rscale>
<asrwt>0</asrwt>
<pdfrwt beam="1">  1       21 0.61337180E-01 0.42080076E+03</pdfrwt>
<pdfrwt beam="2">  1       21 0.68948078E-01 0.42080076E+03</pdfrwt>
<totfact> 0.41931228E+03</totfact>
</mgrwt>
</event>
<event>
 4    1  0.4774032E-002  0.4083854E+03  0.7818608E-02  0.1040914E+00
         21   -1    0    0  501  502  0.00000000000E+00  0.00000000000E+00  0.21613034622E+03  0.21613034622E+03  0.00000000000E+00 0.  1.
         21   -1    0    0  502  503 -0.00000000000E+00 -0.00000000000E+00 -0.88782281925E+03  0.88782281925E+03  0.00000000000E+00 0.  1.
    9000005    1    1    2  501    0  0.65866812323E+02 -0.49398640541E+02 -0.13618432349E+03  0.43049370799E+03  0.40000000000E+03 0. -1.
   -9000005    1    1    2    0  503 -0.65866812323E+02  0.49398640541E+02 -0.53550814954E+03  0.67345945749E+03  0.40000000000E+03 0. -1.
<mgrwt>
<rscale>  2 0.40838543E+03</rscale>
<asrwt>0</asrwt>
<pdfrwt beam="1">  1       21 0.33250822E-01 0.40838543E+03</pdfrwt>
<pdfrwt beam="2">  1       21 0.13658813E+00 0.40838543E+03</pdfrwt>
<totfact> 0.29175083E+03</totfact>
</mgrwt>
</event>
<event>
 4    1  0.4774032E-002  0.4120734E+03  0.7818608E-02  0.1039677E+00
         21   -1    0    0  501  502  0.00000000000E+00  0.00000000000E+00  0.10993930400E+04  0.10993930400E+04  0.00000000000E+00 0.  1.
         21   -1    0    0  502  503 -0.00000000000E+00 -0.00000000000E+00 -0.15871255719E+03  0.15871255719E+03  0.00000000000E+00 0. -1.
    9000005    1    1    2  501    0 -0.75516288380E+02  0.64045327474E+02  0.57339439693E+03  0.70610597520E+03  0.40000000000E+03 0. -1.
   -9000005    1    1    2    0  503  0.75516288380E+02 -0.64045327474E+02  0.36728608586E+03  0.55199962196E+03  0.40000000000E+03 0. -1.
<mgrwt>
<rscale>  2 0.41207343E+03</rscale>
<asrwt>0</asrwt>
<pdfrwt beam="1">  1       21 0.16913739E+00 0.41207343E+03</pdfrwt>
<pdfrwt beam="2">  1       21 0.24417317E-01 0.41207343E+03</pdfrwt>
<totfact> 0.29896635E+03</totfact>
</mgrwt>
</event>
<event>
 4    1  0.4774032E-002  0.4165770E+03  0.7818608E-02  0.1038186E+00
         21   -1    0    0  501  502  0.00000000000E+00  0.00000000000E+00  0.42569747830E+03  0.42569747830E+03  0.00000000000E+00 0. -1.
         21   -1    0    0  502  503 -0.00000000000E+00 -0.00000000000E+00 -0.54522471707E+03  0.54522471707E+03  0.00000000000E+00 0.  1.
    9000005    1    1    2  501    0 -0.98592444506E+02 -0.61773033946E+02  0.18409213628E+03  0.45544076725E+03  0.40000000000E+03 0. -1.
   -9000005    1    1    2    0  503  0.98592444506E+02  0.61773033946E+02 -0.30361937505E+03  0.51548142812E+03  0.40000000000E+03 0.  1.
<mgrwt>
<rscale>  2 0.41657698E+03</rscale>
<asrwt>0</asrwt>
<pdfrwt beam="1">  1       21 0.65491920E-01 0.41657698E+03</pdfrwt>
<pdfrwt beam="2">  1       21 0.83880725E-01 0.41657698E+03</pdfrwt>
<totfact> 0.23221513E+03</totfact>
</mgrwt>
</event>
<event>
 4    1  0.4774032E-002  0.4122435E+03  0.7818608E-02  0.1039621E+00
         21   -1    0    0  503  502  0.00000000000E+00  0.00000000000E+00  0.79043238230E+03  0.79043238230E+03  0.00000000000E+00 0. -1.
         21   -1    0    0  501  503 -0.00000000000E+00 -0.00000000000E+00 -0.23718818942E+03  0.23718818942E+03  0.00000000000E+00 0.  1.
    9000005    1    1    2  501    0  0.98207185454E+02  0.17321209646E+02  0.11947875578E+03  0.42920839771E+03  0.40000000000E+03 0.  1.
   -9000005    1    1    2    0  502 -0.98207185454E+02 -0.17321209646E+02  0.43376543711E+03  0.59841217401E+03  0.40000000000E+03 0. -1.
<mgrwt>
<rscale>  2 0.41224347E+03</rscale>
<asrwt>0</asrwt>
<pdfrwt beam="1">  1       21 0.12160498E+00 0.41224347E+03</pdfrwt>
<pdfrwt beam="2">  1       21 0.36490491E-01 0.41224347E+03</pdfrwt>
<totfact> 0.32594815E+03</totfact>
</mgrwt>
</event>
<event>
 4    1  0.4774032E-002  0.4329784E+03  0.7818608E-02  0.1032923E+00
         21   -1    0    0  501  502  0.00000000000E+00  0.00000000000E+00  0.34417446119E+03  0.34417446119E+03  0.00000000000E+00 0.  1.
         21   -1    0    0  502  503 -0.00000000000E+00 -0.00000000000E+00 -0.19201319784E+04  0.19201319784E+04  0.00000000000E+00 0. -1.
    9000005    1    1    2  501    0  0.98388530451E+02  0.13337911293E+03  0.17022954505E+03  0.46524014089E+03  0.40000000000E+03 0.  1.
   -9000005    1    1    2    0  503 -0.98388530451E+02 -0.13337911293E+03 -0.17461870623E+04  0.17990662987E+04  0.40000000000E+03 0. -1.
<mgrwt>
<rscale>  2 0.43297840E+03</rscale>
<asrwt>0</asrwt>
<pdfrwt beam="1">  1       21 0.52949919E-01 0.43297840E+03</pdfrwt>
<pdfrwt beam="2">  1       21 0.29540491E+00 0.43297840E+03</pdfrwt>
<totfact> 0.95854767E+01</totfact>
</mgrwt>
</event>
<event>
 4    1  0.4774032E-002  0.4039316E+03  0.7818608E-02  0.1042427E+00
         21   -1    0    0  503  502  0.00000000000E+00  0.00000000000E+00  0.22982299509E+04  0.22982299509E+04  0.00000000000E+00 0.  1.
         21   -1    0    0  501  503 -0.00000000000E+00 -0.00000000000E+00 -0.75326201338E+02  0.75326201338E+02  0.00000000000E+00 0.  1.
    9000005    1    1    2  501    0 -0.21771546668E+02  0.51833916424E+02  0.82684456982E+03  0.92023513179E+03  0.40000000000E+03 0.  1.
   -9000005    1    1    2    0  502  0.21771546668E+02 -0.51833916424E+02  0.13960591797E+04  0.14533210204E+04  0.40000000000E+03 0.  1.
<mgrwt>
<rscale>  2 0.40393162E+03</rscale>
<asrwt>0</asrwt>
<pdfrwt beam="1">  1       21 0.35357378E+00 0.40393162E+03</pdfrwt>
<pdfrwt beam="2">  1       21 0.11588648E-01 0.40393162E+03</pdfrwt>
<totfact> 0.84695340E+02</totfact>
</mgrwt>
</event>
<event>
 4    1  0.4774032E-002  0.1578185E+04  0.7818608E-02  0.8834063E-01
         21   -1    0    0  503  502  0.00000000000E+00  0.00000000000E+00  0.97858702983E+03  0.97858702983E+03  0.00000000000E+00 0.  1.
         21   -1    0    0  501  503 -0.00000000000E+00 -0.00000000000E+00 -0.31939258020E+04  0.31939258020E+04  0.00000000000E+00 0. -1.
    9000005    1    1    2  501    0 -0.28913838801E+03 -0.14990218602E+04 -0.20479270048E+04  0.25854733728E+04  0.40000000000E+03 0.  1.
   -9000005    1    1    2    0  502  0.28913838801E+03  0.14990218602E+04 -0.16741176744E+03  0.15870394591E+04  0.40000000000E+03 0. -1.
<mgrwt>
<rscale>  2 0.15781849E+04</rscale>
<asrwt>0</asrwt>
<pdfrwt beam="1">  1       21 0.15055185E+00 0.15781849E+04</pdfrwt>
<pdfrwt beam="2">  1       21 0.49137320E+00 0.15781849E+04</pdfrwt>
<totfact> 0.25731886E-01</totfact>
</mgrwt>
</event>
<event>
 4    1  0.4774032E-002  0.4582082E+03  0.7818608E-02  0.1025302E+00
         21   -1    0    0  503  502  0.00000000000E+00  0.00000000000E+00  0.10923446149E+04  0.10923446149E+04  0.00000000000E+00 0. -1.
         21   -1    0    0  501  503 -0.00000000000E+00 -0.00000000000E+00 -0.19236341702E+03  0.19236341702E+03  0.00000000000E+00 0. -1.
    9000005    1    1    2  501    0 -0.21920424266E+03  0.43637289517E+02  0.43158968740E+03  0.62946355836E+03  0.40000000000E+03 0. -1.
   -9000005    1    1    2    0  502  0.21920424266E+03 -0.43637289517E+02  0.46839151049E+03  0.65524447356E+03  0.40000000000E+03 0. -1.
<mgrwt>
<rscale>  2 0.45820815E+03</rscale>
<asrwt>0</asrwt>
<pdfrwt beam="1">  1       21 0.16805301E+00 0.45820815E+03</pdfrwt>
<pdfrwt beam="2">  1       21 0.29594372E-01 0.45820815E+03</pdfrwt>
<totfact> 0.20493353E+03</totfact>
</mgrwt>
</event>
<event>
 4    1  0.4774032E-002  0.4016535E+03  0.7818608E-02  0.1043209E+00
         21   -1    0    0  501  502  0.00000000000E+00  0.00000000000E+00  0.16346902950E+03  0.16346902950E+03  0.00000000000E+00 0. -1.
         21   -1    0    0  502  503 -0.00000000000E+00 -0.00000000000E+00 -0.12252871837E+04  0.12252871837E+04  0.00000000000E+00 0. -1.
    9000005    1    1    2  501    0  0.10851122675E+02 -0.34753615440E+02 -0.22462120086E+03  0.46019587626E+03  0.40000000000E+03 0. -1.
   -9000005    1    1    2    0  503 -0.10851122675E+02  0.34753615440E+02 -0.83719695335E+03  0.92856033695E+03  0.40000000000E+03 0. -1.
<mgrwt>
<rscale>  2 0.40165353E+03</rscale>
<asrwt>0</asrwt>
<pdfrwt beam="1">  1       21 0.25149080E-01 0.40165353E+03</pdfrwt>
<pdfrwt beam="2">  1       21 0.18850573E+00 0.40165353E+03</pdfrwt>
<totfact> 0.20713205E+03</totfact>
</mgrwt>
</event>
<event>
 4    1  0.4774032E-002  0.4345700E+03  0.7818608E-02  0.1032426E+00
         21   -1    0    0  501  502  0.00000000000E+00  0.00000000000E+00  0.11041399977E+04  0.11041399977E+04  0.00000000000E+00 0. -1.
         21   -1    0    0  502  503 -0.00000000000E+00 -0.00000000000E+00 -0.17633761841E+03  0.17633761841E+03  0.00000000000E+00 0.  1.
    9000005    1    1    2  501    0 -0.61681517507E+02 -0.15826081418E+03  0.35292051789E+03  0.55982496091E+03  0.40000000000E+03 0.  1.
   -9000005    1    1    2    0  503  0.61681517507E+02  0.15826081418E+03  0.57488186143E+03  0.72065265524E+03  0.40000000000E+03 0.  1.
<mgrwt>
<rscale>  2 0.43457001E+03</rscale>
<asrwt>0</asrwt>
<pdfrwt beam="1">  1       21 0.16986769E+00 0.43457001E+03</pdfrwt>
<pdfrwt beam="2">  1       21 0.27128865E-01 0.43457001E+03</pdfrwt>
<totfact> 0.23828434E+03</totfact>
</mgrwt>
</event>
<event>
 4    1  0.4774032E-002  0.5371545E+03  0.7818608E-02  0.1004512E+00
         21   -1    0    0  501  502  0.00000000000E+00  0.00000000000E+00  0.58176202579E+03  0.58176202579E+03  0.00000000000E+00 0. -1.
         21   -1    0    0  502  503 -0.00000000000E+00 -0.00000000000E+00 -0.49693186486E+03  0.49693186486E+03  0.00000000000E+00 0.  1.
    9000005    1    1    2  501    0  0.27303161558E+03  0.23235467446E+03  0.18653295334E+02  0.53747828168E+03  0.40000000000E+03 0.  1.
   -9000005    1    1    2    0  503 -0.27303161558E+03 -0.23235467446E+03  0.66176865595E+02  0.54121560897E+03  0.40000000000E+03 0. -1.
<mgrwt>
<rscale>  2 0.53715450E+03</rscale>
<asrwt>0</asrwt>
<pdfrwt beam="1">  1       21 0.89501850E-01 0.53715450E+03</pdfrwt>
<pdfrwt beam="2">  1       21 0.76451056E-01 0.53715450E+03</pdfrwt>
<totfact> 0.13457095E+03</totfact>
</mgrwt>
</event>
<event>
 4    1  0.4774032E-002  0.4283614E+03  0.7818608E-02  0.1034379E+00
         21   -1    0    0  501  502  0.00000000000E+00  0.00000000000E+00  0.79277033252E+03  0.79277033252E+03  0.00000000000E+00 0. -1.
         21   -1    0    0  502  503 -0.00000000000E+00 -0.00000000000E+00 -0.38403788964E+03  0.38403788964E+03  0.00000000000E+00 0.  1.
    9000005    1    1    2  501    0  0.14684740055E+03 -0.43924120995E+02  0.57524885512E+03  0.71722014247E+03  0.40000000000E+03 0. -1.
   -9000005    1    1    2    0  503 -0.14684740055E+03  0.43924120995E+02 -0.16651641223E+03  0.45958807969E+03  0.40000000000E+03 0.  1.
<mgrwt>
<rscale>  2 0.42836140E+03</rscale>
<asrwt>0</asrwt>
<pdfrwt beam="1">  1       21 0.12196467E+00 0.42836140E+03</pdfrwt>
<pdfrwt beam="2">  1       21 0.59082753E-01 0.42836140E+03</pdfrwt>
<totfact> 0.11666024E+03</totfact>
</mgrwt>
</event>
<event>
 4    1  0.4774032E-002  0.5714479E+03  0.7818608E-02  0.9966480E-01
         21   -1    0    0  501  502  0.00000000000E+00  0.00000000000E+00  0.14704089865E+04  0.14704089865E+04  0.00000000000E+00 0. -1.
         21   -1    0    0  502  503 -0.00000000000E+00 -0.00000000000E+00 -0.29965768443E+03  0.29965768443E+03  0.00000000000E+00 0. -1.
    9000005    1    1    2  501    0 -0.36227703618E+03  0.18790424442E+03  0.13507012508E+03  0.58719383061E+03  0.40000000000E+03 0. -1.
   -9000005    1    1    2    0  503  0.36227703618E+03 -0.18790424442E+03  0.10356811770E+04  0.11828728403E+04  0.40000000000E+03 0. -1.
<mgrwt>
<rscale>  2 0.57144786E+03</rscale>
<asrwt>0</asrwt>
<pdfrwt beam="1">  1       21 0.22621676E+00 0.57144786E+03</pdfrwt>
<pdfrwt beam="2">  1       21 0.46101183E-01 0.57144786E+03</pdfrwt>
<totfact> 0.31843485E+02</totfact>
</mgrwt>
</event>
<event>
 4    1  0.4774032E-002  0.4285064E+03  0.7818608E-02  0.1034333E+00
         21   -1    0    0  501  502  0.00000000000E+00  0.00000000000E+00  0.33364445276E+03  0.33364445276E+03  0.00000000000E+00 0.  1.
         21   -1    0    0  502  503 -0.00000000000E+00 -0.00000000000E+00 -0.59290701697E+03  0.59290701697E+03  0.00000000000E+00 0.  1.
    9000005    1    1    2  501    0  0.43651666693E+02  0.14735074532E+03 -0.54987575337E+01  0.42854165082E+03  0.40000000000E+03 0. -1.
   -9000005    1    1    2    0  503 -0.43651666693E+02 -0.14735074532E+03 -0.25376380667E+03  0.49800981891E+03  0.40000000000E+03 0. -1.
<mgrwt>
<rscale>  2 0.42850637E+03</rscale>
<asrwt>0</asrwt>
<pdfrwt beam="1">  1       21 0.51329917E-01 0.42850637E+03</pdfrwt>
<pdfrwt beam="2">  1       21 0.91216462E-01 0.42850637E+03</pdfrwt>
<totfact> 0.32254653E+03</totfact>
</mgrwt>
</event>
<event>
 4    1  0.4774032E-002  0.4440211E+03  0.7818608E-02  0.1029520E+00
         21   -1    0    0  503  502  0.00000000000E+00  0.00000000000E+00  0.17840283409E+03  0.17840283409E+03  0.00000000000E+00 0. -1.
         21   -1    0    0  501  503 -0.00000000000E+00 -0.00000000000E+00 -0.12785472961E+04  0.12785472961E+04  0.00000000000E+00 0. -1.
    9000005    1    1    2  501    0  0.18772473518E+03 -0.43750686513E+02 -0.81837672104E+03  0.93107204678E+03  0.40000000000E+03 0. -1.
   -9000005    1    1    2    0  502 -0.18772473518E+03  0.43750686513E+02 -0.28176774099E+03  0.52587808343E+03  0.40000000000E+03 0. -1.
<mgrwt>
<rscale>  2 0.44402106E+03</rscale>
<asrwt>0</asrwt>
<pdfrwt beam="1">  1       21 0.27446590E-01 0.44402106E+03</pdfrwt>
<pdfrwt beam="2">  1       21 0.19669958E+00 0.44402106E+03</pdfrwt>
<totfact> 0.15070669E+03</totfact>
</mgrwt>
</event>
<event>
 4    1  0.4774032E-002  0.4134988E+03  0.7818608E-02  0.1039203E+00
         21   -1    0    0  501  502  0.00000000000E+00  0.00000000000E+00  0.17087928546E+03  0.17087928546E+03  0.00000000000E+00 0. -1.
         21   -1    0    0  502  503 -0.00000000000E+00 -0.00000000000E+00 -0.13486569334E+04  0.13486569334E+04  0.00000000000E+00 0. -1.
    9000005    1    1    2  501    0  0.31970847561E+02  0.99795609794E+02 -0.20291545749E+03  0.46060393150E+03  0.40000000000E+03 0. -1.
   -9000005    1    1    2    0  503 -0.31970847561E+02 -0.99795609794E+02 -0.97486219041E+03  0.10589322873E+04  0.40000000000E+03 0. -1.
<mgrwt>
<rscale>  2 0.41349885E+03</rscale>
<asrwt>0</asrwt>
<pdfrwt beam="1">  1       21 0.26289121E-01 0.41349885E+03</pdfrwt>
<pdfrwt beam="2">  1       21 0.20748568E+00 0.41349885E+03</pdfrwt>
<totfact> 0.14108898E+03</totfact>
</mgrwt>
</event>
<event>
 4    1  0.4774032E-002  0.5073806E+03  0.7818608E-02  0.1011870E+00
         21   -1    0    0  501  502  0.00000000000E+00  0.00000000000E+00  0.45761212211E+03  0.45761212211E+03  0.00000000000E+00 0. -1.
         21   -1    0    0  502  503 -0.00000000000E+00 -0.00000000000E+00 -0.56907806607E+03  0.56907806607E+03  0.00000000000E+00 0.  1.
    9000005    1    1    2  501    0 -0.26360229184E+03  0.16717940284E+03 -0.80149159999E+00  0.50738128009E+03  0.40000000000E+03 0. -1.
   -9000005    1    1    2    0  503  0.26360229184E+03 -0.16717940284E+03 -0.11066445236E+03  0.51930890808E+03  0.40000000000E+03 0.  1.
<mgrwt>
<rscale>  2 0.50738065E+03</rscale>
<asrwt>0</asrwt>
<pdfrwt beam="1">  1       21 0.70401866E-01 0.50738065E+03</pdfrwt>
<pdfrwt beam="2">  1       21 0.87550471E-01 0.50738065E+03</pdfrwt>
<totfact> 0.17278187E+03</totfact>
</mgrwt>
</event>
<event>
 4    1  0.4774032E-002  0.4032154E+03  0.7818608E-02  0.1042672E+00
         21   -1    0    0  503  502  0.00000000000E+00  0.00000000000E+00  0.62133540367E+03  0.62133540367E+03  0.00000000000E+00 0. -1.
         21   -1    0    0  501  503 -0.00000000000E+00 -0.00000000000E+00 -0.40620939939E+03  0.40620939939E+03  0.00000000000E+00 0. -1.
    9000005    1    1    2  501    0  0.49958795371E+02 -0.93154682163E+01 -0.19891137505E+03  0.44960915728E+03  0.40000000000E+03 0. -1.
   -9000005    1    1    2    0  502 -0.49958795371E+02  0.93154682163E+01  0.41403737933E+03  0.57793564578E+03  0.40000000000E+03 0. -1.
<mgrwt>
<rscale>  2 0.40321540E+03</rscale>
<asrwt>0</asrwt>
<pdfrwt beam="1">  1       21 0.95590062E-01 0.40321540E+03</pdfrwt>
<pdfrwt beam="2">  1       21 0.62493754E-01 0.40321540E+03</pdfrwt>
<totfact> 0.19025001E+03</totfact>
</mgrwt>
</event>
<event>
 4    1  0.4774032E-002  0.4451199E+03  0.7818608E-02  0.1029187E+00
         21   -1    0    0  503  502  0.00000000000E+00  0.00000000000E+00  0.16393143268E+04  0.16393143268E+04  0.00000000000E+00 0.  1.
         21   -1    0    0  501  503 -0.00000000000E+00 -0.00000000000E+00 -0.25042122446E+03  0.25042122446E+03  0.00000000000E+00 0.  1.
    9000005    1    1    2  501    0 -0.12441142242E+03 -0.15051084977E+03  0.14822546308E+02  0.44536661955E+03  0.40000000000E+03 0.  1.
   -9000005    1    1    2    0  502  0.12441142242E+03  0.15051084977E+03  0.13740705561E+04  0.14443689317E+04  0.40000000000E+03 0.  1.
<mgrwt>
<rscale>  2 0.44511989E+03</rscale>
<asrwt>0</asrwt>
<pdfrwt beam="1">  1       21 0.25220220E+00 0.44511989E+03</pdfrwt>
<pdfrwt beam="2">  1       21 0.38526343E-01 0.44511989E+03</pdfrwt>
<totfact> 0.33801110E+02</totfact>
</mgrwt>
</event>
<event>
 4    1  0.4774032E-002  0.4163453E+03  0.7818608E-02  0.1038262E+00
         21   -1    0    0  501  502  0.00000000000E+00  0.00000000000E+00  0.79601542645E+03  0.79601542645E+03  0.00000000000E+00 0. -1.
         21   -1    0    0  502  503 -0.00000000000E+00 -0.00000000000E+00 -0.79810242625E+03  0.79810242625E+03  0.00000000000E+00 0. -1.
    9000005    1    1    2  501    0 -0.26197699764E+02  0.11250365758E+03  0.67863233646E+03  0.79616910297E+03  0.40000000000E+03 0. -1.
   -9000005    1    1    2    0  503  0.26197699764E+02 -0.11250365758E+03 -0.68071933625E+03  0.79794874973E+03  0.40000000000E+03 0. -1.
<mgrwt>
<rscale>  2 0.41634528E+03</rscale>
<asrwt>0</asrwt>
<pdfrwt beam="1">  1       21 0.12246391E+00 0.41634528E+03</pdfrwt>
<pdfrwt beam="2">  1       21 0.12278499E+00 0.41634528E+03</pdfrwt>
<totfact> 0.20858298E+02</totfact>
</mgrwt>
</event>
<event>
 4    1  0.4774032E-002  0.4491022E+03  0.7818608E-02  0.1027990E+00
         21   -1    0    0  503  502  0.00000000000E+00  0.00000000000E+00  0.42874656313E+03  0.42874656313E+03  0.00000000000E+00 0. -1.
         21   -1    0    0  501  503 -0.00000000000E+00 -0.00000000000E+00 -0.12654122721E+04  0.12654122721E+04  0.00000000000E+00 0. -1.
    9000005    1    1    2  501    0  0.20199790374E+03 -0.29827189658E+02 -0.10897437419E+04  0.11786578118E+04  0.40000000000E+03 0. -1.
   -9000005    1    1    2    0  502 -0.20199790374E+03  0.29827189658E+02  0.25307803295E+03  0.51550102339E+03  0.40000000000E+03 0. -1.
<mgrwt>
<rscale>  2 0.44910223E+03</rscale>
<asrwt>0</asrwt>
<pdfrwt beam="1">  1       21 0.65961010E-01 0.44910223E+03</pdfrwt>
<pdfrwt beam="2">  1       21 0.19467881E+00 0.44910223E+03</pdfrwt>
<totfact> 0.24957094E+02</totfact>
</mgrwt>
</event>
<event>
 4    1  0.4774032E-002  0.5208444E+03  0.7818608E-02  0.1008477E+00
         21   -1    0    0  503  502  0.00000000000E+00  0.00000000000E+00  0.35244830914E+03  0.35244830914E+03  0.00000000000E+00 0. -1.
         21   -1    0    0  501  503 -0.00000000000E+00 -0.00000000000E+00 -0.77083474853E+03  0.77083474853E+03  0.00000000000E+00 0. -1.
    9000005    1    1    2  501    0  0.64686656060E+02  0.32725293526E+03 -0.23075888314E+03  0.56967403772E+03  0.40000000000E+03 0. -1.
   -9000005    1    1    2    0  502 -0.64686656060E+02 -0.32725293526E+03 -0.18762755624E+03  0.55360901995E+03  0.40000000000E+03 0. -1.
<mgrwt>
<rscale>  2 0.52084436E+03</rscale>
<asrwt>0</asrwt>
<pdfrwt beam="1">  1       21 0.54222818E-01 0.52084436E+03</pdfrwt>
<pdfrwt beam="2">  1       21 0.11858996E+00 0.52084436E+03</pdfrwt>
<totfact> 0.14574893E+03</totfact>
</mgrwt>
</event>
<event>
 4    1  0.4774032E-002  0.4171134E+03  0.7818608E-02  0.1038010E+00
         21   -1    0    0  501  502  0.00000000000E+00  0.00000000000E+00  0.88009129990E+02  0.88009129990E+02  0.00000000000E+00 0. -1.
         21   -1    0    0  502  503 -0.00000000000E+00 -0.00000000000E+00 -0.27948995493E+04  0.27948995493E+04  0.00000000000E+00 0.  1.
    9000005    1    1    2  501    0  0.83206732974E+02  0.84024971782E+02 -0.57361612944E+03  0.70923833811E+03  0.40000000000E+03 0. -1.
   -9000005    1    1    2    0  503 -0.83206732974E+02 -0.84024971782E+02 -0.21332742899E+04  0.21736703412E+04  0.40000000000E+03 0.  1.
<mgrwt>
<rscale>  2 0.41711336E+03</rscale>
<asrwt>0</asrwt>
<pdfrwt beam="1">  1       21 0.13539867E-01 0.41711336E+03</pdfrwt>
<pdfrwt beam="2">  1       21 0.42998450E+00 0.41711336E+03</pdfrwt>
<totfact> 0.20662134E+02</totfact>
</mgrwt>
</event>
<event>
 4    1  0.4774032E-002  0.4138474E+03  0.7818608E-02  0.1039088E+00
         21   -1    0    0  503  502  0.00000000000E+00  0.00000000000E+00  0.73389419937E+03  0.73389419937E+03  0.00000000000E+00 0.  1.
         21   -1    0    0  501  503 -0.00000000000E+00 -0.00000000000E+00 -0.27475667067E+03  0.27475667067E+03  0.00000000000E+00 0.  1.
    9000005    1    1    2  501    0 -0.10609382301E+03  0.37117148088E+01  0.33836973502E+02  0.41522839123E+03  0.40000000000E+03 0.  1.
   -9000005    1    1    2    0  502  0.10609382301E+03 -0.37117148088E+01  0.42530055520E+03  0.59342247882E+03  0.40000000000E+03 0.  1.
<mgrwt>
<rscale>  2 0.41384741E+03</rscale>
<asrwt>0</asrwt>
<pdfrwt beam="1">  1       21 0.11290680E+00 0.41384741E+03</pdfrwt>
<pdfrwt beam="2">  1       21 0.42270257E-01 0.41384741E+03</pdfrwt>
<totfact> 0.29033825E+03</totfact>
</mgrwt>
</event>
<event>
 4    1  0.4774032E-002  0.4146180E+03  0.7818608E-02  0.1038832E+00
         21   -1    0    0  501  502  0.00000000000E+00  0.00000000000E+00  0.83531244225E+03  0.83531244225E+03  0.00000000000E+00 0. -1.
         21   -1    0    0  502  503 -0.00000000000E+00 -0.00000000000E+00 -0.22092036399E+03  0.22092036399E+03  0.00000000000E+00 0. -1.
    9000005    1    1    2  501    0 -0.69271568094E+02 -0.84318085834E+02  0.44535508872E+03  0.60848109650E+03  0.40000000000E+03 0. -1.
   -9000005    1    1    2    0  503  0.69271568094E+02  0.84318085834E+02  0.16903698954E+03  0.44775170974E+03  0.40000000000E+03 0. -1.
<mgrwt>
<rscale>  2 0.41461800E+03</rscale>
<asrwt>0</asrwt>
<pdfrwt beam="1">  1       21 0.12850960E+00 0.41461800E+03</pdfrwt>
<pdfrwt beam="2">  1       21 0.33987749E-01 0.41461800E+03</pdfrwt>
<totfact> 0.32628847E+03</totfact>
</mgrwt>
</event>
<event>
 4    1  0.4774032E-002  0.4469573E+03  0.7818608E-02  0.1028633E+00
         21   -1    0    0  501  502  0.00000000000E+00  0.00000000000E+00  0.96424760895E+02  0.96424760895E+02  0.00000000000E+00 0.  1.
         21   -1    0    0  502  503 -0.00000000000E+00 -0.00000000000E+00 -0.20759236239E+04  0.20759236239E+04  0.00000000000E+00 0.  1.
    9000005    1    1    2  501    0  0.70462378151E+02  0.18656330981E+03 -0.10382810932E+04  0.11303974716E+04  0.40000000000E+03 0. -1.
   -9000005    1    1    2    0  503 -0.70462378151E+02 -0.18656330981E+03 -0.94121776975E+03  0.10419509131E+04  0.40000000000E+03 0. -1.
<mgrwt>
<rscale>  2 0.44695729E+03</rscale>
<asrwt>0</asrwt>
<pdfrwt beam="1">  1       21 0.14834578E-01 0.44695729E+03</pdfrwt>
<pdfrwt beam="2">  1       21 0.31937287E+00 0.44695729E+03</pdfrwt>
<totfact> 0.84655263E+02</totfact>
</mgrwt>
</event>
<event>
 4    1  0.4774032E-002  0.4096110E+03  0.7818608E-02  0.1040502E+00
         21   -1    0    0  503  502  0.00000000000E+00  0.00000000000E+00  0.56062094766E+03  0.56062094766E+03  0.00000000000E+00 0. -1.
         21   -1    0    0  501  503 -0.00000000000E+00 -0.00000000000E+00 -0.32832728764E+03  0.32832728764E+03  0.00000000000E+00 0. -1.
    9000005    1    1    2  501    0  0.88094165059E+02 -0.45355215500E+01 -0.16063555591E+02  0.40992583560E+03  0.40000000000E+03 0.  1.
   -9000005    1    1    2    0  502 -0.88094165059E+02  0.45355215500E+01  0.24835721560E+03  0.47902239970E+03  0.40000000000E+03 0.  1.
<mgrwt>
<rscale>  2 0.40961098E+03</rscale>
<asrwt>0</asrwt>
<pdfrwt beam="1">  1       21 0.86249377E-01 0.40961098E+03</pdfrwt>
<pdfrwt beam="2">  1       21 0.50511890E-01 0.40961098E+03</pdfrwt>
<totfact> 0.38354550E+03</totfact>
</mgrwt>
</event>
<event>
 4    1  0.4774032E-002  0.4499498E+03  0.7818608E-02  0.1027737E+00
         21   -1    0    0  503  502  0.00000000000E+00  0.00000000000E+00  0.72712046702E+03  0.72712046702E+03  0.00000000000E+00 0. -1.
         21   -1    0    0  501  503 -0.00000000000E+00 -0.00000000000E+00 -0.57310160890E+03  0.57310160890E+03  0.00000000000E+00 0. -1.
    9000005    1    1    2  501    0 -0.17732455886E+03 -0.10493250185E+03 -0.38915395690E+03  0.59489127687E+03  0.40000000000E+03 0. -1.
   -9000005    1    1    2    0  502  0.17732455886E+03  0.10493250185E+03  0.54317281502E+03  0.70533079905E+03  0.40000000000E+03 0. -1.
<mgrwt>
<rscale>  2 0.44994981E+03</rscale>
<asrwt>0</asrwt>
<pdfrwt beam="1">  1       21 0.11186469E+00 0.44994981E+03</pdfrwt>
<pdfrwt beam="2">  1       21 0.88169479E-01 0.44994981E+03</pdfrwt>
<totfact> 0.57987117E+02</totfact>
</mgrwt>
</event>
<event>
 4    1  0.4774032E-002  0.4205216E+03  0.7818608E-02  0.1036897E+00
         21   -1    0    0  503  502  0.00000000000E+00  0.00000000000E+00  0.27090642792E+03  0.27090642792E+03  0.00000000000E+00 0.  1.
         21   -1    0    0  501  503 -0.00000000000E+00 -0.00000000000E+00 -0.11786937894E+04  0.11786937894E+04  0.00000000000E+00 0.  1.
    9000005    1    1    2  501    0 -0.89334040550E+02 -0.94116296379E+02 -0.93804475405E+03  0.10279914439E+04  0.40000000000E+03 0.  1.
   -9000005    1    1    2    0  502  0.89334040550E+02  0.94116296379E+02  0.30257392588E+02  0.42160877345E+03  0.40000000000E+03 0.  1.
<mgrwt>
<rscale>  2 0.42052164E+03</rscale>
<asrwt>0</asrwt>
<pdfrwt beam="1">  1       21 0.41677913E-01 0.42052164E+03</pdfrwt>
<pdfrwt beam="2">  1       21 0.18133750E+00 0.42052164E+03</pdfrwt>
<totfact> 0.83674844E+02</totfact>
</mgrwt>
</event>
<event>
 4    1  0.4774032E-002  0.4339447E+03  0.7818608E-02  0.1032621E+00
         21   -1    0    0  501  502  0.00000000000E+00  0.00000000000E+00  0.64666184468E+03  0.64666184468E+03  0.00000000000E+00 0. -1.
         21   -1    0    0  502  503 -0.00000000000E+00 -0.00000000000E+00 -0.29749902988E+03  0.29749902988E+03  0.00000000000E+00 0. -1.
    9000005    1    1    2  501    0  0.16191705842E+03 -0.45725554110E+02  0.24327376339E+03  0.49748375256E+03  0.40000000000E+03 0. -1.
   -9000005    1    1    2    0  503 -0.16191705842E+03  0.45725554110E+02  0.10588905141E+03  0.44667712200E+03  0.40000000000E+03 0. -1.
<mgrwt>
<rscale>  2 0.43394465E+03</rscale>
<asrwt>0</asrwt>
<pdfrwt beam="1">  1       21 0.99486437E-01 0.43394465E+03</pdfrwt>
<pdfrwt beam="2">  1       21 0.45769082E-01 0.43394465E+03</pdfrwt>
<totfact> 0.33325404E+03</totfact>
</mgrwt>
</event>
<event>
 4    1  0.4774032E-002  0.4685691E+03  0.7818608E-02  0.1022325E+00
         21   -1    0    0  501  502  0.00000000000E+00  0.00000000000E+00  0.23167016597E+03  0.23167016597E+03  0.00000000000E+00 0.  1.
         21   -1    0    0  502  503 -0.00000000000E+00 -0.00000000000E+00 -0.11823002068E+04  0.11823002068E+04  0.00000000000E+00 0. -1.
    9000005    1    1    2  501    0  0.20894144795E+03 -0.12609723175E+03 -0.79023320863E+03  0.91870863964E+03  0.40000000000E+03 0. -1.
   -9000005    1    1    2    0  503 -0.20894144795E+03  0.12609723175E+03 -0.16039683219E+03  0.49526173313E+03  0.40000000000E+03 0. -1.
<mgrwt>
<rscale>  2 0.46856914E+03</rscale>
<asrwt>0</asrwt>
<pdfrwt beam="1">  1       21 0.35641565E-01 0.46856914E+03</pdfrwt>
<pdfrwt beam="2">  1       21 0.18189234E+00 0.46856914E+03</pdfrwt>
<totfact> 0.11180251E+03</totfact>
</mgrwt>
</event>
<event>
 4    1  0.4774032E-002  0.4061145E+03  0.7818608E-02  0.1041683E+00
         21   -1    0    0  503  502  0.00000000000E+00  0.00000000000E+00  0.63991553020E+03  0.63991553020E+03  0.00000000000E+00 0. -1.
         21   -1    0    0  501  503 -0.00000000000E+00 -0.00000000000E+00 -0.46261180122E+03  0.46261180122E+03  0.00000000000E+00 0. -1.
    9000005    1    1    2  501    0 -0.48781503036E+02 -0.50491159729E+02  0.45550886090E+03  0.61026003851E+03  0.40000000000E+03 0. -1.
   -9000005    1    1    2    0  502  0.48781503036E+02  0.50491159729E+02 -0.27820513191E+03  0.49226729291E+03  0.40000000000E+03 0. -1.
<mgrwt>
<rscale>  2 0.40611451E+03</rscale>
<asrwt>0</asrwt>
<pdfrwt beam="1">  1       21 0.98448543E-01 0.40611451E+03</pdfrwt>
<pdfrwt beam="2">  1       21 0.71171046E-01 0.40611451E+03</pdfrwt>
<totfact> 0.13251897E+03</totfact>
</mgrwt>
</event>
<event>
 4    1  0.4774032E-002  0.4283525E+03  0.7818608E-02  0.1034382E+00
         21   -1    0    0  503  502  0.00000000000E+00  0.00000000000E+00  0.57855107086E+03  0.57855107086E+03  0.00000000000E+00 0. -1.
         21   -1    0    0  501  503 -0.00000000000E+00 -0.00000000000E+00 -0.40947005787E+03  0.40947005787E+03  0.00000000000E+00 0.  1.
    9000005    1    1    2  501    0  0.11951512215E+03 -0.95927109630E+02 -0.15003339402E+03  0.45386770551E+03  0.40000000000E+03 0. -1.
   -9000005    1    1    2    0  502 -0.11951512215E+03  0.95927109630E+02  0.31911440701E+03  0.53415342323E+03  0.40000000000E+03 0. -1.
<mgrwt>
<rscale>  2 0.42835251E+03</rscale>
<asrwt>0</asrwt>
<pdfrwt beam="1">  1       21 0.89007857E-01 0.42835251E+03</pdfrwt>
<pdfrwt beam="2">  1       21 0.62995394E-01 0.42835251E+03</pdfrwt>
<totfact> 0.21920880E+03</totfact>
</mgrwt>
</event>
<event>
 4    1  0.4774032E-002  0.4897290E+03  0.7818608E-02  0.1016495E+00
         21   -1    0    0  501  502  0.00000000000E+00  0.00000000000E+00  0.19873972267E+03  0.19873972267E+03  0.00000000000E+00 0. -1.
         21   -1    0    0  502  503 -0.00000000000E+00 -0.00000000000E+00 -0.22019115416E+04  0.22019115416E+04  0.00000000000E+00 0.  1.
    9000005    1    1    2  501    0 -0.98019159165E+02  0.26500335224E+03 -0.19464814591E+03  0.52699376938E+03  0.40000000000E+03 0.  1.
   -9000005    1    1    2    0  503  0.98019159165E+02 -0.26500335224E+03 -0.18085236730E+04  0.18736574949E+04  0.40000000000E+03 0.  1.
<mgrwt>
<rscale>  2 0.48972904E+03</rscale>
<asrwt>0</asrwt>
<pdfrwt beam="1">  1       21 0.30575343E-01 0.48972904E+03</pdfrwt>
<pdfrwt beam="2">  1       21 0.33875561E+00 0.48972904E+03</pdfrwt>
<totfact> 0.15719138E+02</totfact>
</mgrwt>
</event>
<event>
 4    1  0.4774032E-002  0.4176422E+03  0.7818608E-02  0.1037836E+00
         21   -1    0    0  501  502  0.00000000000E+00  0.00000000000E+00  0.31294743008E+03  0.31294743008E+03  0.00000000000E+00 0. -1.
         21   -1    0    0  502  503 -0.00000000000E+00 -0.00000000000E+00 -0.55892921432E+03  0.55892921432E+03  0.00000000000E+00 0.  1.
    9000005    1    1    2  501    0  0.47622048149E+02 -0.11025933288E+03 -0.14607548168E+03  0.44245115697E+03  0.40000000000E+03 0. -1.
   -9000005    1    1    2    0  503 -0.47622048149E+02  0.11025933288E+03 -0.99906302570E+02  0.42942548743E+03  0.40000000000E+03 0. -1.
<mgrwt>
<rscale>  2 0.41764217E+03</rscale>
<asrwt>0</asrwt>
<pdfrwt beam="1">  1       21 0.48145759E-01 0.41764217E+03</pdfrwt>
<pdfrwt beam="2">  1       21 0.85989108E-01 0.41764217E+03</pdfrwt>
<totfact> 0.42633867E+03</totfact>
</mgrwt>
</event>
<event>
 4    1  0.4774032E-002  0.6216235E+03  0.7818608E-02  0.9861533E-01
         21   -1    0    0  503  502  0.00000000000E+00  0.00000000000E+00  0.15750035350E+04  0.15750035350E+04  0.00000000000E+00 0.  1.
         21   -1    0    0  501  503 -0.00000000000E+00 -0.00000000000E+00 -0.42040924668E+03  0.42040924668E+03  0.00000000000E+00 0. -1.
    9000005    1    1    2  501    0 -0.40422764766E+03 -0.25102950459E+03  0.12211224789E+04  0.13702393629E+04  0.40000000000E+03 0.  1.
   -9000005    1    1    2    0  502  0.40422764766E+03  0.25102950459E+03 -0.66528190596E+02  0.62517341870E+03  0.40000000000E+03 0. -1.
<mgrwt>
<rscale>  2 0.62162352E+03</rscale>
<asrwt>0</asrwt>
<pdfrwt beam="1">  1       21 0.24230823E+00 0.62162352E+03</pdfrwt>
<pdfrwt beam="2">  1       21 0.64678347E-01 0.62162352E+03</pdfrwt>
<totfact> 0.11824230E+02</totfact>
</mgrwt>
</event>
<event>
 4    1  0.4774032E-002  0.4354605E+03  0.7818608E-02  0.1032149E+00
         21   -1    0    0  503  502  0.00000000000E+00  0.00000000000E+00  0.22169441357E+03  0.22169441357E+03  0.00000000000E+00 0.  1.
         21   -1    0    0  501  503 -0.00000000000E+00 -0.00000000000E+00 -0.10117196527E+04  0.10117196527E+04  0.00000000000E+00 0.  1.
    9000005    1    1    2  501    0 -0.16359784232E+03  0.53493576329E+02 -0.15255927722E+03  0.46141104211E+03  0.40000000000E+03 0.  1.
   -9000005    1    1    2    0  502  0.16359784232E+03 -0.53493576329E+02 -0.63746596194E+03  0.77200302419E+03  0.40000000000E+03 0.  1.
<mgrwt>
<rscale>  2 0.43546047E+03</rscale>
<asrwt>0</asrwt>
<pdfrwt beam="1">  1       21 0.34106833E-01 0.43546047E+03</pdfrwt>
<pdfrwt beam="2">  1       21 0.15564918E+00 0.43546047E+03</pdfrwt>
<totfact> 0.19296436E+03</totfact>
</mgrwt>
</event>
<event>
 4    1  0.4774032E-002  0.4065072E+03  0.7818608E-02  0.1041549E+00
         21   -1    0    0  501  502  0.00000000000E+00  0.00000000000E+00  0.67632074896E+03  0.67632074896E+03  0.00000000000E+00 0.  1.
         21   -1    0    0  502  503 -0.00000000000E+00 -0.00000000000E+00 -0.25815425765E+03  0.25815425765E+03  0.00000000000E+00 0.  1.
    9000005    1    1    2  501    0  0.58262390851E+02 -0.43053298207E+02  0.31719117276E+03  0.51561451953E+03  0.40000000000E+03 0. -1.
   -9000005    1    1    2    0  503 -0.58262390851E+02  0.43053298207E+02  0.10097531856E+03  0.41886048707E+03  0.40000000000E+03 0. -1.
<mgrwt>
<rscale>  2 0.40650719E+03</rscale>
<asrwt>0</asrwt>
<pdfrwt beam="1">  1       21 0.10404935E+00 0.40650719E+03</pdfrwt>
<pdfrwt beam="2">  1       21 0.39716040E-01 0.40650719E+03</pdfrwt>
<totfact> 0.40513410E+03</totfact>
</mgrwt>
</event>
<event>
 4    1  0.4774032E-002  0.5048920E+03  0.7818608E-02  0.1012510E+00
         21   -1    0    0  501  502  0.00000000000E+00  0.00000000000E+00  0.45686459507E+03  0.45686459507E+03  0.00000000000E+00 0.  1.
         21   -1    0    0  502  503 -0.00000000000E+00 -0.00000000000E+00 -0.56298392695E+03  0.56298392695E+03  0.00000000000E+00 0.  1.
    9000005    1    1    2  501    0  0.50771159438E+02 -0.30387202998E+03 -0.10119057910E+03  0.51493247570E+03  0.40000000000E+03 0.  1.
   -9000005    1    1    2    0  503 -0.50771159438E+02  0.30387202998E+03 -0.49287527820E+01  0.50491604632E+03  0.40000000000E+03 0.  1.
<mgrwt>
<rscale>  2 0.50489199E+03</rscale>
<asrwt>0</asrwt>
<pdfrwt beam="1">  1       21 0.70286861E-01 0.50489199E+03</pdfrwt>
<pdfrwt beam="2">  1       21 0.86612912E-01 0.50489199E+03</pdfrwt>
<totfact> 0.17802953E+03</totfact>
</mgrwt>
</event>
<event>
 4    1  0.4774032E-002  0.5068831E+03  0.7818608E-02  0.1011998E+00
         21   -1    0    0  501  502  0.00000000000E+00  0.00000000000E+00  0.80813771991E+03  0.80813771991E+03  0.00000000000E+00 0. -1.
         21   -1    0    0  502  503 -0.00000000000E+00 -0.00000000000E+00 -0.34763082759E+03  0.34763082759E+03  0.00000000000E+00 0.  1.
    9000005    1    1    2  501    0  0.12147562670E+03  0.28666026102E+03  0.61336517362E+02  0.51058065131E+03  0.40000000000E+03 0.  1.
   -9000005    1    1    2    0  503 -0.12147562670E+03 -0.28666026102E+03  0.39917037496E+03  0.64518789618E+03  0.40000000000E+03 0. -1.
<mgrwt>
<rscale>  2 0.50688306E+03</rscale>
<asrwt>0</asrwt>
<pdfrwt beam="1">  1       21 0.12432888E+00 0.50688306E+03</pdfrwt>
<pdfrwt beam="2">  1       21 0.53481666E-01 0.50688306E+03</pdfrwt>
<totfact> 0.13364606E+03</totfact>
</mgrwt>
</event>
<event>
 4    1  0.4774032E-002  0.4561771E+03  0.7818608E-02  0.1025896E+00
         21   -1    0    0  501  502  0.00000000000E+00  0.00000000000E+00  0.10287008206E+04  0.10287008206E+04  0.00000000000E+00 0.  1.
         21   -1    0    0  502  503 -0.00000000000E+00 -0.00000000000E+00 -0.23474278883E+03  0.23474278883E+03  0.00000000000E+00 0.  1.
    9000005    1    1    2  501    0 -0.12075447152E+03  0.18307340953E+03  0.63185854543E+03  0.77932197268E+03  0.40000000000E+03 0.  1.
   -9000005    1    1    2    0  503  0.12075447152E+03 -0.18307340953E+03  0.16209948630E+03  0.48412163670E+03  0.40000000000E+03 0.  1.
<mgrwt>
<rscale>  2 0.45617707E+03</rscale>
<asrwt>0</asrwt>
<pdfrwt beam="1">  1       21 0.15826166E+00 0.45617707E+03</pdfrwt>
<pdfrwt beam="2">  1       21 0.36114276E-01 0.45617707E+03</pdfrwt>
<totfact> 0.16274813E+03</totfact>
</mgrwt>
</event>
<event>
 4    1  0.4774032E-002  0.4974830E+03  0.7818608E-02  0.1014438E+00
         21   -1    0    0  501  502  0.00000000000E+00  0.00000000000E+00  0.36649715053E+03  0.36649715053E+03  0.00000000000E+00 0.  1.
         21   -1    0    0  502  503 -0.00000000000E+00 -0.00000000000E+00 -0.67587158632E+03  0.67587158632E+03  0.00000000000E+00 0. -1.
    9000005    1    1    2  501    0 -0.26184562935E+02  0.29462469403E+03 -0.17006584935E+03  0.52574873731E+03  0.40000000000E+03 0.  1.
   -9000005    1    1    2    0  503  0.26184562935E+02 -0.29462469403E+03 -0.13930858644E+03  0.51661999954E+03  0.40000000000E+03 0. -1.
<mgrwt>
<rscale>  2 0.49748301E+03</rscale>
<asrwt>0</asrwt>
<pdfrwt beam="1">  1       21 0.56384178E-01 0.49748301E+03</pdfrwt>
<pdfrwt beam="2">  1       21 0.10398024E+00 0.49748301E+03</pdfrwt>
<totfact> 0.18736575E+03</totfact>
</mgrwt>
</event>
<event>
 4    1  0.4774032E-002  0.4031573E+03  0.7818608E-02  0.1042692E+00
         21   -1    0    0  503  502  0.00000000000E+00  0.00000000000E+00  0.69418760449E+03  0.69418760449E+03  0.00000000000E+00 0.  1.
         21   -1    0    0  501  503 -0.00000000000E+00 -0.00000000000E+00 -0.23824612789E+03  0.23824612789E+03  0.00000000000E+00 0.  1.
    9000005    1    1    2  501    0  0.47920913670E+02 -0.15471253831E+02  0.16675103489E+03  0.43628165363E+03  0.40000000000E+03 0. -1.
   -9000005    1    1    2    0  502 -0.47920913670E+02  0.15471253831E+02  0.28919044172E+03  0.49615207875E+03  0.40000000000E+03 0. -1.
<mgrwt>
<rscale>  2 0.40315726E+03</rscale>
<asrwt>0</asrwt>
<pdfrwt beam="1">  1       21 0.10679809E+00 0.40315726E+03</pdfrwt>
<pdfrwt beam="2">  1       21 0.36653251E-01 0.40315726E+03</pdfrwt>
<totfact> 0.44824028E+03</totfact>
</mgrwt>
</event>
<event>
 4    1  0.4774032E-002  0.4647990E+03  0.7818608E-02  0.1023399E+00
         21   -1    0    0  503  502  0.00000000000E+00  0.00000000000E+00  0.87852321899E+03  0.87852321899E+03  0.00000000000E+00 0.  1.
         21   -1    0    0  501  503 -0.00000000000E+00 -0.00000000000E+00 -0.25542475059E+03  0.25542475059E+03  0.00000000000E+00 0.  1.
    9000005    1    1    2  501    0 -0.23570241421E+03 -0.21965420037E+02  0.42097467891E+03  0.62710269336E+03  0.40000000000E+03 0.  1.
   -9000005    1    1    2    0  502  0.23570241421E+03  0.21965420037E+02  0.20212378949E+03  0.50684527621E+03  0.40000000000E+03 0.  1.
<mgrwt>
<rscale>  2 0.46479900E+03</rscale>
<asrwt>0</asrwt>
<pdfrwt beam="1">  1       21 0.13515742E+00 0.46479900E+03</pdfrwt>
<pdfrwt beam="2">  1       21 0.39296116E-01 0.46479900E+03</pdfrwt>
<totfact> 0.20896929E+03</totfact>
</mgrwt>
</event>
<event>
 4    1  0.4774032E-002  0.4706639E+03  0.7818608E-02  0.1021733E+00
         21   -1    0    0  501  502  0.00000000000E+00  0.00000000000E+00  0.23762005503E+04  0.23762005503E+04  0.00000000000E+00 0.  1.
         21   -1    0    0  502  503 -0.00000000000E+00 -0.00000000000E+00 -0.16300362956E+03  0.16300362956E+03  0.00000000000E+00 0.  1.
    9000005    1    1    2  501    0  0.23481348418E+03 -0.79919498929E+02  0.19372636579E+04  0.19936185641E+04  0.40000000000E+03 0.  1.
   -9000005    1    1    2    0  503 -0.23481348418E+03  0.79919498929E+02  0.27593326286E+03  0.54558561584E+03  0.40000000000E+03 0.  1.
<mgrwt>
<rscale>  2 0.47066389E+03</rscale>
<asrwt>0</asrwt>
<pdfrwt beam="1">  1       21 0.36556929E+00 0.47066389E+03</pdfrwt>
<pdfrwt beam="2">  1       21 0.25077483E-01 0.47066389E+03</pdfrwt>
<totfact> 0.16070282E+02</totfact>
</mgrwt>
</event>
<event>
 4    1  0.4774032E-002  0.7191027E+03  0.7818608E-02  0.9685110E-01
         21   -1    0    0  503  502  0.00000000000E+00  0.00000000000E+00  0.22157157783E+03  0.22157157783E+03  0.00000000000E+00 0. -1.
         21   -1    0    0  501  503 -0.00000000000E+00 -0.00000000000E+00 -0.26232261606E+04  0.26232261606E+04  0.00000000000E+00 0. -1.
    9000005    1    1    2  501    0  0.70569557808E+02  0.59340422860E+03 -0.72837728958E+03  0.10235439009E+04  0.40000000000E+03 0. -1.
   -9000005    1    1    2    0  502 -0.70569557808E+02 -0.59340422860E+03 -0.16732772932E+04  0.18212538376E+04  0.40000000000E+03 0. -1.
<mgrwt>
<rscale>  2 0.71910266E+03</rscale>
<asrwt>0</asrwt>
<pdfrwt beam="1">  1       21 0.34087935E-01 0.71910266E+03</pdfrwt>
<pdfrwt beam="2">  1       21 0.40357325E+00 0.71910266E+03</pdfrwt>
<totfact> 0.43831027E+01</totfact>
</mgrwt>
</event>
<event>
 4    1  0.4774032E-002  0.4464761E+03  0.7818608E-02  0.1028778E+00
         21   -1    0    0  501  502  0.00000000000E+00  0.00000000000E+00  0.73857816106E+03  0.73857816106E+03  0.00000000000E+00 0. -1.
         21   -1    0    0  502  503 -0.00000000000E+00 -0.00000000000E+00 -0.37461853372E+03  0.37461853372E+03  0.00000000000E+00 0. -1.
    9000005    1    1    2  501    0  0.51682946313E+02  0.19149361168E+03  0.47626117208E+03  0.65281362906E+03  0.40000000000E+03 0. -1.
   -9000005    1    1    2    0  503 -0.51682946313E+02 -0.19149361168E+03 -0.11230154475E+03  0.46038306573E+03  0.40000000000E+03 0. -1.
<mgrwt>
<rscale>  2 0.44647613E+03</rscale>
<asrwt>0</asrwt>
<pdfrwt beam="1">  1       21 0.11362741E+00 0.44647613E+03</pdfrwt>
<pdfrwt beam="2">  1       21 0.57633621E-01 0.44647613E+03</pdfrwt>
<totfact> 0.14611824E+03</totfact>
</mgrwt>
</event>
<event>
 4    1  0.4774032E-002  0.5119734E+03  0.7818608E-02  0.1010700E+00
         21   -1    0    0  503  502  0.00000000000E+00  0.00000000000E+00  0.81142906673E+03  0.81142906673E+03  0.00000000000E+00 0.  1.
         21   -1    0    0  501  503 -0.00000000000E+00 -0.00000000000E+00 -0.65747348315E+03  0.65747348315E+03  0.00000000000E+00 0. -1.
    9000005    1    1    2  501    0 -0.18657966261E+03 -0.25943169304E+03 -0.44684520762E+03  0.67954941942E+03  0.40000000000E+03 0. -1.
   -9000005    1    1    2    0  502  0.18657966261E+03  0.25943169304E+03  0.60080079120E+03  0.78935313046E+03  0.40000000000E+03 0.  1.
<mgrwt>
<rscale>  2 0.51197341E+03</rscale>
<asrwt>0</asrwt>
<pdfrwt beam="1">  1       21 0.12483524E+00 0.51197341E+03</pdfrwt>
<pdfrwt beam="2">  1       21 0.10114977E+00 0.51197341E+03</pdfrwt>
<totfact> 0.30756401E+02</totfact>
</mgrwt>
</event>
<event>
 4    1  0.4774032E-002  0.4205550E+03  0.7818608E-02  0.1036886E+00
         21   -1    0    0  503  502  0.00000000000E+00  0.00000000000E+00  0.31857572364E+03  0.31857572364E+03  0.00000000000E+00 0. -1.
         21   -1    0    0  501  503 -0.00000000000E+00 -0.00000000000E+00 -0.90426525651E+03  0.90426525651E+03  0.00000000000E+00 0.  1.
    9000005    1    1    2  501    0 -0.19161151092E+01 -0.12985694888E+03 -0.67273536461E+03  0.79337215067E+03  0.40000000000E+03 0.  1.
   -9000005    1    1    2    0  502  0.19161151092E+01  0.12985694888E+03  0.87045831738E+02  0.42946882948E+03  0.40000000000E+03 0. -1.
<mgrwt>
<rscale>  2 0.42055499E+03</rscale>
<asrwt>0</asrwt>
<pdfrwt beam="1">  1       21 0.49011650E-01 0.42055499E+03</pdfrwt>
<pdfrwt beam="2">  1       21 0.13911773E+00 0.42055499E+03</pdfrwt>
<totfact> 0.12433201E+03</totfact>
</mgrwt>
</event>
<event>
 4    1  0.4774032E-002  0.4422795E+03  0.7818608E-02  0.1030050E+00
         21   -1    0    0  503  502  0.00000000000E+00  0.00000000000E+00  0.82217437435E+02  0.82217437435E+02  0.00000000000E+00 0. -1.
         21   -1    0    0  501  503 -0.00000000000E+00 -0.00000000000E+00 -0.29784661697E+04  0.29784661697E+04  0.00000000000E+00 0. -1.
    9000005    1    1    2  501    0 -0.18374051087E+03  0.43018370877E+02 -0.21345674058E+04  0.21799057698E+04  0.40000000000E+03 0. -1.
   -9000005    1    1    2    0  502  0.18374051087E+03 -0.43018370877E+02 -0.76168132656E+03  0.88077783737E+03  0.40000000000E+03 0. -1.
<mgrwt>
<rscale>  2 0.44227950E+03</rscale>
<asrwt>0</asrwt>
<pdfrwt beam="1">  1       21 0.12648836E-01 0.44227950E+03</pdfrwt>
<pdfrwt beam="2">  1       21 0.45822559E+00 0.44227950E+03</pdfrwt>
<totfact> 0.14853583E+02</totfact>
</mgrwt>
</event>
<event>
 4    1  0.4774032E-002  0.4722170E+03  0.7818608E-02  0.1021296E+00
         21   -1    0    0  501  502  0.00000000000E+00  0.00000000000E+00  0.13629657240E+03  0.13629657240E+03  0.00000000000E+00 0. -1.
         21   -1    0    0  502  503 -0.00000000000E+00 -0.00000000000E+00 -0.22173752685E+04  0.22173752685E+04  0.00000000000E+00 0.  1.
    9000005    1    1    2  501    0 -0.58352411279E+02 -0.24409805511E+03 -0.43797481220E+03  0.64405807233E+03  0.40000000000E+03 0. -1.
   -9000005    1    1    2    0  503  0.58352411279E+02  0.24409805511E+03 -0.16431038839E+04  0.17096137685E+04  0.40000000000E+03 0.  1.
<mgrwt>
<rscale>  2 0.47221697E+03</rscale>
<asrwt>0</asrwt>
<pdfrwt beam="1">  1       21 0.20968703E-01 0.47221697E+03</pdfrwt>
<pdfrwt beam="2">  1       21 0.34113466E+00 0.47221697E+03</pdfrwt>
<totfact> 0.32083852E+02</totfact>
</mgrwt>
</event>
<event>
 4    1  0.4774032E-002  0.4763608E+03  0.7818608E-02  0.1020140E+00
         21   -1    0    0  503  502  0.00000000000E+00  0.00000000000E+00  0.16415881993E+03  0.16415881993E+03  0.00000000000E+00 0.  1.
         21   -1    0    0  501  503 -0.00000000000E+00 -0.00000000000E+00 -0.14132154213E+04  0.14132154213E+04  0.00000000000E+00 0.  1.
    9000005    1    1    2  501    0 -0.91835417460E+02  0.24183853753E+03 -0.50791055054E+03  0.69634240822E+03  0.40000000000E+03 0.  1.
   -9000005    1    1    2    0  502  0.91835417460E+02 -0.24183853753E+03 -0.74114605085E+03  0.88103183304E+03  0.40000000000E+03 0.  1.
<mgrwt>
<rscale>  2 0.47636081E+03</rscale>
<asrwt>0</asrwt>
<pdfrwt beam="1">  1       21 0.25255205E-01 0.47636081E+03</pdfrwt>
<pdfrwt beam="2">  1       21 0.21741774E+00 0.47636081E+03</pdfrwt>
<totfact> 0.12779398E+03</totfact>
</mgrwt>
</event>
<event>
 4    1  0.4774032E-002  0.4287321E+03  0.7818608E-02  0.1034261E+00
         21   -1    0    0  503  502  0.00000000000E+00  0.00000000000E+00  0.31418373564E+03  0.31418373564E+03  0.00000000000E+00 0. -1.
         21   -1    0    0  501  503 -0.00000000000E+00 -0.00000000000E+00 -0.67049704846E+03  0.67049704846E+03  0.00000000000E+00 0. -1.
    9000005    1    1    2  501    0  0.55452973781E+02 -0.14400072984E+03 -0.35392123352E+03  0.55594197721E+03  0.40000000000E+03 0. -1.
   -9000005    1    1    2    0  502 -0.55452973781E+02  0.14400072984E+03 -0.23920793023E+01  0.42873880690E+03  0.40000000000E+03 0. -1.
<mgrwt>
<rscale>  2 0.42873213E+03</rscale>
<asrwt>0</asrwt>
<pdfrwt beam="1">  1       21 0.48335960E-01 0.42873213E+03</pdfrwt>
<pdfrwt beam="2">  1       21 0.10315339E+00 0.42873213E+03</pdfrwt>
<totfact> 0.27249833E+03</totfact>
</mgrwt>
</event>
<event>
 4    1  0.4774032E-002  0.4510930E+03  0.7818608E-02  0.1027397E+00
         21   -1    0    0  501  502  0.00000000000E+00  0.00000000000E+00  0.50647546814E+03  0.50647546814E+03  0.00000000000E+00 0.  1.
         21   -1    0    0  502  503 -0.00000000000E+00 -0.00000000000E+00 -0.47536141139E+03  0.47536141139E+03  0.00000000000E+00 0.  1.
    9000005    1    1    2  501    0  0.20757958490E+03  0.19890922080E+02  0.20871869616E+03  0.49703966338E+03  0.40000000000E+03 0.  1.
   -9000005    1    1    2    0  503 -0.20757958490E+03 -0.19890922080E+02 -0.17760463941E+03  0.48479721615E+03  0.40000000000E+03 0.  1.
<mgrwt>
<rscale>  2 0.45109304E+03</rscale>
<asrwt>0</asrwt>
<pdfrwt beam="1">  1       21 0.77919303E-01 0.45109304E+03</pdfrwt>
<pdfrwt beam="2">  1       21 0.73132525E-01 0.45109304E+03</pdfrwt>
<totfact> 0.21213149E+03</totfact>
</mgrwt>
</event>
<event>
 4    1  0.4774032E-002  0.4338038E+03  0.7818608E-02  0.1032665E+00
         21   -1    0    0  503  502  0.00000000000E+00  0.00000000000E+00  0.88348046929E+03  0.88348046929E+03  0.00000000000E+00 0. -1.
         21   -1    0    0  501  503 -0.00000000000E+00 -0.00000000000E+00 -0.26930176659E+03  0.26930176659E+03  0.00000000000E+00 0.  1.
    9000005    1    1    2  501    0 -0.13534252739E+03 -0.99338640828E+02  0.57062499949E+03  0.71679749952E+03  0.40000000000E+03 0. -1.
   -9000005    1    1    2    0  502  0.13534252739E+03  0.99338640828E+02  0.43553703212E+02  0.43598473637E+03  0.40000000000E+03 0.  1.
<mgrwt>
<rscale>  2 0.43380383E+03</rscale>
<asrwt>0</asrwt>
<pdfrwt beam="1">  1       21 0.13592007E+00 0.43380383E+03</pdfrwt>
<pdfrwt beam="2">  1       21 0.41431041E-01 0.43380383E+03</pdfrwt>
<totfact> 0.18687027E+03</totfact>
</mgrwt>
</event>
<event>
 4    1  0.4774032E-002  0.4466566E+03  0.7818608E-02  0.1028724E+00
         21   -1    0    0  501  502  0.00000000000E+00  0.00000000000E+00  0.24542631052E+04  0.24542631052E+04  0.00000000000E+00 0. -1.
         21   -1    0    0  502  503 -0.00000000000E+00 -0.00000000000E+00 -0.46126737656E+03  0.46126737656E+03  0.00000000000E+00 0.  1.
    9000005    1    1    2  501    0 -0.19791433106E+03  0.18220837436E+02  0.23195935312E+04  0.23622057978E+04  0.40000000000E+03 0. -1.
   -9000005    1    1    2    0  503  0.19791433106E+03 -0.18220837436E+02 -0.32659780247E+03  0.55332468401E+03  0.40000000000E+03 0.  1.
<mgrwt>
<rscale>  2 0.44665656E+03</rscale>
<asrwt>0</asrwt>
<pdfrwt beam="1">  1       21 0.37757893E+00 0.44665656E+03</pdfrwt>
<pdfrwt beam="2">  1       21 0.70964213E-01 0.44665656E+03</pdfrwt>
<totfact> 0.15723205E+01</totfact>
</mgrwt>
</event>
<event>
 4    1  0.4774032E-002  0.4140085E+03  0.7818608E-02  0.1039034E+00
         21   -1    0    0  501  502  0.00000000000E+00  0.00000000000E+00  0.10694755268E+03  0.10694755268E+03  0.00000000000E+00 0. -1.
         21   -1    0    0  502  503 -0.00000000000E+00 -0.00000000000E+00 -0.22195874532E+04  0.22195874532E+04  0.00000000000E+00 0. -1.
    9000005    1    1    2  501    0  0.84279924267E+02 -0.65573781418E+02 -0.44304897399E+03  0.60637894076E+03  0.40000000000E+03 0. -1.
   -9000005    1    1    2    0  503 -0.84279924267E+02  0.65573781418E+02 -0.16695909266E+04  0.17201560652E+04  0.40000000000E+03 0. -1.
<mgrwt>
<rscale>  2 0.41400849E+03</rscale>
<asrwt>0</asrwt>
<pdfrwt beam="1">  1       21 0.16453471E-01 0.41400849E+03</pdfrwt>
<pdfrwt beam="2">  1       21 0.34147496E+00 0.41400849E+03</pdfrwt>
<totfact> 0.52336243E+02</totfact>
</mgrwt>
</event>
<event>
 4    1  0.4774032E-002  0.4255811E+03  0.7818608E-02  0.1035265E+00
         21   -1    0    0  501  502  0.00000000000E+00  0.00000000000E+00  0.60253984284E+03  0.60253984284E+03  0.00000000000E+00 0. -1.
         21   -1    0    0  502  503 -0.00000000000E+00 -0.00000000000E+00 -0.33778989119E+03  0.33778989119E+03  0.00000000000E+00 0. -1.
    9000005    1    1    2  501    0 -0.13051063393E+03  0.63923955709E+02  0.28839480438E+03  0.51409226883E+03  0.40000000000E+03 0.  1.
   -9000005    1    1    2    0  503  0.13051063393E+03 -0.63923955709E+02 -0.23644852724E+02  0.42623746520E+03  0.40000000000E+03 0.  1.
<mgrwt>
<rscale>  2 0.42558113E+03</rscale>
<asrwt>0</asrwt>
<pdfrwt beam="1">  1       21 0.92698437E-01 0.42558113E+03</pdfrwt>
<pdfrwt beam="2">  1       21 0.51967676E-01 0.42558113E+03</pdfrwt>
<totfact> 0.30267827E+03</totfact>
</mgrwt>
</event>
<event>
 4    1  0.4774032E-002  0.5316218E+03  0.7818608E-02  0.1005840E+00
         21   -1    0    0  501  502  0.00000000000E+00  0.00000000000E+00  0.18194719309E+03  0.18194719309E+03  0.00000000000E+00 0. -1.
         21   -1    0    0  502  503 -0.00000000000E+00 -0.00000000000E+00 -0.18996793138E+04  0.18996793138E+04  0.00000000000E+00 0. -1.
    9000005    1    1    2  501    0 -0.49398574384E+02 -0.34667200610E+03 -0.41444167871E+03  0.67407982021E+03  0.40000000000E+03 0. -1.
   -9000005    1    1    2    0  503  0.49398574384E+02  0.34667200610E+03 -0.13032904420E+04  0.14075466867E+04  0.40000000000E+03 0. -1.
<mgrwt>
<rscale>  2 0.53162176E+03</rscale>
<asrwt>0</asrwt>
<pdfrwt beam="1">  1       21 0.27991874E-01 0.53162176E+03</pdfrwt>
<pdfrwt beam="2">  1       21 0.29225837E+00 0.53162176E+03</pdfrwt>
<totfact> 0.35090611E+02</totfact>
</mgrwt>
</event>
<event>
 4    1  0.4774032E-002  0.7910425E+03  0.7818608E-02  0.9573074E-01
         21   -1    0    0  501  502  0.00000000000E+00  0.00000000000E+00  0.15289944743E+04  0.15289944743E+04  0.00000000000E+00 0.  1.
         21   -1    0    0  502  503 -0.00000000000E+00 -0.00000000000E+00 -0.41557448595E+03  0.41557448595E+03  0.00000000000E+00 0.  1.
    9000005    1    1    2  501    0  0.65053847532E+03  0.20627153389E+03  0.43681022912E+03  0.90363235324E+03  0.40000000000E+03 0.  1.
   -9000005    1    1    2    0  503 -0.65053847532E+03 -0.20627153389E+03  0.67660975927E+03  0.10409366071E+04  0.40000000000E+03 0.  1.
<mgrwt>
<rscale>  2 0.79104251E+03</rscale>
<asrwt>0</asrwt>
<pdfrwt beam="1">  1       21 0.23522992E+00 0.79104251E+03</pdfrwt>
<pdfrwt beam="2">  1       21 0.63934537E-01 0.79104251E+03</pdfrwt>
<totfact> 0.12662290E+02</totfact>
</mgrwt>
</event>
<event>
 4    1  0.4774032E-002  0.4378046E+03  0.7818608E-02  0.1031423E+00
         21   -1    0    0  501  502  0.00000000000E+00  0.00000000000E+00  0.38352525470E+03  0.38352525470E+03  0.00000000000E+00 0.  1.
         21   -1    0    0  502  503 -0.00000000000E+00 -0.00000000000E+00 -0.52712031390E+03  0.52712031390E+03  0.00000000000E+00 0.  1.
    9000005    1    1    2  501    0  0.13843258375E+03  0.11184497731E+03  0.31926047711E+02  0.43896714195E+03  0.40000000000E+03 0. -1.
   -9000005    1    1    2    0  503 -0.13843258375E+03 -0.11184497731E+03 -0.17552110691E+03  0.47167842665E+03  0.40000000000E+03 0. -1.
<mgrwt>
<rscale>  2 0.43780461E+03</rscale>
<asrwt>0</asrwt>
<pdfrwt beam="1">  1       21 0.59003885E-01 0.43780461E+03</pdfrwt>
<pdfrwt beam="2">  1       21 0.81095433E-01 0.43780461E+03</pdfrwt>
<totfact> 0.31351003E+03</totfact>
</mgrwt>
</event>
<event>
 4    1  0.4774032E-002  0.4261588E+03  0.7818608E-02  0.1035080E+00
         21   -1    0    0  503  502  0.00000000000E+00  0.00000000000E+00  0.33088416639E+03  0.33088416639E+03  0.00000000000E+00 0.  1.
         21   -1    0    0  501  503 -0.00000000000E+00 -0.00000000000E+00 -0.55722791992E+03  0.55722791992E+03  0.00000000000E+00 0.  1.
    9000005    1    1    2  501    0 -0.13551130476E+03  0.56990969465E+02 -0.16756668412E+03  0.45791907358E+03  0.40000000000E+03 0. -1.
   -9000005    1    1    2    0  502  0.13551130476E+03 -0.56990969465E+02 -0.58777069409E+02  0.43019301274E+03  0.40000000000E+03 0. -1.
<mgrwt>
<rscale>  2 0.42615875E+03</rscale>
<asrwt>0</asrwt>
<pdfrwt beam="1">  1       21 0.50905257E-01 0.42615875E+03</pdfrwt>
<pdfrwt beam="2">  1       21 0.85727372E-01 0.42615875E+03</pdfrwt>
<totfact> 0.38034224E+03</totfact>
</mgrwt>
</event>
<event>
 4    1  0.4774032E-002  0.4094974E+03  0.7818608E-02  0.1040540E+00
         21   -1    0    0  503  502  0.00000000000E+00  0.00000000000E+00  0.18851082182E+03  0.18851082182E+03  0.00000000000E+00 0. -1.
         21   -1    0    0  501  503 -0.00000000000E+00 -0.00000000000E+00 -0.89979617869E+03  0.89979617869E+03  0.00000000000E+00 0. -1.
    9000005    1    1    2  501    0  0.85107658648E+02 -0.21090809500E+02 -0.41373483582E+03  0.58212082094E+03  0.40000000000E+03 0.  1.
   -9000005    1    1    2    0  502 -0.85107658648E+02  0.21090809500E+02 -0.29755052105E+03  0.50618617957E+03  0.40000000000E+03 0.  1.
<mgrwt>
<rscale>  2 0.40949742E+03</rscale>
<asrwt>0</asrwt>
<pdfrwt beam="1">  1       21 0.29001665E-01 0.40949742E+03</pdfrwt>
<pdfrwt beam="2">  1       21 0.13843018E+00 0.40949742E+03</pdfrwt>
<totfact> 0.36955964E+03</totfact>
</mgrwt>
</event>
<event>
 4    1  0.4774032E-002  0.4115711E+03  0.7818608E-02  0.1039845E+00
         21   -1    0    0  501  502  0.00000000000E+00  0.00000000000E+00  0.37348551974E+03  0.37348551974E+03  0.00000000000E+00 0. -1.
         21   -1    0    0  502  503 -0.00000000000E+00 -0.00000000000E+00 -0.45446063203E+03  0.45446063203E+03  0.00000000000E+00 0. -1.
    9000005    1    1    2  501    0 -0.96905618657E+02  0.21660069894E+00 -0.21858572099E+02  0.41215111672E+03  0.40000000000E+03 0.  1.
   -9000005    1    1    2    0  503  0.96905618657E+02 -0.21660069894E+00 -0.59116540186E+02  0.41579503504E+03  0.40000000000E+03 0.  1.
<mgrwt>
<rscale>  2 0.41157107E+03</rscale>
<asrwt>0</asrwt>
<pdfrwt beam="1">  1       21 0.57459311E-01 0.41157107E+03</pdfrwt>
<pdfrwt beam="2">  1       21 0.69917020E-01 0.41157107E+03</pdfrwt>
<totfact> 0.47024607E+03</totfact>
</mgrwt>
</event>
<event>
 4    1  0.4774032E-002  0.4121016E+03  0.7818608E-02  0.1039668E+00
         21   -1    0    0  503  502  0.00000000000E+00  0.00000000000E+00  0.35502749271E+03  0.35502749271E+03  0.00000000000E+00 0.  1.
         21   -1    0    0  501  503 -0.00000000000E+00 -0.00000000000E+00 -0.78051099609E+03  0.78051099609E+03  0.00000000000E+00 0.  1.
    9000005    1    1    2  501    0 -0.87194141259E+02 -0.47168997396E+02 -0.56600697116E+03  0.70013686090E+03  0.40000000000E+03 0.  1.
   -9000005    1    1    2    0  502  0.87194141259E+02  0.47168997396E+02  0.14052346778E+03  0.43540162791E+03  0.40000000000E+03 0.  1.
<mgrwt>
<rscale>  2 0.41210160E+03</rscale>
<asrwt>0</asrwt>
<pdfrwt beam="1">  1       21 0.54619615E-01 0.41210160E+03</pdfrwt>
<pdfrwt beam="2">  1       21 0.12007861E+00 0.41210160E+03</pdfrwt>
<totfact> 0.14492806E+03</totfact>
</mgrwt>
</event>
<event>
 4    1  0.4774032E-002  0.8111298E+03  0.7818608E-02  0.9544045E-01
         21   -1    0    0  501  502  0.00000000000E+00  0.00000000000E+00  0.93775851313E+03  0.93775851313E+03  0.00000000000E+00 0.  1.
         21   -1    0    0  502  503 -0.00000000000E+00 -0.00000000000E+00 -0.76782297038E+03  0.76782297038E+03  0.00000000000E+00 0.  1.
    9000005    1    1    2  501    0  0.66523225198E+03  0.23536712576E+03 -0.16547894694E+03  0.82783749301E+03  0.40000000000E+03 0.  1.
   -9000005    1    1    2    0  503 -0.66523225198E+03 -0.23536712576E+03  0.33541448969E+03  0.87774399050E+03  0.40000000000E+03 0.  1.
<mgrwt>
<rscale>  2 0.81112985E+03</rscale>
<asrwt>0</asrwt>
<pdfrwt beam="1">  1       21 0.14427054E+00 0.81112985E+03</pdfrwt>
<pdfrwt beam="2">  1       21 0.11812661E+00 0.81112985E+03</pdfrwt>
<totfact> 0.12837624E+02</totfact>
</mgrwt>
</event>
<event>
 4    1  0.4774032E-002  0.4678520E+03  0.7818608E-02  0.1022528E+00
         21   -1    0    0  501  502  0.00000000000E+00  0.00000000000E+00  0.45926853847E+03  0.45926853847E+03  0.00000000000E+00 0. -1.
         21   -1    0    0  502  503 -0.00000000000E+00 -0.00000000000E+00 -0.47748433893E+03  0.47748433893E+03  0.00000000000E+00 0.  1.
    9000005    1    1    2  501    0 -0.83525141715E+02  0.22783556161E+03 -0.29311771269E+02  0.46876931679E+03  0.40000000000E+03 0.  1.
   -9000005    1    1    2    0  503  0.83525141715E+02 -0.22783556161E+03  0.11095970801E+02  0.46798356061E+03  0.40000000000E+03 0.  1.
<mgrwt>
<rscale>  2 0.46785200E+03</rscale>
<asrwt>0</asrwt>
<pdfrwt beam="1">  1       21 0.70656699E-01 0.46785200E+03</pdfrwt>
<pdfrwt beam="2">  1       21 0.73459128E-01 0.46785200E+03</pdfrwt>
<totfact> 0.26084284E+03</totfact>
</mgrwt>
</event>
<event>
 4    1  0.4774032E-002  0.4635800E+03  0.7818608E-02  0.1023748E+00
         21   -1    0    0  501  502  0.00000000000E+00  0.00000000000E+00  0.12659627382E+04  0.12659627382E+04  0.00000000000E+00 0. -1.
         21   -1    0    0  502  503 -0.00000000000E+00 -0.00000000000E+00 -0.19928843745E+03  0.19928843745E+03  0.00000000000E+00 0. -1.
    9000005    1    1    2  501    0  0.30432003157E+02 -0.23233653646E+03  0.81535810027E+03  0.93793134326E+03  0.40000000000E+03 0. -1.
   -9000005    1    1    2    0  503 -0.30432003157E+02  0.23233653646E+03  0.25131620044E+03  0.52731983235E+03  0.40000000000E+03 0. -1.
<mgrwt>
<rscale>  2 0.46357995E+03</rscale>
<asrwt>0</asrwt>
<pdfrwt beam="1">  1       21 0.19476349E+00 0.46357995E+03</pdfrwt>
<pdfrwt beam="2">  1       21 0.30659760E-01 0.46357995E+03</pdfrwt>
<totfact> 0.12367508E+03</totfact>
</mgrwt>
</event>
<event>
 4    1  0.4774032E-002  0.4039538E+03  0.7818608E-02  0.1042419E+00
         21   -1    0    0  503  502  0.00000000000E+00  0.00000000000E+00  0.29185765021E+03  0.29185765021E+03  0.00000000000E+00 0.  1.
         21   -1    0    0  501  503 -0.00000000000E+00 -0.00000000000E+00 -0.57079990810E+03  0.57079990810E+03  0.00000000000E+00 0.  1.
    9000005    1    1    2  501    0  0.56378821616E+02  0.27246358316E+00 -0.77727524334E+02  0.41136384601E+03  0.40000000000E+03 0.  1.
   -9000005    1    1    2    0  502 -0.56378821616E+02 -0.27246358316E+00 -0.20121473355E+03  0.45129371230E+03  0.40000000000E+03 0.  1.
<mgrwt>
<rscale>  2 0.40395377E+03</rscale>
<asrwt>0</asrwt>
<pdfrwt beam="1">  1       21 0.44901178E-01 0.40395377E+03</pdfrwt>
<pdfrwt beam="2">  1       21 0.87815369E-01 0.40395377E+03</pdfrwt>
<totfact> 0.47226905E+03</totfact>
</mgrwt>
</event>
<event>
 4    1  0.4774032E-002  0.4065655E+03  0.7818608E-02  0.1041530E+00
         21   -1    0    0  503  502  0.00000000000E+00  0.00000000000E+00  0.44717303704E+03  0.44717303704E+03  0.00000000000E+00 0.  1.
         21   -1    0    0  501  503 -0.00000000000E+00 -0.00000000000E+00 -0.63549857595E+03  0.63549857595E+03  0.00000000000E+00 0.  1.
    9000005    1    1    2  501    0 -0.59012909929E+02  0.42578718834E+02 -0.44429360734E+03  0.60223938792E+03  0.40000000000E+03 0.  1.
   -9000005    1    1    2    0  502  0.59012909929E+02 -0.42578718834E+02  0.25596806842E+03  0.48043222507E+03  0.40000000000E+03 0.  1.
<mgrwt>
<rscale>  2 0.40656546E+03</rscale>
<asrwt>0</asrwt>
<pdfrwt beam="1">  1       21 0.68795852E-01 0.40656546E+03</pdfrwt>
<pdfrwt beam="2">  1       21 0.97769012E-01 0.40656546E+03</pdfrwt>
<totfact> 0.14539495E+03</totfact>
</mgrwt>
</event>
<event>
 4    1  0.4774032E-002  0.5011539E+03  0.7818608E-02  0.1013478E+00
         21   -1    0    0  503  502  0.00000000000E+00  0.00000000000E+00  0.67200164273E+03  0.67200164273E+03  0.00000000000E+00 0. -1.
         21   -1    0    0  501  503 -0.00000000000E+00 -0.00000000000E+00 -0.55324068820E+03  0.55324068820E+03  0.00000000000E+00 0. -1.
    9000005    1    1    2  501    0 -0.19188747247E+03 -0.23309754733E+03 -0.28957138870E+03  0.57879776936E+03  0.40000000000E+03 0. -1.
   -9000005    1    1    2    0  502  0.19188747247E+03  0.23309754733E+03  0.40833234323E+03  0.64644456157E+03  0.40000000000E+03 0. -1.
<mgrwt>
<rscale>  2 0.50115394E+03</rscale>
<asrwt>0</asrwt>
<pdfrwt beam="1">  1       21 0.10338487E+00 0.50115394E+03</pdfrwt>
<pdfrwt beam="2">  1       21 0.85113953E-01 0.50115394E+03</pdfrwt>
<totfact> 0.74972538E+02</totfact>
</mgrwt>
</event>
<event>
 4    1  0.4774032E-002  0.6810020E+03  0.7818608E-02  0.9750284E-01
         21   -1    0    0  501  502  0.00000000000E+00  0.00000000000E+00  0.11797224943E+04  0.11797224943E+04  0.00000000000E+00 0.  1.
         21   -1    0    0  502  503 -0.00000000000E+00 -0.00000000000E+00 -0.64631678604E+03  0.64631678604E+03  0.00000000000E+00 0.  1.
    9000005    1    1    2  501    0 -0.21662051792E+03  0.50679316848E+03  0.83817208481E+03  0.10799519472E+04  0.40000000000E+03 0.  1.
   -9000005    1    1    2    0  503  0.21662051792E+03 -0.50679316848E+03 -0.30476637658E+03  0.74608733316E+03  0.40000000000E+03 0.  1.
<mgrwt>
<rscale>  2 0.68100203E+03</rscale>
<asrwt>0</asrwt>
<pdfrwt beam="1">  1       21 0.18149577E+00 0.68100203E+03</pdfrwt>
<pdfrwt beam="2">  1       21 0.99433352E-01 0.68100203E+03</pdfrwt>
<totfact> 0.10715275E+02</totfact>
</mgrwt>
</event>
<event>
 4    1  0.4774032E-002  0.4172112E+03  0.7818608E-02  0.1037978E+00
         21   -1    0    0  501  502  0.00000000000E+00  0.00000000000E+00  0.42335134769E+03  0.42335134769E+03  0.00000000000E+00 0. -1.
         21   -1    0    0  502  503 -0.00000000000E+00 -0.00000000000E+00 -0.10012699201E+04  0.10012699201E+04  0.00000000000E+00 0.  1.
    9000005    1    1    2  501    0  0.60852605514E+02 -0.10179460015E+03  0.25788070296E+03  0.49047694867E+03  0.40000000000E+03 0. -1.
   -9000005    1    1    2    0  503 -0.60852605514E+02  0.10179460015E+03 -0.83579927540E+03  0.93414431913E+03  0.40000000000E+03 0.  1.
<mgrwt>
<rscale>  2 0.41721119E+03</rscale>
<asrwt>0</asrwt>
<pdfrwt beam="1">  1       21 0.65130977E-01 0.41721119E+03</pdfrwt>
<pdfrwt beam="2">  1       21 0.15404152E+00 0.41721119E+03</pdfrwt>
<totfact> 0.51130035E+02</totfact>
</mgrwt>
</event>
<event>
 4    1  0.4774032E-002  0.4636184E+03  0.7818608E-02  0.1023737E+00
         21   -1    0    0  501  502  0.00000000000E+00  0.00000000000E+00  0.21422115848E+03  0.21422115848E+03  0.00000000000E+00 0. -1.
         21   -1    0    0  502  503 -0.00000000000E+00 -0.00000000000E+00 -0.12048760641E+04  0.12048760641E+04  0.00000000000E+00 0.  1.
    9000005    1    1    2  501    0 -0.90003419286E+02 -0.21642882936E+03 -0.20515230925E+03  0.50698079219E+03  0.40000000000E+03 0. -1.
   -9000005    1    1    2    0  503  0.90003419286E+02  0.21642882936E+03 -0.78550259632E+03  0.91211643034E+03  0.40000000000E+03 0.  1.
<mgrwt>
<rscale>  2 0.46361844E+03</rscale>
<asrwt>0</asrwt>
<pdfrwt beam="1">  1       21 0.32957102E-01 0.46361844E+03</pdfrwt>
<pdfrwt beam="2">  1       21 0.18536554E+00 0.46361844E+03</pdfrwt>
<totfact> 0.12411646E+03</totfact>
</mgrwt>
</event>
<event>
 4    1  0.4774032E-002  0.4455921E+03  0.7818608E-02  0.1029045E+00
         21   -1    0    0  501  502  0.00000000000E+00  0.00000000000E+00  0.66005911264E+03  0.66005911264E+03  0.00000000000E+00 0.  1.
         21   -1    0    0  502  503 -0.00000000000E+00 -0.00000000000E+00 -0.43929595772E+03  0.43929595772E+03  0.00000000000E+00 0.  1.
    9000005    1    1    2  501    0 -0.19296458297E+03  0.36290127707E+02  0.41900752716E+03  0.61165317907E+03  0.40000000000E+03 0.  1.
   -9000005    1    1    2    0  503  0.19296458297E+03 -0.36290127707E+02 -0.19824437224E+03  0.48770189129E+03  0.40000000000E+03 0.  1.
<mgrwt>
<rscale>  2 0.44559208E+03</rscale>
<asrwt>0</asrwt>
<pdfrwt beam="1">  1       21 0.10154756E+00 0.44559208E+03</pdfrwt>
<pdfrwt beam="2">  1       21 0.67583994E-01 0.44559208E+03</pdfrwt>
<totfact> 0.13577728E+03</totfact>
</mgrwt>
</event>
<event>
 4    1  0.4774032E-002  0.4884195E+03  0.7818608E-02  0.1016847E+00
         21   -1    0    0  503  502  0.00000000000E+00  0.00000000000E+00  0.20936362806E+03  0.20936362806E+03  0.00000000000E+00 0. -1.
         21   -1    0    0  501  503 -0.00000000000E+00 -0.00000000000E+00 -0.11495661839E+04  0.11495661839E+04  0.00000000000E+00 0.  1.
    9000005    1    1    2  501    0 -0.50392385875E+02  0.27570680229E+03 -0.53392724345E+03  0.72362416673E+03  0.40000000000E+03 0. -1.
   -9000005    1    1    2    0  502  0.50392385875E+02 -0.27570680229E+03 -0.40627531235E+03  0.63530564519E+03  0.40000000000E+03 0. -1.
<mgrwt>
<rscale>  2 0.48841953E+03</rscale>
<asrwt>0</asrwt>
<pdfrwt beam="1">  1       21 0.32209788E-01 0.48841953E+03</pdfrwt>
<pdfrwt beam="2">  1       21 0.17685634E+00 0.48841953E+03</pdfrwt>
<totfact> 0.14768085E+03</totfact>
</mgrwt>
</event>
<event>
 4    1  0.4774032E-002  0.4085452E+03  0.7818608E-02  0.1040860E+00
         21   -1    0    0  501  502  0.00000000000E+00  0.00000000000E+00  0.41162228861E+03  0.41162228861E+03  0.00000000000E+00 0. -1.
         21   -1    0    0  502  503 -0.00000000000E+00 -0.00000000000E+00 -0.40552178476E+03  0.40552178476E+03  0.00000000000E+00 0. -1.
    9000005    1    1    2  501    0 -0.44894445023E+01 -0.82999977844E+02 -0.50704947997E+00  0.40854547915E+03  0.40000000000E+03 0. -1.
   -9000005    1    1    2    0  503  0.44894445023E+01  0.82999977844E+02  0.66075533284E+01  0.40859859422E+03  0.40000000000E+03 0. -1.
<mgrwt>
<rscale>  2 0.40854516E+03</rscale>
<asrwt>0</asrwt>
<pdfrwt beam="1">  1       21 0.63326506E-01 0.40854516E+03</pdfrwt>
<pdfrwt beam="2">  1       21 0.62387967E-01 0.40854516E+03</pdfrwt>
<totfact> 0.49023080E+03</totfact>
</mgrwt>
</event>
<event>
 4    1  0.4774032E-002  0.5206950E+03  0.7818608E-02  0.1008514E+00
         21   -1    0    0  501  502  0.00000000000E+00  0.00000000000E+00  0.23736449394E+04  0.23736449394E+04  0.00000000000E+00 0. -1.
         21   -1    0    0  502  503 -0.00000000000E+00 -0.00000000000E+00 -0.23988709382E+03  0.23988709382E+03  0.00000000000E+00 0. -1.
    9000005    1    1    2  501    0 -0.24949708747E+02 -0.33241655933E+03  0.20126829284E+04  0.20789458451E+04  0.40000000000E+03 0. -1.
   -9000005    1    1    2    0  503  0.24949708747E+02  0.33241655933E+03  0.12107491717E+03  0.53458618805E+03  0.40000000000E+03 0. -1.
<mgrwt>
<rscale>  2 0.52069497E+03</rscale>
<asrwt>0</asrwt>
<pdfrwt beam="1">  1       21 0.36517613E+00 0.52069497E+03</pdfrwt>
<pdfrwt beam="2">  1       21 0.36905708E-01 0.52069497E+03</pdfrwt>
<totfact> 0.72512264E+01</totfact>
</mgrwt>
</event>
<event>
 4    1  0.4774032E-002  0.5091468E+03  0.7818608E-02  0.1011419E+00
         21   -1    0    0  501  502  0.00000000000E+00  0.00000000000E+00  0.72447839117E+03  0.72447839117E+03  0.00000000000E+00 0. -1.
         21   -1    0    0  502  503 -0.00000000000E+00 -0.00000000000E+00 -0.10321216399E+04  0.10321216399E+04  0.00000000000E+00 0.  1.
    9000005    1    1    2  501    0 -0.97910305247E+02 -0.29940613247E+03  0.55609218197E+03  0.75396881559E+03  0.40000000000E+03 0. -1.
   -9000005    1    1    2    0  503  0.97910305247E+02  0.29940613247E+03 -0.86373543074E+03  0.10026312155E+04  0.40000000000E+03 0.  1.
<mgrwt>
<rscale>  2 0.50914680E+03</rscale>
<asrwt>0</asrwt>
<pdfrwt beam="1">  1       21 0.11145821E+00 0.50914680E+03</pdfrwt>
<pdfrwt beam="2">  1       21 0.15878794E+00 0.50914680E+03</pdfrwt>
<totfact> 0.12726621E+02</totfact>
</mgrwt>
</event>
<event>
 4    1  0.4774032E-002  0.4248401E+03  0.7818608E-02  0.1035502E+00
         21   -1    0    0  503  502  0.00000000000E+00  0.00000000000E+00  0.26494063572E+03  0.26494063572E+03  0.00000000000E+00 0.  1.
         21   -1    0    0  501  503 -0.00000000000E+00 -0.00000000000E+00 -0.14551949589E+04  0.14551949589E+04  0.00000000000E+00 0. -1.
    9000005    1    1    2  501    0  0.10487305400E+03  0.97420432550E+02 -0.12223602275E+04  0.12940840869E+04  0.40000000000E+03 0.  1.
   -9000005    1    1    2    0  502 -0.10487305400E+03 -0.97420432550E+02  0.32105904338E+02  0.42605150772E+03  0.40000000000E+03 0. -1.
<mgrwt>
<rscale>  2 0.42484009E+03</rscale>
<asrwt>0</asrwt>
<pdfrwt beam="1">  1       21 0.40760098E-01 0.42484009E+03</pdfrwt>
<pdfrwt beam="2">  1       21 0.22387615E+00 0.42484009E+03</pdfrwt>
<totfact> 0.45667615E+02</totfact>
</mgrwt>
</event>
<event>
 4    1  0.4774032E-002  0.6469744E+03  0.7818608E-02  0.9812473E-01
         21   -1    0    0  501  502  0.00000000000E+00  0.00000000000E+00  0.80380298545E+03  0.80380298545E+03  0.00000000000E+00 0.  1.
         21   -1    0    0  502  503 -0.00000000000E+00 -0.00000000000E+00 -0.72291243229E+03  0.72291243229E+03  0.00000000000E+00 0.  1.
    9000005    1    1    2  501    0 -0.25986615690E+03  0.43708741549E+03  0.44412932754E+03  0.78474625699E+03  0.40000000000E+03 0.  1.
   -9000005    1    1    2    0  503  0.25986615690E+03 -0.43708741549E+03 -0.36323877439E+03  0.74196916075E+03  0.40000000000E+03 0.  1.
<mgrwt>
<rscale>  2 0.64697436E+03</rscale>
<asrwt>0</asrwt>
<pdfrwt beam="1">  1       21 0.12366200E+00 0.64697436E+03</pdfrwt>
<pdfrwt beam="2">  1       21 0.11121730E+00 0.64697436E+03</pdfrwt>
<totfact> 0.23682843E+02</totfact>
</mgrwt>
</event>
<event>
 4    1  0.4774032E-002  0.5180048E+03  0.7818608E-02  0.1009183E+00
         21   -1    0    0  501  502  0.00000000000E+00  0.00000000000E+00  0.28731897739E+03  0.28731897739E+03  0.00000000000E+00 0. -1.
         21   -1    0    0  502  503 -0.00000000000E+00 -0.00000000000E+00 -0.15933052120E+04  0.15933052120E+04  0.00000000000E+00 0. -1.
    9000005    1    1    2  501    0 -0.17661051955E+03  0.27773670837E+03 -0.48074846126E+02  0.52023085801E+03  0.40000000000E+03 0. -1.
   -9000005    1    1    2    0  503  0.17661051955E+03 -0.27773670837E+03 -0.12579113885E+04  0.13603933314E+04  0.40000000000E+03 0. -1.
<mgrwt>
<rscale>  2 0.51800478E+03</rscale>
<asrwt>0</asrwt>
<pdfrwt beam="1">  1       21 0.44202920E-01 0.51800478E+03</pdfrwt>
<pdfrwt beam="2">  1       21 0.24512388E+00 0.51800478E+03</pdfrwt>
<totfact> 0.27076959E+02</totfact>
</mgrwt>
</event>
<event>
 4    1  0.4774032E-002  0.4396574E+03  0.7818608E-02  0.1030852E+00
         21   -1    0    0  501  502  0.00000000000E+00  0.00000000000E+00  0.18314467653E+04  0.18314467653E+04  0.00000000000E+00 0. -1.
         21   -1    0    0  502  503 -0.00000000000E+00 -0.00000000000E+00 -0.11006318380E+03  0.11006318380E+03  0.00000000000E+00 0. -1.
    9000005    1    1    2  501    0  0.10303614443E+03  0.15060619042E+03  0.10573928386E+04  0.11451542633E+04  0.40000000000E+03 0. -1.
   -9000005    1    1    2    0  503 -0.10303614443E+03 -0.15060619042E+03  0.66399074291E+03  0.79635568581E+03  0.40000000000E+03 0. -1.
<mgrwt>
<rscale>  2 0.43965745E+03</rscale>
<asrwt>0</asrwt>
<pdfrwt beam="1">  1       21 0.28176102E+00 0.43965745E+03</pdfrwt>
<pdfrwt beam="2">  1       21 0.16932799E-01 0.43965745E+03</pdfrwt>
<totfact> 0.11183037E+03</totfact>
</mgrwt>
</event>
<event>
 4    1  0.4774032E-002  0.4168527E+03  0.7818608E-02  0.1038096E+00
         21   -1    0    0  503  502  0.00000000000E+00  0.00000000000E+00  0.29042914865E+03  0.29042914865E+03  0.00000000000E+00 0. -1.
         21   -1    0    0  501  503 -0.00000000000E+00 -0.00000000000E+00 -0.71212772227E+03  0.71212772227E+03  0.00000000000E+00 0. -1.
    9000005    1    1    2  501    0 -0.94529038580E+02 -0.69501450141E+02 -0.41125409148E+03  0.58557332459E+03  0.40000000000E+03 0. -1.
   -9000005    1    1    2    0  502  0.94529038580E+02  0.69501450141E+02 -0.10444482132E+02  0.41698354633E+03  0.40000000000E+03 0. -1.
<mgrwt>
<rscale>  2 0.41685272E+03</rscale>
<asrwt>0</asrwt>
<pdfrwt beam="1">  1       21 0.44681408E-01 0.41685272E+03</pdfrwt>
<pdfrwt beam="2">  1       21 0.10955811E+00 0.41685272E+03</pdfrwt>
<totfact> 0.27841669E+03</totfact>
</mgrwt>
</event>
<event>
 4    1  0.4774032E-002  0.5559577E+03  0.7818608E-02  0.1000124E+00
         21   -1    0    0  501  502  0.00000000000E+00  0.00000000000E+00  0.54937208191E+03  0.54937208191E+03  0.00000000000E+00 0. -1.
         21   -1    0    0  502  503 -0.00000000000E+00 -0.00000000000E+00 -0.81007183904E+03  0.81007183904E+03  0.00000000000E+00 0. -1.
    9000005    1    1    2  501    0 -0.29331468085E+03 -0.25110848900E+03  0.24532562127E+03  0.60767889194E+03  0.40000000000E+03 0. -1.
   -9000005    1    1    2    0  503  0.29331468085E+03  0.25110848900E+03 -0.50602537840E+03  0.75176502901E+03  0.40000000000E+03 0. -1.
<mgrwt>
<rscale>  2 0.55595771E+03</rscale>
<asrwt>0</asrwt>
<pdfrwt beam="1">  1       21 0.84518782E-01 0.55595771E+03</pdfrwt>
<pdfrwt beam="2">  1       21 0.12462644E+00 0.55595771E+03</pdfrwt>
<totfact> 0.46682769E+02</totfact>
</mgrwt>
</event>
<event>
 4    1  0.4774032E-002  0.6770968E+03  0.7818608E-02  0.9757222E-01
         21   -1    0    0  501  502  0.00000000000E+00  0.00000000000E+00  0.59275669302E+03  0.59275669302E+03  0.00000000000E+00 0. -1.
         21   -1    0    0  502  503 -0.00000000000E+00 -0.00000000000E+00 -0.78285545947E+03  0.78285545947E+03  0.00000000000E+00 0.  1.
    9000005    1    1    2  501    0  0.23234956021E+03 -0.49444283659E+03 -0.17049119382E+03  0.69823154036E+03  0.40000000000E+03 0.  1.
   -9000005    1    1    2    0  503 -0.23234956021E+03  0.49444283659E+03 -0.19607572638E+02  0.67738061213E+03  0.40000000000E+03 0. -1.
<mgrwt>
<rscale>  2 0.67709677E+03</rscale>
<asrwt>0</asrwt>
<pdfrwt beam="1">  1       21 0.91193338E-01 0.67709677E+03</pdfrwt>
<pdfrwt beam="2">  1       21 0.12043930E+00 0.67709677E+03</pdfrwt>
<totfact> 0.40912680E+02</totfact>
</mgrwt>
</event>
<event>
 4    1  0.4774032E-002  0.5176412E+03  0.7818608E-02  0.1009274E+00
         21   -1    0    0  503  502  0.00000000000E+00  0.00000000000E+00  0.84586303175E+03  0.84586303175E+03  0.00000000000E+00 0. -1.
         21   -1    0    0  501  503 -0.00000000000E+00 -0.00000000000E+00 -0.32412757879E+03  0.32412757879E+03  0.00000000000E+00 0. -1.
    9000005    1    1    2  501    0  0.12220988501E+03  0.30498718395E+03  0.17278954078E+03  0.54571848399E+03  0.40000000000E+03 0. -1.
   -9000005    1    1    2    0  502 -0.12220988501E+03 -0.30498718395E+03  0.34894591218E+03  0.62427212655E+03  0.40000000000E+03 0. -1.
<mgrwt>
<rscale>  2 0.51764123E+03</rscale>
<asrwt>0</asrwt>
<pdfrwt beam="1">  1       21 0.13013277E+00 0.51764123E+03</pdfrwt>
<pdfrwt beam="2">  1       21 0.49865782E-01 0.51764123E+03</pdfrwt>
<totfact> 0.13744981E+03</totfact>
</mgrwt>
</event>
<event>
 4    1  0.4774032E-002  0.5238492E+03  0.7818608E-02  0.1007735E+00
         21   -1    0    0  501  502  0.00000000000E+00  0.00000000000E+00  0.17688843347E+04  0.17688843347E+04  0.00000000000E+00 0. -1.
         21   -1    0    0  502  503 -0.00000000000E+00 -0.00000000000E+00 -0.26496932434E+03  0.26496932434E+03  0.00000000000E+00 0. -1.
    9000005    1    1    2  501    0 -0.33371130653E+03  0.55270023372E+02  0.14066819491E+04  0.15010570001E+04  0.40000000000E+03 0. -1.
   -9000005    1    1    2    0  503  0.33371130653E+03 -0.55270023372E+02  0.97233061274E+02  0.53279665896E+03  0.40000000000E+03 0. -1.
<mgrwt>
<rscale>  2 0.52384923E+03</rscale>
<asrwt>0</asrwt>
<pdfrwt beam="1">  1       21 0.27213604E+00 0.52384923E+03</pdfrwt>
<pdfrwt beam="2">  1       21 0.40764513E-01 0.52384923E+03</pdfrwt>
<totfact> 0.21815075E+02</totfact>
</mgrwt>
</event>
<event>
 4    1  0.4774032E-002  0.6093577E+03  0.7818608E-02  0.9886180E-01
         21   -1    0    0  501  502  0.00000000000E+00  0.00000000000E+00  0.20206675097E+03  0.20206675097E+03  0.00000000000E+00 0.  1.
         21   -1    0    0  502  503 -0.00000000000E+00 -0.00000000000E+00 -0.18379721122E+04  0.18379721122E+04  0.00000000000E+00 0. -1.
    9000005    1    1    2  501    0  0.45940977791E+03 -0.16106667035E+02 -0.83257139626E+03  0.10317421667E+04  0.40000000000E+03 0. -1.
   -9000005    1    1    2    0  503 -0.45940977791E+03  0.16106667035E+02 -0.80333396496E+03  0.10082966964E+04  0.40000000000E+03 0.  1.
<mgrwt>
<rscale>  2 0.60935767E+03</rscale>
<asrwt>0</asrwt>
<pdfrwt beam="1">  1       21 0.31087193E-01 0.60935767E+03</pdfrwt>
<pdfrwt beam="2">  1       21 0.28276494E+00 0.60935767E+03</pdfrwt>
<totfact> 0.31409653E+02</totfact>
</mgrwt>
</event>
<event>
 4    1  0.4774032E-002  0.4387775E+03  0.7818608E-02  0.1031123E+00
         21   -1    0    0  503  502  0.00000000000E+00  0.00000000000E+00  0.18841747515E+04  0.18841747515E+04  0.00000000000E+00 0.  1.
         21   -1    0    0  501  503 -0.00000000000E+00 -0.00000000000E+00 -0.19018020835E+03  0.19018020835E+03  0.00000000000E+00 0.  1.
    9000005    1    1    2  501    0  0.17531721401E+03 -0.42303101916E+02  0.14147398933E+03  0.46102122252E+03  0.40000000000E+03 0.  1.
   -9000005    1    1    2    0  502 -0.17531721401E+03  0.42303101916E+02  0.15525205538E+04  0.16133337373E+04  0.40000000000E+03 0.  1.
<mgrwt>
<rscale>  2 0.43877748E+03</rscale>
<asrwt>0</asrwt>
<pdfrwt beam="1">  1       21 0.28987303E+00 0.43877748E+03</pdfrwt>
<pdfrwt beam="2">  1       21 0.29258495E-01 0.43877748E+03</pdfrwt>
<totfact> 0.34922828E+02</totfact>
</mgrwt>
</event>
<event>
 4    1  0.4774032E-002  0.4520522E+03  0.7818608E-02  0.1027112E+00
         21   -1    0    0  503  502  0.00000000000E+00  0.00000000000E+00  0.37798546415E+03  0.37798546415E+03  0.00000000000E+00 0. -1.
         21   -1    0    0  501  503 -0.00000000000E+00 -0.00000000000E+00 -0.99915021845E+03  0.99915021845E+03  0.00000000000E+00 0. -1.
    9000005    1    1    2  501    0 -0.20984006547E+03 -0.17841914980E+02 -0.77703705483E+03  0.89896483334E+03  0.40000000000E+03 0. -1.
   -9000005    1    1    2    0  502  0.20984006547E+03  0.17841914980E+02  0.15587230053E+03  0.47817084926E+03  0.40000000000E+03 0. -1.
<mgrwt>
<rscale>  2 0.45205220E+03</rscale>
<asrwt>0</asrwt>
<pdfrwt beam="1">  1       21 0.58151611E-01 0.45205220E+03</pdfrwt>
<pdfrwt beam="2">  1       21 0.15371542E+00 0.45205220E+03</pdfrwt>
<totfact> 0.64908817E+02</totfact>
</mgrwt>
</event>
<event>
 4    1  0.4774032E-002  0.4051180E+03  0.7818608E-02  0.1042022E+00
         21   -1    0    0  501  502  0.00000000000E+00  0.00000000000E+00  0.31888760330E+03  0.31888760330E+03  0.00000000000E+00 0.  1.
         21   -1    0    0  502  503 -0.00000000000E+00 -0.00000000000E+00 -0.51706164389E+03  0.51706164389E+03  0.00000000000E+00 0.  1.
    9000005    1    1    2  501    0 -0.41499793354E+02 -0.48973452395E+02 -0.12753706011E+03  0.42471912317E+03  0.40000000000E+03 0. -1.
   -9000005    1    1    2    0  503  0.41499793354E+02  0.48973452395E+02 -0.70636980483E+02  0.41123012402E+03  0.40000000000E+03 0. -1.
<mgrwt>
<rscale>  2 0.40511805E+03</rscale>
<asrwt>0</asrwt>
<pdfrwt beam="1">  1       21 0.49059632E-01 0.40511805E+03</pdfrwt>
<pdfrwt beam="2">  1       21 0.79547944E-01 0.40511805E+03</pdfrwt>
<totfact> 0.49314592E+03</totfact>
</mgrwt>
</event>
<event>
 4    1  0.4774032E-002  0.5836869E+03  0.7818608E-02  0.9939841E-01
         21   -1    0    0  501  502  0.00000000000E+00  0.00000000000E+00  0.30010723447E+03  0.30010723447E+03  0.00000000000E+00 0.  1.
         21   -1    0    0  502  503 -0.00000000000E+00 -0.00000000000E+00 -0.15915544965E+04  0.15915544965E+04  0.00000000000E+00 0. -1.
    9000005    1    1    2  501    0 -0.45906409088E+02  0.42259086801E+03 -0.13926953741E+03  0.60007203249E+03  0.40000000000E+03 0.  1.
   -9000005    1    1    2    0  503  0.45906409088E+02 -0.42259086801E+03 -0.11521777247E+04  0.12915896985E+04  0.40000000000E+03 0. -1.
<mgrwt>
<rscale>  2 0.58368694E+03</rscale>
<asrwt>0</asrwt>
<pdfrwt beam="1">  1       21 0.46170344E-01 0.58368694E+03</pdfrwt>
<pdfrwt beam="2">  1       21 0.24485454E+00 0.58368694E+03</pdfrwt>
<totfact> 0.24081892E+02</totfact>
</mgrwt>
</event>
<event>
 4    1  0.4774032E-002  0.4473067E+03  0.7818608E-02  0.1028528E+00
         21   -1    0    0  501  502  0.00000000000E+00  0.00000000000E+00  0.12316781846E+04  0.12316781846E+04  0.00000000000E+00 0. -1.
         21   -1    0    0  502  503 -0.00000000000E+00 -0.00000000000E+00 -0.16487331105E+03  0.16487331105E+03  0.00000000000E+00 0. -1.
    9000005    1    1    2  501    0  0.16060098087E+03  0.11954338522E+03  0.44870665249E+03  0.63357790049E+03  0.40000000000E+03 0.  1.
   -9000005    1    1    2    0  503 -0.16060098087E+03 -0.11954338522E+03  0.61809822103E+03  0.76297359512E+03  0.40000000000E+03 0.  1.
<mgrwt>
<rscale>  2 0.44730671E+03</rscale>
<asrwt>0</asrwt>
<pdfrwt beam="1">  1       21 0.18948895E+00 0.44730671E+03</pdfrwt>
<pdfrwt beam="2">  1       21 0.25365126E-01 0.44730671E+03</pdfrwt>
<totfact> 0.19654789E+03</totfact>
</mgrwt>
</event>
<event>
 4    1  0.4774032E-002  0.4316917E+03  0.7818608E-02  0.1033327E+00
         21   -1    0    0  503  502  0.00000000000E+00  0.00000000000E+00  0.16841184401E+03  0.16841184401E+03  0.00000000000E+00 0. -1.
         21   -1    0    0  501  503 -0.00000000000E+00 -0.00000000000E+00 -0.16561577197E+04  0.16561577197E+04  0.00000000000E+00 0. -1.
    9000005    1    1    2  501    0  0.49324845688E+02  0.15467633013E+03 -0.12694087130E+04  0.13408043065E+04  0.40000000000E+03 0. -1.
   -9000005    1    1    2    0  502 -0.49324845688E+02 -0.15467633013E+03 -0.21833716262E+03  0.48376525721E+03  0.40000000000E+03 0. -1.
<mgrwt>
<rscale>  2 0.43169168E+03</rscale>
<asrwt>0</asrwt>
<pdfrwt beam="1">  1       21 0.25909515E-01 0.43169168E+03</pdfrwt>
<pdfrwt beam="2">  1       21 0.25479349E+00 0.43169168E+03</pdfrwt>
<totfact> 0.72544598E+02</totfact>
</mgrwt>
</event>
<event>
 4    1  0.4774032E-002  0.4137779E+03  0.7818608E-02  0.1039111E+00
         21   -1    0    0  501  502  0.00000000000E+00  0.00000000000E+00  0.10000211893E+03  0.10000211893E+03  0.00000000000E+00 0. -1.
         21   -1    0    0  502  503 -0.00000000000E+00 -0.00000000000E+00 -0.22655430391E+04  0.22655430391E+04  0.00000000000E+00 0. -1.
    9000005    1    1    2  501    0  0.83928952854E+02  0.64560796196E+02 -0.49817250633E+03  0.64760173841E+03  0.40000000000E+03 0. -1.
   -9000005    1    1    2    0  503 -0.83928952854E+02 -0.64560796196E+02 -0.16673684139E+04  0.17179434197E+04  0.40000000000E+03 0. -1.
<mgrwt>
<rscale>  2 0.41377792E+03</rscale>
<asrwt>0</asrwt>
<pdfrwt beam="1">  1       21 0.15384942E-01 0.41377792E+03</pdfrwt>
<pdfrwt beam="2">  1       21 0.34854506E+00 0.41377792E+03</pdfrwt>
<totfact> 0.53707890E+02</totfact>
</mgrwt>
</event>
<event>
 4    1  0.4774032E-002  0.4660653E+03  0.7818608E-02  0.1023037E+00
         21   -1    0    0  503  502  0.00000000000E+00  0.00000000000E+00  0.22677872829E+03  0.22677872829E+03  0.00000000000E+00 0. -1.
         21   -1    0    0  501  503 -0.00000000000E+00 -0.00000000000E+00 -0.99207402580E+03  0.99207402580E+03  0.00000000000E+00 0. -1.
    9000005    1    1    2  501    0  0.22521533335E+02  0.23813794131E+03 -0.49586204311E+03  0.68051161956E+03  0.40000000000E+03 0. -1.
   -9000005    1    1    2    0  502 -0.22521533335E+02 -0.23813794131E+03 -0.26943325440E+03  0.53834113453E+03  0.40000000000E+03 0. -1.
<mgrwt>
<rscale>  2 0.46606534E+03</rscale>
<asrwt>0</asrwt>
<pdfrwt beam="1">  1       21 0.34889035E-01 0.46606534E+03</pdfrwt>
<pdfrwt beam="2">  1       21 0.15262678E+00 0.46606534E+03</pdfrwt>
<totfact> 0.19213284E+03</totfact>
</mgrwt>
</event>
<event>
 4    1  0.4774032E-002  0.4114254E+03  0.7818608E-02  0.1039894E+00
         21   -1    0    0  503  502  0.00000000000E+00  0.00000000000E+00  0.98937369195E+03  0.98937369195E+03  0.00000000000E+00 0. -1.
         21   -1    0    0  501  503 -0.00000000000E+00 -0.00000000000E+00 -0.17663617442E+03  0.17663617442E+03  0.00000000000E+00 0. -1.
    9000005    1    1    2  501    0 -0.12406612188E+01 -0.96277235720E+02  0.30305154721E+03  0.51099029896E+03  0.40000000000E+03 0. -1.
   -9000005    1    1    2    0  502  0.12406612188E+01  0.96277235720E+02  0.50968597032E+03  0.65501956741E+03  0.40000000000E+03 0. -1.
<mgrwt>
<rscale>  2 0.41142538E+03</rscale>
<asrwt>0</asrwt>
<pdfrwt beam="1">  1       21 0.15221133E+00 0.41142538E+03</pdfrwt>
<pdfrwt beam="2">  1       21 0.27174797E-01 0.41142538E+03</pdfrwt>
<totfact> 0.32541519E+03</totfact>
</mgrwt>
</event>
<event>
 4    1  0.4774032E-002  0.5269615E+03  0.7818608E-02  0.1006972E+00
         21   -1    0    0  503  502  0.00000000000E+00  0.00000000000E+00  0.19438118220E+04  0.19438118220E+04  0.00000000000E+00 0.  1.
         21   -1    0    0  501  503 -0.00000000000E+00 -0.00000000000E+00 -0.29807658971E+03  0.29807658971E+03  0.00000000000E+00 0.  1.
    9000005    1    1    2  501    0  0.24265207918E+03 -0.24250431858E+03  0.13972100935E+02  0.52714665480E+03  0.40000000000E+03 0.  1.
   -9000005    1    1    2    0  502 -0.24265207918E+03  0.24250431858E+03  0.16317631313E+04  0.17147417569E+04  0.40000000000E+03 0.  1.
<mgrwt>
<rscale>  2 0.52696146E+03</rscale>
<asrwt>0</asrwt>
<pdfrwt beam="1">  1       21 0.29904796E+00 0.52696146E+03</pdfrwt>
<pdfrwt beam="2">  1       21 0.45857938E-01 0.52696146E+03</pdfrwt>
<totfact> 0.11694212E+02</totfact>
</mgrwt>
</event>
<event>
 4    1  0.4774032E-002  0.5435742E+03  0.7818608E-02  0.1002992E+00
         21   -1    0    0  503  502  0.00000000000E+00  0.00000000000E+00  0.10392436123E+04  0.10392436123E+04  0.00000000000E+00 0.  1.
         21   -1    0    0  501  503 -0.00000000000E+00 -0.00000000000E+00 -0.41255575503E+03  0.41255575503E+03  0.00000000000E+00 0.  1.
    9000005    1    1    2  501    0  0.82280565349E+02  0.35875181206E+03 -0.91369535764E+02  0.55119991488E+03  0.40000000000E+03 0.  1.
   -9000005    1    1    2    0  502 -0.82280565349E+02 -0.35875181206E+03  0.71805739305E+03  0.90059945248E+03  0.40000000000E+03 0.  1.
<mgrwt>
<rscale>  2 0.54357424E+03</rscale>
<asrwt>0</asrwt>
<pdfrwt beam="1">  1       21 0.15988363E+00 0.54357424E+03</pdfrwt>
<pdfrwt beam="2">  1       21 0.63470117E-01 0.54357424E+03</pdfrwt>
<totfact> 0.46209759E+02</totfact>
</mgrwt>
</event>
<event>
 4    1  0.4774032E-002  0.4451115E+03  0.7818608E-02  0.1029190E+00
         21   -1    0    0  503  502  0.00000000000E+00  0.00000000000E+00  0.22807358843E+03  0.22807358843E+03  0.00000000000E+00 0.  1.
         21   -1    0    0  501  503 -0.00000000000E+00 -0.00000000000E+00 -0.11527945428E+04  0.11527945428E+04  0.00000000000E+00 0.  1.
    9000005    1    1    2  501    0  0.18156356047E+03 -0.71825396674E+02 -0.80511942479E+03  0.91996820721E+03  0.40000000000E+03 0. -1.
   -9000005    1    1    2    0  502 -0.18156356047E+03  0.71825396674E+02 -0.11960152960E+03  0.46089992404E+03  0.40000000000E+03 0. -1.
<mgrwt>
<rscale>  2 0.44511146E+03</rscale>
<asrwt>0</asrwt>
<pdfrwt beam="1">  1       21 0.35088244E-01 0.44511146E+03</pdfrwt>
<pdfrwt beam="2">  1       21 0.17735301E+00 0.44511146E+03</pdfrwt>
<totfact> 0.12551600E+03</totfact>
</mgrwt>
</event>
<event>
 4    1  0.4774032E-002  0.4733801E+03  0.7818608E-02  0.1020971E+00
         21   -1    0    0  501  502  0.00000000000E+00  0.00000000000E+00  0.18103946845E+03  0.18103946845E+03  0.00000000000E+00 0.  1.
         21   -1    0    0  502  503 -0.00000000000E+00 -0.00000000000E+00 -0.13440202619E+04  0.13440202619E+04  0.00000000000E+00 0.  1.
    9000005    1    1    2  501    0 -0.50826307159E+02 -0.24800283412E+03 -0.36711275913E+03  0.59904966167E+03  0.40000000000E+03 0.  1.
   -9000005    1    1    2    0  503  0.50826307159E+02  0.24800283412E+03 -0.79586803430E+03  0.92601006865E+03  0.40000000000E+03 0.  1.
<mgrwt>
<rscale>  2 0.47338010E+03</rscale>
<asrwt>0</asrwt>
<pdfrwt beam="1">  1       21 0.27852227E-01 0.47338010E+03</pdfrwt>
<pdfrwt beam="2">  1       21 0.20677234E+00 0.47338010E+03</pdfrwt>
<totfact> 0.12388692E+03</totfact>
</mgrwt>
</event>
<event>
 4    1  0.4774032E-002  0.4218790E+03  0.7818608E-02  0.1036456E+00
         21   -1    0    0  501  502  0.00000000000E+00  0.00000000000E+00  0.17034667034E+04  0.17034667034E+04  0.00000000000E+00 0.  1.
         21   -1    0    0  502  503 -0.00000000000E+00 -0.00000000000E+00 -0.11419978425E+03  0.11419978425E+03  0.00000000000E+00 0.  1.
    9000005    1    1    2  501    0 -0.33144234604E+02  0.12993590211E+03  0.52952008584E+03  0.67703279112E+03  0.40000000000E+03 0.  1.
   -9000005    1    1    2    0  503  0.33144234604E+02 -0.12993590211E+03  0.10597468333E+04  0.11406336966E+04  0.40000000000E+03 0.  1.
<mgrwt>
<rscale>  2 0.42187899E+03</rscale>
<asrwt>0</asrwt>
<pdfrwt beam="1">  1       21 0.26207178E+00 0.42187899E+03</pdfrwt>
<pdfrwt beam="2">  1       21 0.17569199E-01 0.42187899E+03</pdfrwt>
<totfact> 0.13849115E+03</totfact>
</mgrwt>
</event>
<event>
 4    1  0.4774032E-002  0.5004584E+03  0.7818608E-02  0.1013659E+00
         21   -1    0    0  503  502  0.00000000000E+00  0.00000000000E+00  0.23532537302E+03  0.23532537302E+03  0.00000000000E+00 0.  1.
         21   -1    0    0  501  503 -0.00000000000E+00 -0.00000000000E+00 -0.10643701093E+04  0.10643701093E+04  0.00000000000E+00 0.  1.
    9000005    1    1    2  501    0  0.20366303458E+03  0.22131417446E+03 -0.40954438971E+03  0.64667240750E+03  0.40000000000E+03 0.  1.
   -9000005    1    1    2    0  502 -0.20366303458E+03 -0.22131417446E+03 -0.41950034655E+03  0.65302307481E+03  0.40000000000E+03 0.  1.
<mgrwt>
<rscale>  2 0.50045839E+03</rscale>
<asrwt>0</asrwt>
<pdfrwt beam="1">  1       21 0.36203904E-01 0.50045839E+03</pdfrwt>
<pdfrwt beam="2">  1       21 0.16374925E+00 0.50045839E+03</pdfrwt>
<totfact> 0.14466839E+03</totfact>
</mgrwt>
</event>
<event>
 4    1  0.4774032E-002  0.6065415E+03  0.7818608E-02  0.9891927E-01
         21   -1    0    0  501  502  0.00000000000E+00  0.00000000000E+00  0.19432835716E+03  0.19432835716E+03  0.00000000000E+00 0. -1.
         21   -1    0    0  502  503 -0.00000000000E+00 -0.00000000000E+00 -0.19846632387E+04  0.19846632387E+04  0.00000000000E+00 0. -1.
    9000005    1    1    2  501    0 -0.37139796993E+03 -0.26449217601E+03 -0.11291191045E+04  0.12817185788E+04  0.40000000000E+03 0. -1.
   -9000005    1    1    2    0  503  0.37139796993E+03  0.26449217601E+03 -0.66121577708E+03  0.89727301704E+03  0.40000000000E+03 0. -1.
<mgrwt>
<rscale>  2 0.60654148E+03</rscale>
<asrwt>0</asrwt>
<pdfrwt beam="1">  1       21 0.29896669E-01 0.60654148E+03</pdfrwt>
<pdfrwt beam="2">  1       21 0.30533282E+00 0.60654148E+03</pdfrwt>
<totfact> 0.24771279E+02</totfact>
</mgrwt>
</event>
<event>
 4    1  0.4774032E-002  0.4216222E+03  0.7818608E-02  0.1036540E+00
         21   -1    0    0  501  502  0.00000000000E+00  0.00000000000E+00  0.35068490753E+04  0.35068490753E+04  0.00000000000E+00 0. -1.
         21   -1    0    0  502  503 -0.00000000000E+00 -0.00000000000E+00 -0.16378454314E+03  0.16378454314E+03  0.00000000000E+00 0. -1.
    9000005    1    1    2  501    0 -0.43646501048E+02 -0.12593739508E+03  0.31966161529E+04  0.32243014861E+04  0.40000000000E+03 0. -1.
   -9000005    1    1    2    0  503  0.43646501048E+02  0.12593739508E+03  0.14644837927E+03  0.44633213230E+03  0.40000000000E+03 0. -1.
<mgrwt>
<rscale>  2 0.42162216E+03</rscale>
<asrwt>0</asrwt>
<pdfrwt beam="1">  1       21 0.53951519E+00 0.42162216E+03</pdfrwt>
<pdfrwt beam="2">  1       21 0.25197625E-01 0.42162216E+03</pdfrwt>
<totfact> 0.10861416E+01</totfact>
</mgrwt>
</event>
<event>
 4    1  0.4774032E-002  0.4813072E+03  0.7818608E-02  0.1018777E+00
         21   -1    0    0  503  502  0.00000000000E+00  0.00000000000E+00  0.95269867981E+03  0.95269867981E+03  0.00000000000E+00 0. -1.
         21   -1    0    0  501  503 -0.00000000000E+00 -0.00000000000E+00 -0.94272216136E+03  0.94272216136E+03  0.00000000000E+00 0.  1.
    9000005    1    1    2  501    0 -0.18957823563E+03  0.18898863898E+03 -0.81140135985E+03  0.94341336638E+03  0.40000000000E+03 0.  1.
   -9000005    1    1    2    0  502  0.18957823563E+03 -0.18898863898E+03  0.82137787831E+03  0.95200747479E+03  0.40000000000E+03 0. -1.
<mgrwt>
<rscale>  2 0.48130719E+03</rscale>
<asrwt>0</asrwt>
<pdfrwt beam="1">  1       21 0.14656903E+00 0.48130719E+03</pdfrwt>
<pdfrwt beam="2">  1       21 0.14503418E+00 0.48130719E+03</pdfrwt>
<totfact> 0.81280116E+01</totfact>
</mgrwt>
</event>
<event>
 4    1  0.4774032E-002  0.4096495E+03  0.7818608E-02  0.1040489E+00
         21   -1    0    0  501  502  0.00000000000E+00  0.00000000000E+00  0.40676632866E+03  0.40676632866E+03  0.00000000000E+00 0. -1.
         21   -1    0    0  502  503 -0.00000000000E+00 -0.00000000000E+00 -0.42516591188E+03  0.42516591188E+03  0.00000000000E+00 0. -1.
    9000005    1    1    2  501    0 -0.83503798761E+02 -0.28980243575E+02  0.62444809681E+02  0.41438157920E+03  0.40000000000E+03 0. -1.
   -9000005    1    1    2    0  503  0.83503798761E+02  0.28980243575E+02 -0.80844392899E+02  0.41755066134E+03  0.40000000000E+03 0. -1.
<mgrwt>
<rscale>  2 0.40964953E+03</rscale>
<asrwt>0</asrwt>
<pdfrwt beam="1">  1       21 0.62579435E-01 0.40964953E+03</pdfrwt>
<pdfrwt beam="2">  1       21 0.65410141E-01 0.40964953E+03</pdfrwt>
<totfact> 0.45307520E+03</totfact>
</mgrwt>
</event>
<event>
 4    1  0.4774032E-002  0.4018000E+03  0.7818608E-02  0.1043158E+00
         21   -1    0    0  503  502  0.00000000000E+00  0.00000000000E+00  0.95067772436E+03  0.95067772436E+03  0.00000000000E+00 0.  1.
         21   -1    0    0  501  503 -0.00000000000E+00 -0.00000000000E+00 -0.27685327876E+03  0.27685327876E+03  0.00000000000E+00 0.  1.
    9000005    1    1    2  501    0 -0.10813189971E+02 -0.36418946020E+02 -0.44714534188E+02  0.40428041540E+03  0.40000000000E+03 0.  1.
   -9000005    1    1    2    0  502  0.10813189971E+02  0.36418946020E+02  0.71853897979E+03  0.82325058772E+03  0.40000000000E+03 0.  1.
<mgrwt>
<rscale>  2 0.40180003E+03</rscale>
<asrwt>0</asrwt>
<pdfrwt beam="1">  1       21 0.14625811E+00 0.40180003E+03</pdfrwt>
<pdfrwt beam="2">  1       21 0.42592813E-01 0.40180003E+03</pdfrwt>
<totfact> 0.14723472E+03</totfact>
</mgrwt>
</event>
<event>
 4    1  0.4774032E-002  0.4446786E+03  0.7818608E-02  0.1029321E+00
         21   -1    0    0  501  502  0.00000000000E+00  0.00000000000E+00  0.12010842793E+04  0.12010842793E+04  0.00000000000E+00 0.  1.
         21   -1    0    0  502  503 -0.00000000000E+00 -0.00000000000E+00 -0.20189769025E+03  0.20189769025E+03  0.00000000000E+00 0.  1.
    9000005    1    1    2  501    0  0.16081863872E+03 -0.10897913081E+03  0.80096358366E+03  0.91612321653E+03  0.40000000000E+03 0. -1.
   -9000005    1    1    2    0  503 -0.16081863872E+03  0.10897913081E+03  0.19822300537E+03  0.48685875300E+03  0.40000000000E+03 0. -1.
<mgrwt>
<rscale>  2 0.44467863E+03</rscale>
<asrwt>0</asrwt>
<pdfrwt beam="1">  1       21 0.18478219E+00 0.44467863E+03</pdfrwt>
<pdfrwt beam="2">  1       21 0.31061184E-01 0.44467863E+03</pdfrwt>
<totfact> 0.14221980E+03</totfact>
</mgrwt>
</event>
<event>
 4    1  0.4774032E-002  0.6196592E+03  0.7818608E-02  0.9865438E-01
         21   -1    0    0  501  502  0.00000000000E+00  0.00000000000E+00  0.37623094933E+03  0.37623094933E+03  0.00000000000E+00 0. -1.
         21   -1    0    0  502  503 -0.00000000000E+00 -0.00000000000E+00 -0.10208225553E+04  0.10208225553E+04  0.00000000000E+00 0. -1.
    9000005    1    1    2  501    0 -0.44160039012E+03 -0.17019588687E+03 -0.31175263100E+03  0.69366219978E+03  0.40000000000E+03 0. -1.
   -9000005    1    1    2    0  503  0.44160039012E+03  0.17019588687E+03 -0.33283897495E+03  0.70339130482E+03  0.40000000000E+03 0. -1.
<mgrwt>
<rscale>  2 0.61965922E+03</rscale>
<asrwt>0</asrwt>
<pdfrwt beam="1">  1       21 0.57881685E-01 0.61965922E+03</pdfrwt>
<pdfrwt beam="2">  1       21 0.15704962E+00 0.61965922E+03</pdfrwt>
<totfact> 0.57971074E+02</totfact>
</mgrwt>
</event>
<event>
 4    1  0.4774032E-002  0.4045245E+03  0.7818608E-02  0.1042224E+00
         21   -1    0    0  503  502  0.00000000000E+00  0.00000000000E+00  0.30527735623E+03  0.30527735623E+03  0.00000000000E+00 0.  1.
         21   -1    0    0  501  503 -0.00000000000E+00 -0.00000000000E+00 -0.61544205032E+03  0.61544205032E+03  0.00000000000E+00 0.  1.
    9000005    1    1    2  501    0  0.20343869351E+02 -0.56799742221E+02  0.10276203359E+02  0.40465501862E+03  0.40000000000E+03 0.  1.
   -9000005    1    1    2    0  502 -0.20343869351E+02  0.56799742221E+02 -0.32044089745E+03  0.51606438794E+03  0.40000000000E+03 0.  1.
<mgrwt>
<rscale>  2 0.40452452E+03</rscale>
<asrwt>0</asrwt>
<pdfrwt beam="1">  1       21 0.46965747E-01 0.40452452E+03</pdfrwt>
<pdfrwt beam="2">  1       21 0.94683392E-01 0.40452452E+03</pdfrwt>
<totfact> 0.35950388E+03</totfact>
</mgrwt>
</event>
<event>
 4    1  0.4774032E-002  0.4069716E+03  0.7818608E-02  0.1041392E+00
         21   -1    0    0  503  502  0.00000000000E+00  0.00000000000E+00  0.26908397057E+03  0.26908397057E+03  0.00000000000E+00 0.  1.
         21   -1    0    0  501  503 -0.00000000000E+00 -0.00000000000E+00 -0.12602169239E+04  0.12602169239E+04  0.00000000000E+00 0.  1.
    9000005    1    1    2  501    0 -0.17218525030E+02 -0.73002780639E+02 -0.10424803571E+04  0.11191028454E+04  0.40000000000E+03 0.  1.
   -9000005    1    1    2    0  502  0.17218525030E+02  0.73002780639E+02  0.51347403790E+02  0.41019804907E+03  0.40000000000E+03 0.  1.
<mgrwt>
<rscale>  2 0.40697160E+03</rscale>
<asrwt>0</asrwt>
<pdfrwt beam="1">  1       21 0.41397534E-01 0.40697160E+03</pdfrwt>
<pdfrwt beam="2">  1       21 0.19387953E+00 0.40697160E+03</pdfrwt>
<totfact> 0.70065903E+02</totfact>
</mgrwt>
</event>
<event>
 4    1  0.4774032E-002  0.4675929E+03  0.7818608E-02  0.1022602E+00
         21   -1    0    0  501  502  0.00000000000E+00  0.00000000000E+00  0.11763695506E+03  0.11763695506E+03  0.00000000000E+00 0. -1.
         21   -1    0    0  502  503 -0.00000000000E+00 -0.00000000000E+00 -0.20009098232E+04  0.20009098232E+04  0.00000000000E+00 0.  1.
    9000005    1    1    2  501    0  0.23335863459E+03  0.64705999760E+02 -0.12241061323E+04  0.13103735887E+04  0.40000000000E+03 0.  1.
   -9000005    1    1    2    0  503 -0.23335863459E+03 -0.64705999760E+02 -0.65916673584E+03  0.80817318959E+03  0.40000000000E+03 0. -1.
<mgrwt>
<rscale>  2 0.46759290E+03</rscale>
<asrwt>0</asrwt>
<pdfrwt beam="1">  1       21 0.18097992E-01 0.46759290E+03</pdfrwt>
<pdfrwt beam="2">  1       21 0.30783229E+00 0.46759290E+03</pdfrwt>
<totfact> 0.67737392E+02</totfact>
</mgrwt>
</event>
<event>
 4    1  0.4774032E-002  0.5330891E+03  0.7818608E-02  0.1005486E+00
         21   -1    0    0  503  502  0.00000000000E+00  0.00000000000E+00  0.62913816478E+03  0.62913816478E+03  0.00000000000E+00 0.  1.
         21   -1    0    0  501  503 -0.00000000000E+00 -0.00000000000E+00 -0.45814956674E+03  0.45814956674E+03  0.00000000000E+00 0.  1.
    9000005    1    1    2  501    0 -0.14000068304E+03  0.32339416257E+03  0.14997871794E+03  0.55378478805E+03  0.40000000000E+03 0.  1.
   -9000005    1    1    2    0  502  0.14000068304E+03 -0.32339416257E+03  0.21009880094E+02  0.53350294348E+03  0.40000000000E+03 0.  1.
<mgrwt>
<rscale>  2 0.53308909E+03</rscale>
<asrwt>0</asrwt>
<pdfrwt beam="1">  1       21 0.96790487E-01 0.53308909E+03</pdfrwt>
<pdfrwt beam="2">  1       21 0.70484549E-01 0.53308909E+03</pdfrwt>
<totfact> 0.13444462E+03</totfact>
</mgrwt>
</event>
<event>
 4    1  0.4774032E-002  0.4261468E+03  0.7818608E-02  0.1035084E+00
         21   -1    0    0  501  502  0.00000000000E+00  0.00000000000E+00  0.13690532793E+04  0.13690532793E+04  0.00000000000E+00 0. -1.
         21   -1    0    0  502  503 -0.00000000000E+00 -0.00000000000E+00 -0.15153083014E+03  0.15153083014E+03  0.00000000000E+00 0. -1.
    9000005    1    1    2  501    0 -0.12771806084E+03  0.72726542948E+02  0.87715531821E+03  0.97519357328E+03  0.40000000000E+03 0. -1.
   -9000005    1    1    2    0  503  0.12771806084E+03 -0.72726542948E+02  0.34036713099E+03  0.54539053620E+03  0.40000000000E+03 0. -1.
<mgrwt>
<rscale>  2 0.42614675E+03</rscale>
<asrwt>0</asrwt>
<pdfrwt beam="1">  1       21 0.21062357E+00 0.42614675E+03</pdfrwt>
<pdfrwt beam="2">  1       21 0.23312436E-01 0.42614675E+03</pdfrwt>
<totfact> 0.16895417E+03</totfact>
</mgrwt>
</event>
<event>
 4    1  0.4774032E-002  0.4206226E+03  0.7818608E-02  0.1036864E+00
         21   -1    0    0  501  502  0.00000000000E+00  0.00000000000E+00  0.20161258275E+04  0.20161258275E+04  0.00000000000E+00 0.  1.
         21   -1    0    0  502  503 -0.00000000000E+00 -0.00000000000E+00 -0.15721623436E+03  0.15721623436E+03  0.00000000000E+00 0.  1.
    9000005    1    1    2  501    0 -0.88858796835E+02  0.95012968782E+02  0.16517644025E+04  0.17044790968E+04  0.40000000000E+03 0.  1.
   -9000005    1    1    2    0  503  0.88858796835E+02 -0.95012968782E+02  0.20714519065E+03  0.46886296508E+03  0.40000000000E+03 0.  1.
<mgrwt>
<rscale>  2 0.42062257E+03</rscale>
<asrwt>0</asrwt>
<pdfrwt beam="1">  1       21 0.31017319E+00 0.42062257E+03</pdfrwt>
<pdfrwt beam="2">  1       21 0.24187114E-01 0.42062257E+03</pdfrwt>
<totfact> 0.38716599E+02</totfact>
</mgrwt>
</event>
<event>
 4    1  0.4774032E-002  0.5119396E+03  0.7818608E-02  0.1010709E+00
         21   -1    0    0  501  502  0.00000000000E+00  0.00000000000E+00  0.23230171948E+04  0.23230171948E+04  0.00000000000E+00 0.  1.
         21   -1    0    0  502  503 -0.00000000000E+00 -0.00000000000E+00 -0.31263762221E+03  0.31263762221E+03  0.00000000000E+00 0.  1.
    9000005    1    1    2  501    0  0.23281902012E+03 -0.21880913698E+03  0.20587397123E+04  0.21214361498E+04  0.40000000000E+03 0.  1.
   -9000005    1    1    2    0  503 -0.23281902012E+03  0.21880913698E+03 -0.48360139775E+02  0.51421866718E+03  0.40000000000E+03 0.  1.
<mgrwt>
<rscale>  2 0.51193958E+03</rscale>
<asrwt>0</asrwt>
<pdfrwt beam="1">  1       21 0.35738725E+00 0.51193958E+03</pdfrwt>
<pdfrwt beam="2">  1       21 0.48098097E-01 0.51193958E+03</pdfrwt>
<totfact> 0.46957176E+01</totfact>
</mgrwt>
</event>
<event>
 4    1  0.4774032E-002  0.5127170E+03  0.7818608E-02  0.1010512E+00
         21   -1    0    0  501  502  0.00000000000E+00  0.00000000000E+00  0.21753787813E+03  0.21753787813E+03  0.00000000000E+00 0.  1.
         21   -1    0    0  502  503 -0.00000000000E+00 -0.00000000000E+00 -0.27134717498E+04  0.27134717498E+04  0.00000000000E+00 0.  1.
    9000005    1    1    2  501    0  0.16666557919E+02 -0.32031380566E+03 -0.15652845398E+03  0.53607822671E+03  0.40000000000E+03 0.  1.
   -9000005    1    1    2    0  503 -0.16666557919E+02  0.32031380566E+03 -0.23394054177E+04  0.23949314013E+04  0.40000000000E+03 0.  1.
<mgrwt>
<rscale>  2 0.51271699E+03</rscale>
<asrwt>0</asrwt>
<pdfrwt beam="1">  1       21 0.33467367E-01 0.51271699E+03</pdfrwt>
<pdfrwt beam="2">  1       21 0.41745718E+00 0.51271699E+03</pdfrwt>
<totfact> 0.41169726E+01</totfact>
</mgrwt>
</event>
<event>
 4    1  0.4774032E-002  0.4221564E+03  0.7818608E-02  0.1036367E+00
         21   -1    0    0  503  502  0.00000000000E+00  0.00000000000E+00  0.72301353404E+03  0.72301353404E+03  0.00000000000E+00 0. -1.
         21   -1    0    0  501  503 -0.00000000000E+00 -0.00000000000E+00 -0.39835820308E+03  0.39835820308E+03  0.00000000000E+00 0.  1.
    9000005    1    1    2  501    0  0.52318861531E+02 -0.12441359479E+03 -0.18386300868E+03  0.46045804565E+03  0.40000000000E+03 0.  1.
   -9000005    1    1    2    0  502 -0.52318861531E+02  0.12441359479E+03  0.50851833963E+03  0.66091369148E+03  0.40000000000E+03 0. -1.
<mgrwt>
<rscale>  2 0.42215638E+03</rscale>
<asrwt>0</asrwt>
<pdfrwt beam="1">  1       21 0.11123285E+00 0.42215638E+03</pdfrwt>
<pdfrwt beam="2">  1       21 0.61285877E-01 0.42215638E+03</pdfrwt>
<totfact> 0.13605739E+03</totfact>
</mgrwt>
</event>
<event>
 4    1  0.4774032E-002  0.5147629E+03  0.7818608E-02  0.1009996E+00
         21   -1    0    0  501  502  0.00000000000E+00  0.00000000000E+00  0.36264928645E+03  0.36264928645E+03  0.00000000000E+00 0.  1.
         21   -1    0    0  502  503 -0.00000000000E+00 -0.00000000000E+00 -0.75644017601E+03  0.75644017601E+03  0.00000000000E+00 0. -1.
    9000005    1    1    2  501    0 -0.31762972240E+03  0.63970021487E+02 -0.93639103333E+02  0.52321036484E+03  0.40000000000E+03 0.  1.
   -9000005    1    1    2    0  503  0.31762972240E+03 -0.63970021487E+02 -0.30015178623E+03  0.59587909762E+03  0.40000000000E+03 0. -1.
<mgrwt>
<rscale>  2 0.51476286E+03</rscale>
<asrwt>0</asrwt>
<pdfrwt beam="1">  1       21 0.55792198E-01 0.51476286E+03</pdfrwt>
<pdfrwt beam="2">  1       21 0.11637541E+00 0.51476286E+03</pdfrwt>
<totfact> 0.14398915E+03</totfact>
</mgrwt>
</event>
<event>
 4    1  0.4774032E-002  0.4021297E+03  0.7818608E-02  0.1043045E+00
         21   -1    0    0  501  502  0.00000000000E+00  0.00000000000E+00  0.16714668204E+04  0.16714668204E+04  0.00000000000E+00 0. -1.
         21   -1    0    0  502  503 -0.00000000000E+00 -0.00000000000E+00 -0.96746981591E+02  0.96746981591E+02  0.00000000000E+00 0. -1.
    9000005    1    1    2  501    0  0.38567173200E+02 -0.14862024461E+02  0.78962676155E+03  0.88612568475E+03  0.40000000000E+03 0. -1.
   -9000005    1    1    2    0  503 -0.38567173200E+02  0.14862024461E+02  0.78509307729E+03  0.88208811727E+03  0.40000000000E+03 0. -1.
<mgrwt>
<rscale>  2 0.40212971E+03</rscale>
<asrwt>0</asrwt>
<pdfrwt beam="1">  1       21 0.25714872E+00 0.40212971E+03</pdfrwt>
<pdfrwt beam="2">  1       21 0.14884152E-01 0.40212971E+03</pdfrwt>
<totfact> 0.20419149E+03</totfact>
</mgrwt>
</event>
<event>
 4    1  0.4774032E-002  0.4103028E+03  0.7818608E-02  0.1040269E+00
         21   -1    0    0  503  502  0.00000000000E+00  0.00000000000E+00  0.72320017005E+03  0.72320017005E+03  0.00000000000E+00 0.  1.
         21   -1    0    0  501  503 -0.00000000000E+00 -0.00000000000E+00 -0.48029846132E+03  0.48029846132E+03  0.00000000000E+00 0.  1.
    9000005    1    1    2  501    0 -0.83056557136E+02 -0.38078363099E+02 -0.31052711690E+03  0.51456335251E+03  0.40000000000E+03 0.  1.
   -9000005    1    1    2    0  502  0.83056557136E+02  0.38078363099E+02  0.55342882563E+03  0.68893527886E+03  0.40000000000E+03 0.  1.
<mgrwt>
<rscale>  2 0.41030276E+03</rscale>
<asrwt>0</asrwt>
<pdfrwt beam="1">  1       21 0.11126156E+00 0.41030276E+03</pdfrwt>
<pdfrwt beam="2">  1       21 0.73892071E-01 0.41030276E+03</pdfrwt>
<totfact> 0.90025238E+02</totfact>
</mgrwt>
</event>
<event>
 4    1  0.4774032E-002  0.5943058E+03  0.7818608E-02  0.9917291E-01
         21   -1    0    0  503  502  0.00000000000E+00  0.00000000000E+00  0.20129353661E+04  0.20129353661E+04  0.00000000000E+00 0.  1.
         21   -1    0    0  501  503 -0.00000000000E+00 -0.00000000000E+00 -0.19412681174E+03  0.19412681174E+03  0.00000000000E+00 0. -1.
    9000005    1    1    2  501    0  0.19707975117E+03 -0.39288541753E+03  0.56725109082E+03  0.82156751376E+03  0.40000000000E+03 0. -1.
   -9000005    1    1    2    0  502 -0.19707975117E+03  0.39288541753E+03  0.12515574635E+04  0.13854946640E+04  0.40000000000E+03 0.  1.
<mgrwt>
<rscale>  2 0.59430580E+03</rscale>
<asrwt>0</asrwt>
<pdfrwt beam="1">  1       21 0.30968235E+00 0.59430580E+03</pdfrwt>
<pdfrwt beam="2">  1       21 0.29865665E-01 0.59430580E+03</pdfrwt>
<totfact> 0.23476989E+02</totfact>
</mgrwt>
</event>
<event>
 4    1  0.4774032E-002  0.4573760E+03  0.7818608E-02  0.1025545E+00
         21   -1    0    0  501  502  0.00000000000E+00  0.00000000000E+00  0.72776394673E+03  0.72776394673E+03  0.00000000000E+00 0.  1.
         21   -1    0    0  502  503 -0.00000000000E+00 -0.00000000000E+00 -0.29603308566E+03  0.29603308566E+03  0.00000000000E+00 0.  1.
    9000005    1    1    2  501    0  0.22917487761E+02 -0.22060733202E+03  0.12868125630E+03  0.47513332014E+03  0.40000000000E+03 0.  1.
   -9000005    1    1    2    0  503 -0.22917487761E+02  0.22060733202E+03  0.30304960477E+03  0.54866371225E+03  0.40000000000E+03 0.  1.
<mgrwt>
<rscale>  2 0.45737600E+03</rscale>
<asrwt>0</asrwt>
<pdfrwt beam="1">  1       21 0.11196368E+00 0.45737600E+03</pdfrwt>
<pdfrwt beam="2">  1       21 0.45543552E-01 0.45737600E+03</pdfrwt>
<totfact> 0.24960441E+03</totfact>
</mgrwt>
</event>
<event>
 4    1  0.4774032E-002  0.4097307E+03  0.7818608E-02  0.1040461E+00
         21   -1    0    0  503  502  0.00000000000E+00  0.00000000000E+00  0.17609392799E+04  0.17609392799E+04  0.00000000000E+00 0.  1.
         21   -1    0    0  501  503 -0.00000000000E+00 -0.00000000000E+00 -0.64699979877E+03  0.64699979877E+03  0.00000000000E+00 0. -1.
    9000005    1    1    2  501    0  0.63111109128E+02 -0.62419678299E+02 -0.55476466083E+03  0.68966880257E+03  0.40000000000E+03 0. -1.
   -9000005    1    1    2    0  502 -0.63111109128E+02  0.62419678299E+02  0.16687041420E+04  0.17182702761E+04  0.40000000000E+03 0.  1.
<mgrwt>
<rscale>  2 0.40973068E+03</rscale>
<asrwt>0</asrwt>
<pdfrwt beam="1">  1       21 0.27091373E+00 0.40973068E+03</pdfrwt>
<pdfrwt beam="2">  1       21 0.99538431E-01 0.40973068E+03</pdfrwt>
<totfact> 0.32637269E+01</totfact>
</mgrwt>
</event>
<event>
 4    1  0.4774032E-002  0.4486391E+03  0.7818608E-02  0.1028129E+00
         21   -1    0    0  501  502  0.00000000000E+00  0.00000000000E+00  0.16398349944E+04  0.16398349944E+04  0.00000000000E+00 0.  1.
         21   -1    0    0  502  503 -0.00000000000E+00 -0.00000000000E+00 -0.19189560066E+03  0.19189560066E+03  0.00000000000E+00 0. -1.
    9000005    1    1    2  501    0 -0.19771387531E+03 -0.46757609561E+02  0.12737708953E+04  0.13504700456E+04  0.40000000000E+03 0.  1.
   -9000005    1    1    2    0  503  0.19771387531E+03  0.46757609561E+02  0.17416849844E+03  0.48126054938E+03  0.40000000000E+03 0. -1.
<mgrwt>
<rscale>  2 0.44863911E+03</rscale>
<asrwt>0</asrwt>
<pdfrwt beam="1">  1       21 0.25228230E+00 0.44863911E+03</pdfrwt>
<pdfrwt beam="2">  1       21 0.29522401E-01 0.44863911E+03</pdfrwt>
<totfact> 0.57613902E+02</totfact>
</mgrwt>
</event>
<event>
 4    1  0.4774032E-002  0.4445548E+03  0.7818608E-02  0.1029358E+00
         21   -1    0    0  503  502  0.00000000000E+00  0.00000000000E+00  0.51660339167E+03  0.51660339167E+03  0.00000000000E+00 0.  1.
         21   -1    0    0  501  503 -0.00000000000E+00 -0.00000000000E+00 -0.45484646087E+03  0.45484646087E+03  0.00000000000E+00 0.  1.
    9000005    1    1    2  501    0 -0.12352391334E+03  0.14956872546E+03 -0.16276503898E+03  0.47341463720E+03  0.40000000000E+03 0.  1.
   -9000005    1    1    2    0  502  0.12352391334E+03 -0.14956872546E+03  0.22452196978E+03  0.49803521534E+03  0.40000000000E+03 0.  1.
<mgrwt>
<rscale>  2 0.44455479E+03</rscale>
<asrwt>0</asrwt>
<pdfrwt beam="1">  1       21 0.79477445E-01 0.44455479E+03</pdfrwt>
<pdfrwt beam="2">  1       21 0.69976379E-01 0.44455479E+03</pdfrwt>
<totfact> 0.22447998E+03</totfact>
</mgrwt>
</event>
<event>
 4    1  0.4774032E-002  0.1032238E+04  0.7818608E-02  0.9273877E-01
         21   -1    0    0  501  502  0.00000000000E+00  0.00000000000E+00  0.12529798011E+04  0.12529798011E+04  0.00000000000E+00 0. -1.
         21   -1    0    0  502  503 -0.00000000000E+00 -0.00000000000E+00 -0.85042501045E+03  0.85042501045E+03  0.00000000000E+00 0. -1.
    9000005    1    1    2  501    0  0.94696531000E+03  0.93658431635E+02  0.20849317047E+03  0.10530833786E+04  0.40000000000E+03 0. -1.
   -9000005    1    1    2    0  503 -0.94696531000E+03 -0.93658431635E+02  0.19406162022E+03  0.10503214330E+04  0.40000000000E+03 0. -1.
<mgrwt>
<rscale>  2 0.10322380E+04</rscale>
<asrwt>0</asrwt>
<pdfrwt beam="1">  1       21 0.19276612E+00 0.10322380E+04</pdfrwt>
<pdfrwt beam="2">  1       21 0.13083462E+00 0.10322380E+04</pdfrwt>
<totfact> 0.39914681E+01</totfact>
</mgrwt>
</event>
<event>
 4    1  0.4774032E-002  0.4051035E+03  0.7818608E-02  0.1042027E+00
         21   -1    0    0  501  502  0.00000000000E+00  0.00000000000E+00  0.27264037952E+03  0.27264037952E+03  0.00000000000E+00 0.  1.
         21   -1    0    0  502  503 -0.00000000000E+00 -0.00000000000E+00 -0.60799007365E+03  0.60799007365E+03  0.00000000000E+00 0.  1.
    9000005    1    1    2  501    0 -0.29008569105E+01 -0.64034345426E+02 -0.12369374836E+03  0.42356694364E+03  0.40000000000E+03 0. -1.
   -9000005    1    1    2    0  503  0.29008569105E+01  0.64034345426E+02 -0.21165594577E+03  0.45706350953E+03  0.40000000000E+03 0. -1.
<mgrwt>
<rscale>  2 0.40510346E+03</rscale>
<asrwt>0</asrwt>
<pdfrwt beam="1">  1       21 0.41944673E-01 0.40510346E+03</pdfrwt>
<pdfrwt beam="2">  1       21 0.93536935E-01 0.40510346E+03</pdfrwt>
<totfact> 0.46844421E+03</totfact>
</mgrwt>
</event>
<event>
 4    1  0.4774032E-002  0.4075981E+03  0.7818608E-02  0.1041180E+00
         21   -1    0    0  501  502  0.00000000000E+00  0.00000000000E+00  0.15864223512E+03  0.15864223512E+03  0.00000000000E+00 0.  1.
         21   -1    0    0  502  503 -0.00000000000E+00 -0.00000000000E+00 -0.23389878228E+04  0.23389878228E+04  0.00000000000E+00 0.  1.
    9000005    1    1    2  501    0  0.73122465643E+02 -0.28094312603E+02 -0.20182269771E+04  0.20589745789E+04  0.40000000000E+03 0.  1.
   -9000005    1    1    2    0  503 -0.73122465643E+02  0.28094312603E+02 -0.16211861055E+03  0.43865547902E+03  0.40000000000E+03 0.  1.
<mgrwt>
<rscale>  2 0.40759807E+03</rscale>
<asrwt>0</asrwt>
<pdfrwt beam="1">  1       21 0.24406498E-01 0.40759807E+03</pdfrwt>
<pdfrwt beam="2">  1       21 0.35984427E+00 0.40759807E+03</pdfrwt>
<totfact> 0.19181190E+02</totfact>
</mgrwt>
</event>
<event>
 4    1  0.4774032E-002  0.4135120E+03  0.7818608E-02  0.1039199E+00
         21   -1    0    0  501  502  0.00000000000E+00  0.00000000000E+00  0.68681729747E+03  0.68681729747E+03  0.00000000000E+00 0. -1.
         21   -1    0    0  502  503 -0.00000000000E+00 -0.00000000000E+00 -0.51553901847E+03  0.51553901847E+03  0.00000000000E+00 0. -1.
    9000005    1    1    2  501    0 -0.10333465872E+03  0.17723069579E+02  0.51793680057E+03  0.66275990243E+03  0.40000000000E+03 0. -1.
   -9000005    1    1    2    0  503  0.10333465872E+03 -0.17723069579E+02 -0.34665852157E+03  0.53959641351E+03  0.40000000000E+03 0. -1.
<mgrwt>
<rscale>  2 0.41351198E+03</rscale>
<asrwt>0</asrwt>
<pdfrwt beam="1">  1       21 0.10566420E+00 0.41351198E+03</pdfrwt>
<pdfrwt beam="2">  1       21 0.79313695E-01 0.41351198E+03</pdfrwt>
<totfact> 0.86856298E+02</totfact>
</mgrwt>
</event>
<event>
 4    1  0.4774032E-002  0.4698496E+03  0.7818608E-02  0.1021963E+00
         21   -1    0    0  503  502  0.00000000000E+00  0.00000000000E+00  0.42571918442E+03  0.42571918442E+03  0.00000000000E+00 0.  1.
         21   -1    0    0  501  503 -0.00000000000E+00 -0.00000000000E+00 -0.53522825507E+03  0.53522825507E+03  0.00000000000E+00 0. -1.
    9000005    1    1    2  501    0 -0.23017910758E+03  0.88183098305E+02  0.30049073763E+02  0.47080954454E+03  0.40000000000E+03 0. -1.
   -9000005    1    1    2    0  502  0.23017910758E+03 -0.88183098305E+02 -0.13955814441E+03  0.49013789495E+03  0.40000000000E+03 0. -1.
<mgrwt>
<rscale>  2 0.46984964E+03</rscale>
<asrwt>0</asrwt>
<pdfrwt beam="1">  1       21 0.65495259E-01 0.46984964E+03</pdfrwt>
<pdfrwt beam="2">  1       21 0.82342808E-01 0.46984964E+03</pdfrwt>
<totfact> 0.23764495E+03</totfact>
</mgrwt>
</event>
<event>
 4    1  0.4774032E-002  0.7456115E+03  0.7818608E-02  0.9642260E-01
         21   -1    0    0  501  502  0.00000000000E+00  0.00000000000E+00  0.30252221545E+03  0.30252221545E+03  0.00000000000E+00 0.  1.
         21   -1    0    0  502  503 -0.00000000000E+00 -0.00000000000E+00 -0.19846671820E+04  0.19846671820E+04  0.00000000000E+00 0.  1.
    9000005    1    1    2  501    0  0.52974318141E+03 -0.33957139230E+03 -0.52984351352E+03  0.91469706326E+03  0.40000000000E+03 0.  1.
   -9000005    1    1    2    0  503 -0.52974318141E+03  0.33957139230E+03 -0.11523014530E+04  0.13724923342E+04  0.40000000000E+03 0.  1.
<mgrwt>
<rscale>  2 0.74561154E+03</rscale>
<asrwt>0</asrwt>
<pdfrwt beam="1">  1       21 0.46541878E-01 0.74561154E+03</pdfrwt>
<pdfrwt beam="2">  1       21 0.30533342E+00 0.74561154E+03</pdfrwt>
<totfact> 0.94182332E+01</totfact>
</mgrwt>
</event>
<event>
 4    1  0.4774032E-002  0.4137671E+03  0.7818608E-02  0.1039114E+00
         21   -1    0    0  501  502  0.00000000000E+00  0.00000000000E+00  0.32832840736E+03  0.32832840736E+03  0.00000000000E+00 0. -1.
         21   -1    0    0  502  503 -0.00000000000E+00 -0.00000000000E+00 -0.53794492096E+03  0.53794492096E+03  0.00000000000E+00 0. -1.
    9000005    1    1    2  501    0 -0.84188712453E+02  0.64151907869E+02 -0.28937028169E+02  0.41477772142E+03  0.40000000000E+03 0. -1.
   -9000005    1    1    2    0  503  0.84188712453E+02 -0.64151907869E+02 -0.18067948543E+03  0.45149560689E+03  0.40000000000E+03 0. -1.
<mgrwt>
<rscale>  2 0.41376709E+03</rscale>
<asrwt>0</asrwt>
<pdfrwt beam="1">  1       21 0.50512063E-01 0.41376709E+03</pdfrwt>
<pdfrwt beam="2">  1       21 0.82760757E-01 0.41376709E+03</pdfrwt>
<totfact> 0.42165699E+03</totfact>
</mgrwt>
</event>
<event>
 4    1  0.4774032E-002  0.7158397E+03  0.7818608E-02  0.9690521E-01
         21   -1    0    0  503  502  0.00000000000E+00  0.00000000000E+00  0.84100748913E+03  0.84100748913E+03  0.00000000000E+00 0.  1.
         21   -1    0    0  501  503 -0.00000000000E+00 -0.00000000000E+00 -0.99467284798E+03  0.99467284798E+03  0.00000000000E+00 0.  1.
    9000005    1    1    2  501    0  0.23807957826E+03 -0.54382408075E+03 -0.64813639348E+03  0.96566417607E+03  0.40000000000E+03 0.  1.
   -9000005    1    1    2    0  502 -0.23807957826E+03  0.54382408075E+03  0.49447103464E+03  0.87001616105E+03  0.40000000000E+03 0.  1.
<mgrwt>
<rscale>  2 0.71583973E+03</rscale>
<asrwt>0</asrwt>
<pdfrwt beam="1">  1       21 0.12938577E+00 0.71583973E+03</pdfrwt>
<pdfrwt beam="2">  1       21 0.15302659E+00 0.71583973E+03</pdfrwt>
<totfact> 0.88660628E+01</totfact>
</mgrwt>
</event>
<event>
 4    1  0.4774032E-002  0.4043900E+03  0.7818608E-02  0.1042270E+00
         21   -1    0    0  501  502  0.00000000000E+00  0.00000000000E+00  0.20745458741E+04  0.20745458741E+04  0.00000000000E+00 0.  1.
         21   -1    0    0  502  503 -0.00000000000E+00 -0.00000000000E+00 -0.89213140957E+02  0.89213140957E+02  0.00000000000E+00 0.  1.
    9000005    1    1    2  501    0  0.59410360698E+02 -0.12950840003E+01  0.13617978590E+04  0.14205719541E+04  0.40000000000E+03 0.  1.
   -9000005    1    1    2    0  503 -0.59410360698E+02  0.12950840003E+01  0.62353487417E+03  0.74318706091E+03  0.40000000000E+03 0.  1.
<mgrwt>
<rscale>  2 0.40439000E+03</rscale>
<asrwt>0</asrwt>
<pdfrwt beam="1">  1       21 0.31916087E+00 0.40439000E+03</pdfrwt>
<pdfrwt beam="2">  1       21 0.13725100E-01 0.40439000E+03</pdfrwt>
<totfact> 0.10048240E+03</totfact>
</mgrwt>
</event>
<event>
 4    1  0.4774032E-002  0.5563989E+03  0.7818608E-02  0.1000024E+00
         21   -1    0    0  501  502  0.00000000000E+00  0.00000000000E+00  0.48751628887E+03  0.48751628887E+03  0.00000000000E+00 0.  1.
         21   -1    0    0  502  503 -0.00000000000E+00 -0.00000000000E+00 -0.85186150916E+03  0.85186150916E+03  0.00000000000E+00 0.  1.
    9000005    1    1    2  501    0  0.86522727103E+02  0.37695294382E+03  0.15570992837E+03  0.57777615557E+03  0.40000000000E+03 0.  1.
   -9000005    1    1    2    0  503 -0.86522727103E+02 -0.37695294382E+03 -0.52005514866E+03  0.76160164246E+03  0.40000000000E+03 0.  1.
<mgrwt>
<rscale>  2 0.55639887E+03</rscale>
<asrwt>0</asrwt>
<pdfrwt beam="1">  1       21 0.75002507E-01 0.55639887E+03</pdfrwt>
<pdfrwt beam="2">  1       21 0.13105561E+00 0.55639887E+03</pdfrwt>
<totfact> 0.54028388E+02</totfact>
</mgrwt>
</event>
<event>
 4    1  0.4774032E-002  0.5151545E+03  0.7818608E-02  0.1009897E+00
         21   -1    0    0  503  502  0.00000000000E+00  0.00000000000E+00  0.36195148131E+03  0.36195148131E+03  0.00000000000E+00 0.  1.
         21   -1    0    0  501  503 -0.00000000000E+00 -0.00000000000E+00 -0.85524209564E+03  0.85524209564E+03  0.00000000000E+00 0. -1.
    9000005    1    1    2  501    0 -0.84667690420E+02 -0.31339364005E+03 -0.16748342010E+02  0.51542671485E+03  0.40000000000E+03 0.  1.
   -9000005    1    1    2    0  502  0.84667690420E+02  0.31339364005E+03 -0.47654227233E+03  0.70176686210E+03  0.40000000000E+03 0.  1.
<mgrwt>
<rscale>  2 0.51515453E+03</rscale>
<asrwt>0</asrwt>
<pdfrwt beam="1">  1       21 0.55684843E-01 0.51515453E+03</pdfrwt>
<pdfrwt beam="2">  1       21 0.13157571E+00 0.51515453E+03</pdfrwt>
<totfact> 0.10542155E+03</totfact>
</mgrwt>
</event>
<event>
 4    1  0.4774032E-002  0.4127598E+03  0.7818608E-02  0.1039449E+00
         21   -1    0    0  503  502  0.00000000000E+00  0.00000000000E+00  0.11856796071E+03  0.11856796071E+03  0.00000000000E+00 0. -1.
         21   -1    0    0  501  503 -0.00000000000E+00 -0.00000000000E+00 -0.17715826452E+04  0.17715826452E+04  0.00000000000E+00 0. -1.
    9000005    1    1    2  501    0 -0.89727625699E+02  0.48162603252E+02 -0.12372787632E+04  0.13043118572E+04  0.40000000000E+03 0. -1.
   -9000005    1    1    2    0  502  0.89727625699E+02 -0.48162603252E+02 -0.41573592137E+03  0.58583874871E+03  0.40000000000E+03 0. -1.
<mgrwt>
<rscale>  2 0.41275984E+03</rscale>
<asrwt>0</asrwt>
<pdfrwt beam="1">  1       21 0.18241226E-01 0.41275984E+03</pdfrwt>
<pdfrwt beam="2">  1       21 0.27255115E+00 0.41275984E+03</pdfrwt>
<totfact> 0.11209290E+03</totfact>
</mgrwt>
</event>
<event>
 4    1  0.4774032E-002  0.4243823E+03  0.7818608E-02  0.1035649E+00
         21   -1    0    0  503  502  0.00000000000E+00  0.00000000000E+00  0.27306271973E+03  0.27306271973E+03  0.00000000000E+00 0.  1.
         21   -1    0    0  501  503 -0.00000000000E+00 -0.00000000000E+00 -0.93166470061E+03  0.93166470061E+03  0.00000000000E+00 0.  1.
    9000005    1    1    2  501    0 -0.14075665496E+03 -0.16967859507E+02 -0.65483745380E+03  0.78032841488E+03  0.40000000000E+03 0.  1.
   -9000005    1    1    2    0  502  0.14075665496E+03  0.16967859507E+02 -0.37645270784E+01  0.42439900546E+03  0.40000000000E+03 0.  1.
<mgrwt>
<rscale>  2 0.42438231E+03</rscale>
<asrwt>0</asrwt>
<pdfrwt beam="1">  1       21 0.42009648E-01 0.42438231E+03</pdfrwt>
<pdfrwt beam="2">  1       21 0.14333303E+00 0.42438231E+03</pdfrwt>
<totfact> 0.15833201E+03</totfact>
</mgrwt>
</event>
<event>
 4    1  0.4774032E-002  0.4795681E+03  0.7818608E-02  0.1019254E+00
         21   -1    0    0  501  502  0.00000000000E+00  0.00000000000E+00  0.85677017367E+03  0.85677017367E+03  0.00000000000E+00 0. -1.
         21   -1    0    0  502  503 -0.00000000000E+00 -0.00000000000E+00 -0.62960115400E+03  0.62960115400E+03  0.00000000000E+00 0. -1.
    9000005    1    1    2  501    0 -0.14628610705E+03 -0.22042221628E+03  0.67646883747E+03  0.82921388472E+03  0.40000000000E+03 0. -1.
   -9000005    1    1    2    0  503  0.14628610705E+03  0.22042221628E+03 -0.44929981780E+03  0.65715744295E+03  0.40000000000E+03 0. -1.
<mgrwt>
<rscale>  2 0.47956812E+03</rscale>
<asrwt>0</asrwt>
<pdfrwt beam="1">  1       21 0.13181080E+00 0.47956812E+03</pdfrwt>
<pdfrwt beam="2">  1       21 0.96861715E-01 0.47956812E+03</pdfrwt>
<totfact> 0.30094433E+02</totfact>
</mgrwt>
</event>
<event>
 4    1  0.4774032E-002  0.5029297E+03  0.7818608E-02  0.1013017E+00
         21   -1    0    0  503  502  0.00000000000E+00  0.00000000000E+00  0.12931806765E+04  0.12931806765E+04  0.00000000000E+00 0.  1.
         21   -1    0    0  501  503 -0.00000000000E+00 -0.00000000000E+00 -0.83013255415E+03  0.83013255415E+03  0.00000000000E+00 0. -1.
    9000005    1    1    2  501    0  0.15202888438E+03  0.26424512147E+03 -0.69667128253E+03  0.85923753515E+03  0.40000000000E+03 0. -1.
   -9000005    1    1    2    0  502 -0.15202888438E+03 -0.26424512147E+03  0.11597194049E+04  0.12640756955E+04  0.40000000000E+03 0.  1.
<mgrwt>
<rscale>  2 0.50292968E+03</rscale>
<asrwt>0</asrwt>
<pdfrwt beam="1">  1       21 0.19895087E+00 0.50292968E+03</pdfrwt>
<pdfrwt beam="2">  1       21 0.12771270E+00 0.50292968E+03</pdfrwt>
<totfact> 0.46718240E+01</totfact>
</mgrwt>
</event>
<event>
 4    1  0.4774032E-002  0.4762463E+03  0.7818608E-02  0.1020172E+00
         21   -1    0    0  503  502  0.00000000000E+00  0.00000000000E+00  0.21812627420E+04  0.21812627420E+04  0.00000000000E+00 0.  1.
         21   -1    0    0  501  503 -0.00000000000E+00 -0.00000000000E+00 -0.10590075941E+03  0.10590075941E+03  0.00000000000E+00 0.  1.
    9000005    1    1    2  501    0  0.61105210117E+02  0.25115064788E+03  0.88372050751E+03  0.10038786929E+04  0.40000000000E+03 0. -1.
   -9000005    1    1    2    0  502 -0.61105210117E+02 -0.25115064788E+03  0.11916414751E+04  0.12832848085E+04  0.40000000000E+03 0. -1.
<mgrwt>
<rscale>  2 0.47624625E+03</rscale>
<asrwt>0</asrwt>
<pdfrwt beam="1">  1       21 0.33557885E+00 0.47624625E+03</pdfrwt>
<pdfrwt beam="2">  1       21 0.16292426E-01 0.47624625E+03</pdfrwt>
<totfact> 0.55774441E+02</totfact>
</mgrwt>
</event>
<event>
 4    1  0.4774032E-002  0.5137355E+03  0.7818608E-02  0.1010255E+00
         21   -1    0    0  501  502  0.00000000000E+00  0.00000000000E+00  0.20311092556E+03  0.20311092556E+03  0.00000000000E+00 0.  1.
         21   -1    0    0  502  503 -0.00000000000E+00 -0.00000000000E+00 -0.13441833701E+04  0.13441833701E+04  0.00000000000E+00 0.  1.
    9000005    1    1    2  501    0 -0.32036891832E+03 -0.35887812060E+02 -0.71173406872E+03  0.87777534908E+03  0.40000000000E+03 0.  1.
   -9000005    1    1    2    0  503  0.32036891832E+03  0.35887812060E+02 -0.42933837579E+03  0.66951894656E+03  0.40000000000E+03 0.  1.
<mgrwt>
<rscale>  2 0.51373551E+03</rscale>
<asrwt>0</asrwt>
<pdfrwt beam="1">  1       21 0.31247834E-01 0.51373551E+03</pdfrwt>
<pdfrwt beam="2">  1       21 0.20679744E+00 0.51373551E+03</pdfrwt>
<totfact> 0.96892007E+02</totfact>
</mgrwt>
</event>
<event>
 4    1  0.4774032E-002  0.4528952E+03  0.7818608E-02  0.1026862E+00
         21   -1    0    0  503  502  0.00000000000E+00  0.00000000000E+00  0.37750271668E+03  0.37750271668E+03  0.00000000000E+00 0.  1.
         21   -1    0    0  501  503 -0.00000000000E+00 -0.00000000000E+00 -0.83230487296E+03  0.83230487296E+03  0.00000000000E+00 0. -1.
    9000005    1    1    2  501    0 -0.11460345276E+03  0.17882973048E+03 -0.58382285986E+03  0.73889319633E+03  0.40000000000E+03 0. -1.
   -9000005    1    1    2    0  502  0.11460345276E+03 -0.17882973048E+03  0.12902070357E+03  0.47091439332E+03  0.40000000000E+03 0.  1.
<mgrwt>
<rscale>  2 0.45289516E+03</rscale>
<asrwt>0</asrwt>
<pdfrwt beam="1">  1       21 0.58077342E-01 0.45289516E+03</pdfrwt>
<pdfrwt beam="2">  1       21 0.12804690E+00 0.45289516E+03</pdfrwt>
<totfact> 0.10577217E+03</totfact>
</mgrwt>
</event>
<event>
 4    1  0.4774032E-002  0.4108720E+03  0.7818608E-02  0.1040079E+00
         21   -1    0    0  503  502  0.00000000000E+00  0.00000000000E+00  0.93614810466E+03  0.93614810466E+03  0.00000000000E+00 0.  1.
         21   -1    0    0  501  503 -0.00000000000E+00 -0.00000000000E+00 -0.23723991835E+03  0.23723991835E+03  0.00000000000E+00 0.  1.
    9000005    1    1    2  501    0  0.84666257377E+02  0.40588619142E+02  0.62104330356E+02  0.41553911848E+03  0.40000000000E+03 0.  1.
   -9000005    1    1    2    0  502 -0.84666257377E+02 -0.40588619142E+02  0.63680385595E+03  0.75784890453E+03  0.40000000000E+03 0.  1.
<mgrwt>
<rscale>  2 0.41087201E+03</rscale>
<asrwt>0</asrwt>
<pdfrwt beam="1">  1       21 0.14402278E+00 0.41087201E+03</pdfrwt>
<pdfrwt beam="2">  1       21 0.36498450E-01 0.41087201E+03</pdfrwt>
<totfact> 0.20976927E+03</totfact>
</mgrwt>
</event>
<event>
 4    1  0.4774032E-002  0.4629245E+03  0.7818608E-02  0.1023936E+00
         21   -1    0    0  501  502  0.00000000000E+00  0.00000000000E+00  0.27869377734E+04  0.27869377734E+04  0.00000000000E+00 0. -1.
         21   -1    0    0  502  503 -0.00000000000E+00 -0.00000000000E+00 -0.76966719465E+02  0.76966719465E+02  0.00000000000E+00 0.  1.
    9000005    1    1    2  501    0  0.95779447365E+02  0.21242730699E+03  0.13989713516E+04  0.14735738549E+04  0.40000000000E+03 0.  1.
   -9000005    1    1    2    0  503 -0.95779447365E+02 -0.21242730699E+03  0.13109997023E+04  0.13903306379E+04  0.40000000000E+03 0. -1.
<mgrwt>
<rscale>  2 0.46292447E+03</rscale>
<asrwt>0</asrwt>
<pdfrwt beam="1">  1       21 0.42875958E+00 0.46292447E+03</pdfrwt>
<pdfrwt beam="2">  1       21 0.11841036E-01 0.46292447E+03</pdfrwt>
<totfact> 0.26069502E+02</totfact>
</mgrwt>
</event>
<event>
 4    1  0.4774032E-002  0.4461416E+03  0.7818608E-02  0.1028879E+00
         21   -1    0    0  501  502  0.00000000000E+00  0.00000000000E+00  0.19682878194E+03  0.19682878194E+03  0.00000000000E+00 0. -1.
         21   -1    0    0  502  503 -0.00000000000E+00 -0.00000000000E+00 -0.10692002383E+04  0.10692002383E+04  0.00000000000E+00 0. -1.
    9000005    1    1    2  501    0 -0.18885287212E+03  0.58111113213E+02 -0.28880967344E+03  0.53146339127E+03  0.40000000000E+03 0. -1.
   -9000005    1    1    2    0  503  0.18885287212E+03 -0.58111113213E+02 -0.58356178293E+03  0.73456562898E+03  0.40000000000E+03 0. -1.
<mgrwt>
<rscale>  2 0.44614158E+03</rscale>
<asrwt>0</asrwt>
<pdfrwt beam="1">  1       21 0.30281351E-01 0.44614158E+03</pdfrwt>
<pdfrwt beam="2">  1       21 0.16449234E+00 0.44614158E+03</pdfrwt>
<totfact> 0.20902168E+03</totfact>
</mgrwt>
</event>
<event>
 4    1  0.4774032E-002  0.4461387E+03  0.7818608E-02  0.1028880E+00
         21   -1    0    0  503  502  0.00000000000E+00  0.00000000000E+00  0.19804459695E+04  0.19804459695E+04  0.00000000000E+00 0. -1.
         21   -1    0    0  501  503 -0.00000000000E+00 -0.00000000000E+00 -0.35987046391E+03  0.35987046391E+03  0.00000000000E+00 0.  1.
    9000005    1    1    2  501    0 -0.19540394442E+03 -0.29275710943E+02 -0.18312481957E+03  0.48225975189E+03  0.40000000000E+03 0.  1.
   -9000005    1    1    2    0  502  0.19540394442E+03  0.29275710943E+02  0.18037003251E+04  0.18580566815E+04  0.40000000000E+03 0. -1.
<mgrwt>
<rscale>  2 0.44613873E+03</rscale>
<asrwt>0</asrwt>
<pdfrwt beam="1">  1       21 0.30468399E+00 0.44613873E+03</pdfrwt>
<pdfrwt beam="2">  1       21 0.55364688E-01 0.44613873E+03</pdfrwt>
<totfact> 0.75926477E+01</totfact>
</mgrwt>
</event>
<event>
 4    1  0.4774032E-002  0.4982346E+03  0.7818608E-02  0.1014241E+00
         21   -1    0    0  501  502  0.00000000000E+00  0.00000000000E+00  0.27228883709E+03  0.27228883709E+03  0.00000000000E+00 0. -1.
         21   -1    0    0  502  503 -0.00000000000E+00 -0.00000000000E+00 -0.11389834204E+04  0.11389834204E+04  0.00000000000E+00 0. -1.
    9000005    1    1    2  501    0  0.58546166637E+02 -0.29122165523E+03 -0.11811249682E+03  0.51204322865E+03  0.40000000000E+03 0.  1.
   -9000005    1    1    2    0  503 -0.58546166637E+02  0.29122165523E+03 -0.74858208650E+03  0.89922902885E+03  0.40000000000E+03 0.  1.
<mgrwt>
<rscale>  2 0.49823459E+03</rscale>
<asrwt>0</asrwt>
<pdfrwt beam="1">  1       21 0.41890590E-01 0.49823459E+03</pdfrwt>
<pdfrwt beam="2">  1       21 0.17522822E+00 0.49823459E+03</pdfrwt>
<totfact> 0.88382525E+02</totfact>
</mgrwt>
</event>
<event>
 4    1  0.4774032E-002  0.4196849E+03  0.7818608E-02  0.1037169E+00
         21   -1    0    0  503  502  0.00000000000E+00  0.00000000000E+00  0.15293676775E+04  0.15293676775E+04  0.00000000000E+00 0. -1.
         21   -1    0    0  501  503 -0.00000000000E+00 -0.00000000000E+00 -0.12951884171E+03  0.12951884171E+03  0.00000000000E+00 0.  1.
    9000005    1    1    2  501    0  0.10679009136E+03  0.68784118740E+02  0.42383650273E+03  0.59646689736E+03  0.40000000000E+03 0.  1.
   -9000005    1    1    2    0  502 -0.10679009136E+03 -0.68784118740E+02  0.97601233307E+03  0.10624196219E+04  0.40000000000E+03 0. -1.
<mgrwt>
<rscale>  2 0.41968486E+03</rscale>
<asrwt>0</asrwt>
<pdfrwt beam="1">  1       21 0.23528732E+00 0.41968486E+03</pdfrwt>
<pdfrwt beam="2">  1       21 0.19925977E-01 0.41968486E+03</pdfrwt>
<totfact> 0.15958294E+03</totfact>
</mgrwt>
</event>
<event>
 4    1  0.4774032E-002  0.4758665E+03  0.7818608E-02  0.1020277E+00
         21   -1    0    0  503  502  0.00000000000E+00  0.00000000000E+00  0.27536518797E+03  0.27536518797E+03  0.00000000000E+00 0. -1.
         21   -1    0    0  501  503 -0.00000000000E+00 -0.00000000000E+00 -0.27932653743E+04  0.27932653743E+04  0.00000000000E+00 0. -1.
    9000005    1    1    2  501    0  0.19365801838E+03 -0.17013374021E+03 -0.25477679889E+04  0.25918276646E+04  0.40000000000E+03 0. -1.
   -9000005    1    1    2    0  502 -0.19365801838E+03  0.17013374021E+03  0.29867802538E+02  0.47680289771E+03  0.40000000000E+03 0. -1.
<mgrwt>
<rscale>  2 0.47586649E+03</rscale>
<asrwt>0</asrwt>
<pdfrwt beam="1">  1       21 0.42363873E-01 0.47586649E+03</pdfrwt>
<pdfrwt beam="2">  1       21 0.42973316E+00 0.47586649E+03</pdfrwt>
<totfact> 0.21630410E+01</totfact>
</mgrwt>
</event>
<event>
 4    1  0.4774032E-002  0.4003134E+03  0.7818608E-02  0.1043671E+00
         21   -1    0    0  501  502  0.00000000000E+00  0.00000000000E+00  0.46785235753E+03  0.46785235753E+03  0.00000000000E+00 0. -1.
         21   -1    0    0  502  503 -0.00000000000E+00 -0.00000000000E+00 -0.40386439896E+03  0.40386439896E+03  0.00000000000E+00 0. -1.
    9000005    1    1    2  501    0 -0.63348486202E+01  0.14515087831E+02  0.20185734372E+03  0.44832711863E+03  0.40000000000E+03 0. -1.
   -9000005    1    1    2    0  503  0.63348486202E+01 -0.14515087831E+02 -0.13786938515E+03  0.42338963786E+03  0.40000000000E+03 0. -1.
<mgrwt>
<rscale>  2 0.40031340E+03</rscale>
<asrwt>0</asrwt>
<pdfrwt beam="1">  1       21 0.71977286E-01 0.40031340E+03</pdfrwt>
<pdfrwt beam="2">  1       21 0.62132984E-01 0.40031340E+03</pdfrwt>
<totfact> 0.37286984E+03</totfact>
</mgrwt>
</event>
<event>
 4    1  0.4774032E-002  0.4766900E+03  0.7818608E-02  0.1020049E+00
         21   -1    0    0  503  502  0.00000000000E+00  0.00000000000E+00  0.42187165887E+03  0.42187165887E+03  0.00000000000E+00 0. -1.
         21   -1    0    0  501  503 -0.00000000000E+00 -0.00000000000E+00 -0.10366446748E+04  0.10366446748E+04  0.00000000000E+00 0. -1.
    9000005    1    1    2  501    0 -0.23745376344E+03 -0.10415873061E+03 -0.81284650622E+03  0.94231246070E+03  0.40000000000E+03 0. -1.
   -9000005    1    1    2    0  502  0.23745376344E+03  0.10415873061E+03  0.19807349026E+03  0.51620387298E+03  0.40000000000E+03 0. -1.
<mgrwt>
<rscale>  2 0.47668997E+03</rscale>
<asrwt>0</asrwt>
<pdfrwt beam="1">  1       21 0.64903333E-01 0.47668997E+03</pdfrwt>
<pdfrwt beam="2">  1       21 0.15948380E+00 0.47668997E+03</pdfrwt>
<totfact> 0.45517209E+02</totfact>
</mgrwt>
</event>
<event>
 4    1  0.4774032E-002  0.4165861E+03  0.7818608E-02  0.1038183E+00
         21   -1    0    0  501  502  0.00000000000E+00  0.00000000000E+00  0.25756618454E+03  0.25756618454E+03  0.00000000000E+00 0.  1.
         21   -1    0    0  502  503 -0.00000000000E+00 -0.00000000000E+00 -0.86703756867E+03  0.86703756867E+03  0.00000000000E+00 0.  1.
    9000005    1    1    2  501    0  0.93761207957E+02 -0.68940399512E+02 -0.39266289362E+02  0.41843253253E+03  0.40000000000E+03 0.  1.
   -9000005    1    1    2    0  503 -0.93761207957E+02  0.68940399512E+02 -0.57020509477E+03  0.70617122067E+03  0.40000000000E+03 0.  1.
<mgrwt>
<rscale>  2 0.41658606E+03</rscale>
<asrwt>0</asrwt>
<pdfrwt beam="1">  1       21 0.39625567E-01 0.41658606E+03</pdfrwt>
<pdfrwt beam="2">  1       21 0.13339040E+00 0.41658606E+03</pdfrwt>
<totfact> 0.21667602E+03</totfact>
</mgrwt>
</event>
<event>
 4    1  0.4774032E-002  0.5209305E+03  0.7818608E-02  0.1008456E+00
         21   -1    0    0  503  502  0.00000000000E+00  0.00000000000E+00  0.12812031213E+03  0.12812031213E+03  0.00000000000E+00 0.  1.
         21   -1    0    0  501  503 -0.00000000000E+00 -0.00000000000E+00 -0.22020411496E+04  0.22020411496E+04  0.00000000000E+00 0. -1.
    9000005    1    1    2  501    0 -0.28529823840E+03  0.17312848526E+03 -0.80945441739E+03  0.96259285841E+03  0.40000000000E+03 0.  1.
   -9000005    1    1    2    0  502  0.28529823840E+03 -0.17312848526E+03 -0.12644664201E+04  0.13675686033E+04  0.40000000000E+03 0.  1.
<mgrwt>
<rscale>  2 0.52093047E+03</rscale>
<asrwt>0</asrwt>
<pdfrwt beam="1">  1       21 0.19710818E-01 0.52093047E+03</pdfrwt>
<pdfrwt beam="2">  1       21 0.33877555E+00 0.52093047E+03</pdfrwt>
<totfact> 0.36339131E+02</totfact>
</mgrwt>
</event>
<event>
 4    1  0.4774032E-002  0.4352859E+03  0.7818608E-02  0.1032203E+00
         21   -1    0    0  501  502  0.00000000000E+00  0.00000000000E+00  0.15489318564E+03  0.15489318564E+03  0.00000000000E+00 0. -1.
         21   -1    0    0  502  503 -0.00000000000E+00 -0.00000000000E+00 -0.14900158007E+04  0.14900158007E+04  0.00000000000E+00 0. -1.
    9000005    1    1    2  501    0 -0.16730165359E+03 -0.38522086369E+02 -0.31956245549E+03  0.53999440496E+03  0.40000000000E+03 0. -1.
   -9000005    1    1    2    0  503  0.16730165359E+03  0.38522086369E+02 -0.10155601596E+04  0.11049145814E+04  0.40000000000E+03 0. -1.
<mgrwt>
<rscale>  2 0.43528588E+03</rscale>
<asrwt>0</asrwt>
<pdfrwt beam="1">  1       21 0.23829719E-01 0.43528588E+03</pdfrwt>
<pdfrwt beam="2">  1       21 0.22923321E+00 0.43528588E+03</pdfrwt>
<totfact> 0.12263143E+03</totfact>
</mgrwt>
</event>
<event>
 4    1  0.4774032E-002  0.4788698E+03  0.7818608E-02  0.1019446E+00
         21   -1    0    0  501  502  0.00000000000E+00  0.00000000000E+00  0.17644755797E+04  0.17644755797E+04  0.00000000000E+00 0.  1.
         21   -1    0    0  502  503 -0.00000000000E+00 -0.00000000000E+00 -0.51916270123E+03  0.51916270123E+03  0.00000000000E+00 0.  1.
    9000005    1    1    2  501    0  0.15848965227E+03 -0.21023166600E+03  0.16112821362E+04  0.16809361813E+04  0.40000000000E+03 0.  1.
   -9000005    1    1    2    0  503 -0.15848965227E+03  0.21023166600E+03 -0.36596925772E+03  0.60270209960E+03  0.40000000000E+03 0.  1.
<mgrwt>
<rscale>  2 0.47886984E+03</rscale>
<asrwt>0</asrwt>
<pdfrwt beam="1">  1       21 0.27145778E+00 0.47886984E+03</pdfrwt>
<pdfrwt beam="2">  1       21 0.79871186E-01 0.47886984E+03</pdfrwt>
<totfact> 0.51996237E+01</totfact>
</mgrwt>
</event>
<event>
 4    1  0.4774032E-002  0.4377238E+03  0.7818608E-02  0.1031448E+00
         21   -1    0    0  501  502  0.00000000000E+00  0.00000000000E+00  0.26598741986E+03  0.26598741986E+03  0.00000000000E+00 0. -1.
         21   -1    0    0  502  503 -0.00000000000E+00 -0.00000000000E+00 -0.73791814607E+03  0.73791814607E+03  0.00000000000E+00 0.  1.
    9000005    1    1    2  501    0  0.94885191516E+02 -0.15032928252E+03 -0.15849918874E+03  0.46553634185E+03  0.40000000000E+03 0.  1.
   -9000005    1    1    2    0  503 -0.94885191516E+02  0.15032928252E+03 -0.31343153747E+03  0.53836922407E+03  0.40000000000E+03 0.  1.
<mgrwt>
<rscale>  2 0.43772376E+03</rscale>
<asrwt>0</asrwt>
<pdfrwt beam="1">  1       21 0.40921143E-01 0.43772376E+03</pdfrwt>
<pdfrwt beam="2">  1       21 0.11352586E+00 0.43772376E+03</pdfrwt>
<totfact> 0.30351877E+03</totfact>
</mgrwt>
</event>
<event>
 4    1  0.4774032E-002  0.4370795E+03  0.7818608E-02  0.1031647E+00
         21   -1    0    0  501  502  0.00000000000E+00  0.00000000000E+00  0.34091963271E+03  0.34091963271E+03  0.00000000000E+00 0. -1.
         21   -1    0    0  502  503 -0.00000000000E+00 -0.00000000000E+00 -0.56641793957E+03  0.56641793957E+03  0.00000000000E+00 0. -1.
    9000005    1    1    2  501    0  0.12427105454E+03 -0.12488083669E+03 -0.15965742992E+03  0.46532678119E+03  0.40000000000E+03 0. -1.
   -9000005    1    1    2    0  503 -0.12427105454E+03  0.12488083669E+03 -0.65840876944E+02  0.44201079109E+03  0.40000000000E+03 0. -1.
<mgrwt>
<rscale>  2 0.43707953E+03</rscale>
<asrwt>0</asrwt>
<pdfrwt beam="1">  1       21 0.52449175E-01 0.43707953E+03</pdfrwt>
<pdfrwt beam="2">  1       21 0.87141221E-01 0.43707953E+03</pdfrwt>
<totfact> 0.34204865E+03</totfact>
</mgrwt>
</event>
<event>
 4    1  0.4774032E-002  0.4692686E+03  0.7818608E-02  0.1022127E+00
         21   -1    0    0  503  502  0.00000000000E+00  0.00000000000E+00  0.88181854534E+03  0.88181854534E+03  0.00000000000E+00 0.  1.
         21   -1    0    0  501  503 -0.00000000000E+00 -0.00000000000E+00 -0.37767685644E+03  0.37767685644E+03  0.00000000000E+00 0. -1.
    9000005    1    1    2  501    0  0.24378363703E+03  0.27973548457E+02  0.61861649798E+03  0.77646593787E+03  0.40000000000E+03 0.  1.
   -9000005    1    1    2    0  502 -0.24378363703E+03 -0.27973548457E+02 -0.11447480907E+03  0.48302946392E+03  0.40000000000E+03 0. -1.
<mgrwt>
<rscale>  2 0.46926856E+03</rscale>
<asrwt>0</asrwt>
<pdfrwt beam="1">  1       21 0.13566439E+00 0.46926856E+03</pdfrwt>
<pdfrwt beam="2">  1       21 0.58104132E-01 0.46926856E+03</pdfrwt>
<totfact> 0.90286348E+02</totfact>
</mgrwt>
</event>
<event>
 4    1  0.4774032E-002  0.4181680E+03  0.7818608E-02  0.1037664E+00
         21   -1    0    0  501  502  0.00000000000E+00  0.00000000000E+00  0.64436715515E+03  0.64436715515E+03  0.00000000000E+00 0. -1.
         21   -1    0    0  502  503 -0.00000000000E+00 -0.00000000000E+00 -0.30340733633E+03  0.30340733633E+03  0.00000000000E+00 0. -1.
    9000005    1    1    2  501    0 -0.12114772915E+03  0.13699509055E+02  0.32445962961E+03  0.52928111630E+03  0.40000000000E+03 0. -1.
   -9000005    1    1    2    0  503  0.12114772915E+03 -0.13699509055E+02  0.16500189213E+02  0.41849337518E+03  0.40000000000E+03 0. -1.
<mgrwt>
<rscale>  2 0.41816797E+03</rscale>
<asrwt>0</asrwt>
<pdfrwt beam="1">  1       21 0.99133408E-01 0.41816797E+03</pdfrwt>
<pdfrwt beam="2">  1       21 0.46678052E-01 0.41816797E+03</pdfrwt>
<totfact> 0.32442866E+03</totfact>
</mgrwt>
</event>
<event>
 4    1  0.4774032E-002  0.6852255E+03  0.7818608E-02  0.9742838E-01
         21   -1    0    0  503  502  0.00000000000E+00  0.00000000000E+00  0.10039969677E+04  0.10039969677E+04  0.00000000000E+00 0.  1.
         21   -1    0    0  501  503 -0.00000000000E+00 -0.00000000000E+00 -0.49480304818E+03  0.49480304818E+03  0.00000000000E+00 0. -1.
    9000005    1    1    2  501    0 -0.55635297337E+03  0.23145008825E+01  0.79092224329E+02  0.68977501248E+03  0.40000000000E+03 0.  1.
   -9000005    1    1    2    0  502  0.55635297337E+03 -0.23145008825E+01  0.43010169519E+03  0.80902500338E+03  0.40000000000E+03 0. -1.
<mgrwt>
<rscale>  2 0.68522550E+03</rscale>
<asrwt>0</asrwt>
<pdfrwt beam="1">  1       21 0.15446107E+00 0.68522550E+03</pdfrwt>
<pdfrwt beam="2">  1       21 0.76123546E-01 0.68522550E+03</pdfrwt>
<totfact> 0.32114116E+02</totfact>
</mgrwt>
</event>
<event>
 4    1  0.4774032E-002  0.6959637E+03  0.7818608E-02  0.9724160E-01
         21   -1    0    0  503  502  0.00000000000E+00  0.00000000000E+00  0.18261168898E+04  0.18261168898E+04  0.00000000000E+00 0. -1.
         21   -1    0    0  501  503 -0.00000000000E+00 -0.00000000000E+00 -0.29498029679E+03  0.29498029679E+03  0.00000000000E+00 0.  1.
    9000005    1    1    2  501    0  0.23708872129E+03  0.51783629696E+03  0.42883835674E+03  0.81747650022E+03  0.40000000000E+03 0. -1.
   -9000005    1    1    2    0  502 -0.23708872129E+03 -0.51783629696E+03  0.11022982363E+04  0.13036206863E+04  0.40000000000E+03 0.  1.
<mgrwt>
<rscale>  2 0.69596371E+03</rscale>
<asrwt>0</asrwt>
<pdfrwt beam="1">  1       21 0.28094105E+00 0.69596371E+03</pdfrwt>
<pdfrwt beam="2">  1       21 0.45381585E-01 0.69596371E+03</pdfrwt>
<totfact> 0.14291280E+02</totfact>
</mgrwt>
</event>
<event>
 4    1  0.4774032E-002  0.4023990E+03  0.7818608E-02  0.1042952E+00
         21   -1    0    0  501  502  0.00000000000E+00  0.00000000000E+00  0.16330706968E+03  0.16330706968E+03  0.00000000000E+00 0.  1.
         21   -1    0    0  502  503 -0.00000000000E+00 -0.00000000000E+00 -0.10969309609E+04  0.10969309609E+04  0.00000000000E+00 0.  1.
    9000005    1    1    2  501    0 -0.33257000522E+02 -0.28616870178E+02 -0.66212956153E+03  0.77481643606E+03  0.40000000000E+03 0.  1.
   -9000005    1    1    2    0  503  0.33257000522E+02  0.28616870178E+02 -0.27149432965E+03  0.48542159447E+03  0.40000000000E+03 0.  1.
<mgrwt>
<rscale>  2 0.40239900E+03</rscale>
<asrwt>0</asrwt>
<pdfrwt beam="1">  1       21 0.25124164E-01 0.40239900E+03</pdfrwt>
<pdfrwt beam="2">  1       21 0.16875861E+00 0.40239900E+03</pdfrwt>
<totfact> 0.28587232E+03</totfact>
</mgrwt>
</event>
<event>
 4    1  0.4774032E-002  0.5145382E+03  0.7818608E-02  0.1010052E+00
         21   -1    0    0  503  502  0.00000000000E+00  0.00000000000E+00  0.87906967995E+03  0.87906967995E+03  0.00000000000E+00 0.  1.
         21   -1    0    0  501  503 -0.00000000000E+00 -0.00000000000E+00 -0.48489810851E+03  0.48489810851E+03  0.00000000000E+00 0. -1.
    9000005    1    1    2  501    0 -0.29622667481E+03 -0.13038150957E+03 -0.22270843275E+03  0.56066801846E+03  0.40000000000E+03 0. -1.
   -9000005    1    1    2    0  502  0.29622667481E+03  0.13038150957E+03  0.61688000419E+03  0.80329976999E+03  0.40000000000E+03 0.  1.
<mgrwt>
<rscale>  2 0.51453822E+03</rscale>
<asrwt>0</asrwt>
<pdfrwt beam="1">  1       21 0.13524149E+00 0.51453822E+03</pdfrwt>
<pdfrwt beam="2">  1       21 0.74599709E-01 0.51453822E+03</pdfrwt>
<totfact> 0.51166371E+02</totfact>
</mgrwt>
</event>
<event>
 4    1  0.4774032E-002  0.6397782E+03  0.7818608E-02  0.9826151E-01
         21   -1    0    0  503  502  0.00000000000E+00  0.00000000000E+00  0.81086094994E+03  0.81086094994E+03  0.00000000000E+00 0.  1.
         21   -1    0    0  501  503 -0.00000000000E+00 -0.00000000000E+00 -0.58480175051E+03  0.58480175051E+03  0.00000000000E+00 0. -1.
    9000005    1    1    2  501    0  0.35134104639E+03 -0.35478950198E+03 -0.14508798894E+03  0.65602335792E+03  0.40000000000E+03 0. -1.
   -9000005    1    1    2    0  502 -0.35134104639E+03  0.35478950198E+03  0.37114718837E+03  0.73963934254E+03  0.40000000000E+03 0.  1.
<mgrwt>
<rscale>  2 0.63977818E+03</rscale>
<asrwt>0</asrwt>
<pdfrwt beam="1">  1       21 0.12474784E+00 0.63977818E+03</pdfrwt>
<pdfrwt beam="2">  1       21 0.89969500E-01 0.63977818E+03</pdfrwt>
<totfact> 0.39028366E+02</totfact>
</mgrwt>
</event>
<event>
 4    1  0.4774032E-002  0.4778032E+03  0.7818608E-02  0.1019741E+00
         21   -1    0    0  501  502  0.00000000000E+00  0.00000000000E+00  0.92085025015E+03  0.92085025015E+03  0.00000000000E+00 0.  1.
         21   -1    0    0  502  503 -0.00000000000E+00 -0.00000000000E+00 -0.24978091519E+03  0.24978091519E+03  0.00000000000E+00 0.  1.
    9000005    1    1    2  501    0 -0.25420865437E+03 -0.60612300930E+02  0.38607508276E+03  0.61428809243E+03  0.40000000000E+03 0.  1.
   -9000005    1    1    2    0  503  0.25420865437E+03  0.60612300930E+02  0.28499425220E+03  0.55634307290E+03  0.40000000000E+03 0.  1.
<mgrwt>
<rscale>  2 0.47780319E+03</rscale>
<asrwt>0</asrwt>
<pdfrwt beam="1">  1       21 0.14166927E+00 0.47780319E+03</pdfrwt>
<pdfrwt beam="2">  1       21 0.38427834E-01 0.47780319E+03</pdfrwt>
<totfact> 0.19216402E+03</totfact>
</mgrwt>
</event>
<event>
 4    1  0.4774032E-002  0.4166001E+03  0.7818608E-02  0.1038179E+00
         21   -1    0    0  503  502  0.00000000000E+00  0.00000000000E+00  0.24391123755E+03  0.24391123755E+03  0.00000000000E+00 0.  1.
         21   -1    0    0  501  503 -0.00000000000E+00 -0.00000000000E+00 -0.12184902969E+04  0.12184902969E+04  0.00000000000E+00 0.  1.
    9000005    1    1    2  501    0 -0.41753581733E+02  0.10868429115E+03 -0.15657857535E+02  0.41689423747E+03  0.40000000000E+03 0.  1.
   -9000005    1    1    2    0  502  0.41753581733E+02 -0.10868429115E+03 -0.95892120178E+03  0.10455072969E+04  0.40000000000E+03 0.  1.
<mgrwt>
<rscale>  2 0.41660009E+03</rscale>
<asrwt>0</asrwt>
<pdfrwt beam="1">  1       21 0.37524806E-01 0.41660009E+03</pdfrwt>
<pdfrwt beam="2">  1       21 0.18746005E+00 0.41660009E+03</pdfrwt>
<totfact> 0.94318068E+02</totfact>
</mgrwt>
</event>
<event>
 4    1  0.4774032E-002  0.4265448E+03  0.7818608E-02  0.1034957E+00
         21   -1    0    0  503  502  0.00000000000E+00  0.00000000000E+00  0.22639781748E+04  0.22639781748E+04  0.00000000000E+00 0.  1.
         21   -1    0    0  501  503 -0.00000000000E+00 -0.00000000000E+00 -0.12161906562E+03  0.12161906562E+03  0.00000000000E+00 0.  1.
    9000005    1    1    2  501    0  0.13054407422E+02  0.14754676916E+03  0.37646036041E+03  0.56891376289E+03  0.40000000000E+03 0.  1.
   -9000005    1    1    2    0  502 -0.13054407422E+02 -0.14754676916E+03  0.17658987488E+04  0.18166834776E+04  0.40000000000E+03 0.  1.
<mgrwt>
<rscale>  2 0.42654480E+03</rscale>
<asrwt>0</asrwt>
<pdfrwt beam="1">  1       21 0.34830430E+00 0.42654480E+03</pdfrwt>
<pdfrwt beam="2">  1       21 0.18710627E-01 0.42654480E+03</pdfrwt>
<totfact> 0.37056027E+02</totfact>
</mgrwt>
</event>
<event>
 4    1  0.4774032E-002  0.4395532E+03  0.7818608E-02  0.1030884E+00
         21   -1    0    0  501  502  0.00000000000E+00  0.00000000000E+00  0.10706738792E+04  0.10706738792E+04  0.00000000000E+00 0. -1.
         21   -1    0    0  502  503 -0.00000000000E+00 -0.00000000000E+00 -0.82021028980E+03  0.82021028980E+03  0.00000000000E+00 0.  1.
    9000005    1    1    2  501    0  0.12577381746E+03  0.13186341843E+03  0.96021881196E+03  0.10560431720E+04  0.40000000000E+03 0. -1.
   -9000005    1    1    2    0  503 -0.12577381746E+03 -0.13186341843E+03 -0.70975522257E+03  0.83484099699E+03  0.40000000000E+03 0.  1.
<mgrwt>
<rscale>  2 0.43955320E+03</rscale>
<asrwt>0</asrwt>
<pdfrwt beam="1">  1       21 0.16471906E+00 0.43955320E+03</pdfrwt>
<pdfrwt beam="2">  1       21 0.12618620E+00 0.43955320E+03</pdfrwt>
<totfact> 0.86988790E+01</totfact>
</mgrwt>
</event>
<event>
 4    1  0.4774032E-002  0.7892407E+03  0.7818608E-02  0.9575723E-01
         21   -1    0    0  503  502  0.00000000000E+00  0.00000000000E+00  0.10766436607E+04  0.10766436607E+04  0.00000000000E+00 0. -1.
         21   -1    0    0  501  503 -0.00000000000E+00 -0.00000000000E+00 -0.60000732675E+03  0.60000732675E+03  0.00000000000E+00 0.  1.
    9000005    1    1    2  501    0 -0.62903445083E+03  0.25926145783E+03  0.79813941177E+02  0.79326610230E+03  0.40000000000E+03 0. -1.
   -9000005    1    1    2    0  502  0.62903445083E+03 -0.25926145783E+03  0.39682239273E+03  0.88338488510E+03  0.40000000000E+03 0.  1.
<mgrwt>
<rscale>  2 0.78924068E+03</rscale>
<asrwt>0</asrwt>
<pdfrwt beam="1">  1       21 0.16563749E+00 0.78924068E+03</pdfrwt>
<pdfrwt beam="2">  1       21 0.92308820E-01 0.78924068E+03</pdfrwt>
<totfact> 0.16207711E+02</totfact>
</mgrwt>
</event>
<event>
 4    1  0.4774032E-002  0.5096148E+03  0.7818608E-02  0.1011299E+00
         21   -1    0    0  501  502  0.00000000000E+00  0.00000000000E+00  0.23902459465E+04  0.23902459465E+04  0.00000000000E+00 0. -1.
         21   -1    0    0  502  503 -0.00000000000E+00 -0.00000000000E+00 -0.28261367876E+03  0.28261367876E+03  0.00000000000E+00 0. -1.
    9000005    1    1    2  501    0 -0.14049772613E+03  0.28278547076E+03  0.21023324573E+04  0.21632172786E+04  0.40000000000E+03 0. -1.
   -9000005    1    1    2    0  503  0.14049772613E+03 -0.28278547076E+03  0.52998104629E+01  0.50964234666E+03  0.40000000000E+03 0. -1.
<mgrwt>
<rscale>  2 0.50961479E+03</rscale>
<asrwt>0</asrwt>
<pdfrwt beam="1">  1       21 0.36773013E+00 0.50961479E+03</pdfrwt>
<pdfrwt beam="2">  1       21 0.43479029E-01 0.50961479E+03</pdfrwt>
<totfact> 0.50145528E+01</totfact>
</mgrwt>
</event>
<event>
 4    1  0.4774032E-002  0.4817319E+03  0.7818608E-02  0.1018660E+00
         21   -1    0    0  503  502  0.00000000000E+00  0.00000000000E+00  0.55300243624E+03  0.55300243624E+03  0.00000000000E+00 0.  1.
         21   -1    0    0  501  503 -0.00000000000E+00 -0.00000000000E+00 -0.55424690020E+03  0.55424690020E+03  0.00000000000E+00 0.  1.
    9000005    1    1    2  501    0  0.68389497196E+02  0.25959304066E+03 -0.27344875201E+03  0.55393130446E+03  0.40000000000E+03 0.  1.
   -9000005    1    1    2    0  502 -0.68389497196E+02 -0.25959304066E+03  0.27220428804E+03  0.55331803198E+03  0.40000000000E+03 0.  1.
<mgrwt>
<rscale>  2 0.48173195E+03</rscale>
<asrwt>0</asrwt>
<pdfrwt beam="1">  1       21 0.85077298E-01 0.48173195E+03</pdfrwt>
<pdfrwt beam="2">  1       21 0.85268754E-01 0.48173195E+03</pdfrwt>
<totfact> 0.12001353E+03</totfact>
</mgrwt>
</event>
<event>
 4    1  0.4774032E-002  0.4146290E+03  0.7818608E-02  0.1038829E+00
         21   -1    0    0  501  502  0.00000000000E+00  0.00000000000E+00  0.75013823462E+03  0.75013823462E+03  0.00000000000E+00 0. -1.
         21   -1    0    0  502  503 -0.00000000000E+00 -0.00000000000E+00 -0.35736488074E+03  0.35736488074E+03  0.00000000000E+00 0.  1.
    9000005    1    1    2  501    0 -0.75278514995E+02  0.79059042447E+02  0.52803383771E+03  0.67136943688E+03  0.40000000000E+03 0. -1.
   -9000005    1    1    2    0  503  0.75278514995E+02 -0.79059042447E+02 -0.13526048383E+03  0.43613367847E+03  0.40000000000E+03 0.  1.
<mgrwt>
<rscale>  2 0.41462898E+03</rscale>
<asrwt>0</asrwt>
<pdfrwt beam="1">  1       21 0.11540588E+00 0.41462898E+03</pdfrwt>
<pdfrwt beam="2">  1       21 0.54979213E-01 0.41462898E+03</pdfrwt>
<totfact> 0.15772502E+03</totfact>
</mgrwt>
</event>
<event>
 4    1  0.4774032E-002  0.5745573E+03  0.7818608E-02  0.9959644E-01
         21   -1    0    0  501  502  0.00000000000E+00  0.00000000000E+00  0.77613680673E+03  0.77613680673E+03  0.00000000000E+00 0.  1.
         21   -1    0    0  502  503 -0.00000000000E+00 -0.00000000000E+00 -0.44550858596E+03  0.44550858596E+03  0.00000000000E+00 0. -1.
    9000005    1    1    2  501    0  0.25031574530E+02 -0.41169107113E+03  0.29530318210E+03  0.64600316341E+03  0.40000000000E+03 0.  1.
   -9000005    1    1    2    0  503 -0.25031574530E+02  0.41169107113E+03  0.35325038671E+02  0.57564222928E+03  0.40000000000E+03 0.  1.
<mgrwt>
<rscale>  2 0.57455732E+03</rscale>
<asrwt>0</asrwt>
<pdfrwt beam="1">  1       21 0.11940566E+00 0.57455732E+03</pdfrwt>
<pdfrwt beam="2">  1       21 0.68539782E-01 0.57455732E+03</pdfrwt>
<totfact> 0.83865338E+02</totfact>
</mgrwt>
</event>
<event>
 4    1  0.4774032E-002  0.4444590E+03  0.7818608E-02  0.1029387E+00
         21   -1    0    0  501  502  0.00000000000E+00  0.00000000000E+00  0.11334359749E+04  0.11334359749E+04  0.00000000000E+00 0.  1.
         21   -1    0    0  502  503 -0.00000000000E+00 -0.00000000000E+00 -0.18684455875E+03  0.18684455875E+03  0.00000000000E+00 0. -1.
    9000005    1    1    2  501    0 -0.71299015422E+02 -0.18016725168E+03  0.30216066142E+03  0.53744288393E+03  0.40000000000E+03 0. -1.
   -9000005    1    1    2    0  503  0.71299015422E+02  0.18016725168E+03  0.64443075471E+03  0.78283764970E+03  0.40000000000E+03 0.  1.
<mgrwt>
<rscale>  2 0.44445898E+03</rscale>
<asrwt>0</asrwt>
<pdfrwt beam="1">  1       21 0.17437476E+00 0.44445898E+03</pdfrwt>
<pdfrwt beam="2">  1       21 0.28745318E-01 0.44445898E+03</pdfrwt>
<totfact> 0.19646440E+03</totfact>
</mgrwt>
</event>
<event>
 4    1  0.4774032E-002  0.5728973E+03  0.7818608E-02  0.9963288E-01
         21   -1    0    0  501  502  0.00000000000E+00  0.00000000000E+00  0.13039121078E+04  0.13039121078E+04  0.00000000000E+00 0. -1.
         21   -1    0    0  502  503 -0.00000000000E+00 -0.00000000000E+00 -0.27858806540E+03  0.27858806540E+03  0.00000000000E+00 0.  1.
    9000005    1    1    2  501    0 -0.15292736677E+03 -0.38055812011E+03  0.75842108858E+03  0.95048083089E+03  0.40000000000E+03 0. -1.
   -9000005    1    1    2    0  503  0.15292736677E+03  0.38055812011E+03  0.26690295381E+03  0.63201934230E+03  0.40000000000E+03 0.  1.
<mgrwt>
<rscale>  2 0.57289725E+03</rscale>
<asrwt>0</asrwt>
<pdfrwt beam="1">  1       21 0.20060186E+00 0.57289725E+03</pdfrwt>
<pdfrwt beam="2">  1       21 0.42859703E-01 0.57289725E+03</pdfrwt>
<totfact> 0.54579065E+02</totfact>
</mgrwt>
</event>
<event>
 4    1  0.4774032E-002  0.4949927E+03  0.7818608E-02  0.1015094E+00
         21   -1    0    0  501  502  0.00000000000E+00  0.00000000000E+00  0.34633461235E+03  0.34633461235E+03  0.00000000000E+00 0. -1.
         21   -1    0    0  502  503 -0.00000000000E+00 -0.00000000000E+00 -0.14622596149E+04  0.14622596149E+04  0.00000000000E+00 0. -1.
    9000005    1    1    2  501    0  0.10331390220E+03 -0.27266102186E+03  0.91740407584E+02  0.50342238489E+03  0.40000000000E+03 0. -1.
   -9000005    1    1    2    0  503 -0.10331390220E+03  0.27266102186E+03 -0.12076654101E+04  0.13051718423E+04  0.40000000000E+03 0. -1.
<mgrwt>
<rscale>  2 0.49499272E+03</rscale>
<asrwt>0</asrwt>
<pdfrwt beam="1">  1       21 0.53282249E-01 0.49499272E+03</pdfrwt>
<pdfrwt beam="2">  1       21 0.22496301E+00 0.49499272E+03</pdfrwt>
<totfact> 0.24645903E+02</totfact>
</mgrwt>
</event>
<event>
 4    1  0.4774032E-002  0.4694098E+03  0.7818608E-02  0.1022087E+00
         21   -1    0    0  503  502  0.00000000000E+00  0.00000000000E+00  0.16602753547E+04  0.16602753547E+04  0.00000000000E+00 0.  1.
         21   -1    0    0  501  503 -0.00000000000E+00 -0.00000000000E+00 -0.51592884448E+03  0.51592884448E+03  0.00000000000E+00 0.  1.
    9000005    1    1    2  501    0  0.24529326503E+03 -0.13294942741E+02 -0.36559304808E+03  0.59498219988E+03  0.40000000000E+03 0.  1.
   -9000005    1    1    2    0  502 -0.24529326503E+03  0.13294942741E+02  0.15099395583E+04  0.15812219993E+04  0.40000000000E+03 0.  1.
<mgrwt>
<rscale>  2 0.46940978E+03</rscale>
<asrwt>0</asrwt>
<pdfrwt beam="1">  1       21 0.25542697E+00 0.46940978E+03</pdfrwt>
<pdfrwt beam="2">  1       21 0.79373669E-01 0.46940978E+03</pdfrwt>
<totfact> 0.66442357E+01</totfact>
</mgrwt>
</event>
<event>
 4    1  0.4774032E-002  0.4288530E+03  0.7818608E-02  0.1034223E+00
         21   -1    0    0  501  502  0.00000000000E+00  0.00000000000E+00  0.24398873264E+03  0.24398873264E+03  0.00000000000E+00 0. -1.
         21   -1    0    0  502  503 -0.00000000000E+00 -0.00000000000E+00 -0.76484464249E+03  0.76484464249E+03  0.00000000000E+00 0. -1.
    9000005    1    1    2  501    0  0.23502117110E+01 -0.15462651741E+03 -0.19977017259E+03  0.47309936085E+03  0.40000000000E+03 0. -1.
   -9000005    1    1    2    0  503 -0.23502117110E+01  0.15462651741E+03 -0.32108573726E+03  0.53573401428E+03  0.40000000000E+03 0. -1.
<mgrwt>
<rscale>  2 0.42885299E+03</rscale>
<asrwt>0</asrwt>
<pdfrwt beam="1">  1       21 0.37536728E-01 0.42885299E+03</pdfrwt>
<pdfrwt beam="2">  1       21 0.11766841E+00 0.42885299E+03</pdfrwt>
<totfact> 0.33239076E+03</totfact>
</mgrwt>
</event>
<event>
 4    1  0.4774032E-002  0.4370987E+03  0.7818608E-02  0.1031641E+00
         21   -1    0    0  503  502  0.00000000000E+00  0.00000000000E+00  0.51865798788E+03  0.51865798788E+03  0.00000000000E+00 0. -1.
         21   -1    0    0  501  503 -0.00000000000E+00 -0.00000000000E+00 -0.44817849375E+03  0.44817849375E+03  0.00000000000E+00 0. -1.
    9000005    1    1    2  501    0 -0.99521542639E+02  0.14543278673E+03 -0.16876338044E+03  0.46854702163E+03  0.40000000000E+03 0. -1.
   -9000005    1    1    2    0  502  0.99521542639E+02 -0.14543278673E+03  0.23924287457E+03  0.49828945999E+03  0.40000000000E+03 0. -1.
<mgrwt>
<rscale>  2 0.43709865E+03</rscale>
<asrwt>0</asrwt>
<pdfrwt beam="1">  1       21 0.79793537E-01 0.43709865E+03</pdfrwt>
<pdfrwt beam="2">  1       21 0.68950537E-01 0.43709865E+03</pdfrwt>
<totfact> 0.23058598E+03</totfact>
</mgrwt>
</event>
<event>
 4    1  0.4774032E-002  0.4096223E+03  0.7818608E-02  0.1040498E+00
         21   -1    0    0  501  502  0.00000000000E+00  0.00000000000E+00  0.60122989183E+03  0.60122989183E+03  0.00000000000E+00 0. -1.
         21   -1    0    0  502  503 -0.00000000000E+00 -0.00000000000E+00 -0.34760625910E+03  0.34760625910E+03  0.00000000000E+00 0. -1.
    9000005    1    1    2  501    0  0.85644534967E+02  0.21340401725E+02  0.33745643467E+03  0.53072332191E+03  0.40000000000E+03 0.  1.
   -9000005    1    1    2    0  503 -0.85644534967E+02 -0.21340401725E+02 -0.83832801933E+02  0.41811282903E+03  0.40000000000E+03 0.  1.
<mgrwt>
<rscale>  2 0.40962226E+03</rscale>
<asrwt>0</asrwt>
<pdfrwt beam="1">  1       21 0.92496906E-01 0.40962226E+03</pdfrwt>
<pdfrwt beam="2">  1       21 0.53477886E-01 0.40962226E+03</pdfrwt>
<totfact> 0.28790521E+03</totfact>
</mgrwt>
</event>
<event>
 4    1  0.4774032E-002  0.5169264E+03  0.7818608E-02  0.1009453E+00
         21   -1    0    0  503  502  0.00000000000E+00  0.00000000000E+00  0.71365022482E+03  0.71365022482E+03  0.00000000000E+00 0.  1.
         21   -1    0    0  501  503 -0.00000000000E+00 -0.00000000000E+00 -0.48797414839E+03  0.48797414839E+03  0.00000000000E+00 0.  1.
    9000005    1    1    2  501    0  0.23783629129E+03  0.22504836322E+03  0.40265281441E+03  0.65524205924E+03  0.40000000000E+03 0.  1.
   -9000005    1    1    2    0  502 -0.23783629129E+03 -0.22504836322E+03 -0.17697673798E+03  0.54638231398E+03  0.40000000000E+03 0.  1.
<mgrwt>
<rscale>  2 0.51692637E+03</rscale>
<asrwt>0</asrwt>
<pdfrwt beam="1">  1       21 0.10979234E+00 0.51692637E+03</pdfrwt>
<pdfrwt beam="2">  1       21 0.75072945E-01 0.51692637E+03</pdfrwt>
<totfact> 0.85910338E+02</totfact>
</mgrwt>
</event>
<event>
 4    1  0.4774032E-002  0.4756799E+03  0.7818608E-02  0.1020329E+00
         21   -1    0    0  503  502  0.00000000000E+00  0.00000000000E+00  0.35023442560E+03  0.35023442560E+03  0.00000000000E+00 0.  1.
         21   -1    0    0  501  503 -0.00000000000E+00 -0.00000000000E+00 -0.74172795245E+03  0.74172795245E+03  0.00000000000E+00 0. -1.
    9000005    1    1    2  501    0 -0.25663661922E+03  0.20225096649E+02 -0.39183221074E+03  0.61628231375E+03  0.40000000000E+03 0. -1.
   -9000005    1    1    2    0  502  0.25663661922E+03 -0.20225096649E+02  0.33868389509E+00  0.47568006430E+03  0.40000000000E+03 0.  1.
<mgrwt>
<rscale>  2 0.47567994E+03</rscale>
<asrwt>0</asrwt>
<pdfrwt beam="1">  1       21 0.53882219E-01 0.47567994E+03</pdfrwt>
<pdfrwt beam="2">  1       21 0.11411199E+00 0.47567994E+03</pdfrwt>
<totfact> 0.16537663E+03</totfact>
</mgrwt>
</event>
<event>
 4    1  0.4774032E-002  0.6074553E+03  0.7818608E-02  0.9890058E-01
         21   -1    0    0  503  502  0.00000000000E+00  0.00000000000E+00  0.13635738641E+04  0.13635738641E+04  0.00000000000E+00 0.  1.
         21   -1    0    0  501  503 -0.00000000000E+00 -0.00000000000E+00 -0.10932791327E+04  0.10932791327E+04  0.00000000000E+00 0. -1.
    9000005    1    1    2  501    0  0.19691703182E+03 -0.41258402482E+03 -0.93045517369E+03  0.11111924789E+04  0.40000000000E+03 0. -1.
   -9000005    1    1    2    0  502 -0.19691703182E+03  0.41258402482E+03  0.12007499050E+04  0.13456605179E+04  0.40000000000E+03 0.  1.
<mgrwt>
<rscale>  2 0.60745526E+03</rscale>
<asrwt>0</asrwt>
<pdfrwt beam="1">  1       21 0.20978060E+00 0.60745526E+03</pdfrwt>
<pdfrwt beam="2">  1       21 0.16819679E+00 0.60745526E+03</pdfrwt>
<totfact> 0.17719257E+01</totfact>
</mgrwt>
</event>
<event>
 4    1  0.4774032E-002  0.5796652E+03  0.7818608E-02  0.9948516E-01
         21   -1    0    0  501  502  0.00000000000E+00  0.00000000000E+00  0.27551710678E+03  0.27551710678E+03  0.00000000000E+00 0.  1.
         21   -1    0    0  502  503 -0.00000000000E+00 -0.00000000000E+00 -0.12551358258E+04  0.12551358258E+04  0.00000000000E+00 0. -1.
    9000005    1    1    2  501    0  0.37598736109E+03  0.18613224879E+03 -0.36097459523E+03  0.68287214626E+03  0.40000000000E+03 0.  1.
   -9000005    1    1    2    0  503 -0.37598736109E+03 -0.18613224879E+03 -0.61864412378E+03  0.84778078630E+03  0.40000000000E+03 0. -1.
<mgrwt>
<rscale>  2 0.57966517E+03</rscale>
<asrwt>0</asrwt>
<pdfrwt beam="1">  1       21 0.42387249E-01 0.57966517E+03</pdfrwt>
<pdfrwt beam="2">  1       21 0.19309781E+00 0.57966517E+03</pdfrwt>
<totfact> 0.62657708E+02</totfact>
</mgrwt>
</event>
<event>
 4    1  0.4774032E-002  0.4067987E+03  0.7818608E-02  0.1041451E+00
         21   -1    0    0  503  502  0.00000000000E+00  0.00000000000E+00  0.32203281159E+03  0.32203281159E+03  0.00000000000E+00 0.  1.
         21   -1    0    0  501  503 -0.00000000000E+00 -0.00000000000E+00 -0.62064880679E+03  0.62064880679E+03  0.00000000000E+00 0.  1.
    9000005    1    1    2  501    0  0.52639503736E+02 -0.52098818721E+02 -0.34480526791E+03  0.53326904752E+03  0.40000000000E+03 0.  1.
   -9000005    1    1    2    0  502 -0.52639503736E+02  0.52098818721E+02  0.46189272711E+02  0.40941257086E+03  0.40000000000E+03 0.  1.
<mgrwt>
<rscale>  2 0.40679873E+03</rscale>
<asrwt>0</asrwt>
<pdfrwt beam="1">  1       21 0.49543510E-01 0.40679873E+03</pdfrwt>
<pdfrwt beam="2">  1       21 0.95484431E-01 0.40679873E+03</pdfrwt>
<totfact> 0.31446482E+03</totfact>
</mgrwt>
</event>
<event>
 4    1  0.4774032E-002  0.5357331E+03  0.7818608E-02  0.1004851E+00
         21   -1    0    0  501  502  0.00000000000E+00  0.00000000000E+00  0.15536196434E+04  0.15536196434E+04  0.00000000000E+00 0.  1.
         21   -1    0    0  502  503 -0.00000000000E+00 -0.00000000000E+00 -0.20305385067E+03  0.20305385067E+03  0.00000000000E+00 0.  1.
    9000005    1    1    2  501    0  0.29676492065E+03  0.19733364766E+03  0.93909141638E+03  0.10811580250E+04  0.40000000000E+03 0.  1.
   -9000005    1    1    2    0  503 -0.29676492065E+03 -0.19733364766E+03  0.41147437638E+03  0.67551546913E+03  0.40000000000E+03 0.  1.
<mgrwt>
<rscale>  2 0.53573313E+03</rscale>
<asrwt>0</asrwt>
<pdfrwt beam="1">  1       21 0.23901840E+00 0.53573313E+03</pdfrwt>
<pdfrwt beam="2">  1       21 0.31239055E-01 0.53573313E+03</pdfrwt>
<totfact> 0.59689282E+02</totfact>
</mgrwt>
</event>
<event>
 4    1  0.4774032E-002  0.4892168E+03  0.7818608E-02  0.1016632E+00
         21   -1    0    0  503  502  0.00000000000E+00  0.00000000000E+00  0.14885322541E+04  0.14885322541E+04  0.00000000000E+00 0. -1.
         21   -1    0    0  501  503 -0.00000000000E+00 -0.00000000000E+00 -0.16188661296E+03  0.16188661296E+03  0.00000000000E+00 0. -1.
    9000005    1    1    2  501    0  0.68320263719E+01 -0.28157848675E+03  0.73140672097E+03  0.87993687970E+03  0.40000000000E+03 0. -1.
   -9000005    1    1    2    0  502 -0.68320263719E+01  0.28157848675E+03  0.59523892020E+03  0.77048198740E+03  0.40000000000E+03 0. -1.
<mgrwt>
<rscale>  2 0.48921684E+03</rscale>
<asrwt>0</asrwt>
<pdfrwt beam="1">  1       21 0.22900495E+00 0.48921684E+03</pdfrwt>
<pdfrwt beam="2">  1       21 0.24905634E-01 0.48921684E+03</pdfrwt>
<totfact> 0.11013722E+03</totfact>
</mgrwt>
</event>
<event>
 4    1  0.4774032E-002  0.4852526E+03  0.7818608E-02  0.1017702E+00
         21   -1    0    0  501  502  0.00000000000E+00  0.00000000000E+00  0.75116823453E+03  0.75116823453E+03  0.00000000000E+00 0. -1.
         21   -1    0    0  502  503 -0.00000000000E+00 -0.00000000000E+00 -0.57225909991E+03  0.57225909991E+03  0.00000000000E+00 0. -1.
    9000005    1    1    2  501    0  0.69577664215E+02 -0.26576126671E+03  0.53443937301E+03  0.72186947966E+03  0.40000000000E+03 0. -1.
   -9000005    1    1    2    0  503 -0.69577664215E+02  0.26576126671E+03 -0.35553023839E+03  0.60155785478E+03  0.40000000000E+03 0. -1.
<mgrwt>
<rscale>  2 0.48525262E+03</rscale>
<asrwt>0</asrwt>
<pdfrwt beam="1">  1       21 0.11556434E+00 0.48525262E+03</pdfrwt>
<pdfrwt beam="2">  1       21 0.88039862E-01 0.48525262E+03</pdfrwt>
<totfact> 0.52833337E+02</totfact>
</mgrwt>
</event>
<event>
 4    1  0.4774032E-002  0.5296958E+03  0.7818608E-02  0.1006306E+00
         21   -1    0    0  501  502  0.00000000000E+00  0.00000000000E+00  0.21581205399E+03  0.21581205399E+03  0.00000000000E+00 0.  1.
         21   -1    0    0  502  503 -0.00000000000E+00 -0.00000000000E+00 -0.13555127165E+04  0.13555127165E+04  0.00000000000E+00 0. -1.
    9000005    1    1    2  501    0  0.10818380767E+03 -0.32996049990E+03 -0.72869817497E+03  0.90087662748E+03  0.40000000000E+03 0. -1.
   -9000005    1    1    2    0  503 -0.10818380767E+03  0.32996049990E+03 -0.41100248758E+03  0.67044814306E+03  0.40000000000E+03 0.  1.
<mgrwt>
<rscale>  2 0.52969583E+03</rscale>
<asrwt>0</asrwt>
<pdfrwt beam="1">  1       21 0.33201854E-01 0.52969583E+03</pdfrwt>
<pdfrwt beam="2">  1       21 0.20854042E+00 0.52969583E+03</pdfrwt>
<totfact> 0.83007579E+02</totfact>
</mgrwt>
</event>
<event>
 4    1  0.4774032E-002  0.4030126E+03  0.7818608E-02  0.1042741E+00
         21   -1    0    0  503  502  0.00000000000E+00  0.00000000000E+00  0.91900705876E+03  0.91900705876E+03  0.00000000000E+00 0. -1.
         21   -1    0    0  501  503 -0.00000000000E+00 -0.00000000000E+00 -0.59564516054E+03  0.59564516054E+03  0.00000000000E+00 0. -1.
    9000005    1    1    2  501    0 -0.49185007532E+02  0.48448124888E-01 -0.47343122815E+03  0.62173651582E+03  0.40000000000E+03 0. -1.
   -9000005    1    1    2    0  502  0.49185007532E+02 -0.48448124888E-01  0.79679312636E+03  0.89291570349E+03  0.40000000000E+03 0. -1.
<mgrwt>
<rscale>  2 0.40301261E+03</rscale>
<asrwt>0</asrwt>
<pdfrwt beam="1">  1       21 0.14138570E+00 0.40301261E+03</pdfrwt>
<pdfrwt beam="2">  1       21 0.91637717E-01 0.40301261E+03</pdfrwt>
<totfact> 0.29680004E+02</totfact>
</mgrwt>
</event>
<event>
 4    1  0.4774032E-002  0.4417505E+03  0.7818608E-02  0.1030211E+00
         21   -1    0    0  501  502  0.00000000000E+00  0.00000000000E+00  0.25723970337E+03  0.25723970337E+03  0.00000000000E+00 0. -1.
         21   -1    0    0  502  503 -0.00000000000E+00 -0.00000000000E+00 -0.81585405123E+03  0.81585405123E+03  0.00000000000E+00 0. -1.
    9000005    1    1    2  501    0  0.14422386968E+03  0.11976210291E+03 -0.42143634124E+03  0.61053425423E+03  0.40000000000E+03 0. -1.
   -9000005    1    1    2    0  503 -0.14422386968E+03 -0.11976210291E+03 -0.13717800662E+03  0.46255950037E+03  0.40000000000E+03 0. -1.
<mgrwt>
<rscale>  2 0.44175048E+03</rscale>
<asrwt>0</asrwt>
<pdfrwt beam="1">  1       21 0.39575339E-01 0.44175048E+03</pdfrwt>
<pdfrwt beam="2">  1       21 0.12551601E+00 0.44175048E+03</pdfrwt>
<totfact> 0.25176603E+03</totfact>
</mgrwt>
</event>
<event>
 4    1  0.4774032E-002  0.4277934E+03  0.7818608E-02  0.1034559E+00
         21   -1    0    0  501  502  0.00000000000E+00  0.00000000000E+00  0.50229158375E+03  0.50229158375E+03  0.00000000000E+00 0.  1.
         21   -1    0    0  502  503 -0.00000000000E+00 -0.00000000000E+00 -0.50536264068E+03  0.50536264068E+03  0.00000000000E+00 0.  1.
    9000005    1    1    2  501    0  0.18616515506E+02  0.15053430120E+03  0.26460899733E+03  0.50301597584E+03  0.40000000000E+03 0.  1.
   -9000005    1    1    2    0  503 -0.18616515506E+02 -0.15053430120E+03 -0.26768005426E+03  0.50463824858E+03  0.40000000000E+03 0.  1.
<mgrwt>
<rscale>  2 0.42779335E+03</rscale>
<asrwt>0</asrwt>
<pdfrwt beam="1">  1       21 0.77275628E-01 0.42779335E+03</pdfrwt>
<pdfrwt beam="2">  1       21 0.77748098E-01 0.42779335E+03</pdfrwt>
<totfact> 0.18970955E+03</totfact>
</mgrwt>
</event>
<event>
 4    1  0.4774032E-002  0.4207918E+03  0.7818608E-02  0.1036809E+00
         21   -1    0    0  501  502  0.00000000000E+00  0.00000000000E+00  0.18316115405E+03  0.18316115405E+03  0.00000000000E+00 0. -1.
         21   -1    0    0  502  503 -0.00000000000E+00 -0.00000000000E+00 -0.12169865298E+04  0.12169865298E+04  0.00000000000E+00 0. -1.
    9000005    1    1    2  501    0  0.82618789466E+02  0.10119234690E+03 -0.19944364573E+03  0.46566460384E+03  0.40000000000E+03 0. -1.
   -9000005    1    1    2    0  503 -0.82618789466E+02 -0.10119234690E+03 -0.83438172998E+03  0.93448307998E+03  0.40000000000E+03 0. -1.
<mgrwt>
<rscale>  2 0.42079182E+03</rscale>
<asrwt>0</asrwt>
<pdfrwt beam="1">  1       21 0.28178640E-01 0.42079182E+03</pdfrwt>
<pdfrwt beam="2">  1       21 0.18722869E+00 0.42079182E+03</pdfrwt>
<totfact> 0.16769689E+03</totfact>
</mgrwt>
</event>
<event>
 4    1  0.4774032E-002  0.4660038E+03  0.7818608E-02  0.1023054E+00
         21   -1    0    0  501  502  0.00000000000E+00  0.00000000000E+00  0.31325202179E+03  0.31325202179E+03  0.00000000000E+00 0. -1.
         21   -1    0    0  502  503 -0.00000000000E+00 -0.00000000000E+00 -0.70271835760E+03  0.70271835760E+03  0.00000000000E+00 0.  1.
    9000005    1    1    2  501    0 -0.19067170540E+03 -0.14423543979E+03 -0.13574382357E+03  0.48537196764E+03  0.40000000000E+03 0. -1.
   -9000005    1    1    2    0  503  0.19067170540E+03  0.14423543979E+03 -0.25372251223E+03  0.53059841175E+03  0.40000000000E+03 0.  1.
<mgrwt>
<rscale>  2 0.46600382E+03</rscale>
<asrwt>0</asrwt>
<pdfrwt beam="1">  1       21 0.48192619E-01 0.46600382E+03</pdfrwt>
<pdfrwt beam="2">  1       21 0.10811051E+00 0.46600382E+03</pdfrwt>
<totfact> 0.24093677E+03</totfact>
</mgrwt>
</event>
<event>
 4    1  0.4774032E-002  0.4670182E+03  0.7818608E-02  0.1022765E+00
         21   -1    0    0  503  502  0.00000000000E+00  0.00000000000E+00  0.92465956313E+03  0.92465956313E+03  0.00000000000E+00 0. -1.
         21   -1    0    0  501  503 -0.00000000000E+00 -0.00000000000E+00 -0.28868374458E+03  0.28868374458E+03  0.00000000000E+00 0. -1.
    9000005    1    1    2  501    0  0.12682564046E+03  0.20499076998E+03  0.58517952227E+02  0.47067006447E+03  0.40000000000E+03 0. -1.
   -9000005    1    1    2    0  502 -0.12682564046E+03 -0.20499076998E+03  0.57745786632E+03  0.74267324324E+03  0.40000000000E+03 0. -1.
<mgrwt>
<rscale>  2 0.46701816E+03</rscale>
<asrwt>0</asrwt>
<pdfrwt beam="1">  1       21 0.14225532E+00 0.46701816E+03</pdfrwt>
<pdfrwt beam="2">  1       21 0.44412884E-01 0.46701816E+03</pdfrwt>
<totfact> 0.14139311E+03</totfact>
</mgrwt>
</event>
<event>
 4    1  0.4774032E-002  0.4017117E+03  0.7818608E-02  0.1043189E+00
         21   -1    0    0  501  502  0.00000000000E+00  0.00000000000E+00  0.42580708217E+03  0.42580708217E+03  0.00000000000E+00 0. -1.
         21   -1    0    0  502  503 -0.00000000000E+00 -0.00000000000E+00 -0.93975212257E+03  0.93975212257E+03  0.00000000000E+00 0. -1.
    9000005    1    1    2  501    0  0.33634071418E+02  0.15524271962E+02  0.27046035043E+03  0.48427373967E+03  0.40000000000E+03 0. -1.
   -9000005    1    1    2    0  503 -0.33634071418E+02 -0.15524271962E+02 -0.78440539083E+03  0.88128546507E+03  0.40000000000E+03 0. -1.
<mgrwt>
<rscale>  2 0.40171166E+03</rscale>
<asrwt>0</asrwt>
<pdfrwt beam="1">  1       21 0.65508782E-01 0.40171166E+03</pdfrwt>
<pdfrwt beam="2">  1       21 0.14457725E+00 0.40171166E+03</pdfrwt>
<totfact> 0.60387844E+02</totfact>
</mgrwt>
</event>
<event>
 4    1  0.4774032E-002  0.4043740E+03  0.7818608E-02  0.1042276E+00
         21   -1    0    0  501  502  0.00000000000E+00  0.00000000000E+00  0.14869779815E+04  0.14869779815E+04  0.00000000000E+00 0.  1.
         21   -1    0    0  502  503 -0.00000000000E+00 -0.00000000000E+00 -0.12982835198E+03  0.12982835198E+03  0.00000000000E+00 0.  1.
    9000005    1    1    2  501    0 -0.59314351761E+02  0.37289647007E+00  0.99476539990E+03  0.10738140119E+04  0.40000000000E+03 0. -1.
   -9000005    1    1    2    0  503  0.59314351761E+02 -0.37289647007E+00  0.36238422962E+03  0.54299232154E+03  0.40000000000E+03 0. -1.
<mgrwt>
<rscale>  2 0.40437400E+03</rscale>
<asrwt>0</asrwt>
<pdfrwt beam="1">  1       21 0.22876583E+00 0.40437400E+03</pdfrwt>
<pdfrwt beam="2">  1       21 0.19973594E-01 0.40437400E+03</pdfrwt>
<totfact> 0.17585215E+03</totfact>
</mgrwt>
</event>
<event>
 4    1  0.4774032E-002  0.4198037E+03  0.7818608E-02  0.1037130E+00
         21   -1    0    0  503  502  0.00000000000E+00  0.00000000000E+00  0.66927888915E+03  0.66927888915E+03  0.00000000000E+00 0.  1.
         21   -1    0    0  501  503 -0.00000000000E+00 -0.00000000000E+00 -0.51939249558E+03  0.51939249558E+03  0.00000000000E+00 0.  1.
    9000005    1    1    2  501    0 -0.23917140449E+02  0.12515244940E+03 -0.34237240622E+03  0.54171397411E+03  0.40000000000E+03 0.  1.
   -9000005    1    1    2    0  502  0.23917140449E+02 -0.12515244940E+03  0.49225879979E+03  0.64695741063E+03  0.40000000000E+03 0.  1.
<mgrwt>
<rscale>  2 0.41980372E+03</rscale>
<asrwt>0</asrwt>
<pdfrwt beam="1">  1       21 0.10296598E+00 0.41980372E+03</pdfrwt>
<pdfrwt beam="2">  1       21 0.79906537E-01 0.41980372E+03</pdfrwt>
<totfact> 0.90713643E+02</totfact>
</mgrwt>
</event>
<event>
 4    1  0.4774032E-002  0.4591604E+03  0.7818608E-02  0.1025025E+00
         21   -1    0    0  501  502  0.00000000000E+00  0.00000000000E+00  0.28406564153E+03  0.28406564153E+03  0.00000000000E+00 0.  1.
         21   -1    0    0  502  503 -0.00000000000E+00 -0.00000000000E+00 -0.90205618839E+03  0.90205618839E+03  0.00000000000E+00 0. -1.
    9000005    1    1    2  501    0 -0.14579570282E+03 -0.17196468294E+03 -0.59321754564E+02  0.46297657576E+03  0.40000000000E+03 0.  1.
   -9000005    1    1    2    0  503  0.14579570282E+03  0.17196468294E+03 -0.55866879229E+03  0.72314525416E+03  0.40000000000E+03 0. -1.
<mgrwt>
<rscale>  2 0.45916036E+03</rscale>
<asrwt>0</asrwt>
<pdfrwt beam="1">  1       21 0.43702406E-01 0.45916036E+03</pdfrwt>
<pdfrwt beam="2">  1       21 0.13877787E+00 0.45916036E+03</pdfrwt>
<totfact> 0.15670576E+03</totfact>
</mgrwt>
</event>
<event>
 4    1  0.4774032E-002  0.4656676E+03  0.7818608E-02  0.1023150E+00
         21   -1    0    0  503  502  0.00000000000E+00  0.00000000000E+00  0.11214911712E+04  0.11214911712E+04  0.00000000000E+00 0.  1.
         21   -1    0    0  501  503 -0.00000000000E+00 -0.00000000000E+00 -0.52535389351E+03  0.52535389351E+03  0.00000000000E+00 0.  1.
    9000005    1    1    2  501    0 -0.14817231566E+03 -0.18679213628E+03 -0.35651454970E+03  0.58647162033E+03  0.40000000000E+03 0.  1.
   -9000005    1    1    2    0  502  0.14817231566E+03  0.18679213628E+03  0.95265182742E+03  0.10603734444E+04  0.40000000000E+03 0.  1.
<mgrwt>
<rscale>  2 0.46566763E+03</rscale>
<asrwt>0</asrwt>
<pdfrwt beam="1">  1       21 0.17253710E+00 0.46566763E+03</pdfrwt>
<pdfrwt beam="2">  1       21 0.80823676E-01 0.46566763E+03</pdfrwt>
<totfact> 0.22267122E+02</totfact>
</mgrwt>
</event>
<event>
 4    1  0.4774032E-002  0.4033004E+03  0.7818608E-02  0.1042643E+00
         21   -1    0    0  501  502  0.00000000000E+00  0.00000000000E+00  0.52662105638E+03  0.52662105638E+03  0.00000000000E+00 0. -1.
         21   -1    0    0  502  503 -0.00000000000E+00 -0.00000000000E+00 -0.11538628534E+04  0.11538628534E+04  0.00000000000E+00 0. -1.
    9000005    1    1    2  501    0  0.47829125594E+02 -0.19068077331E+02  0.40542534916E+03  0.57185743903E+03  0.40000000000E+03 0. -1.
   -9000005    1    1    2    0  503 -0.47829125594E+02  0.19068077331E+02 -0.10326671462E+04  0.11086264707E+04  0.40000000000E+03 0. -1.
<mgrwt>
<rscale>  2 0.40330041E+03</rscale>
<asrwt>0</asrwt>
<pdfrwt beam="1">  1       21 0.81018625E-01 0.40330041E+03</pdfrwt>
<pdfrwt beam="2">  1       21 0.17751736E+00 0.40330041E+03</pdfrwt>
<totfact> 0.21097201E+02</totfact>
</mgrwt>
</event>
<event>
 4    1  0.4774032E-002  0.4396043E+03  0.7818608E-02  0.1030868E+00
         21   -1    0    0  503  502  0.00000000000E+00  0.00000000000E+00  0.22222122023E+03  0.22222122023E+03  0.00000000000E+00 0.  1.
         21   -1    0    0  501  503 -0.00000000000E+00 -0.00000000000E+00 -0.14597674799E+04  0.14597674799E+04  0.00000000000E+00 0.  1.
    9000005    1    1    2  501    0 -0.18008916447E+03 -0.28632697987E+02 -0.11534913983E+04  0.12344206514E+04  0.40000000000E+03 0.  1.
   -9000005    1    1    2    0  502  0.18008916447E+03  0.28632697987E+02 -0.84054861366E+02  0.44756804876E+03  0.40000000000E+03 0.  1.
<mgrwt>
<rscale>  2 0.43960430E+03</rscale>
<asrwt>0</asrwt>
<pdfrwt beam="1">  1       21 0.34187879E-01 0.43960430E+03</pdfrwt>
<pdfrwt beam="2">  1       21 0.22457962E+00 0.43960430E+03</pdfrwt>
<totfact> 0.64194834E+02</totfact>
</mgrwt>
</event>
<event>
 4    1  0.4774032E-002  0.5192572E+03  0.7818608E-02  0.1008871E+00
         21   -1    0    0  503  502  0.00000000000E+00  0.00000000000E+00  0.17824041673E+03  0.17824041673E+03  0.00000000000E+00 0.  1.
         21   -1    0    0  501  503 -0.00000000000E+00 -0.00000000000E+00 -0.16338709802E+04  0.16338709802E+04  0.00000000000E+00 0. -1.
    9000005    1    1    2  501    0 -0.32926338075E+03 -0.34837563161E+02 -0.48109343503E+03  0.70786928379E+03  0.40000000000E+03 0.  1.
   -9000005    1    1    2    0  502  0.32926338075E+03  0.34837563161E+02 -0.97453712846E+03  0.11042421132E+04  0.40000000000E+03 0. -1.
<mgrwt>
<rscale>  2 0.51925719E+03</rscale>
<asrwt>0</asrwt>
<pdfrwt beam="1">  1       21 0.27421603E-01 0.51925719E+03</pdfrwt>
<pdfrwt beam="2">  1       21 0.25136476E+00 0.51925719E+03</pdfrwt>
<totfact> 0.65275012E+02</totfact>
</mgrwt>
</event>
<event>
 4    1  0.4774032E-002  0.4723844E+03  0.7818608E-02  0.1021249E+00
         21   -1    0    0  501  502  0.00000000000E+00  0.00000000000E+00  0.41461066711E+03  0.41461066711E+03  0.00000000000E+00 0.  1.
         21   -1    0    0  502  503 -0.00000000000E+00 -0.00000000000E+00 -0.16806440812E+04  0.16806440812E+04  0.00000000000E+00 0.  1.
    9000005    1    1    2  501    0  0.12703764367E+03  0.21681444750E+03  0.23072677937E+03  0.52572037650E+03  0.40000000000E+03 0.  1.
   -9000005    1    1    2    0  503 -0.12703764367E+03 -0.21681444750E+03 -0.14967601934E+04  0.15695343718E+04  0.40000000000E+03 0.  1.
<mgrwt>
<rscale>  2 0.47238445E+03</rscale>
<asrwt>0</asrwt>
<pdfrwt beam="1">  1       21 0.63786255E-01 0.47238445E+03</pdfrwt>
<pdfrwt beam="2">  1       21 0.25856063E+00 0.47238445E+03</pdfrwt>
<totfact> 0.10405326E+02</totfact>
</mgrwt>
</event>
<event>
 4    1  0.4774032E-002  0.4238942E+03  0.7818608E-02  0.1035806E+00
         21   -1    0    0  503  502  0.00000000000E+00  0.00000000000E+00  0.66073749937E+03  0.66073749937E+03  0.00000000000E+00 0. -1.
         21   -1    0    0  501  503 -0.00000000000E+00 -0.00000000000E+00 -0.42895182976E+03  0.42895182976E+03  0.00000000000E+00 0. -1.
    9000005    1    1    2  501    0 -0.97937374494E+02  0.10047187491E+03 -0.21373462537E+03  0.47473025715E+03  0.40000000000E+03 0. -1.
   -9000005    1    1    2    0  502  0.97937374494E+02 -0.10047187491E+03  0.44552029498E+03  0.61495907198E+03  0.40000000000E+03 0. -1.
<mgrwt>
<rscale>  2 0.42389424E+03</rscale>
<asrwt>0</asrwt>
<pdfrwt beam="1">  1       21 0.10165192E+00 0.42389424E+03</pdfrwt>
<pdfrwt beam="2">  1       21 0.65992589E-01 0.42389424E+03</pdfrwt>
<totfact> 0.14410618E+03</totfact>
</mgrwt>
</event>
<event>
 4    1  0.4774032E-002  0.6406105E+03  0.7818608E-02  0.9824559E-01
         21   -1    0    0  501  502  0.00000000000E+00  0.00000000000E+00  0.15728484644E+04  0.15728484644E+04  0.00000000000E+00 0. -1.
         21   -1    0    0  502  503 -0.00000000000E+00 -0.00000000000E+00 -0.73121131478E+03  0.73121131478E+03  0.00000000000E+00 0.  1.
    9000005    1    1    2  501    0  0.65014100715E+02 -0.49614008881E+03  0.13447239152E+04  0.14895181198E+04  0.40000000000E+03 0. -1.
   -9000005    1    1    2    0  503 -0.65014100715E+02  0.49614008881E+03 -0.50308676565E+03  0.81454165934E+03  0.40000000000E+03 0.  1.
<mgrwt>
<rscale>  2 0.64061051E+03</rscale>
<asrwt>0</asrwt>
<pdfrwt beam="1">  1       21 0.24197669E+00 0.64061051E+03</pdfrwt>
<pdfrwt beam="2">  1       21 0.11249405E+00 0.64061051E+03</pdfrwt>
<totfact> 0.31788851E+01</totfact>
</mgrwt>
</event>
<event>
 4    1  0.4774032E-002  0.4011711E+03  0.7818608E-02  0.1043375E+00
         21   -1    0    0  501  502  0.00000000000E+00  0.00000000000E+00  0.12095565031E+04  0.12095565031E+04  0.00000000000E+00 0.  1.
         21   -1    0    0  502  503 -0.00000000000E+00 -0.00000000000E+00 -0.16052498574E+03  0.16052498574E+03  0.00000000000E+00 0.  1.
    9000005    1    1    2  501    0  0.30621089785E+02 -0.77058414631E+00  0.80789608510E+03  0.90201681207E+03  0.40000000000E+03 0. -1.
   -9000005    1    1    2    0  503 -0.30621089785E+02  0.77058414631E+00  0.24113543222E+03  0.46806467674E+03  0.40000000000E+03 0. -1.
<mgrwt>
<rscale>  2 0.40117109E+03</rscale>
<asrwt>0</asrwt>
<pdfrwt beam="1">  1       21 0.18608561E+00 0.40117109E+03</pdfrwt>
<pdfrwt beam="2">  1       21 0.24696152E-01 0.40117109E+03</pdfrwt>
<totfact> 0.22297851E+03</totfact>
</mgrwt>
</event>
<event>
 4    1  0.4774032E-002  0.4434357E+03  0.7818608E-02  0.1029698E+00
         21   -1    0    0  503  502  0.00000000000E+00  0.00000000000E+00  0.21920371460E+03  0.21920371460E+03  0.00000000000E+00 0. -1.
         21   -1    0    0  501  503 -0.00000000000E+00 -0.00000000000E+00 -0.10472561206E+04  0.10472561206E+04  0.00000000000E+00 0. -1.
    9000005    1    1    2  501    0  0.16849038009E+03  0.90808635521E+02 -0.65384792592E+03  0.79003311747E+03  0.40000000000E+03 0. -1.
   -9000005    1    1    2    0  502 -0.16849038009E+03 -0.90808635521E+02 -0.17420448006E+03  0.47642671770E+03  0.40000000000E+03 0. -1.
<mgrwt>
<rscale>  2 0.44343570E+03</rscale>
<asrwt>0</asrwt>
<pdfrwt beam="1">  1       21 0.33723648E-01 0.44343570E+03</pdfrwt>
<pdfrwt beam="2">  1       21 0.16111633E+00 0.44343570E+03</pdfrwt>
<totfact> 0.17878650E+03</totfact>
</mgrwt>
</event>
<event>
 4    1  0.4774032E-002  0.5538333E+03  0.7818608E-02  0.1000611E+00
         21   -1    0    0  501  502  0.00000000000E+00  0.00000000000E+00  0.67756381700E+03  0.67756381700E+03  0.00000000000E+00 0. -1.
         21   -1    0    0  502  503 -0.00000000000E+00 -0.00000000000E+00 -0.86495406171E+03  0.86495406171E+03  0.00000000000E+00 0.  1.
    9000005    1    1    2  501    0  0.21255412980E+03 -0.31867233665E+03  0.43876560237E+03  0.70657382492E+03  0.40000000000E+03 0. -1.
   -9000005    1    1    2    0  503 -0.21255412980E+03  0.31867233665E+03 -0.62615584708E+03  0.83594405379E+03  0.40000000000E+03 0.  1.
<mgrwt>
<rscale>  2 0.55383329E+03</rscale>
<asrwt>0</asrwt>
<pdfrwt beam="1">  1       21 0.10424059E+00 0.55383329E+03</pdfrwt>
<pdfrwt beam="2">  1       21 0.13306985E+00 0.55383329E+03</pdfrwt>
<totfact> 0.23777496E+02</totfact>
</mgrwt>
</event>
<event>
 4    1  0.4774032E-002  0.4210769E+03  0.7818608E-02  0.1036716E+00
         21   -1    0    0  503  502  0.00000000000E+00  0.00000000000E+00  0.42906560700E+03  0.42906560700E+03  0.00000000000E+00 0. -1.
         21   -1    0    0  501  503 -0.00000000000E+00 -0.00000000000E+00 -0.41568709695E+03  0.41568709695E+03  0.00000000000E+00 0. -1.
    9000005    1    1    2  501    0 -0.58175856417E+02  0.11798851565E+03 -0.25738822793E+02  0.42186278231E+03  0.40000000000E+03 0. -1.
   -9000005    1    1    2    0  502  0.58175856417E+02 -0.11798851565E+03  0.39117332845E+02  0.42288992164E+03  0.40000000000E+03 0. -1.
<mgrwt>
<rscale>  2 0.42107686E+03</rscale>
<asrwt>0</asrwt>
<pdfrwt beam="1">  1       21 0.66010093E-01 0.42107686E+03</pdfrwt>
<pdfrwt beam="2">  1       21 0.63951861E-01 0.42107686E+03</pdfrwt>
<totfact> 0.42146965E+03</totfact>
</mgrwt>
</event>
<event>
 4    1  0.4774032E-002  0.6181646E+03  0.7818608E-02  0.9868421E-01
         21   -1    0    0  503  502  0.00000000000E+00  0.00000000000E+00  0.26848327537E+03  0.26848327537E+03  0.00000000000E+00 0.  1.
         21   -1    0    0  501  503 -0.00000000000E+00 -0.00000000000E+00 -0.14232856440E+04  0.14232856440E+04  0.00000000000E+00 0.  1.
    9000005    1    1    2  501    0  0.37389557410E+03 -0.28693134100E+03 -0.57610540981E+03  0.84499996331E+03  0.40000000000E+03 0.  1.
   -9000005    1    1    2    0  502 -0.37389557410E+03  0.28693134100E+03 -0.57869695879E+03  0.84676895603E+03  0.40000000000E+03 0.  1.
<mgrwt>
<rscale>  2 0.61816462E+03</rscale>
<asrwt>0</asrwt>
<pdfrwt beam="1">  1       21 0.41305120E-01 0.61816462E+03</pdfrwt>
<pdfrwt beam="2">  1       21 0.21896702E+00 0.61816462E+03</pdfrwt>
<totfact> 0.43854212E+02</totfact>
</mgrwt>
</event>
<event>
 4    1  0.4774032E-002  0.4585189E+03  0.7818608E-02  0.1025212E+00
         21   -1    0    0  503  502  0.00000000000E+00  0.00000000000E+00  0.39641826856E+03  0.39641826856E+03  0.00000000000E+00 0. -1.
         21   -1    0    0  501  503 -0.00000000000E+00 -0.00000000000E+00 -0.84502289372E+03  0.84502289372E+03  0.00000000000E+00 0. -1.
    9000005    1    1    2  501    0  0.72770580244E+02  0.21200006517E+03 -0.60308754903E+03  0.75759763514E+03  0.40000000000E+03 0. -1.
   -9000005    1    1    2    0  502 -0.72770580244E+02 -0.21200006517E+03  0.15448292387E+03  0.48384352713E+03  0.40000000000E+03 0. -1.
<mgrwt>
<rscale>  2 0.45851890E+03</rscale>
<asrwt>0</asrwt>
<pdfrwt beam="1">  1       21 0.60987426E-01 0.45851890E+03</pdfrwt>
<pdfrwt beam="2">  1       21 0.13000352E+00 0.45851890E+03</pdfrwt>
<totfact> 0.91158614E+02</totfact>
</mgrwt>
</event>
<event>
 4    1  0.4774032E-002  0.5026451E+03  0.7818608E-02  0.1013091E+00
         21   -1    0    0  501  502  0.00000000000E+00  0.00000000000E+00  0.63624193161E+03  0.63624193161E+03  0.00000000000E+00 0. -1.
         21   -1    0    0  502  503 -0.00000000000E+00 -0.00000000000E+00 -0.45324549813E+03  0.45324549813E+03  0.00000000000E+00 0. -1.
    9000005    1    1    2  501    0 -0.29008979800E+03  0.92195735596E+02  0.28322380095E+03  0.57694702182E+03  0.40000000000E+03 0. -1.
   -9000005    1    1    2    0  503  0.29008979800E+03 -0.92195735596E+02 -0.10022736747E+03  0.51254040792E+03  0.40000000000E+03 0. -1.
<mgrwt>
<rscale>  2 0.50264515E+03</rscale>
<asrwt>0</asrwt>
<pdfrwt beam="1">  1       21 0.97883374E-01 0.50264515E+03</pdfrwt>
<pdfrwt beam="2">  1       21 0.69730076E-01 0.50264515E+03</pdfrwt>
<totfact> 0.13545161E+03</totfact>
</mgrwt>
</event>
<event>
 4    1  0.4774032E-002  0.4590427E+03  0.7818608E-02  0.1025059E+00
         21   -1    0    0  501  502  0.00000000000E+00  0.00000000000E+00  0.36813198580E+03  0.36813198580E+03  0.00000000000E+00 0. -1.
         21   -1    0    0  502  503 -0.00000000000E+00 -0.00000000000E+00 -0.11078817076E+04  0.11078817076E+04  0.00000000000E+00 0.  1.
    9000005    1    1    2  501    0 -0.22483884046E+03 -0.12951480926E+02  0.14320428903E+03  0.48086142852E+03  0.40000000000E+03 0. -1.
   -9000005    1    1    2    0  503  0.22483884046E+03  0.12951480926E+02 -0.88295401084E+03  0.99515226488E+03  0.40000000000E+03 0.  1.
<mgrwt>
<rscale>  2 0.45904275E+03</rscale>
<asrwt>0</asrwt>
<pdfrwt beam="1">  1       21 0.56635690E-01 0.45904275E+03</pdfrwt>
<pdfrwt beam="2">  1       21 0.17044334E+00 0.45904275E+03</pdfrwt>
<totfact> 0.51325749E+02</totfact>
</mgrwt>
</event>
<event>
 4    1  0.4774032E-002  0.4172527E+03  0.7818608E-02  0.1037964E+00
         21   -1    0    0  501  502  0.00000000000E+00  0.00000000000E+00  0.90741731335E+02  0.90741731335E+02  0.00000000000E+00 0.  1.
         21   -1    0    0  502  503 -0.00000000000E+00 -0.00000000000E+00 -0.19202006959E+04  0.19202006959E+04  0.00000000000E+00 0.  1.
    9000005    1    1    2  501    0 -0.11505527542E+03  0.29361561394E+02 -0.94348542455E+03  0.10316319906E+04  0.40000000000E+03 0.  1.
   -9000005    1    1    2    0  503  0.11505527542E+03 -0.29361561394E+02 -0.88597353998E+03  0.97931043660E+03  0.40000000000E+03 0.  1.
<mgrwt>
<rscale>  2 0.41725270E+03</rscale>
<asrwt>0</asrwt>
<pdfrwt beam="1">  1       21 0.13960267E-01 0.41725270E+03</pdfrwt>
<pdfrwt beam="2">  1       21 0.29541548E+00 0.41725270E+03</pdfrwt>
<totfact> 0.13413375E+03</totfact>
</mgrwt>
</event>
<event>
 4    1  0.4774032E-002  0.4237365E+03  0.7818608E-02  0.1035857E+00
         21   -1    0    0  501  502  0.00000000000E+00  0.00000000000E+00  0.23270164530E+04  0.23270164530E+04  0.00000000000E+00 0.  1.
         21   -1    0    0  502  503 -0.00000000000E+00 -0.00000000000E+00 -0.13991629134E+03  0.13991629134E+03  0.00000000000E+00 0.  1.
    9000005    1    1    2  501    0 -0.78971919018E+02 -0.11539525089E+03  0.19196293994E+04  0.19658407003E+04  0.40000000000E+03 0.  1.
   -9000005    1    1    2    0  503  0.78971919018E+02  0.11539525089E+03  0.26747076222E+03  0.50109204400E+03  0.40000000000E+03 0.  1.
<mgrwt>
<rscale>  2 0.42373651E+03</rscale>
<asrwt>0</asrwt>
<pdfrwt beam="1">  1       21 0.35800250E+00 0.42373651E+03</pdfrwt>
<pdfrwt beam="2">  1       21 0.21525585E-01 0.42373651E+03</pdfrwt>
<totfact> 0.24796196E+02</totfact>
</mgrwt>
</event>
<event>
 4    1  0.4774032E-002  0.4494080E+03  0.7818608E-02  0.1027899E+00
         21   -1    0    0  501  502  0.00000000000E+00  0.00000000000E+00  0.77925309004E+03  0.77925309004E+03  0.00000000000E+00 0.  1.
         21   -1    0    0  502  503 -0.00000000000E+00 -0.00000000000E+00 -0.29081387874E+03  0.29081387874E+03  0.00000000000E+00 0.  1.
    9000005    1    1    2  501    0 -0.20478824835E+03  0.54174681875E+01  0.42067824589E+03  0.61557920871E+03  0.40000000000E+03 0.  1.
   -9000005    1    1    2    0  503  0.20478824835E+03 -0.54174681875E+01  0.67760965408E+02  0.45448776008E+03  0.40000000000E+03 0.  1.
<mgrwt>
<rscale>  2 0.44940803E+03</rscale>
<asrwt>0</asrwt>
<pdfrwt beam="1">  1       21 0.11988509E+00 0.44940803E+03</pdfrwt>
<pdfrwt beam="2">  1       21 0.44740597E-01 0.44940803E+03</pdfrwt>
<totfact> 0.21888758E+03</totfact>
</mgrwt>
</event>
<event>
 4    1  0.4774032E-002  0.5879347E+03  0.7818608E-02  0.9930759E-01
         21   -1    0    0  501  502  0.00000000000E+00  0.00000000000E+00  0.13744529395E+04  0.13744529395E+04  0.00000000000E+00 0.  1.
         21   -1    0    0  502  503 -0.00000000000E+00 -0.00000000000E+00 -0.27755722750E+03  0.27755722750E+03  0.00000000000E+00 0.  1.
    9000005    1    1    2  501    0  0.30354155453E+03 -0.30582635895E+03  0.80156239654E+03  0.99406715704E+03  0.40000000000E+03 0.  1.
   -9000005    1    1    2    0  503 -0.30354155453E+03  0.30582635895E+03  0.29533331549E+03  0.65794300999E+03  0.40000000000E+03 0.  1.
<mgrwt>
<rscale>  2 0.58793472E+03</rscale>
<asrwt>0</asrwt>
<pdfrwt beam="1">  1       21 0.21145429E+00 0.58793472E+03</pdfrwt>
<pdfrwt beam="2">  1       21 0.42701113E-01 0.58793472E+03</pdfrwt>
<totfact> 0.46322830E+02</totfact>
</mgrwt>
</event>
<event>
 4    1  0.4774032E-002  0.4141349E+03  0.7818608E-02  0.1038992E+00
         21   -1    0    0  501  502  0.00000000000E+00  0.00000000000E+00  0.97385796388E+03  0.97385796388E+03  0.00000000000E+00 0. -1.
         21   -1    0    0  502  503 -0.00000000000E+00 -0.00000000000E+00 -0.25365188729E+03  0.25365188729E+03  0.00000000000E+00 0. -1.
    9000005    1    1    2  501    0  0.92101929386E+02 -0.54999303321E+02  0.69944661360E+03  0.81285500185E+03  0.40000000000E+03 0. -1.
   -9000005    1    1    2    0  503 -0.92101929386E+02  0.54999303321E+02  0.20759462996E+02  0.41465484932E+03  0.40000000000E+03 0. -1.
<mgrwt>
<rscale>  2 0.41413487E+03</rscale>
<asrwt>0</asrwt>
<pdfrwt beam="1">  1       21 0.14982430E+00 0.41413487E+03</pdfrwt>
<pdfrwt beam="2">  1       21 0.39023368E-01 0.41413487E+03</pdfrwt>
<totfact> 0.16433669E+03</totfact>
</mgrwt>
</event>
<event>
 4    1  0.4774032E-002  0.7343551E+03  0.7818608E-02  0.9660220E-01
         21   -1    0    0  501  502  0.00000000000E+00  0.00000000000E+00  0.15046110654E+04  0.15046110654E+04  0.00000000000E+00 0.  1.
         21   -1    0    0  502  503 -0.00000000000E+00 -0.00000000000E+00 -0.35891740542E+03  0.35891740542E+03  0.00000000000E+00 0. -1.
    9000005    1    1    2  501    0  0.60978962182E+03  0.86220669725E+02  0.60765647957E+03  0.95316513990E+03  0.40000000000E+03 0.  1.
   -9000005    1    1    2    0  503 -0.60978962182E+03 -0.86220669725E+02  0.53803718041E+03  0.91036333092E+03  0.40000000000E+03 0. -1.
<mgrwt>
<rscale>  2 0.73435508E+03</rscale>
<asrwt>0</asrwt>
<pdfrwt beam="1">  1       21 0.23147862E+00 0.73435508E+03</pdfrwt>
<pdfrwt beam="2">  1       21 0.55218063E-01 0.73435508E+03</pdfrwt>
<totfact> 0.18846014E+02</totfact>
</mgrwt>
</event>
<event>
 4    1  0.4774032E-002  0.4063860E+03  0.7818608E-02  0.1041591E+00
         21   -1    0    0  503  502  0.00000000000E+00  0.00000000000E+00  0.10556856342E+04  0.10556856342E+04  0.00000000000E+00 0.  1.
         21   -1    0    0  501  503 -0.00000000000E+00 -0.00000000000E+00 -0.16363295248E+03  0.16363295248E+03  0.00000000000E+00 0.  1.
    9000005    1    1    2  501    0  0.71167765747E+02  0.92033810834E+01  0.57386433618E+03  0.70318548722E+03  0.40000000000E+03 0.  1.
   -9000005    1    1    2    0  502 -0.71167765747E+02 -0.92033810834E+01  0.31818834551E+03  0.51613309942E+03  0.40000000000E+03 0.  1.
<mgrwt>
<rscale>  2 0.40638597E+03</rscale>
<asrwt>0</asrwt>
<pdfrwt beam="1">  1       21 0.16241317E+00 0.40638597E+03</pdfrwt>
<pdfrwt beam="2">  1       21 0.25174301E-01 0.40638597E+03</pdfrwt>
<totfact> 0.31657894E+03</totfact>
</mgrwt>
</event>
<event>
 4    1  0.4774032E-002  0.4028286E+03  0.7818608E-02  0.1042805E+00
         21   -1    0    0  503  502  0.00000000000E+00  0.00000000000E+00  0.60477573420E+03  0.60477573420E+03  0.00000000000E+00 0.  1.
         21   -1    0    0  501  503 -0.00000000000E+00 -0.00000000000E+00 -0.55445635293E+03  0.55445635293E+03  0.00000000000E+00 0.  1.
    9000005    1    1    2  501    0 -0.43389837416E+02  0.19702132742E+02 -0.39122663963E+03  0.56154174875E+03  0.40000000000E+03 0.  1.
   -9000005    1    1    2    0  502  0.43389837416E+02 -0.19702132742E+02  0.44154602090E+03  0.59769033839E+03  0.40000000000E+03 0.  1.
<mgrwt>
<rscale>  2 0.40282856E+03</rscale>
<asrwt>0</asrwt>
<pdfrwt beam="1">  1       21 0.93042420E-01 0.40282856E+03</pdfrwt>
<pdfrwt beam="2">  1       21 0.85300978E-01 0.40282856E+03</pdfrwt>
<totfact> 0.10030517E+03</totfact>
</mgrwt>
</event>
<event>
 4    1  0.4774032E-002  0.6287528E+03  0.7818608E-02  0.9847486E-01
         21   -1    0    0  503  502  0.00000000000E+00  0.00000000000E+00  0.89186533543E+03  0.89186533543E+03  0.00000000000E+00 0.  1.
         21   -1    0    0  501  503 -0.00000000000E+00 -0.00000000000E+00 -0.67137400268E+03  0.67137400268E+03  0.00000000000E+00 0. -1.
    9000005    1    1    2  501    0 -0.47385440803E+03  0.10388524308E+03 -0.34535793455E+03  0.71735782333E+03  0.40000000000E+03 0. -1.
   -9000005    1    1    2    0  502  0.47385440803E+03 -0.10388524308E+03  0.56584926730E+03  0.84588151478E+03  0.40000000000E+03 0.  1.
<mgrwt>
<rscale>  2 0.62875285E+03</rscale>
<asrwt>0</asrwt>
<pdfrwt beam="1">  1       21 0.13721005E+00 0.62875285E+03</pdfrwt>
<pdfrwt beam="2">  1       21 0.10328831E+00 0.62875285E+03</pdfrwt>
<totfact> 0.21814198E+02</totfact>
</mgrwt>
</event>
<event>
 4    1  0.4774032E-002  0.4996755E+03  0.7818608E-02  0.1013864E+00
         21   -1    0    0  501  502  0.00000000000E+00  0.00000000000E+00  0.98664922654E+03  0.98664922654E+03  0.00000000000E+00 0. -1.
         21   -1    0    0  502  503 -0.00000000000E+00 -0.00000000000E+00 -0.31508767695E+03  0.31508767695E+03  0.00000000000E+00 0. -1.
    9000005    1    1    2  501    0  0.24459530896E+03 -0.17276777253E+03  0.62457675904E+03  0.79985729748E+03  0.40000000000E+03 0. -1.
   -9000005    1    1    2    0  503 -0.24459530896E+03  0.17276777253E+03  0.46984790540E+02  0.50187960601E+03  0.40000000000E+03 0. -1.
<mgrwt>
<rscale>  2 0.49967546E+03</rscale>
<asrwt>0</asrwt>
<pdfrwt beam="1">  1       21 0.15179219E+00 0.49967546E+03</pdfrwt>
<pdfrwt beam="2">  1       21 0.48475028E-01 0.49967546E+03</pdfrwt>
<totfact> 0.97392798E+02</totfact>
</mgrwt>
</event>
<event>
 4    1  0.4774032E-002  0.4604104E+03  0.7818608E-02  0.1024662E+00
         21   -1    0    0  501  502  0.00000000000E+00  0.00000000000E+00  0.26914905450E+04  0.26914905450E+04  0.00000000000E+00 0. -1.
         21   -1    0    0  502  503 -0.00000000000E+00 -0.00000000000E+00 -0.80686116999E+02  0.80686116999E+02  0.00000000000E+00 0.  1.
    9000005    1    1    2  501    0  0.80812578841E+02  0.21318314766E+03  0.10911609312E+04  0.11843183293E+04  0.40000000000E+03 0.  1.
   -9000005    1    1    2    0  503 -0.80812578841E+02 -0.21318314766E+03  0.15196434968E+04  0.15878583327E+04  0.40000000000E+03 0. -1.
<mgrwt>
<rscale>  2 0.46041039E+03</rscale>
<asrwt>0</asrwt>
<pdfrwt beam="1">  1       21 0.41407540E+00 0.46041039E+03</pdfrwt>
<pdfrwt beam="2">  1       21 0.12413251E-01 0.46041039E+03</pdfrwt>
<totfact> 0.29913155E+02</totfact>
</mgrwt>
</event>
<event>
 4    1  0.4774032E-002  0.4296915E+03  0.7818608E-02  0.1033957E+00
         21   -1    0    0  503  502  0.00000000000E+00  0.00000000000E+00  0.15997847352E+03  0.15997847352E+03  0.00000000000E+00 0.  1.
         21   -1    0    0  501  503 -0.00000000000E+00 -0.00000000000E+00 -0.12882889977E+04  0.12882889977E+04  0.00000000000E+00 0.  1.
    9000005    1    1    2  501    0 -0.92628703033E+02  0.12670701701E+03 -0.79784211761E+03  0.90619357171E+03  0.40000000000E+03 0.  1.
   -9000005    1    1    2    0  502  0.92628703033E+02 -0.12670701701E+03 -0.33046840656E+03  0.54207389950E+03  0.40000000000E+03 0.  1.
<mgrwt>
<rscale>  2 0.42969145E+03</rscale>
<asrwt>0</asrwt>
<pdfrwt beam="1">  1       21 0.24612074E-01 0.42969145E+03</pdfrwt>
<pdfrwt beam="2">  1       21 0.19819830E+00 0.42969145E+03</pdfrwt>
<totfact> 0.18335787E+03</totfact>
</mgrwt>
</event>
<event>
 4    1  0.4774032E-002  0.4493704E+03  0.7818608E-02  0.1027910E+00
         21   -1    0    0  501  502  0.00000000000E+00  0.00000000000E+00  0.35527129941E+03  0.35527129941E+03  0.00000000000E+00 0.  1.
         21   -1    0    0  502  503 -0.00000000000E+00 -0.00000000000E+00 -0.78370332910E+03  0.78370332910E+03  0.00000000000E+00 0.  1.
    9000005    1    1    2  501    0  0.19374686464E+03  0.66301900119E+02  0.84281309547E+02  0.45720578371E+03  0.40000000000E+03 0.  1.
   -9000005    1    1    2    0  503 -0.19374686464E+03 -0.66301900119E+02 -0.51271333923E+03  0.68176884480E+03  0.40000000000E+03 0.  1.
<mgrwt>
<rscale>  2 0.44937044E+03</rscale>
<asrwt>0</asrwt>
<pdfrwt beam="1">  1       21 0.54657124E-01 0.44937044E+03</pdfrwt>
<pdfrwt beam="2">  1       21 0.12056974E+00 0.44937044E+03</pdfrwt>
<totfact> 0.14101052E+03</totfact>
</mgrwt>
</event>
<event>
 4    1  0.4774032E-002  0.4460860E+03  0.7818608E-02  0.1028896E+00
         21   -1    0    0  501  502  0.00000000000E+00  0.00000000000E+00  0.12463039820E+04  0.12463039820E+04  0.00000000000E+00 0. -1.
         21   -1    0    0  502  503 -0.00000000000E+00 -0.00000000000E+00 -0.16642725664E+03  0.16642725664E+03  0.00000000000E+00 0. -1.
    9000005    1    1    2  501    0 -0.18724453580E+03  0.62706982170E+02  0.39756686875E+03  0.59753836440E+03  0.40000000000E+03 0. -1.
   -9000005    1    1    2    0  503  0.18724453580E+03 -0.62706982170E+02  0.68230985666E+03  0.81519287429E+03  0.40000000000E+03 0. -1.
<mgrwt>
<rscale>  2 0.44608596E+03</rscale>
<asrwt>0</asrwt>
<pdfrwt beam="1">  1       21 0.19173907E+00 0.44608596E+03</pdfrwt>
<pdfrwt beam="2">  1       21 0.25604194E-01 0.44608596E+03</pdfrwt>
<totfact> 0.18638234E+03</totfact>
</mgrwt>
</event>
<event>
 4    1  0.4774032E-002  0.4203969E+03  0.7818608E-02  0.1036937E+00
         21   -1    0    0  503  502  0.00000000000E+00  0.00000000000E+00  0.19063738820E+04  0.19063738820E+04  0.00000000000E+00 0. -1.
         21   -1    0    0  501  503 -0.00000000000E+00 -0.00000000000E+00 -0.19810020794E+03  0.19810020794E+03  0.00000000000E+00 0. -1.
    9000005    1    1    2  501    0  0.33086522798E+02  0.12505519708E+03  0.86637212023E+02  0.42923132087E+03  0.40000000000E+03 0. -1.
   -9000005    1    1    2    0  502 -0.33086522798E+02 -0.12505519708E+03  0.16216364620E+04  0.16752427691E+04  0.40000000000E+03 0. -1.
<mgrwt>
<rscale>  2 0.42039686E+03</rscale>
<asrwt>0</asrwt>
<pdfrwt beam="1">  1       21 0.29328828E+00 0.42039686E+03</pdfrwt>
<pdfrwt beam="2">  1       21 0.30476956E-01 0.42039686E+03</pdfrwt>
<totfact> 0.31066512E+02</totfact>
</mgrwt>
</event>
<event>
 4    1  0.4774032E-002  0.5697974E+03  0.7818608E-02  0.9970127E-01
         21   -1    0    0  503  502  0.00000000000E+00  0.00000000000E+00  0.66496229995E+03  0.66496229995E+03  0.00000000000E+00 0. -1.
         21   -1    0    0  501  503 -0.00000000000E+00 -0.00000000000E+00 -0.62550976005E+03  0.62550976005E+03  0.00000000000E+00 0. -1.
    9000005    1    1    2  501    0  0.16377952056E+03 -0.37127537009E+03  0.32197891946E+03  0.65447655142E+03  0.40000000000E+03 0. -1.
   -9000005    1    1    2    0  502 -0.16377952056E+03  0.37127537009E+03 -0.28252637956E+03  0.63599550858E+03  0.40000000000E+03 0. -1.
<mgrwt>
<rscale>  2 0.56979745E+03</rscale>
<asrwt>0</asrwt>
<pdfrwt beam="1">  1       21 0.10230189E+00 0.56979745E+03</pdfrwt>
<pdfrwt beam="2">  1       21 0.96232271E-01 0.56979745E+03</pdfrwt>
<totfact> 0.56026415E+02</totfact>
</mgrwt>
</event>
<event>
 4    1  0.4774032E-002  0.4013603E+03  0.7818608E-02  0.1043310E+00
         21   -1    0    0  501  502  0.00000000000E+00  0.00000000000E+00  0.99140614524E+02  0.99140614524E+02  0.00000000000E+00 0.  1.
         21   -1    0    0  502  503 -0.00000000000E+00 -0.00000000000E+00 -0.18877069211E+04  0.18877069211E+04  0.00000000000E+00 0.  1.
    9000005    1    1    2  501    0  0.27738348685E+02  0.17906783517E+02 -0.52358966277E+03  0.65972433928E+03  0.40000000000E+03 0. -1.
   -9000005    1    1    2    0  503 -0.27738348685E+02 -0.17906783517E+02 -0.12649766438E+04  0.13271231963E+04  0.40000000000E+03 0. -1.
<mgrwt>
<rscale>  2 0.40136027E+03</rscale>
<asrwt>0</asrwt>
<pdfrwt beam="1">  1       21 0.15252402E-01 0.40136027E+03</pdfrwt>
<pdfrwt beam="2">  1       21 0.29041644E+00 0.40136027E+03</pdfrwt>
<totfact> 0.12315455E+03</totfact>
</mgrwt>
</event>
<event>
 4    1  0.4774032E-002  0.4523251E+03  0.7818608E-02  0.1027031E+00
         21   -1    0    0  501  502  0.00000000000E+00  0.00000000000E+00  0.42436504460E+03  0.42436504460E+03  0.00000000000E+00 0. -1.
         21   -1    0    0  502  503 -0.00000000000E+00 -0.00000000000E+00 -0.48398175831E+03  0.48398175831E+03  0.00000000000E+00 0. -1.
    9000005    1    1    2  501    0  0.20131856255E+03 -0.63787119873E+02 -0.57922139963E+02  0.45601856825E+03  0.40000000000E+03 0. -1.
   -9000005    1    1    2    0  503 -0.20131856255E+03  0.63787119873E+02 -0.16945737393E+01  0.45232823466E+03  0.40000000000E+03 0. -1.
<mgrwt>
<rscale>  2 0.45232506E+03</rscale>
<asrwt>0</asrwt>
<pdfrwt beam="1">  1       21 0.65286930E-01 0.45232506E+03</pdfrwt>
<pdfrwt beam="2">  1       21 0.74458732E-01 0.45232506E+03</pdfrwt>
<totfact> 0.30359717E+03</totfact>
</mgrwt>
</event>
<event>
 4    1  0.4774032E-002  0.5829411E+03  0.7818608E-02  0.9941444E-01
         21   -1    0    0  503  502  0.00000000000E+00  0.00000000000E+00  0.13198767466E+03  0.13198767466E+03  0.00000000000E+00 0. -1.
         21   -1    0    0  501  503 -0.00000000000E+00 -0.00000000000E+00 -0.32082005340E+04  0.32082005340E+04  0.00000000000E+00 0.  1.
    9000005    1    1    2  501    0  0.18415909452E+03  0.38197615330E+03 -0.22802796297E+04  0.23536132952E+04  0.40000000000E+03 0. -1.
   -9000005    1    1    2    0  502 -0.18415909452E+03 -0.38197615330E+03 -0.79593322961E+03  0.98657491341E+03  0.40000000000E+03 0. -1.
<mgrwt>
<rscale>  2 0.58294112E+03</rscale>
<asrwt>0</asrwt>
<pdfrwt beam="1">  1       21 0.20305796E-01 0.58294112E+03</pdfrwt>
<pdfrwt beam="2">  1       21 0.49356931E+00 0.58294112E+03</pdfrwt>
<totfact> 0.31777076E+01</totfact>
</mgrwt>
</event>
<event>
 4    1  0.4774032E-002  0.4357816E+03  0.7818608E-02  0.1032049E+00
         21   -1    0    0  503  502  0.00000000000E+00  0.00000000000E+00  0.34431349851E+03  0.34431349851E+03  0.00000000000E+00 0.  1.
         21   -1    0    0  501  503 -0.00000000000E+00 -0.00000000000E+00 -0.65511193767E+03  0.65511193767E+03  0.00000000000E+00 0.  1.
    9000005    1    1    2  501    0  0.11393273790E+03  0.13009597522E+03 -0.35408447739E+03  0.56149928643E+03  0.40000000000E+03 0.  1.
   -9000005    1    1    2    0  502 -0.11393273790E+03 -0.13009597522E+03  0.43286038225E+02  0.43792614976E+03  0.40000000000E+03 0.  1.
<mgrwt>
<rscale>  2 0.43578163E+03</rscale>
<asrwt>0</asrwt>
<pdfrwt beam="1">  1       21 0.52971308E-01 0.43578163E+03</pdfrwt>
<pdfrwt beam="2">  1       21 0.10078645E+00 0.43578163E+03</pdfrwt>
<totfact> 0.23667813E+03</totfact>
</mgrwt>
</event>
<event>
 4    1  0.4774032E-002  0.5014464E+03  0.7818608E-02  0.1013402E+00
         21   -1    0    0  501  502  0.00000000000E+00  0.00000000000E+00  0.35960570963E+03  0.35960570963E+03  0.00000000000E+00 0. -1.
         21   -1    0    0  502  503 -0.00000000000E+00 -0.00000000000E+00 -0.78275261787E+03  0.78275261787E+03  0.00000000000E+00 0.  1.
    9000005    1    1    2  501    0  0.28039748044E+03 -0.11325066470E+03 -0.24998943970E+02  0.50206912601E+03  0.40000000000E+03 0. -1.
   -9000005    1    1    2    0  503 -0.28039748044E+03  0.11325066470E+03 -0.39814796427E+03  0.64028920149E+03  0.40000000000E+03 0. -1.
<mgrwt>
<rscale>  2 0.50144637E+03</rscale>
<asrwt>0</asrwt>
<pdfrwt beam="1">  1       21 0.55323955E-01 0.50144637E+03</pdfrwt>
<pdfrwt beam="2">  1       21 0.12042348E+00 0.50144637E+03</pdfrwt>
<totfact> 0.13508497E+03</totfact>
</mgrwt>
</event>
<event>
 4    1  0.4774032E-002  0.4036636E+03  0.7818608E-02  0.1042518E+00
         21   -1    0    0  501  502  0.00000000000E+00  0.00000000000E+00  0.13126768376E+04  0.13126768376E+04  0.00000000000E+00 0.  1.
         21   -1    0    0  502  503 -0.00000000000E+00 -0.00000000000E+00 -0.12455576112E+03  0.12455576112E+03  0.00000000000E+00 0. -1.
    9000005    1    1    2  501    0  0.26765273608E+02 -0.47200796738E+02  0.63601026572E+03  0.75329499745E+03  0.40000000000E+03 0. -1.
   -9000005    1    1    2    0  503 -0.26765273608E+02  0.47200796738E+02  0.55211081078E+03  0.68393760129E+03  0.40000000000E+03 0. -1.
<mgrwt>
<rscale>  2 0.40366359E+03</rscale>
<asrwt>0</asrwt>
<pdfrwt beam="1">  1       21 0.20195027E+00 0.40366359E+03</pdfrwt>
<pdfrwt beam="2">  1       21 0.19162426E-01 0.40366359E+03</pdfrwt>
<totfact> 0.28297136E+03</totfact>
</mgrwt>
</event>
<event>
 4    1  0.4774032E-002  0.4580026E+03  0.7818608E-02  0.1025362E+00
         21   -1    0    0  503  502  0.00000000000E+00  0.00000000000E+00  0.10969151021E+04  0.10969151021E+04  0.00000000000E+00 0. -1.
         21   -1    0    0  501  503 -0.00000000000E+00 -0.00000000000E+00 -0.29661325342E+03  0.29661325342E+03  0.00000000000E+00 0. -1.
    9000005    1    1    2  501    0 -0.79670149150E+02 -0.20837233299E+03 -0.15156949413E+02  0.45825330870E+03  0.40000000000E+03 0. -1.
   -9000005    1    1    2    0  502  0.79670149150E+02  0.20837233299E+03  0.81545879813E+03  0.93527504686E+03  0.40000000000E+03 0. -1.
<mgrwt>
<rscale>  2 0.45800258E+03</rscale>
<asrwt>0</asrwt>
<pdfrwt beam="1">  1       21 0.16875617E+00 0.45800258E+03</pdfrwt>
<pdfrwt beam="2">  1       21 0.45632809E-01 0.45800258E+03</pdfrwt>
<totfact> 0.83757103E+02</totfact>
</mgrwt>
</event>
<event>
 4    1  0.4774032E-002  0.4028897E+03  0.7818608E-02  0.1042784E+00
         21   -1    0    0  501  502  0.00000000000E+00  0.00000000000E+00  0.31678194542E+03  0.31678194542E+03  0.00000000000E+00 0. -1.
         21   -1    0    0  502  503 -0.00000000000E+00 -0.00000000000E+00 -0.54182309054E+03  0.54182309054E+03  0.00000000000E+00 0. -1.
    9000005    1    1    2  501    0  0.26159258760E+02  0.40445388054E+02 -0.12485116544E+02  0.40308313580E+03  0.40000000000E+03 0. -1.
   -9000005    1    1    2    0  503 -0.26159258760E+02 -0.40445388054E+02 -0.21255602858E+03  0.45552190016E+03  0.40000000000E+03 0. -1.
<mgrwt>
<rscale>  2 0.40288973E+03</rscale>
<asrwt>0</asrwt>
<pdfrwt beam="1">  1       21 0.48735684E-01 0.40288973E+03</pdfrwt>
<pdfrwt beam="2">  1       21 0.83357398E-01 0.40288973E+03</pdfrwt>
<totfact> 0.44920769E+03</totfact>
</mgrwt>
</event>
<event>
 4    1  0.4774032E-002  0.4384398E+03  0.7818608E-02  0.1031227E+00
         21   -1    0    0  501  502  0.00000000000E+00  0.00000000000E+00  0.17321260575E+03  0.17321260575E+03  0.00000000000E+00 0.  1.
         21   -1    0    0  502  503 -0.00000000000E+00 -0.00000000000E+00 -0.19720777825E+04  0.19720777825E+04  0.00000000000E+00 0. -1.
    9000005    1    1    2  501    0  0.24108821444E+02 -0.17789942138E+03 -0.19014812518E+03  0.47789721584E+03  0.40000000000E+03 0.  1.
   -9000005    1    1    2    0  503 -0.24108821444E+02  0.17789942138E+03 -0.16087170515E+04  0.16673931724E+04  0.40000000000E+03 0. -1.
<mgrwt>
<rscale>  2 0.43843978E+03</rscale>
<asrwt>0</asrwt>
<pdfrwt beam="1">  1       21 0.26648094E-01 0.43843978E+03</pdfrwt>
<pdfrwt beam="2">  1       21 0.30339657E+00 0.43843978E+03</pdfrwt>
<totfact> 0.34827067E+02</totfact>
</mgrwt>
</event>
<event>
 4    1  0.4774032E-002  0.4096488E+03  0.7818608E-02  0.1040489E+00
         21   -1    0    0  503  502  0.00000000000E+00  0.00000000000E+00  0.23048726311E+03  0.23048726311E+03  0.00000000000E+00 0.  1.
         21   -1    0    0  501  503 -0.00000000000E+00 -0.00000000000E+00 -0.74483274486E+03  0.74483274486E+03  0.00000000000E+00 0.  1.
    9000005    1    1    2  501    0 -0.91462628459E+01  0.87911850992E+02 -0.33031831180E+03  0.52623410644E+03  0.40000000000E+03 0.  1.
   -9000005    1    1    2    0  502  0.91462628459E+01 -0.87911850992E+02 -0.18402716995E+03  0.44908590153E+03  0.40000000000E+03 0.  1.
<mgrwt>
<rscale>  2 0.40964881E+03</rscale>
<asrwt>0</asrwt>
<pdfrwt beam="1">  1       21 0.35459578E-01 0.40964881E+03</pdfrwt>
<pdfrwt beam="2">  1       21 0.11458966E+00 0.40964881E+03</pdfrwt>
<totfact> 0.40161311E+03</totfact>
</mgrwt>
</event>
<event>
 4    1  0.4774032E-002  0.4618875E+03  0.7818608E-02  0.1024235E+00
         21   -1    0    0  503  502  0.00000000000E+00  0.00000000000E+00  0.26949599368E+03  0.26949599368E+03  0.00000000000E+00 0.  1.
         21   -1    0    0  501  503 -0.00000000000E+00 -0.00000000000E+00 -0.23897046838E+04  0.23897046838E+04  0.00000000000E+00 0. -1.
    9000005    1    1    2  501    0  0.19930722278E+03  0.11669062170E+03 -0.21474010239E+04  0.21965134253E+04  0.40000000000E+03 0. -1.
   -9000005    1    1    2    0  502 -0.19930722278E+03 -0.11669062170E+03  0.27192333809E+02  0.46268725211E+03  0.40000000000E+03 0.  1.
<mgrwt>
<rscale>  2 0.46188751E+03</rscale>
<asrwt>0</asrwt>
<pdfrwt beam="1">  1       21 0.41460923E-01 0.46188751E+03</pdfrwt>
<pdfrwt beam="2">  1       21 0.36764687E+00 0.46188751E+03</pdfrwt>
<totfact> 0.57211062E+01</totfact>
</mgrwt>
</event>
<event>
 4    1  0.4774032E-002  0.4046027E+03  0.7818608E-02  0.1042197E+00
         21   -1    0    0  503  502  0.00000000000E+00  0.00000000000E+00  0.20391263065E+03  0.20391263065E+03  0.00000000000E+00 0. -1.
         21   -1    0    0  501  503 -0.00000000000E+00 -0.00000000000E+00 -0.11079961396E+04  0.11079961396E+04  0.00000000000E+00 0. -1.
    9000005    1    1    2  501    0 -0.59168173396E+02  0.14228614235E+02 -0.79630140711E+03  0.89319609111E+03  0.40000000000E+03 0. -1.
   -9000005    1    1    2    0  502  0.59168173396E+02 -0.14228614235E+02 -0.10778210185E+03  0.41871267916E+03  0.40000000000E+03 0. -1.
<mgrwt>
<rscale>  2 0.40460268E+03</rscale>
<asrwt>0</asrwt>
<pdfrwt beam="1">  1       21 0.31371173E-01 0.40460268E+03</pdfrwt>
<pdfrwt beam="2">  1       21 0.17046095E+00 0.40460268E+03</pdfrwt>
<totfact> 0.17933680E+03</totfact>
</mgrwt>
</event>
<event>
 4    1  0.4774032E-002  0.4234907E+03  0.7818608E-02  0.1035936E+00
         21   -1    0    0  501  502  0.00000000000E+00  0.00000000000E+00  0.53046817158E+03  0.53046817158E+03  0.00000000000E+00 0.  1.
         21   -1    0    0  502  503 -0.00000000000E+00 -0.00000000000E+00 -0.34872089579E+03  0.34872089579E+03  0.00000000000E+00 0. -1.
    9000005    1    1    2  501    0 -0.87873719722E+02  0.10780801204E+03  0.16763820962E+03  0.45546342049E+03  0.40000000000E+03 0.  1.
   -9000005    1    1    2    0  503  0.87873719722E+02 -0.10780801204E+03  0.14109066172E+02  0.42372564688E+03  0.40000000000E+03 0.  1.
<mgrwt>
<rscale>  2 0.42349068E+03</rscale>
<asrwt>0</asrwt>
<pdfrwt beam="1">  1       21 0.81610488E-01 0.42349068E+03</pdfrwt>
<pdfrwt beam="2">  1       21 0.53649369E-01 0.42349068E+03</pdfrwt>
<totfact> 0.38158717E+03</totfact>
</mgrwt>
</event>
<event>
 4    1  0.4774032E-002  0.4108086E+03  0.7818608E-02  0.1040100E+00
         21   -1    0    0  501  502  0.00000000000E+00  0.00000000000E+00  0.38801990469E+03  0.38801990469E+03  0.00000000000E+00 0. -1.
         21   -1    0    0  502  503 -0.00000000000E+00 -0.00000000000E+00 -0.10270672582E+04  0.10270672582E+04  0.00000000000E+00 0. -1.
    9000005    1    1    2  501    0 -0.50830738103E+02 -0.78612471513E+02  0.21770956863E+03  0.46493132922E+03  0.40000000000E+03 0. -1.
   -9000005    1    1    2    0  503  0.50830738103E+02  0.78612471513E+02 -0.85675692212E+03  0.95015583364E+03  0.40000000000E+03 0. -1.
<mgrwt>
<rscale>  2 0.41080857E+03</rscale>
<asrwt>0</asrwt>
<pdfrwt beam="1">  1       21 0.59695370E-01 0.41080857E+03</pdfrwt>
<pdfrwt beam="2">  1       21 0.15801035E+00 0.41080857E+03</pdfrwt>
<totfact> 0.57945373E+02</totfact>
</mgrwt>
</event>
<event>
 4    1  0.4774032E-002  0.6695038E+03  0.7818608E-02  0.9770855E-01
         21   -1    0    0  503  502  0.00000000000E+00  0.00000000000E+00  0.10779253399E+04  0.10779253399E+04  0.00000000000E+00 0.  1.
         21   -1    0    0  501  503 -0.00000000000E+00 -0.00000000000E+00 -0.41583489060E+03  0.41583489060E+03  0.00000000000E+00 0. -1.
    9000005    1    1    2  501    0 -0.26477967946E+03 -0.46704079161E+03  0.32893266553E+03  0.74594374998E+03  0.40000000000E+03 0.  1.
   -9000005    1    1    2    0  502  0.26477967946E+03  0.46704079161E+03  0.33315778382E+03  0.74781648056E+03  0.40000000000E+03 0. -1.
<mgrwt>
<rscale>  2 0.66950383E+03</rscale>
<asrwt>0</asrwt>
<pdfrwt beam="1">  1       21 0.16583467E+00 0.66950383E+03</pdfrwt>
<pdfrwt beam="2">  1       21 0.63974599E-01 0.66950383E+03</pdfrwt>
<totfact> 0.39190956E+02</totfact>
</mgrwt>
</event>
<event>
 4    1  0.4774032E-002  0.5547190E+03  0.7818608E-02  0.1000408E+00
         21   -1    0    0  501  502  0.00000000000E+00  0.00000000000E+00  0.40995440940E+03  0.40995440940E+03  0.00000000000E+00 0. -1.
         21   -1    0    0  502  503 -0.00000000000E+00 -0.00000000000E+00 -0.84330034678E+03  0.84330034678E+03  0.00000000000E+00 0.  1.
    9000005    1    1    2  501    0 -0.22971121537E+03  0.30813295585E+03 -0.42442774313E+03  0.69846407931E+03  0.40000000000E+03 0.  1.
   -9000005    1    1    2    0  503  0.22971121537E+03 -0.30813295585E+03 -0.89181942428E+01  0.55479067687E+03  0.40000000000E+03 0. -1.
<mgrwt>
<rscale>  2 0.55471899E+03</rscale>
<asrwt>0</asrwt>
<pdfrwt beam="1">  1       21 0.63069910E-01 0.55471899E+03</pdfrwt>
<pdfrwt beam="2">  1       21 0.12973851E+00 0.55471899E+03</pdfrwt>
<totfact> 0.82055036E+02</totfact>
</mgrwt>
</event>
<event>
 4    1  0.4774032E-002  0.5059150E+03  0.7818608E-02  0.1012246E+00
         21   -1    0    0  501  502  0.00000000000E+00  0.00000000000E+00  0.52411668952E+03  0.52411668952E+03  0.00000000000E+00 0. -1.
         21   -1    0    0  502  503 -0.00000000000E+00 -0.00000000000E+00 -0.49793805561E+03  0.49793805561E+03  0.00000000000E+00 0. -1.
    9000005    1    1    2  501    0 -0.28787738100E+03  0.11435307842E+03  0.84018386214E+02  0.51284413057E+03  0.40000000000E+03 0. -1.
   -9000005    1    1    2    0  503  0.28787738100E+03 -0.11435307842E+03 -0.57839752302E+02  0.50921061456E+03  0.40000000000E+03 0. -1.
<mgrwt>
<rscale>  2 0.50591503E+03</rscale>
<asrwt>0</asrwt>
<pdfrwt beam="1">  1       21 0.80633338E-01 0.50591503E+03</pdfrwt>
<pdfrwt beam="2">  1       21 0.76605854E-01 0.50591503E+03</pdfrwt>
<totfact> 0.17290757E+03</totfact>
</mgrwt>
</event>
<event>
 4    1  0.4774032E-002  0.4220389E+03  0.7818608E-02  0.1036405E+00
         21   -1    0    0  501  502  0.00000000000E+00  0.00000000000E+00  0.65262644619E+03  0.65262644619E+03  0.00000000000E+00 0. -1.
         21   -1    0    0  502  503 -0.00000000000E+00 -0.00000000000E+00 -0.28314420507E+03  0.28314420507E+03  0.00000000000E+00 0.  1.
    9000005    1    1    2  501    0  0.10164318463E+03  0.88235294000E+02  0.27363778136E+03  0.50298552611E+03  0.40000000000E+03 0.  1.
   -9000005    1    1    2    0  503 -0.10164318463E+03 -0.88235294000E+02  0.95844459766E+02  0.43278512516E+03  0.40000000000E+03 0.  1.
<mgrwt>
<rscale>  2 0.42203887E+03</rscale>
<asrwt>0</asrwt>
<pdfrwt beam="1">  1       21 0.10040407E+00 0.42203887E+03</pdfrwt>
<pdfrwt beam="2">  1       21 0.43560647E-01 0.42203887E+03</pdfrwt>
<totfact> 0.36298952E+03</totfact>
</mgrwt>
</event>
<event>
 4    1  0.4774032E-002  0.4154744E+03  0.7818608E-02  0.1038549E+00
         21   -1    0    0  501  502  0.00000000000E+00  0.00000000000E+00  0.59787356320E+03  0.59787356320E+03  0.00000000000E+00 0.  1.
         21   -1    0    0  502  503 -0.00000000000E+00 -0.00000000000E+00 -0.54594925051E+03  0.54594925051E+03  0.00000000000E+00 0.  1.
    9000005    1    1    2  501    0 -0.88309112283E+02  0.69429732585E+02  0.41852707089E+03  0.58973205454E+03  0.40000000000E+03 0.  1.
   -9000005    1    1    2    0  503  0.88309112283E+02 -0.69429732585E+02 -0.36660275820E+03  0.55409075917E+03  0.40000000000E+03 0.  1.
<mgrwt>
<rscale>  2 0.41547441E+03</rscale>
<asrwt>0</asrwt>
<pdfrwt beam="1">  1       21 0.91980548E-01 0.41547441E+03</pdfrwt>
<pdfrwt beam="2">  1       21 0.83992193E-01 0.41547441E+03</pdfrwt>
<totfact> 0.10624975E+03</totfact>
</mgrwt>
</event>
<event>
 4    1  0.4774032E-002  0.4292603E+03  0.7818608E-02  0.1034094E+00
         21   -1    0    0  501  502  0.00000000000E+00  0.00000000000E+00  0.72765276437E+03  0.72765276437E+03  0.00000000000E+00 0. -1.
         21   -1    0    0  502  503 -0.00000000000E+00 -0.00000000000E+00 -0.26088096025E+03  0.26088096025E+03  0.00000000000E+00 0. -1.
    9000005    1    1    2  501    0 -0.15474055107E+03  0.17882457321E+02  0.31802338574E+03  0.53423149879E+03  0.40000000000E+03 0.  1.
   -9000005    1    1    2    0  503  0.15474055107E+03 -0.17882457321E+02  0.14874841838E+03  0.45430222583E+03  0.40000000000E+03 0.  1.
<mgrwt>
<rscale>  2 0.42926032E+03</rscale>
<asrwt>0</asrwt>
<pdfrwt beam="1">  1       21 0.11194658E+00 0.42926032E+03</pdfrwt>
<pdfrwt beam="2">  1       21 0.40135533E-01 0.42926032E+03</pdfrwt>
<totfact> 0.32814438E+03</totfact>
</mgrwt>
</event>
<event>
 4    1  0.4774032E-002  0.5306449E+03  0.7818608E-02  0.1006076E+00
         21   -1    0    0  503  502  0.00000000000E+00  0.00000000000E+00  0.99065168391E+03  0.99065168391E+03  0.00000000000E+00 0. -1.
         21   -1    0    0  501  503 -0.00000000000E+00 -0.00000000000E+00 -0.28665267730E+03  0.28665267730E+03  0.00000000000E+00 0.  1.
    9000005    1    1    2  501    0  0.21636646747E+03  0.27344022545E+03  0.41057684352E+03  0.67093766445E+03  0.40000000000E+03 0. -1.
   -9000005    1    1    2    0  502 -0.21636646747E+03 -0.27344022545E+03  0.29342216309E+03  0.60636669675E+03  0.40000000000E+03 0.  1.
<mgrwt>
<rscale>  2 0.53064490E+03</rscale>
<asrwt>0</asrwt>
<pdfrwt beam="1">  1       21 0.15240795E+00 0.53064490E+03</pdfrwt>
<pdfrwt beam="2">  1       21 0.44100412E-01 0.53064490E+03</pdfrwt>
<totfact> 0.11625882E+03</totfact>
</mgrwt>
</event>
<event>
 4    1  0.4774032E-002  0.4058823E+03  0.7818608E-02  0.1041762E+00
         21   -1    0    0  501  502  0.00000000000E+00  0.00000000000E+00  0.72811416476E+03  0.72811416476E+03  0.00000000000E+00 0.  1.
         21   -1    0    0  502  503 -0.00000000000E+00 -0.00000000000E+00 -0.38807406747E+03  0.38807406747E+03  0.00000000000E+00 0.  1.
    9000005    1    1    2  501    0  0.68841675472E+02 -0.11291190467E+01  0.53040211567E+03  0.66788236651E+03  0.40000000000E+03 0.  1.
   -9000005    1    1    2    0  503 -0.68841675472E+02  0.11291190467E+01 -0.19036201838E+03  0.44830586571E+03  0.40000000000E+03 0.  1.
<mgrwt>
<rscale>  2 0.40588231E+03</rscale>
<asrwt>0</asrwt>
<pdfrwt beam="1">  1       21 0.11201756E+00 0.40588231E+03</pdfrwt>
<pdfrwt beam="2">  1       21 0.59703703E-01 0.40588231E+03</pdfrwt>
<totfact> 0.14259241E+03</totfact>
</mgrwt>
</event>
<event>
 4    1  0.4774032E-002  0.4837977E+03  0.7818608E-02  0.1018097E+00
         21   -1    0    0  503  502  0.00000000000E+00  0.00000000000E+00  0.37123141454E+03  0.37123141454E+03  0.00000000000E+00 0.  1.
         21   -1    0    0  501  503 -0.00000000000E+00 -0.00000000000E+00 -0.63590891461E+03  0.63590891461E+03  0.00000000000E+00 0.  1.
    9000005    1    1    2  501    0 -0.24768965095E+03 -0.11273876235E+03 -0.17879551533E+03  0.51577904962E+03  0.40000000000E+03 0.  1.
   -9000005    1    1    2    0  502  0.24768965095E+03  0.11273876235E+03 -0.85881984745E+02  0.49136127954E+03  0.40000000000E+03 0.  1.
<mgrwt>
<rscale>  2 0.48379768E+03</rscale>
<asrwt>0</asrwt>
<pdfrwt beam="1">  1       21 0.57112526E-01 0.48379768E+03</pdfrwt>
<pdfrwt beam="2">  1       21 0.97832140E-01 0.48379768E+03</pdfrwt>
<totfact> 0.21246396E+03</totfact>
</mgrwt>
</event>
<event>
 4    1  0.4774032E-002  0.4638287E+03  0.7818608E-02  0.1023677E+00
         21   -1    0    0  501  502  0.00000000000E+00  0.00000000000E+00  0.62454606260E+03  0.62454606260E+03  0.00000000000E+00 0. -1.
         21   -1    0    0  502  503 -0.00000000000E+00 -0.00000000000E+00 -0.35201635158E+03  0.35201635158E+03  0.00000000000E+00 0. -1.
    9000005    1    1    2  501    0 -0.11313282235E+03  0.20576217026E+03  0.64770818089E+02  0.46832933399E+03  0.40000000000E+03 0. -1.
   -9000005    1    1    2    0  503  0.11313282235E+03 -0.20576217026E+03  0.20775889293E+03  0.50823308019E+03  0.40000000000E+03 0. -1.
<mgrwt>
<rscale>  2 0.46382875E+03</rscale>
<asrwt>0</asrwt>
<pdfrwt beam="1">  1       21 0.96084010E-01 0.46382875E+03</pdfrwt>
<pdfrwt beam="2">  1       21 0.54156362E-01 0.46382875E+03</pdfrwt>
<totfact> 0.25072459E+03</totfact>
</mgrwt>
</event>
<event>
 4    1  0.4774032E-002  0.4326272E+03  0.7818608E-02  0.1033033E+00
         21   -1    0    0  503  502  0.00000000000E+00  0.00000000000E+00  0.38359624247E+03  0.38359624247E+03  0.00000000000E+00 0.  1.
         21   -1    0    0  501  503 -0.00000000000E+00 -0.00000000000E+00 -0.48804540889E+03  0.48804540889E+03  0.00000000000E+00 0.  1.
    9000005    1    1    2  501    0  0.17704332476E+02  0.16386832779E+03 -0.45384659296E+02  0.43500119487E+03  0.40000000000E+03 0.  1.
   -9000005    1    1    2    0  502 -0.17704332476E+02 -0.16386832779E+03 -0.59064507120E+02  0.43664045649E+03  0.40000000000E+03 0.  1.
<mgrwt>
<rscale>  2 0.43262717E+03</rscale>
<asrwt>0</asrwt>
<pdfrwt beam="1">  1       21 0.59014807E-01 0.43262717E+03</pdfrwt>
<pdfrwt beam="2">  1       21 0.75083909E-01 0.43262717E+03</pdfrwt>
<totfact> 0.37472865E+03</totfact>
</mgrwt>
</event>
<event>
 4    1  0.4774032E-002  0.4205863E+03  0.7818608E-02  0.1036876E+00
         21   -1    0    0  503  502  0.00000000000E+00  0.00000000000E+00  0.66128820661E+03  0.66128820661E+03  0.00000000000E+00 0. -1.
         21   -1    0    0  501  503 -0.00000000000E+00 -0.00000000000E+00 -0.48957128772E+03  0.48957128772E+03  0.00000000000E+00 0.  1.
    9000005    1    1    2  501    0  0.10619258343E+03 -0.74939642313E+02 -0.30169639192E+03  0.51760363954E+03  0.40000000000E+03 0.  1.
   -9000005    1    1    2    0  502 -0.10619258343E+03  0.74939642313E+02  0.47341331081E+03  0.63325585478E+03  0.40000000000E+03 0. -1.
<mgrwt>
<rscale>  2 0.42058628E+03</rscale>
<asrwt>0</asrwt>
<pdfrwt beam="1">  1       21 0.10173665E+00 0.42058628E+03</pdfrwt>
<pdfrwt beam="2">  1       21 0.75318659E-01 0.42058628E+03</pdfrwt>
<totfact> 0.10694066E+03</totfact>
</mgrwt>
</event>
<event>
 4    1  0.4774032E-002  0.4096190E+03  0.7818608E-02  0.1040499E+00
         21   -1    0    0  501  502  0.00000000000E+00  0.00000000000E+00  0.43963087595E+03  0.43963087595E+03  0.00000000000E+00 0. -1.
         21   -1    0    0  502  503 -0.00000000000E+00 -0.00000000000E+00 -0.38227559092E+03  0.38227559092E+03  0.00000000000E+00 0. -1.
    9000005    1    1    2  501    0 -0.87118014972E+02 -0.14077859231E+02  0.12132210439E+02  0.40979863980E+03  0.40000000000E+03 0.  1.
   -9000005    1    1    2    0  503  0.87118014972E+02  0.14077859231E+02  0.45223074592E+02  0.41210782707E+03  0.40000000000E+03 0.  1.
<mgrwt>
<rscale>  2 0.40961901E+03</rscale>
<asrwt>0</asrwt>
<pdfrwt beam="1">  1       21 0.67635519E-01 0.40961901E+03</pdfrwt>
<pdfrwt beam="2">  1       21 0.58811629E-01 0.40961901E+03</pdfrwt>
<totfact> 0.48186115E+03</totfact>
</mgrwt>
</event>
<event>
 4    1  0.4774032E-002  0.4131845E+03  0.7818608E-02  0.1039308E+00
         21   -1    0    0  501  502  0.00000000000E+00  0.00000000000E+00  0.11880646593E+04  0.11880646593E+04  0.00000000000E+00 0. -1.
         21   -1    0    0  502  503 -0.00000000000E+00 -0.00000000000E+00 -0.18235342337E+03  0.18235342337E+03  0.00000000000E+00 0. -1.
    9000005    1    1    2  501    0 -0.41165753893E+02 -0.95009344520E+02  0.81833911034E+03  0.91673349146E+03  0.40000000000E+03 0. -1.
   -9000005    1    1    2    0  503  0.41165753893E+02  0.95009344520E+02  0.18737212555E+03  0.45368459118E+03  0.40000000000E+03 0. -1.
<mgrwt>
<rscale>  2 0.41318446E+03</rscale>
<asrwt>0</asrwt>
<pdfrwt beam="1">  1       21 0.18277917E+00 0.41318446E+03</pdfrwt>
<pdfrwt beam="2">  1       21 0.28054374E-01 0.41318446E+03</pdfrwt>
<totfact> 0.18221613E+03</totfact>
</mgrwt>
</event>
<event>
 4    1  0.4774032E-002  0.4645329E+03  0.7818608E-02  0.1023475E+00
         21   -1    0    0  501  502  0.00000000000E+00  0.00000000000E+00  0.60512284626E+03  0.60512284626E+03  0.00000000000E+00 0.  1.
         21   -1    0    0  502  503 -0.00000000000E+00 -0.00000000000E+00 -0.62309308724E+03  0.62309308724E+03  0.00000000000E+00 0.  1.
    9000005    1    1    2  501    0  0.28697963722E+02  0.23445094788E+03  0.39262609728E+03  0.60823192316E+03  0.40000000000E+03 0.  1.
   -9000005    1    1    2    0  503 -0.28697963722E+02 -0.23445094788E+03 -0.41059633826E+03  0.61998401034E+03  0.40000000000E+03 0.  1.
<mgrwt>
<rscale>  2 0.46453291E+03</rscale>
<asrwt>0</asrwt>
<pdfrwt beam="1">  1       21 0.93095823E-01 0.46453291E+03</pdfrwt>
<pdfrwt beam="2">  1       21 0.95860475E-01 0.46453291E+03</pdfrwt>
<totfact> 0.73947857E+02</totfact>
</mgrwt>
</event>
<event>
 4    1  0.4774032E-002  0.4204010E+03  0.7818608E-02  0.1036936E+00
         21   -1    0    0  503  502  0.00000000000E+00  0.00000000000E+00  0.23785197075E+04  0.23785197075E+04  0.00000000000E+00 0.  1.
         21   -1    0    0  501  503 -0.00000000000E+00 -0.00000000000E+00 -0.10357141402E+03  0.10357141402E+03  0.00000000000E+00 0.  1.
    9000005    1    1    2  501    0 -0.11539813693E+03 -0.58482833696E+02  0.47777001132E+03  0.63639701096E+03  0.40000000000E+03 0. -1.
   -9000005    1    1    2    0  502  0.11539813693E+03  0.58482833696E+02  0.17971782821E+04  0.18456941105E+04  0.40000000000E+03 0. -1.
<mgrwt>
<rscale>  2 0.42040097E+03</rscale>
<asrwt>0</asrwt>
<pdfrwt beam="1">  1       21 0.36592607E+00 0.42040097E+03</pdfrwt>
<pdfrwt beam="2">  1       21 0.15934066E-01 0.42040097E+03</pdfrwt>
<totfact> 0.39167243E+02</totfact>
</mgrwt>
</event>
<event>
 4    1  0.4774032E-002  0.4554591E+03  0.7818608E-02  0.1026106E+00
         21   -1    0    0  501  502  0.00000000000E+00  0.00000000000E+00  0.13557976875E+04  0.13557976875E+04  0.00000000000E+00 0. -1.
         21   -1    0    0  502  503 -0.00000000000E+00 -0.00000000000E+00 -0.58947415241E+03  0.58947415241E+03  0.00000000000E+00 0.  1.
    9000005    1    1    2  501    0 -0.21717243313E+03  0.16707043240E+02  0.12201030779E+04  0.13023419335E+04  0.40000000000E+03 0. -1.
   -9000005    1    1    2    0  503  0.21717243313E+03 -0.16707043240E+02 -0.45377954286E+03  0.64292990638E+03  0.40000000000E+03 0.  1.
<mgrwt>
<rscale>  2 0.45545910E+03</rscale>
<asrwt>0</asrwt>
<pdfrwt beam="1">  1       21 0.20858426E+00 0.45545910E+03</pdfrwt>
<pdfrwt beam="2">  1       21 0.90688331E-01 0.45545910E+03</pdfrwt>
<totfact> 0.96751922E+01</totfact>
</mgrwt>
</event>
<event>
 4    1  0.4774032E-002  0.4439370E+03  0.7818608E-02  0.1029546E+00
         21   -1    0    0  501  502  0.00000000000E+00  0.00000000000E+00  0.98484632185E+03  0.98484632185E+03  0.00000000000E+00 0.  1.
         21   -1    0    0  502  503 -0.00000000000E+00 -0.00000000000E+00 -0.35561348364E+03  0.35561348364E+03  0.00000000000E+00 0.  1.
    9000005    1    1    2  501    0  0.99024297921E+02  0.16514930419E+03  0.75781789445E+03  0.87827562041E+03  0.40000000000E+03 0.  1.
   -9000005    1    1    2    0  503 -0.99024297921E+02 -0.16514930419E+03 -0.12858505625E+03  0.46218418508E+03  0.40000000000E+03 0.  1.
<mgrwt>
<rscale>  2 0.44393705E+03</rscale>
<asrwt>0</asrwt>
<pdfrwt beam="1">  1       21 0.15151482E+00 0.44393705E+03</pdfrwt>
<pdfrwt beam="2">  1       21 0.54709767E-01 0.44393705E+03</pdfrwt>
<totfact> 0.77342168E+02</totfact>
</mgrwt>
</event>
<event>
 4    1  0.4774032E-002  0.6198614E+03  0.7818608E-02  0.9865036E-01
         21   -1    0    0  501  502  0.00000000000E+00  0.00000000000E+00  0.65569326197E+03  0.65569326197E+03  0.00000000000E+00 0.  1.
         21   -1    0    0  502  503 -0.00000000000E+00 -0.00000000000E+00 -0.10861842577E+04  0.10861842577E+04  0.00000000000E+00 0.  1.
    9000005    1    1    2  501    0 -0.10364170822E+02  0.47341390587E+03  0.37578003753E+03  0.72487156029E+03  0.40000000000E+03 0.  1.
   -9000005    1    1    2    0  503  0.10364170822E+02 -0.47341390587E+03 -0.80627103323E+03  0.10170059593E+04  0.40000000000E+03 0.  1.
<mgrwt>
<rscale>  2 0.61986139E+03</rscale>
<asrwt>0</asrwt>
<pdfrwt beam="1">  1       21 0.10087589E+00 0.61986139E+03</pdfrwt>
<pdfrwt beam="2">  1       21 0.16710527E+00 0.61986139E+03</pdfrwt>
<totfact> 0.13461499E+02</totfact>
</mgrwt>
</event>
<event>
 4    1  0.4774032E-002  0.4939180E+03  0.7818608E-02  0.1015379E+00
         21   -1    0    0  503  502  0.00000000000E+00  0.00000000000E+00  0.41411546646E+03  0.41411546646E+03  0.00000000000E+00 0.  1.
         21   -1    0    0  501  503 -0.00000000000E+00 -0.00000000000E+00 -0.59179399157E+03  0.59179399157E+03  0.00000000000E+00 0.  1.
    9000005    1    1    2  501    0  0.59468033352E+02 -0.28358165293E+03 -0.54898347029E+02  0.49695958525E+03  0.40000000000E+03 0.  1.
   -9000005    1    1    2    0  502 -0.59468033352E+02  0.28358165293E+03 -0.12278017809E+03  0.50894987278E+03  0.40000000000E+03 0.  1.
<mgrwt>
<rscale>  2 0.49391801E+03</rscale>
<asrwt>0</asrwt>
<pdfrwt beam="1">  1       21 0.63710071E-01 0.49391801E+03</pdfrwt>
<pdfrwt beam="2">  1       21 0.91045230E-01 0.49391801E+03</pdfrwt>
<totfact> 0.19783268E+03</totfact>
</mgrwt>
</event>
<event>
 4    1  0.4774032E-002  0.5360041E+03  0.7818608E-02  0.1004786E+00
         21   -1    0    0  501  502  0.00000000000E+00  0.00000000000E+00  0.63317530308E+03  0.63317530308E+03  0.00000000000E+00 0.  1.
         21   -1    0    0  502  503 -0.00000000000E+00 -0.00000000000E+00 -0.51136364291E+03  0.51136364291E+03  0.00000000000E+00 0.  1.
    9000005    1    1    2  501    0  0.94165408515E+02  0.34414130560E+03  0.25300070273E+03  0.59271385842E+03  0.40000000000E+03 0.  1.
   -9000005    1    1    2    0  503 -0.94165408515E+02 -0.34414130560E+03 -0.13118904257E+03  0.55182508757E+03  0.40000000000E+03 0.  1.
<mgrwt>
<rscale>  2 0.53600407E+03</rscale>
<asrwt>0</asrwt>
<pdfrwt beam="1">  1       21 0.97411585E-01 0.53600407E+03</pdfrwt>
<pdfrwt beam="2">  1       21 0.78671330E-01 0.53600407E+03</pdfrwt>
<totfact> 0.10285818E+03</totfact>
</mgrwt>
</event>
<event>
 4    1  0.4774032E-002  0.4288605E+03  0.7818608E-02  0.1034221E+00
         21   -1    0    0  501  502  0.00000000000E+00  0.00000000000E+00  0.19802865521E+03  0.19802865521E+03  0.00000000000E+00 0. -1.
         21   -1    0    0  502  503 -0.00000000000E+00 -0.00000000000E+00 -0.16699605091E+04  0.16699605091E+04  0.00000000000E+00 0. -1.
    9000005    1    1    2  501    0  0.15441485937E+03 -0.87955667669E+01 -0.11372468887E+03  0.44368301258E+03  0.40000000000E+03 0. -1.
   -9000005    1    1    2    0  503 -0.15441485937E+03  0.87955667669E+01 -0.13582071650E+04  0.14243061518E+04  0.40000000000E+03 0. -1.
<mgrwt>
<rscale>  2 0.42886048E+03</rscale>
<asrwt>0</asrwt>
<pdfrwt beam="1">  1       21 0.30465946E-01 0.42886048E+03</pdfrwt>
<pdfrwt beam="2">  1       21 0.25691701E+00 0.42886048E+03</pdfrwt>
<totfact> 0.51254015E+02</totfact>
</mgrwt>
</event>
<event>
 4    1  0.4774032E-002  0.4253817E+03  0.7818608E-02  0.1035329E+00
         21   -1    0    0  503  502  0.00000000000E+00  0.00000000000E+00  0.66188146370E+03  0.66188146370E+03  0.00000000000E+00 0. -1.
         21   -1    0    0  501  503 -0.00000000000E+00 -0.00000000000E+00 -0.28038715815E+03  0.28038715815E+03  0.00000000000E+00 0.  1.
    9000005    1    1    2  501    0  0.47716607396E+02 -0.13664820845E+03  0.11630343633E+03  0.44099444078E+03  0.40000000000E+03 0. -1.
   -9000005    1    1    2    0  502 -0.47716607396E+02  0.13664820845E+03  0.26519086922E+03  0.50127418107E+03  0.40000000000E+03 0. -1.
<mgrwt>
<rscale>  2 0.42538172E+03</rscale>
<asrwt>0</asrwt>
<pdfrwt beam="1">  1       21 0.10182792E+00 0.42538172E+03</pdfrwt>
<pdfrwt beam="2">  1       21 0.43136486E-01 0.42538172E+03</pdfrwt>
<totfact> 0.35750904E+03</totfact>
</mgrwt>
</event>
<event>
 4    1  0.4774032E-002  0.9163649E+03  0.7818608E-02  0.9405353E-01
         21   -1    0    0  501  502  0.00000000000E+00  0.00000000000E+00  0.45377862625E+03  0.45377862625E+03  0.00000000000E+00 0. -1.
         21   -1    0    0  502  503 -0.00000000000E+00 -0.00000000000E+00 -0.22461205867E+04  0.22461205867E+04  0.00000000000E+00 0.  1.
    9000005    1    1    2  501    0  0.82436855011E+03 -0.11879180529E+02 -0.32962956147E+03  0.97384817561E+03  0.40000000000E+03 0. -1.
   -9000005    1    1    2    0  503 -0.82436855011E+03  0.11879180529E+02 -0.14627123989E+04  0.17260510373E+04  0.40000000000E+03 0.  1.
<mgrwt>
<rscale>  2 0.91636490E+03</rscale>
<asrwt>0</asrwt>
<pdfrwt beam="1">  1       21 0.69812096E-01 0.91636490E+03</pdfrwt>
<pdfrwt beam="2">  1       21 0.34555701E+00 0.91636490E+03</pdfrwt>
<totfact> 0.20435398E+01</totfact>
</mgrwt>
</event>
<event>
 4    1  0.4774032E-002  0.4474464E+03  0.7818608E-02  0.1028486E+00
         21   -1    0    0  501  502  0.00000000000E+00  0.00000000000E+00  0.10789579991E+04  0.10789579991E+04  0.00000000000E+00 0.  1.
         21   -1    0    0  502  503 -0.00000000000E+00 -0.00000000000E+00 -0.19609789426E+03  0.19609789426E+03  0.00000000000E+00 0. -1.
    9000005    1    1    2  501    0  0.19180076378E+03  0.58487315577E+02  0.58923867826E+03  0.73987196124E+03  0.40000000000E+03 0.  1.
   -9000005    1    1    2    0  503 -0.19180076378E+03 -0.58487315577E+02  0.29362142660E+03  0.53518393215E+03  0.40000000000E+03 0. -1.
<mgrwt>
<rscale>  2 0.44744642E+03</rscale>
<asrwt>0</asrwt>
<pdfrwt beam="1">  1       21 0.16599353E+00 0.44744642E+03</pdfrwt>
<pdfrwt beam="2">  1       21 0.30168908E-01 0.44744642E+03</pdfrwt>
<totfact> 0.20514395E+03</totfact>
</mgrwt>
</event>
<event>
 4    1  0.4774032E-002  0.4134861E+03  0.7818608E-02  0.1039207E+00
         21   -1    0    0  501  502  0.00000000000E+00  0.00000000000E+00  0.99021489321E+03  0.99021489321E+03  0.00000000000E+00 0. -1.
         21   -1    0    0  502  503 -0.00000000000E+00 -0.00000000000E+00 -0.17790767491E+03  0.17790767491E+03  0.00000000000E+00 0. -1.
    9000005    1    1    2  501    0 -0.10330079628E+03  0.17311814118E+02  0.50646126766E+03  0.65381478192E+03  0.40000000000E+03 0. -1.
   -9000005    1    1    2    0  503  0.10330079628E+03 -0.17311814118E+02  0.30584595064E+03  0.51430778620E+03  0.40000000000E+03 0. -1.
<mgrwt>
<rscale>  2 0.41348610E+03</rscale>
<asrwt>0</asrwt>
<pdfrwt beam="1">  1       21 0.15234075E+00 0.41348610E+03</pdfrwt>
<pdfrwt beam="2">  1       21 0.27370412E-01 0.41348610E+03</pdfrwt>
<totfact> 0.31985913E+03</totfact>
</mgrwt>
</event>
<event>
 4    1  0.4774032E-002  0.4310968E+03  0.7818608E-02  0.1033514E+00
         21   -1    0    0  503  502  0.00000000000E+00  0.00000000000E+00  0.20445519323E+03  0.20445519323E+03  0.00000000000E+00 0.  1.
         21   -1    0    0  501  503 -0.00000000000E+00 -0.00000000000E+00 -0.21234841540E+04  0.21234841540E+04  0.00000000000E+00 0.  1.
    9000005    1    1    2  501    0 -0.12017097181E+03 -0.10678658903E+03 -0.18397882130E+04  0.18896203604E+04  0.40000000000E+03 0.  1.
   -9000005    1    1    2    0  502  0.12017097181E+03  0.10678658903E+03 -0.79240747799E+02  0.43831898678E+03  0.40000000000E+03 0.  1.
<mgrwt>
<rscale>  2 0.43109679E+03</rscale>
<asrwt>0</asrwt>
<pdfrwt beam="1">  1       21 0.31454645E-01 0.43109679E+03</pdfrwt>
<pdfrwt beam="2">  1       21 0.32668987E+00 0.43109679E+03</pdfrwt>
<totfact> 0.18250977E+02</totfact>
</mgrwt>
</event>
<event>
 4    1  0.4774032E-002  0.6463830E+03  0.7818608E-02  0.9813590E-01
         21   -1    0    0  503  502  0.00000000000E+00  0.00000000000E+00  0.62496955613E+03  0.62496955613E+03  0.00000000000E+00 0.  1.
         21   -1    0    0  501  503 -0.00000000000E+00 -0.00000000000E+00 -0.66921218522E+03  0.66921218522E+03  0.00000000000E+00 0. -1.
    9000005    1    1    2  501    0  0.40992413906E+03  0.29962169809E+03 -0.42779953671E+02  0.64779710264E+03  0.40000000000E+03 0. -1.
   -9000005    1    1    2    0  502 -0.40992413906E+03 -0.29962169809E+03 -0.14626754182E+01  0.64638463872E+03  0.40000000000E+03 0. -1.
<mgrwt>
<rscale>  2 0.64638298E+03</rscale>
<asrwt>0</asrwt>
<pdfrwt beam="1">  1       21 0.96149162E-01 0.64638298E+03</pdfrwt>
<pdfrwt beam="2">  1       21 0.10295572E+00 0.64638298E+03</pdfrwt>
<totfact> 0.53924949E+02</totfact>
</mgrwt>
</event>
<event>
 4    1  0.4774032E-002  0.4019375E+03  0.7818608E-02  0.1043111E+00
         21   -1    0    0  503  502  0.00000000000E+00  0.00000000000E+00  0.51620705246E+03  0.51620705246E+03  0.00000000000E+00 0.  1.
         21   -1    0    0  501  503 -0.00000000000E+00 -0.00000000000E+00 -0.31356459675E+03  0.31356459675E+03  0.00000000000E+00 0.  1.
    9000005    1    1    2  501    0 -0.38195002203E+02  0.97433092091E+01  0.11949144533E+03  0.41932325928E+03  0.40000000000E+03 0. -1.
   -9000005    1    1    2    0  502  0.38195002203E+02 -0.97433092091E+01  0.83151010380E+02  0.41044838993E+03  0.40000000000E+03 0. -1.
<mgrwt>
<rscale>  2 0.40193755E+03</rscale>
<asrwt>0</asrwt>
<pdfrwt beam="1">  1       21 0.79416470E-01 0.40193755E+03</pdfrwt>
<pdfrwt beam="2">  1       21 0.48240707E-01 0.40193755E+03</pdfrwt>
<totfact> 0.51356511E+03</totfact>
</mgrwt>
</event>
<event>
 4    1  0.4774032E-002  0.4508928E+03  0.7818608E-02  0.1027456E+00
         21   -1    0    0  501  502  0.00000000000E+00  0.00000000000E+00  0.30921101576E+03  0.30921101576E+03  0.00000000000E+00 0. -1.
         21   -1    0    0  502  503 -0.00000000000E+00 -0.00000000000E+00 -0.66345853439E+03  0.66345853439E+03  0.00000000000E+00 0. -1.
    9000005    1    1    2  501    0  0.19402636116E+03 -0.75219974970E+02 -0.22323747772E+03  0.50312945145E+03  0.40000000000E+03 0.  1.
   -9000005    1    1    2    0  503 -0.19402636116E+03  0.75219974970E+02 -0.13101004091E+03  0.46954009869E+03  0.40000000000E+03 0.  1.
<mgrwt>
<rscale>  2 0.45089275E+03</rscale>
<asrwt>0</asrwt>
<pdfrwt beam="1">  1       21 0.47570926E-01 0.45089275E+03</pdfrwt>
<pdfrwt beam="2">  1       21 0.10207054E+00 0.45089275E+03</pdfrwt>
<totfact> 0.28685661E+03</totfact>
</mgrwt>
</event>
<event>
 4    1  0.4774032E-002  0.4550951E+03  0.7818608E-02  0.1026213E+00
         21   -1    0    0  501  502  0.00000000000E+00  0.00000000000E+00  0.65911328027E+03  0.65911328027E+03  0.00000000000E+00 0.  1.
         21   -1    0    0  502  503 -0.00000000000E+00 -0.00000000000E+00 -0.31476648807E+03  0.31476648807E+03  0.00000000000E+00 0.  1.
    9000005    1    1    2  501    0  0.87334998486E+02 -0.19870618421E+03  0.19232230492E+03  0.49406418467E+03  0.40000000000E+03 0.  1.
   -9000005    1    1    2    0  503 -0.87334998486E+02  0.19870618421E+03  0.15202448729E+03  0.47981558368E+03  0.40000000000E+03 0.  1.
<mgrwt>
<rscale>  2 0.45509510E+03</rscale>
<asrwt>0</asrwt>
<pdfrwt beam="1">  1       21 0.10140204E+00 0.45509510E+03</pdfrwt>
<pdfrwt beam="2">  1       21 0.48425614E-01 0.45509510E+03</pdfrwt>
<totfact> 0.28030868E+03</totfact>
</mgrwt>
</event>
<event>
 4    1  0.4774032E-002  0.4828997E+03  0.7818608E-02  0.1018341E+00
         21   -1    0    0  503  502  0.00000000000E+00  0.00000000000E+00  0.27824069029E+04  0.27824069029E+04  0.00000000000E+00 0. -1.
         21   -1    0    0  501  503 -0.00000000000E+00 -0.00000000000E+00 -0.17882448923E+03  0.17882448923E+03  0.00000000000E+00 0.  1.
    9000005    1    1    2  501    0 -0.15665195280E+03  0.22057273544E+03  0.22253417808E+03  0.53170821543E+03  0.40000000000E+03 0.  1.
   -9000005    1    1    2    0  502  0.15665195280E+03 -0.22057273544E+03  0.23810482356E+04  0.24295231767E+04  0.40000000000E+03 0. -1.
<mgrwt>
<rscale>  2 0.48289975E+03</rscale>
<asrwt>0</asrwt>
<pdfrwt beam="1">  1       21 0.42806257E+00 0.48289975E+03</pdfrwt>
<pdfrwt beam="2">  1       21 0.27511462E-01 0.48289975E+03</pdfrwt>
<totfact> 0.52841079E+01</totfact>
</mgrwt>
</event>
<event>
 4    1  0.4774032E-002  0.6240794E+03  0.7818608E-02  0.9856671E-01
         21   -1    0    0  503  502  0.00000000000E+00  0.00000000000E+00  0.16633747931E+04  0.16633747931E+04  0.00000000000E+00 0. -1.
         21   -1    0    0  501  503 -0.00000000000E+00 -0.00000000000E+00 -0.30054952056E+03  0.30054952056E+03  0.00000000000E+00 0.  1.
    9000005    1    1    2  501    0 -0.53595795963E+02  0.47602795753E+03  0.21985363097E+03  0.66167268702E+03  0.40000000000E+03 0.  1.
   -9000005    1    1    2    0  502  0.53595795963E+02 -0.47602795753E+03  0.11429716416E+04  0.13022516267E+04  0.40000000000E+03 0. -1.
<mgrwt>
<rscale>  2 0.62407942E+03</rscale>
<asrwt>0</asrwt>
<pdfrwt beam="1">  1       21 0.25590381E+00 0.62407942E+03</pdfrwt>
<pdfrwt beam="2">  1       21 0.46238389E-01 0.62407942E+03</pdfrwt>
<totfact> 0.20155972E+02</totfact>
</mgrwt>
</event>
<event>
 4    1  0.4774032E-002  0.4178395E+03  0.7818608E-02  0.1037772E+00
         21   -1    0    0  501  502  0.00000000000E+00  0.00000000000E+00  0.48437734813E+03  0.48437734813E+03  0.00000000000E+00 0. -1.
         21   -1    0    0  502  503 -0.00000000000E+00 -0.00000000000E+00 -0.36371222157E+03  0.36371222157E+03  0.00000000000E+00 0. -1.
    9000005    1    1    2  501    0  0.62656906801E+02 -0.10326625685E+03  0.10054306663E+03  0.42976588513E+03  0.40000000000E+03 0. -1.
   -9000005    1    1    2    0  503 -0.62656906801E+02  0.10326625685E+03  0.20122059931E+02  0.41832368457E+03  0.40000000000E+03 0. -1.
<mgrwt>
<rscale>  2 0.41783945E+03</rscale>
<asrwt>0</asrwt>
<pdfrwt beam="1">  1       21 0.74519592E-01 0.41783945E+03</pdfrwt>
<pdfrwt beam="2">  1       21 0.55955726E-01 0.41783945E+03</pdfrwt>
<totfact> 0.43022607E+03</totfact>
</mgrwt>
</event>
<event>
 4    1  0.4774032E-002  0.4513686E+03  0.7818608E-02  0.1027315E+00
         21   -1    0    0  503  502  0.00000000000E+00  0.00000000000E+00  0.43384822597E+03  0.43384822597E+03  0.00000000000E+00 0. -1.
         21   -1    0    0  501  503 -0.00000000000E+00 -0.00000000000E+00 -0.54928903985E+03  0.54928903985E+03  0.00000000000E+00 0.  1.
    9000005    1    1    2  501    0 -0.19043523023E+03 -0.86418049688E+02 -0.24495764664E+03  0.51355418884E+03  0.40000000000E+03 0.  1.
   -9000005    1    1    2    0  502  0.19043523023E+03  0.86418049688E+02  0.12951683276E+03  0.46958307699E+03  0.40000000000E+03 0. -1.
<mgrwt>
<rscale>  2 0.45136865E+03</rscale>
<asrwt>0</asrwt>
<pdfrwt beam="1">  1       21 0.66745881E-01 0.45136865E+03</pdfrwt>
<pdfrwt beam="2">  1       21 0.84506006E-01 0.45136865E+03</pdfrwt>
<totfact> 0.21589536E+03</totfact>
</mgrwt>
</event>
<event>
 4    1  0.4774032E-002  0.5253858E+03  0.7818608E-02  0.1007357E+00
         21   -1    0    0  503  502  0.00000000000E+00  0.00000000000E+00  0.47551501709E+03  0.47551501709E+03  0.00000000000E+00 0. -1.
         21   -1    0    0  501  503 -0.00000000000E+00 -0.00000000000E+00 -0.58349263853E+03  0.58349263853E+03  0.00000000000E+00 0.  1.
    9000005    1    1    2  501    0  0.29905644717E+03 -0.16308115428E+03 -0.15984789657E+02  0.52562889473E+03  0.40000000000E+03 0. -1.
   -9000005    1    1    2    0  502 -0.29905644717E+03  0.16308115428E+03 -0.91992831779E+02  0.53337876089E+03  0.40000000000E+03 0.  1.
<mgrwt>
<rscale>  2 0.52538578E+03</rscale>
<asrwt>0</asrwt>
<pdfrwt beam="1">  1       21 0.73156157E-01 0.52538578E+03</pdfrwt>
<pdfrwt beam="2">  1       21 0.89768098E-01 0.52538578E+03</pdfrwt>
<totfact> 0.14837142E+03</totfact>
</mgrwt>
</event>
<event>
 4    1  0.4774032E-002  0.4085142E+03  0.7818608E-02  0.1040871E+00
         21   -1    0    0  503  502  0.00000000000E+00  0.00000000000E+00  0.54984601926E+03  0.54984601926E+03  0.00000000000E+00 0.  1.
         21   -1    0    0  501  503 -0.00000000000E+00 -0.00000000000E+00 -0.40708955194E+03  0.40708955194E+03  0.00000000000E+00 0.  1.
    9000005    1    1    2  501    0  0.12462017385E+02  0.82027592909E+02 -0.16997020863E+03  0.44246321847E+03  0.40000000000E+03 0. -1.
   -9000005    1    1    2    0  502 -0.12462017385E+02 -0.82027592909E+02  0.31272667595E+03  0.51447235273E+03  0.40000000000E+03 0. -1.
<mgrwt>
<rscale>  2 0.40851417E+03</rscale>
<asrwt>0</asrwt>
<pdfrwt beam="1">  1       21 0.84591695E-01 0.40851417E+03</pdfrwt>
<pdfrwt beam="2">  1       21 0.62629162E-01 0.40851417E+03</pdfrwt>
<totfact> 0.25216290E+03</totfact>
</mgrwt>
</event>
<event>
 4    1  0.4774032E-002  0.4285850E+03  0.7818608E-02  0.1034308E+00
         21   -1    0    0  503  502  0.00000000000E+00  0.00000000000E+00  0.35033362937E+03  0.35033362937E+03  0.00000000000E+00 0. -1.
         21   -1    0    0  501  503 -0.00000000000E+00 -0.00000000000E+00 -0.56675420103E+03  0.56675420103E+03  0.00000000000E+00 0.  1.
    9000005    1    1    2  501    0 -0.18220225247E+02  0.15281718490E+03 -0.23368861921E+03  0.48815513862E+03  0.40000000000E+03 0. -1.
   -9000005    1    1    2    0  502  0.18220225247E+02 -0.15281718490E+03  0.17268047550E+02  0.42893269178E+03  0.40000000000E+03 0. -1.
<mgrwt>
<rscale>  2 0.42858496E+03</rscale>
<asrwt>0</asrwt>
<pdfrwt beam="1">  1       21 0.53897482E-01 0.42858496E+03</pdfrwt>
<pdfrwt beam="2">  1       21 0.87192953E-01 0.42858496E+03</pdfrwt>
<totfact> 0.32317833E+03</totfact>
</mgrwt>
</event>
<event>
 4    1  0.4774032E-002  0.4462551E+03  0.7818608E-02  0.1028845E+00
         21   -1    0    0  501  502  0.00000000000E+00  0.00000000000E+00  0.12521879624E+04  0.12521879624E+04  0.00000000000E+00 0. -1.
         21   -1    0    0  502  503 -0.00000000000E+00 -0.00000000000E+00 -0.19042176378E+03  0.19042176378E+03  0.00000000000E+00 0. -1.
    9000005    1    1    2  501    0  0.15916757912E+03 -0.11751288128E+03  0.82371840374E+03  0.93683275144E+03  0.40000000000E+03 0. -1.
   -9000005    1    1    2    0  503 -0.15916757912E+03  0.11751288128E+03  0.23804779485E+03  0.50577697471E+03  0.40000000000E+03 0. -1.
<mgrwt>
<rscale>  2 0.44625508E+03</rscale>
<asrwt>0</asrwt>
<pdfrwt beam="1">  1       21 0.19264430E+00 0.44625508E+03</pdfrwt>
<pdfrwt beam="2">  1       21 0.29295657E-01 0.44625508E+03</pdfrwt>
<totfact> 0.14100622E+03</totfact>
</mgrwt>
</event>
<event>
 4    1  0.4774032E-002  0.5214904E+03  0.7818608E-02  0.1008317E+00
         21   -1    0    0  503  502  0.00000000000E+00  0.00000000000E+00  0.62407379623E+03  0.62407379623E+03  0.00000000000E+00 0. -1.
         21   -1    0    0  501  503 -0.00000000000E+00 -0.00000000000E+00 -0.54864873496E+03  0.54864873496E+03  0.00000000000E+00 0. -1.
    9000005    1    1    2  501    0  0.31524821196E+03  0.11211942930E+03 -0.22825308562E+03  0.56925536683E+03  0.40000000000E+03 0. -1.
   -9000005    1    1    2    0  502 -0.31524821196E+03 -0.11211942930E+03  0.30367814689E+03  0.60346716437E+03  0.40000000000E+03 0. -1.
<mgrwt>
<rscale>  2 0.52149037E+03</rscale>
<asrwt>0</asrwt>
<pdfrwt beam="1">  1       21 0.96011353E-01 0.52149037E+03</pdfrwt>
<pdfrwt beam="2">  1       21 0.84407498E-01 0.52149037E+03</pdfrwt>
<totfact> 0.90878241E+02</totfact>
</mgrwt>
</event>
<event>
 4    1  0.4774032E-002  0.5260096E+03  0.7818608E-02  0.1007204E+00
         21   -1    0    0  501  502  0.00000000000E+00  0.00000000000E+00  0.69679518167E+03  0.69679518167E+03  0.00000000000E+00 0. -1.
         21   -1    0    0  502  503 -0.00000000000E+00 -0.00000000000E+00 -0.56997414678E+03  0.56997414678E+03  0.00000000000E+00 0.  1.
    9000005    1    1    2  501    0  0.33946184970E+03  0.38101756997E+02  0.41224974410E+03  0.66830826929E+03  0.40000000000E+03 0. -1.
   -9000005    1    1    2    0  503 -0.33946184970E+03 -0.38101756997E+02 -0.28542870920E+03  0.59846105916E+03  0.40000000000E+03 0.  1.
<mgrwt>
<rscale>  2 0.52600959E+03</rscale>
<asrwt>0</asrwt>
<pdfrwt beam="1">  1       21 0.10719926E+00 0.52600959E+03</pdfrwt>
<pdfrwt beam="2">  1       21 0.87688330E-01 0.52600959E+03</pdfrwt>
<totfact> 0.63316676E+02</totfact>
</mgrwt>
</event>
<event>
 4    1  0.4774032E-002  0.7755261E+03  0.7818608E-02  0.9596134E-01
         21   -1    0    0  503  502  0.00000000000E+00  0.00000000000E+00  0.64820380274E+03  0.64820380274E+03  0.00000000000E+00 0. -1.
         21   -1    0    0  501  503 -0.00000000000E+00 -0.00000000000E+00 -0.96363121549E+03  0.96363121549E+03  0.00000000000E+00 0. -1.
    9000005    1    1    2  501    0 -0.17775913785E+03  0.64018942127E+03 -0.31299414607E+03  0.83630505300E+03  0.40000000000E+03 0. -1.
   -9000005    1    1    2    0  502  0.17775913785E+03 -0.64018942127E+03 -0.24332666738E+01  0.77552996524E+03  0.40000000000E+03 0. -1.
<mgrwt>
<rscale>  2 0.77552615E+03</rscale>
<asrwt>0</asrwt>
<pdfrwt beam="1">  1       21 0.99723662E-01 0.77552615E+03</pdfrwt>
<pdfrwt beam="2">  1       21 0.14825096E+00 0.77552615E+03</pdfrwt>
<totfact> 0.18416022E+02</totfact>
</mgrwt>
</event>
<event>
 4    1  0.4774032E-002  0.4125609E+03  0.7818608E-02  0.1039515E+00
         21   -1    0    0  501  502  0.00000000000E+00  0.00000000000E+00  0.17670621471E+03  0.17670621471E+03  0.00000000000E+00 0. -1.
         21   -1    0    0  502  503 -0.00000000000E+00 -0.00000000000E+00 -0.12413670680E+04  0.12413670680E+04  0.00000000000E+00 0. -1.
    9000005    1    1    2  501    0  0.10093352239E+03  0.43534160638E+01 -0.19670278545E+03  0.45705416963E+03  0.40000000000E+03 0. -1.
   -9000005    1    1    2    0  503 -0.10093352239E+03 -0.43534160638E+01 -0.86795806782E+03  0.96101911306E+03  0.40000000000E+03 0. -1.
<mgrwt>
<rscale>  2 0.41256094E+03</rscale>
<asrwt>0</asrwt>
<pdfrwt beam="1">  1       21 0.27185572E-01 0.41256094E+03</pdfrwt>
<pdfrwt beam="2">  1       21 0.19097955E+00 0.41256094E+03</pdfrwt>
<totfact> 0.17028081E+03</totfact>
</mgrwt>
</event>
<event>
 4    1  0.4774032E-002  0.4501175E+03  0.7818608E-02  0.1027687E+00
         21   -1    0    0  503  502  0.00000000000E+00  0.00000000000E+00  0.55936139035E+03  0.55936139035E+03  0.00000000000E+00 0. -1.
         21   -1    0    0  501  503 -0.00000000000E+00 -0.00000000000E+00 -0.38687104271E+03  0.38687104271E+03  0.00000000000E+00 0. -1.
    9000005    1    1    2  501    0  0.87891521049E+02 -0.18676423196E+03 -0.33208132483E+02  0.45134086661E+03  0.40000000000E+03 0. -1.
   -9000005    1    1    2    0  502 -0.87891521049E+02  0.18676423196E+03  0.20569848012E+03  0.49489156644E+03  0.40000000000E+03 0. -1.
<mgrwt>
<rscale>  2 0.45011754E+03</rscale>
<asrwt>0</asrwt>
<pdfrwt beam="1">  1       21 0.86055599E-01 0.45011754E+03</pdfrwt>
<pdfrwt beam="2">  1       21 0.59518621E-01 0.45011754E+03</pdfrwt>
<totfact> 0.26667748E+03</totfact>
</mgrwt>
</event>
<event>
 4    1  0.4774032E-002  0.6012938E+03  0.7818608E-02  0.9902725E-01
         21   -1    0    0  503  502  0.00000000000E+00  0.00000000000E+00  0.27015751489E+04  0.27015751489E+04  0.00000000000E+00 0. -1.
         21   -1    0    0  501  503 -0.00000000000E+00 -0.00000000000E+00 -0.20479717496E+03  0.20479717496E+03  0.00000000000E+00 0. -1.
    9000005    1    1    2  501    0  0.45417224985E+02 -0.44664477280E+03  0.21038204664E+04  0.21880618895E+04  0.40000000000E+03 0. -1.
   -9000005    1    1    2    0  502 -0.45417224985E+02  0.44664477280E+03  0.39295750753E+03  0.71831043436E+03  0.40000000000E+03 0. -1.
<mgrwt>
<rscale>  2 0.60129384E+03</rscale>
<asrwt>0</asrwt>
<pdfrwt beam="1">  1       21 0.41562692E+00 0.60129384E+03</pdfrwt>
<pdfrwt beam="2">  1       21 0.31507260E-01 0.60129384E+03</pdfrwt>
<totfact> 0.45362380E+01</totfact>
</mgrwt>
</event>
<event>
 4    1  0.4774032E-002  0.5688510E+03  0.7818608E-02  0.9972224E-01
         21   -1    0    0  501  502  0.00000000000E+00  0.00000000000E+00  0.70275483586E+03  0.70275483586E+03  0.00000000000E+00 0. -1.
         21   -1    0    0  502  503 -0.00000000000E+00 -0.00000000000E+00 -0.55555532578E+03  0.55555532578E+03  0.00000000000E+00 0. -1.
    9000005    1    1    2  501    0  0.36584881015E+03 -0.17247050931E+03  0.33389761164E+03  0.65960521794E+03  0.40000000000E+03 0. -1.
   -9000005    1    1    2    0  503 -0.36584881015E+03  0.17247050931E+03 -0.18669810156E+03  0.59870494369E+03  0.40000000000E+03 0. -1.
<mgrwt>
<rscale>  2 0.56885097E+03</rscale>
<asrwt>0</asrwt>
<pdfrwt beam="1">  1       21 0.10811613E+00 0.56885097E+03</pdfrwt>
<pdfrwt beam="2">  1       21 0.85470050E-01 0.56885097E+03</pdfrwt>
<totfact> 0.64863088E+02</totfact>
</mgrwt>
</event>
<event>
 4    1  0.4774032E-002  0.4283409E+03  0.7818608E-02  0.1034385E+00
         21   -1    0    0  503  502  0.00000000000E+00  0.00000000000E+00  0.95704923515E+03  0.95704923515E+03  0.00000000000E+00 0.  1.
         21   -1    0    0  501  503 -0.00000000000E+00 -0.00000000000E+00 -0.19520714694E+03  0.19520714694E+03  0.00000000000E+00 0.  1.
    9000005    1    1    2  501    0  0.43027039831E+02  0.14705316385E+03  0.30380851492E+03  0.52514338317E+03  0.40000000000E+03 0.  1.
   -9000005    1    1    2    0  502 -0.43027039831E+02 -0.14705316385E+03  0.45803357329E+03  0.62711299892E+03  0.40000000000E+03 0.  1.
<mgrwt>
<rscale>  2 0.42834094E+03</rscale>
<asrwt>0</asrwt>
<pdfrwt beam="1">  1       21 0.14723834E+00 0.42834094E+03</pdfrwt>
<pdfrwt beam="2">  1       21 0.30031869E-01 0.42834094E+03</pdfrwt>
<totfact> 0.29032332E+03</totfact>
</mgrwt>
</event>
<event>
 4    1  0.4774032E-002  0.4184379E+03  0.7818608E-02  0.1037576E+00
         21   -1    0    0  503  502  0.00000000000E+00  0.00000000000E+00  0.38350537334E+03  0.38350537334E+03  0.00000000000E+00 0.  1.
         21   -1    0    0  501  503 -0.00000000000E+00 -0.00000000000E+00 -0.97751040186E+03  0.97751040186E+03  0.00000000000E+00 0.  1.
    9000005    1    1    2  501    0 -0.89925632981E+00 -0.12283931959E+03 -0.79379362581E+03  0.89732860618E+03  0.40000000000E+03 0.  1.
   -9000005    1    1    2    0  502  0.89925632981E+00  0.12283931959E+03  0.19978859729E+03  0.46368716901E+03  0.40000000000E+03 0.  1.
<mgrwt>
<rscale>  2 0.41843794E+03</rscale>
<asrwt>0</asrwt>
<pdfrwt beam="1">  1       21 0.59000827E-01 0.41843794E+03</pdfrwt>
<pdfrwt beam="2">  1       21 0.15038622E+00 0.41843794E+03</pdfrwt>
<totfact> 0.67803064E+02</totfact>
</mgrwt>
</event>
<event>
 4    1  0.4774032E-002  0.4076542E+03  0.7818608E-02  0.1041161E+00
         21   -1    0    0  503  502  0.00000000000E+00  0.00000000000E+00  0.62390402903E+03  0.62390402903E+03  0.00000000000E+00 0.  1.
         21   -1    0    0  501  503 -0.00000000000E+00 -0.00000000000E+00 -0.28923985520E+03  0.28923985520E+03  0.00000000000E+00 0.  1.
    9000005    1    1    2  501    0 -0.66802603569E+02 -0.41465199650E+02  0.38914671918E+02  0.40950738982E+03  0.40000000000E+03 0.  1.
   -9000005    1    1    2    0  502  0.66802603569E+02  0.41465199650E+02  0.29574950191E+03  0.50363649441E+03  0.40000000000E+03 0.  1.
<mgrwt>
<rscale>  2 0.40765420E+03</rscale>
<asrwt>0</asrwt>
<pdfrwt beam="1">  1       21 0.95985235E-01 0.40765420E+03</pdfrwt>
<pdfrwt beam="2">  1       21 0.44498439E-01 0.40765420E+03</pdfrwt>
<totfact> 0.38911615E+03</totfact>
</mgrwt>
</event>
<event>
 4    1  0.4774032E-002  0.4177665E+03  0.7818608E-02  0.1037796E+00
         21   -1    0    0  501  502  0.00000000000E+00  0.00000000000E+00  0.28521226607E+03  0.28521226607E+03  0.00000000000E+00 0. -1.
         21   -1    0    0  502  503 -0.00000000000E+00 -0.00000000000E+00 -0.62328685152E+03  0.62328685152E+03  0.00000000000E+00 0. -1.
    9000005    1    1    2  501    0  0.28793803891E+02 -0.11704592313E+03 -0.10770997735E+03  0.43142817535E+03  0.40000000000E+03 0. -1.
   -9000005    1    1    2    0  503 -0.28793803891E+02  0.11704592313E+03 -0.23036460810E+03  0.47707094224E+03  0.40000000000E+03 0. -1.
<mgrwt>
<rscale>  2 0.41776648E+03</rscale>
<asrwt>0</asrwt>
<pdfrwt beam="1">  1       21 0.43878810E-01 0.41776648E+03</pdfrwt>
<pdfrwt beam="2">  1       21 0.95890285E-01 0.41776648E+03</pdfrwt>
<totfact> 0.40009620E+03</totfact>
</mgrwt>
</event>
<event>
 4    1  0.4774032E-002  0.4268755E+03  0.7818608E-02  0.1034852E+00
         21   -1    0    0  501  502  0.00000000000E+00  0.00000000000E+00  0.93939531733E+03  0.93939531733E+03  0.00000000000E+00 0. -1.
         21   -1    0    0  502  503 -0.00000000000E+00 -0.00000000000E+00 -0.34108698465E+03  0.34108698465E+03  0.00000000000E+00 0. -1.
    9000005    1    1    2  501    0 -0.68036248619E+02 -0.13264134169E+03  0.71961894034E+03  0.83670429421E+03  0.40000000000E+03 0. -1.
   -9000005    1    1    2    0  503  0.68036248619E+02  0.13264134169E+03 -0.12131060766E+03  0.44377800777E+03  0.40000000000E+03 0. -1.
<mgrwt>
<rscale>  2 0.42687546E+03</rscale>
<asrwt>0</asrwt>
<pdfrwt beam="1">  1       21 0.14452236E+00 0.42687546E+03</pdfrwt>
<pdfrwt beam="2">  1       21 0.52474921E-01 0.42687546E+03</pdfrwt>
<totfact> 0.96847880E+02</totfact>
</mgrwt>
</event>
<event>
 4    1  0.4774032E-002  0.6193157E+03  0.7818608E-02  0.9866123E-01
         21   -1    0    0  501  502  0.00000000000E+00  0.00000000000E+00  0.49387404106E+03  0.49387404106E+03  0.00000000000E+00 0.  1.
         21   -1    0    0  502  503 -0.00000000000E+00 -0.00000000000E+00 -0.10409693152E+04  0.10409693152E+04  0.00000000000E+00 0.  1.
    9000005    1    1    2  501    0  0.37356519750E+03 -0.28982919182E+03 -0.66027517022E+03  0.90527079795E+03  0.40000000000E+03 0.  1.
   -9000005    1    1    2    0  503 -0.37356519750E+03  0.28982919182E+03  0.11317989612E+03  0.62957255825E+03  0.40000000000E+03 0.  1.
<mgrwt>
<rscale>  2 0.61931568E+03</rscale>
<asrwt>0</asrwt>
<pdfrwt beam="1">  1       21 0.75980623E-01 0.61931568E+03</pdfrwt>
<pdfrwt beam="2">  1       21 0.16014912E+00 0.61931568E+03</pdfrwt>
<totfact> 0.29778400E+02</totfact>
</mgrwt>
</event>
<event>
 4    1  0.4774032E-002  0.5520516E+03  0.7818608E-02  0.1001020E+00
         21   -1    0    0  503  502  0.00000000000E+00  0.00000000000E+00  0.12413837835E+04  0.12413837835E+04  0.00000000000E+00 0.  1.
         21   -1    0    0  501  503 -0.00000000000E+00 -0.00000000000E+00 -0.50471386232E+03  0.50471386232E+03  0.00000000000E+00 0.  1.
    9000005    1    1    2  501    0 -0.33322846174E+03 -0.18362930442E+03 -0.25733342264E+03  0.60908244069E+03  0.40000000000E+03 0.  1.
   -9000005    1    1    2    0  502  0.33322846174E+03  0.18362930442E+03  0.99400334387E+03  0.11370152052E+04  0.40000000000E+03 0.  1.
<mgrwt>
<rscale>  2 0.55205156E+03</rscale>
<asrwt>0</asrwt>
<pdfrwt beam="1">  1       21 0.19098212E+00 0.55205156E+03</pdfrwt>
<pdfrwt beam="2">  1       21 0.77648287E-01 0.55205156E+03</pdfrwt>
<totfact> 0.17402231E+02</totfact>
</mgrwt>
</event>
<event>
 4    1  0.4774032E-002  0.4763590E+03  0.7818608E-02  0.1020141E+00
         21   -1    0    0  501  502  0.00000000000E+00  0.00000000000E+00  0.34647457504E+04  0.34647457504E+04  0.00000000000E+00 0.  1.
         21   -1    0    0  502  503 -0.00000000000E+00 -0.00000000000E+00 -0.74466530819E+02  0.74466530819E+02  0.00000000000E+00 0.  1.
    9000005    1    1    2  501    0  0.14923783726E+02  0.25825402060E+03  0.10808560399E+04  0.11811721455E+04  0.40000000000E+03 0.  1.
   -9000005    1    1    2    0  503 -0.14923783726E+02 -0.25825402060E+03  0.23094231798E+04  0.23580401357E+04  0.40000000000E+03 0.  1.
<mgrwt>
<rscale>  2 0.47635896E+03</rscale>
<asrwt>0</asrwt>
<pdfrwt beam="1">  1       21 0.53303768E+00 0.47635896E+03</pdfrwt>
<pdfrwt beam="2">  1       21 0.11456392E-01 0.47635896E+03</pdfrwt>
<totfact> 0.51084127E+01</totfact>
</mgrwt>
</event>
<event>
 4    1  0.4774032E-002  0.4651329E+03  0.7818608E-02  0.1023303E+00
         21   -1    0    0  503  502  0.00000000000E+00  0.00000000000E+00  0.49753827570E+03  0.49753827570E+03  0.00000000000E+00 0. -1.
         21   -1    0    0  501  503 -0.00000000000E+00 -0.00000000000E+00 -0.43521379998E+03  0.43521379998E+03  0.00000000000E+00 0. -1.
    9000005    1    1    2  501    0  0.19569240877E+03  0.13436166377E+03  0.44865757780E+02  0.46729167739E+03  0.40000000000E+03 0.  1.
   -9000005    1    1    2    0  502 -0.19569240877E+03 -0.13436166377E+03  0.17458717931E+02  0.46546039829E+03  0.40000000000E+03 0.  1.
<mgrwt>
<rscale>  2 0.46513286E+03</rscale>
<asrwt>0</asrwt>
<pdfrwt beam="1">  1       21 0.76544350E-01 0.46513286E+03</pdfrwt>
<pdfrwt beam="2">  1       21 0.66955969E-01 0.46513286E+03</pdfrwt>
<totfact> 0.26821852E+03</totfact>
</mgrwt>
</event>
<event>
 4    1  0.4774032E-002  0.5722110E+03  0.7818608E-02  0.9964798E-01
         21   -1    0    0  501  502  0.00000000000E+00  0.00000000000E+00  0.15509662415E+03  0.15509662415E+03  0.00000000000E+00 0. -1.
         21   -1    0    0  502  503 -0.00000000000E+00 -0.00000000000E+00 -0.28345952531E+04  0.28345952531E+04  0.00000000000E+00 0. -1.
    9000005    1    1    2  501    0  0.40707842330E+03 -0.41383793800E+02 -0.58454083294E+03  0.81799354917E+03  0.40000000000E+03 0. -1.
   -9000005    1    1    2    0  503 -0.40707842330E+03  0.41383793800E+02 -0.20949577961E+04  0.21716983281E+04  0.40000000000E+03 0. -1.
<mgrwt>
<rscale>  2 0.57221103E+03</rscale>
<asrwt>0</asrwt>
<pdfrwt beam="1">  1       21 0.23861018E-01 0.57221103E+03</pdfrwt>
<pdfrwt beam="2">  1       21 0.43609159E+00 0.57221103E+03</pdfrwt>
<totfact> 0.58423697E+01</totfact>
</mgrwt>
</event>
<event>
 4    1  0.4774032E-002  0.4444365E+03  0.7818608E-02  0.1029394E+00
         21   -1    0    0  503  502  0.00000000000E+00  0.00000000000E+00  0.46316648031E+03  0.46316648031E+03  0.00000000000E+00 0. -1.
         21   -1    0    0  501  503 -0.00000000000E+00 -0.00000000000E+00 -0.43865578612E+03  0.43865578612E+03  0.00000000000E+00 0. -1.
    9000005    1    1    2  501    0  0.87364294849E+02 -0.17289086040E+03  0.87428888633E+02  0.45295428047E+03  0.40000000000E+03 0. -1.
   -9000005    1    1    2    0  502 -0.87364294849E+02  0.17289086040E+03 -0.62918194445E+02  0.44886798596E+03  0.40000000000E+03 0. -1.
<mgrwt>
<rscale>  2 0.44443646E+03</rscale>
<asrwt>0</asrwt>
<pdfrwt beam="1">  1       21 0.71256382E-01 0.44443646E+03</pdfrwt>
<pdfrwt beam="2">  1       21 0.67485505E-01 0.44443646E+03</pdfrwt>
<totfact> 0.31241831E+03</totfact>
</mgrwt>
</event>
<event>
 4    1  0.4774032E-002  0.6857687E+03  0.7818608E-02  0.9741884E-01
         21   -1    0    0  501  502  0.00000000000E+00  0.00000000000E+00  0.85715701602E+03  0.85715701602E+03  0.00000000000E+00 0. -1.
         21   -1    0    0  502  503 -0.00000000000E+00 -0.00000000000E+00 -0.62414852866E+03  0.62414852866E+03  0.00000000000E+00 0.  1.
    9000005    1    1    2  501    0 -0.28048640017E+03  0.48125465167E+03 -0.14109330219E+03  0.70013283051E+03  0.40000000000E+03 0.  1.
   -9000005    1    1    2    0  503  0.28048640017E+03 -0.48125465167E+03  0.37410178955E+03  0.78117271418E+03  0.40000000000E+03 0. -1.
<mgrwt>
<rscale>  2 0.68576866E+03</rscale>
<asrwt>0</asrwt>
<pdfrwt beam="1">  1       21 0.13187031E+00 0.68576866E+03</pdfrwt>
<pdfrwt beam="2">  1       21 0.96022850E-01 0.68576866E+03</pdfrwt>
<totfact> 0.28439461E+02</totfact>
</mgrwt>
</event>
<event>
 4    1  0.4774032E-002  0.4604058E+03  0.7818608E-02  0.1024664E+00
         21   -1    0    0  503  502  0.00000000000E+00  0.00000000000E+00  0.15175347576E+03  0.15175347576E+03  0.00000000000E+00 0.  1.
         21   -1    0    0  501  503 -0.00000000000E+00 -0.00000000000E+00 -0.25119511609E+04  0.25119511609E+04  0.00000000000E+00 0.  1.
    9000005    1    1    2  501    0  0.18195375807E+03 -0.13735492279E+03 -0.20674833475E+04  0.21181267519E+04  0.40000000000E+03 0.  1.
   -9000005    1    1    2    0  502 -0.18195375807E+03  0.13735492279E+03 -0.29271433764E+03  0.54557788477E+03  0.40000000000E+03 0.  1.
<mgrwt>
<rscale>  2 0.46040585E+03</rscale>
<asrwt>0</asrwt>
<pdfrwt beam="1">  1       21 0.23346689E-01 0.46040585E+03</pdfrwt>
<pdfrwt beam="2">  1       21 0.38645402E+00 0.46040585E+03</pdfrwt>
<totfact> 0.13744849E+02</totfact>
</mgrwt>
</event>
<event>
 4    1  0.4774032E-002  0.4033154E+03  0.7818608E-02  0.1042638E+00
         21   -1    0    0  501  502  0.00000000000E+00  0.00000000000E+00  0.50073641528E+03  0.50073641528E+03  0.00000000000E+00 0.  1.
         21   -1    0    0  502  503 -0.00000000000E+00 -0.00000000000E+00 -0.58689395085E+03  0.58689395085E+03  0.00000000000E+00 0.  1.
    9000005    1    1    2  501    0  0.44904854880E+02  0.25433811709E+02  0.32030043719E+03  0.51502979995E+03  0.40000000000E+03 0.  1.
   -9000005    1    1    2    0  503 -0.44904854880E+02 -0.25433811709E+02 -0.40645797276E+03  0.57260056618E+03  0.40000000000E+03 0.  1.
<mgrwt>
<rscale>  2 0.40331542E+03</rscale>
<asrwt>0</asrwt>
<pdfrwt beam="1">  1       21 0.77036372E-01 0.40331542E+03</pdfrwt>
<pdfrwt beam="2">  1       21 0.90291377E-01 0.40331542E+03</pdfrwt>
<totfact> 0.13626857E+03</totfact>
</mgrwt>
</event>
<event>
 4    1  0.4774032E-002  0.4535023E+03  0.7818608E-02  0.1026683E+00
         21   -1    0    0  503  502  0.00000000000E+00  0.00000000000E+00  0.16703496677E+04  0.16703496677E+04  0.00000000000E+00 0.  1.
         21   -1    0    0  501  503 -0.00000000000E+00 -0.00000000000E+00 -0.12313383024E+03  0.12313383024E+03  0.00000000000E+00 0. -1.
    9000005    1    1    2  501    0 -0.14691031041E+03  0.15518292440E+03  0.76670908411E+03  0.89079021043E+03  0.40000000000E+03 0. -1.
   -9000005    1    1    2    0  502  0.14691031041E+03 -0.15518292440E+03  0.78050675338E+03  0.90269328756E+03  0.40000000000E+03 0. -1.
<mgrwt>
<rscale>  2 0.45350235E+03</rscale>
<asrwt>0</asrwt>
<pdfrwt beam="1">  1       21 0.25697686E+00 0.45350235E+03</pdfrwt>
<pdfrwt beam="2">  1       21 0.18943667E-01 0.45350235E+03</pdfrwt>
<totfact> 0.12700280E+03</totfact>
</mgrwt>
</event>
<event>
 4    1  0.4774032E-002  0.5599334E+03  0.7818608E-02  0.9992205E-01
         21   -1    0    0  503  502  0.00000000000E+00  0.00000000000E+00  0.84282906762E+03  0.84282906762E+03  0.00000000000E+00 0. -1.
         21   -1    0    0  501  503 -0.00000000000E+00 -0.00000000000E+00 -0.42110154548E+03  0.42110154548E+03  0.00000000000E+00 0. -1.
    9000005    1    1    2  501    0  0.34987334755E+03 -0.17639164781E+03 -0.49525868307E+01  0.55995526684E+03  0.40000000000E+03 0. -1.
   -9000005    1    1    2    0  502 -0.34987334755E+03  0.17639164781E+03  0.42668010898E+03  0.70397534626E+03  0.40000000000E+03 0. -1.
<mgrwt>
<rscale>  2 0.55993336E+03</rscale>
<asrwt>0</asrwt>
<pdfrwt beam="1">  1       21 0.12966601E+00 0.55993336E+03</pdfrwt>
<pdfrwt beam="2">  1       21 0.64784853E-01 0.55993336E+03</pdfrwt>
<totfact> 0.77271627E+02</totfact>
</mgrwt>
</event>
<event>
 4    1  0.4774032E-002  0.4316061E+03  0.7818608E-02  0.1033354E+00
         21   -1    0    0  503  502  0.00000000000E+00  0.00000000000E+00  0.13775386856E+04  0.13775386856E+04  0.00000000000E+00 0. -1.
         21   -1    0    0  501  503 -0.00000000000E+00 -0.00000000000E+00 -0.19018888546E+03  0.19018888546E+03  0.00000000000E+00 0.  1.
    9000005    1    1    2  501    0 -0.15880212957E+03  0.32645377488E+02  0.17229961850E+03  0.46472679669E+03  0.40000000000E+03 0.  1.
   -9000005    1    1    2    0  502  0.15880212957E+03 -0.32645377488E+02  0.10150501817E+04  0.11030007744E+04  0.40000000000E+03 0. -1.
<mgrwt>
<rscale>  2 0.43160611E+03</rscale>
<asrwt>0</asrwt>
<pdfrwt beam="1">  1       21 0.21192902E+00 0.43160611E+03</pdfrwt>
<pdfrwt beam="2">  1       21 0.29259829E-01 0.43160611E+03</pdfrwt>
<totfact> 0.10601416E+03</totfact>
</mgrwt>
</event>
<event>
 4    1  0.4774032E-002  0.4011603E+03  0.7818608E-02  0.1043379E+00
         21   -1    0    0  503  502  0.00000000000E+00  0.00000000000E+00  0.34515353385E+03  0.34515353385E+03  0.00000000000E+00 0.  1.
         21   -1    0    0  501  503 -0.00000000000E+00 -0.00000000000E+00 -0.68530329917E+03  0.68530329917E+03  0.00000000000E+00 0.  1.
    9000005    1    1    2  501    0  0.19715709966E+02 -0.23257236661E+02 -0.46136664507E+03  0.61138268659E+03  0.40000000000E+03 0.  1.
   -9000005    1    1    2    0  502 -0.19715709966E+02  0.23257236661E+02  0.12121687974E+03  0.41907414644E+03  0.40000000000E+03 0.  1.
<mgrwt>
<rscale>  2 0.40116033E+03</rscale>
<asrwt>0</asrwt>
<pdfrwt beam="1">  1       21 0.53100544E-01 0.40116033E+03</pdfrwt>
<pdfrwt beam="2">  1       21 0.10543128E+00 0.40116033E+03</pdfrwt>
<totfact> 0.21382001E+03</totfact>
</mgrwt>
</event>
<event>
 4    1  0.4774032E-002  0.4195674E+03  0.7818608E-02  0.1037207E+00
         21   -1    0    0  503  502  0.00000000000E+00  0.00000000000E+00  0.53274714642E+03  0.53274714642E+03  0.00000000000E+00 0.  1.
         21   -1    0    0  501  503 -0.00000000000E+00 -0.00000000000E+00 -0.34166489089E+03  0.34166489089E+03  0.00000000000E+00 0.  1.
    9000005    1    1    2  501    0 -0.10253951977E+03 -0.74313030589E+02  0.16267447557E+02  0.41988261393E+03  0.40000000000E+03 0.  1.
   -9000005    1    1    2    0  502  0.10253951977E+03  0.74313030589E+02  0.17481480797E+03  0.45452942338E+03  0.40000000000E+03 0.  1.
<mgrwt>
<rscale>  2 0.41956737E+03</rscale>
<asrwt>0</asrwt>
<pdfrwt beam="1">  1       21 0.81961100E-01 0.41956737E+03</pdfrwt>
<pdfrwt beam="2">  1       21 0.52563829E-01 0.41956737E+03</pdfrwt>
<totfact> 0.39530386E+03</totfact>
</mgrwt>
</event>
<event>
 4    1  0.4774032E-002  0.4774619E+03  0.7818608E-02  0.1019835E+00
         21   -1    0    0  501  502  0.00000000000E+00  0.00000000000E+00  0.48133031628E+03  0.48133031628E+03  0.00000000000E+00 0.  1.
         21   -1    0    0  502  503 -0.00000000000E+00 -0.00000000000E+00 -0.52291483082E+03  0.52291483082E+03  0.00000000000E+00 0. -1.
    9000005    1    1    2  501    0  0.20583622658E+03  0.16000424313E+03  0.13336870206E+03  0.49573896425E+03  0.40000000000E+03 0.  1.
   -9000005    1    1    2    0  503 -0.20583622658E+03 -0.16000424313E+03 -0.17495321659E+03  0.50850618284E+03  0.40000000000E+03 0. -1.
<mgrwt>
<rscale>  2 0.47746195E+03</rscale>
<asrwt>0</asrwt>
<pdfrwt beam="1">  1       21 0.74050818E-01 0.47746195E+03</pdfrwt>
<pdfrwt beam="2">  1       21 0.80448435E-01 0.47746195E+03</pdfrwt>
<totfact> 0.18971621E+03</totfact>
</mgrwt>
</event>
<event>
 4    1  0.4774032E-002  0.4303203E+03  0.7818608E-02  0.1033759E+00
         21   -1    0    0  503  502  0.00000000000E+00  0.00000000000E+00  0.52973454696E+03  0.52973454696E+03  0.00000000000E+00 0.  1.
         21   -1    0    0  501  503 -0.00000000000E+00 -0.00000000000E+00 -0.37546712137E+03  0.37546712137E+03  0.00000000000E+00 0.  1.
    9000005    1    1    2  501    0 -0.11475137116E+03  0.10957970698E+03 -0.41747699118E+02  0.43234067556E+03  0.40000000000E+03 0.  1.
   -9000005    1    1    2    0  502  0.11475137116E+03 -0.10957970698E+03  0.19601512470E+03  0.47286099276E+03  0.40000000000E+03 0.  1.
<mgrwt>
<rscale>  2 0.43032033E+03</rscale>
<asrwt>0</asrwt>
<pdfrwt beam="1">  1       21 0.81497622E-01 0.43032033E+03</pdfrwt>
<pdfrwt beam="2">  1       21 0.57764173E-01 0.43032033E+03</pdfrwt>
<totfact> 0.32550824E+03</totfact>
</mgrwt>
</event>
<event>
 4    1  0.4774032E-002  0.4255665E+03  0.7818608E-02  0.1035270E+00
         21   -1    0    0  501  502  0.00000000000E+00  0.00000000000E+00  0.84969970815E+03  0.84969970815E+03  0.00000000000E+00 0. -1.
         21   -1    0    0  502  503 -0.00000000000E+00 -0.00000000000E+00 -0.48715357802E+03  0.48715357802E+03  0.00000000000E+00 0. -1.
    9000005    1    1    2  501    0 -0.12182598719E+03 -0.79153485121E+02  0.68258162551E+03  0.80437834434E+03  0.40000000000E+03 0. -1.
   -9000005    1    1    2    0  503  0.12182598719E+03  0.79153485121E+02 -0.32003549538E+03  0.53247494182E+03  0.40000000000E+03 0. -1.
<mgrwt>
<rscale>  2 0.42556650E+03</rscale>
<asrwt>0</asrwt>
<pdfrwt beam="1">  1       21 0.13072303E+00 0.42556650E+03</pdfrwt>
<pdfrwt beam="2">  1       21 0.74946705E-01 0.42556650E+03</pdfrwt>
<totfact> 0.57501113E+02</totfact>
</mgrwt>
</event>
<event>
 4    1  0.4774032E-002  0.4764397E+03  0.7818608E-02  0.1020118E+00
         21   -1    0    0  501  502  0.00000000000E+00  0.00000000000E+00  0.40683161596E+03  0.40683161596E+03  0.00000000000E+00 0. -1.
         21   -1    0    0  502  503 -0.00000000000E+00 -0.00000000000E+00 -0.56335148580E+03  0.56335148580E+03  0.00000000000E+00 0. -1.
    9000005    1    1    2  501    0  0.14281754178E+03 -0.21586561528E+03 -0.30793930070E+02  0.47743384906E+03  0.40000000000E+03 0. -1.
   -9000005    1    1    2    0  503 -0.14281754178E+03  0.21586561528E+03 -0.12572593977E+03  0.49274925270E+03  0.40000000000E+03 0. -1.
<mgrwt>
<rscale>  2 0.47643973E+03</rscale>
<asrwt>0</asrwt>
<pdfrwt beam="1">  1       21 0.62589480E-01 0.47643973E+03</pdfrwt>
<pdfrwt beam="2">  1       21 0.86669459E-01 0.47643973E+03</pdfrwt>
<totfact> 0.23260590E+03</totfact>
</mgrwt>
</event>
<event>
 4    1  0.4774032E-002  0.5536426E+03  0.7818608E-02  0.1000654E+00
         21   -1    0    0  501  502  0.00000000000E+00  0.00000000000E+00  0.35953077052E+03  0.35953077052E+03  0.00000000000E+00 0. -1.
         21   -1    0    0  502  503 -0.00000000000E+00 -0.00000000000E+00 -0.13459232848E+04  0.13459232848E+04  0.00000000000E+00 0.  1.
    9000005    1    1    2  501    0 -0.33790477890E+03  0.17983476811E+03  0.23083344263E+02  0.55412365425E+03  0.40000000000E+03 0. -1.
   -9000005    1    1    2    0  503  0.33790477890E+03 -0.17983476811E+03 -0.10094758586E+04  0.11513304011E+04  0.40000000000E+03 0.  1.
<mgrwt>
<rscale>  2 0.55364265E+03</rscale>
<asrwt>0</asrwt>
<pdfrwt beam="1">  1       21 0.55312426E-01 0.55364265E+03</pdfrwt>
<pdfrwt beam="2">  1       21 0.20706512E+00 0.55364265E+03</pdfrwt>
<totfact> 0.28930144E+02</totfact>
</mgrwt>
</event>
<event>
 4    1  0.4774032E-002  0.7622456E+03  0.7818608E-02  0.9616332E-01
         21   -1    0    0  503  502  0.00000000000E+00  0.00000000000E+00  0.76823894555E+03  0.76823894555E+03  0.00000000000E+00 0. -1.
         21   -1    0    0  501  503 -0.00000000000E+00 -0.00000000000E+00 -0.13057565622E+04  0.13057565622E+04  0.00000000000E+00 0.  1.
    9000005    1    1    2  501    0  0.33263423493E+03 -0.55711115417E+03 -0.94144694896E+03  0.12113384044E+04  0.40000000000E+03 0.  1.
   -9000005    1    1    2    0  502 -0.33263423493E+03  0.55711115417E+03  0.40392933234E+03  0.86265710329E+03  0.40000000000E+03 0. -1.
<mgrwt>
<rscale>  2 0.76224561E+03</rscale>
<asrwt>0</asrwt>
<pdfrwt beam="1">  1       21 0.11819061E+00 0.76224561E+03</pdfrwt>
<pdfrwt beam="2">  1       21 0.20088562E+00 0.76224561E+03</pdfrwt>
<totfact> 0.49529487E+01</totfact>
</mgrwt>
</event>
<event>
 4    1  0.4774032E-002  0.4829923E+03  0.7818608E-02  0.1018316E+00
         21   -1    0    0  503  502  0.00000000000E+00  0.00000000000E+00  0.28936537462E+03  0.28936537462E+03  0.00000000000E+00 0. -1.
         21   -1    0    0  501  503 -0.00000000000E+00 -0.00000000000E+00 -0.10385534397E+04  0.10385534397E+04  0.00000000000E+00 0.  1.
    9000005    1    1    2  501    0  0.18823311880E+03  0.19455038663E+03 -0.68865732233E+03  0.84114830295E+03  0.40000000000E+03 0.  1.
   -9000005    1    1    2    0  502 -0.18823311880E+03 -0.19455038663E+03 -0.60530742777E+02  0.48677051140E+03  0.40000000000E+03 0. -1.
<mgrwt>
<rscale>  2 0.48299230E+03</rscale>
<asrwt>0</asrwt>
<pdfrwt beam="1">  1       21 0.44517751E-01 0.48299230E+03</pdfrwt>
<pdfrwt beam="2">  1       21 0.15977745E+00 0.48299230E+03</pdfrwt>
<totfact> 0.10181923E+03</totfact>
</mgrwt>
</event>
<event>
 4    1  0.4774032E-002  0.4218216E+03  0.7818608E-02  0.1036475E+00
         21   -1    0    0  501  502  0.00000000000E+00  0.00000000000E+00  0.33120961018E+03  0.33120961018E+03  0.00000000000E+00 0.  1.
         21   -1    0    0  502  503 -0.00000000000E+00 -0.00000000000E+00 -0.63817812443E+03  0.63817812443E+03  0.00000000000E+00 0.  1.
    9000005    1    1    2  501    0 -0.90604352755E+02  0.98612119922E+02  0.39294973359E+02  0.42364795983E+03  0.40000000000E+03 0.  1.
   -9000005    1    1    2    0  503  0.90604352755E+02 -0.98612119922E+02 -0.34626348761E+03  0.54573977479E+03  0.40000000000E+03 0.  1.
<mgrwt>
<rscale>  2 0.42182164E+03</rscale>
<asrwt>0</asrwt>
<pdfrwt beam="1">  1       21 0.50955325E-01 0.42182164E+03</pdfrwt>
<pdfrwt beam="2">  1       21 0.98181249E-01 0.42182164E+03</pdfrwt>
<totfact> 0.27545366E+03</totfact>
</mgrwt>
</event>
<event>
 4    1  0.4774032E-002  0.4180395E+03  0.7818608E-02  0.1037706E+00
         21   -1    0    0  503  502  0.00000000000E+00  0.00000000000E+00  0.42494783788E+03  0.42494783788E+03  0.00000000000E+00 0. -1.
         21   -1    0    0  501  503 -0.00000000000E+00 -0.00000000000E+00 -0.66181211629E+03  0.66181211629E+03  0.00000000000E+00 0. -1.
    9000005    1    1    2  501    0 -0.99184371080E+02 -0.70139173408E+02 -0.45278080722E+03  0.61625279107E+03  0.40000000000E+03 0. -1.
   -9000005    1    1    2    0  502  0.99184371080E+02  0.70139173408E+02  0.21591652881E+03  0.47050716310E+03  0.40000000000E+03 0. -1.
<mgrwt>
<rscale>  2 0.41803952E+03</rscale>
<asrwt>0</asrwt>
<pdfrwt beam="1">  1       21 0.65376591E-01 0.41803952E+03</pdfrwt>
<pdfrwt beam="2">  1       21 0.10181725E+00 0.41803952E+03</pdfrwt>
<totfact> 0.14691971E+03</totfact>
</mgrwt>
</event>
<event>
 4    1  0.4774032E-002  0.5034679E+03  0.7818608E-02  0.1012878E+00
         21   -1    0    0  503  502  0.00000000000E+00  0.00000000000E+00  0.29357607301E+03  0.29357607301E+03  0.00000000000E+00 0. -1.
         21   -1    0    0  501  503 -0.00000000000E+00 -0.00000000000E+00 -0.97738975950E+03  0.97738975950E+03  0.00000000000E+00 0. -1.
    9000005    1    1    2  501    0 -0.12415894902E+03 -0.27940026532E+03 -0.55890775525E+03  0.75223522369E+03  0.40000000000E+03 0. -1.
   -9000005    1    1    2    0  502  0.12415894902E+03  0.27940026532E+03 -0.12490593124E+03  0.51873060883E+03  0.40000000000E+03 0. -1.
<mgrwt>
<rscale>  2 0.50346793E+03</rscale>
<asrwt>0</asrwt>
<pdfrwt beam="1">  1       21 0.45165550E-01 0.50346793E+03</pdfrwt>
<pdfrwt beam="2">  1       21 0.15036766E+00 0.50346793E+03</pdfrwt>
<totfact> 0.11586194E+03</totfact>
</mgrwt>
</event>
<event>
 4    1  0.4774032E-002  0.6341830E+03  0.7818608E-02  0.9836920E-01
         21   -1    0    0  501  502  0.00000000000E+00  0.00000000000E+00  0.42624905964E+03  0.42624905964E+03  0.00000000000E+00 0.  1.
         21   -1    0    0  502  503 -0.00000000000E+00 -0.00000000000E+00 -0.97874063442E+03  0.97874063442E+03  0.00000000000E+00 0. -1.
    9000005    1    1    2  501    0 -0.46500212857E+03  0.16112448642E+03 -0.14304352627E+03  0.65011501298E+03  0.40000000000E+03 0.  1.
   -9000005    1    1    2    0  503  0.46500212857E+03 -0.16112448642E+03 -0.40944804851E+03  0.75487468107E+03  0.40000000000E+03 0. -1.
<mgrwt>
<rscale>  2 0.63418300E+03</rscale>
<asrwt>0</asrwt>
<pdfrwt beam="1">  1       21 0.65576778E-01 0.63418300E+03</pdfrwt>
<pdfrwt beam="2">  1       21 0.15057548E+00 0.63418300E+03</pdfrwt>
<totfact> 0.49160623E+02</totfact>
</mgrwt>
</event>
<event>
 4    1  0.4774032E-002  0.5077039E+03  0.7818608E-02  0.1011787E+00
         21   -1    0    0  503  502  0.00000000000E+00  0.00000000000E+00  0.21260913690E+03  0.21260913690E+03  0.00000000000E+00 0.  1.
         21   -1    0    0  501  503 -0.00000000000E+00 -0.00000000000E+00 -0.18829438246E+04  0.18829438246E+04  0.00000000000E+00 0.  1.
    9000005    1    1    2  501    0 -0.17497799820E+03  0.25912540549E+03 -0.14604403844E+04  0.15461724975E+04  0.40000000000E+03 0.  1.
   -9000005    1    1    2    0  502  0.17497799820E+03 -0.25912540549E+03 -0.20989430322E+03  0.54938046393E+03  0.40000000000E+03 0.  1.
<mgrwt>
<rscale>  2 0.50770393E+03</rscale>
<asrwt>0</asrwt>
<pdfrwt beam="1">  1       21 0.32709098E-01 0.50770393E+03</pdfrwt>
<pdfrwt beam="2">  1       21 0.28968366E+00 0.50770393E+03</pdfrwt>
<totfact> 0.26974871E+02</totfact>
</mgrwt>
</event>
<event>
 4    1  0.4774032E-002  0.4557490E+03  0.7818608E-02  0.1026021E+00
         21   -1    0    0  503  502  0.00000000000E+00  0.00000000000E+00  0.44831054325E+03  0.44831054325E+03  0.00000000000E+00 0. -1.
         21   -1    0    0  501  503 -0.00000000000E+00 -0.00000000000E+00 -0.10872674713E+04  0.10872674713E+04  0.00000000000E+00 0.  1.
    9000005    1    1    2  501    0  0.15420622744E+03  0.15468553814E+03 -0.90111390569E+03  0.10098086192E+04  0.40000000000E+03 0.  1.
   -9000005    1    1    2    0  502 -0.15420622744E+03 -0.15468553814E+03  0.26215697759E+03  0.52576939545E+03  0.40000000000E+03 0. -1.
<mgrwt>
<rscale>  2 0.45574903E+03</rscale>
<asrwt>0</asrwt>
<pdfrwt beam="1">  1       21 0.68970853E-01 0.45574903E+03</pdfrwt>
<pdfrwt beam="2">  1       21 0.16727192E+00 0.45574903E+03</pdfrwt>
<totfact> 0.35092792E+02</totfact>
</mgrwt>
</event>
<event>
 4    1  0.4774032E-002  0.5651921E+03  0.7818608E-02  0.9980375E-01
         21   -1    0    0  503  502  0.00000000000E+00  0.00000000000E+00  0.56074685308E+03  0.56074685308E+03  0.00000000000E+00 0.  1.
         21   -1    0    0  501  503 -0.00000000000E+00 -0.00000000000E+00 -0.57539318790E+03  0.57539318790E+03  0.00000000000E+00 0.  1.
    9000005    1    1    2  501    0 -0.10623594417E+03 -0.38491037091E+03  0.49319423636E+02  0.56733982322E+03  0.40000000000E+03 0.  1.
   -9000005    1    1    2    0  502  0.10623594417E+03  0.38491037091E+03 -0.63965758453E+02  0.56880021776E+03  0.40000000000E+03 0.  1.
<mgrwt>
<rscale>  2 0.56519206E+03</rscale>
<asrwt>0</asrwt>
<pdfrwt beam="1">  1       21 0.86268747E-01 0.56519206E+03</pdfrwt>
<pdfrwt beam="2">  1       21 0.88522029E-01 0.56519206E+03</pdfrwt>
<totfact> 0.10331300E+03</totfact>
</mgrwt>
</event>
<event>
 4    1  0.4774032E-002  0.4315118E+03  0.7818608E-02  0.1033383E+00
         21   -1    0    0  501  502  0.00000000000E+00  0.00000000000E+00  0.22207418409E+03  0.22207418409E+03  0.00000000000E+00 0.  1.
         21   -1    0    0  502  503 -0.00000000000E+00 -0.00000000000E+00 -0.10337826902E+04  0.10337826902E+04  0.00000000000E+00 0.  1.
    9000005    1    1    2  501    0 -0.13443810985E+03 -0.90159790995E+02 -0.13291783064E+03  0.45151915020E+03  0.40000000000E+03 0.  1.
   -9000005    1    1    2    0  503  0.13443810985E+03  0.90159790995E+02 -0.67879067552E+03  0.80433772413E+03  0.40000000000E+03 0.  1.
<mgrwt>
<rscale>  2 0.43151175E+03</rscale>
<asrwt>0</asrwt>
<pdfrwt beam="1">  1       21 0.34165259E-01 0.43151175E+03</pdfrwt>
<pdfrwt beam="2">  1       21 0.15904349E+00 0.43151175E+03</pdfrwt>
<totfact> 0.18145573E+03</totfact>
</mgrwt>
</event>
<event>
 4    1  0.4774032E-002  0.4057651E+03  0.7818608E-02  0.1041802E+00
         21   -1    0    0  501  502  0.00000000000E+00  0.00000000000E+00  0.54910692833E+03  0.54910692833E+03  0.00000000000E+00 0.  1.
         21   -1    0    0  502  503 -0.00000000000E+00 -0.00000000000E+00 -0.41489347706E+03  0.41489347706E+03  0.00000000000E+00 0.  1.
    9000005    1    1    2  501    0 -0.67995647998E+02  0.46808323212E+01  0.32092624716E+03  0.51733835587E+03  0.40000000000E+03 0. -1.
   -9000005    1    1    2    0  503  0.67995647998E+02 -0.46808323212E+01 -0.18671279589E+03  0.44666204953E+03  0.40000000000E+03 0. -1.
<mgrwt>
<rscale>  2 0.40576510E+03</rscale>
<asrwt>0</asrwt>
<pdfrwt beam="1">  1       21 0.84477989E-01 0.40576510E+03</pdfrwt>
<pdfrwt beam="2">  1       21 0.63829766E-01 0.40576510E+03</pdfrwt>
<totfact> 0.24284984E+03</totfact>
</mgrwt>
</event>
<event>
 4    1  0.4774032E-002  0.6458948E+03  0.7818608E-02  0.9814513E-01
         21   -1    0    0  501  502  0.00000000000E+00  0.00000000000E+00  0.23245588370E+04  0.23245588370E+04  0.00000000000E+00 0.  1.
         21   -1    0    0  502  503 -0.00000000000E+00 -0.00000000000E+00 -0.18053662567E+03  0.18053662567E+03  0.00000000000E+00 0. -1.
    9000005    1    1    2  501    0  0.30274302542E+03  0.40684973469E+03  0.11684524539E+04  0.13350884552E+04  0.40000000000E+03 0. -1.
   -9000005    1    1    2    0  503 -0.30274302542E+03 -0.40684973469E+03  0.97556975743E+03  0.11700070075E+04  0.40000000000E+03 0.  1.
<mgrwt>
<rscale>  2 0.64589476E+03</rscale>
<asrwt>0</asrwt>
<pdfrwt beam="1">  1       21 0.35762442E+00 0.64589476E+03</pdfrwt>
<pdfrwt beam="2">  1       21 0.27774867E-01 0.64589476E+03</pdfrwt>
<totfact> 0.13432798E+02</totfact>
</mgrwt>
</event>
<event>
 4    1  0.4774032E-002  0.4486479E+03  0.7818608E-02  0.1028126E+00
         21   -1    0    0  503  502  0.00000000000E+00  0.00000000000E+00  0.24075169795E+04  0.24075169795E+04  0.00000000000E+00 0. -1.
         21   -1    0    0  501  503 -0.00000000000E+00 -0.00000000000E+00 -0.27562496995E+03  0.27562496995E+03  0.00000000000E+00 0. -1.
    9000005    1    1    2  501    0 -0.19056864662E+03  0.70487876365E+02 -0.53815317026E+02  0.45186395976E+03  0.40000000000E+03 0. -1.
   -9000005    1    1    2    0  502  0.19056864662E+03 -0.70487876365E+02  0.21857073266E+04  0.22312779897E+04  0.40000000000E+03 0. -1.
<mgrwt>
<rscale>  2 0.44864791E+03</rscale>
<asrwt>0</asrwt>
<pdfrwt beam="1">  1       21 0.37038721E+00 0.44864791E+03</pdfrwt>
<pdfrwt beam="2">  1       21 0.42403843E-01 0.44864791E+03</pdfrwt>
<totfact> 0.52995266E+01</totfact>
</mgrwt>
</event>
<event>
 4    1  0.4774032E-002  0.4151720E+03  0.7818608E-02  0.1038649E+00
         21   -1    0    0  501  502  0.00000000000E+00  0.00000000000E+00  0.95797902049E+02  0.95797902049E+02  0.00000000000E+00 0. -1.
         21   -1    0    0  502  503 -0.00000000000E+00 -0.00000000000E+00 -0.18136677259E+04  0.18136677259E+04  0.00000000000E+00 0. -1.
    9000005    1    1    2  501    0 -0.43980862194E+02 -0.10214423774E+03 -0.77391545388E+03  0.87824420937E+03  0.40000000000E+03 0. -1.
   -9000005    1    1    2    0  503  0.43980862194E+02  0.10214423774E+03 -0.94395436999E+03  0.10312214186E+04  0.40000000000E+03 0. -1.
<mgrwt>
<rscale>  2 0.41517197E+03</rscale>
<asrwt>0</asrwt>
<pdfrwt beam="1">  1       21 0.14738139E-01 0.41517197E+03</pdfrwt>
<pdfrwt beam="2">  1       21 0.27902581E+00 0.41517197E+03</pdfrwt>
<totfact> 0.15235777E+03</totfact>
</mgrwt>
</event>
<event>
 4    1  0.4774032E-002  0.5143275E+03  0.7818608E-02  0.1010105E+00
         21   -1    0    0  501  502  0.00000000000E+00  0.00000000000E+00  0.62957998699E+03  0.62957998699E+03  0.00000000000E+00 0.  1.
         21   -1    0    0  502  503 -0.00000000000E+00 -0.00000000000E+00 -0.45507445601E+03  0.45507445601E+03  0.00000000000E+00 0. -1.
    9000005    1    1    2  501    0  0.11398888328E+02  0.32311432616E+03  0.23744209409E+03  0.56649055638E+03  0.40000000000E+03 0.  1.
   -9000005    1    1    2    0  503 -0.11398888328E+02 -0.32311432616E+03 -0.62936563102E+02  0.51816388662E+03  0.40000000000E+03 0. -1.
<mgrwt>
<rscale>  2 0.51432752E+03</rscale>
<asrwt>0</asrwt>
<pdfrwt beam="1">  1       21 0.96858459E-01 0.51432752E+03</pdfrwt>
<pdfrwt beam="2">  1       21 0.70011455E-01 0.51432752E+03</pdfrwt>
<totfact> 0.13713417E+03</totfact>
</mgrwt>
</event>
<event>
 4    1  0.4774032E-002  0.5220894E+03  0.7818608E-02  0.1008169E+00
         21   -1    0    0  501  502  0.00000000000E+00  0.00000000000E+00  0.90486498080E+03  0.90486498080E+03  0.00000000000E+00 0.  1.
         21   -1    0    0  502  503 -0.00000000000E+00 -0.00000000000E+00 -0.44103445233E+03  0.44103445233E+03  0.00000000000E+00 0.  1.
    9000005    1    1    2  501    0 -0.28608133711E+03  0.17531342141E+03  0.61079251898E+03  0.80352027256E+03  0.40000000000E+03 0.  1.
   -9000005    1    1    2    0  503  0.28608133711E+03 -0.17531342141E+03 -0.14696199050E+03  0.54237916057E+03  0.40000000000E+03 0.  1.
<mgrwt>
<rscale>  2 0.52208939E+03</rscale>
<asrwt>0</asrwt>
<pdfrwt beam="1">  1       21 0.13921000E+00 0.52208939E+03</pdfrwt>
<pdfrwt beam="2">  1       21 0.67851455E-01 0.52208939E+03</pdfrwt>
<totfact> 0.58576698E+02</totfact>
</mgrwt>
</event>
<event>
 4    1  0.4774032E-002  0.5160823E+03  0.7818608E-02  0.1009664E+00
         21   -1    0    0  501  502  0.00000000000E+00  0.00000000000E+00  0.48515777989E+03  0.48515777989E+03  0.00000000000E+00 0. -1.
         21   -1    0    0  502  503 -0.00000000000E+00 -0.00000000000E+00 -0.68355291764E+03  0.68355291764E+03  0.00000000000E+00 0.  1.
    9000005    1    1    2  501    0 -0.32205853934E+03  0.51178881880E+02  0.16008475138E+03  0.54034073355E+03  0.40000000000E+03 0. -1.
   -9000005    1    1    2    0  503  0.32205853934E+03 -0.51178881880E+02 -0.35847988913E+03  0.62836996397E+03  0.40000000000E+03 0.  1.
<mgrwt>
<rscale>  2 0.51608234E+03</rscale>
<asrwt>0</asrwt>
<pdfrwt beam="1">  1       21 0.74639659E-01 0.51608234E+03</pdfrwt>
<pdfrwt beam="2">  1       21 0.10516199E+00 0.51608234E+03</pdfrwt>
<totfact> 0.96905498E+02</totfact>
</mgrwt>
</event>
<event>
 4    1  0.4774032E-002  0.4405298E+03  0.7818608E-02  0.1030584E+00
         21   -1    0    0  501  502  0.00000000000E+00  0.00000000000E+00  0.50777346991E+03  0.50777346991E+03  0.00000000000E+00 0.  1.
         21   -1    0    0  502  503 -0.00000000000E+00 -0.00000000000E+00 -0.40120173093E+03  0.40120173093E+03  0.00000000000E+00 0.  1.
    9000005    1    1    2  501    0 -0.11018670706E+03  0.14807233382E+03  0.15221822127E+03  0.46608680880E+03  0.40000000000E+03 0. -1.
   -9000005    1    1    2    0  503  0.11018670706E+03 -0.14807233382E+03 -0.45646482282E+02  0.44288839204E+03  0.40000000000E+03 0. -1.
<mgrwt>
<rscale>  2 0.44052982E+03</rscale>
<asrwt>0</asrwt>
<pdfrwt beam="1">  1       21 0.78118995E-01 0.44052982E+03</pdfrwt>
<pdfrwt beam="2">  1       21 0.61723344E-01 0.44052982E+03</pdfrwt>
<totfact> 0.30929341E+03</totfact>
</mgrwt>
</event>
<event>
 4    1  0.4774032E-002  0.4139332E+03  0.7818608E-02  0.1039059E+00
         21   -1    0    0  503  502  0.00000000000E+00  0.00000000000E+00  0.12907213193E+04  0.12907213193E+04  0.00000000000E+00 0.  1.
         21   -1    0    0  501  503 -0.00000000000E+00 -0.00000000000E+00 -0.24166828474E+03  0.24166828474E+03  0.00000000000E+00 0.  1.
    9000005    1    1    2  501    0 -0.97216941894E+02 -0.43468648835E+02  0.10146864485E+02  0.41405750335E+03  0.40000000000E+03 0.  1.
   -9000005    1    1    2    0  502  0.97216941894E+02  0.43468648835E+02  0.10389061701E+04  0.11183321007E+04  0.40000000000E+03 0.  1.
<mgrwt>
<rscale>  2 0.41393316E+03</rscale>
<asrwt>0</asrwt>
<pdfrwt beam="1">  1       21 0.19857251E+00 0.41393316E+03</pdfrwt>
<pdfrwt beam="2">  1       21 0.37179737E-01 0.41393316E+03</pdfrwt>
<totfact> 0.80934043E+02</totfact>
</mgrwt>
</event>
<event>
 4    1  0.4774032E-002  0.4452940E+03  0.7818608E-02  0.1029135E+00
         21   -1    0    0  501  502  0.00000000000E+00  0.00000000000E+00  0.12842344094E+04  0.12842344094E+04  0.00000000000E+00 0. -1.
         21   -1    0    0  502  503 -0.00000000000E+00 -0.00000000000E+00 -0.23949144084E+03  0.23949144084E+03  0.00000000000E+00 0. -1.
    9000005    1    1    2  501    0 -0.19474132228E+03  0.19040750219E+02  0.97649387168E+03  0.10732320412E+04  0.40000000000E+03 0. -1.
   -9000005    1    1    2    0  503  0.19474132228E+03 -0.19040750219E+02  0.68249096875E+02  0.45049380905E+03  0.40000000000E+03 0. -1.
<mgrwt>
<rscale>  2 0.44529398E+03</rscale>
<asrwt>0</asrwt>
<pdfrwt beam="1">  1       21 0.19757452E+00 0.44529398E+03</pdfrwt>
<pdfrwt beam="2">  1       21 0.36844838E-01 0.44529398E+03</pdfrwt>
<totfact> 0.82445428E+02</totfact>
</mgrwt>
</event>
<event>
 4    1  0.4774032E-002  0.4048118E+03  0.7818608E-02  0.1042126E+00
         21   -1    0    0  501  502  0.00000000000E+00  0.00000000000E+00  0.57128702594E+03  0.57128702594E+03  0.00000000000E+00 0. -1.
         21   -1    0    0  502  503 -0.00000000000E+00 -0.00000000000E+00 -0.38891203189E+03  0.38891203189E+03  0.00000000000E+00 0. -1.
    9000005    1    1    2  501    0 -0.61270866544E+02  0.10883279730E+02  0.33713468469E+03  0.52681340196E+03  0.40000000000E+03 0. -1.
   -9000005    1    1    2    0  503  0.61270866544E+02 -0.10883279730E+02 -0.15475969064E+03  0.43338565587E+03  0.40000000000E+03 0. -1.
<mgrwt>
<rscale>  2 0.40481176E+03</rscale>
<asrwt>0</asrwt>
<pdfrwt beam="1">  1       21 0.87890311E-01 0.40481176E+03</pdfrwt>
<pdfrwt beam="2">  1       21 0.59832621E-01 0.40481176E+03</pdfrwt>
<totfact> 0.25525865E+03</totfact>
</mgrwt>
</event>
<event>
 4    1  0.4774032E-002  0.5493813E+03  0.7818608E-02  0.1001637E+00
         21   -1    0    0  503  502  0.00000000000E+00  0.00000000000E+00  0.44686995629E+03  0.44686995629E+03  0.00000000000E+00 0.  1.
         21   -1    0    0  501  503 -0.00000000000E+00 -0.00000000000E+00 -0.73530254459E+03  0.73530254459E+03  0.00000000000E+00 0.  1.
    9000005    1    1    2  501    0  0.91374966644E+02 -0.36533604409E+03 -0.31291404659E+03  0.63224600449E+03  0.40000000000E+03 0.  1.
   -9000005    1    1    2    0  502 -0.91374966644E+02  0.36533604409E+03  0.24481458285E+02  0.54992649640E+03  0.40000000000E+03 0.  1.
<mgrwt>
<rscale>  2 0.54938130E+03</rscale>
<asrwt>0</asrwt>
<pdfrwt beam="1">  1       21 0.68749225E-01 0.54938130E+03</pdfrwt>
<pdfrwt beam="2">  1       21 0.11312347E+00 0.54938130E+03</pdfrwt>
<totfact> 0.96275616E+02</totfact>
</mgrwt>
</event>
<event>
 4    1  0.4774032E-002  0.4819337E+03  0.7818608E-02  0.1018605E+00
         21   -1    0    0  501  502  0.00000000000E+00  0.00000000000E+00  0.77407501916E+03  0.77407501916E+03  0.00000000000E+00 0. -1.
         21   -1    0    0  502  503 -0.00000000000E+00 -0.00000000000E+00 -0.30195574762E+03  0.30195574762E+03  0.00000000000E+00 0. -1.
    9000005    1    1    2  501    0 -0.26404177334E+03  0.50418110573E+02  0.27881860599E+03  0.55677630965E+03  0.40000000000E+03 0. -1.
   -9000005    1    1    2    0  503  0.26404177334E+03 -0.50418110573E+02  0.19330066555E+03  0.51925445713E+03  0.40000000000E+03 0. -1.
<mgrwt>
<rscale>  2 0.48193365E+03</rscale>
<asrwt>0</asrwt>
<pdfrwt beam="1">  1       21 0.11908846E+00 0.48193365E+03</pdfrwt>
<pdfrwt beam="2">  1       21 0.46454731E-01 0.48193365E+03</pdfrwt>
<totfact> 0.20327833E+03</totfact>
</mgrwt>
</event>
<event>
 4    1  0.4774032E-002  0.4516319E+03  0.7818608E-02  0.1027237E+00
         21   -1    0    0  501  502  0.00000000000E+00  0.00000000000E+00  0.34844477606E+03  0.34844477606E+03  0.00000000000E+00 0. -1.
         21   -1    0    0  502  503 -0.00000000000E+00 -0.00000000000E+00 -0.14954427156E+04  0.14954427156E+04  0.00000000000E+00 0. -1.
    9000005    1    1    2  501    0 -0.16570829576E+03 -0.12849958044E+03  0.14571154695E+03  0.47455583061E+03  0.40000000000E+03 0. -1.
   -9000005    1    1    2    0  503  0.16570829576E+03  0.12849958044E+03 -0.12927094864E+04  0.13693316610E+04  0.40000000000E+03 0. -1.
<mgrwt>
<rscale>  2 0.45163191E+03</rscale>
<asrwt>0</asrwt>
<pdfrwt beam="1">  1       21 0.53606888E-01 0.45163191E+03</pdfrwt>
<pdfrwt beam="2">  1       21 0.23006811E+00 0.45163191E+03</pdfrwt>
<totfact> 0.23101757E+02</totfact>
</mgrwt>
</event>
<event>
 4    1  0.4774032E-002  0.5359556E+03  0.7818608E-02  0.1004798E+00
         21   -1    0    0  501  502  0.00000000000E+00  0.00000000000E+00  0.15100240549E+04  0.15100240549E+04  0.00000000000E+00 0.  1.
         21   -1    0    0  502  503 -0.00000000000E+00 -0.00000000000E+00 -0.30720578091E+03  0.30720578091E+03  0.00000000000E+00 0.  1.
    9000005    1    1    2  501    0  0.35653635241E+03 -0.11412777261E+02  0.11620921436E+04  0.12797291011E+04  0.40000000000E+03 0.  1.
   -9000005    1    1    2    0  503 -0.35653635241E+03  0.11412777261E+02  0.40726130381E+02  0.53750073467E+03  0.40000000000E+03 0.  1.
<mgrwt>
<rscale>  2 0.53595562E+03</rscale>
<asrwt>0</asrwt>
<pdfrwt beam="1">  1       21 0.23231139E+00 0.53595562E+03</pdfrwt>
<pdfrwt beam="2">  1       21 0.47262429E-01 0.53595562E+03</pdfrwt>
<totfact> 0.28057573E+02</totfact>
</mgrwt>
</event>
<event>
 4    1  0.4774032E-002  0.4408531E+03  0.7818608E-02  0.1030485E+00
         21   -1    0    0  503  502  0.00000000000E+00  0.00000000000E+00  0.61269874309E+03  0.61269874309E+03  0.00000000000E+00 0.  1.
         21   -1    0    0  501  503 -0.00000000000E+00 -0.00000000000E+00 -0.41479615834E+03  0.41479615834E+03  0.00000000000E+00 0.  1.
    9000005    1    1    2  501    0 -0.38222698439E+02  0.18135727368E+03 -0.15024200279E+03  0.46575110821E+03  0.40000000000E+03 0.  1.
   -9000005    1    1    2    0  502  0.38222698439E+02 -0.18135727368E+03  0.34814458754E+03  0.56174379322E+03  0.40000000000E+03 0.  1.
<mgrwt>
<rscale>  2 0.44085308E+03</rscale>
<asrwt>0</asrwt>
<pdfrwt beam="1">  1       21 0.94261346E-01 0.44085308E+03</pdfrwt>
<pdfrwt beam="2">  1       21 0.63814793E-01 0.44085308E+03</pdfrwt>
<totfact> 0.18500268E+03</totfact>
</mgrwt>
</event>
<event>
 4    1  0.4774032E-002  0.6673312E+03  0.7818608E-02  0.9774791E-01
         21   -1    0    0  501  502  0.00000000000E+00  0.00000000000E+00  0.23632900504E+04  0.23632900504E+04  0.00000000000E+00 0.  1.
         21   -1    0    0  502  503 -0.00000000000E+00 -0.00000000000E+00 -0.18888716704E+03  0.18888716704E+03  0.00000000000E+00 0.  1.
    9000005    1    1    2  501    0  0.38728768521E+03  0.36788479004E+03  0.10248952475E+04  0.12230050033E+04  0.40000000000E+03 0.  1.
   -9000005    1    1    2    0  503 -0.38728768521E+03 -0.36788479004E+03  0.11495076359E+04  0.13291722141E+04  0.40000000000E+03 0.  1.
<mgrwt>
<rscale>  2 0.66733123E+03</rscale>
<asrwt>0</asrwt>
<pdfrwt beam="1">  1       21 0.36358306E+00 0.66733123E+03</pdfrwt>
<pdfrwt beam="2">  1       21 0.29059566E-01 0.66733123E+03</pdfrwt>
<totfact> 0.11158340E+02</totfact>
</mgrwt>
</event>
<event>
 4    1  0.4774032E-002  0.4134455E+03  0.7818608E-02  0.1039221E+00
         21   -1    0    0  503  502  0.00000000000E+00  0.00000000000E+00  0.58429375934E+03  0.58429375934E+03  0.00000000000E+00 0.  1.
         21   -1    0    0  501  503 -0.00000000000E+00 -0.00000000000E+00 -0.32334068509E+03  0.32334068509E+03  0.00000000000E+00 0.  1.
    9000005    1    1    2  501    0  0.76504867195E+02 -0.71303435665E+02  0.27051131419E+03  0.49407848136E+03  0.40000000000E+03 0.  1.
   -9000005    1    1    2    0  502 -0.76504867195E+02  0.71303435665E+02 -0.95582399422E+01  0.41355596307E+03  0.40000000000E+03 0.  1.
<mgrwt>
<rscale>  2 0.41344549E+03</rscale>
<asrwt>0</asrwt>
<pdfrwt beam="1">  1       21 0.89891347E-01 0.41344549E+03</pdfrwt>
<pdfrwt beam="2">  1       21 0.49744721E-01 0.41344549E+03</pdfrwt>
<totfact> 0.35897102E+03</totfact>
</mgrwt>
</event>
<event>
 4    1  0.4774032E-002  0.4180518E+03  0.7818608E-02  0.1037702E+00
         21   -1    0    0  501  502  0.00000000000E+00  0.00000000000E+00  0.84026010051E+03  0.84026010051E+03  0.00000000000E+00 0.  1.
         21   -1    0    0  502  503 -0.00000000000E+00 -0.00000000000E+00 -0.29430966913E+03  0.29430966913E+03  0.00000000000E+00 0.  1.
    9000005    1    1    2  501    0  0.99332486316E+02 -0.70002632389E+02  0.58019487339E+03  0.71511775428E+03  0.40000000000E+03 0.  1.
   -9000005    1    1    2    0  503 -0.99332486316E+02  0.70002632389E+02 -0.34244442003E+02  0.41945201536E+03  0.40000000000E+03 0.  1.
<mgrwt>
<rscale>  2 0.41805180E+03</rscale>
<asrwt>0</asrwt>
<pdfrwt beam="1">  1       21 0.12927078E+00 0.41805180E+03</pdfrwt>
<pdfrwt beam="2">  1       21 0.45278411E-01 0.41805180E+03</pdfrwt>
<totfact> 0.17814997E+03</totfact>
</mgrwt>
</event>
<event>
 4    1  0.4774032E-002  0.1339411E+04  0.7818608E-02  0.8998883E-01
         21   -1    0    0  501  502  0.00000000000E+00  0.00000000000E+00  0.13200260842E+04  0.13200260842E+04  0.00000000000E+00 0.  1.
         21   -1    0    0  502  503 -0.00000000000E+00 -0.00000000000E+00 -0.13776226780E+04  0.13776226780E+04  0.00000000000E+00 0. -1.
    9000005    1    1    2  501    0  0.17508356860E+03  0.12662412625E+04  0.12768761660E+03  0.13454833028E+04  0.40000000000E+03 0. -1.
   -9000005    1    1    2    0  503 -0.17508356860E+03 -0.12662412625E+04 -0.18528421043E+03  0.13521654593E+04  0.40000000000E+03 0.  1.
<mgrwt>
<rscale>  2 0.13394108E+04</rscale>
<asrwt>0</asrwt>
<pdfrwt beam="1">  1       21 0.20308094E+00 0.13394108E+04</pdfrwt>
<pdfrwt beam="2">  1       21 0.21194195E+00 0.13394108E+04</pdfrwt>
<totfact> 0.76199104E+00</totfact>
</mgrwt>
</event>
<event>
 4    1  0.4774032E-002  0.4397045E+03  0.7818608E-02  0.1030838E+00
         21   -1    0    0  501  502  0.00000000000E+00  0.00000000000E+00  0.23842500289E+03  0.23842500289E+03  0.00000000000E+00 0.  1.
         21   -1    0    0  502  503 -0.00000000000E+00 -0.00000000000E+00 -0.99089393264E+03  0.99089393264E+03  0.00000000000E+00 0.  1.
    9000005    1    1    2  501    0  0.14001114202E+03  0.11720471797E+03 -0.63819972077E+03  0.77500899956E+03  0.40000000000E+03 0.  1.
   -9000005    1    1    2    0  503 -0.14001114202E+03 -0.11720471797E+03 -0.11426920899E+03  0.45430993598E+03  0.40000000000E+03 0.  1.
<mgrwt>
<rscale>  2 0.43970452E+03</rscale>
<asrwt>0</asrwt>
<pdfrwt beam="1">  1       21 0.36680770E-01 0.43970452E+03</pdfrwt>
<pdfrwt beam="2">  1       21 0.15244522E+00 0.43970452E+03</pdfrwt>
<totfact> 0.17597339E+03</totfact>
</mgrwt>
</event>
<event>
 4    1  0.4774032E-002  0.4339990E+03  0.7818608E-02  0.1032604E+00
         21   -1    0    0  501  502  0.00000000000E+00  0.00000000000E+00  0.14864578695E+03  0.14864578695E+03  0.00000000000E+00 0. -1.
         21   -1    0    0  502  503 -0.00000000000E+00 -0.00000000000E+00 -0.15376071378E+04  0.15376071378E+04  0.00000000000E+00 0. -1.
    9000005    1    1    2  501    0 -0.45960673322E+02 -0.16199623409E+03 -0.34086906283E+03  0.55185766403E+03  0.40000000000E+03 0. -1.
   -9000005    1    1    2    0  503  0.45960673322E+02  0.16199623409E+03 -0.10480922880E+04  0.11343952607E+04  0.40000000000E+03 0. -1.
<mgrwt>
<rscale>  2 0.43399904E+03</rscale>
<asrwt>0</asrwt>
<pdfrwt beam="1">  1       21 0.22868582E-01 0.43399904E+03</pdfrwt>
<pdfrwt beam="2">  1       21 0.23655495E+00 0.43399904E+03</pdfrwt>
<totfact> 0.11955423E+03</totfact>
</mgrwt>
</event>
<event>
 4    1  0.4774032E-002  0.5883151E+03  0.7818608E-02  0.9929949E-01
         21   -1    0    0  501  502  0.00000000000E+00  0.00000000000E+00  0.46842545627E+03  0.46842545627E+03  0.00000000000E+00 0. -1.
         21   -1    0    0  502  503 -0.00000000000E+00 -0.00000000000E+00 -0.15419861170E+04  0.15419861170E+04  0.00000000000E+00 0.  1.
    9000005    1    1    2  501    0  0.17484993854E+03  0.39438840337E+03  0.18865484537E+03  0.61782308504E+03  0.40000000000E+03 0. -1.
   -9000005    1    1    2    0  503 -0.17484993854E+03 -0.39438840337E+03 -0.12622155061E+04  0.13925884882E+04  0.40000000000E+03 0.  1.
<mgrwt>
<rscale>  2 0.58831515E+03</rscale>
<asrwt>0</asrwt>
<pdfrwt beam="1">  1       21 0.72065455E-01 0.58831515E+03</pdfrwt>
<pdfrwt beam="2">  1       21 0.23722863E+00 0.58831515E+03</pdfrwt>
<totfact> 0.10113115E+02</totfact>
</mgrwt>
</event>
<event>
 4    1  0.4774032E-002  0.4987823E+03  0.7818608E-02  0.1014097E+00
         21   -1    0    0  503  502  0.00000000000E+00  0.00000000000E+00  0.55065746764E+03  0.55065746764E+03  0.00000000000E+00 0. -1.
         21   -1    0    0  501  503 -0.00000000000E+00 -0.00000000000E+00 -0.81953327766E+03  0.81953327766E+03  0.00000000000E+00 0. -1.
    9000005    1    1    2  501    0  0.11887811038E+03 -0.27322473669E+03  0.32448287541E+03  0.59504024931E+03  0.40000000000E+03 0. -1.
   -9000005    1    1    2    0  502 -0.11887811038E+03  0.27322473669E+03 -0.59335868543E+03  0.77515049599E+03  0.40000000000E+03 0. -1.
<mgrwt>
<rscale>  2 0.49878228E+03</rscale>
<asrwt>0</asrwt>
<pdfrwt beam="1">  1       21 0.84716534E-01 0.49878228E+03</pdfrwt>
<pdfrwt beam="2">  1       21 0.12608204E+00 0.49878228E+03</pdfrwt>
<totfact> 0.46055187E+02</totfact>
</mgrwt>
</event>
<event>
 4    1  0.4774032E-002  0.4914809E+03  0.7818608E-02  0.1016027E+00
         21   -1    0    0  503  502  0.00000000000E+00  0.00000000000E+00  0.31641507161E+03  0.31641507161E+03  0.00000000000E+00 0. -1.
         21   -1    0    0  501  503 -0.00000000000E+00 -0.00000000000E+00 -0.76634389777E+03  0.76634389777E+03  0.00000000000E+00 0. -1.
    9000005    1    1    2  501    0 -0.10904051484E+03  0.26393879082E+03 -0.25847834141E+03  0.55530583659E+03  0.40000000000E+03 0. -1.
   -9000005    1    1    2    0  502  0.10904051484E+03 -0.26393879082E+03 -0.19145048474E+03  0.52745313279E+03  0.40000000000E+03 0. -1.
<mgrwt>
<rscale>  2 0.49148094E+03</rscale>
<asrwt>0</asrwt>
<pdfrwt beam="1">  1       21 0.48679242E-01 0.49148094E+03</pdfrwt>
<pdfrwt beam="2">  1       21 0.11789906E+00 0.49148094E+03</pdfrwt>
<totfact> 0.18823423E+03</totfact>
</mgrwt>
</event>
<event>
 4    1  0.4774032E-002  0.4375558E+03  0.7818608E-02  0.1031499E+00
         21   -1    0    0  503  502  0.00000000000E+00  0.00000000000E+00  0.23979262607E+03  0.23979262607E+03  0.00000000000E+00 0. -1.
         21   -1    0    0  501  503 -0.00000000000E+00 -0.00000000000E+00 -0.14285339195E+04  0.14285339195E+04  0.00000000000E+00 0. -1.
    9000005    1    1    2  501    0  0.71229137479E+02  0.16242366375E+03 -0.11483780886E+04  0.12289130445E+04  0.40000000000E+03 0. -1.
   -9000005    1    1    2    0  502 -0.71229137479E+02 -0.16242366375E+03 -0.40363204773E+02  0.43941350101E+03  0.40000000000E+03 0. -1.
<mgrwt>
<rscale>  2 0.43755575E+03</rscale>
<asrwt>0</asrwt>
<pdfrwt beam="1">  1       21 0.36891173E-01 0.43755575E+03</pdfrwt>
<pdfrwt beam="2">  1       21 0.21977445E+00 0.43755575E+03</pdfrwt>
<totfact> 0.59095243E+02</totfact>
</mgrwt>
</event>
<event>
 4    1  0.4774032E-002  0.6241287E+03  0.7818608E-02  0.9856574E-01
         21   -1    0    0  503  502  0.00000000000E+00  0.00000000000E+00  0.22841493291E+03  0.22841493291E+03  0.00000000000E+00 0.  1.
         21   -1    0    0  501  503 -0.00000000000E+00 -0.00000000000E+00 -0.17189284715E+04  0.17189284715E+04  0.00000000000E+00 0.  1.
    9000005    1    1    2  501    0 -0.33461125536E+03  0.34288758629E+03 -0.65884653345E+03  0.90753255792E+03  0.40000000000E+03 0.  1.
   -9000005    1    1    2    0  502  0.33461125536E+03 -0.34288758629E+03 -0.83166700514E+03  0.10398108465E+04  0.40000000000E+03 0.  1.
<mgrwt>
<rscale>  2 0.62412866E+03</rscale>
<asrwt>0</asrwt>
<pdfrwt beam="1">  1       21 0.35140759E-01 0.62412866E+03</pdfrwt>
<pdfrwt beam="2">  1       21 0.26445053E+00 0.62412866E+03</pdfrwt>
<totfact> 0.31560090E+02</totfact>
</mgrwt>
</event>
<event>
 4    1  0.4774032E-002  0.4245351E+03  0.7818608E-02  0.1035600E+00
         21   -1    0    0  503  502  0.00000000000E+00  0.00000000000E+00  0.28266370395E+03  0.28266370395E+03  0.00000000000E+00 0.  1.
         21   -1    0    0  501  503 -0.00000000000E+00 -0.00000000000E+00 -0.66802613428E+03  0.66802613428E+03  0.00000000000E+00 0.  1.
    9000005    1    1    2  501    0 -0.43449529215E+02  0.13543341529E+03 -0.91256865451E+02  0.43423252648E+03  0.40000000000E+03 0.  1.
   -9000005    1    1    2    0  502  0.43449529215E+02 -0.13543341529E+03 -0.29410556488E+03  0.51645731175E+03  0.40000000000E+03 0.  1.
<mgrwt>
<rscale>  2 0.42453512E+03</rscale>
<asrwt>0</asrwt>
<pdfrwt beam="1">  1       21 0.43486724E-01 0.42453512E+03</pdfrwt>
<pdfrwt beam="2">  1       21 0.10277325E+00 0.42453512E+03</pdfrwt>
<totfact> 0.34379816E+03</totfact>
</mgrwt>
</event>
<event>
 4    1  0.4774032E-002  0.5241049E+03  0.7818608E-02  0.1007672E+00
         21   -1    0    0  503  502  0.00000000000E+00  0.00000000000E+00  0.76091391103E+03  0.76091391103E+03  0.00000000000E+00 0. -1.
         21   -1    0    0  501  503 -0.00000000000E+00 -0.00000000000E+00 -0.36990852724E+03  0.36990852724E+03  0.00000000000E+00 0. -1.
    9000005    1    1    2  501    0 -0.22246622947E+03 -0.25533250394E+03  0.10773217434E+03  0.53506273670E+03  0.40000000000E+03 0. -1.
   -9000005    1    1    2    0  502  0.22246622947E+03  0.25533250394E+03  0.28327320945E+03  0.59575970157E+03  0.40000000000E+03 0. -1.
<mgrwt>
<rscale>  2 0.52410487E+03</rscale>
<asrwt>0</asrwt>
<pdfrwt beam="1">  1       21 0.11706368E+00 0.52410487E+03</pdfrwt>
<pdfrwt beam="2">  1       21 0.56909004E-01 0.52410487E+03</pdfrwt>
<totfact> 0.13545389E+03</totfact>
</mgrwt>
</event>
<event>
 4    1  0.4774032E-002  0.4845489E+03  0.7818608E-02  0.1017892E+00
         21   -1    0    0  503  502  0.00000000000E+00  0.00000000000E+00  0.14789715973E+04  0.14789715973E+04  0.00000000000E+00 0. -1.
         21   -1    0    0  501  503 -0.00000000000E+00 -0.00000000000E+00 -0.17247444449E+03  0.17247444449E+03  0.00000000000E+00 0. -1.
    9000005    1    1    2  501    0  0.16329301786E+03 -0.21936953216E+03  0.42032674307E+03  0.64145317231E+03  0.40000000000E+03 0. -1.
   -9000005    1    1    2    0  502 -0.16329301786E+03  0.21936953216E+03  0.88617040979E+03  0.10099928695E+04  0.40000000000E+03 0. -1.
<mgrwt>
<rscale>  2 0.48454886E+03</rscale>
<asrwt>0</asrwt>
<pdfrwt beam="1">  1       21 0.22753408E+00 0.48454886E+03</pdfrwt>
<pdfrwt beam="2">  1       21 0.26534531E-01 0.48454886E+03</pdfrwt>
<totfact> 0.99624686E+02</totfact>
</mgrwt>
</event>
<event>
 4    1  0.4774032E-002  0.4402489E+03  0.7818608E-02  0.1030670E+00
         21   -1    0    0  503  502  0.00000000000E+00  0.00000000000E+00  0.11401257375E+04  0.11401257375E+04  0.00000000000E+00 0. -1.
         21   -1    0    0  501  503 -0.00000000000E+00 -0.00000000000E+00 -0.25388505816E+03  0.25388505816E+03  0.00000000000E+00 0. -1.
    9000005    1    1    2  501    0  0.58392235713E+02 -0.17438300730E+03  0.42470408691E+02  0.44229268821E+03  0.40000000000E+03 0.  1.
   -9000005    1    1    2    0  502 -0.58392235713E+02  0.17438300730E+03  0.84377027064E+03  0.95171810745E+03  0.40000000000E+03 0.  1.
<mgrwt>
<rscale>  2 0.44024889E+03</rscale>
<asrwt>0</asrwt>
<pdfrwt beam="1">  1       21 0.17540396E+00 0.44024889E+03</pdfrwt>
<pdfrwt beam="2">  1       21 0.39059240E-01 0.44024889E+03</pdfrwt>
<totfact> 0.10439336E+03</totfact>
</mgrwt>
</event>
<event>
 4    1  0.4774032E-002  0.6958391E+03  0.7818608E-02  0.9724374E-01
         21   -1    0    0  501  502  0.00000000000E+00  0.00000000000E+00  0.12612652791E+04  0.12612652791E+04  0.00000000000E+00 0.  1.
         21   -1    0    0  502  503 -0.00000000000E+00 -0.00000000000E+00 -0.41588967260E+03  0.41588967260E+03  0.00000000000E+00 0.  1.
    9000005    1    1    2  501    0 -0.92819316187E+01  0.56930299715E+03  0.65528280213E+03  0.95581776902E+03  0.40000000000E+03 0.  1.
   -9000005    1    1    2    0  503  0.92819316187E+01 -0.56930299715E+03  0.19009280435E+03  0.72133718266E+03  0.40000000000E+03 0.  1.
<mgrwt>
<rscale>  2 0.69583910E+03</rscale>
<asrwt>0</asrwt>
<pdfrwt beam="1">  1       21 0.19404081E+00 0.69583910E+03</pdfrwt>
<pdfrwt beam="2">  1       21 0.63983027E-01 0.69583910E+03</pdfrwt>
<totfact> 0.24390246E+02</totfact>
</mgrwt>
</event>
<event>
 4    1  0.4774032E-002  0.4187215E+03  0.7818608E-02  0.1037483E+00
         21   -1    0    0  503  502  0.00000000000E+00  0.00000000000E+00  0.27569272981E+03  0.27569272981E+03  0.00000000000E+00 0.  1.
         21   -1    0    0  501  503 -0.00000000000E+00 -0.00000000000E+00 -0.78898425484E+03  0.78898425484E+03  0.00000000000E+00 0.  1.
    9000005    1    1    2  501    0 -0.72438999802E+02 -0.10040054059E+03 -0.49109210937E+03  0.64536744350E+03  0.40000000000E+03 0.  1.
   -9000005    1    1    2    0  502  0.72438999802E+02  0.10040054059E+03 -0.22199415650E+02  0.41930954115E+03  0.40000000000E+03 0.  1.
<mgrwt>
<rscale>  2 0.41872148E+03</rscale>
<asrwt>0</asrwt>
<pdfrwt beam="1">  1       21 0.42414267E-01 0.41872148E+03</pdfrwt>
<pdfrwt beam="2">  1       21 0.12138219E+00 0.41872148E+03</pdfrwt>
<totfact> 0.23988662E+03</totfact>
</mgrwt>
</event>
<event>
 4    1  0.4774032E-002  0.4178118E+03  0.7818608E-02  0.1037781E+00
         21   -1    0    0  503  502  0.00000000000E+00  0.00000000000E+00  0.46385227348E+03  0.46385227348E+03  0.00000000000E+00 0.  1.
         21   -1    0    0  501  503 -0.00000000000E+00 -0.00000000000E+00 -0.54524263163E+03  0.54524263163E+03  0.00000000000E+00 0. -1.
    9000005    1    1    2  501    0 -0.48085923439E+02 -0.11069978179E+03 -0.32151247019E+03  0.52719727447E+03  0.40000000000E+03 0. -1.
   -9000005    1    1    2    0  502  0.48085923439E+02  0.11069978179E+03  0.24012211205E+03  0.48189763064E+03  0.40000000000E+03 0.  1.
<mgrwt>
<rscale>  2 0.41781180E+03</rscale>
<asrwt>0</asrwt>
<pdfrwt beam="1">  1       21 0.71361888E-01 0.41781180E+03</pdfrwt>
<pdfrwt beam="2">  1       21 0.83883481E-01 0.41781180E+03</pdfrwt>
<totfact> 0.19151192E+03</totfact>
</mgrwt>
</event>
<event>
 4    1  0.4774032E-002  0.5509514E+03  0.7818608E-02  0.1001274E+00
         21   -1    0    0  501  502  0.00000000000E+00  0.00000000000E+00  0.36865138020E+03  0.36865138020E+03  0.00000000000E+00 0. -1.
         21   -1    0    0  502  503 -0.00000000000E+00 -0.00000000000E+00 -0.82806248145E+03  0.82806248145E+03  0.00000000000E+00 0. -1.
    9000005    1    1    2  501    0  0.96370092836E+02 -0.36641535136E+03 -0.18480462821E+03  0.58111974249E+03  0.40000000000E+03 0. -1.
   -9000005    1    1    2    0  503 -0.96370092836E+02  0.36641535136E+03 -0.27460647304E+03  0.61559411916E+03  0.40000000000E+03 0. -1.
<mgrwt>
<rscale>  2 0.55095136E+03</rscale>
<asrwt>0</asrwt>
<pdfrwt beam="1">  1       21 0.56715597E-01 0.55095136E+03</pdfrwt>
<pdfrwt beam="2">  1       21 0.12739423E+00 0.55095136E+03</pdfrwt>
<totfact> 0.10883628E+03</totfact>
</mgrwt>
</event>
<event>
 4    1  0.4774032E-002  0.4985986E+03  0.7818608E-02  0.1014145E+00
         21   -1    0    0  501  502  0.00000000000E+00  0.00000000000E+00  0.50501063957E+03  0.50501063957E+03  0.00000000000E+00 0. -1.
         21   -1    0    0  502  503 -0.00000000000E+00 -0.00000000000E+00 -0.14341529082E+04  0.14341529082E+04  0.00000000000E+00 0.  1.
    9000005    1    1    2  501    0 -0.24626815078E+03  0.16719025006E+03  0.32118111205E+03  0.59309180448E+03  0.40000000000E+03 0. -1.
   -9000005    1    1    2    0  503  0.24626815078E+03 -0.16719025006E+03 -0.12503233807E+04  0.13460717433E+04  0.40000000000E+03 0.  1.
<mgrwt>
<rscale>  2 0.49859862E+03</rscale>
<asrwt>0</asrwt>
<pdfrwt beam="1">  1       21 0.77693946E-01 0.49859862E+03</pdfrwt>
<pdfrwt beam="2">  1       21 0.22063891E+00 0.49859862E+03</pdfrwt>
<totfact> 0.11329400E+02</totfact>
</mgrwt>
</event>
<event>
 4    1  0.4774032E-002  0.6511797E+03  0.7818608E-02  0.9804568E-01
         21   -1    0    0  501  502  0.00000000000E+00  0.00000000000E+00  0.56203354808E+03  0.56203354808E+03  0.00000000000E+00 0. -1.
         21   -1    0    0  502  503 -0.00000000000E+00 -0.00000000000E+00 -0.87843100147E+03  0.87843100147E+03  0.00000000000E+00 0. -1.
    9000005    1    1    2  501    0  0.50272534040E+03  0.10631213733E+03  0.11236452465E+03  0.66080316648E+03  0.40000000000E+03 0. -1.
   -9000005    1    1    2    0  503 -0.50272534040E+03 -0.10631213733E+03 -0.42876197805E+03  0.77966138307E+03  0.40000000000E+03 0. -1.
<mgrwt>
<rscale>  2 0.65117973E+03</rscale>
<asrwt>0</asrwt>
<pdfrwt beam="1">  1       21 0.86466700E-01 0.65117973E+03</pdfrwt>
<pdfrwt beam="2">  1       21 0.13514323E+00 0.65117973E+03</pdfrwt>
<totfact> 0.34649680E+02</totfact>
</mgrwt>
</event>
<event>
 4    1  0.4774032E-002  0.4617272E+03  0.7818608E-02  0.1024281E+00
         21   -1    0    0  501  502  0.00000000000E+00  0.00000000000E+00  0.19813241412E+04  0.19813241412E+04  0.00000000000E+00 0.  1.
         21   -1    0    0  502  503 -0.00000000000E+00 -0.00000000000E+00 -0.13708634086E+03  0.13708634086E+03  0.00000000000E+00 0.  1.
    9000005    1    1    2  501    0  0.21615241690E+03  0.80437236393E+02  0.14133521448E+04  0.14868612247E+04  0.40000000000E+03 0.  1.
   -9000005    1    1    2    0  503 -0.21615241690E+03 -0.80437236393E+02  0.43088565557E+03  0.63154925739E+03  0.40000000000E+03 0.  1.
<mgrwt>
<rscale>  2 0.46172721E+03</rscale>
<asrwt>0</asrwt>
<pdfrwt beam="1">  1       21 0.30481908E+00 0.46172721E+03</pdfrwt>
<pdfrwt beam="2">  1       21 0.21090208E-01 0.46172721E+03</pdfrwt>
<totfact> 0.52979878E+02</totfact>
</mgrwt>
</event>
<event>
 4    1  0.4774032E-002  0.7585016E+03  0.7818608E-02  0.9622106E-01
         21   -1    0    0  503  502  0.00000000000E+00  0.00000000000E+00  0.34680643683E+03  0.34680643683E+03  0.00000000000E+00 0. -1.
         21   -1    0    0  501  503 -0.00000000000E+00 -0.00000000000E+00 -0.17491974711E+04  0.17491974711E+04  0.00000000000E+00 0. -1.
    9000005    1    1    2  501    0  0.28785907159E+03 -0.57659503298E+03 -0.46311240078E+03  0.88870567282E+03  0.40000000000E+03 0. -1.
   -9000005    1    1    2    0  502 -0.28785907159E+03  0.57659503298E+03 -0.93927863350E+03  0.12072982351E+04  0.40000000000E+03 0. -1.
<mgrwt>
<rscale>  2 0.75850160E+03</rscale>
<asrwt>0</asrwt>
<pdfrwt beam="1">  1       21 0.53354837E-01 0.75850160E+03</pdfrwt>
<pdfrwt beam="2">  1       21 0.26910730E+00 0.75850160E+03</pdfrwt>
<totfact> 0.11685138E+02</totfact>
</mgrwt>
</event>
<event>
 4    1  0.4774032E-002  0.4499808E+03  0.7818608E-02  0.1027728E+00
         21   -1    0    0  503  502  0.00000000000E+00  0.00000000000E+00  0.72042443331E+03  0.72042443331E+03  0.00000000000E+00 0. -1.
         21   -1    0    0  501  503 -0.00000000000E+00 -0.00000000000E+00 -0.36344691264E+03  0.36344691264E+03  0.00000000000E+00 0. -1.
    9000005    1    1    2  501    0  0.17148124197E+03 -0.11435425594E+03 -0.79532536207E+02  0.45695528941E+03  0.40000000000E+03 0. -1.
   -9000005    1    1    2    0  502 -0.17148124197E+03  0.11435425594E+03  0.43651005688E+03  0.62691605655E+03  0.40000000000E+03 0. -1.
<mgrwt>
<rscale>  2 0.44998079E+03</rscale>
<asrwt>0</asrwt>
<pdfrwt beam="1">  1       21 0.11083453E+00 0.44998079E+03</pdfrwt>
<pdfrwt beam="2">  1       21 0.55914910E-01 0.44998079E+03</pdfrwt>
<totfact> 0.16578455E+03</totfact>
</mgrwt>
</event>
<event>
 4    1  0.4774032E-002  0.4097060E+03  0.7818608E-02  0.1040470E+00
         21   -1    0    0  501  502  0.00000000000E+00  0.00000000000E+00  0.60947903827E+03  0.60947903827E+03  0.00000000000E+00 0. -1.
         21   -1    0    0  502  503 -0.00000000000E+00 -0.00000000000E+00 -0.27800970554E+03  0.27800970554E+03  0.00000000000E+00 0. -1.
    9000005    1    1    2  501    0 -0.35744148134E+02  0.81125451697E+02  0.12285601338E+03  0.42772956768E+03  0.40000000000E+03 0.  1.
   -9000005    1    1    2    0  503  0.35744148134E+02 -0.81125451697E+02  0.20861331934E+03  0.45975917614E+03  0.40000000000E+03 0.  1.
<mgrwt>
<rscale>  2 0.40970597E+03</rscale>
<asrwt>0</asrwt>
<pdfrwt beam="1">  1       21 0.93766005E-01 0.40970597E+03</pdfrwt>
<pdfrwt beam="2">  1       21 0.42770724E-01 0.40970597E+03</pdfrwt>
<totfact> 0.44649430E+03</totfact>
</mgrwt>
</event>
<event>
 4    1  0.4774032E-002  0.4404889E+03  0.7818608E-02  0.1030597E+00
         21   -1    0    0  503  502  0.00000000000E+00  0.00000000000E+00  0.51839901621E+03  0.51839901621E+03  0.00000000000E+00 0.  1.
         21   -1    0    0  501  503 -0.00000000000E+00 -0.00000000000E+00 -0.42714346465E+03  0.42714346465E+03  0.00000000000E+00 0.  1.
    9000005    1    1    2  501    0 -0.17339982437E+03  0.62952008374E+02  0.21193446611E+03  0.48882171840E+03  0.40000000000E+03 0.  1.
   -9000005    1    1    2    0  502  0.17339982437E+03 -0.62952008374E+02 -0.12067891455E+03  0.45672076247E+03  0.40000000000E+03 0.  1.
<mgrwt>
<rscale>  2 0.44048888E+03</rscale>
<asrwt>0</asrwt>
<pdfrwt beam="1">  1       21 0.79753695E-01 0.44048888E+03</pdfrwt>
<pdfrwt beam="2">  1       21 0.65714379E-01 0.44048888E+03</pdfrwt>
<totfact> 0.25670789E+03</totfact>
</mgrwt>
</event>
<event>
 4    1  0.4774032E-002  0.4186622E+03  0.7818608E-02  0.1037503E+00
         21   -1    0    0  501  502  0.00000000000E+00  0.00000000000E+00  0.93866954041E+02  0.93866954041E+02  0.00000000000E+00 0.  1.
         21   -1    0    0  502  503 -0.00000000000E+00 -0.00000000000E+00 -0.18999271544E+04  0.18999271544E+04  0.00000000000E+00 0.  1.
    9000005    1    1    2  501    0  0.57779019153E+02  0.10926866265E+03 -0.77239776115E+03  0.87856494189E+03  0.40000000000E+03 0. -1.
   -9000005    1    1    2    0  503 -0.57779019153E+02 -0.10926866265E+03 -0.10336624392E+04  0.11152291666E+04  0.40000000000E+03 0. -1.
<mgrwt>
<rscale>  2 0.41866222E+03</rscale>
<asrwt>0</asrwt>
<pdfrwt beam="1">  1       21 0.14441071E-01 0.41866222E+03</pdfrwt>
<pdfrwt beam="2">  1       21 0.29229647E+00 0.41866222E+03</pdfrwt>
<totfact> 0.13145265E+03</totfact>
</mgrwt>
</event>
<event>
 4    1  0.4774032E-002  0.4475122E+03  0.7818608E-02  0.1028467E+00
         21   -1    0    0  501  502  0.00000000000E+00  0.00000000000E+00  0.18183120826E+04  0.18183120826E+04  0.00000000000E+00 0.  1.
         21   -1    0    0  502  503 -0.00000000000E+00 -0.00000000000E+00 -0.11092091472E+03  0.11092091472E+03  0.00000000000E+00 0.  1.
    9000005    1    1    2  501    0 -0.13207484017E+03 -0.15107421195E+03  0.77270931370E+03  0.89294281139E+03  0.40000000000E+03 0.  1.
   -9000005    1    1    2    0  503  0.13207484017E+03  0.15107421195E+03  0.93468185414E+03  0.10362901859E+04  0.40000000000E+03 0.  1.
<mgrwt>
<rscale>  2 0.44751221E+03</rscale>
<asrwt>0</asrwt>
<pdfrwt beam="1">  1       21 0.27974030E+00 0.44751221E+03</pdfrwt>
<pdfrwt beam="2">  1       21 0.17064757E-01 0.44751221E+03</pdfrwt>
<totfact> 0.11288048E+03</totfact>
</mgrwt>
</event>
<event>
 4    1  0.4774032E-002  0.6299354E+03  0.7818608E-02  0.9845175E-01
         21   -1    0    0  503  502  0.00000000000E+00  0.00000000000E+00  0.11151733464E+04  0.11151733464E+04  0.00000000000E+00 0. -1.
         21   -1    0    0  501  503 -0.00000000000E+00 -0.00000000000E+00 -0.93319028058E+03  0.93319028058E+03  0.00000000000E+00 0. -1.
    9000005    1    1    2  501    0  0.42226478584E+03  0.24189057154E+03 -0.71459691016E+03  0.95261080299E+03  0.40000000000E+03 0. -1.
   -9000005    1    1    2    0  502 -0.42226478584E+03 -0.24189057154E+03  0.89657997603E+03  0.10957528240E+04  0.40000000000E+03 0. -1.
<mgrwt>
<rscale>  2 0.62993539E+03</rscale>
<asrwt>0</asrwt>
<pdfrwt beam="1">  1       21 0.17156513E+00 0.62993539E+03</pdfrwt>
<pdfrwt beam="2">  1       21 0.14356773E+00 0.62993539E+03</pdfrwt>
<totfact> 0.50176230E+01</totfact>
</mgrwt>
</event>
<event>
 4    1  0.4774032E-002  0.5100515E+03  0.7818608E-02  0.1011188E+00
         21   -1    0    0  503  502  0.00000000000E+00  0.00000000000E+00  0.17054236478E+03  0.17054236478E+03  0.00000000000E+00 0. -1.
         21   -1    0    0  501  503 -0.00000000000E+00 -0.00000000000E+00 -0.15443646220E+04  0.15443646220E+04  0.00000000000E+00 0.  1.
    9000005    1    1    2  501    0  0.25513186989E+03  0.18724393219E+03 -0.59199910087E+03  0.78141889957E+03  0.40000000000E+03 0. -1.
   -9000005    1    1    2    0  502 -0.25513186989E+03 -0.18724393219E+03 -0.78182315640E+03  0.93348808726E+03  0.40000000000E+03 0.  1.
<mgrwt>
<rscale>  2 0.51005153E+03</rscale>
<asrwt>0</asrwt>
<pdfrwt beam="1">  1       21 0.26237286E-01 0.51005153E+03</pdfrwt>
<pdfrwt beam="2">  1       21 0.23759457E+00 0.51005153E+03</pdfrwt>
<totfact> 0.87047023E+02</totfact>
</mgrwt>
</event>
<event>
 4    1  0.4774032E-002  0.6075265E+03  0.7818608E-02  0.9889913E-01
         21   -1    0    0  503  502  0.00000000000E+00  0.00000000000E+00  0.22846392188E+04  0.22846392188E+04  0.00000000000E+00 0.  1.
         21   -1    0    0  501  503 -0.00000000000E+00 -0.00000000000E+00 -0.44560878922E+03  0.44560878922E+03  0.00000000000E+00 0. -1.
    9000005    1    1    2  501    0  0.43164173981E+03 -0.15090994006E+03 -0.17041249336E+03  0.63097449984E+03  0.40000000000E+03 0. -1.
   -9000005    1    1    2    0  502 -0.43164173981E+03  0.15090994006E+03  0.20094429229E+04  0.20992735082E+04  0.40000000000E+03 0.  1.
<mgrwt>
<rscale>  2 0.60752646E+03</rscale>
<asrwt>0</asrwt>
<pdfrwt beam="1">  1       21 0.35148295E+00 0.60752646E+03</pdfrwt>
<pdfrwt beam="2">  1       21 0.68555200E-01 0.60752646E+03</pdfrwt>
<totfact> 0.22273675E+01</totfact>
</mgrwt>
</event>
<event>
 4    1  0.4774032E-002  0.5086303E+03  0.7818608E-02  0.1011551E+00
         21   -1    0    0  503  502  0.00000000000E+00  0.00000000000E+00  0.46699959832E+03  0.46699959832E+03  0.00000000000E+00 0. -1.
         21   -1    0    0  501  503 -0.00000000000E+00 -0.00000000000E+00 -0.67332450513E+03  0.67332450513E+03  0.00000000000E+00 0.  1.
    9000005    1    1    2  501    0  0.74209008482E+02  0.30528315634E+03 -0.34321236604E+03  0.61359555954E+03  0.40000000000E+03 0. -1.
   -9000005    1    1    2    0  502 -0.74209008482E+02 -0.30528315634E+03  0.13688745923E+03  0.52672854392E+03  0.40000000000E+03 0.  1.
<mgrwt>
<rscale>  2 0.50863030E+03</rscale>
<asrwt>0</asrwt>
<pdfrwt beam="1">  1       21 0.71846092E-01 0.50863030E+03</pdfrwt>
<pdfrwt beam="2">  1       21 0.10358839E+00 0.50863030E+03</pdfrwt>
<totfact> 0.10999753E+03</totfact>
</mgrwt>
</event>
<event>
 4    1  0.4774032E-002  0.6774390E+03  0.7818608E-02  0.9756612E-01
         21   -1    0    0  501  502  0.00000000000E+00  0.00000000000E+00  0.69211171152E+03  0.69211171152E+03  0.00000000000E+00 0.  1.
         21   -1    0    0  502  503 -0.00000000000E+00 -0.00000000000E+00 -0.86549737554E+03  0.86549737554E+03  0.00000000000E+00 0. -1.
    9000005    1    1    2  501    0 -0.13954961764E+03  0.52862978018E+03  0.28994368799E+03  0.73687915053E+03  0.40000000000E+03 0.  1.
   -9000005    1    1    2    0  503  0.13954961764E+03 -0.52862978018E+03 -0.46332935201E+03  0.82072993653E+03  0.40000000000E+03 0. -1.
<mgrwt>
<rscale>  2 0.67743896E+03</rscale>
<asrwt>0</asrwt>
<pdfrwt beam="1">  1       21 0.10647873E+00 0.67743896E+03</pdfrwt>
<pdfrwt beam="2">  1       21 0.13315344E+00 0.67743896E+03</pdfrwt>
<totfact> 0.21546435E+02</totfact>
</mgrwt>
</event>
<event>
 4    1  0.4774032E-002  0.5003046E+03  0.7818608E-02  0.1013699E+00
         21   -1    0    0  503  502  0.00000000000E+00  0.00000000000E+00  0.19865142978E+03  0.19865142978E+03  0.00000000000E+00 0.  1.
         21   -1    0    0  501  503 -0.00000000000E+00 -0.00000000000E+00 -0.12621348242E+04  0.12621348242E+04  0.00000000000E+00 0. -1.
    9000005    1    1    2  501    0 -0.23751488619E+03  0.18409603482E+03 -0.56164329206E+03  0.75216212263E+03  0.40000000000E+03 0. -1.
   -9000005    1    1    2    0  502  0.23751488619E+03 -0.18409603482E+03 -0.50184010239E+03  0.70862413137E+03  0.40000000000E+03 0.  1.
<mgrwt>
<rscale>  2 0.50030458E+03</rscale>
<asrwt>0</asrwt>
<pdfrwt beam="1">  1       21 0.30561758E-01 0.50030458E+03</pdfrwt>
<pdfrwt beam="2">  1       21 0.19417459E+00 0.50030458E+03</pdfrwt>
<totfact> 0.12370796E+03</totfact>
</mgrwt>
</event>
<event>
 4    1  0.4774032E-002  0.4838877E+03  0.7818608E-02  0.1018072E+00
         21   -1    0    0  501  502  0.00000000000E+00  0.00000000000E+00  0.37552358853E+03  0.37552358853E+03  0.00000000000E+00 0. -1.
         21   -1    0    0  502  503 -0.00000000000E+00 -0.00000000000E+00 -0.62704765711E+03  0.62704765711E+03  0.00000000000E+00 0. -1.
    9000005    1    1    2  501    0  0.84537993432E+02 -0.25884488932E+03 -0.88175379745E+02  0.49185592063E+03  0.40000000000E+03 0. -1.
   -9000005    1    1    2    0  503 -0.84537993432E+02  0.25884488932E+03 -0.16334868884E+03  0.51071532502E+03  0.40000000000E+03 0. -1.
<mgrwt>
<rscale>  2 0.48388774E+03</rscale>
<asrwt>0</asrwt>
<pdfrwt beam="1">  1       21 0.57772860E-01 0.48388774E+03</pdfrwt>
<pdfrwt beam="2">  1       21 0.96468870E-01 0.48388774E+03</pdfrwt>
<totfact> 0.21433935E+03</totfact>
</mgrwt>
</event>
<event>
 4    1  0.4774032E-002  0.5045582E+03  0.7818608E-02  0.1012596E+00
         21   -1    0    0  503  502  0.00000000000E+00  0.00000000000E+00  0.13460121327E+04  0.13460121327E+04  0.00000000000E+00 0.  1.
         21   -1    0    0  501  503 -0.00000000000E+00 -0.00000000000E+00 -0.19393552203E+03  0.19393552203E+03  0.00000000000E+00 0. -1.
    9000005    1    1    2  501    0 -0.30355829955E+03  0.49308391892E+02  0.69717046265E+03  0.86059607990E+03  0.40000000000E+03 0.  1.
   -9000005    1    1    2    0  502  0.30355829955E+03 -0.49308391892E+02  0.45490614804E+03  0.67935157486E+03  0.40000000000E+03 0. -1.
<mgrwt>
<rscale>  2 0.50455818E+03</rscale>
<asrwt>0</asrwt>
<pdfrwt beam="1">  1       21 0.20707878E+00 0.50455818E+03</pdfrwt>
<pdfrwt beam="2">  1       21 0.29836235E-01 0.50455818E+03</pdfrwt>
<totfact> 0.10619431E+03</totfact>
</mgrwt>
</event>
<event>
 4    1  0.4774032E-002  0.4032041E+03  0.7818608E-02  0.1042676E+00
         21   -1    0    0  501  502  0.00000000000E+00  0.00000000000E+00  0.19029482542E+03  0.19029482542E+03  0.00000000000E+00 0. -1.
         21   -1    0    0  502  503 -0.00000000000E+00 -0.00000000000E+00 -0.85661261555E+03  0.85661261555E+03  0.00000000000E+00 0. -1.
    9000005    1    1    2  501    0  0.48943754256E+02  0.13344494549E+02 -0.36021140473E+03  0.54067164038E+03  0.40000000000E+03 0. -1.
   -9000005    1    1    2    0  503 -0.48943754256E+02 -0.13344494549E+02 -0.30610638539E+03  0.50623580059E+03  0.40000000000E+03 0. -1.
<mgrwt>
<rscale>  2 0.40320413E+03</rscale>
<asrwt>0</asrwt>
<pdfrwt beam="1">  1       21 0.29276127E-01 0.40320413E+03</pdfrwt>
<pdfrwt beam="2">  1       21 0.13178656E+00 0.40320413E+03</pdfrwt>
<totfact> 0.41357302E+03</totfact>
</mgrwt>
</event>
<event>
 4    1  0.4774032E-002  0.4998620E+03  0.7818608E-02  0.1013815E+00
         21   -1    0    0  501  502  0.00000000000E+00  0.00000000000E+00  0.11520381092E+04  0.11520381092E+04  0.00000000000E+00 0.  1.
         21   -1    0    0  502  503 -0.00000000000E+00 -0.00000000000E+00 -0.27646301925E+03  0.27646301925E+03  0.00000000000E+00 0. -1.
    9000005    1    1    2  501    0  0.22138891521E+03  0.20211124956E+03  0.76935207435E+03  0.91747731486E+03  0.40000000000E+03 0.  1.
   -9000005    1    1    2    0  503 -0.22138891521E+03 -0.20211124956E+03  0.10622301555E+03  0.51102381354E+03  0.40000000000E+03 0. -1.
<mgrwt>
<rscale>  2 0.49986199E+03</rscale>
<asrwt>0</asrwt>
<pdfrwt beam="1">  1       21 0.17723663E+00 0.49986199E+03</pdfrwt>
<pdfrwt beam="2">  1       21 0.42532773E-01 0.49986199E+03</pdfrwt>
<totfact> 0.82782813E+02</totfact>
</mgrwt>
</event>
<event>
 4    1  0.4774032E-002  0.4450512E+03  0.7818608E-02  0.1029208E+00
         21   -1    0    0  501  502  0.00000000000E+00  0.00000000000E+00  0.42423323095E+03  0.42423323095E+03  0.00000000000E+00 0.  1.
         21   -1    0    0  502  503 -0.00000000000E+00 -0.00000000000E+00 -0.77946110791E+03  0.77946110791E+03  0.00000000000E+00 0.  1.
    9000005    1    1    2  501    0  0.19505194239E+03 -0.50276497888E+01  0.20350712144E+03  0.48937274747E+03  0.40000000000E+03 0.  1.
   -9000005    1    1    2    0  503 -0.19505194239E+03  0.50276497888E+01 -0.55873499840E+03  0.71432159139E+03  0.40000000000E+03 0.  1.
<mgrwt>
<rscale>  2 0.44505116E+03</rscale>
<asrwt>0</asrwt>
<pdfrwt beam="1">  1       21 0.65266651E-01 0.44505116E+03</pdfrwt>
<pdfrwt beam="2">  1       21 0.11991709E+00 0.44505116E+03</pdfrwt>
<totfact> 0.97124911E+02</totfact>
</mgrwt>
</event>
<event>
 4    1  0.4774032E-002  0.4279156E+03  0.7818608E-02  0.1034520E+00
         21   -1    0    0  503  502  0.00000000000E+00  0.00000000000E+00  0.40584052343E+03  0.40584052343E+03  0.00000000000E+00 0.  1.
         21   -1    0    0  501  503 -0.00000000000E+00 -0.00000000000E+00 -0.65731557719E+03  0.65731557719E+03  0.00000000000E+00 0.  1.
    9000005    1    1    2  501    0  0.73280565730E+02 -0.13319792348E+03 -0.42341406905E+03  0.60198937034E+03  0.40000000000E+03 0.  1.
   -9000005    1    1    2    0  502 -0.73280565730E+02  0.13319792348E+03  0.17193901530E+03  0.46116673028E+03  0.40000000000E+03 0.  1.
<mgrwt>
<rscale>  2 0.42791556E+03</rscale>
<asrwt>0</asrwt>
<pdfrwt beam="1">  1       21 0.62437004E-01 0.42791556E+03</pdfrwt>
<pdfrwt beam="2">  1       21 0.10112547E+00 0.42791556E+03</pdfrwt>
<totfact> 0.16471575E+03</totfact>
</mgrwt>
</event>
<event>
 4    1  0.4774032E-002  0.4171832E+03  0.7818608E-02  0.1037987E+00
         21   -1    0    0  503  502  0.00000000000E+00  0.00000000000E+00  0.22866826807E+03  0.22866826807E+03  0.00000000000E+00 0. -1.
         21   -1    0    0  501  503 -0.00000000000E+00 -0.00000000000E+00 -0.27755857892E+04  0.27755857892E+04  0.00000000000E+00 0. -1.
    9000005    1    1    2  501    0 -0.11725899061E+03 -0.17093331211E+02 -0.25531650068E+04  0.25870240441E+04  0.40000000000E+03 0. -1.
   -9000005    1    1    2    0  502  0.11725899061E+03  0.17093331211E+02  0.62474856144E+01  0.41723001322E+03  0.40000000000E+03 0. -1.
<mgrwt>
<rscale>  2 0.41718324E+03</rscale>
<asrwt>0</asrwt>
<pdfrwt beam="1">  1       21 0.35179735E-01 0.41718324E+03</pdfrwt>
<pdfrwt beam="2">  1       21 0.42701319E+00 0.41718324E+03</pdfrwt>
<totfact> 0.34536406E+01</totfact>
</mgrwt>
</event>
<event>
 4    1  0.4774032E-002  0.7626361E+03  0.7818608E-02  0.9615732E-01
         21   -1    0    0  503  502  0.00000000000E+00  0.00000000000E+00  0.52254857737E+03  0.52254857737E+03  0.00000000000E+00 0. -1.
         21   -1    0    0  501  503 -0.00000000000E+00 -0.00000000000E+00 -0.11152187821E+04  0.11152187821E+04  0.00000000000E+00 0. -1.
    9000005    1    1    2  501    0 -0.64811512702E+03  0.39504442394E+02 -0.26008209278E+03  0.80576455235E+03  0.40000000000E+03 0. -1.
   -9000005    1    1    2    0  502  0.64811512702E+03 -0.39504442394E+02 -0.33258811194E+03  0.83200280712E+03  0.40000000000E+03 0. -1.
<mgrwt>
<rscale>  2 0.76263610E+03</rscale>
<asrwt>0</asrwt>
<pdfrwt beam="1">  1       21 0.80392089E-01 0.76263610E+03</pdfrwt>
<pdfrwt beam="2">  1       21 0.17157212E+00 0.76263610E+03</pdfrwt>
<totfact> 0.20489417E+02</totfact>
</mgrwt>
</event>
<event>
 4    1  0.4774032E-002  0.5105476E+03  0.7818608E-02  0.1011062E+00
         21   -1    0    0  501  502  0.00000000000E+00  0.00000000000E+00  0.80909164395E+03  0.80909164395E+03  0.00000000000E+00 0. -1.
         21   -1    0    0  502  503 -0.00000000000E+00 -0.00000000000E+00 -0.42539898908E+03  0.42539898908E+03  0.00000000000E+00 0. -1.
    9000005    1    1    2  501    0 -0.16709580266E+03  0.26969958483E+03  0.49591836522E+03  0.71175409959E+03  0.40000000000E+03 0. -1.
   -9000005    1    1    2    0  503  0.16709580266E+03 -0.26969958483E+03 -0.11222571034E+03  0.52273653343E+03  0.40000000000E+03 0. -1.
<mgrwt>
<rscale>  2 0.51054762E+03</rscale>
<asrwt>0</asrwt>
<pdfrwt beam="1">  1       21 0.12447564E+00 0.51054762E+03</pdfrwt>
<pdfrwt beam="2">  1       21 0.65445998E-01 0.51054762E+03</pdfrwt>
<totfact> 0.85473961E+02</totfact>
</mgrwt>
</event>
<event>
 4    1  0.4774032E-002  0.4088851E+03  0.7818608E-02  0.1040746E+00
         21   -1    0    0  501  502  0.00000000000E+00  0.00000000000E+00  0.32557247518E+03  0.32557247518E+03  0.00000000000E+00 0. -1.
         21   -1    0    0  502  503 -0.00000000000E+00 -0.00000000000E+00 -0.55130220688E+03  0.55130220688E+03  0.00000000000E+00 0. -1.
    9000005    1    1    2  501    0 -0.79385969928E+02  0.29746989348E+02  0.19170077786E+01  0.40888958230E+03  0.40000000000E+03 0. -1.
   -9000005    1    1    2    0  503  0.79385969928E+02 -0.29746989348E+02 -0.22764673947E+03  0.46798509975E+03  0.40000000000E+03 0. -1.
<mgrwt>
<rscale>  2 0.40888509E+03</rscale>
<asrwt>0</asrwt>
<pdfrwt beam="1">  1       21 0.50088073E-01 0.40888509E+03</pdfrwt>
<pdfrwt beam="2">  1       21 0.84815724E-01 0.40888509E+03</pdfrwt>
<totfact> 0.40618909E+03</totfact>
</mgrwt>
</event>
<event>
 4    1  0.4774032E-002  0.4257051E+03  0.7818608E-02  0.1035225E+00
         21   -1    0    0  501  502  0.00000000000E+00  0.00000000000E+00  0.47121448286E+03  0.47121448286E+03  0.00000000000E+00 0.  1.
         21   -1    0    0  502  503 -0.00000000000E+00 -0.00000000000E+00 -0.54793882134E+03  0.54793882134E+03  0.00000000000E+00 0. -1.
    9000005    1    1    2  501    0  0.35759300691E+02 -0.14123075419E+03 -0.31658972890E+03  0.53052229921E+03  0.40000000000E+03 0. -1.
   -9000005    1    1    2    0  503 -0.35759300691E+02  0.14123075419E+03  0.23986539042E+03  0.48863100499E+03  0.40000000000E+03 0.  1.
<mgrwt>
<rscale>  2 0.42570513E+03</rscale>
<asrwt>0</asrwt>
<pdfrwt beam="1">  1       21 0.72494536E-01 0.42570513E+03</pdfrwt>
<pdfrwt beam="2">  1       21 0.84298280E-01 0.42570513E+03</pdfrwt>
<totfact> 0.18212417E+03</totfact>
</mgrwt>
</event>
<event>
 4    1  0.4774032E-002  0.4228715E+03  0.7818608E-02  0.1036136E+00
         21   -1    0    0  503  502  0.00000000000E+00  0.00000000000E+00  0.21677161935E+03  0.21677161935E+03  0.00000000000E+00 0. -1.
         21   -1    0    0  501  503 -0.00000000000E+00 -0.00000000000E+00 -0.90976436153E+03  0.90976436153E+03  0.00000000000E+00 0. -1.
    9000005    1    1    2  501    0  0.74368140350E+02 -0.11528102454E+03 -0.17448814110E+03  0.45745649662E+03  0.40000000000E+03 0. -1.
   -9000005    1    1    2    0  502 -0.74368140350E+02  0.11528102454E+03 -0.51850460107E+03  0.66907948426E+03  0.40000000000E+03 0. -1.
<mgrwt>
<rscale>  2 0.42287153E+03</rscale>
<asrwt>0</asrwt>
<pdfrwt beam="1">  1       21 0.33349480E-01 0.42287153E+03</pdfrwt>
<pdfrwt beam="2">  1       21 0.13996375E+00 0.42287153E+03</pdfrwt>
<totfact> 0.27029596E+03</totfact>
</mgrwt>
</event>
<event>
 4    1  0.4774032E-002  0.5271305E+03  0.7818608E-02  0.1006930E+00
         21   -1    0    0  501  502  0.00000000000E+00  0.00000000000E+00  0.34642197254E+03  0.34642197254E+03  0.00000000000E+00 0. -1.
         21   -1    0    0  502  503 -0.00000000000E+00 -0.00000000000E+00 -0.84203785130E+03  0.84203785130E+03  0.00000000000E+00 0.  1.
    9000005    1    1    2  501    0  0.78657015821E+01  0.34322687390E+03 -0.11840098065E+03  0.54026414692E+03  0.40000000000E+03 0.  1.
   -9000005    1    1    2    0  503 -0.78657015821E+01 -0.34322687390E+03 -0.37721489811E+03  0.64819567692E+03  0.40000000000E+03 0. -1.
<mgrwt>
<rscale>  2 0.52713049E+03</rscale>
<asrwt>0</asrwt>
<pdfrwt beam="1">  1       21 0.53295688E-01 0.52713049E+03</pdfrwt>
<pdfrwt beam="2">  1       21 0.12954428E+00 0.52713049E+03</pdfrwt>
<totfact> 0.12020155E+03</totfact>
</mgrwt>
</event>
<event>
 4    1  0.4774032E-002  0.5813500E+03  0.7818608E-02  0.9944873E-01
         21   -1    0    0  503  502  0.00000000000E+00  0.00000000000E+00  0.86712047969E+03  0.86712047969E+03  0.00000000000E+00 0. -1.
         21   -1    0    0  501  503 -0.00000000000E+00 -0.00000000000E+00 -0.39729617674E+03  0.39729617674E+03  0.00000000000E+00 0.  1.
    9000005    1    1    2  501    0  0.38003502199E+03 -0.18314243073E+03  0.14783274734E+03  0.59985188927E+03  0.40000000000E+03 0.  1.
   -9000005    1    1    2    0  502 -0.38003502199E+03  0.18314243073E+03  0.32199155562E+03  0.66456476717E+03  0.40000000000E+03 0.  1.
<mgrwt>
<rscale>  2 0.58134995E+03</rscale>
<asrwt>0</asrwt>
<pdfrwt beam="1">  1       21 0.13340315E+00 0.58134995E+03</pdfrwt>
<pdfrwt beam="2">  1       21 0.61122489E-01 0.58134995E+03</pdfrwt>
<totfact> 0.81039235E+02</totfact>
</mgrwt>
</event>
<event>
 4    1  0.4774032E-002  0.4042400E+03  0.7818608E-02  0.1042321E+00
         21   -1    0    0  501  502  0.00000000000E+00  0.00000000000E+00  0.30359033562E+03  0.30359033562E+03  0.00000000000E+00 0. -1.
         21   -1    0    0  502  503 -0.00000000000E+00 -0.00000000000E+00 -0.65062213120E+03  0.65062213120E+03  0.00000000000E+00 0. -1.
    9000005    1    1    2  501    0  0.51015400892E+02  0.28414482768E+02 -0.37178925096E+03  0.54921507726E+03  0.40000000000E+03 0. -1.
   -9000005    1    1    2    0  503 -0.51015400892E+02 -0.28414482768E+02  0.24757455368E+02  0.40499738957E+03  0.40000000000E+03 0. -1.
<mgrwt>
<rscale>  2 0.40423997E+03</rscale>
<asrwt>0</asrwt>
<pdfrwt beam="1">  1       21 0.46706206E-01 0.40423997E+03</pdfrwt>
<pdfrwt beam="2">  1       21 0.10009571E+00 0.40423997E+03</pdfrwt>
<totfact> 0.31825917E+03</totfact>
</mgrwt>
</event>
<event>
 4    1  0.4774032E-002  0.7329049E+03  0.7818608E-02  0.9662558E-01
         21   -1    0    0  501  502  0.00000000000E+00  0.00000000000E+00  0.11363563919E+04  0.11363563919E+04  0.00000000000E+00 0.  1.
         21   -1    0    0  502  503 -0.00000000000E+00 -0.00000000000E+00 -0.11241990819E+04  0.11241990819E+04  0.00000000000E+00 0. -1.
    9000005    1    1    2  501    0  0.30577541647E+03  0.53258900387E+03  0.86652189755E+03  0.11349052169E+04  0.40000000000E+03 0.  1.
   -9000005    1    1    2    0  503 -0.30577541647E+03 -0.53258900387E+03 -0.85436458755E+03  0.11256502569E+04  0.40000000000E+03 0. -1.
<mgrwt>
<rscale>  2 0.73290494E+03</rscale>
<asrwt>0</asrwt>
<pdfrwt beam="1">  1       21 0.17482406E+00 0.73290494E+03</pdfrwt>
<pdfrwt beam="2">  1       21 0.17295370E+00 0.73290494E+03</pdfrwt>
<totfact> 0.27019717E+01</totfact>
</mgrwt>
</event>
<event>
 4    1  0.4774032E-002  0.5246345E+03  0.7818608E-02  0.1007542E+00
         21   -1    0    0  501  502  0.00000000000E+00  0.00000000000E+00  0.12402646897E+04  0.12402646897E+04  0.00000000000E+00 0. -1.
         21   -1    0    0  502  503 -0.00000000000E+00 -0.00000000000E+00 -0.23069952561E+03  0.23069952561E+03  0.00000000000E+00 0.  1.
    9000005    1    1    2  501    0 -0.83512231957E+01  0.33936950026E+03  0.64824798309E+03  0.83394654998E+03  0.40000000000E+03 0. -1.
   -9000005    1    1    2    0  503  0.83512231957E+01 -0.33936950026E+03  0.36131718095E+03  0.63701766529E+03  0.40000000000E+03 0.  1.
<mgrwt>
<rscale>  2 0.52463454E+03</rscale>
<asrwt>0</asrwt>
<pdfrwt beam="1">  1       21 0.19080995E+00 0.52463454E+03</pdfrwt>
<pdfrwt beam="2">  1       21 0.35492235E-01 0.52463454E+03</pdfrwt>
<totfact> 0.95602096E+02</totfact>
</mgrwt>
</event>
<event>
 4    1  0.4774032E-002  0.7518139E+03  0.7818608E-02  0.9632509E-01
         21   -1    0    0  503  502  0.00000000000E+00  0.00000000000E+00  0.67547001549E+03  0.67547001549E+03  0.00000000000E+00 0.  1.
         21   -1    0    0  501  503 -0.00000000000E+00 -0.00000000000E+00 -0.87985229887E+03  0.87985229887E+03  0.00000000000E+00 0. -1.
    9000005    1    1    2  501    0 -0.39986929346E+03  0.49530667810E+03  0.69857805781E+02  0.75505249503E+03  0.40000000000E+03 0.  1.
   -9000005    1    1    2    0  502  0.39986929346E+03 -0.49530667810E+03 -0.27424008916E+03  0.80026981933E+03  0.40000000000E+03 0. -1.
<mgrwt>
<rscale>  2 0.75181391E+03</rscale>
<asrwt>0</asrwt>
<pdfrwt beam="1">  1       21 0.10391846E+00 0.75181391E+03</pdfrwt>
<pdfrwt beam="2">  1       21 0.13536189E+00 0.75181391E+03</pdfrwt>
<totfact> 0.21426681E+02</totfact>
</mgrwt>
</event>
<event>
 4    1  0.4774032E-002  0.4836450E+03  0.7818608E-02  0.1018138E+00
         21   -1    0    0  503  502  0.00000000000E+00  0.00000000000E+00  0.73334848745E+03  0.73334848745E+03  0.00000000000E+00 0. -1.
         21   -1    0    0  501  503 -0.00000000000E+00 -0.00000000000E+00 -0.32123781698E+03  0.32123781698E+03  0.00000000000E+00 0.  1.
    9000005    1    1    2  501    0 -0.25359293007E+03 -0.97995250614E+02  0.16170177827E+03  0.50996069301E+03  0.40000000000E+03 0.  1.
   -9000005    1    1    2    0  502  0.25359293007E+03  0.97995250614E+02  0.25040889220E+03  0.54462561142E+03  0.40000000000E+03 0.  1.
<mgrwt>
<rscale>  2 0.48364496E+03</rscale>
<asrwt>0</asrwt>
<pdfrwt beam="1">  1       21 0.11282284E+00 0.48364496E+03</pdfrwt>
<pdfrwt beam="2">  1       21 0.49421203E-01 0.48364496E+03</pdfrwt>
<totfact> 0.20412011E+03</totfact>
</mgrwt>
</event>
<event>
 4    1  0.4774032E-002  0.4410772E+03  0.7818608E-02  0.1030417E+00
         21   -1    0    0  503  502  0.00000000000E+00  0.00000000000E+00  0.24462610151E+03  0.24462610151E+03  0.00000000000E+00 0.  1.
         21   -1    0    0  501  503 -0.00000000000E+00 -0.00000000000E+00 -0.19025499093E+04  0.19025499093E+04  0.00000000000E+00 0.  1.
    9000005    1    1    2  501    0 -0.14856129252E+03  0.11170779084E+03 -0.16479811210E+04  0.17059867711E+04  0.40000000000E+03 0.  1.
   -9000005    1    1    2    0  502  0.14856129252E+03 -0.11170779084E+03 -0.99426867916E+01  0.44118923966E+03  0.40000000000E+03 0.  1.
<mgrwt>
<rscale>  2 0.44107719E+03</rscale>
<asrwt>0</asrwt>
<pdfrwt beam="1">  1       21 0.37634785E-01 0.44107719E+03</pdfrwt>
<pdfrwt beam="2">  1       21 0.29269999E+00 0.44107719E+03</pdfrwt>
<totfact> 0.20218289E+02</totfact>
</mgrwt>
</event>
<event>
 4    1  0.4774032E-002  0.5200281E+03  0.7818608E-02  0.1008680E+00
         21   -1    0    0  501  502  0.00000000000E+00  0.00000000000E+00  0.23415784398E+03  0.23415784398E+03  0.00000000000E+00 0.  1.
         21   -1    0    0  502  503 -0.00000000000E+00 -0.00000000000E+00 -0.11586412496E+04  0.11586412496E+04  0.00000000000E+00 0.  1.
    9000005    1    1    2  501    0 -0.33121936269E+03 -0.26887519191E+02 -0.42267633093E+03  0.67013766171E+03  0.40000000000E+03 0.  1.
   -9000005    1    1    2    0  503  0.33121936269E+03  0.26887519191E+02 -0.50180707465E+03  0.72266143185E+03  0.40000000000E+03 0.  1.
<mgrwt>
<rscale>  2 0.52002808E+03</rscale>
<asrwt>0</asrwt>
<pdfrwt beam="1">  1       21 0.36024284E-01 0.52002808E+03</pdfrwt>
<pdfrwt beam="2">  1       21 0.17825250E+00 0.52002808E+03</pdfrwt>
<totfact> 0.11372779E+03</totfact>
</mgrwt>
</event>
<event>
 4    1  0.4774032E-002  0.6704111E+03  0.7818608E-02  0.9769215E-01
         21   -1    0    0  501  502  0.00000000000E+00  0.00000000000E+00  0.13372102407E+04  0.13372102407E+04  0.00000000000E+00 0.  1.
         21   -1    0    0  502  503 -0.00000000000E+00 -0.00000000000E+00 -0.35638269420E+03  0.35638269420E+03  0.00000000000E+00 0. -1.
    9000005    1    1    2  501    0 -0.37536739272E+03  0.38542228910E+03  0.69237414623E+03  0.96375981387E+03  0.40000000000E+03 0. -1.
   -9000005    1    1    2    0  503  0.37536739272E+03 -0.38542228910E+03  0.28845340030E+03  0.72983312106E+03  0.40000000000E+03 0.  1.
<mgrwt>
<rscale>  2 0.67041108E+03</rscale>
<asrwt>0</asrwt>
<pdfrwt beam="1">  1       21 0.20572465E+00 0.67041108E+03</pdfrwt>
<pdfrwt beam="2">  1       21 0.54828107E-01 0.67041108E+03</pdfrwt>
<totfact> 0.28812847E+02</totfact>
</mgrwt>
</event>
<event>
 4    1  0.4774032E-002  0.5694288E+03  0.7818608E-02  0.9970943E-01
         21   -1    0    0  503  502  0.00000000000E+00  0.00000000000E+00  0.87075015811E+03  0.87075015811E+03  0.00000000000E+00 0. -1.
         21   -1    0    0  501  503 -0.00000000000E+00 -0.00000000000E+00 -0.39808971359E+03  0.39808971359E+03  0.00000000000E+00 0. -1.
    9000005    1    1    2  501    0 -0.28619380107E+03  0.28695346203E+03  0.39755892562E+03  0.69447986327E+03  0.40000000000E+03 0. -1.
   -9000005    1    1    2    0  502  0.28619380107E+03 -0.28695346203E+03  0.75101518895E+02  0.57436000843E+03  0.40000000000E+03 0. -1.
<mgrwt>
<rscale>  2 0.56942882E+03</rscale>
<asrwt>0</asrwt>
<pdfrwt beam="1">  1       21 0.13396156E+00 0.56942882E+03</pdfrwt>
<pdfrwt beam="2">  1       21 0.61244572E-01 0.56942882E+03</pdfrwt>
<totfact> 0.80119404E+02</totfact>
</mgrwt>
</event>
<event>
 4    1  0.4774032E-002  0.4087111E+03  0.7818608E-02  0.1040804E+00
         21   -1    0    0  501  502  0.00000000000E+00  0.00000000000E+00  0.96652690057E+03  0.96652690057E+03  0.00000000000E+00 0.  1.
         21   -1    0    0  502  503 -0.00000000000E+00 -0.00000000000E+00 -0.24681420329E+03  0.24681420329E+03  0.00000000000E+00 0.  1.
    9000005    1    1    2  501    0  0.62961908541E+02 -0.55503149605E+02  0.69200880676E+03  0.80369209911E+03  0.40000000000E+03 0.  1.
   -9000005    1    1    2    0  503 -0.62961908541E+02  0.55503149605E+02  0.27703890526E+02  0.40964900475E+03  0.40000000000E+03 0.  1.
<mgrwt>
<rscale>  2 0.40871115E+03</rscale>
<asrwt>0</asrwt>
<pdfrwt beam="1">  1       21 0.14869644E+00 0.40871115E+03</pdfrwt>
<pdfrwt beam="2">  1       21 0.37971416E-01 0.40871115E+03</pdfrwt>
<totfact> 0.17778892E+03</totfact>
</mgrwt>
</event>
<event>
 4    1  0.4774032E-002  0.5269580E+03  0.7818608E-02  0.1006973E+00
         21   -1    0    0  503  502  0.00000000000E+00  0.00000000000E+00  0.70806504844E+03  0.70806504844E+03  0.00000000000E+00 0. -1.
         21   -1    0    0  501  503 -0.00000000000E+00 -0.00000000000E+00 -0.69771220506E+03  0.69771220506E+03  0.00000000000E+00 0.  1.
    9000005    1    1    2  501    0 -0.20706710408E+03  0.27351038243E+03 -0.45996081122E+03  0.69946312466E+03  0.40000000000E+03 0.  1.
   -9000005    1    1    2    0  502  0.20706710408E+03 -0.27351038243E+03  0.47031365461E+03  0.70631412884E+03  0.40000000000E+03 0. -1.
<mgrwt>
<rscale>  2 0.52695798E+03</rscale>
<asrwt>0</asrwt>
<pdfrwt beam="1">  1       21 0.10893308E+00 0.52695798E+03</pdfrwt>
<pdfrwt beam="2">  1       21 0.10734034E+00 0.52695798E+03</pdfrwt>
<totfact> 0.37267757E+02</totfact>
</mgrwt>
</event>
<event>
 4    1  0.4774032E-002  0.5819793E+03  0.7818608E-02  0.9943515E-01
         21   -1    0    0  503  502  0.00000000000E+00  0.00000000000E+00  0.71350289644E+03  0.71350289644E+03  0.00000000000E+00 0.  1.
         21   -1    0    0  501  503 -0.00000000000E+00 -0.00000000000E+00 -0.11425466654E+04  0.11425466654E+04  0.00000000000E+00 0. -1.
    9000005    1    1    2  501    0  0.35693685812E+03 -0.22648610470E+03 -0.92403586480E+03  0.10920357850E+04  0.40000000000E+03 0. -1.
   -9000005    1    1    2    0  502 -0.35693685812E+03  0.22648610470E+03  0.49499209582E+03  0.76401377686E+03  0.40000000000E+03 0.  1.
<mgrwt>
<rscale>  2 0.58197927E+03</rscale>
<asrwt>0</asrwt>
<pdfrwt beam="1">  1       21 0.10976968E+00 0.58197927E+03</pdfrwt>
<pdfrwt beam="2">  1       21 0.17577641E+00 0.58197927E+03</pdfrwt>
<totfact> 0.95765109E+01</totfact>
</mgrwt>
</event>
<event>
 4    1  0.4774032E-002  0.4772101E+03  0.7818608E-02  0.1019905E+00
         21   -1    0    0  501  502  0.00000000000E+00  0.00000000000E+00  0.53083912164E+03  0.53083912164E+03  0.00000000000E+00 0. -1.
         21   -1    0    0  502  503 -0.00000000000E+00 -0.00000000000E+00 -0.43278491982E+03  0.43278491982E+03  0.00000000000E+00 0. -1.
    9000005    1    1    2  501    0  0.12150211040E+03 -0.23014496507E+03  0.94090672526E+02  0.48639749427E+03  0.40000000000E+03 0. -1.
   -9000005    1    1    2    0  503 -0.12150211040E+03  0.23014496507E+03  0.39635293017E+01  0.47722654719E+03  0.40000000000E+03 0. -1.
<mgrwt>
<rscale>  2 0.47721009E+03</rscale>
<asrwt>0</asrwt>
<pdfrwt beam="1">  1       21 0.81667557E-01 0.47721009E+03</pdfrwt>
<pdfrwt beam="2">  1       21 0.66582296E-01 0.47721009E+03</pdfrwt>
<totfact> 0.23290288E+03</totfact>
</mgrwt>
</event>
<event>
 4    1  0.4774032E-002  0.4948388E+03  0.7818608E-02  0.1015135E+00
         21   -1    0    0  503  502  0.00000000000E+00  0.00000000000E+00  0.88120715291E+02  0.88120715291E+02  0.00000000000E+00 0. -1.
         21   -1    0    0  501  503 -0.00000000000E+00 -0.00000000000E+00 -0.32902909661E+04  0.32902909661E+04  0.00000000000E+00 0. -1.
    9000005    1    1    2  501    0 -0.29131025752E+03  0.19326748305E+01 -0.22671335511E+04  0.23205085520E+04  0.40000000000E+03 0. -1.
   -9000005    1    1    2    0  502  0.29131025752E+03 -0.19326748305E+01 -0.93503669966E+03  0.10579031293E+04  0.40000000000E+03 0. -1.
<mgrwt>
<rscale>  2 0.49483876E+03</rscale>
<asrwt>0</asrwt>
<pdfrwt beam="1">  1       21 0.13557037E-01 0.49483876E+03</pdfrwt>
<pdfrwt beam="2">  1       21 0.50619847E+00 0.49483876E+03</pdfrwt>
<totfact> 0.58134111E+01</totfact>
</mgrwt>
</event>
<event>
 4    1  0.4774032E-002  0.4872216E+03  0.7818608E-02  0.1017169E+00
         21   -1    0    0  503  502  0.00000000000E+00  0.00000000000E+00  0.73958176198E+03  0.73958176198E+03  0.00000000000E+00 0. -1.
         21   -1    0    0  501  503 -0.00000000000E+00 -0.00000000000E+00 -0.46824740824E+03  0.46824740824E+03  0.00000000000E+00 0. -1.
    9000005    1    1    2  501    0  0.85524128258E+02 -0.26470843185E+03 -0.20302343449E+03  0.52782899253E+03  0.40000000000E+03 0. -1.
   -9000005    1    1    2    0  502 -0.85524128258E+02  0.26470843185E+03  0.47435778823E+03  0.68000017769E+03  0.40000000000E+03 0. -1.
<mgrwt>
<rscale>  2 0.48722164E+03</rscale>
<asrwt>0</asrwt>
<pdfrwt beam="1">  1       21 0.11378181E+00 0.48722164E+03</pdfrwt>
<pdfrwt beam="2">  1       21 0.72038063E-01 0.48722164E+03</pdfrwt>
<totfact> 0.87298990E+02</totfact>
</mgrwt>
</event>
<event>
 4    1  0.4774032E-002  0.6463594E+03  0.7818608E-02  0.9813635E-01
         21   -1    0    0  503  502  0.00000000000E+00  0.00000000000E+00  0.56489897736E+03  0.56489897736E+03  0.00000000000E+00 0. -1.
         21   -1    0    0  501  503 -0.00000000000E+00 -0.00000000000E+00 -0.99216889534E+03  0.99216889534E+03  0.00000000000E+00 0. -1.
    9000005    1    1    2  501    0  0.25218934626E+03  0.44065971703E+03 -0.60646377233E+03  0.88632881016E+03  0.40000000000E+03 0. -1.
   -9000005    1    1    2    0  502 -0.25218934626E+03 -0.44065971703E+03  0.17919385434E+03  0.67073906254E+03  0.40000000000E+03 0. -1.
<mgrwt>
<rscale>  2 0.64635938E+03</rscale>
<asrwt>0</asrwt>
<pdfrwt beam="1">  1       21 0.86907536E-01 0.64635938E+03</pdfrwt>
<pdfrwt beam="2">  1       21 0.15264137E+00 0.64635938E+03</pdfrwt>
<totfact> 0.24646921E+02</totfact>
</mgrwt>
</event>
<event>
 4    1  0.4774032E-002  0.5322591E+03  0.7818608E-02  0.1005686E+00
         21   -1    0    0  501  502  0.00000000000E+00  0.00000000000E+00  0.94423637434E+03  0.94423637434E+03  0.00000000000E+00 0.  1.
         21   -1    0    0  502  503 -0.00000000000E+00 -0.00000000000E+00 -0.31393277290E+03  0.31393277290E+03  0.00000000000E+00 0.  1.
    9000005    1    1    2  501    0  0.12879622626E+03 -0.32666699280E+03  0.18276878219E+03  0.56276479974E+03  0.40000000000E+03 0.  1.
   -9000005    1    1    2    0  503 -0.12879622626E+03  0.32666699280E+03  0.44753481924E+03  0.69540434750E+03  0.40000000000E+03 0.  1.
<mgrwt>
<rscale>  2 0.53225914E+03</rscale>
<asrwt>0</asrwt>
<pdfrwt beam="1">  1       21 0.14526713E+00 0.53225914E+03</pdfrwt>
<pdfrwt beam="2">  1       21 0.48297350E-01 0.53225914E+03</pdfrwt>
<totfact> 0.10930532E+03</totfact>
</mgrwt>
</event>
<event>
 4    1  0.4774032E-002  0.4075599E+03  0.7818608E-02  0.1041193E+00
         21   -1    0    0  501  502  0.00000000000E+00  0.00000000000E+00  0.13525035570E+04  0.13525035570E+04  0.00000000000E+00 0. -1.
         21   -1    0    0  502  503 -0.00000000000E+00 -0.00000000000E+00 -0.12623900693E+03  0.12623900693E+03  0.00000000000E+00 0. -1.
    9000005    1    1    2  501    0  0.77413302265E+02  0.10596666739E+02  0.73493464076E+03  0.84037731698E+03  0.40000000000E+03 0. -1.
   -9000005    1    1    2    0  503 -0.77413302265E+02 -0.10596666739E+02  0.49132990931E+03  0.63836524694E+03  0.40000000000E+03 0. -1.
<mgrwt>
<rscale>  2 0.40755994E+03</rscale>
<asrwt>0</asrwt>
<pdfrwt beam="1">  1       21 0.20807746E+00 0.40755994E+03</pdfrwt>
<pdfrwt beam="2">  1       21 0.19421387E-01 0.40755994E+03</pdfrwt>
<totfact> 0.25102001E+03</totfact>
</mgrwt>
</event>
<event>
 4    1  0.4774032E-002  0.4970931E+03  0.7818608E-02  0.1014540E+00
         21   -1    0    0  501  502  0.00000000000E+00  0.00000000000E+00  0.46443862750E+03  0.46443862750E+03  0.00000000000E+00 0.  1.
         21   -1    0    0  502  503 -0.00000000000E+00 -0.00000000000E+00 -0.54439794636E+03  0.54439794636E+03  0.00000000000E+00 0.  1.
    9000005    1    1    2  501    0 -0.24992903245E+03 -0.15696180401E+03  0.36008360129E+02  0.49839555694E+03  0.40000000000E+03 0. -1.
   -9000005    1    1    2    0  503  0.24992903245E+03  0.15696180401E+03 -0.11596767900E+03  0.51044101692E+03  0.40000000000E+03 0. -1.
<mgrwt>
<rscale>  2 0.49709308E+03</rscale>
<asrwt>0</asrwt>
<pdfrwt beam="1">  1       21 0.71452097E-01 0.49709308E+03</pdfrwt>
<pdfrwt beam="2">  1       21 0.83753530E-01 0.49709308E+03</pdfrwt>
<totfact> 0.18607517E+03</totfact>
</mgrwt>
</event>
<event>
 4    1  0.4774032E-002  0.5703549E+03  0.7818608E-02  0.9968894E-01
         21   -1    0    0  503  502  0.00000000000E+00  0.00000000000E+00  0.61456809362E+03  0.61456809362E+03  0.00000000000E+00 0.  1.
         21   -1    0    0  501  503 -0.00000000000E+00 -0.00000000000E+00 -0.55366145023E+03  0.55366145023E+03  0.00000000000E+00 0.  1.
    9000005    1    1    2  501    0  0.15893310289E+03 -0.37422585115E+03 -0.92015906376E+02  0.57772973429E+03  0.40000000000E+03 0.  1.
   -9000005    1    1    2    0  502 -0.15893310289E+03  0.37422585115E+03  0.15292254976E+03  0.59049980956E+03  0.40000000000E+03 0.  1.
<mgrwt>
<rscale>  2 0.57035491E+03</rscale>
<asrwt>0</asrwt>
<pdfrwt beam="1">  1       21 0.94548937E-01 0.57035491E+03</pdfrwt>
<pdfrwt beam="2">  1       21 0.85178685E-01 0.57035491E+03</pdfrwt>
<totfact> 0.90793450E+02</totfact>
</mgrwt>
</event>
<event>
 4    1  0.4774032E-002  0.4129398E+03  0.7818608E-02  0.1039389E+00
         21   -1    0    0  501  502  0.00000000000E+00  0.00000000000E+00  0.92986022030E+03  0.92986022030E+03  0.00000000000E+00 0.  1.
         21   -1    0    0  502  503 -0.00000000000E+00 -0.00000000000E+00 -0.21554984381E+03  0.21554984381E+03  0.00000000000E+00 0.  1.
    9000005    1    1    2  501    0 -0.10083890563E+03  0.18728776325E+02  0.57839885146E+03  0.71067888903E+03  0.40000000000E+03 0.  1.
   -9000005    1    1    2    0  503  0.10083890563E+03 -0.18728776325E+02  0.13591152504E+03  0.43473117508E+03  0.40000000000E+03 0.  1.
<mgrwt>
<rscale>  2 0.41293977E+03</rscale>
<asrwt>0</asrwt>
<pdfrwt beam="1">  1       21 0.14305542E+00 0.41293977E+03</pdfrwt>
<pdfrwt beam="2">  1       21 0.33161515E-01 0.41293977E+03</pdfrwt>
<totfact> 0.25896559E+03</totfact>
</mgrwt>
</event>
<event>
 4    1  0.4774032E-002  0.4149308E+03  0.7818608E-02  0.1038729E+00
         21   -1    0    0  501  502  0.00000000000E+00  0.00000000000E+00  0.39495917537E+03  0.39495917537E+03  0.00000000000E+00 0.  1.
         21   -1    0    0  502  503 -0.00000000000E+00 -0.00000000000E+00 -0.98569213384E+03  0.98569213384E+03  0.00000000000E+00 0.  1.
    9000005    1    1    2  501    0  0.10206328075E+03 -0.41841051324E+02  0.22019177753E+03  0.46973610224E+03  0.40000000000E+03 0.  1.
   -9000005    1    1    2    0  503 -0.10206328075E+03  0.41841051324E+02 -0.81092473599E+03  0.91091520697E+03  0.40000000000E+03 0.  1.
<mgrwt>
<rscale>  2 0.41493082E+03</rscale>
<asrwt>0</asrwt>
<pdfrwt beam="1">  1       21 0.60762950E-01 0.41493082E+03</pdfrwt>
<pdfrwt beam="2">  1       21 0.15164494E+00 0.41493082E+03</pdfrwt>
<totfact> 0.62260043E+02</totfact>
</mgrwt>
</event>
<event>
 4    1  0.4774032E-002  0.4952056E+03  0.7818608E-02  0.1015038E+00
         21   -1    0    0  501  502  0.00000000000E+00  0.00000000000E+00  0.26360624596E+03  0.26360624596E+03  0.00000000000E+00 0.  1.
         21   -1    0    0  502  503 -0.00000000000E+00 -0.00000000000E+00 -0.99404210870E+03  0.99404210870E+03  0.00000000000E+00 0. -1.
    9000005    1    1    2  501    0  0.27636999117E+02  0.29062817720E+03 -0.20596176535E+03  0.53632899408E+03  0.40000000000E+03 0.  1.
   -9000005    1    1    2    0  503 -0.27636999117E+02 -0.29062817720E+03 -0.52447409739E+03  0.72131936057E+03  0.40000000000E+03 0. -1.
<mgrwt>
<rscale>  2 0.49520555E+03</rscale>
<asrwt>0</asrwt>
<pdfrwt beam="1">  1       21 0.40554806E-01 0.49520555E+03</pdfrwt>
<pdfrwt beam="2">  1       21 0.15292956E+00 0.49520555E+03</pdfrwt>
<totfact> 0.13890068E+03</totfact>
</mgrwt>
</event>
<event>
 4    1  0.4774032E-002  0.4373740E+03  0.7818608E-02  0.1031556E+00
         21   -1    0    0  501  502  0.00000000000E+00  0.00000000000E+00  0.16561283818E+04  0.16561283818E+04  0.00000000000E+00 0. -1.
         21   -1    0    0  502  503 -0.00000000000E+00 -0.00000000000E+00 -0.31866396875E+03  0.31866396875E+03  0.00000000000E+00 0. -1.
    9000005    1    1    2  501    0 -0.21301064216E+02 -0.17561968103E+03  0.14571198308E+04  0.15213461831E+04  0.40000000000E+03 0. -1.
   -9000005    1    1    2    0  503  0.21301064216E+02  0.17561968103E+03 -0.11965541777E+03  0.45344616737E+03  0.40000000000E+03 0. -1.
<mgrwt>
<rscale>  2 0.43737399E+03</rscale>
<asrwt>0</asrwt>
<pdfrwt beam="1">  1       21 0.25478898E+00 0.43737399E+03</pdfrwt>
<pdfrwt beam="2">  1       21 0.49025227E-01 0.43737399E+03</pdfrwt>
<totfact> 0.19812338E+02</totfact>
</mgrwt>
</event>
<event>
 4    1  0.4774032E-002  0.4465518E+03  0.7818608E-02  0.1028755E+00
         21   -1    0    0  501  502  0.00000000000E+00  0.00000000000E+00  0.83204000043E+03  0.83204000043E+03  0.00000000000E+00 0. -1.
         21   -1    0    0  502  503 -0.00000000000E+00 -0.00000000000E+00 -0.27737477728E+03  0.27737477728E+03  0.00000000000E+00 0.  1.
    9000005    1    1    2  501    0 -0.18539840800E+03 -0.70964395010E+02  0.48187048014E+03  0.65696854923E+03  0.40000000000E+03 0. -1.
   -9000005    1    1    2    0  503  0.18539840800E+03  0.70964395010E+02  0.72794743005E+02  0.45244622847E+03  0.40000000000E+03 0.  1.
<mgrwt>
<rscale>  2 0.44655181E+03</rscale>
<asrwt>0</asrwt>
<pdfrwt beam="1">  1       21 0.12800615E+00 0.44655181E+03</pdfrwt>
<pdfrwt beam="2">  1       21 0.42673043E-01 0.44655181E+03</pdfrwt>
<totfact> 0.20441529E+03</totfact>
</mgrwt>
</event>
<event>
 4    1  0.4774032E-002  0.4642002E+03  0.7818608E-02  0.1023570E+00
         21   -1    0    0  501  502  0.00000000000E+00  0.00000000000E+00  0.61964588154E+03  0.61964588154E+03  0.00000000000E+00 0. -1.
         21   -1    0    0  502  503 -0.00000000000E+00 -0.00000000000E+00 -0.47322557165E+03  0.47322557165E+03  0.00000000000E+00 0.  1.
    9000005    1    1    2  501    0  0.13950603697E+03  0.18978902867E+03  0.35458463320E+03  0.58413360788E+03  0.40000000000E+03 0. -1.
   -9000005    1    1    2    0  503 -0.13950603697E+03 -0.18978902867E+03 -0.20816432331E+03  0.50873784531E+03  0.40000000000E+03 0.  1.
<mgrwt>
<rscale>  2 0.46420018E+03</rscale>
<asrwt>0</asrwt>
<pdfrwt beam="1">  1       21 0.95330136E-01 0.46420018E+03</pdfrwt>
<pdfrwt beam="2">  1       21 0.72803934E-01 0.46420018E+03</pdfrwt>
<totfact> 0.13280875E+03</totfact>
</mgrwt>
</event>
<event>
 4    1  0.4774032E-002  0.4894305E+03  0.7818608E-02  0.1016575E+00
         21   -1    0    0  503  502  0.00000000000E+00  0.00000000000E+00  0.18768394815E+04  0.18768394815E+04  0.00000000000E+00 0.  1.
         21   -1    0    0  501  503 -0.00000000000E+00 -0.00000000000E+00 -0.16883090448E+03  0.16883090448E+03  0.00000000000E+00 0.  1.
    9000005    1    1    2  501    0 -0.15750261752E+03  0.23395535762E+03  0.34872696934E+03  0.60095980151E+03  0.40000000000E+03 0.  1.
   -9000005    1    1    2    0  502  0.15750261752E+03 -0.23395535762E+03  0.13592816077E+04  0.14447105844E+04  0.40000000000E+03 0.  1.
<mgrwt>
<rscale>  2 0.48943047E+03</rscale>
<asrwt>0</asrwt>
<pdfrwt beam="1">  1       21 0.28874452E+00 0.48943047E+03</pdfrwt>
<pdfrwt beam="2">  1       21 0.25973987E-01 0.48943047E+03</pdfrwt>
<totfact> 0.43592668E+02</totfact>
</mgrwt>
</event>
<event>
 4    1  0.4774032E-002  0.4804143E+03  0.7818608E-02  0.1019021E+00
         21   -1    0    0  503  502  0.00000000000E+00  0.00000000000E+00  0.17075917153E+04  0.17075917153E+04  0.00000000000E+00 0. -1.
         21   -1    0    0  501  503 -0.00000000000E+00 -0.00000000000E+00 -0.14308933539E+03  0.14308933539E+03  0.00000000000E+00 0.  1.
    9000005    1    1    2  501    0  0.22430026420E+03  0.14313375278E+03  0.56442012454E+03  0.74119360271E+03  0.40000000000E+03 0.  1.
   -9000005    1    1    2    0  502 -0.22430026420E+03 -0.14313375278E+03  0.10000822553E+04  0.11094874480E+04  0.40000000000E+03 0. -1.
<mgrwt>
<rscale>  2 0.48041428E+03</rscale>
<asrwt>0</asrwt>
<pdfrwt beam="1">  1       21 0.26270640E+00 0.48041428E+03</pdfrwt>
<pdfrwt beam="2">  1       21 0.22013745E-01 0.48041428E+03</pdfrwt>
<totfact> 0.86823559E+02</totfact>
</mgrwt>
</event>
<event>
 4    1  0.4774032E-002  0.4590787E+03  0.7818608E-02  0.1025049E+00
         21   -1    0    0  501  502  0.00000000000E+00  0.00000000000E+00  0.14136226594E+03  0.14136226594E+03  0.00000000000E+00 0.  1.
         21   -1    0    0  502  503 -0.00000000000E+00 -0.00000000000E+00 -0.14951466682E+04  0.14951466682E+04  0.00000000000E+00 0.  1.
    9000005    1    1    2  501    0 -0.22523664910E+03 -0.46628033925E+01 -0.72063528404E+03  0.85444046161E+03  0.40000000000E+03 0.  1.
   -9000005    1    1    2    0  503  0.22523664910E+03  0.46628033925E+01 -0.63314911824E+03  0.78206847255E+03  0.40000000000E+03 0.  1.
<mgrwt>
<rscale>  2 0.45907874E+03</rscale>
<asrwt>0</asrwt>
<pdfrwt beam="1">  1       21 0.21748041E-01 0.45907874E+03</pdfrwt>
<pdfrwt beam="2">  1       21 0.23002256E+00 0.45907874E+03</pdfrwt>
<totfact> 0.14297677E+03</totfact>
</mgrwt>
</event>
<event>
 4    1  0.4774032E-002  0.5241669E+03  0.7818608E-02  0.1007657E+00
         21   -1    0    0  503  502  0.00000000000E+00  0.00000000000E+00  0.30357832346E+03  0.30357832346E+03  0.00000000000E+00 0. -1.
         21   -1    0    0  501  503 -0.00000000000E+00 -0.00000000000E+00 -0.16559348911E+04  0.16559348911E+04  0.00000000000E+00 0. -1.
    9000005    1    1    2  501    0  0.30918793349E+03 -0.13839726224E+03 -0.13359378777E+04  0.14350891935E+04  0.40000000000E+03 0. -1.
   -9000005    1    1    2    0  502 -0.30918793349E+03  0.13839726224E+03 -0.16418689938E+02  0.52442402099E+03  0.40000000000E+03 0. -1.
<mgrwt>
<rscale>  2 0.52416694E+03</rscale>
<asrwt>0</asrwt>
<pdfrwt beam="1">  1       21 0.46704358E-01 0.52416694E+03</pdfrwt>
<pdfrwt beam="2">  1       21 0.25475921E+00 0.52416694E+03</pdfrwt>
<totfact> 0.20961396E+02</totfact>
</mgrwt>
</event>
<event>
 4    1  0.4774032E-002  0.4650373E+03  0.7818608E-02  0.1023330E+00
         21   -1    0    0  503  502  0.00000000000E+00  0.00000000000E+00  0.19631564304E+03  0.19631564304E+03  0.00000000000E+00 0.  1.
         21   -1    0    0  501  503 -0.00000000000E+00 -0.00000000000E+00 -0.15973386825E+04  0.15973386825E+04  0.00000000000E+00 0.  1.
    9000005    1    1    2  501    0  0.81596442452E+02 -0.22271442183E+03 -0.12001320387E+04  0.12870806514E+04  0.40000000000E+03 0.  1.
   -9000005    1    1    2    0  502 -0.81596442452E+02  0.22271442183E+03 -0.20089100083E+03  0.50657367414E+03  0.40000000000E+03 0.  1.
<mgrwt>
<rscale>  2 0.46503730E+03</rscale>
<asrwt>0</asrwt>
<pdfrwt beam="1">  1       21 0.30202405E-01 0.46503730E+03</pdfrwt>
<pdfrwt beam="2">  1       21 0.24574442E+00 0.46503730E+03</pdfrwt>
<totfact> 0.59902559E+02</totfact>
</mgrwt>
</event>
<event>
 4    1  0.4774032E-002  0.4240130E+03  0.7818608E-02  0.1035768E+00
         21   -1    0    0  503  502  0.00000000000E+00  0.00000000000E+00  0.10535240594E+04  0.10535240594E+04  0.00000000000E+00 0.  1.
         21   -1    0    0  501  503 -0.00000000000E+00 -0.00000000000E+00 -0.20047849556E+03  0.20047849556E+03  0.00000000000E+00 0.  1.
    9000005    1    1    2  501    0  0.13847518539E+03 -0.24730730089E+02  0.18468244184E+03  0.46248739475E+03  0.40000000000E+03 0. -1.
   -9000005    1    1    2    0  502 -0.13847518539E+03  0.24730730089E+02  0.66836312197E+03  0.79151516017E+03  0.40000000000E+03 0. -1.
<mgrwt>
<rscale>  2 0.42401295E+03</rscale>
<asrwt>0</asrwt>
<pdfrwt beam="1">  1       21 0.16208062E+00 0.42401295E+03</pdfrwt>
<pdfrwt beam="2">  1       21 0.30842846E-01 0.42401295E+03</pdfrwt>
<totfact> 0.21196898E+03</totfact>
</mgrwt>
</event>
<event>
 4    1  0.4774032E-002  0.5019752E+03  0.7818608E-02  0.1013265E+00
         21   -1    0    0  501  502  0.00000000000E+00  0.00000000000E+00  0.19597967648E+04  0.19597967648E+04  0.00000000000E+00 0.  1.
         21   -1    0    0  502  503 -0.00000000000E+00 -0.00000000000E+00 -0.14274431309E+03  0.14274431309E+03  0.00000000000E+00 0. -1.
    9000005    1    1    2  501    0 -0.30316657035E+03 -0.83168341974E+01  0.57730129970E+03  0.76502021525E+03  0.40000000000E+03 0. -1.
   -9000005    1    1    2    0  503  0.30316657035E+03  0.83168341974E+01  0.12397511520E+04  0.13375208627E+04  0.40000000000E+03 0.  1.
<mgrwt>
<rscale>  2 0.50197524E+03</rscale>
<asrwt>0</asrwt>
<pdfrwt beam="1">  1       21 0.30150717E+00 0.50197524E+03</pdfrwt>
<pdfrwt beam="2">  1       21 0.21960665E-01 0.50197524E+03</pdfrwt>
<totfact> 0.50237529E+02</totfact>
</mgrwt>
</event>
<event>
 4    1  0.4774032E-002  0.4821500E+03  0.7818608E-02  0.1018546E+00
         21   -1    0    0  503  502  0.00000000000E+00  0.00000000000E+00  0.32921343288E+03  0.32921343288E+03  0.00000000000E+00 0.  1.
         21   -1    0    0  501  503 -0.00000000000E+00 -0.00000000000E+00 -0.73546714562E+03  0.73546714562E+03  0.00000000000E+00 0. -1.
    9000005    1    1    2  501    0 -0.18488105792E+03 -0.19567231846E+03 -0.30944076482E+03  0.57290684123E+03  0.40000000000E+03 0. -1.
   -9000005    1    1    2    0  502  0.18488105792E+03  0.19567231846E+03 -0.96812947913E+02  0.49177373728E+03  0.40000000000E+03 0.  1.
<mgrwt>
<rscale>  2 0.48215004E+03</rscale>
<asrwt>0</asrwt>
<pdfrwt beam="1">  1       21 0.50648221E-01 0.48215004E+03</pdfrwt>
<pdfrwt beam="2">  1       21 0.11314879E+00 0.48215004E+03</pdfrwt>
<totfact> 0.19243951E+03</totfact>
</mgrwt>
</event>
<event>
 4    1  0.4774032E-002  0.4019580E+03  0.7818608E-02  0.1043104E+00
         21   -1    0    0  501  502  0.00000000000E+00  0.00000000000E+00  0.80057993320E+03  0.80057993320E+03  0.00000000000E+00 0.  1.
         21   -1    0    0  502  503 -0.00000000000E+00 -0.00000000000E+00 -0.20948365417E+03  0.20948365417E+03  0.00000000000E+00 0.  1.
    9000005    1    1    2  501    0 -0.91711822705E+01 -0.38550710181E+02  0.39216652258E+03  0.56157354752E+03  0.40000000000E+03 0.  1.
   -9000005    1    1    2    0  503  0.91711822705E+01  0.38550710181E+02  0.19892975646E+03  0.44849003985E+03  0.40000000000E+03 0.  1.
<mgrwt>
<rscale>  2 0.40195804E+03</rscale>
<asrwt>0</asrwt>
<pdfrwt beam="1">  1       21 0.12316614E+00 0.40195804E+03</pdfrwt>
<pdfrwt beam="2">  1       21 0.32228255E-01 0.40195804E+03</pdfrwt>
<totfact> 0.40687476E+03</totfact>
</mgrwt>
</event>
<event>
 4    1  0.4774032E-002  0.5122152E+03  0.7818608E-02  0.1010639E+00
         21   -1    0    0  503  502  0.00000000000E+00  0.00000000000E+00  0.47605006497E+03  0.47605006497E+03  0.00000000000E+00 0.  1.
         21   -1    0    0  501  503 -0.00000000000E+00 -0.00000000000E+00 -0.55422743202E+03  0.55422743202E+03  0.00000000000E+00 0. -1.
    9000005    1    1    2  501    0  0.31133944625E+03  0.73703441594E+02 -0.56463865754E+00  0.51221554732E+03  0.40000000000E+03 0. -1.
   -9000005    1    1    2    0  502 -0.31133944625E+03 -0.73703441594E+02 -0.77612728393E+02  0.51806194968E+03  0.40000000000E+03 0. -1.
<mgrwt>
<rscale>  2 0.51221524E+03</rscale>
<asrwt>0</asrwt>
<pdfrwt beam="1">  1       21 0.73238471E-01 0.51221524E+03</pdfrwt>
<pdfrwt beam="2">  1       21 0.85265759E-01 0.51221524E+03</pdfrwt>
<totfact> 0.16785041E+03</totfact>
</mgrwt>
</event>
<event>
 4    1  0.4774032E-002  0.4315358E+03  0.7818608E-02  0.1033376E+00
         21   -1    0    0  503  502  0.00000000000E+00  0.00000000000E+00  0.37396737662E+03  0.37396737662E+03  0.00000000000E+00 0. -1.
         21   -1    0    0  501  503 -0.00000000000E+00 -0.00000000000E+00 -0.50188802321E+03  0.50188802321E+03  0.00000000000E+00 0. -1.
    9000005    1    1    2  501    0  0.70584806508E+02  0.14574276775E+03 -0.25249291704E+02  0.43227386689E+03  0.40000000000E+03 0. -1.
   -9000005    1    1    2    0  502 -0.70584806508E+02 -0.14574276775E+03 -0.10267135489E+03  0.44358153295E+03  0.40000000000E+03 0. -1.
<mgrwt>
<rscale>  2 0.43153583E+03</rscale>
<asrwt>0</asrwt>
<pdfrwt beam="1">  1       21 0.57533442E-01 0.43153583E+03</pdfrwt>
<pdfrwt beam="2">  1       21 0.77213542E-01 0.43153583E+03</pdfrwt>
<totfact> 0.37169151E+03</totfact>
</mgrwt>
</event>
<event>
 4    1  0.4774032E-002  0.4584907E+03  0.7818608E-02  0.1025220E+00
         21   -1    0    0  501  502  0.00000000000E+00  0.00000000000E+00  0.39681253820E+04  0.39681253820E+04  0.00000000000E+00 0.  1.
         21   -1    0    0  502  503 -0.00000000000E+00 -0.00000000000E+00 -0.13205454748E+03  0.13205454748E+03  0.00000000000E+00 0. -1.
    9000005    1    1    2  501    0 -0.18250584214E+03  0.13002063245E+03  0.35044866689E+04  0.35343515048E+04  0.40000000000E+03 0. -1.
   -9000005    1    1    2    0  503  0.18250584214E+03 -0.13002063245E+03  0.33158416569E+03  0.56582842471E+03  0.40000000000E+03 0. -1.
<mgrwt>
<rscale>  2 0.45849073E+03</rscale>
<asrwt>0</asrwt>
<pdfrwt beam="1">  1       21 0.61048074E+00 0.45849073E+03</pdfrwt>
<pdfrwt beam="2">  1       21 0.20316087E-01 0.45849073E+03</pdfrwt>
<totfact> 0.45569019E+00</totfact>
</mgrwt>
</event>
<event>
 4    1  0.4774032E-002  0.4291065E+03  0.7818608E-02  0.1034143E+00
         21   -1    0    0  503  502  0.00000000000E+00  0.00000000000E+00  0.75822850004E+03  0.75822850004E+03  0.00000000000E+00 0.  1.
         21   -1    0    0  501  503 -0.00000000000E+00 -0.00000000000E+00 -0.27895478869E+03  0.27895478869E+03  0.00000000000E+00 0.  1.
    9000005    1    1    2  501    0 -0.22277457689E+02  0.15374033447E+03  0.53055561953E+02  0.43237399114E+03  0.40000000000E+03 0.  1.
   -9000005    1    1    2    0  502  0.22277457689E+02 -0.15374033447E+03  0.42621814940E+03  0.60480929758E+03  0.40000000000E+03 0.  1.
<mgrwt>
<rscale>  2 0.42910649E+03</rscale>
<asrwt>0</asrwt>
<pdfrwt beam="1">  1       21 0.11665054E+00 0.42910649E+03</pdfrwt>
<pdfrwt beam="2">  1       21 0.42916122E-01 0.42910649E+03</pdfrwt>
<totfact> 0.25780968E+03</totfact>
</mgrwt>
</event>
<event>
 4    1  0.4774032E-002  0.4337022E+03  0.7818608E-02  0.1032697E+00
         21   -1    0    0  501  502  0.00000000000E+00  0.00000000000E+00  0.16413891305E+04  0.16413891305E+04  0.00000000000E+00 0. -1.
         21   -1    0    0  502  503 -0.00000000000E+00 -0.00000000000E+00 -0.13846265110E+03  0.13846265110E+03  0.00000000000E+00 0. -1.
    9000005    1    1    2  501    0 -0.14976068442E+03 -0.75294767312E+02  0.38199417978E+03  0.57794214067E+03  0.40000000000E+03 0. -1.
   -9000005    1    1    2    0  503  0.14976068442E+03  0.75294767312E+02  0.11209322996E+04  0.12019096409E+04  0.40000000000E+03 0. -1.
<mgrwt>
<rscale>  2 0.43370216E+03</rscale>
<asrwt>0</asrwt>
<pdfrwt beam="1">  1       21 0.25252139E+00 0.43370216E+03</pdfrwt>
<pdfrwt beam="2">  1       21 0.21301947E-01 0.43370216E+03</pdfrwt>
<totfact> 0.10923015E+03</totfact>
</mgrwt>
</event>
<event>
 4    1  0.4774032E-002  0.4244121E+03  0.7818608E-02  0.1035640E+00
         21   -1    0    0  503  502  0.00000000000E+00  0.00000000000E+00  0.26232913300E+03  0.26232913300E+03  0.00000000000E+00 0.  1.
         21   -1    0    0  501  503 -0.00000000000E+00 -0.00000000000E+00 -0.84390248309E+03  0.84390248309E+03  0.00000000000E+00 0.  1.
    9000005    1    1    2  501    0  0.14173212467E+03 -0.61325497272E+01 -0.52955839324E+03  0.67864401212E+03  0.40000000000E+03 0.  1.
   -9000005    1    1    2    0  502 -0.14173212467E+03  0.61325497272E+01 -0.52014956853E+02  0.42758760397E+03  0.40000000000E+03 0.  1.
<mgrwt>
<rscale>  2 0.42441207E+03</rscale>
<asrwt>0</asrwt>
<pdfrwt beam="1">  1       21 0.40358328E-01 0.42441207E+03</pdfrwt>
<pdfrwt beam="2">  1       21 0.12983115E+00 0.42441207E+03</pdfrwt>
<totfact> 0.22312255E+03</totfact>
</mgrwt>
</event>
<event>
 4    1  0.4774032E-002  0.4085989E+03  0.7818608E-02  0.1040842E+00
         21   -1    0    0  501  502  0.00000000000E+00  0.00000000000E+00  0.46747182673E+03  0.46747182673E+03  0.00000000000E+00 0. -1.
         21   -1    0    0  502  503 -0.00000000000E+00 -0.00000000000E+00 -0.36027602139E+03  0.36027602139E+03  0.00000000000E+00 0.  1.
    9000005    1    1    2  501    0 -0.65247232078E+02 -0.51921649362E+02  0.92209218114E+02  0.41887420411E+03  0.40000000000E+03 0. -1.
   -9000005    1    1    2    0  503  0.65247232078E+02  0.51921649362E+02  0.14986587220E+02  0.40887364401E+03  0.40000000000E+03 0.  1.
<mgrwt>
<rscale>  2 0.40859890E+03</rscale>
<asrwt>0</asrwt>
<pdfrwt beam="1">  1       21 0.71918743E-01 0.40859890E+03</pdfrwt>
<pdfrwt beam="2">  1       21 0.55427080E-01 0.40859890E+03</pdfrwt>
<totfact> 0.47754443E+03</totfact>
</mgrwt>
</event>
<event>
 4    1  0.4774032E-002  0.5077955E+03  0.7818608E-02  0.1011764E+00
         21   -1    0    0  501  502  0.00000000000E+00  0.00000000000E+00  0.83719668300E+03  0.83719668300E+03  0.00000000000E+00 0.  1.
         21   -1    0    0  502  503 -0.00000000000E+00 -0.00000000000E+00 -0.32333488618E+03  0.32333488618E+03  0.00000000000E+00 0.  1.
    9000005    1    1    2  501    0  0.79945438314E+02 -0.30243184497E+03  0.38330141746E+03  0.63622030035E+03  0.40000000000E+03 0.  1.
   -9000005    1    1    2    0  503 -0.79945438314E+02  0.30243184497E+03  0.13056037936E+03  0.52431126883E+03  0.40000000000E+03 0.  1.
<mgrwt>
<rscale>  2 0.50779552E+03</rscale>
<asrwt>0</asrwt>
<pdfrwt beam="1">  1       21 0.12879949E+00 0.50779552E+03</pdfrwt>
<pdfrwt beam="2">  1       21 0.49743829E-01 0.50779552E+03</pdfrwt>
<totfact> 0.14240867E+03</totfact>
</mgrwt>
</event>
<event>
 4    1  0.4774032E-002  0.4328312E+03  0.7818608E-02  0.1032969E+00
         21   -1    0    0  503  502  0.00000000000E+00  0.00000000000E+00  0.19050465631E+03  0.19050465631E+03  0.00000000000E+00 0.  1.
         21   -1    0    0  501  503 -0.00000000000E+00 -0.00000000000E+00 -0.98676945159E+03  0.98676945159E+03  0.00000000000E+00 0.  1.
    9000005    1    1    2  501    0 -0.12961058440E+02  0.16484798091E+03 -0.43251411138E+03  0.61189157731E+03  0.40000000000E+03 0. -1.
   -9000005    1    1    2    0  502  0.12961058440E+02 -0.16484798091E+03 -0.36375068391E+03  0.56538253059E+03  0.40000000000E+03 0. -1.
<mgrwt>
<rscale>  2 0.43283120E+03</rscale>
<asrwt>0</asrwt>
<pdfrwt beam="1">  1       21 0.29308408E-01 0.43283120E+03</pdfrwt>
<pdfrwt beam="2">  1       21 0.15181069E+00 0.43283120E+03</pdfrwt>
<totfact> 0.27998578E+03</totfact>
</mgrwt>
</event>
<event>
 4    1  0.4774032E-002  0.6742873E+03  0.7818608E-02  0.9762244E-01
         21   -1    0    0  503  502  0.00000000000E+00  0.00000000000E+00  0.10647305321E+04  0.10647305321E+04  0.00000000000E+00 0. -1.
         21   -1    0    0  501  503 -0.00000000000E+00 -0.00000000000E+00 -0.49065020949E+03  0.49065020949E+03  0.00000000000E+00 0. -1.
    9000005    1    1    2  501    0 -0.52354505410E+03 -0.14340120350E+03  0.56709667777E+03  0.88105730278E+03  0.40000000000E+03 0. -1.
   -9000005    1    1    2    0  502  0.52354505410E+03  0.14340120350E+03  0.69836448516E+01  0.67432343881E+03  0.40000000000E+03 0. -1.
<mgrwt>
<rscale>  2 0.67428727E+03</rscale>
<asrwt>0</asrwt>
<pdfrwt beam="1">  1       21 0.16380470E+00 0.67428727E+03</pdfrwt>
<pdfrwt beam="2">  1       21 0.75484648E-01 0.67428727E+03</pdfrwt>
<totfact> 0.27843312E+02</totfact>
</mgrwt>
</event>
<event>
 4    1  0.4774032E-002  0.4153357E+03  0.7818608E-02  0.1038595E+00
         21   -1    0    0  501  502  0.00000000000E+00  0.00000000000E+00  0.73041459599E+03  0.73041459599E+03  0.00000000000E+00 0.  1.
         21   -1    0    0  502  503 -0.00000000000E+00 -0.00000000000E+00 -0.36613262244E+03  0.36613262244E+03  0.00000000000E+00 0.  1.
    9000005    1    1    2  501    0  0.86314955027E+02  0.71087697000E+02  0.50879156713E+03  0.65678960932E+03  0.40000000000E+03 0.  1.
   -9000005    1    1    2    0  503 -0.86314955027E+02 -0.71087697000E+02 -0.14450959359E+03  0.43975760910E+03  0.40000000000E+03 0.  1.
<mgrwt>
<rscale>  2 0.41533569E+03</rscale>
<asrwt>0</asrwt>
<pdfrwt beam="1">  1       21 0.11237148E+00 0.41533569E+03</pdfrwt>
<pdfrwt beam="2">  1       21 0.56328096E-01 0.41533569E+03</pdfrwt>
<totfact> 0.15990750E+03</totfact>
</mgrwt>
</event>
<event>
 4    1  0.4774032E-002  0.4104547E+03  0.7818608E-02  0.1040219E+00
         21   -1    0    0  501  502  0.00000000000E+00  0.00000000000E+00  0.19549372605E+04  0.19549372605E+04  0.00000000000E+00 0. -1.
         21   -1    0    0  502  503 -0.00000000000E+00 -0.00000000000E+00 -0.10576154082E+03  0.10576154082E+03  0.00000000000E+00 0. -1.
    9000005    1    1    2  501    0 -0.34669390476E+02 -0.85270493109E+02  0.48122046808E+03  0.63249202567E+03  0.40000000000E+03 0. -1.
   -9000005    1    1    2    0  503  0.34669390476E+02  0.85270493109E+02  0.13679552516E+04  0.14282067756E+04  0.40000000000E+03 0. -1.
<mgrwt>
<rscale>  2 0.41045465E+03</rscale>
<asrwt>0</asrwt>
<pdfrwt beam="1">  1       21 0.30075955E+00 0.41045465E+03</pdfrwt>
<pdfrwt beam="2">  1       21 0.16271008E-01 0.41045465E+03</pdfrwt>
<totfact> 0.94182871E+02</totfact>
</mgrwt>
</event>
<event>
 4    1  0.4774032E-002  0.4132832E+03  0.7818608E-02  0.1039275E+00
         21   -1    0    0  503  502  0.00000000000E+00  0.00000000000E+00  0.24282056193E+03  0.24282056193E+03  0.00000000000E+00 0. -1.
         21   -1    0    0  501  503 -0.00000000000E+00 -0.00000000000E+00 -0.80549442530E+03  0.80549442530E+03  0.00000000000E+00 0. -1.
    9000005    1    1    2  501    0  0.87438523744E+02 -0.56191826556E+02 -0.46793406644E+03  0.62431186705E+03  0.40000000000E+03 0. -1.
   -9000005    1    1    2    0  502 -0.87438523744E+02  0.56191826556E+02 -0.94739796931E+02  0.42400312019E+03  0.40000000000E+03 0. -1.
<mgrwt>
<rscale>  2 0.41328322E+03</rscale>
<asrwt>0</asrwt>
<pdfrwt beam="1">  1       21 0.37357011E-01 0.41328322E+03</pdfrwt>
<pdfrwt beam="2">  1       21 0.12392222E+00 0.41328322E+03</pdfrwt>
<totfact> 0.29600582E+03</totfact>
</mgrwt>
</event>
<event>
 4    1  0.4774032E-002  0.4019689E+03  0.7818608E-02  0.1043100E+00
         21   -1    0    0  501  502  0.00000000000E+00  0.00000000000E+00  0.17832938618E+03  0.17832938618E+03  0.00000000000E+00 0. -1.
         21   -1    0    0  502  503 -0.00000000000E+00 -0.00000000000E+00 -0.11619737478E+04  0.11619737478E+04  0.00000000000E+00 0. -1.
    9000005    1    1    2  501    0 -0.32418013853E+02  0.22979541610E+02 -0.17732784958E+03  0.43934514131E+03  0.40000000000E+03 0. -1.
   -9000005    1    1    2    0  503  0.32418013853E+02 -0.22979541610E+02 -0.80631651201E+03  0.90095799264E+03  0.40000000000E+03 0. -1.
<mgrwt>
<rscale>  2 0.40196889E+03</rscale>
<asrwt>0</asrwt>
<pdfrwt beam="1">  1       21 0.27435291E-01 0.40196889E+03</pdfrwt>
<pdfrwt beam="2">  1       21 0.17876519E+00 0.40196889E+03</pdfrwt>
<totfact> 0.20418778E+03</totfact>
</mgrwt>
</event>
<event>
 4    1  0.4774032E-002  0.4112849E+03  0.7818608E-02  0.1039941E+00
         21   -1    0    0  503  502  0.00000000000E+00  0.00000000000E+00  0.30222416132E+04  0.30222416132E+04  0.00000000000E+00 0. -1.
         21   -1    0    0  501  503 -0.00000000000E+00 -0.00000000000E+00 -0.76403418616E+02  0.76403418616E+02  0.00000000000E+00 0. -1.
    9000005    1    1    2  501    0 -0.74016946218E+02 -0.60636485613E+02  0.67169418204E+03  0.78760927235E+03  0.40000000000E+03 0. -1.
   -9000005    1    1    2    0  502  0.74016946218E+02  0.60636485613E+02  0.22741440126E+04  0.23110357595E+04  0.40000000000E+03 0. -1.
<mgrwt>
<rscale>  2 0.41128493E+03</rscale>
<asrwt>0</asrwt>
<pdfrwt beam="1">  1       21 0.46496015E+00 0.41128493E+03</pdfrwt>
<pdfrwt beam="2">  1       21 0.11754374E-01 0.41128493E+03</pdfrwt>
<totfact> 0.15612938E+02</totfact>
</mgrwt>
</event>
<event>
 4    1  0.4774032E-002  0.4989215E+03  0.7818608E-02  0.1014061E+00
         21   -1    0    0  501  502  0.00000000000E+00  0.00000000000E+00  0.30895164975E+04  0.30895164975E+04  0.00000000000E+00 0. -1.
         21   -1    0    0  502  503 -0.00000000000E+00 -0.00000000000E+00 -0.13675920146E+03  0.13675920146E+03  0.00000000000E+00 0. -1.
    9000005    1    1    2  501    0  0.23423609489E+03  0.18454308046E+03  0.25103754423E+04  0.25594740784E+04  0.40000000000E+03 0. -1.
   -9000005    1    1    2    0  503 -0.23423609489E+03 -0.18454308046E+03  0.44238185379E+03  0.66680162061E+03  0.40000000000E+03 0. -1.
<mgrwt>
<rscale>  2 0.49892153E+03</rscale>
<asrwt>0</asrwt>
<pdfrwt beam="1">  1       21 0.47531018E+00 0.49892153E+03</pdfrwt>
<pdfrwt beam="2">  1       21 0.21039879E-01 0.49892153E+03</pdfrwt>
<totfact> 0.42012509E+01</totfact>
</mgrwt>
</event>
<event>
 4    1  0.4774032E-002  0.5112706E+03  0.7818608E-02  0.1010878E+00
         21   -1    0    0  501  502  0.00000000000E+00  0.00000000000E+00  0.37600348998E+03  0.37600348998E+03  0.00000000000E+00 0.  1.
         21   -1    0    0  502  503 -0.00000000000E+00 -0.00000000000E+00 -0.72315730429E+03  0.72315730429E+03  0.00000000000E+00 0. -1.
    9000005    1    1    2  501    0 -0.30992294141E+03 -0.73112300774E+02 -0.65517583283E+02  0.51545144471E+03  0.40000000000E+03 0. -1.
   -9000005    1    1    2    0  503  0.30992294141E+03  0.73112300774E+02 -0.28163623102E+03  0.58370934956E+03  0.40000000000E+03 0. -1.
<mgrwt>
<rscale>  2 0.51127061E+03</rscale>
<asrwt>0</asrwt>
<pdfrwt beam="1">  1       21 0.57846691E-01 0.51127061E+03</pdfrwt>
<pdfrwt beam="2">  1       21 0.11125497E+00 0.51127061E+03</pdfrwt>
<totfact> 0.14914759E+03</totfact>
</mgrwt>
</event>
<event>
 4    1  0.4774032E-002  0.4217322E+03  0.7818608E-02  0.1036504E+00
         21   -1    0    0  501  502  0.00000000000E+00  0.00000000000E+00  0.16438340713E+03  0.16438340713E+03  0.00000000000E+00 0.  1.
         21   -1    0    0  502  503 -0.00000000000E+00 -0.00000000000E+00 -0.10985565940E+04  0.10985565940E+04  0.00000000000E+00 0. -1.
    9000005    1    1    2  501    0 -0.13217130725E+03  0.19717265952E+02 -0.38949559312E+03  0.57407738337E+03  0.40000000000E+03 0.  1.
   -9000005    1    1    2    0  503  0.13217130725E+03 -0.19717265952E+02 -0.54467759379E+03  0.68886261781E+03  0.40000000000E+03 0. -1.
<mgrwt>
<rscale>  2 0.42173217E+03</rscale>
<asrwt>0</asrwt>
<pdfrwt beam="1">  1       21 0.25289756E-01 0.42173217E+03</pdfrwt>
<pdfrwt beam="2">  1       21 0.16900870E+00 0.42173217E+03</pdfrwt>
<totfact> 0.27874275E+03</totfact>
</mgrwt>
</event>
<event>
 4    1  0.4774032E-002  0.6583641E+03  0.7818608E-02  0.9791210E-01
         21   -1    0    0  503  502  0.00000000000E+00  0.00000000000E+00  0.45926910207E+03  0.45926910207E+03  0.00000000000E+00 0.  1.
         21   -1    0    0  501  503 -0.00000000000E+00 -0.00000000000E+00 -0.11394686395E+04  0.11394686395E+04  0.00000000000E+00 0.  1.
    9000005    1    1    2  501    0  0.52073951047E+03  0.47682850791E+02 -0.67137779085E+03  0.94031453783E+03  0.40000000000E+03 0.  1.
   -9000005    1    1    2    0  502 -0.52073951047E+03 -0.47682850791E+02 -0.88217466018E+01  0.65842320375E+03  0.40000000000E+03 0.  1.
<mgrwt>
<rscale>  2 0.65836410E+03</rscale>
<asrwt>0</asrwt>
<pdfrwt beam="1">  1       21 0.70656785E-01 0.65836410E+03</pdfrwt>
<pdfrwt beam="2">  1       21 0.17530287E+00 0.65836410E+03</pdfrwt>
<totfact> 0.26773773E+02</totfact>
</mgrwt>
</event>
<event>
 4    1  0.4774032E-002  0.4471229E+03  0.7818608E-02  0.1028584E+00
         21   -1    0    0  503  502  0.00000000000E+00  0.00000000000E+00  0.46953540314E+03  0.46953540314E+03  0.00000000000E+00 0. -1.
         21   -1    0    0  501  503 -0.00000000000E+00 -0.00000000000E+00 -0.46734446016E+03  0.46734446016E+03  0.00000000000E+00 0. -1.
    9000005    1    1    2  501    0 -0.19514585391E+03 -0.42860281019E+02 -0.13860409274E+03  0.46811323685E+03  0.40000000000E+03 0. -1.
   -9000005    1    1    2    0  502  0.19514585391E+03  0.42860281019E+02  0.14079503572E+03  0.46876662645E+03  0.40000000000E+03 0. -1.
<mgrwt>
<rscale>  2 0.44712292E+03</rscale>
<asrwt>0</asrwt>
<pdfrwt beam="1">  1       21 0.72236216E-01 0.44712292E+03</pdfrwt>
<pdfrwt beam="2">  1       21 0.71899147E-01 0.44712292E+03</pdfrwt>
<totfact> 0.26242939E+03</totfact>
</mgrwt>
</event>
<event>
 4    1  0.4774032E-002  0.5707137E+03  0.7818608E-02  0.9968101E-01
         21   -1    0    0  501  502  0.00000000000E+00  0.00000000000E+00  0.80969518755E+03  0.80969518755E+03  0.00000000000E+00 0.  1.
         21   -1    0    0  502  503 -0.00000000000E+00 -0.00000000000E+00 -0.77485039670E+03  0.77485039670E+03  0.00000000000E+00 0. -1.
    9000005    1    1    2  501    0  0.26013601164E+03 -0.31311874970E+03  0.56680795848E+03  0.80435400028E+03  0.40000000000E+03 0.  1.
   -9000005    1    1    2    0  503 -0.26013601164E+03  0.31311874970E+03 -0.53196316763E+03  0.78019158396E+03  0.40000000000E+03 0. -1.
<mgrwt>
<rscale>  2 0.57071367E+03</rscale>
<asrwt>0</asrwt>
<pdfrwt beam="1">  1       21 0.12456849E+00 0.57071367E+03</pdfrwt>
<pdfrwt beam="2">  1       21 0.11920775E+00 0.57071367E+03</pdfrwt>
<totfact> 0.20048433E+02</totfact>
</mgrwt>
</event>
<event>
 4    1  0.4774032E-002  0.4303407E+03  0.7818608E-02  0.1033752E+00
         21   -1    0    0  501  502  0.00000000000E+00  0.00000000000E+00  0.10785881135E+04  0.10785881135E+04  0.00000000000E+00 0.  1.
         21   -1    0    0  502  503 -0.00000000000E+00 -0.00000000000E+00 -0.17179506233E+03  0.17179506233E+03  0.00000000000E+00 0.  1.
    9000005    1    1    2  501    0  0.11428712443E+03  0.11014339444E+03  0.43865662818E+03  0.61450203547E+03  0.40000000000E+03 0.  1.
   -9000005    1    1    2    0  503 -0.11428712443E+03 -0.11014339444E+03  0.46813642301E+03  0.63588114038E+03  0.40000000000E+03 0.  1.
<mgrwt>
<rscale>  2 0.43034070E+03</rscale>
<asrwt>0</asrwt>
<pdfrwt beam="1">  1       21 0.16593663E+00 0.43034070E+03</pdfrwt>
<pdfrwt beam="2">  1       21 0.26430010E-01 0.43034070E+03</pdfrwt>
<totfact> 0.26842261E+03</totfact>
</mgrwt>
</event>
<event>
 4    1  0.4774032E-002  0.5535111E+03  0.7818608E-02  0.1000684E+00
         21   -1    0    0  501  502  0.00000000000E+00  0.00000000000E+00  0.10125009312E+04  0.10125009312E+04  0.00000000000E+00 0.  1.
         21   -1    0    0  502  503 -0.00000000000E+00 -0.00000000000E+00 -0.46281508280E+03  0.46281508280E+03  0.00000000000E+00 0.  1.
    9000005    1    1    2  501    0  0.32940175867E+03 -0.19459965476E+03  0.70886721374E+03  0.89937048593E+03  0.40000000000E+03 0.  1.
   -9000005    1    1    2    0  503 -0.32940175867E+03  0.19459965476E+03 -0.15918136533E+03  0.57594552808E+03  0.40000000000E+03 0.  1.
<mgrwt>
<rscale>  2 0.55351111E+03</rscale>
<asrwt>0</asrwt>
<pdfrwt beam="1">  1       21 0.15576937E+00 0.55351111E+03</pdfrwt>
<pdfrwt beam="2">  1       21 0.71202321E-01 0.55351111E+03</pdfrwt>
<totfact> 0.38245192E+02</totfact>
</mgrwt>
</event>
<event>
 4    1  0.4774032E-002  0.4555150E+03  0.7818608E-02  0.1026090E+00
         21   -1    0    0  501  502  0.00000000000E+00  0.00000000000E+00  0.13449831098E+04  0.13449831098E+04  0.00000000000E+00 0. -1.
         21   -1    0    0  502  503 -0.00000000000E+00 -0.00000000000E+00 -0.19614995894E+03  0.19614995894E+03  0.00000000000E+00 0. -1.
    9000005    1    1    2  501    0  0.14031507731E+03 -0.16675016710E+03  0.93046254099E+03  0.10359799609E+04  0.40000000000E+03 0. -1.
   -9000005    1    1    2    0  503 -0.14031507731E+03  0.16675016710E+03  0.21837060991E+03  0.50515310790E+03  0.40000000000E+03 0. -1.
<mgrwt>
<rscale>  2 0.45551503E+03</rscale>
<asrwt>0</asrwt>
<pdfrwt beam="1">  1       21 0.20692047E+00 0.45551503E+03</pdfrwt>
<pdfrwt beam="2">  1       21 0.30176918E-01 0.45551503E+03</pdfrwt>
<totfact> 0.10630601E+03</totfact>
</mgrwt>
</event>
<event>
 4    1  0.4774032E-002  0.6242690E+03  0.7818608E-02  0.9856297E-01
         21   -1    0    0  503  502  0.00000000000E+00  0.00000000000E+00  0.28076409939E+04  0.28076409939E+04  0.00000000000E+00 0.  1.
         21   -1    0    0  501  503 -0.00000000000E+00 -0.00000000000E+00 -0.14968124383E+03  0.14968124383E+03  0.00000000000E+00 0. -1.
    9000005    1    1    2  501    0 -0.44989973425E+03 -0.16523325748E+03  0.93037335758E+03  0.11204045630E+04  0.40000000000E+03 0. -1.
   -9000005    1    1    2    0  502  0.44989973425E+03  0.16523325748E+03  0.17275863925E+04  0.18369176747E+04  0.40000000000E+03 0.  1.
<mgrwt>
<rscale>  2 0.62426901E+03</rscale>
<asrwt>0</asrwt>
<pdfrwt beam="1">  1       21 0.43194473E+00 0.62426901E+03</pdfrwt>
<pdfrwt beam="2">  1       21 0.23027886E-01 0.62426901E+03</pdfrwt>
<totfact> 0.64922565E+01</totfact>
</mgrwt>
</event>
<event>
 4    1  0.4774032E-002  0.4235345E+03  0.7818608E-02  0.1035922E+00
         21   -1    0    0  503  502  0.00000000000E+00  0.00000000000E+00  0.18648634858E+03  0.18648634858E+03  0.00000000000E+00 0. -1.
         21   -1    0    0  501  503 -0.00000000000E+00 -0.00000000000E+00 -0.11372197841E+04  0.11372197841E+04  0.00000000000E+00 0. -1.
    9000005    1    1    2  501    0  0.93948826878E+02 -0.10273788241E+03 -0.73523500205E+03  0.84849983075E+03  0.40000000000E+03 0.  1.
   -9000005    1    1    2    0  502 -0.93948826878E+02  0.10273788241E+03 -0.21549843347E+03  0.47520630192E+03  0.40000000000E+03 0.  1.
<mgrwt>
<rscale>  2 0.42353448E+03</rscale>
<asrwt>0</asrwt>
<pdfrwt beam="1">  1       21 0.28690207E-01 0.42353448E+03</pdfrwt>
<pdfrwt beam="2">  1       21 0.17495689E+00 0.42353448E+03</pdfrwt>
<totfact> 0.19706976E+03</totfact>
</mgrwt>
</event>
<event>
 4    1  0.4774032E-002  0.4720088E+03  0.7818608E-02  0.1021355E+00
         21   -1    0    0  501  502  0.00000000000E+00  0.00000000000E+00  0.60070653645E+03  0.60070653645E+03  0.00000000000E+00 0.  1.
         21   -1    0    0  502  503 -0.00000000000E+00 -0.00000000000E+00 -0.37207590375E+03  0.37207590375E+03  0.00000000000E+00 0.  1.
    9000005    1    1    2  501    0 -0.10475935404E+03 -0.22763511142E+03  0.14184772311E+03  0.49286209304E+03  0.40000000000E+03 0.  1.
   -9000005    1    1    2    0  503  0.10475935404E+03  0.22763511142E+03  0.86782909593E+02  0.47992034715E+03  0.40000000000E+03 0.  1.
<mgrwt>
<rscale>  2 0.47200876E+03</rscale>
<asrwt>0</asrwt>
<pdfrwt beam="1">  1       21 0.92416390E-01 0.47200876E+03</pdfrwt>
<pdfrwt beam="2">  1       21 0.57242447E-01 0.47200876E+03</pdfrwt>
<totfact> 0.24339908E+03</totfact>
</mgrwt>
</event>
<event>
 4    1  0.4774032E-002  0.4962261E+03  0.7818608E-02  0.1014769E+00
         21   -1    0    0  501  502  0.00000000000E+00  0.00000000000E+00  0.36893190511E+03  0.36893190511E+03  0.00000000000E+00 0.  1.
         21   -1    0    0  502  503 -0.00000000000E+00 -0.00000000000E+00 -0.73124859518E+03  0.73124859518E+03  0.00000000000E+00 0.  1.
    9000005    1    1    2  501    0 -0.10985462783E+03  0.27234592008E+03 -0.18664445001E+02  0.49657698391E+03  0.40000000000E+03 0.  1.
   -9000005    1    1    2    0  503  0.10985462783E+03 -0.27234592008E+03 -0.34365224507E+03  0.60360351638E+03  0.40000000000E+03 0.  1.
<mgrwt>
<rscale>  2 0.49622610E+03</rscale>
<asrwt>0</asrwt>
<pdfrwt beam="1">  1       21 0.56758755E-01 0.49622610E+03</pdfrwt>
<pdfrwt beam="2">  1       21 0.11249978E+00 0.49622610E+03</pdfrwt>
<totfact> 0.15197801E+03</totfact>
</mgrwt>
</event>
<event>
 4    1  0.4774032E-002  0.4101607E+03  0.7818608E-02  0.1040317E+00
         21   -1    0    0  501  502  0.00000000000E+00  0.00000000000E+00  0.47150946928E+03  0.47150946928E+03  0.00000000000E+00 0. -1.
         21   -1    0    0  502  503 -0.00000000000E+00 -0.00000000000E+00 -0.38982738807E+03  0.38982738807E+03  0.00000000000E+00 0. -1.
    9000005    1    1    2  501    0  0.51135189471E+02 -0.74946702753E+02 -0.84525746945E+02  0.41877967686E+03  0.40000000000E+03 0. -1.
   -9000005    1    1    2    0  503 -0.51135189471E+02  0.74946702753E+02  0.16620782815E+03  0.44255718048E+03  0.40000000000E+03 0. -1.
<mgrwt>
<rscale>  2 0.41016072E+03</rscale>
<asrwt>0</asrwt>
<pdfrwt beam="1">  1       21 0.72539918E-01 0.41016072E+03</pdfrwt>
<pdfrwt beam="2">  1       21 0.59973444E-01 0.41016072E+03</pdfrwt>
<totfact> 0.39441981E+03</totfact>
</mgrwt>
</event>
<event>
 4    1  0.4774032E-002  0.4462666E+03  0.7818608E-02  0.1028841E+00
         21   -1    0    0  503  502  0.00000000000E+00  0.00000000000E+00  0.52737720632E+03  0.52737720632E+03  0.00000000000E+00 0. -1.
         21   -1    0    0  501  503 -0.00000000000E+00 -0.00000000000E+00 -0.38252111219E+03  0.38252111219E+03  0.00000000000E+00 0.  1.
    9000005    1    1    2  501    0 -0.91243613371E+01  0.19766287730E+03  0.20987658965E+02  0.44675983354E+03  0.40000000000E+03 0.  1.
   -9000005    1    1    2    0  502  0.91243613371E+01 -0.19766287730E+03  0.12386843517E+03  0.46313848497E+03  0.40000000000E+03 0. -1.
<mgrwt>
<rscale>  2 0.44626659E+03</rscale>
<asrwt>0</asrwt>
<pdfrwt beam="1">  1       21 0.81134955E-01 0.44626659E+03</pdfrwt>
<pdfrwt beam="2">  1       21 0.58849402E-01 0.44626659E+03</pdfrwt>
<totfact> 0.31400215E+03</totfact>
</mgrwt>
</event>
<event>
 4    1  0.4774032E-002  0.4424919E+03  0.7818608E-02  0.1029985E+00
         21   -1    0    0  503  502  0.00000000000E+00  0.00000000000E+00  0.22735743719E+03  0.22735743719E+03  0.00000000000E+00 0. -1.
         21   -1    0    0  501  503 -0.00000000000E+00 -0.00000000000E+00 -0.93813036886E+03  0.93813036886E+03  0.00000000000E+00 0.  1.
    9000005    1    1    2  501    0 -0.17326624752E+03  0.76012353016E+02 -0.52226842199E+03  0.68451689165E+03  0.40000000000E+03 0. -1.
   -9000005    1    1    2    0  502  0.17326624752E+03 -0.76012353016E+02 -0.18850450968E+03  0.48097091441E+03  0.40000000000E+03 0.  1.
<mgrwt>
<rscale>  2 0.44249189E+03</rscale>
<asrwt>0</asrwt>
<pdfrwt beam="1">  1       21 0.34978066E-01 0.44249189E+03</pdfrwt>
<pdfrwt beam="2">  1       21 0.14432775E+00 0.44249189E+03</pdfrwt>
<totfact> 0.22444312E+03</totfact>
</mgrwt>
</event>
<event>
 4    1  0.4774032E-002  0.4850622E+03  0.7818608E-02  0.1017753E+00
         21   -1    0    0  501  502  0.00000000000E+00  0.00000000000E+00  0.25862638177E+03  0.25862638177E+03  0.00000000000E+00 0. -1.
         21   -1    0    0  502  503 -0.00000000000E+00 -0.00000000000E+00 -0.93020408670E+03  0.93020408670E+03  0.00000000000E+00 0. -1.
    9000005    1    1    2  501    0 -0.15912050476E+03 -0.22353086332E+03 -0.24764549681E+03  0.54462250595E+03  0.40000000000E+03 0. -1.
   -9000005    1    1    2    0  503  0.15912050476E+03  0.22353086332E+03 -0.42393220812E+03  0.64420796252E+03  0.40000000000E+03 0. -1.
<mgrwt>
<rscale>  2 0.48506225E+03</rscale>
<asrwt>0</asrwt>
<pdfrwt beam="1">  1       21 0.39788674E-01 0.48506225E+03</pdfrwt>
<pdfrwt beam="2">  1       21 0.14310832E+00 0.48506225E+03</pdfrwt>
<totfact> 0.17364150E+03</totfact>
</mgrwt>
</event>
<event>
 4    1  0.4774032E-002  0.5102457E+03  0.7818608E-02  0.1011139E+00
         21   -1    0    0  503  502  0.00000000000E+00  0.00000000000E+00  0.26066483885E+03  0.26066483885E+03  0.00000000000E+00 0.  1.
         21   -1    0    0  501  503 -0.00000000000E+00 -0.00000000000E+00 -0.10226384404E+04  0.10226384404E+04  0.00000000000E+00 0.  1.
    9000005    1    1    2  501    0  0.26294449826E+03 -0.17666588152E+03 -0.47896422686E+03  0.69982667387E+03  0.40000000000E+03 0.  1.
   -9000005    1    1    2    0  502 -0.26294449826E+03  0.17666588152E+03 -0.28300937469E+03  0.58347660537E+03  0.40000000000E+03 0.  1.
<mgrwt>
<rscale>  2 0.51024567E+03</rscale>
<asrwt>0</asrwt>
<pdfrwt beam="1">  1       21 0.40102284E-01 0.51024567E+03</pdfrwt>
<pdfrwt beam="2">  1       21 0.15732899E+00 0.51024567E+03</pdfrwt>
<totfact> 0.13073360E+03</totfact>
</mgrwt>
</event>
<event>
 4    1  0.4774032E-002  0.6466265E+03  0.7818608E-02  0.9813130E-01
         21   -1    0    0  503  502  0.00000000000E+00  0.00000000000E+00  0.61852288214E+03  0.61852288214E+03  0.00000000000E+00 0. -1.
         21   -1    0    0  501  503 -0.00000000000E+00 -0.00000000000E+00 -0.15192919522E+04  0.15192919522E+04  0.00000000000E+00 0. -1.
    9000005    1    1    2  501    0  0.33960218853E+03  0.37788389456E+03 -0.12467393522E+04  0.14044518135E+04  0.40000000000E+03 0. -1.
   -9000005    1    1    2    0  502 -0.33960218853E+03 -0.37788389456E+03  0.34597028211E+03  0.73336302083E+03  0.40000000000E+03 0. -1.
<mgrwt>
<rscale>  2 0.64662654E+03</rscale>
<asrwt>0</asrwt>
<pdfrwt beam="1">  1       21 0.95157366E-01 0.64662654E+03</pdfrwt>
<pdfrwt beam="2">  1       21 0.23373722E+00 0.64662654E+03</pdfrwt>
<totfact> 0.54070157E+01</totfact>
</mgrwt>
</event>
<event>
 4    1  0.4774032E-002  0.4213974E+03  0.7818608E-02  0.1036612E+00
         21   -1    0    0  503  502  0.00000000000E+00  0.00000000000E+00  0.98472137595E+03  0.98472137595E+03  0.00000000000E+00 0. -1.
         21   -1    0    0  501  503 -0.00000000000E+00 -0.00000000000E+00 -0.18130612837E+03  0.18130612837E+03  0.00000000000E+00 0. -1.
    9000005    1    1    2  501    0 -0.11938468698E+03  0.57645990822E+02  0.44446484679E+03  0.61247429642E+03  0.40000000000E+03 0. -1.
   -9000005    1    1    2    0  502  0.11938468698E+03 -0.57645990822E+02  0.35895040079E+03  0.55355320789E+03  0.40000000000E+03 0. -1.
<mgrwt>
<rscale>  2 0.42139739E+03</rscale>
<asrwt>0</asrwt>
<pdfrwt beam="1">  1       21 0.15149559E+00 0.42139739E+03</pdfrwt>
<pdfrwt beam="2">  1       21 0.27893251E-01 0.42139739E+03</pdfrwt>
<totfact> 0.31188220E+03</totfact>
</mgrwt>
</event>
<event>
 4    1  0.4774032E-002  0.4573997E+03  0.7818608E-02  0.1025538E+00
         21   -1    0    0  503  502  0.00000000000E+00  0.00000000000E+00  0.11680495527E+04  0.11680495527E+04  0.00000000000E+00 0. -1.
         21   -1    0    0  501  503 -0.00000000000E+00 -0.00000000000E+00 -0.30483640259E+03  0.30483640259E+03  0.00000000000E+00 0. -1.
    9000005    1    1    2  501    0  0.21396065219E+03 -0.58611727060E+02 -0.41339206181E+02  0.45926400382E+03  0.40000000000E+03 0. -1.
   -9000005    1    1    2    0  502 -0.21396065219E+03  0.58611727060E+02  0.90455235626E+03  0.10136219514E+04  0.40000000000E+03 0. -1.
<mgrwt>
<rscale>  2 0.45739971E+03</rscale>
<asrwt>0</asrwt>
<pdfrwt beam="1">  1       21 0.17969993E+00 0.45739971E+03</pdfrwt>
<pdfrwt beam="2">  1       21 0.46897909E-01 0.45739971E+03</pdfrwt>
<totfact> 0.65997527E+02</totfact>
</mgrwt>
</event>
<event>
 4    1  0.4774032E-002  0.4191859E+03  0.7818608E-02  0.1037332E+00
         21   -1    0    0  501  502  0.00000000000E+00  0.00000000000E+00  0.10777870924E+04  0.10777870924E+04  0.00000000000E+00 0. -1.
         21   -1    0    0  502  503 -0.00000000000E+00 -0.00000000000E+00 -0.19292169231E+03  0.19292169231E+03  0.00000000000E+00 0. -1.
    9000005    1    1    2  501    0  0.46768528288E+02  0.11631655781E+03  0.69250503931E+03  0.80949370988E+03  0.40000000000E+03 0. -1.
   -9000005    1    1    2    0  503 -0.46768528288E+02 -0.11631655781E+03  0.19236036080E+03  0.46121507485E+03  0.40000000000E+03 0. -1.
<mgrwt>
<rscale>  2 0.41918592E+03</rscale>
<asrwt>0</asrwt>
<pdfrwt beam="1">  1       21 0.16581340E+00 0.41918592E+03</pdfrwt>
<pdfrwt beam="2">  1       21 0.29680261E-01 0.41918592E+03</pdfrwt>
<totfact> 0.21507206E+03</totfact>
</mgrwt>
</event>
<event>
 4    1  0.4774032E-002  0.4157632E+03  0.7818608E-02  0.1038454E+00
         21   -1    0    0  501  502  0.00000000000E+00  0.00000000000E+00  0.25414347101E+04  0.25414347101E+04  0.00000000000E+00 0. -1.
         21   -1    0    0  502  503 -0.00000000000E+00 -0.00000000000E+00 -0.72528619378E+02  0.72528619378E+02  0.00000000000E+00 0. -1.
    9000005    1    1    2  501    0 -0.69806310518E+02 -0.89365052456E+02  0.90845589932E+03  0.99907514963E+03  0.40000000000E+03 0. -1.
   -9000005    1    1    2    0  503  0.69806310518E+02  0.89365052456E+02  0.15604501914E+04  0.16148881799E+04  0.40000000000E+03 0. -1.
<mgrwt>
<rscale>  2 0.41576319E+03</rscale>
<asrwt>0</asrwt>
<pdfrwt beam="1">  1       21 0.39098989E+00 0.41576319E+03</pdfrwt>
<pdfrwt beam="2">  1       21 0.11158251E-01 0.41576319E+03</pdfrwt>
<totfact> 0.52616789E+02</totfact>
</mgrwt>
</event>
<event>
 4    1  0.4774032E-002  0.4603280E+03  0.7818608E-02  0.1024686E+00
         21   -1    0    0  501  502  0.00000000000E+00  0.00000000000E+00  0.29089135427E+03  0.29089135427E+03  0.00000000000E+00 0. -1.
         21   -1    0    0  502  503 -0.00000000000E+00 -0.00000000000E+00 -0.17506864569E+04  0.17506864569E+04  0.00000000000E+00 0. -1.
    9000005    1    1    2  501    0 -0.20260319802E+02  0.22691718144E+03  0.50122772321E+02  0.46304878803E+03  0.40000000000E+03 0. -1.
   -9000005    1    1    2    0  503  0.20260319802E+02 -0.22691718144E+03 -0.15099178750E+04  0.15785290232E+04  0.40000000000E+03 0. -1.
<mgrwt>
<rscale>  2 0.46032802E+03</rscale>
<asrwt>0</asrwt>
<pdfrwt beam="1">  1       21 0.44752516E-01 0.46032802E+03</pdfrwt>
<pdfrwt beam="2">  1       21 0.26933638E+00 0.46032802E+03</pdfrwt>
<totfact> 0.19322320E+02</totfact>
</mgrwt>
</event>
<event>
 4    1  0.4774032E-002  0.4470862E+03  0.7818608E-02  0.1028595E+00
         21   -1    0    0  501  502  0.00000000000E+00  0.00000000000E+00  0.80605708164E+03  0.80605708164E+03  0.00000000000E+00 0.  1.
         21   -1    0    0  502  503 -0.00000000000E+00 -0.00000000000E+00 -0.67696955374E+03  0.67696955374E+03  0.00000000000E+00 0.  1.
    9000005    1    1    2  501    0 -0.11618146372E+03 -0.16244370230E+03  0.65482327866E+03  0.79289319281E+03  0.40000000000E+03 0.  1.
   -9000005    1    1    2    0  503  0.11618146372E+03  0.16244370230E+03 -0.52573575076E+03  0.69013344257E+03  0.40000000000E+03 0.  1.
<mgrwt>
<rscale>  2 0.44708622E+03</rscale>
<asrwt>0</asrwt>
<pdfrwt beam="1">  1       21 0.12400878E+00 0.44708622E+03</pdfrwt>
<pdfrwt beam="2">  1       21 0.10414916E+00 0.44708622E+03</pdfrwt>
<totfact> 0.29990069E+02</totfact>
</mgrwt>
</event>
<event>
 4    1  0.4774032E-002  0.4679428E+03  0.7818608E-02  0.1022502E+00
         21   -1    0    0  501  502  0.00000000000E+00  0.00000000000E+00  0.35684398153E+03  0.35684398153E+03  0.00000000000E+00 0. -1.
         21   -1    0    0  502  503 -0.00000000000E+00 -0.00000000000E+00 -0.12039331049E+04  0.12039331049E+04  0.00000000000E+00 0. -1.
    9000005    1    1    2  501    0 -0.82522511646E+01 -0.24269805074E+03  0.12290107308E+03  0.48381310157E+03  0.40000000000E+03 0. -1.
   -9000005    1    1    2    0  503  0.82522511646E+01  0.24269805074E+03 -0.96999019645E+03  0.10769639849E+04  0.40000000000E+03 0. -1.
<mgrwt>
<rscale>  2 0.46794278E+03</rscale>
<asrwt>0</asrwt>
<pdfrwt beam="1">  1       21 0.54899074E-01 0.46794278E+03</pdfrwt>
<pdfrwt beam="2">  1       21 0.18522048E+00 0.46794278E+03</pdfrwt>
<totfact> 0.42931408E+02</totfact>
</mgrwt>
</event>
<event>
 4    1  0.4774032E-002  0.4337694E+03  0.7818608E-02  0.1032676E+00
         21   -1    0    0  501  502  0.00000000000E+00  0.00000000000E+00  0.24706976303E+03  0.24706976303E+03  0.00000000000E+00 0.  1.
         21   -1    0    0  502  503 -0.00000000000E+00 -0.00000000000E+00 -0.89636869635E+03  0.89636869635E+03  0.00000000000E+00 0. -1.
    9000005    1    1    2  501    0  0.12625945411E+03 -0.11051902702E+03 -0.10292429671E+03  0.44581309530E+03  0.40000000000E+03 0.  1.
   -9000005    1    1    2    0  503 -0.12625945411E+03  0.11051902702E+03 -0.54637463661E+03  0.69762536409E+03  0.40000000000E+03 0. -1.
<mgrwt>
<rscale>  2 0.43376941E+03</rscale>
<asrwt>0</asrwt>
<pdfrwt beam="1">  1       21 0.38010733E-01 0.43376941E+03</pdfrwt>
<pdfrwt beam="2">  1       21 0.13790288E+00 0.43376941E+03</pdfrwt>
<totfact> 0.21474232E+03</totfact>
</mgrwt>
</event>
<event>
 4    1  0.4774032E-002  0.8419355E+03  0.7818608E-02  0.9501225E-01
         21   -1    0    0  503  502  0.00000000000E+00  0.00000000000E+00  0.65156470789E+03  0.65156470789E+03  0.00000000000E+00 0. -1.
         21   -1    0    0  501  503 -0.00000000000E+00 -0.00000000000E+00 -0.11152510526E+04  0.11152510526E+04  0.00000000000E+00 0.  1.
    9000005    1    1    2  501    0 -0.24336714037E+03  0.69973410993E+03 -0.37011725182E+03  0.91969678139E+03  0.40000000000E+03 0. -1.
   -9000005    1    1    2    0  502  0.24336714037E+03 -0.69973410993E+03 -0.93569092900E+02  0.84711897910E+03  0.40000000000E+03 0. -1.
<mgrwt>
<rscale>  2 0.84193550E+03</rscale>
<asrwt>0</asrwt>
<pdfrwt beam="1">  1       21 0.10024072E+00 0.84193550E+03</pdfrwt>
<pdfrwt beam="2">  1       21 0.17157708E+00 0.84193550E+03</pdfrwt>
<totfact> 0.11791472E+02</totfact>
</mgrwt>
</event>
<event>
 4    1  0.4774032E-002  0.4852933E+03  0.7818608E-02  0.1017690E+00
         21   -1    0    0  501  502  0.00000000000E+00  0.00000000000E+00  0.17339366373E+04  0.17339366373E+04  0.00000000000E+00 0.  1.
         21   -1    0    0  502  503 -0.00000000000E+00 -0.00000000000E+00 -0.13594282970E+03  0.13594282970E+03  0.00000000000E+00 0.  1.
    9000005    1    1    2  501    0 -0.64786646262E+02 -0.26704361771E+03  0.82667946373E+03  0.95859717246E+03  0.40000000000E+03 0.  1.
   -9000005    1    1    2    0  503  0.64786646262E+02  0.26704361771E+03  0.77131434389E+03  0.91128229457E+03  0.40000000000E+03 0.  1.
<mgrwt>
<rscale>  2 0.48529332E+03</rscale>
<asrwt>0</asrwt>
<pdfrwt beam="1">  1       21 0.26675947E+00 0.48529332E+03</pdfrwt>
<pdfrwt beam="2">  1       21 0.20914283E-01 0.48529332E+03</pdfrwt>
<totfact> 0.90287292E+02</totfact>
</mgrwt>
</event>
<event>
 4    1  0.4774032E-002  0.4765103E+03  0.7818608E-02  0.1020099E+00
         21   -1    0    0  501  502  0.00000000000E+00  0.00000000000E+00  0.51204127485E+03  0.51204127485E+03  0.00000000000E+00 0.  1.
         21   -1    0    0  502  503 -0.00000000000E+00 -0.00000000000E+00 -0.44453034935E+03  0.44453034935E+03  0.00000000000E+00 0. -1.
    9000005    1    1    2  501    0  0.25891888910E+03 -0.48064592736E+01  0.57389672103E+02  0.47995381825E+03  0.40000000000E+03 0. -1.
   -9000005    1    1    2    0  503 -0.25891888910E+03  0.48064592736E+01  0.10121253394E+02  0.47661780596E+03  0.40000000000E+03 0.  1.
<mgrwt>
<rscale>  2 0.47651033E+03</rscale>
<asrwt>0</asrwt>
<pdfrwt beam="1">  1       21 0.78775580E-01 0.47651033E+03</pdfrwt>
<pdfrwt beam="2">  1       21 0.68389285E-01 0.47651033E+03</pdfrwt>
<totfact> 0.23849138E+03</totfact>
</mgrwt>
</event>
<event>
 4    1  0.4774032E-002  0.4305548E+03  0.7818608E-02  0.1033685E+00
         21   -1    0    0  501  502  0.00000000000E+00  0.00000000000E+00  0.33093784839E+03  0.33093784839E+03  0.00000000000E+00 0.  1.
         21   -1    0    0  502  503 -0.00000000000E+00 -0.00000000000E+00 -0.56046917411E+03  0.56046917411E+03  0.00000000000E+00 0.  1.
    9000005    1    1    2  501    0 -0.15930165133E+03  0.61689774233E+00 -0.10425925025E+03  0.44299818052E+03  0.40000000000E+03 0.  1.
   -9000005    1    1    2    0  503  0.15930165133E+03 -0.61689774233E+00 -0.12527207546E+03  0.44840884198E+03  0.40000000000E+03 0.  1.
<mgrwt>
<rscale>  2 0.43055475E+03</rscale>
<asrwt>0</asrwt>
<pdfrwt beam="1">  1       21 0.50913515E-01 0.43055475E+03</pdfrwt>
<pdfrwt beam="2">  1       21 0.86226026E-01 0.43055475E+03</pdfrwt>
<totfact> 0.37448642E+03</totfact>
</mgrwt>
</event>
<event>
 4    1  0.4774032E-002  0.4307380E+03  0.7818608E-02  0.1033627E+00
         21   -1    0    0  501  502  0.00000000000E+00  0.00000000000E+00  0.52311350685E+03  0.52311350685E+03  0.00000000000E+00 0. -1.
         21   -1    0    0  502  503 -0.00000000000E+00 -0.00000000000E+00 -0.67945934818E+03  0.67945934818E+03  0.00000000000E+00 0. -1.
    9000005    1    1    2  501    0  0.70208795163E+02 -0.14354776037E+03  0.33754358663E+03  0.54723935102E+03  0.40000000000E+03 0. -1.
   -9000005    1    1    2    0  503 -0.70208795163E+02  0.14354776037E+03 -0.49388942797E+03  0.65533350401E+03  0.40000000000E+03 0. -1.
<mgrwt>
<rscale>  2 0.43073801E+03</rscale>
<asrwt>0</asrwt>
<pdfrwt beam="1">  1       21 0.80479001E-01 0.43073801E+03</pdfrwt>
<pdfrwt beam="2">  1       21 0.10453221E+00 0.43073801E+03</pdfrwt>
<totfact> 0.85573083E+02</totfact>
</mgrwt>
</event>
<event>
 4    1  0.4774032E-002  0.6426862E+03  0.7818608E-02  0.9820601E-01
         21   -1    0    0  503  502  0.00000000000E+00  0.00000000000E+00  0.16887247395E+03  0.16887247395E+03  0.00000000000E+00 0.  1.
         21   -1    0    0  501  503 -0.00000000000E+00 -0.00000000000E+00 -0.26002285690E+04  0.26002285690E+04  0.00000000000E+00 0. -1.
    9000005    1    1    2  501    0 -0.40982952154E+02  0.50136414722E+03 -0.15529829520E+04  0.16807146277E+04  0.40000000000E+03 0. -1.
   -9000005    1    1    2    0  502  0.40982952154E+02 -0.50136414722E+03 -0.87837314299E+03  0.10883864152E+04  0.40000000000E+03 0.  1.
<mgrwt>
<rscale>  2 0.64268625E+03</rscale>
<asrwt>0</asrwt>
<pdfrwt beam="1">  1       21 0.25980382E-01 0.64268625E+03</pdfrwt>
<pdfrwt beam="2">  1       21 0.40003515E+00 0.64268625E+03</pdfrwt>
<totfact> 0.82452246E+01</totfact>
</mgrwt>
</event>
<event>
 4    1  0.4774032E-002  0.6443800E+03  0.7818608E-02  0.9817382E-01
         21   -1    0    0  501  502  0.00000000000E+00  0.00000000000E+00  0.84104934133E+03  0.84104934133E+03  0.00000000000E+00 0. -1.
         21   -1    0    0  502  503 -0.00000000000E+00 -0.00000000000E+00 -0.55467594844E+03  0.55467594844E+03  0.00000000000E+00 0. -1.
    9000005    1    1    2  501    0 -0.50488249979E+03 -0.17868761734E+02  0.37456966122E+03  0.74533754927E+03  0.40000000000E+03 0. -1.
   -9000005    1    1    2    0  503  0.50488249979E+03  0.17868761734E+02 -0.88196268323E+02  0.65038774050E+03  0.40000000000E+03 0. -1.
<mgrwt>
<rscale>  2 0.64438004E+03</rscale>
<asrwt>0</asrwt>
<pdfrwt beam="1">  1       21 0.12939221E+00 0.64438004E+03</pdfrwt>
<pdfrwt beam="2">  1       21 0.85334761E-01 0.64438004E+03</pdfrwt>
<totfact> 0.40170563E+02</totfact>
</mgrwt>
</event>
<event>
 4    1  0.4774032E-002  0.4321614E+03  0.7818608E-02  0.1033179E+00
         21   -1    0    0  501  502  0.00000000000E+00  0.00000000000E+00  0.11722919779E+04  0.11722919779E+04  0.00000000000E+00 0. -1.
         21   -1    0    0  502  503 -0.00000000000E+00 -0.00000000000E+00 -0.24424629322E+03  0.24424629322E+03  0.00000000000E+00 0. -1.
    9000005    1    1    2  501    0 -0.10064632181E+03 -0.12897199747E+03  0.46366852543E+02  0.43464162622E+03  0.40000000000E+03 0. -1.
   -9000005    1    1    2    0  503  0.10064632181E+03  0.12897199747E+03  0.88167883216E+03  0.98189664492E+03  0.40000000000E+03 0. -1.
<mgrwt>
<rscale>  2 0.43216138E+03</rscale>
<asrwt>0</asrwt>
<pdfrwt beam="1">  1       21 0.18035261E+00 0.43216138E+03</pdfrwt>
<pdfrwt beam="2">  1       21 0.37576353E-01 0.43216138E+03</pdfrwt>
<totfact> 0.10460664E+03</totfact>
</mgrwt>
</event>
<event>
 4    1  0.4774032E-002  0.5028612E+03  0.7818608E-02  0.1013035E+00
         21   -1    0    0  501  502  0.00000000000E+00  0.00000000000E+00  0.28009421705E+03  0.28009421705E+03  0.00000000000E+00 0. -1.
         21   -1    0    0  502  503 -0.00000000000E+00 -0.00000000000E+00 -0.90348631106E+03  0.90348631106E+03  0.00000000000E+00 0. -1.
    9000005    1    1    2  501    0 -0.29095029577E+03  0.90649225062E+02 -0.29539816178E+03  0.58320616474E+03  0.40000000000E+03 0. -1.
   -9000005    1    1    2    0  503  0.29095029577E+03 -0.90649225062E+02 -0.32799393223E+03  0.60037436337E+03  0.40000000000E+03 0. -1.
<mgrwt>
<rscale>  2 0.50286117E+03</rscale>
<asrwt>0</asrwt>
<pdfrwt beam="1">  1       21 0.43091419E-01 0.50286117E+03</pdfrwt>
<pdfrwt beam="2">  1       21 0.13899789E+00 0.50286117E+03</pdfrwt>
<totfact> 0.15807617E+03</totfact>
</mgrwt>
</event>
<event>
 4    1  0.4774032E-002  0.4449378E+03  0.7818608E-02  0.1029242E+00
         21   -1    0    0  503  502  0.00000000000E+00  0.00000000000E+00  0.48067617332E+03  0.48067617332E+03  0.00000000000E+00 0. -1.
         21   -1    0    0  501  503 -0.00000000000E+00 -0.00000000000E+00 -0.59166317140E+03  0.59166317140E+03  0.00000000000E+00 0.  1.
    9000005    1    1    2  501    0  0.49411842011E+02 -0.18848896259E+03 -0.35106859905E+03  0.56676166101E+03  0.40000000000E+03 0.  1.
   -9000005    1    1    2    0  502 -0.49411842011E+02  0.18848896259E+03  0.24008160096E+03  0.50557768372E+03  0.40000000000E+03 0. -1.
<mgrwt>
<rscale>  2 0.44493777E+03</rscale>
<asrwt>0</asrwt>
<pdfrwt beam="1">  1       21 0.73950180E-01 0.44493777E+03</pdfrwt>
<pdfrwt beam="2">  1       21 0.91025103E-01 0.44493777E+03</pdfrwt>
<totfact> 0.14420936E+03</totfact>
</mgrwt>
</event>
<event>
 4    1  0.4774032E-002  0.4514743E+03  0.7818608E-02  0.1027283E+00
         21   -1    0    0  503  502  0.00000000000E+00  0.00000000000E+00  0.12090187145E+04  0.12090187145E+04  0.00000000000E+00 0. -1.
         21   -1    0    0  501  503 -0.00000000000E+00 -0.00000000000E+00 -0.16894697954E+03  0.16894697954E+03  0.00000000000E+00 0. -1.
    9000005    1    1    2  501    0 -0.18678710385E+03 -0.94549519010E+02  0.55168549281E+03  0.71287159902E+03  0.40000000000E+03 0. -1.
   -9000005    1    1    2    0  502  0.18678710385E+03  0.94549519010E+02  0.48838624212E+03  0.66509409500E+03  0.40000000000E+03 0. -1.
<mgrwt>
<rscale>  2 0.45147429E+03</rscale>
<asrwt>0</asrwt>
<pdfrwt beam="1">  1       21 0.18600287E+00 0.45147429E+03</pdfrwt>
<pdfrwt beam="2">  1       21 0.25991844E-01 0.45147429E+03</pdfrwt>
<totfact> 0.19770169E+03</totfact>
</mgrwt>
</event>
<event>
 4    1  0.4774032E-002  0.4307681E+03  0.7818608E-02  0.1033618E+00
         21   -1    0    0  503  502  0.00000000000E+00  0.00000000000E+00  0.26848888494E+03  0.26848888494E+03  0.00000000000E+00 0. -1.
         21   -1    0    0  501  503 -0.00000000000E+00 -0.00000000000E+00 -0.10093955329E+04  0.10093955329E+04  0.00000000000E+00 0.  1.
    9000005    1    1    2  501    0 -0.59560488405E+02  0.14837014831E+03 -0.72923033062E+03  0.84695810274E+03  0.40000000000E+03 0.  1.
   -9000005    1    1    2    0  502  0.59560488405E+02 -0.14837014831E+03 -0.11676317374E+02  0.43092631513E+03  0.40000000000E+03 0. -1.
<mgrwt>
<rscale>  2 0.43076810E+03</rscale>
<asrwt>0</asrwt>
<pdfrwt beam="1">  1       21 0.41305982E-01 0.43076810E+03</pdfrwt>
<pdfrwt beam="2">  1       21 0.15529162E+00 0.43076810E+03</pdfrwt>
<totfact> 0.13163156E+03</totfact>
</mgrwt>
</event>
<event>
 4    1  0.4774032E-002  0.5490044E+03  0.7818608E-02  0.1001725E+00
         21   -1    0    0  503  502  0.00000000000E+00  0.00000000000E+00  0.29929203707E+03  0.29929203707E+03  0.00000000000E+00 0. -1.
         21   -1    0    0  501  503 -0.00000000000E+00 -0.00000000000E+00 -0.17689921301E+04  0.17689921301E+04  0.00000000000E+00 0. -1.
    9000005    1    1    2  501    0 -0.31439692198E+03  0.20630176954E+03 -0.14135450281E+04  0.15164153096E+04  0.40000000000E+03 0. -1.
   -9000005    1    1    2    0  502  0.31439692198E+03 -0.20630176954E+03 -0.56155064936E+02  0.55186885759E+03  0.40000000000E+03 0. -1.
<mgrwt>
<rscale>  2 0.54900441E+03</rscale>
<asrwt>0</asrwt>
<pdfrwt beam="1">  1       21 0.46044930E-01 0.54900441E+03</pdfrwt>
<pdfrwt beam="2">  1       21 0.27215263E+00 0.54900441E+03</pdfrwt>
<totfact> 0.16699527E+02</totfact>
</mgrwt>
</event>
<event>
 4    1  0.4774032E-002  0.5592150E+03  0.7818608E-02  0.9993832E-01
         21   -1    0    0  501  502  0.00000000000E+00  0.00000000000E+00  0.88909797257E+03  0.88909797257E+03  0.00000000000E+00 0. -1.
         21   -1    0    0  502  503 -0.00000000000E+00 -0.00000000000E+00 -0.51854857486E+03  0.51854857486E+03  0.00000000000E+00 0.  1.
    9000005    1    1    2  501    0 -0.59270444895E+02  0.38627503015E+03  0.58447663140E+03  0.80890933807E+03  0.40000000000E+03 0. -1.
   -9000005    1    1    2    0  503  0.59270444895E+02 -0.38627503015E+03 -0.21392723369E+03  0.59873720936E+03  0.40000000000E+03 0.  1.
<mgrwt>
<rscale>  2 0.55921497E+03</rscale>
<asrwt>0</asrwt>
<pdfrwt beam="1">  1       21 0.13678430E+00 0.55921497E+03</pdfrwt>
<pdfrwt beam="2">  1       21 0.79776704E-01 0.55921497E+03</pdfrwt>
<totfact> 0.41830752E+02</totfact>
</mgrwt>
</event>
<event>
 4    1  0.4774032E-002  0.5175755E+03  0.7818608E-02  0.1009291E+00
         21   -1    0    0  503  502  0.00000000000E+00  0.00000000000E+00  0.13157642545E+04  0.13157642545E+04  0.00000000000E+00 0.  1.
         21   -1    0    0  501  503 -0.00000000000E+00 -0.00000000000E+00 -0.23239716723E+03  0.23239716723E+03  0.00000000000E+00 0. -1.
    9000005    1    1    2  501    0  0.32199278710E+03  0.64846481402E+02  0.81418912732E+03  0.96477373313E+03  0.40000000000E+03 0.  1.
   -9000005    1    1    2    0  502 -0.32199278710E+03 -0.64846481402E+02  0.26917795997E+03  0.58338768861E+03  0.40000000000E+03 0.  1.
<mgrwt>
<rscale>  2 0.51757552E+03</rscale>
<asrwt>0</asrwt>
<pdfrwt beam="1">  1       21 0.20242527E+00 0.51757552E+03</pdfrwt>
<pdfrwt beam="2">  1       21 0.35753411E-01 0.51757552E+03</pdfrwt>
<totfact> 0.78805234E+02</totfact>
</mgrwt>
</event>
<event>
 4    1  0.4774032E-002  0.4598408E+03  0.7818608E-02  0.1024827E+00
         21   -1    0    0  503  502  0.00000000000E+00  0.00000000000E+00  0.17835323053E+04  0.17835323053E+04  0.00000000000E+00 0. -1.
         21   -1    0    0  501  503 -0.00000000000E+00 -0.00000000000E+00 -0.24884973366E+03  0.24884973366E+03  0.00000000000E+00 0. -1.
    9000005    1    1    2  501    0 -0.16238788840E+03 -0.15837837490E+03  0.15026399552E+04  0.15714262219E+04  0.40000000000E+03 0. -1.
   -9000005    1    1    2    0  502  0.16238788840E+03  0.15837837490E+03  0.32042616351E+02  0.46095581697E+03  0.40000000000E+03 0. -1.
<mgrwt>
<rscale>  2 0.45984077E+03</rscale>
<asrwt>0</asrwt>
<pdfrwt beam="1">  1       21 0.27438958E+00 0.45984077E+03</pdfrwt>
<pdfrwt beam="2">  1       21 0.38284576E-01 0.45984077E+03</pdfrwt>
<totfact> 0.24888640E+02</totfact>
</mgrwt>
</event>
<event>
 4    1  0.4774032E-002  0.4242560E+03  0.7818608E-02  0.1035690E+00
         21   -1    0    0  501  502  0.00000000000E+00  0.00000000000E+00  0.76209138133E+03  0.76209138133E+03  0.00000000000E+00 0.  1.
         21   -1    0    0  502  503 -0.00000000000E+00 -0.00000000000E+00 -0.31705801830E+03  0.31705801830E+03  0.00000000000E+00 0.  1.
    9000005    1    1    2  501    0  0.79406704241E+02 -0.11699462888E+03  0.49503074093E+03  0.65195751574E+03  0.40000000000E+03 0.  1.
   -9000005    1    1    2    0  503 -0.79406704241E+02  0.11699462888E+03 -0.49997377903E+02  0.42719188389E+03  0.40000000000E+03 0.  1.
<mgrwt>
<rscale>  2 0.42425602E+03</rscale>
<asrwt>0</asrwt>
<pdfrwt beam="1">  1       21 0.11724483E+00 0.42425602E+03</pdfrwt>
<pdfrwt beam="2">  1       21 0.48778157E-01 0.42425602E+03</pdfrwt>
<totfact> 0.19497352E+03</totfact>
</mgrwt>
</event>
<event>
 4    1  0.4774032E-002  0.4192041E+03  0.7818608E-02  0.1037326E+00
         21   -1    0    0  503  502  0.00000000000E+00  0.00000000000E+00  0.68805873025E+03  0.68805873025E+03  0.00000000000E+00 0.  1.
         21   -1    0    0  501  503 -0.00000000000E+00 -0.00000000000E+00 -0.25585304949E+03  0.25585304949E+03  0.00000000000E+00 0.  1.
    9000005    1    1    2  501    0 -0.71859908596E+02  0.10280196550E+03  0.19630317976E+03  0.46288986698E+03  0.40000000000E+03 0.  1.
   -9000005    1    1    2    0  502  0.71859908596E+02 -0.10280196550E+03  0.23590250101E+03  0.48102191276E+03  0.40000000000E+03 0.  1.
<mgrwt>
<rscale>  2 0.41920412E+03</rscale>
<asrwt>0</asrwt>
<pdfrwt beam="1">  1       21 0.10585519E+00 0.41920412E+03</pdfrwt>
<pdfrwt beam="2">  1       21 0.39362008E-01 0.41920412E+03</pdfrwt>
<totfact> 0.39369314E+03</totfact>
</mgrwt>
</event>
<event>
 4    1  0.4774032E-002  0.6028647E+03  0.7818608E-02  0.9899481E-01
         21   -1    0    0  501  502  0.00000000000E+00  0.00000000000E+00  0.11418493467E+04  0.11418493467E+04  0.00000000000E+00 0.  1.
         21   -1    0    0  502  503 -0.00000000000E+00 -0.00000000000E+00 -0.58652306345E+03  0.58652306345E+03  0.00000000000E+00 0.  1.
    9000005    1    1    2  501    0  0.18181718525E+03 -0.41278120221E+03  0.86207130140E+03  0.10519566238E+04  0.40000000000E+03 0.  1.
   -9000005    1    1    2    0  503 -0.18181718525E+03  0.41278120221E+03 -0.30674501818E+03  0.67641578628E+03  0.40000000000E+03 0.  1.
<mgrwt>
<rscale>  2 0.60286467E+03</rscale>
<asrwt>0</asrwt>
<pdfrwt beam="1">  1       21 0.17566913E+00 0.60286467E+03</pdfrwt>
<pdfrwt beam="2">  1       21 0.90234318E-01 0.60286467E+03</pdfrwt>
<totfact> 0.15356602E+02</totfact>
</mgrwt>
</event>
<event>
 4    1  0.4774032E-002  0.4006745E+03  0.7818608E-02  0.1043546E+00
         21   -1    0    0  501  502  0.00000000000E+00  0.00000000000E+00  0.43343810568E+03  0.43343810568E+03  0.00000000000E+00 0. -1.
         21   -1    0    0  502  503 -0.00000000000E+00 -0.00000000000E+00 -0.38559013962E+03  0.38559013962E+03  0.00000000000E+00 0. -1.
    9000005    1    1    2  501    0 -0.12466324176E+02 -0.19612763191E+02  0.10523791915E+03  0.41426451616E+03  0.40000000000E+03 0. -1.
   -9000005    1    1    2    0  503  0.12466324176E+02  0.19612763191E+02 -0.57389953092E+02  0.40476372915E+03  0.40000000000E+03 0. -1.
<mgrwt>
<rscale>  2 0.40067452E+03</rscale>
<asrwt>0</asrwt>
<pdfrwt beam="1">  1       21 0.66682786E-01 0.40067452E+03</pdfrwt>
<pdfrwt beam="2">  1       21 0.59321560E-01 0.40067452E+03</pdfrwt>
<totfact> 0.48969884E+03</totfact>
</mgrwt>
</event>
<event>
 4    1  0.4774032E-002  0.4909099E+03  0.7818608E-02  0.1016179E+00
         21   -1    0    0  501  502  0.00000000000E+00  0.00000000000E+00  0.19187322528E+04  0.19187322528E+04  0.00000000000E+00 0. -1.
         21   -1    0    0  502  503 -0.00000000000E+00 -0.00000000000E+00 -0.19976201444E+03  0.19976201444E+03  0.00000000000E+00 0. -1.
    9000005    1    1    2  501    0 -0.94916185206E+02 -0.26829729652E+03  0.15048896094E+04  0.15829356456E+04  0.40000000000E+03 0. -1.
   -9000005    1    1    2    0  503  0.94916185206E+02  0.26829729652E+03  0.21408062894E+03  0.53555862165E+03  0.40000000000E+03 0. -1.
<mgrwt>
<rscale>  2 0.49090989E+03</rscale>
<asrwt>0</asrwt>
<pdfrwt beam="1">  1       21 0.29518956E+00 0.49090989E+03</pdfrwt>
<pdfrwt beam="2">  1       21 0.30732619E-01 0.49090989E+03</pdfrwt>
<totfact> 0.28558047E+02</totfact>
</mgrwt>
</event>
<event>
 4    1  0.4774032E-002  0.4746764E+03  0.7818608E-02  0.1020609E+00
         21   -1    0    0  503  502  0.00000000000E+00  0.00000000000E+00  0.32558943695E+03  0.32558943695E+03  0.00000000000E+00 0.  1.
         21   -1    0    0  501  503 -0.00000000000E+00 -0.00000000000E+00 -0.69537507950E+03  0.69537507950E+03  0.00000000000E+00 0.  1.
    9000005    1    1    2  501    0 -0.80474260753E+01 -0.25544646911E+03 -0.14948705519E+03  0.49765855696E+03  0.40000000000E+03 0.  1.
   -9000005    1    1    2    0  502  0.80474260753E+01  0.25544646911E+03 -0.22029858737E+03  0.52330595950E+03  0.40000000000E+03 0.  1.
<mgrwt>
<rscale>  2 0.47467637E+03</rscale>
<asrwt>0</asrwt>
<pdfrwt beam="1">  1       21 0.50090683E-01 0.47467637E+03</pdfrwt>
<pdfrwt beam="2">  1       21 0.10698078E+00 0.47467637E+03</pdfrwt>
<totfact> 0.22710115E+03</totfact>
</mgrwt>
</event>
<event>
 4    1  0.4774032E-002  0.4486680E+03  0.7818608E-02  0.1028120E+00
         21   -1    0    0  501  502  0.00000000000E+00  0.00000000000E+00  0.54472907954E+03  0.54472907954E+03  0.00000000000E+00 0.  1.
         21   -1    0    0  502  503 -0.00000000000E+00 -0.00000000000E+00 -0.44223756203E+03  0.44223756203E+03  0.00000000000E+00 0.  1.
    9000005    1    1    2  501    0  0.24245965548E+02  0.20177979663E+03  0.25131665589E+03  0.51425967633E+03  0.40000000000E+03 0.  1.
   -9000005    1    1    2    0  503 -0.24245965548E+02 -0.20177979663E+03 -0.14882513838E+03  0.47270696524E+03  0.40000000000E+03 0.  1.
<mgrwt>
<rscale>  2 0.44866798E+03</rscale>
<asrwt>0</asrwt>
<pdfrwt beam="1">  1       21 0.83804474E-01 0.44866798E+03</pdfrwt>
<pdfrwt beam="2">  1       21 0.68036548E-01 0.44866798E+03</pdfrwt>
<totfact> 0.21112068E+03</totfact>
</mgrwt>
</event>
<event>
 4    1  0.4774032E-002  0.4581088E+03  0.7818608E-02  0.1025331E+00
         21   -1    0    0  501  502  0.00000000000E+00  0.00000000000E+00  0.65189250547E+03  0.65189250547E+03  0.00000000000E+00 0.  1.
         21   -1    0    0  502  503 -0.00000000000E+00 -0.00000000000E+00 -0.34950598168E+03  0.34950598168E+03  0.00000000000E+00 0.  1.
    9000005    1    1    2  501    0 -0.96891318821E+02  0.20118593602E+03  0.10551054959E+02  0.45823032776E+03  0.40000000000E+03 0.  1.
   -9000005    1    1    2    0  503  0.96891318821E+02 -0.20118593602E+03  0.29183546883E+03  0.54316815940E+03  0.40000000000E+03 0.  1.
<mgrwt>
<rscale>  2 0.45810884E+03</rscale>
<asrwt>0</asrwt>
<pdfrwt beam="1">  1       21 0.10029115E+00 0.45810884E+03</pdfrwt>
<pdfrwt beam="2">  1       21 0.53770151E-01 0.45810884E+03</pdfrwt>
<totfact> 0.23003684E+03</totfact>
</mgrwt>
</event>
<event>
 4    1  0.4774032E-002  0.4459419E+03  0.7818608E-02  0.1028939E+00
         21   -1    0    0  501  502  0.00000000000E+00  0.00000000000E+00  0.57608533217E+03  0.57608533217E+03  0.00000000000E+00 0.  1.
         21   -1    0    0  502  503 -0.00000000000E+00 -0.00000000000E+00 -0.35593277184E+03  0.35593277184E+03  0.00000000000E+00 0.  1.
    9000005    1    1    2  501    0 -0.13156748719E+01 -0.19713570024E+03  0.29151446971E+02  0.44689374819E+03  0.40000000000E+03 0.  1.
   -9000005    1    1    2    0  503  0.13156748719E+01  0.19713570024E+03  0.19100111336E+03  0.48512435582E+03  0.40000000000E+03 0.  1.
<mgrwt>
<rscale>  2 0.44594194E+03</rscale>
<asrwt>0</asrwt>
<pdfrwt beam="1">  1       21 0.88628513E-01 0.44594194E+03</pdfrwt>
<pdfrwt beam="2">  1       21 0.54758888E-01 0.44594194E+03</pdfrwt>
<totfact> 0.29865906E+03</totfact>
</mgrwt>
</event>
<event>
 4    1  0.4774032E-002  0.4070690E+03  0.7818608E-02  0.1041359E+00
         21   -1    0    0  501  502  0.00000000000E+00  0.00000000000E+00  0.61129433424E+03  0.61129433424E+03  0.00000000000E+00 0. -1.
         21   -1    0    0  502  503 -0.00000000000E+00 -0.00000000000E+00 -0.39692594866E+03  0.39692594866E+03  0.00000000000E+00 0. -1.
    9000005    1    1    2  501    0 -0.74255450744E+02  0.13830644592E+02  0.39104343341E+03  0.56446445903E+03  0.40000000000E+03 0. -1.
   -9000005    1    1    2    0  503  0.74255450744E+02 -0.13830644592E+02 -0.17667504783E+03  0.44375582387E+03  0.40000000000E+03 0. -1.
<mgrwt>
<rscale>  2 0.40706899E+03</rscale>
<asrwt>0</asrwt>
<pdfrwt beam="1">  1       21 0.94045282E-01 0.40706899E+03</pdfrwt>
<pdfrwt beam="2">  1       21 0.61065531E-01 0.40706899E+03</pdfrwt>
<totfact> 0.20776802E+03</totfact>
</mgrwt>
</event>
<event>
 4    1  0.4774032E-002  0.5572848E+03  0.7818608E-02  0.9998217E-01
         21   -1    0    0  503  502  0.00000000000E+00  0.00000000000E+00  0.12883396741E+04  0.12883396741E+04  0.00000000000E+00 0.  1.
         21   -1    0    0  501  503 -0.00000000000E+00 -0.00000000000E+00 -0.27662622468E+03  0.27662622468E+03  0.00000000000E+00 0. -1.
    9000005    1    1    2  501    0  0.18595514966E+02 -0.38758289753E+03  0.78643316233E+03  0.96386898199E+03  0.40000000000E+03 0.  1.
   -9000005    1    1    2    0  502 -0.18595514966E+02  0.38758289753E+03  0.22528028709E+03  0.60109691680E+03  0.40000000000E+03 0. -1.
<mgrwt>
<rscale>  2 0.55728475E+03</rscale>
<asrwt>0</asrwt>
<pdfrwt beam="1">  1       21 0.19820610E+00 0.55728475E+03</pdfrwt>
<pdfrwt beam="2">  1       21 0.42557881E-01 0.55728475E+03</pdfrwt>
<totfact> 0.57834243E+02</totfact>
</mgrwt>
</event>
<event>
 4    1  0.4774032E-002  0.7922110E+03  0.7818608E-02  0.9571360E-01
         21   -1    0    0  503  502  0.00000000000E+00  0.00000000000E+00  0.65353776305E+03  0.65353776305E+03  0.00000000000E+00 0. -1.
         21   -1    0    0  501  503 -0.00000000000E+00 -0.00000000000E+00 -0.25175450822E+04  0.25175450822E+04  0.00000000000E+00 0.  1.
    9000005    1    1    2  501    0 -0.55052786716E+03 -0.40560743952E+03 -0.21790028321E+04  0.23185451623E+04  0.40000000000E+03 0.  1.
   -9000005    1    1    2    0  502  0.55052786716E+03  0.40560743952E+03  0.31499551298E+03  0.85253768287E+03  0.40000000000E+03 0. -1.
<mgrwt>
<rscale>  2 0.79221104E+03</rscale>
<asrwt>0</asrwt>
<pdfrwt beam="1">  1       21 0.10054427E+00 0.79221104E+03</pdfrwt>
<pdfrwt beam="2">  1       21 0.38731463E+00 0.79221104E+03</pdfrwt>
<totfact> 0.49014227E+00</totfact>
</mgrwt>
</event>
<event>
 4    1  0.4774032E-002  0.4439819E+03  0.7818608E-02  0.1029532E+00
         21   -1    0    0  501  502  0.00000000000E+00  0.00000000000E+00  0.14193065908E+04  0.14193065908E+04  0.00000000000E+00 0.  1.
         21   -1    0    0  502  503 -0.00000000000E+00 -0.00000000000E+00 -0.16125423825E+03  0.16125423825E+03  0.00000000000E+00 0.  1.
    9000005    1    1    2  501    0 -0.48033631558E+02  0.18658152136E+03  0.92336983287E+03  0.10245641718E+04  0.40000000000E+03 0.  1.
   -9000005    1    1    2    0  503  0.48033631558E+02 -0.18658152136E+03  0.33468251965E+03  0.55599665721E+03  0.40000000000E+03 0.  1.
<mgrwt>
<rscale>  2 0.44398186E+03</rscale>
<asrwt>0</asrwt>
<pdfrwt beam="1">  1       21 0.21835485E+00 0.44398186E+03</pdfrwt>
<pdfrwt beam="2">  1       21 0.24808345E-01 0.44398186E+03</pdfrwt>
<totfact> 0.13241479E+03</totfact>
</mgrwt>
</event>
<event>
 4    1  0.4774032E-002  0.4040073E+03  0.7818608E-02  0.1042401E+00
         21   -1    0    0  501  502  0.00000000000E+00  0.00000000000E+00  0.13253318345E+04  0.13253318345E+04  0.00000000000E+00 0. -1.
         21   -1    0    0  502  503 -0.00000000000E+00 -0.00000000000E+00 -0.16192214610E+03  0.16192214610E+03  0.00000000000E+00 0. -1.
    9000005    1    1    2  501    0 -0.12262899785E+02 -0.55421047847E+02  0.94556229710E+03  0.10282557702E+04  0.40000000000E+03 0.  1.
   -9000005    1    1    2    0  503  0.12262899785E+02  0.55421047847E+02  0.21784739132E+03  0.45899821041E+03  0.40000000000E+03 0.  1.
<mgrwt>
<rscale>  2 0.40400727E+03</rscale>
<asrwt>0</asrwt>
<pdfrwt beam="1">  1       21 0.20389720E+00 0.40400727E+03</pdfrwt>
<pdfrwt beam="2">  1       21 0.24911100E-01 0.40400727E+03</pdfrwt>
<totfact> 0.16617240E+03</totfact>
</mgrwt>
</event>
<event>
 4    1  0.4774032E-002  0.4039235E+03  0.7818608E-02  0.1042430E+00
         21   -1    0    0  501  502  0.00000000000E+00  0.00000000000E+00  0.87371079662E+02  0.87371079662E+02  0.00000000000E+00 0.  1.
         21   -1    0    0  502  503 -0.00000000000E+00 -0.00000000000E+00 -0.23373871524E+04  0.23373871524E+04  0.00000000000E+00 0.  1.
    9000005    1    1    2  501    0  0.51918960563E+02 -0.21415988252E+02 -0.58134538583E+03  0.70789595326E+03  0.40000000000E+03 0.  1.
   -9000005    1    1    2    0  503 -0.51918960563E+02  0.21415988252E+02 -0.16686706869E+04  0.17168622788E+04  0.40000000000E+03 0.  1.
<mgrwt>
<rscale>  2 0.40392354E+03</rscale>
<asrwt>0</asrwt>
<pdfrwt beam="1">  1       21 0.13441705E-01 0.40392354E+03</pdfrwt>
<pdfrwt beam="2">  1       21 0.35959800E+00 0.40392354E+03</pdfrwt>
<totfact> 0.59343420E+02</totfact>
</mgrwt>
</event>
<event>
 4    1  0.4774032E-002  0.6262663E+03  0.7818608E-02  0.9852362E-01
         21   -1    0    0  501  502  0.00000000000E+00  0.00000000000E+00  0.26044777341E+04  0.26044777341E+04  0.00000000000E+00 0. -1.
         21   -1    0    0  502  503 -0.00000000000E+00 -0.00000000000E+00 -0.23507437847E+03  0.23507437847E+03  0.00000000000E+00 0. -1.
    9000005    1    1    2  501    0 -0.47827432539E+03 -0.58848322580E+02  0.20358480805E+04  0.21299969160E+04  0.40000000000E+03 0. -1.
   -9000005    1    1    2    0  503  0.47827432539E+03  0.58848322580E+02  0.33355527517E+03  0.70955519658E+03  0.40000000000E+03 0. -1.
<mgrwt>
<rscale>  2 0.62626628E+03</rscale>
<asrwt>0</asrwt>
<pdfrwt beam="1">  1       21 0.40068886E+00 0.62626628E+03</pdfrwt>
<pdfrwt beam="2">  1       21 0.36165291E-01 0.62626628E+03</pdfrwt>
<totfact> 0.42387433E+01</totfact>
</mgrwt>
</event>
<event>
 4    1  0.4774032E-002  0.4471751E+03  0.7818608E-02  0.1028568E+00
         21   -1    0    0  501  502  0.00000000000E+00  0.00000000000E+00  0.41796681365E+03  0.41796681365E+03  0.00000000000E+00 0.  1.
         21   -1    0    0  502  503 -0.00000000000E+00 -0.00000000000E+00 -0.81044932069E+03  0.81044932069E+03  0.00000000000E+00 0.  1.
    9000005    1    1    2  501    0  0.12658673003E+03  0.15473002679E+03  0.19689023696E+03  0.48860141917E+03  0.40000000000E+03 0.  1.
   -9000005    1    1    2    0  503 -0.12658673003E+03 -0.15473002679E+03 -0.58937274400E+03  0.73981471517E+03  0.40000000000E+03 0.  1.
<mgrwt>
<rscale>  2 0.44717511E+03</rscale>
<asrwt>0</asrwt>
<pdfrwt beam="1">  1       21 0.64302587E-01 0.44717511E+03</pdfrwt>
<pdfrwt beam="2">  1       21 0.12468451E+00 0.44717511E+03</pdfrwt>
<totfact> 0.90777027E+02</totfact>
</mgrwt>
</event>
<event>
 4    1  0.4774032E-002  0.4499368E+03  0.7818608E-02  0.1027741E+00
         21   -1    0    0  501  502  0.00000000000E+00  0.00000000000E+00  0.52782148440E+03  0.52782148440E+03  0.00000000000E+00 0. -1.
         21   -1    0    0  502  503 -0.00000000000E+00 -0.00000000000E+00 -0.41715473159E+03  0.41715473159E+03  0.00000000000E+00 0. -1.
    9000005    1    1    2  501    0 -0.20471955423E+03  0.23086866808E+02  0.18944831857E+03  0.48819439234E+03  0.40000000000E+03 0. -1.
   -9000005    1    1    2    0  503  0.20471955423E+03 -0.23086866808E+02 -0.78781565762E+02  0.45678182364E+03  0.40000000000E+03 0. -1.
<mgrwt>
<rscale>  2 0.44993677E+03</rscale>
<asrwt>0</asrwt>
<pdfrwt beam="1">  1       21 0.81203305E-01 0.44993677E+03</pdfrwt>
<pdfrwt beam="2">  1       21 0.64177651E-01 0.44993677E+03</pdfrwt>
<totfact> 0.25862939E+03</totfact>
</mgrwt>
</event>
<event>
 4    1  0.4774032E-002  0.5251543E+03  0.7818608E-02  0.1007414E+00
         21   -1    0    0  501  502  0.00000000000E+00  0.00000000000E+00  0.17804972806E+03  0.17804972806E+03  0.00000000000E+00 0. -1.
         21   -1    0    0  502  503 -0.00000000000E+00 -0.00000000000E+00 -0.17406716855E+04  0.17406716855E+04  0.00000000000E+00 0. -1.
    9000005    1    1    2  501    0  0.32574685324E+02 -0.33871211525E+03 -0.10997153007E+04  0.12186717153E+04  0.40000000000E+03 0. -1.
   -9000005    1    1    2    0  503 -0.32574685324E+02  0.33871211525E+03 -0.46290665676E+03  0.70004969824E+03  0.40000000000E+03 0. -1.
<mgrwt>
<rscale>  2 0.52515427E+03</rscale>
<asrwt>0</asrwt>
<pdfrwt beam="1">  1       21 0.27392265E-01 0.52515427E+03</pdfrwt>
<pdfrwt beam="2">  1       21 0.26779565E+00 0.52515427E+03</pdfrwt>
<totfact> 0.51726190E+02</totfact>
</mgrwt>
</event>
<event>
 4    1  0.4774032E-002  0.5055194E+03  0.7818608E-02  0.1012348E+00
         21   -1    0    0  503  502  0.00000000000E+00  0.00000000000E+00  0.54650322888E+03  0.54650322888E+03  0.00000000000E+00 0.  1.
         21   -1    0    0  501  503 -0.00000000000E+00 -0.00000000000E+00 -0.47550218689E+03  0.47550218689E+03  0.00000000000E+00 0.  1.
    9000005    1    1    2  501    0 -0.14570073020E+03 -0.27261915853E+03 -0.30336338574E+02  0.50642887143E+03  0.40000000000E+03 0.  1.
   -9000005    1    1    2    0  502  0.14570073020E+03  0.27261915853E+03  0.10133738057E+03  0.51557654435E+03  0.40000000000E+03 0.  1.
<mgrwt>
<rscale>  2 0.50551944E+03</rscale>
<asrwt>0</asrwt>
<pdfrwt beam="1">  1       21 0.84077420E-01 0.50551944E+03</pdfrwt>
<pdfrwt beam="2">  1       21 0.73154182E-01 0.50551944E+03</pdfrwt>
<totfact> 0.17430972E+03</totfact>
</mgrwt>
</event>
<event>
 4    1  0.4774032E-002  0.6261435E+03  0.7818608E-02  0.9852604E-01
         21   -1    0    0  503  502  0.00000000000E+00  0.00000000000E+00  0.61981779670E+03  0.61981779670E+03  0.00000000000E+00 0.  1.
         21   -1    0    0  501  503 -0.00000000000E+00 -0.00000000000E+00 -0.67727119251E+03  0.67727119251E+03  0.00000000000E+00 0.  1.
    9000005    1    1    2  501    0  0.38483527665E+03 -0.28975409267E+03 -0.19541090385E+03  0.65592762231E+03  0.40000000000E+03 0.  1.
   -9000005    1    1    2    0  502 -0.38483527665E+03  0.28975409267E+03  0.13795750804E+03  0.64116136689E+03  0.40000000000E+03 0.  1.
<mgrwt>
<rscale>  2 0.62614345E+03</rscale>
<asrwt>0</asrwt>
<pdfrwt beam="1">  1       21 0.95356585E-01 0.62614345E+03</pdfrwt>
<pdfrwt beam="2">  1       21 0.10419557E+00 0.62614345E+03</pdfrwt>
<totfact> 0.53740039E+02</totfact>
</mgrwt>
</event>
<event>
 4    1  0.4774032E-002  0.5091406E+03  0.7818608E-02  0.1011420E+00
         21   -1    0    0  503  502  0.00000000000E+00  0.00000000000E+00  0.65494219325E+03  0.65494219325E+03  0.00000000000E+00 0.  1.
         21   -1    0    0  501  503 -0.00000000000E+00 -0.00000000000E+00 -0.45408961443E+03  0.45408961443E+03  0.00000000000E+00 0. -1.
    9000005    1    1    2  501    0  0.26782774963E+03  0.16580848486E+03 -0.98251801518E+02  0.51853406216E+03  0.40000000000E+03 0.  1.
   -9000005    1    1    2    0  502 -0.26782774963E+03 -0.16580848486E+03  0.29910438034E+03  0.59049774552E+03  0.40000000000E+03 0.  1.
<mgrwt>
<rscale>  2 0.50914061E+03</rscale>
<asrwt>0</asrwt>
<pdfrwt beam="1">  1       21 0.10076034E+00 0.50914061E+03</pdfrwt>
<pdfrwt beam="2">  1       21 0.69859940E-01 0.50914061E+03</pdfrwt>
<totfact> 0.12542545E+03</totfact>
</mgrwt>
</event>
<event>
 4    1  0.4774032E-002  0.4515450E+03  0.7818608E-02  0.1027262E+00
         21   -1    0    0  503  502  0.00000000000E+00  0.00000000000E+00  0.26474115018E+04  0.26474115018E+04  0.00000000000E+00 0.  1.
         21   -1    0    0  501  503 -0.00000000000E+00 -0.00000000000E+00 -0.11453251575E+03  0.11453251575E+03  0.00000000000E+00 0.  1.
    9000005    1    1    2  501    0 -0.13100030483E+03  0.16349877475E+03  0.47606671119E+03  0.65614971059E+03  0.40000000000E+03 0.  1.
   -9000005    1    1    2    0  502  0.13100030483E+03 -0.16349877475E+03  0.20568122749E+04  0.21057943070E+04  0.40000000000E+03 0.  1.
<mgrwt>
<rscale>  2 0.45154505E+03</rscale>
<asrwt>0</asrwt>
<pdfrwt beam="1">  1       21 0.40729403E+00 0.45154505E+03</pdfrwt>
<pdfrwt beam="2">  1       21 0.17620389E-01 0.45154505E+03</pdfrwt>
<totfact> 0.17394397E+02</totfact>
</mgrwt>
</event>
<event>
 4    1  0.4774032E-002  0.4164805E+03  0.7818608E-02  0.1038218E+00
         21   -1    0    0  503  502  0.00000000000E+00  0.00000000000E+00  0.83184589703E+02  0.83184589703E+02  0.00000000000E+00 0.  1.
         21   -1    0    0  501  503 -0.00000000000E+00 -0.00000000000E+00 -0.22113901057E+04  0.22113901057E+04  0.00000000000E+00 0. -1.
    9000005    1    1    2  501    0 -0.10714140006E+02  0.11550425008E+03 -0.79003235206E+03  0.89308854090E+03  0.40000000000E+03 0.  1.
   -9000005    1    1    2    0  502  0.10714140006E+02 -0.11550425008E+03 -0.13381731639E+04  0.14014861545E+04  0.40000000000E+03 0.  1.
<mgrwt>
<rscale>  2 0.41648052E+03</rscale>
<asrwt>0</asrwt>
<pdfrwt beam="1">  1       21 0.12797630E-01 0.41648052E+03</pdfrwt>
<pdfrwt beam="2">  1       21 0.34021383E+00 0.41648052E+03</pdfrwt>
<totfact> 0.84604487E+02</totfact>
</mgrwt>
</event>
<event>
 4    1  0.4774032E-002  0.4938571E+03  0.7818608E-02  0.1015395E+00
         21   -1    0    0  503  502  0.00000000000E+00  0.00000000000E+00  0.43336728387E+03  0.43336728387E+03  0.00000000000E+00 0.  1.
         21   -1    0    0  501  503 -0.00000000000E+00 -0.00000000000E+00 -0.56567537201E+03  0.56567537201E+03  0.00000000000E+00 0. -1.
    9000005    1    1    2  501    0  0.21712942541E+03 -0.19170200452E+03 -0.30479472705E+02  0.49479677058E+03  0.40000000000E+03 0. -1.
   -9000005    1    1    2    0  502 -0.21712942541E+03  0.19170200452E+03 -0.10182861544E+03  0.50424588530E+03  0.40000000000E+03 0.  1.
<mgrwt>
<rscale>  2 0.49385711E+03</rscale>
<asrwt>0</asrwt>
<pdfrwt beam="1">  1       21 0.66671890E-01 0.49385711E+03</pdfrwt>
<pdfrwt beam="2">  1       21 0.87026980E-01 0.49385711E+03</pdfrwt>
<totfact> 0.19896108E+03</totfact>
</mgrwt>
</event>
<event>
 4    1  0.4774032E-002  0.5935051E+03  0.7818608E-02  0.9918973E-01
         21   -1    0    0  501  502  0.00000000000E+00  0.00000000000E+00  0.85511643099E+03  0.85511643099E+03  0.00000000000E+00 0. -1.
         21   -1    0    0  502  503 -0.00000000000E+00 -0.00000000000E+00 -0.88825239451E+03  0.88825239451E+03  0.00000000000E+00 0.  1.
    9000005    1    1    2  501    0 -0.29815863159E+03  0.32148056984E+03  0.62175645738E+03  0.85955187084E+03  0.40000000000E+03 0. -1.
   -9000005    1    1    2    0  503  0.29815863159E+03 -0.32148056984E+03 -0.65489242091E+03  0.88381695466E+03  0.40000000000E+03 0.  1.
<mgrwt>
<rscale>  2 0.59350512E+03</rscale>
<asrwt>0</asrwt>
<pdfrwt beam="1">  1       21 0.13155637E+00 0.59350512E+03</pdfrwt>
<pdfrwt beam="2">  1       21 0.13665421E+00 0.59350512E+03</pdfrwt>
<totfact> 0.12074990E+02</totfact>
</mgrwt>
</event>
<event>
 4    1  0.4774032E-002  0.4071691E+03  0.7818608E-02  0.1041325E+00
         21   -1    0    0  503  502  0.00000000000E+00  0.00000000000E+00  0.55385037183E+03  0.55385037183E+03  0.00000000000E+00 0. -1.
         21   -1    0    0  501  503 -0.00000000000E+00 -0.00000000000E+00 -0.50409656574E+03  0.50409656574E+03  0.00000000000E+00 0. -1.
    9000005    1    1    2  501    0 -0.73833769322E+02  0.18309283336E+02 -0.31225629524E+03  0.51311855283E+03  0.40000000000E+03 0. -1.
   -9000005    1    1    2    0  502  0.73833769322E+02 -0.18309283336E+02  0.36201010132E+03  0.54482838473E+03  0.40000000000E+03 0. -1.
<mgrwt>
<rscale>  2 0.40716907E+03</rscale>
<asrwt>0</asrwt>
<pdfrwt beam="1">  1       21 0.85207750E-01 0.40716907E+03</pdfrwt>
<pdfrwt beam="2">  1       21 0.77553318E-01 0.40716907E+03</pdfrwt>
<totfact> 0.15350691E+03</totfact>
</mgrwt>
</event>
<event>
 4    1  0.4774032E-002  0.7307807E+03  0.7818608E-02  0.9665994E-01
         21   -1    0    0  503  502  0.00000000000E+00  0.00000000000E+00  0.87692869972E+03  0.87692869972E+03  0.00000000000E+00 0.  1.
         21   -1    0    0  501  503 -0.00000000000E+00 -0.00000000000E+00 -0.69126866001E+03  0.69126866001E+03  0.00000000000E+00 0.  1.
    9000005    1    1    2  501    0  0.60225949023E+03  0.10641431785E+03 -0.17768527280E+03  0.75207217525E+03  0.40000000000E+03 0.  1.
   -9000005    1    1    2    0  502 -0.60225949023E+03 -0.10641431785E+03  0.36334531252E+03  0.81612518448E+03  0.40000000000E+03 0.  1.
<mgrwt>
<rscale>  2 0.73078075E+03</rscale>
<asrwt>0</asrwt>
<pdfrwt beam="1">  1       21 0.13491211E+00 0.73078075E+03</pdfrwt>
<pdfrwt beam="2">  1       21 0.10634902E+00 0.73078075E+03</pdfrwt>
<totfact> 0.20530147E+02</totfact>
</mgrwt>
</event>
<event>
 4    1  0.4774032E-002  0.5350396E+03  0.7818608E-02  0.1005017E+00
         21   -1    0    0  501  502  0.00000000000E+00  0.00000000000E+00  0.16433032552E+04  0.16433032552E+04  0.00000000000E+00 0. -1.
         21   -1    0    0  502  503 -0.00000000000E+00 -0.00000000000E+00 -0.35053338489E+03  0.35053338489E+03  0.00000000000E+00 0. -1.
    9000005    1    1    2  501    0  0.80321652944E+02  0.34614419881E+03  0.13534497036E+04  0.14553671270E+04  0.40000000000E+03 0. -1.
   -9000005    1    1    2    0  503 -0.80321652944E+02 -0.34614419881E+03 -0.60679833302E+02  0.53846951304E+03  0.40000000000E+03 0. -1.
<mgrwt>
<rscale>  2 0.53503960E+03</rscale>
<asrwt>0</asrwt>
<pdfrwt beam="1">  1       21 0.25281588E+00 0.53503960E+03</pdfrwt>
<pdfrwt beam="2">  1       21 0.53928214E-01 0.53503960E+03</pdfrwt>
<totfact> 0.15765685E+02</totfact>
</mgrwt>
</event>
<event>
 4    1  0.4774032E-002  0.4585841E+03  0.7818608E-02  0.1025193E+00
         21   -1    0    0  503  502  0.00000000000E+00  0.00000000000E+00  0.23679610044E+04  0.23679610044E+04  0.00000000000E+00 0.  1.
         21   -1    0    0  501  503 -0.00000000000E+00 -0.00000000000E+00 -0.15454466242E+03  0.15454466242E+03  0.00000000000E+00 0. -1.
    9000005    1    1    2  501    0 -0.21800574952E+03  0.52658271446E+02  0.28414118468E+03  0.53947716653E+03  0.40000000000E+03 0. -1.
   -9000005    1    1    2    0  502  0.21800574952E+03 -0.52658271446E+02  0.19292751573E+04  0.19830285003E+04  0.40000000000E+03 0.  1.
<mgrwt>
<rscale>  2 0.45858413E+03</rscale>
<asrwt>0</asrwt>
<pdfrwt beam="1">  1       21 0.36430167E+00 0.45858413E+03</pdfrwt>
<pdfrwt beam="2">  1       21 0.23776104E-01 0.45858413E+03</pdfrwt>
<totfact> 0.18291627E+02</totfact>
</mgrwt>
</event>
<event>
 4    1  0.4774032E-002  0.4872021E+03  0.7818608E-02  0.1017174E+00
         21   -1    0    0  501  502  0.00000000000E+00  0.00000000000E+00  0.40034310539E+03  0.40034310539E+03  0.00000000000E+00 0. -1.
         21   -1    0    0  502  503 -0.00000000000E+00 -0.00000000000E+00 -0.69158247816E+03  0.69158247816E+03  0.00000000000E+00 0. -1.
    9000005    1    1    2  501    0  0.24520172377E+03  0.13130872464E+03  0.60608332932E+02  0.49095746916E+03  0.40000000000E+03 0. -1.
   -9000005    1    1    2    0  503 -0.24520172377E+03 -0.13130872464E+03 -0.35184770571E+03  0.60096811439E+03  0.40000000000E+03 0. -1.
<mgrwt>
<rscale>  2 0.48720208E+03</rscale>
<asrwt>0</asrwt>
<pdfrwt beam="1">  1       21 0.61591248E-01 0.48720208E+03</pdfrwt>
<pdfrwt beam="2">  1       21 0.10639730E+00 0.48720208E+03</pdfrwt>
<totfact> 0.14643748E+03</totfact>
</mgrwt>
</event>
<event>
 4    1  0.4774032E-002  0.4915495E+03  0.7818608E-02  0.1016008E+00
         21   -1    0    0  501  502  0.00000000000E+00  0.00000000000E+00  0.18778174770E+04  0.18778174770E+04  0.00000000000E+00 0.  1.
         21   -1    0    0  502  503 -0.00000000000E+00 -0.00000000000E+00 -0.22326261149E+03  0.22326261149E+03  0.00000000000E+00 0.  1.
    9000005    1    1    2  501    0 -0.11594088772E+03 -0.26111041112E+03  0.15110797632E+04  0.15890195049E+04  0.40000000000E+03 0.  1.
   -9000005    1    1    2    0  503  0.11594088772E+03  0.26111041112E+03  0.14347510226E+03  0.51206058354E+03  0.40000000000E+03 0.  1.
<mgrwt>
<rscale>  2 0.49154953E+03</rscale>
<asrwt>0</asrwt>
<pdfrwt beam="1">  1       21 0.28889499E+00 0.49154953E+03</pdfrwt>
<pdfrwt beam="2">  1       21 0.34348095E-01 0.49154953E+03</pdfrwt>
<totfact> 0.24919023E+02</totfact>
</mgrwt>
</event>
<event>
 4    1  0.4774032E-002  0.4259045E+03  0.7818608E-02  0.1035162E+00
         21   -1    0    0  501  502  0.00000000000E+00  0.00000000000E+00  0.73323361811E+03  0.73323361811E+03  0.00000000000E+00 0.  1.
         21   -1    0    0  502  503 -0.00000000000E+00 -0.00000000000E+00 -0.33388606542E+03  0.33388606542E+03  0.00000000000E+00 0.  1.
    9000005    1    1    2  501    0 -0.10937941617E+03 -0.97112230759E+02  0.47124405756E+03  0.63518942359E+03  0.40000000000E+03 0.  1.
   -9000005    1    1    2    0  503  0.10937941617E+03  0.97112230759E+02 -0.71896504881E+02  0.43193025995E+03  0.40000000000E+03 0.  1.
<mgrwt>
<rscale>  2 0.42590450E+03</rscale>
<asrwt>0</asrwt>
<pdfrwt beam="1">  1       21 0.11280517E+00 0.42590450E+03</pdfrwt>
<pdfrwt beam="2">  1       21 0.51367087E-01 0.42590450E+03</pdfrwt>
<totfact> 0.19223028E+03</totfact>
</mgrwt>
</event>
<event>
 4    1  0.4774032E-002  0.5132459E+03  0.7818608E-02  0.1010378E+00
         21   -1    0    0  503  502  0.00000000000E+00  0.00000000000E+00  0.15884416813E+04  0.15884416813E+04  0.00000000000E+00 0. -1.
         21   -1    0    0  501  503 -0.00000000000E+00 -0.00000000000E+00 -0.18955699318E+04  0.18955699318E+04  0.00000000000E+00 0. -1.
    9000005    1    1    2  501    0  0.32153830966E+03  0.58722562265E+01 -0.18176253519E+04  0.18886988346E+04  0.40000000000E+03 0. -1.
   -9000005    1    1    2    0  502 -0.32153830966E+03 -0.58722562265E+01  0.15104971014E+04  0.15953127785E+04  0.40000000000E+03 0. -1.
<mgrwt>
<rscale>  2 0.51324591E+03</rscale>
<asrwt>0</asrwt>
<pdfrwt beam="1">  1       21 0.24437564E+00 0.51324591E+03</pdfrwt>
<pdfrwt beam="2">  1       21 0.29162614E+00 0.51324591E+03</pdfrwt>
<totfact> 0.17941305E+00</totfact>
</mgrwt>
</event>
<event>
 4    1  0.4774032E-002  0.4476452E+03  0.7818608E-02  0.1028427E+00
         21   -1    0    0  501  502  0.00000000000E+00  0.00000000000E+00  0.95043244518E+02  0.95043244518E+02  0.00000000000E+00 0. -1.
         21   -1    0    0  502  503 -0.00000000000E+00 -0.00000000000E+00 -0.21802938277E+04  0.21802938277E+04  0.00000000000E+00 0. -1.
    9000005    1    1    2  501    0  0.16216613705E+03 -0.11869437776E+03 -0.12492576135E+04  0.13270383552E+04  0.40000000000E+03 0. -1.
   -9000005    1    1    2    0  503 -0.16216613705E+03  0.11869437776E+03 -0.83599296968E+03  0.94829871701E+03  0.40000000000E+03 0. -1.
<mgrwt>
<rscale>  2 0.44764518E+03</rscale>
<asrwt>0</asrwt>
<pdfrwt beam="1">  1       21 0.14622038E-01 0.44764518E+03</pdfrwt>
<pdfrwt beam="2">  1       21 0.33542982E+00 0.44764518E+03</pdfrwt>
<totfact> 0.69483130E+02</totfact>
</mgrwt>
</event>
<event>
 4    1  0.4774032E-002  0.4709571E+03  0.7818608E-02  0.1021650E+00
         21   -1    0    0  503  502  0.00000000000E+00  0.00000000000E+00  0.32949627144E+03  0.32949627144E+03  0.00000000000E+00 0.  1.
         21   -1    0    0  501  503 -0.00000000000E+00 -0.00000000000E+00 -0.15431699474E+04  0.15431699474E+04  0.00000000000E+00 0.  1.
    9000005    1    1    2  501    0 -0.11417113522E+02  0.24833489783E+03 -0.13098897127E+04  0.13919811893E+04  0.40000000000E+03 0.  1.
   -9000005    1    1    2    0  502  0.11417113522E+02 -0.24833489783E+03  0.96216036679E+02  0.48068502959E+03  0.40000000000E+03 0.  1.
<mgrwt>
<rscale>  2 0.47095708E+03</rscale>
<asrwt>0</asrwt>
<pdfrwt beam="1">  1       21 0.50691735E-01 0.47095708E+03</pdfrwt>
<pdfrwt beam="2">  1       21 0.23741076E+00 0.47095708E+03</pdfrwt>
<totfact> 0.23177707E+02</totfact>
</mgrwt>
</event>
<event>
 4    1  0.4774032E-002  0.4651472E+03  0.7818608E-02  0.1023299E+00
         21   -1    0    0  501  502  0.00000000000E+00  0.00000000000E+00  0.22101277961E+04  0.22101277961E+04  0.00000000000E+00 0.  1.
         21   -1    0    0  502  503 -0.00000000000E+00 -0.00000000000E+00 -0.19752282232E+03  0.19752282232E+03  0.00000000000E+00 0.  1.
    9000005    1    1    2  501    0 -0.22868980815E+03  0.63740502008E+02  0.18612584535E+04  0.19185006934E+04  0.40000000000E+03 0.  1.
   -9000005    1    1    2    0  503  0.22868980815E+03 -0.63740502008E+02  0.15134652031E+03  0.48914992503E+03  0.40000000000E+03 0.  1.
<mgrwt>
<rscale>  2 0.46514716E+03</rscale>
<asrwt>0</asrwt>
<pdfrwt beam="1">  1       21 0.34001964E+00 0.46514716E+03</pdfrwt>
<pdfrwt beam="2">  1       21 0.30388128E-01 0.46514716E+03</pdfrwt>
<totfact> 0.15873087E+02</totfact>
</mgrwt>
</event>
<event>
 4    1  0.4774032E-002  0.4122416E+03  0.7818608E-02  0.1039621E+00
         21   -1    0    0  503  502  0.00000000000E+00  0.00000000000E+00  0.20519414367E+03  0.20519414367E+03  0.00000000000E+00 0.  1.
         21   -1    0    0  501  503 -0.00000000000E+00 -0.00000000000E+00 -0.85525992770E+03  0.85525992770E+03  0.00000000000E+00 0.  1.
    9000005    1    1    2  501    0  0.83577090651E+02  0.54387720976E+02 -0.41933529369E+03  0.58803506937E+03  0.40000000000E+03 0.  1.
   -9000005    1    1    2    0  502 -0.83577090651E+02 -0.54387720976E+02 -0.23073049034E+03  0.47241900200E+03  0.40000000000E+03 0.  1.
<mgrwt>
<rscale>  2 0.41224162E+03</rscale>
<asrwt>0</asrwt>
<pdfrwt beam="1">  1       21 0.31568329E-01 0.41224162E+03</pdfrwt>
<pdfrwt beam="2">  1       21 0.13157845E+00 0.41224162E+03</pdfrwt>
<totfact> 0.35624653E+03</totfact>
</mgrwt>
</event>
<event>
 4    1  0.4774032E-002  0.6003928E+03  0.7818608E-02  0.9904591E-01
         21   -1    0    0  501  502  0.00000000000E+00  0.00000000000E+00  0.10275219444E+04  0.10275219444E+04  0.00000000000E+00 0.  1.
         21   -1    0    0  502  503 -0.00000000000E+00 -0.00000000000E+00 -0.35668799403E+03  0.35668799403E+03  0.00000000000E+00 0.  1.
    9000005    1    1    2  501    0  0.40956281075E+03  0.18091400450E+03  0.42421532300E+03  0.73513958759E+03  0.40000000000E+03 0.  1.
   -9000005    1    1    2    0  503 -0.40956281075E+03 -0.18091400450E+03  0.24661862735E+03  0.64907035083E+03  0.40000000000E+03 0.  1.
<mgrwt>
<rscale>  2 0.60039285E+03</rscale>
<asrwt>0</asrwt>
<pdfrwt beam="1">  1       21 0.15808030E+00 0.60039285E+03</pdfrwt>
<pdfrwt beam="2">  1       21 0.54875076E-01 0.60039285E+03</pdfrwt>
<totfact> 0.64343881E+02</totfact>
</mgrwt>
</event>
<event>
 4    1  0.4774032E-002  0.6572619E+03  0.7818608E-02  0.9793247E-01
         21   -1    0    0  503  502  0.00000000000E+00  0.00000000000E+00  0.14968302085E+04  0.14968302085E+04  0.00000000000E+00 0.  1.
         21   -1    0    0  501  503 -0.00000000000E+00 -0.00000000000E+00 -0.28916628628E+03  0.28916628628E+03  0.00000000000E+00 0. -1.
    9000005    1    1    2  501    0  0.34760583503E+03 -0.38879742194E+03  0.64316176105E+03  0.91959246557E+03  0.40000000000E+03 0.  1.
   -9000005    1    1    2    0  502 -0.34760583503E+03  0.38879742194E+03  0.56450216115E+03  0.86640402919E+03  0.40000000000E+03 0. -1.
<mgrwt>
<rscale>  2 0.65726194E+03</rscale>
<asrwt>0</asrwt>
<pdfrwt beam="1">  1       21 0.23028157E+00 0.65726194E+03</pdfrwt>
<pdfrwt beam="2">  1       21 0.44487122E-01 0.65726194E+03</pdfrwt>
<totfact> 0.31302040E+02</totfact>
</mgrwt>
</event>
<event>
 4    1  0.4774032E-002  0.4141157E+03  0.7818608E-02  0.1038999E+00
         21   -1    0    0  503  502  0.00000000000E+00  0.00000000000E+00  0.10843563912E+03  0.10843563912E+03  0.00000000000E+00 0.  1.
         21   -1    0    0  501  503 -0.00000000000E+00 -0.00000000000E+00 -0.15836688443E+04  0.15836688443E+04  0.00000000000E+00 0.  1.
    9000005    1    1    2  501    0  0.75884384126E+02  0.75718809137E+02 -0.76887205494E+03  0.87330178901E+03  0.40000000000E+03 0.  1.
   -9000005    1    1    2    0  502 -0.75884384126E+02 -0.75718809137E+02 -0.70636115025E+03  0.81880269442E+03  0.40000000000E+03 0.  1.
<mgrwt>
<rscale>  2 0.41411566E+03</rscale>
<asrwt>0</asrwt>
<pdfrwt beam="1">  1       21 0.16682407E-01 0.41411566E+03</pdfrwt>
<pdfrwt beam="2">  1       21 0.24364135E+00 0.41411566E+03</pdfrwt>
<totfact> 0.19852521E+03</totfact>
</mgrwt>
</event>
<event>
 4    1  0.4774032E-002  0.4399822E+03  0.7818608E-02  0.1030752E+00
         21   -1    0    0  501  502  0.00000000000E+00  0.00000000000E+00  0.22572023206E+03  0.22572023206E+03  0.00000000000E+00 0.  1.
         21   -1    0    0  502  503 -0.00000000000E+00 -0.00000000000E+00 -0.11388014632E+04  0.11388014632E+04  0.00000000000E+00 0.  1.
    9000005    1    1    2  501    0  0.22911036505E+02 -0.18182247017E+03 -0.11753065397E+03  0.45540946507E+03  0.40000000000E+03 0.  1.
   -9000005    1    1    2    0  503 -0.22911036505E+02  0.18182247017E+03 -0.79555057717E+03  0.90911223020E+03  0.40000000000E+03 0.  1.
<mgrwt>
<rscale>  2 0.43998219E+03</rscale>
<asrwt>0</asrwt>
<pdfrwt beam="1">  1       21 0.34726189E-01 0.43998219E+03</pdfrwt>
<pdfrwt beam="2">  1       21 0.17520023E+00 0.43998219E+03</pdfrwt>
<totfact> 0.13309010E+03</totfact>
</mgrwt>
</event>
<event>
 4    1  0.4774032E-002  0.4816780E+03  0.7818608E-02  0.1018675E+00
         21   -1    0    0  501  502  0.00000000000E+00  0.00000000000E+00  0.65926693029E+03  0.65926693029E+03  0.00000000000E+00 0.  1.
         21   -1    0    0  502  503 -0.00000000000E+00 -0.00000000000E+00 -0.35501527084E+03  0.35501527084E+03  0.00000000000E+00 0.  1.
    9000005    1    1    2  501    0  0.14645917509E+03  0.22486306040E+03  0.10482392075E+03  0.49295206690E+03  0.40000000000E+03 0. -1.
   -9000005    1    1    2    0  503 -0.14645917509E+03 -0.22486306040E+03  0.19942773870E+03  0.52133013424E+03  0.40000000000E+03 0. -1.
<mgrwt>
<rscale>  2 0.48167799E+03</rscale>
<asrwt>0</asrwt>
<pdfrwt beam="1">  1       21 0.10142568E+00 0.48167799E+03</pdfrwt>
<pdfrwt beam="2">  1       21 0.54617734E-01 0.48167799E+03</pdfrwt>
<totfact> 0.21455997E+03</totfact>
</mgrwt>
</event>
<event>
 4    1  0.4774032E-002  0.4338726E+03  0.7818608E-02  0.1032644E+00
         21   -1    0    0  503  502  0.00000000000E+00  0.00000000000E+00  0.90755792418E+03  0.90755792418E+03  0.00000000000E+00 0.  1.
         21   -1    0    0  501  503 -0.00000000000E+00 -0.00000000000E+00 -0.21347708005E+03  0.21347708005E+03  0.00000000000E+00 0.  1.
    9000005    1    1    2  501    0 -0.16669496475E+03  0.21406092991E+02  0.25262250974E+03  0.50205932370E+03  0.40000000000E+03 0.  1.
   -9000005    1    1    2    0  502  0.16669496475E+03 -0.21406092991E+02  0.44145833439E+03  0.61897568053E+03  0.40000000000E+03 0.  1.
<mgrwt>
<rscale>  2 0.43387260E+03</rscale>
<asrwt>0</asrwt>
<pdfrwt beam="1">  1       21 0.13962429E+00 0.43387260E+03</pdfrwt>
<pdfrwt beam="2">  1       21 0.32842628E-01 0.43387260E+03</pdfrwt>
<totfact> 0.27932748E+03</totfact>
</mgrwt>
</event>
<event>
 4    1  0.4774032E-002  0.6994843E+03  0.7818608E-02  0.9718115E-01
         21   -1    0    0  503  502  0.00000000000E+00  0.00000000000E+00  0.80146033930E+03  0.80146033930E+03  0.00000000000E+00 0. -1.
         21   -1    0    0  501  503 -0.00000000000E+00 -0.00000000000E+00 -0.74526910757E+03  0.74526910757E+03  0.00000000000E+00 0. -1.
    9000005    1    1    2  501    0 -0.41296897646E+03 -0.39841549297E+03 -0.30079359288E+03  0.76141648661E+03  0.40000000000E+03 0. -1.
   -9000005    1    1    2    0  502  0.41296897646E+03  0.39841549297E+03  0.35698482461E+03  0.78531296026E+03  0.40000000000E+03 0. -1.
<mgrwt>
<rscale>  2 0.69948430E+03</rscale>
<asrwt>0</asrwt>
<pdfrwt beam="1">  1       21 0.12330159E+00 0.69948430E+03</pdfrwt>
<pdfrwt beam="2">  1       21 0.11465679E+00 0.69948430E+03</pdfrwt>
<totfact> 0.21728315E+02</totfact>
</mgrwt>
</event>
<event>
 4    1  0.4774032E-002  0.4577795E+03  0.7818608E-02  0.1025427E+00
         21   -1    0    0  501  502  0.00000000000E+00  0.00000000000E+00  0.62959956405E+03  0.62959956405E+03  0.00000000000E+00 0.  1.
         21   -1    0    0  502  503 -0.00000000000E+00 -0.00000000000E+00 -0.34248385149E+03  0.34248385149E+03  0.00000000000E+00 0.  1.
    9000005    1    1    2  501    0 -0.11819184105E+03 -0.18866040770E+03  0.62038830357E+02  0.46196415142E+03  0.40000000000E+03 0.  1.
   -9000005    1    1    2    0  503  0.11819184105E+03  0.18866040770E+03  0.22507688221E+03  0.51011926412E+03  0.40000000000E+03 0.  1.
<mgrwt>
<rscale>  2 0.45777949E+03</rscale>
<asrwt>0</asrwt>
<pdfrwt beam="1">  1       21 0.96861472E-01 0.45777949E+03</pdfrwt>
<pdfrwt beam="2">  1       21 0.52689823E-01 0.45777949E+03</pdfrwt>
<totfact> 0.26142328E+03</totfact>
</mgrwt>
</event>
<event>
 4    1  0.4774032E-002  0.4516470E+03  0.7818608E-02  0.1027232E+00
         21   -1    0    0  503  502  0.00000000000E+00  0.00000000000E+00  0.31125264480E+04  0.31125264480E+04  0.00000000000E+00 0.  1.
         21   -1    0    0  501  503 -0.00000000000E+00 -0.00000000000E+00 -0.22964737914E+03  0.22964737914E+03  0.00000000000E+00 0.  1.
    9000005    1    1    2  501    0 -0.10041508139E+03 -0.18412448528E+03  0.28782994907E+02  0.45256322812E+03  0.40000000000E+03 0.  1.
   -9000005    1    1    2    0  502  0.10041508139E+03  0.18412448528E+03  0.28540960739E+04  0.28896105990E+04  0.40000000000E+03 0.  1.
<mgrwt>
<rscale>  2 0.45164700E+03</rscale>
<asrwt>0</asrwt>
<pdfrwt beam="1">  1       21 0.47885019E+00 0.45164700E+03</pdfrwt>
<pdfrwt beam="2">  1       21 0.35330368E-01 0.45164700E+03</pdfrwt>
<totfact> 0.14816536E+01</totfact>
</mgrwt>
</event>
<event>
 4    1  0.4774032E-002  0.5652084E+03  0.7818608E-02  0.9980338E-01
         21   -1    0    0  503  502  0.00000000000E+00  0.00000000000E+00  0.17030548814E+04  0.17030548814E+04  0.00000000000E+00 0.  1.
         21   -1    0    0  501  503 -0.00000000000E+00 -0.00000000000E+00 -0.20294695509E+03  0.20294695509E+03  0.00000000000E+00 0. -1.
    9000005    1    1    2  501    0 -0.57448452630E+02 -0.39517115439E+03  0.10122844940E+04  0.11593879690E+04  0.40000000000E+03 0.  1.
   -9000005    1    1    2    0  502  0.57448452630E+02  0.39517115439E+03  0.48782343238E+03  0.74661386751E+03  0.40000000000E+03 0.  1.
<mgrwt>
<rscale>  2 0.56520843E+03</rscale>
<asrwt>0</asrwt>
<pdfrwt beam="1">  1       21 0.26200843E+00 0.56520843E+03</pdfrwt>
<pdfrwt beam="2">  1       21 0.31222610E-01 0.56520843E+03</pdfrwt>
<totfact> 0.42502077E+02</totfact>
</mgrwt>
</event>
<event>
 4    1  0.4774032E-002  0.4376765E+03  0.7818608E-02  0.1031462E+00
         21   -1    0    0  503  502  0.00000000000E+00  0.00000000000E+00  0.69757034171E+03  0.69757034171E+03  0.00000000000E+00 0. -1.
         21   -1    0    0  501  503 -0.00000000000E+00 -0.00000000000E+00 -0.35839047360E+03  0.35839047360E+03  0.00000000000E+00 0.  1.
    9000005    1    1    2  501    0  0.32999892375E+02  0.17456148725E+03 -0.85684655860E+02  0.44598493918E+03  0.40000000000E+03 0.  1.
   -9000005    1    1    2    0  502 -0.32999892375E+02 -0.17456148725E+03  0.42486452397E+03  0.60997587612E+03  0.40000000000E+03 0. -1.
<mgrwt>
<rscale>  2 0.43767649E+03</rscale>
<asrwt>0</asrwt>
<pdfrwt beam="1">  1       21 0.10731851E+00 0.43767649E+03</pdfrwt>
<pdfrwt beam="2">  1       21 0.55136996E-01 0.43767649E+03</pdfrwt>
<totfact> 0.18597918E+03</totfact>
</mgrwt>
</event>
<event>
 4    1  0.4774032E-002  0.4548373E+03  0.7818608E-02  0.1026289E+00
         21   -1    0    0  501  502  0.00000000000E+00  0.00000000000E+00  0.21698839927E+03  0.21698839927E+03  0.00000000000E+00 0.  1.
         21   -1    0    0  502  503 -0.00000000000E+00 -0.00000000000E+00 -0.95345920349E+03  0.95345920349E+03  0.00000000000E+00 0. -1.
    9000005    1    1    2  501    0 -0.22788852704E+02 -0.21530826240E+03 -0.37280368297E+03  0.58809826194E+03  0.40000000000E+03 0. -1.
   -9000005    1    1    2    0  503  0.22788852704E+02  0.21530826240E+03 -0.36366712125E+03  0.58234934081E+03  0.40000000000E+03 0.  1.
<mgrwt>
<rscale>  2 0.45483731E+03</rscale>
<asrwt>0</asrwt>
<pdfrwt beam="1">  1       21 0.33382830E-01 0.45483731E+03</pdfrwt>
<pdfrwt beam="2">  1       21 0.14668603E+00 0.45483731E+03</pdfrwt>
<totfact> 0.23495355E+03</totfact>
</mgrwt>
</event>
<event>
 4    1  0.4774032E-002  0.4078621E+03  0.7818608E-02  0.1041091E+00
         21   -1    0    0  503  502  0.00000000000E+00  0.00000000000E+00  0.64316671878E+03  0.64316671878E+03  0.00000000000E+00 0. -1.
         21   -1    0    0  501  503 -0.00000000000E+00 -0.00000000000E+00 -0.41002902943E+03  0.41002902943E+03  0.00000000000E+00 0. -1.
    9000005    1    1    2  501    0  0.16898498329E+02 -0.77883956559E+02 -0.20340368166E+03  0.45576806344E+03  0.40000000000E+03 0. -1.
   -9000005    1    1    2    0  502 -0.16898498329E+02  0.77883956559E+02  0.43654137101E+03  0.59742768477E+03  0.40000000000E+03 0. -1.
<mgrwt>
<rscale>  2 0.40786207E+03</rscale>
<asrwt>0</asrwt>
<pdfrwt beam="1">  1       21 0.98948726E-01 0.40786207E+03</pdfrwt>
<pdfrwt beam="2">  1       21 0.63081389E-01 0.40786207E+03</pdfrwt>
<totfact> 0.17117918E+03</totfact>
</mgrwt>
</event>
<event>
 4    1  0.4774032E-002  0.1015978E+04  0.7818608E-02  0.9291192E-01
         21   -1    0    0  501  502  0.00000000000E+00  0.00000000000E+00  0.14290149934E+04  0.14290149934E+04  0.00000000000E+00 0.  1.
         21   -1    0    0  502  503 -0.00000000000E+00 -0.00000000000E+00 -0.73415122512E+03  0.73415122512E+03  0.00000000000E+00 0. -1.
    9000005    1    1    2  501    0  0.87946088964E+03  0.31425941014E+03  0.48471794958E+03  0.11256828700E+04  0.40000000000E+03 0. -1.
   -9000005    1    1    2    0  503 -0.87946088964E+03 -0.31425941014E+03  0.21014581872E+03  0.10374833485E+04  0.40000000000E+03 0.  1.
<mgrwt>
<rscale>  2 0.10159776E+04</rscale>
<asrwt>0</asrwt>
<pdfrwt beam="1">  1       21 0.21984846E+00 0.10159776E+04</pdfrwt>
<pdfrwt beam="2">  1       21 0.11294634E+00 0.10159776E+04</pdfrwt>
<totfact> 0.38486151E+01</totfact>
</mgrwt>
</event>
<event>
 4    1  0.4774032E-002  0.4963188E+03  0.7818608E-02  0.1014744E+00
         21   -1    0    0  501  502  0.00000000000E+00  0.00000000000E+00  0.11627036141E+04  0.11627036141E+04  0.00000000000E+00 0. -1.
         21   -1    0    0  502  503 -0.00000000000E+00 -0.00000000000E+00 -0.31001886389E+03  0.31001886389E+03  0.00000000000E+00 0.  1.
    9000005    1    1    2  501    0 -0.45364534545E+02 -0.29030051029E+03  0.84068339513E+03  0.97625862256E+03  0.40000000000E+03 0. -1.
   -9000005    1    1    2    0  503  0.45364534545E+02  0.29030051029E+03  0.12001355111E+02  0.49646385547E+03  0.40000000000E+03 0.  1.
<mgrwt>
<rscale>  2 0.49631878E+03</rscale>
<asrwt>0</asrwt>
<pdfrwt beam="1">  1       21 0.17887748E+00 0.49631878E+03</pdfrwt>
<pdfrwt beam="2">  1       21 0.47695210E-01 0.49631878E+03</pdfrwt>
<totfact> 0.63446351E+02</totfact>
</mgrwt>
</event>
<event>
 4    1  0.4774032E-002  0.4427588E+03  0.7818608E-02  0.1029904E+00
         21   -1    0    0  501  502  0.00000000000E+00  0.00000000000E+00  0.10427987181E+04  0.10427987181E+04  0.00000000000E+00 0. -1.
         21   -1    0    0  502  503 -0.00000000000E+00 -0.00000000000E+00 -0.32591758314E+03  0.32591758314E+03  0.00000000000E+00 0. -1.
    9000005    1    1    2  501    0 -0.18982216956E+03 -0.16918273613E+01  0.80364116104E+03  0.91753715677E+03  0.40000000000E+03 0. -1.
   -9000005    1    1    2    0  503  0.18982216956E+03  0.16918273613E+01 -0.86760026031E+02  0.45117914452E+03  0.40000000000E+03 0. -1.
<mgrwt>
<rscale>  2 0.44275876E+03</rscale>
<asrwt>0</asrwt>
<pdfrwt beam="1">  1       21 0.16043057E+00 0.44275876E+03</pdfrwt>
<pdfrwt beam="2">  1       21 0.50141167E-01 0.44275876E+03</pdfrwt>
<totfact> 0.79677164E+02</totfact>
</mgrwt>
</event>
<event>
 4    1  0.4774032E-002  0.4519589E+03  0.7818608E-02  0.1027139E+00
         21   -1    0    0  501  502  0.00000000000E+00  0.00000000000E+00  0.81231437019E+03  0.81231437019E+03  0.00000000000E+00 0. -1.
         21   -1    0    0  502  503 -0.00000000000E+00 -0.00000000000E+00 -0.26744026124E+03  0.26744026124E+03  0.00000000000E+00 0. -1.
    9000005    1    1    2  501    0  0.10998123941E+03  0.17936265103E+03  0.40439507125E+03  0.60646698777E+03  0.40000000000E+03 0. -1.
   -9000005    1    1    2    0  503 -0.10998123941E+03 -0.17936265103E+03  0.14047903769E+03  0.47328764366E+03  0.40000000000E+03 0. -1.
<mgrwt>
<rscale>  2 0.45195888E+03</rscale>
<asrwt>0</asrwt>
<pdfrwt beam="1">  1       21 0.12497144E+00 0.45195888E+03</pdfrwt>
<pdfrwt beam="2">  1       21 0.41144656E-01 0.45195888E+03</pdfrwt>
<totfact> 0.23406389E+03</totfact>
</mgrwt>
</event>
<event>
 4    1  0.4774032E-002  0.4068935E+03  0.7818608E-02  0.1041418E+00
         21   -1    0    0  503  502  0.00000000000E+00  0.00000000000E+00  0.11122206240E+04  0.11122206240E+04  0.00000000000E+00 0. -1.
         21   -1    0    0  501  503 -0.00000000000E+00 -0.00000000000E+00 -0.21358651193E+03  0.21358651193E+03  0.00000000000E+00 0. -1.
    9000005    1    1    2  501    0  0.17141015027E+02 -0.72584659808E+02  0.84384140200E+02  0.41555147738E+03  0.40000000000E+03 0. -1.
   -9000005    1    1    2    0  502 -0.17141015027E+02  0.72584659808E+02  0.81424997191E+03  0.91025565859E+03  0.40000000000E+03 0. -1.
<mgrwt>
<rscale>  2 0.40689353E+03</rscale>
<asrwt>0</asrwt>
<pdfrwt beam="1">  1       21 0.17111086E+00 0.40689353E+03</pdfrwt>
<pdfrwt beam="2">  1       21 0.32859464E-01 0.40689353E+03</pdfrwt>
<totfact> 0.16153898E+03</totfact>
</mgrwt>
</event>
<event>
 4    1  0.4774032E-002  0.4494072E+03  0.7818608E-02  0.1027899E+00
         21   -1    0    0  503  502  0.00000000000E+00  0.00000000000E+00  0.59543068960E+03  0.59543068960E+03  0.00000000000E+00 0. -1.
         21   -1    0    0  501  503 -0.00000000000E+00 -0.00000000000E+00 -0.35588691680E+03  0.35588691680E+03  0.00000000000E+00 0. -1.
    9000005    1    1    2  501    0  0.17472469516E+03  0.10694893495E+03  0.16757091545E+02  0.44971946133E+03  0.40000000000E+03 0. -1.
   -9000005    1    1    2    0  502 -0.17472469516E+03 -0.10694893495E+03  0.22278668126E+03  0.50159814507E+03  0.40000000000E+03 0. -1.
<mgrwt>
<rscale>  2 0.44940716E+03</rscale>
<asrwt>0</asrwt>
<pdfrwt beam="1">  1       21 0.91604721E-01 0.44940716E+03</pdfrwt>
<pdfrwt beam="2">  1       21 0.54751834E-01 0.44940716E+03</pdfrwt>
<totfact> 0.27591555E+03</totfact>
</mgrwt>
</event>
<event>
 4    1  0.4774032E-002  0.4995504E+03  0.7818608E-02  0.1013896E+00
         21   -1    0    0  503  502  0.00000000000E+00  0.00000000000E+00  0.98150101249E+03  0.98150101249E+03  0.00000000000E+00 0. -1.
         21   -1    0    0  501  503 -0.00000000000E+00 -0.00000000000E+00 -0.31855666562E+03  0.31855666562E+03  0.00000000000E+00 0. -1.
    9000005    1    1    2  501    0 -0.11302878893E+03 -0.27708317253E+03  0.39424567418E+02  0.50110367005E+03  0.40000000000E+03 0. -1.
   -9000005    1    1    2    0  502  0.11302878893E+03  0.27708317253E+03  0.62351977945E+03  0.79895400805E+03  0.40000000000E+03 0. -1.
<mgrwt>
<rscale>  2 0.49955039E+03</rscale>
<asrwt>0</asrwt>
<pdfrwt beam="1">  1       21 0.15100015E+00 0.49955039E+03</pdfrwt>
<pdfrwt beam="2">  1       21 0.49008718E-01 0.49955039E+03</pdfrwt>
<totfact> 0.96528319E+02</totfact>
</mgrwt>
</event>
<event>
 4    1  0.4774032E-002  0.4818516E+03  0.7818608E-02  0.1018628E+00
         21   -1    0    0  503  502  0.00000000000E+00  0.00000000000E+00  0.77068009283E+03  0.77068009283E+03  0.00000000000E+00 0.  1.
         21   -1    0    0  501  503 -0.00000000000E+00 -0.00000000000E+00 -0.37962372444E+03  0.37962372444E+03  0.00000000000E+00 0.  1.
    9000005    1    1    2  501    0 -0.26851766757E+03  0.89024400064E+01 -0.65773487917E+02  0.48632000056E+03  0.40000000000E+03 0.  1.
   -9000005    1    1    2    0  502  0.26851766757E+03 -0.89024400064E+01  0.45682985631E+03  0.66398381671E+03  0.40000000000E+03 0.  1.
<mgrwt>
<rscale>  2 0.48185163E+03</rscale>
<asrwt>0</asrwt>
<pdfrwt beam="1">  1       21 0.11856617E+00 0.48185163E+03</pdfrwt>
<pdfrwt beam="2">  1       21 0.58403650E-01 0.48185163E+03</pdfrwt>
<totfact> 0.12583119E+03</totfact>
</mgrwt>
</event>
<event>
 4    1  0.4774032E-002  0.4161911E+03  0.7818608E-02  0.1038313E+00
         21   -1    0    0  501  502  0.00000000000E+00  0.00000000000E+00  0.10771916776E+04  0.10771916776E+04  0.00000000000E+00 0.  1.
         21   -1    0    0  502  503 -0.00000000000E+00 -0.00000000000E+00 -0.16151012549E+03  0.16151012549E+03  0.00000000000E+00 0.  1.
    9000005    1    1    2  501    0  0.45611914754E+01 -0.11486597001E+03  0.41684183989E+03  0.58904338975E+03  0.40000000000E+03 0.  1.
   -9000005    1    1    2    0  503 -0.45611914754E+01  0.11486597001E+03  0.49883971224E+03  0.64965841335E+03  0.40000000000E+03 0.  1.
<mgrwt>
<rscale>  2 0.41619106E+03</rscale>
<asrwt>0</asrwt>
<pdfrwt beam="1">  1       21 0.16572179E+00 0.41619106E+03</pdfrwt>
<pdfrwt beam="2">  1       21 0.24847712E-01 0.41619106E+03</pdfrwt>
<totfact> 0.30560827E+03</totfact>
</mgrwt>
</event>
<event>
 4    1  0.4774032E-002  0.4119501E+03  0.7818608E-02  0.1039719E+00
         21   -1    0    0  503  502  0.00000000000E+00  0.00000000000E+00  0.10650557759E+03  0.10650557759E+03  0.00000000000E+00 0. -1.
         21   -1    0    0  501  503 -0.00000000000E+00 -0.00000000000E+00 -0.20925234154E+04  0.20925234154E+04  0.00000000000E+00 0. -1.
    9000005    1    1    2  501    0 -0.45912875233E+02  0.87148525802E+02 -0.15300191407E+04  0.15845066830E+04  0.40000000000E+03 0. -1.
   -9000005    1    1    2    0  502  0.45912875233E+02 -0.87148525802E+02 -0.45599869711E+03  0.61452230995E+03  0.40000000000E+03 0. -1.
<mgrwt>
<rscale>  2 0.41195007E+03</rscale>
<asrwt>0</asrwt>
<pdfrwt beam="1">  1       21 0.16385474E-01 0.41195007E+03</pdfrwt>
<pdfrwt beam="2">  1       21 0.32192667E+00 0.41195007E+03</pdfrwt>
<totfact> 0.69329535E+02</totfact>
</mgrwt>
</event>
<event>
 4    1  0.4774032E-002  0.5365093E+03  0.7818608E-02  0.1004666E+00
         21   -1    0    0  501  502  0.00000000000E+00  0.00000000000E+00  0.56287990884E+03  0.56287990884E+03  0.00000000000E+00 0. -1.
         21   -1    0    0  502  503 -0.00000000000E+00 -0.00000000000E+00 -0.59441283694E+03  0.59441283694E+03  0.00000000000E+00 0.  1.
    9000005    1    1    2  501    0 -0.33782226766E+03  0.11712533350E+03  0.20051007580E+03  0.57275345374E+03  0.40000000000E+03 0. -1.
   -9000005    1    1    2    0  503  0.33782226766E+03 -0.11712533350E+03 -0.23204300390E+03  0.58453929203E+03  0.40000000000E+03 0.  1.
<mgrwt>
<rscale>  2 0.53650930E+03</rscale>
<asrwt>0</asrwt>
<pdfrwt beam="1">  1       21 0.86596909E-01 0.53650930E+03</pdfrwt>
<pdfrwt beam="2">  1       21 0.91448129E-01 0.53650930E+03</pdfrwt>
<totfact> 0.95670234E+02</totfact>
</mgrwt>
</event>
<event>
 4    1  0.4774032E-002  0.4425469E+03  0.7818608E-02  0.1029968E+00
         21   -1    0    0  501  502  0.00000000000E+00  0.00000000000E+00  0.12402932550E+03  0.12402932550E+03  0.00000000000E+00 0. -1.
         21   -1    0    0  502  503 -0.00000000000E+00 -0.00000000000E+00 -0.17469880042E+04  0.17469880042E+04  0.00000000000E+00 0. -1.
    9000005    1    1    2  501    0 -0.18562119962E+03 -0.37316091085E+02 -0.52142087655E+03  0.68390602491E+03  0.40000000000E+03 0. -1.
   -9000005    1    1    2    0  503  0.18562119962E+03  0.37316091085E+02 -0.11015378021E+04  0.11871113048E+04  0.40000000000E+03 0. -1.
<mgrwt>
<rscale>  2 0.44254686E+03</rscale>
<asrwt>0</asrwt>
<pdfrwt beam="1">  1       21 0.19081434E-01 0.44254686E+03</pdfrwt>
<pdfrwt beam="2">  1       21 0.26876740E+00 0.44254686E+03</pdfrwt>
<totfact> 0.10680611E+03</totfact>
</mgrwt>
</event>
<event>
 4    1  0.4774032E-002  0.4238697E+03  0.7818608E-02  0.1035814E+00
         21   -1    0    0  503  502  0.00000000000E+00  0.00000000000E+00  0.65364136218E+03  0.65364136218E+03  0.00000000000E+00 0. -1.
         21   -1    0    0  501  503 -0.00000000000E+00 -0.00000000000E+00 -0.28999336120E+03  0.28999336120E+03  0.00000000000E+00 0. -1.
    9000005    1    1    2  501    0  0.11243915525E+03 -0.83802939162E+02  0.74072350082E+02  0.43029316668E+03  0.40000000000E+03 0. -1.
   -9000005    1    1    2    0  502 -0.11243915525E+03  0.83802939162E+02  0.28957565090E+03  0.51334155670E+03  0.40000000000E+03 0. -1.
<mgrwt>
<rscale>  2 0.42386967E+03</rscale>
<asrwt>0</asrwt>
<pdfrwt beam="1">  1       21 0.10056021E+00 0.42386967E+03</pdfrwt>
<pdfrwt beam="2">  1       21 0.44614363E-01 0.42386967E+03</pdfrwt>
<totfact> 0.34379768E+03</totfact>
</mgrwt>
</event>
<event>
 4    1  0.4774032E-002  0.4418696E+03  0.7818608E-02  0.1030175E+00
         21   -1    0    0  501  502  0.00000000000E+00  0.00000000000E+00  0.60440430870E+03  0.60440430870E+03  0.00000000000E+00 0.  1.
         21   -1    0    0  502  503 -0.00000000000E+00 -0.00000000000E+00 -0.34836545975E+03  0.34836545975E+03  0.00000000000E+00 0. -1.
    9000005    1    1    2  501    0 -0.81912040277E+02  0.16893543999E+03  0.25645660430E+03  0.51089994629E+03  0.40000000000E+03 0.  1.
   -9000005    1    1    2    0  503  0.81912040277E+02 -0.16893543999E+03 -0.41775534523E+00  0.44186982217E+03  0.40000000000E+03 0. -1.
<mgrwt>
<rscale>  2 0.44186962E+03</rscale>
<asrwt>0</asrwt>
<pdfrwt beam="1">  1       21 0.92985278E-01 0.44186962E+03</pdfrwt>
<pdfrwt beam="2">  1       21 0.53594686E-01 0.44186962E+03</pdfrwt>
<totfact> 0.27955796E+03</totfact>
</mgrwt>
</event>
<event>
 4    1  0.4774032E-002  0.4274165E+03  0.7818608E-02  0.1034679E+00
         21   -1    0    0  503  502  0.00000000000E+00  0.00000000000E+00  0.77065655739E+02  0.77065655739E+02  0.00000000000E+00 0.  1.
         21   -1    0    0  501  503 -0.00000000000E+00 -0.00000000000E+00 -0.26530030423E+04  0.26530030423E+04  0.00000000000E+00 0. -1.
    9000005    1    1    2  501    0 -0.36556980734E+02 -0.14611106545E+03 -0.84253907101E+03  0.94475231805E+03  0.40000000000E+03 0.  1.
   -9000005    1    1    2    0  502  0.36556980734E+02  0.14611106545E+03 -0.17333983155E+04  0.17853163800E+04  0.40000000000E+03 0. -1.
<mgrwt>
<rscale>  2 0.42741649E+03</rscale>
<asrwt>0</asrwt>
<pdfrwt beam="1">  1       21 0.11856257E-01 0.42741649E+03</pdfrwt>
<pdfrwt beam="2">  1       21 0.40815425E+00 0.42741649E+03</pdfrwt>
<totfact> 0.36314753E+02</totfact>
</mgrwt>
</event>
<event>
 4    1  0.4774032E-002  0.4899229E+03  0.7818608E-02  0.1016443E+00
         21   -1    0    0  501  502  0.00000000000E+00  0.00000000000E+00  0.13540963485E+04  0.13540963485E+04  0.00000000000E+00 0.  1.
         21   -1    0    0  502  503 -0.00000000000E+00 -0.00000000000E+00 -0.21952472752E+03  0.21952472752E+03  0.00000000000E+00 0.  1.
    9000005    1    1    2  501    0  0.17976684962E+03 -0.21842239399E+03  0.91253093933E+03  0.10357302630E+04  0.40000000000E+03 0.  1.
   -9000005    1    1    2    0  503 -0.17976684962E+03  0.21842239399E+03  0.22204068160E+03  0.53789081300E+03  0.40000000000E+03 0.  1.
<mgrwt>
<rscale>  2 0.48992291E+03</rscale>
<asrwt>0</asrwt>
<pdfrwt beam="1">  1       21 0.20832251E+00 0.48992291E+03</pdfrwt>
<pdfrwt beam="2">  1       21 0.33773036E-01 0.48992291E+03</pdfrwt>
<totfact> 0.81788017E+02</totfact>
</mgrwt>
</event>
<event>
 4    1  0.4774032E-002  0.4576616E+03  0.7818608E-02  0.1025462E+00
         21   -1    0    0  503  502  0.00000000000E+00  0.00000000000E+00  0.14493794338E+03  0.14493794338E+03  0.00000000000E+00 0. -1.
         21   -1    0    0  501  503 -0.00000000000E+00 -0.00000000000E+00 -0.16169489612E+04  0.16169489612E+04  0.00000000000E+00 0. -1.
    9000005    1    1    2  501    0  0.12732920036E+03  0.18232234336E+03 -0.10231731430E+04  0.11208645960E+04  0.40000000000E+03 0. -1.
   -9000005    1    1    2    0  502 -0.12732920036E+03 -0.18232234336E+03 -0.44883787488E+03  0.64102230857E+03  0.40000000000E+03 0. -1.
<mgrwt>
<rscale>  2 0.45766162E+03</rscale>
<asrwt>0</asrwt>
<pdfrwt beam="1">  1       21 0.22298145E-01 0.45766162E+03</pdfrwt>
<pdfrwt beam="2">  1       21 0.24876138E+00 0.45766162E+03</pdfrwt>
<totfact> 0.10426384E+03</totfact>
</mgrwt>
</event>
<event>
 4    1  0.4774032E-002  0.7073572E+03  0.7818608E-02  0.9704733E-01
         21   -1    0    0  503  502  0.00000000000E+00  0.00000000000E+00  0.64696435293E+03  0.64696435293E+03  0.00000000000E+00 0. -1.
         21   -1    0    0  501  503 -0.00000000000E+00 -0.00000000000E+00 -0.82197568627E+03  0.82197568627E+03  0.00000000000E+00 0.  1.
    9000005    1    1    2  501    0  0.51310382853E+03 -0.27763041949E+03 -0.26607612737E+03  0.75574512518E+03  0.40000000000E+03 0.  1.
   -9000005    1    1    2    0  502 -0.51310382853E+03  0.27763041949E+03  0.91064794034E+02  0.71319491403E+03  0.40000000000E+03 0. -1.
<mgrwt>
<rscale>  2 0.70735719E+03</rscale>
<asrwt>0</asrwt>
<pdfrwt beam="1">  1       21 0.99532977E-01 0.70735719E+03</pdfrwt>
<pdfrwt beam="2">  1       21 0.12645780E+00 0.70735719E+03</pdfrwt>
<totfact> 0.28892946E+02</totfact>
</mgrwt>
</event>
<event>
 4    1  0.4774032E-002  0.4044538E+03  0.7818608E-02  0.1042248E+00
         21   -1    0    0  501  502  0.00000000000E+00  0.00000000000E+00  0.77866312031E+03  0.77866312031E+03  0.00000000000E+00 0.  1.
         21   -1    0    0  502  503 -0.00000000000E+00 -0.00000000000E+00 -0.59251345874E+03  0.59251345874E+03  0.00000000000E+00 0.  1.
    9000005    1    1    2  501    0 -0.59836858539E+02  0.15629977933E+01  0.64387141891E+03  0.76036392385E+03  0.40000000000E+03 0.  1.
   -9000005    1    1    2    0  503  0.59836858539E+02 -0.15629977933E+01 -0.45772175735E+03  0.61081265520E+03  0.40000000000E+03 0.  1.
<mgrwt>
<rscale>  2 0.40445382E+03</rscale>
<asrwt>0</asrwt>
<pdfrwt beam="1">  1       21 0.11979433E+00 0.40445382E+03</pdfrwt>
<pdfrwt beam="2">  1       21 0.91155917E-01 0.40445382E+03</pdfrwt>
<totfact> 0.46137150E+02</totfact>
</mgrwt>
</event>
<event>
 4    1  0.4774032E-002  0.4081422E+03  0.7818608E-02  0.1040996E+00
         21   -1    0    0  501  502  0.00000000000E+00  0.00000000000E+00  0.51205274669E+03  0.51205274669E+03  0.00000000000E+00 0. -1.
         21   -1    0    0  502  503 -0.00000000000E+00 -0.00000000000E+00 -0.57479370193E+03  0.57479370193E+03  0.00000000000E+00 0. -1.
    9000005    1    1    2  501    0 -0.28410422331E+02  0.75979785647E+02  0.32664033513E+03  0.52275614627E+03  0.40000000000E+03 0. -1.
   -9000005    1    1    2    0  503  0.28410422331E+02 -0.75979785647E+02 -0.38938129037E+03  0.56409030236E+03  0.40000000000E+03 0. -1.
<mgrwt>
<rscale>  2 0.40814223E+03</rscale>
<asrwt>0</asrwt>
<pdfrwt beam="1">  1       21 0.78777346E-01 0.40814223E+03</pdfrwt>
<pdfrwt beam="2">  1       21 0.88429800E-01 0.40814223E+03</pdfrwt>
<totfact> 0.13568934E+03</totfact>
</mgrwt>
</event>
<event>
 4    1  0.4774032E-002  0.4253688E+03  0.7818608E-02  0.1035333E+00
         21   -1    0    0  503  502  0.00000000000E+00  0.00000000000E+00  0.12088683480E+04  0.12088683480E+04  0.00000000000E+00 0.  1.
         21   -1    0    0  501  503 -0.00000000000E+00 -0.00000000000E+00 -0.27866320944E+03  0.27866320944E+03  0.00000000000E+00 0.  1.
    9000005    1    1    2  501    0 -0.57323313431E+02  0.13286322105E+03 -0.40919749203E+02  0.42733245096E+03  0.40000000000E+03 0.  1.
   -9000005    1    1    2    0  502  0.57323313431E+02 -0.13286322105E+03  0.97112488780E+03  0.10601991065E+04  0.40000000000E+03 0.  1.
<mgrwt>
<rscale>  2 0.42536878E+03</rscale>
<asrwt>0</asrwt>
<pdfrwt beam="1">  1       21 0.18597974E+00 0.42536878E+03</pdfrwt>
<pdfrwt beam="2">  1       21 0.42871264E-01 0.42536878E+03</pdfrwt>
<totfact> 0.73092552E+02</totfact>
</mgrwt>
</event>
<event>
 4    1  0.4774032E-002  0.4373667E+03  0.7818608E-02  0.1031558E+00
         21   -1    0    0  501  502  0.00000000000E+00  0.00000000000E+00  0.22431753811E+03  0.22431753811E+03  0.00000000000E+00 0.  1.
         21   -1    0    0  502  503 -0.00000000000E+00 -0.00000000000E+00 -0.91717148058E+03  0.91717148058E+03  0.00000000000E+00 0.  1.
    9000005    1    1    2  501    0  0.57289030076E+01  0.17679583913E+03 -0.19517897952E+03  0.47894093906E+03  0.40000000000E+03 0.  1.
   -9000005    1    1    2    0  503 -0.57289030076E+01 -0.17679583913E+03 -0.49767496296E+03  0.66254807963E+03  0.40000000000E+03 0.  1.
<mgrwt>
<rscale>  2 0.43736665E+03</rscale>
<asrwt>0</asrwt>
<pdfrwt beam="1">  1       21 0.34510390E-01 0.43736665E+03</pdfrwt>
<pdfrwt beam="2">  1       21 0.14110331E+00 0.43736665E+03</pdfrwt>
<totfact> 0.24549516E+03</totfact>
</mgrwt>
</event>
<event>
 4    1  0.4774032E-002  0.4171421E+03  0.7818608E-02  0.1038000E+00
         21   -1    0    0  501  502  0.00000000000E+00  0.00000000000E+00  0.62937817971E+03  0.62937817971E+03  0.00000000000E+00 0. -1.
         21   -1    0    0  502  503 -0.00000000000E+00 -0.00000000000E+00 -0.30856105055E+03  0.30856105055E+03  0.00000000000E+00 0. -1.
    9000005    1    1    2  501    0  0.11660127313E+03 -0.20289005833E+02  0.31163596050E+03  0.52069614223E+03  0.40000000000E+03 0. -1.
   -9000005    1    1    2    0  503 -0.11660127313E+03  0.20289005833E+02  0.91811686651E+01  0.41724308803E+03  0.40000000000E+03 0. -1.
<mgrwt>
<rscale>  2 0.41714206E+03</rscale>
<asrwt>0</asrwt>
<pdfrwt beam="1">  1       21 0.96827412E-01 0.41714206E+03</pdfrwt>
<pdfrwt beam="2">  1       21 0.47470931E-01 0.41714206E+03</pdfrwt>
<totfact> 0.33152379E+03</totfact>
</mgrwt>
</event>
<event>
 4    1  0.4774032E-002  0.4964309E+03  0.7818608E-02  0.1014715E+00
         21   -1    0    0  501  502  0.00000000000E+00  0.00000000000E+00  0.33108846294E+03  0.33108846294E+03  0.00000000000E+00 0.  1.
         21   -1    0    0  502  503 -0.00000000000E+00 -0.00000000000E+00 -0.11598733638E+04  0.11598733638E+04  0.00000000000E+00 0. -1.
    9000005    1    1    2  501    0  0.27999810823E+03  0.89692448625E+02  0.31810210351E+02  0.49744905813E+03  0.40000000000E+03 0.  1.
   -9000005    1    1    2    0  503 -0.27999810823E+03 -0.89692448625E+02 -0.86059511120E+03  0.99351276860E+03  0.40000000000E+03 0. -1.
<mgrwt>
<rscale>  2 0.49643094E+03</rscale>
<asrwt>0</asrwt>
<pdfrwt beam="1">  1       21 0.50936686E-01 0.49643094E+03</pdfrwt>
<pdfrwt beam="2">  1       21 0.17844206E+00 0.49643094E+03</pdfrwt>
<totfact> 0.55556552E+02</totfact>
</mgrwt>
</event>
<event>
 4    1  0.4774032E-002  0.4176432E+03  0.7818608E-02  0.1037836E+00
         21   -1    0    0  503  502  0.00000000000E+00  0.00000000000E+00  0.22679057876E+03  0.22679057876E+03  0.00000000000E+00 0. -1.
         21   -1    0    0  501  503 -0.00000000000E+00 -0.00000000000E+00 -0.92270425193E+03  0.92270425193E+03  0.00000000000E+00 0. -1.
    9000005    1    1    2  501    0  0.10764864237E+03  0.53268950656E+02 -0.58245532455E+03  0.71671473852E+03  0.40000000000E+03 0. -1.
   -9000005    1    1    2    0  502 -0.10764864237E+03 -0.53268950656E+02 -0.11345834862E+03  0.43278009217E+03  0.40000000000E+03 0. -1.
<mgrwt>
<rscale>  2 0.41764316E+03</rscale>
<asrwt>0</asrwt>
<pdfrwt beam="1">  1       21 0.34890858E-01 0.41764316E+03</pdfrwt>
<pdfrwt beam="2">  1       21 0.14195450E+00 0.41764316E+03</pdfrwt>
<totfact> 0.23818085E+03</totfact>
</mgrwt>
</event>
<event>
 4    1  0.4774032E-002  0.4414459E+03  0.7818608E-02  0.1030304E+00
         21   -1    0    0  503  502  0.00000000000E+00  0.00000000000E+00  0.37170398487E+03  0.37170398487E+03  0.00000000000E+00 0.  1.
         21   -1    0    0  501  503 -0.00000000000E+00 -0.00000000000E+00 -0.58167748376E+03  0.58167748376E+03  0.00000000000E+00 0.  1.
    9000005    1    1    2  501    0 -0.18591430438E+03  0.17617187297E+02 -0.25473686378E+03  0.50967181954E+03  0.40000000000E+03 0.  1.
   -9000005    1    1    2    0  502  0.18591430438E+03 -0.17617187297E+02  0.44763364883E+02  0.44370964909E+03  0.40000000000E+03 0.  1.
<mgrwt>
<rscale>  2 0.44144591E+03</rscale>
<asrwt>0</asrwt>
<pdfrwt beam="1">  1       21 0.57185229E-01 0.44144591E+03</pdfrwt>
<pdfrwt beam="2">  1       21 0.89488843E-01 0.44144591E+03</pdfrwt>
<totfact> 0.26621241E+03</totfact>
</mgrwt>
</event>
<event>
 4    1  0.4774032E-002  0.4980557E+03  0.7818608E-02  0.1014288E+00
         21   -1    0    0  501  502  0.00000000000E+00  0.00000000000E+00  0.61129846922E+03  0.61129846922E+03  0.00000000000E+00 0. -1.
         21   -1    0    0  502  503 -0.00000000000E+00 -0.00000000000E+00 -0.41375561008E+03  0.41375561008E+03  0.00000000000E+00 0. -1.
    9000005    1    1    2  501    0  0.29561683660E+03  0.25888396165E+02  0.16988006854E+03  0.52623071064E+03  0.40000000000E+03 0. -1.
   -9000005    1    1    2    0  503 -0.29561683660E+03 -0.25888396165E+02  0.27662790608E+02  0.49882336866E+03  0.40000000000E+03 0. -1.
<mgrwt>
<rscale>  2 0.49805574E+03</rscale>
<asrwt>0</asrwt>
<pdfrwt beam="1">  1       21 0.94045918E-01 0.49805574E+03</pdfrwt>
<pdfrwt beam="2">  1       21 0.63654709E-01 0.49805574E+03</pdfrwt>
<totfact> 0.18318431E+03</totfact>
</mgrwt>
</event>
<event>
 4    1  0.4774032E-002  0.4441015E+03  0.7818608E-02  0.1029496E+00
         21   -1    0    0  503  502  0.00000000000E+00  0.00000000000E+00  0.24616087623E+03  0.24616087623E+03  0.00000000000E+00 0.  1.
         21   -1    0    0  501  503 -0.00000000000E+00 -0.00000000000E+00 -0.98782753117E+03  0.98782753117E+03  0.00000000000E+00 0.  1.
    9000005    1    1    2  501    0 -0.16573709827E+03  0.98779154743E+02 -0.63900868046E+03  0.77817620168E+03  0.40000000000E+03 0. -1.
   -9000005    1    1    2    0  502  0.16573709827E+03 -0.98779154743E+02 -0.10265797447E+03  0.45581220572E+03  0.40000000000E+03 0. -1.
<mgrwt>
<rscale>  2 0.44410146E+03</rscale>
<asrwt>0</asrwt>
<pdfrwt beam="1">  1       21 0.37870904E-01 0.44410146E+03</pdfrwt>
<pdfrwt beam="2">  1       21 0.15197347E+00 0.44410146E+03</pdfrwt>
<totfact> 0.16597899E+03</totfact>
</mgrwt>
</event>
<event>
 4    1  0.4774032E-002  0.4273052E+03  0.7818608E-02  0.1034715E+00
         21   -1    0    0  503  502  0.00000000000E+00  0.00000000000E+00  0.62521414007E+03  0.62521414007E+03  0.00000000000E+00 0.  1.
         21   -1    0    0  501  503 -0.00000000000E+00 -0.00000000000E+00 -0.76678792756E+03  0.76678792756E+03  0.00000000000E+00 0.  1.
    9000005    1    1    2  501    0  0.63366164762E+01 -0.15016509977E+03 -0.61843576997E+03  0.75169974822E+03  0.40000000000E+03 0.  1.
   -9000005    1    1    2    0  502 -0.63366164762E+01  0.15016509977E+03  0.47686198248E+03  0.64030231940E+03  0.40000000000E+03 0.  1.
<mgrwt>
<rscale>  2 0.42730517E+03</rscale>
<asrwt>0</asrwt>
<pdfrwt beam="1">  1       21 0.96186791E-01 0.42730517E+03</pdfrwt>
<pdfrwt beam="2">  1       21 0.11796737E+00 0.42730517E+03</pdfrwt>
<totfact> 0.41720352E+02</totfact>
</mgrwt>
</event>
<event>
 4    1  0.4774032E-002  0.4566281E+03  0.7818608E-02  0.1025764E+00
         21   -1    0    0  503  502  0.00000000000E+00  0.00000000000E+00  0.95783791409E+03  0.95783791409E+03  0.00000000000E+00 0. -1.
         21   -1    0    0  501  503 -0.00000000000E+00 -0.00000000000E+00 -0.51934278208E+03  0.51934278208E+03  0.00000000000E+00 0. -1.
    9000005    1    1    2  501    0 -0.22024751240E+03  0.49467837335E+00 -0.34365359243E+03  0.57149540945E+03  0.40000000000E+03 0. -1.
   -9000005    1    1    2    0  502  0.22024751240E+03 -0.49467837335E+00  0.78214872444E+03  0.90568528672E+03  0.40000000000E+03 0. -1.
<mgrwt>
<rscale>  2 0.45662809E+03</rscale>
<asrwt>0</asrwt>
<pdfrwt beam="1">  1       21 0.14735968E+00 0.45662809E+03</pdfrwt>
<pdfrwt beam="2">  1       21 0.79898889E-01 0.45662809E+03</pdfrwt>
<totfact> 0.35626361E+02</totfact>
</mgrwt>
</event>
<event>
 4    1  0.4774032E-002  0.5461666E+03  0.7818608E-02  0.1002385E+00
         21   -1    0    0  503  502  0.00000000000E+00  0.00000000000E+00  0.11817313614E+03  0.11817313614E+03  0.00000000000E+00 0. -1.
         21   -1    0    0  501  503 -0.00000000000E+00 -0.00000000000E+00 -0.28651358541E+04  0.28651358541E+04  0.00000000000E+00 0.  1.
    9000005    1    1    2  501    0  0.36136018910E+03  0.87845144011E+02 -0.18880025491E+04  0.19654138447E+04  0.40000000000E+03 0.  1.
   -9000005    1    1    2    0  502 -0.36136018910E+03 -0.87845144011E+02 -0.85896016883E+03  0.10178951455E+04  0.40000000000E+03 0. -1.
<mgrwt>
<rscale>  2 0.54616660E+03</rscale>
<asrwt>0</asrwt>
<pdfrwt beam="1">  1       21 0.18180482E-01 0.54616660E+03</pdfrwt>
<pdfrwt beam="2">  1       21 0.44079015E+00 0.54616660E+03</pdfrwt>
<totfact> 0.92930011E+01</totfact>
</mgrwt>
</event>
<event>
 4    1  0.4774032E-002  0.5396208E+03  0.7818608E-02  0.1003925E+00
         21   -1    0    0  501  502  0.00000000000E+00  0.00000000000E+00  0.13724235531E+03  0.13724235531E+03  0.00000000000E+00 0.  1.
         21   -1    0    0  502  503 -0.00000000000E+00 -0.00000000000E+00 -0.21932930734E+04  0.21932930734E+04  0.00000000000E+00 0.  1.
    9000005    1    1    2  501    0  0.29364385752E+03  0.21204690947E+03 -0.12385173052E+04  0.13509684386E+04  0.40000000000E+03 0.  1.
   -9000005    1    1    2    0  503 -0.29364385752E+03 -0.21204690947E+03 -0.81753341292E+03  0.97956699011E+03  0.40000000000E+03 0.  1.
<mgrwt>
<rscale>  2 0.53962080E+03</rscale>
<asrwt>0</asrwt>
<pdfrwt beam="1">  1       21 0.21114208E-01 0.53962080E+03</pdfrwt>
<pdfrwt beam="2">  1       21 0.33742971E+00 0.53962080E+03</pdfrwt>
<totfact> 0.32162170E+02</totfact>
</mgrwt>
</event>
<event>
 4    1  0.4774032E-002  0.4181776E+03  0.7818608E-02  0.1037661E+00
         21   -1    0    0  503  502  0.00000000000E+00  0.00000000000E+00  0.10307524821E+03  0.10307524821E+03  0.00000000000E+00 0.  1.
         21   -1    0    0  501  503 -0.00000000000E+00 -0.00000000000E+00 -0.17778739322E+04  0.17778739322E+04  0.00000000000E+00 0.  1.
    9000005    1    1    2  501    0  0.89842814789E+02  0.82466675585E+02 -0.63625800859E+03  0.76137818294E+03  0.40000000000E+03 0.  1.
   -9000005    1    1    2    0  502 -0.89842814789E+02 -0.82466675585E+02 -0.10385406754E+04  0.11195709975E+04  0.40000000000E+03 0.  1.
<mgrwt>
<rscale>  2 0.41817757E+03</rscale>
<asrwt>0</asrwt>
<pdfrwt beam="1">  1       21 0.15857730E-01 0.41817757E+03</pdfrwt>
<pdfrwt beam="2">  1       21 0.27351908E+00 0.41817757E+03</pdfrwt>
<totfact> 0.14331591E+03</totfact>
</mgrwt>
</event>
<event>
 4    1  0.4774032E-002  0.8269823E+03  0.7818608E-02  0.9521762E-01
         21   -1    0    0  503  502  0.00000000000E+00  0.00000000000E+00  0.64568460106E+03  0.64568460106E+03  0.00000000000E+00 0. -1.
         21   -1    0    0  501  503 -0.00000000000E+00 -0.00000000000E+00 -0.10597307023E+04  0.10597307023E+04  0.00000000000E+00 0.  1.
    9000005    1    1    2  501    0 -0.21234857489E+03 -0.69195939724E+03 -0.22636531719E+03  0.85740362812E+03  0.40000000000E+03 0.  1.
   -9000005    1    1    2    0  502  0.21234857489E+03  0.69195939724E+03 -0.18768078408E+03  0.84801167527E+03  0.40000000000E+03 0. -1.
<mgrwt>
<rscale>  2 0.82698230E+03</rscale>
<asrwt>0</asrwt>
<pdfrwt beam="1">  1       21 0.99336093E-01 0.82698230E+03</pdfrwt>
<pdfrwt beam="2">  1       21 0.16303549E+00 0.82698230E+03</pdfrwt>
<totfact> 0.14034855E+02</totfact>
</mgrwt>
</event>
<event>
 4    1  0.4774032E-002  0.4440032E+03  0.7818608E-02  0.1029526E+00
         21   -1    0    0  503  502  0.00000000000E+00  0.00000000000E+00  0.15182503813E+04  0.15182503813E+04  0.00000000000E+00 0.  1.
         21   -1    0    0  501  503 -0.00000000000E+00 -0.00000000000E+00 -0.33665204041E+03  0.33665204041E+03  0.00000000000E+00 0.  1.
    9000005    1    1    2  501    0 -0.98574418224E+02 -0.16559561455E+03 -0.13611309745E+03  0.46439810377E+03  0.40000000000E+03 0.  1.
   -9000005    1    1    2    0  502  0.98574418224E+02  0.16559561455E+03  0.13177114384E+04  0.13905043180E+04  0.40000000000E+03 0.  1.
<mgrwt>
<rscale>  2 0.44400318E+03</rscale>
<asrwt>0</asrwt>
<pdfrwt beam="1">  1       21 0.23357698E+00 0.44400318E+03</pdfrwt>
<pdfrwt beam="2">  1       21 0.51792622E-01 0.44400318E+03</pdfrwt>
<totfact> 0.23741733E+02</totfact>
</mgrwt>
</event>
<event>
 4    1  0.4774032E-002  0.4901786E+03  0.7818608E-02  0.1016375E+00
         21   -1    0    0  503  502  0.00000000000E+00  0.00000000000E+00  0.56198977417E+03  0.56198977417E+03  0.00000000000E+00 0. -1.
         21   -1    0    0  501  503 -0.00000000000E+00 -0.00000000000E+00 -0.43990976728E+03  0.43990976728E+03  0.00000000000E+00 0.  1.
    9000005    1    1    2  501    0 -0.27772951198E+03 -0.56048363183E+02 -0.22950635914E+02  0.49071563306E+03  0.40000000000E+03 0. -1.
   -9000005    1    1    2    0  502  0.27772951198E+03  0.56048363183E+02  0.14503064281E+03  0.51118390839E+03  0.40000000000E+03 0. -1.
<mgrwt>
<rscale>  2 0.49017864E+03</rscale>
<asrwt>0</asrwt>
<pdfrwt beam="1">  1       21 0.86459966E-01 0.49017864E+03</pdfrwt>
<pdfrwt beam="2">  1       21 0.67678425E-01 0.49017864E+03</pdfrwt>
<totfact> 0.19562817E+03</totfact>
</mgrwt>
</event>
<event>
 4    1  0.4774032E-002  0.4006825E+03  0.7818608E-02  0.1043544E+00
         21   -1    0    0  501  502  0.00000000000E+00  0.00000000000E+00  0.84087039571E+03  0.84087039571E+03  0.00000000000E+00 0. -1.
         21   -1    0    0  502  503 -0.00000000000E+00 -0.00000000000E+00 -0.20605861878E+03  0.20605861878E+03  0.00000000000E+00 0. -1.
    9000005    1    1    2  501    0 -0.98487442441E+01 -0.21201190719E+02  0.45924852282E+03  0.60947165148E+03  0.40000000000E+03 0. -1.
   -9000005    1    1    2    0  503  0.98487442441E+01  0.21201190719E+02  0.17556325412E+03  0.43745736301E+03  0.40000000000E+03 0. -1.
<mgrwt>
<rscale>  2 0.40068253E+03</rscale>
<asrwt>0</asrwt>
<pdfrwt beam="1">  1       21 0.12936467E+00 0.40068253E+03</pdfrwt>
<pdfrwt beam="2">  1       21 0.31701326E-01 0.40068253E+03</pdfrwt>
<totfact> 0.37085942E+03</totfact>
</mgrwt>
</event>
<event>
 4    1  0.4774032E-002  0.5321468E+03  0.7818608E-02  0.1005713E+00
         21   -1    0    0  503  502  0.00000000000E+00  0.00000000000E+00  0.48784919307E+03  0.48784919307E+03  0.00000000000E+00 0. -1.
         21   -1    0    0  501  503 -0.00000000000E+00 -0.00000000000E+00 -0.65747969956E+03  0.65747969956E+03  0.00000000000E+00 0. -1.
    9000005    1    1    2  501    0 -0.16736181105E+03  0.30849678600E+03 -0.28080839917E+03  0.60169228000E+03  0.40000000000E+03 0. -1.
   -9000005    1    1    2    0  502  0.16736181105E+03 -0.30849678600E+03  0.11117789268E+03  0.54363661263E+03  0.40000000000E+03 0. -1.
<mgrwt>
<rscale>  2 0.53214682E+03</rscale>
<asrwt>0</asrwt>
<pdfrwt beam="1">  1       21 0.75053722E-01 0.53214682E+03</pdfrwt>
<pdfrwt beam="2">  1       21 0.10115072E+00 0.53214682E+03</pdfrwt>
<totfact> 0.10471623E+03</totfact>
</mgrwt>
</event>
<event>
 4    1  0.4774032E-002  0.4260706E+03  0.7818608E-02  0.1035108E+00
         21   -1    0    0  503  502  0.00000000000E+00  0.00000000000E+00  0.43323788701E+03  0.43323788701E+03  0.00000000000E+00 0.  1.
         21   -1    0    0  501  503 -0.00000000000E+00 -0.00000000000E+00 -0.41911971802E+03  0.41911971802E+03  0.00000000000E+00 0.  1.
    9000005    1    1    2  501    0 -0.14642069544E+03 -0.98538271847E+01  0.54489086898E+00  0.42607090357E+03  0.40000000000E+03 0.  1.
   -9000005    1    1    2    0  502  0.14642069544E+03  0.98538271847E+01  0.13573278117E+02  0.42628670146E+03  0.40000000000E+03 0.  1.
<mgrwt>
<rscale>  2 0.42607056E+03</rscale>
<asrwt>0</asrwt>
<pdfrwt beam="1">  1       21 0.66651983E-01 0.42607056E+03</pdfrwt>
<pdfrwt beam="2">  1       21 0.64479956E-01 0.42607056E+03</pdfrwt>
<totfact> 0.40431743E+03</totfact>
</mgrwt>
</event>
<event>
 4    1  0.4774032E-002  0.4472124E+03  0.7818608E-02  0.1028557E+00
         21   -1    0    0  503  502  0.00000000000E+00  0.00000000000E+00  0.22793468100E+03  0.22793468100E+03  0.00000000000E+00 0.  1.
         21   -1    0    0  501  503 -0.00000000000E+00 -0.00000000000E+00 -0.12646206918E+04  0.12646206918E+04  0.00000000000E+00 0.  1.
    9000005    1    1    2  501    0 -0.79727138313E+02 -0.18341887175E+03 -0.93127394528E+03  0.10330876344E+04  0.40000000000E+03 0.  1.
   -9000005    1    1    2    0  502  0.79727138313E+02  0.18341887175E+03 -0.10541206548E+03  0.45946773842E+03  0.40000000000E+03 0.  1.
<mgrwt>
<rscale>  2 0.44721236E+03</rscale>
<asrwt>0</asrwt>
<pdfrwt beam="1">  1       21 0.35066873E-01 0.44721236E+03</pdfrwt>
<pdfrwt beam="2">  1       21 0.19455703E+00 0.44721236E+03</pdfrwt>
<totfact> 0.95436785E+02</totfact>
</mgrwt>
</event>
<event>
 4    1  0.4774032E-002  0.4251302E+03  0.7818608E-02  0.1035409E+00
         21   -1    0    0  501  502  0.00000000000E+00  0.00000000000E+00  0.44393622723E+03  0.44393622723E+03  0.00000000000E+00 0.  1.
         21   -1    0    0  502  503 -0.00000000000E+00 -0.00000000000E+00 -0.49535485258E+03  0.49535485258E+03  0.00000000000E+00 0.  1.
    9000005    1    1    2  501    0 -0.68532094334E+02 -0.12664529095E+03  0.17250274647E+03  0.45879502527E+03  0.40000000000E+03 0.  1.
   -9000005    1    1    2    0  503  0.68532094334E+02  0.12664529095E+03 -0.22392137181E+03  0.48049605454E+03  0.40000000000E+03 0.  1.
<mgrwt>
<rscale>  2 0.42513019E+03</rscale>
<asrwt>0</asrwt>
<pdfrwt beam="1">  1       21 0.68297882E-01 0.42513019E+03</pdfrwt>
<pdfrwt beam="2">  1       21 0.76208438E-01 0.42513019E+03</pdfrwt>
<totfact> 0.26296871E+03</totfact>
</mgrwt>
</event>
<event>
 4    1  0.4774032E-002  0.4723204E+03  0.7818608E-02  0.1021267E+00
         21   -1    0    0  501  502  0.00000000000E+00  0.00000000000E+00  0.14731523102E+04  0.14731523102E+04  0.00000000000E+00 0. -1.
         21   -1    0    0  502  503 -0.00000000000E+00 -0.00000000000E+00 -0.43387504267E+03  0.43387504267E+03  0.00000000000E+00 0. -1.
    9000005    1    1    2  501    0  0.23087819083E+03  0.98903215518E+02  0.12889600967E+04  0.13727726381E+04  0.40000000000E+03 0. -1.
   -9000005    1    1    2    0  503 -0.23087819083E+03 -0.98903215518E+02 -0.24968282919E+03  0.53425471475E+03  0.40000000000E+03 0. -1.
<mgrwt>
<rscale>  2 0.47232043E+03</rscale>
<asrwt>0</asrwt>
<pdfrwt beam="1">  1       21 0.22663881E+00 0.47232043E+03</pdfrwt>
<pdfrwt beam="2">  1       21 0.66750007E-01 0.47232043E+03</pdfrwt>
<totfact> 0.14846571E+02</totfact>
</mgrwt>
</event>
<event>
 4    1  0.4774032E-002  0.4372915E+03  0.7818608E-02  0.1031581E+00
         21   -1    0    0  503  502  0.00000000000E+00  0.00000000000E+00  0.50390157393E+03  0.50390157393E+03  0.00000000000E+00 0.  1.
         21   -1    0    0  501  503 -0.00000000000E+00 -0.00000000000E+00 -0.38919711004E+03  0.38919711004E+03  0.00000000000E+00 0.  1.
    9000005    1    1    2  501    0 -0.16891174753E+03 -0.51890946952E+02  0.12788772739E+03  0.45560851577E+03  0.40000000000E+03 0.  1.
   -9000005    1    1    2    0  502  0.16891174753E+03  0.51890946952E+02 -0.13183263505E+02  0.43749016819E+03  0.40000000000E+03 0.  1.
<mgrwt>
<rscale>  2 0.43729149E+03</rscale>
<asrwt>0</asrwt>
<pdfrwt beam="1">  1       21 0.77523319E-01 0.43729149E+03</pdfrwt>
<pdfrwt beam="2">  1       21 0.59876479E-01 0.43729149E+03</pdfrwt>
<totfact> 0.33687899E+03</totfact>
</mgrwt>
</event>
<event>
 4    1  0.4774032E-002  0.4160468E+03  0.7818608E-02  0.1038361E+00
         21   -1    0    0  503  502  0.00000000000E+00  0.00000000000E+00  0.52193806627E+03  0.52193806627E+03  0.00000000000E+00 0.  1.
         21   -1    0    0  501  503 -0.00000000000E+00 -0.00000000000E+00 -0.20497891647E+04  0.20497891647E+04  0.00000000000E+00 0. -1.
    9000005    1    1    2  501    0  0.20961879281E+02  0.11249682160E+03 -0.19411814892E+04  0.19852658536E+04  0.40000000000E+03 0. -1.
   -9000005    1    1    2    0  502 -0.20961879281E+02 -0.11249682160E+03  0.41333039078E+03  0.58646137741E+03  0.40000000000E+03 0.  1.
<mgrwt>
<rscale>  2 0.41604679E+03</rscale>
<asrwt>0</asrwt>
<pdfrwt beam="1">  1       21 0.80298163E-01 0.41604679E+03</pdfrwt>
<pdfrwt beam="2">  1       21 0.31535218E+00 0.41604679E+03</pdfrwt>
<totfact> 0.29195427E+01</totfact>
</mgrwt>
</event>
<event>
 4    1  0.4774032E-002  0.4116150E+03  0.7818608E-02  0.1039830E+00
         21   -1    0    0  503  502  0.00000000000E+00  0.00000000000E+00  0.11754633535E+04  0.11754633535E+04  0.00000000000E+00 0.  1.
         21   -1    0    0  501  503 -0.00000000000E+00 -0.00000000000E+00 -0.14684676119E+03  0.14684676119E+03  0.00000000000E+00 0.  1.
    9000005    1    1    2  501    0 -0.95581333956E+02 -0.17061441516E+02  0.42448345859E+03  0.59128088994E+03  0.40000000000E+03 0.  1.
   -9000005    1    1    2    0  502  0.95581333956E+02  0.17061441516E+02  0.60413313368E+03  0.73102922472E+03  0.40000000000E+03 0.  1.
<mgrwt>
<rscale>  2 0.41161497E+03</rscale>
<asrwt>0</asrwt>
<pdfrwt beam="1">  1       21 0.18084051E+00 0.41161497E+03</pdfrwt>
<pdfrwt beam="2">  1       21 0.22591810E-01 0.41161497E+03</pdfrwt>
<totfact> 0.28660696E+03</totfact>
</mgrwt>
</event>
<event>
 4    1  0.4774032E-002  0.4143336E+03  0.7818608E-02  0.1038926E+00
         21   -1    0    0  501  502  0.00000000000E+00  0.00000000000E+00  0.36105138898E+03  0.36105138898E+03  0.00000000000E+00 0.  1.
         21   -1    0    0  502  503 -0.00000000000E+00 -0.00000000000E+00 -0.60929101492E+03  0.60929101492E+03  0.00000000000E+00 0.  1.
    9000005    1    1    2  501    0  0.48145258594E+02  0.96718077623E+02  0.10324862971E+03  0.42700425291E+03  0.40000000000E+03 0.  1.
   -9000005    1    1    2    0  503 -0.48145258594E+02 -0.96718077623E+02 -0.35148825565E+03  0.54333815099E+03  0.40000000000E+03 0.  1.
<mgrwt>
<rscale>  2 0.41433362E+03</rscale>
<asrwt>0</asrwt>
<pdfrwt beam="1">  1       21 0.55546368E-01 0.41433362E+03</pdfrwt>
<pdfrwt beam="2">  1       21 0.93737079E-01 0.41433362E+03</pdfrwt>
<totfact> 0.25657652E+03</totfact>
</mgrwt>
</event>
<event>
 4    1  0.4774032E-002  0.4735071E+03  0.7818608E-02  0.1020935E+00
         21   -1    0    0  503  502  0.00000000000E+00  0.00000000000E+00  0.41922096601E+03  0.41922096601E+03  0.00000000000E+00 0.  1.
         21   -1    0    0  501  503 -0.00000000000E+00 -0.00000000000E+00 -0.59317262390E+03  0.59317262390E+03  0.00000000000E+00 0. -1.
    9000005    1    1    2  501    0  0.25266566854E+03 -0.19210261788E+02 -0.24573843947E+03  0.53347573033E+03  0.40000000000E+03 0. -1.
   -9000005    1    1    2    0  502 -0.25266566854E+03  0.19210261788E+02  0.71786781576E+02  0.47891785958E+03  0.40000000000E+03 0.  1.
<mgrwt>
<rscale>  2 0.47350710E+03</rscale>
<asrwt>0</asrwt>
<pdfrwt beam="1">  1       21 0.64495533E-01 0.47350710E+03</pdfrwt>
<pdfrwt beam="2">  1       21 0.91257327E-01 0.47350710E+03</pdfrwt>
<totfact> 0.19284278E+03</totfact>
</mgrwt>
</event>
<event>
 4    1  0.4774032E-002  0.4383569E+03  0.7818608E-02  0.1031252E+00
         21   -1    0    0  501  502  0.00000000000E+00  0.00000000000E+00  0.18488318615E+03  0.18488318615E+03  0.00000000000E+00 0. -1.
         21   -1    0    0  502  503 -0.00000000000E+00 -0.00000000000E+00 -0.29096508352E+04  0.29096508352E+04  0.00000000000E+00 0.  1.
    9000005    1    1    2  501    0  0.11021349208E+03  0.14145570507E+03 -0.12187010260E+03  0.45498247465E+03  0.40000000000E+03 0. -1.
   -9000005    1    1    2    0  503 -0.11021349208E+03 -0.14145570507E+03 -0.26028975464E+04  0.26395515467E+04  0.40000000000E+03 0.  1.
<mgrwt>
<rscale>  2 0.43835685E+03</rscale>
<asrwt>0</asrwt>
<pdfrwt beam="1">  1       21 0.28443568E-01 0.43835685E+03</pdfrwt>
<pdfrwt beam="2">  1       21 0.44763858E+00 0.43835685E+03</pdfrwt>
<totfact> 0.37832030E+01</totfact>
</mgrwt>
</event>
<event>
 4    1  0.4774032E-002  0.5302636E+03  0.7818608E-02  0.1006168E+00
         21   -1    0    0  501  502  0.00000000000E+00  0.00000000000E+00  0.23249597032E+04  0.23249597032E+04  0.00000000000E+00 0. -1.
         21   -1    0    0  502  503 -0.00000000000E+00 -0.00000000000E+00 -0.16493202830E+03  0.16493202830E+03  0.00000000000E+00 0. -1.
    9000005    1    1    2  501    0 -0.14478769119E+03 -0.31656912045E+03  0.17229789180E+04  0.18027301061E+04  0.40000000000E+03 0.  1.
   -9000005    1    1    2    0  503  0.14478769119E+03  0.31656912045E+03  0.43704875694E+03  0.68716162544E+03  0.40000000000E+03 0.  1.
<mgrwt>
<rscale>  2 0.53026360E+03</rscale>
<asrwt>0</asrwt>
<pdfrwt beam="1">  1       21 0.35768608E+00 0.53026360E+03</pdfrwt>
<pdfrwt beam="2">  1       21 0.25374160E-01 0.53026360E+03</pdfrwt>
<totfact> 0.16976541E+02</totfact>
</mgrwt>
</event>
<event>
 4    1  0.4774032E-002  0.4494231E+03  0.7818608E-02  0.1027894E+00
         21   -1    0    0  501  502  0.00000000000E+00  0.00000000000E+00  0.10338688376E+04  0.10338688376E+04  0.00000000000E+00 0. -1.
         21   -1    0    0  502  503 -0.00000000000E+00 -0.00000000000E+00 -0.33656023216E+03  0.33656023216E+03  0.00000000000E+00 0.  1.
    9000005    1    1    2  501    0  0.20256752800E+03 -0.30782238130E+02  0.79247354668E+03  0.91104087273E+03  0.40000000000E+03 0. -1.
   -9000005    1    1    2    0  503 -0.20256752800E+03  0.30782238130E+02 -0.95164941199E+02  0.45938819708E+03  0.40000000000E+03 0.  1.
<mgrwt>
<rscale>  2 0.44942313E+03</rscale>
<asrwt>0</asrwt>
<pdfrwt beam="1">  1       21 0.15905674E+00 0.44942313E+03</pdfrwt>
<pdfrwt beam="2">  1       21 0.51778498E-01 0.44942313E+03</pdfrwt>
<totfact> 0.75974025E+02</totfact>
</mgrwt>
</event>
<event>
 4    1  0.4774032E-002  0.4394098E+03  0.7818608E-02  0.1030928E+00
         21   -1    0    0  503  502  0.00000000000E+00  0.00000000000E+00  0.13235959910E+04  0.13235959910E+04  0.00000000000E+00 0.  1.
         21   -1    0    0  501  503 -0.00000000000E+00 -0.00000000000E+00 -0.24353525267E+03  0.24353525267E+03  0.00000000000E+00 0. -1.
    9000005    1    1    2  501    0  0.17977853619E+03 -0.27580247563E+02  0.10362237656E+04  0.11255401746E+04  0.40000000000E+03 0.  1.
   -9000005    1    1    2    0  502 -0.17977853619E+03  0.27580247563E+02  0.43836972692E+02  0.44159106909E+03  0.40000000000E+03 0. -1.
<mgrwt>
<rscale>  2 0.43940982E+03</rscale>
<asrwt>0</asrwt>
<pdfrwt beam="1">  1       21 0.20363015E+00 0.43940982E+03</pdfrwt>
<pdfrwt beam="2">  1       21 0.37466963E-01 0.43940982E+03</pdfrwt>
<totfact> 0.72822050E+02</totfact>
</mgrwt>
</event>
<event>
 4    1  0.4774032E-002  0.4311257E+03  0.7818608E-02  0.1033505E+00
         21   -1    0    0  501  502  0.00000000000E+00  0.00000000000E+00  0.81791974530E+03  0.81791974530E+03  0.00000000000E+00 0.  1.
         21   -1    0    0  502  503 -0.00000000000E+00 -0.00000000000E+00 -0.42178633025E+03  0.42178633025E+03  0.00000000000E+00 0.  1.
    9000005    1    1    2  501    0  0.15323515831E+03  0.48870765304E+02  0.61903248998E+03  0.75436767500E+03  0.40000000000E+03 0.  1.
   -9000005    1    1    2    0  503 -0.15323515831E+03 -0.48870765304E+02 -0.22289907492E+03  0.48533840055E+03  0.40000000000E+03 0.  1.
<mgrwt>
<rscale>  2 0.43112570E+03</rscale>
<asrwt>0</asrwt>
<pdfrwt beam="1">  1       21 0.12583381E+00 0.43112570E+03</pdfrwt>
<pdfrwt beam="2">  1       21 0.64890205E-01 0.43112570E+03</pdfrwt>
<totfact> 0.87497879E+02</totfact>
</mgrwt>
</event>
<event>
 4    1  0.4774032E-002  0.4012956E+03  0.7818608E-02  0.1043332E+00
         21   -1    0    0  503  502  0.00000000000E+00  0.00000000000E+00  0.95172019346E+03  0.95172019346E+03  0.00000000000E+00 0. -1.
         21   -1    0    0  501  503 -0.00000000000E+00 -0.00000000000E+00 -0.30241055836E+03  0.30241055836E+03  0.00000000000E+00 0. -1.
    9000005    1    1    2  501    0  0.25880593823E+02  0.19192624343E+02 -0.91515882035E+02  0.41159849202E+03  0.40000000000E+03 0. -1.
   -9000005    1    1    2    0  502 -0.25880593823E+02 -0.19192624343E+02  0.74082551714E+03  0.84253225980E+03  0.40000000000E+03 0. -1.
<mgrwt>
<rscale>  2 0.40129560E+03</rscale>
<asrwt>0</asrwt>
<pdfrwt beam="1">  1       21 0.14641849E+00 0.40129560E+03</pdfrwt>
<pdfrwt beam="2">  1       21 0.46524701E-01 0.40129560E+03</pdfrwt>
<totfact> 0.12213111E+03</totfact>
</mgrwt>
</event>
<event>
 4    1  0.4774032E-002  0.4474523E+03  0.7818608E-02  0.1028485E+00
         21   -1    0    0  501  502  0.00000000000E+00  0.00000000000E+00  0.89604302783E+03  0.89604302783E+03  0.00000000000E+00 0.  1.
         21   -1    0    0  502  503 -0.00000000000E+00 -0.00000000000E+00 -0.55726764322E+03  0.55726764322E+03  0.00000000000E+00 0.  1.
    9000005    1    1    2  501    0  0.92312159848E+02 -0.17802266668E+03  0.73180209065E+03  0.85775748588E+03  0.40000000000E+03 0.  1.
   -9000005    1    1    2    0  503 -0.92312159848E+02  0.17802266668E+03 -0.39302670604E+03  0.59555318517E+03  0.40000000000E+03 0.  1.
<mgrwt>
<rscale>  2 0.44745235E+03</rscale>
<asrwt>0</asrwt>
<pdfrwt beam="1">  1       21 0.13785277E+00 0.44745235E+03</pdfrwt>
<pdfrwt beam="2">  1       21 0.85733483E-01 0.44745235E+03</pdfrwt>
<totfact> 0.36304008E+02</totfact>
</mgrwt>
</event>
<event>
 4    1  0.4774032E-002  0.5748291E+03  0.7818608E-02  0.9959049E-01
         21   -1    0    0  503  502  0.00000000000E+00  0.00000000000E+00  0.33648417401E+03  0.33648417401E+03  0.00000000000E+00 0.  1.
         21   -1    0    0  501  503 -0.00000000000E+00 -0.00000000000E+00 -0.16355275395E+04  0.16355275395E+04  0.00000000000E+00 0.  1.
    9000005    1    1    2  501    0 -0.40384806165E+03  0.85645729040E+02 -0.12727993044E+04  0.13965838740E+04  0.40000000000E+03 0.  1.
   -9000005    1    1    2    0  502  0.40384806165E+03 -0.85645729040E+02 -0.26244061129E+02  0.57542783956E+03  0.40000000000E+03 0.  1.
<mgrwt>
<rscale>  2 0.57482906E+03</rscale>
<asrwt>0</asrwt>
<pdfrwt beam="1">  1       21 0.51766797E-01 0.57482906E+03</pdfrwt>
<pdfrwt beam="2">  1       21 0.25161962E+00 0.57482906E+03</pdfrwt>
<totfact> 0.17192836E+02</totfact>
</mgrwt>
</event>
<event>
 4    1  0.4774032E-002  0.7327583E+03  0.7818608E-02  0.9662795E-01
         21   -1    0    0  503  502  0.00000000000E+00  0.00000000000E+00  0.62098024390E+03  0.62098024390E+03  0.00000000000E+00 0. -1.
         21   -1    0    0  501  503 -0.00000000000E+00 -0.00000000000E+00 -0.86499765957E+03  0.86499765957E+03  0.00000000000E+00 0.  1.
    9000005    1    1    2  501    0 -0.59046339017E+02 -0.61110408218E+03 -0.13676193000E+03  0.74541162783E+03  0.40000000000E+03 0.  1.
   -9000005    1    1    2    0  502  0.59046339017E+02  0.61110408218E+03 -0.10725548568E+03  0.74056627564E+03  0.40000000000E+03 0. -1.
<mgrwt>
<rscale>  2 0.73275826E+03</rscale>
<asrwt>0</asrwt>
<pdfrwt beam="1">  1       21 0.95535423E-01 0.73275826E+03</pdfrwt>
<pdfrwt beam="2">  1       21 0.13307656E+00 0.73275826E+03</pdfrwt>
<totfact> 0.27718003E+02</totfact>
</mgrwt>
</event>
<event>
 4    1  0.4774032E-002  0.4001998E+03  0.7818608E-02  0.1043711E+00
         21   -1    0    0  501  502  0.00000000000E+00  0.00000000000E+00  0.54805202862E+03  0.54805202862E+03  0.00000000000E+00 0.  1.
         21   -1    0    0  502  503 -0.00000000000E+00 -0.00000000000E+00 -0.58195040860E+03  0.58195040860E+03  0.00000000000E+00 0.  1.
    9000005    1    1    2  501    0 -0.10976479560E+02  0.62754814384E+01  0.38170134991E+03  0.55304229973E+03  0.40000000000E+03 0.  1.
   -9000005    1    1    2    0  503  0.10976479560E+02 -0.62754814384E+01 -0.41559972989E+03  0.57696013749E+03  0.40000000000E+03 0.  1.
<mgrwt>
<rscale>  2 0.40019978E+03</rscale>
<asrwt>0</asrwt>
<pdfrwt beam="1">  1       21 0.84315697E-01 0.40019978E+03</pdfrwt>
<pdfrwt beam="2">  1       21 0.89530832E-01 0.40019978E+03</pdfrwt>
<totfact> 0.11303305E+03</totfact>
</mgrwt>
</event>
<event>
 4    1  0.4774032E-002  0.4544995E+03  0.7818608E-02  0.1026389E+00
         21   -1    0    0  503  502  0.00000000000E+00  0.00000000000E+00  0.31249537376E+03  0.31249537376E+03  0.00000000000E+00 0. -1.
         21   -1    0    0  501  503 -0.00000000000E+00 -0.00000000000E+00 -0.71152094510E+03  0.71152094510E+03  0.00000000000E+00 0.  1.
    9000005    1    1    2  501    0 -0.20387755284E+03 -0.70736871451E+02 -0.33590098225E+03  0.56515416605E+03  0.40000000000E+03 0.  1.
   -9000005    1    1    2    0  502  0.20387755284E+03  0.70736871451E+02 -0.63124589095E+02  0.45886215281E+03  0.40000000000E+03 0. -1.
<mgrwt>
<rscale>  2 0.45449946E+03</rscale>
<asrwt>0</asrwt>
<pdfrwt beam="1">  1       21 0.48076212E-01 0.45449946E+03</pdfrwt>
<pdfrwt beam="2">  1       21 0.10946476E+00 0.45449946E+03</pdfrwt>
<totfact> 0.23580096E+03</totfact>
</mgrwt>
</event>
<event>
 4    1  0.4774032E-002  0.4037619E+03  0.7818608E-02  0.1042485E+00
         21   -1    0    0  503  502  0.00000000000E+00  0.00000000000E+00  0.35853728801E+03  0.35853728801E+03  0.00000000000E+00 0. -1.
         21   -1    0    0  501  503 -0.00000000000E+00 -0.00000000000E+00 -0.64197378181E+03  0.64197378181E+03  0.00000000000E+00 0. -1.
    9000005    1    1    2  501    0 -0.54835013312E+02  0.41007085417E+01  0.12847975244E+03  0.42371068111E+03  0.40000000000E+03 0. -1.
   -9000005    1    1    2    0  502  0.54835013312E+02 -0.41007085417E+01 -0.41191624624E+03  0.57680038871E+03  0.40000000000E+03 0. -1.
<mgrwt>
<rscale>  2 0.40376193E+03</rscale>
<asrwt>0</asrwt>
<pdfrwt beam="1">  1       21 0.55159583E-01 0.40376193E+03</pdfrwt>
<pdfrwt beam="2">  1       21 0.98765196E-01 0.40376193E+03</pdfrwt>
<totfact> 0.23079109E+03</totfact>
</mgrwt>
</event>
<event>
 4    1  0.4774032E-002  0.4378150E+03  0.7818608E-02  0.1031419E+00
         21   -1    0    0  501  502  0.00000000000E+00  0.00000000000E+00  0.59397335243E+03  0.59397335243E+03  0.00000000000E+00 0. -1.
         21   -1    0    0  502  503 -0.00000000000E+00 -0.00000000000E+00 -0.38055187254E+03  0.38055187254E+03  0.00000000000E+00 0.  1.
    9000005    1    1    2  501    0 -0.52221488859E+02  0.17016123807E+03 -0.83253710188E+02  0.44566030909E+03  0.40000000000E+03 0. -1.
   -9000005    1    1    2    0  503  0.52221488859E+02 -0.17016123807E+03  0.29667519007E+03  0.52886491588E+03  0.40000000000E+03 0. -1.
<mgrwt>
<rscale>  2 0.43781495E+03</rscale>
<asrwt>0</asrwt>
<pdfrwt beam="1">  1       21 0.91380516E-01 0.43781495E+03</pdfrwt>
<pdfrwt beam="2">  1       21 0.58546442E-01 0.43781495E+03</pdfrwt>
<totfact> 0.24101430E+03</totfact>
</mgrwt>
</event>
<event>
 4    1  0.4774032E-002  0.4254301E+03  0.7818608E-02  0.1035313E+00
         21   -1    0    0  501  502  0.00000000000E+00  0.00000000000E+00  0.28585148213E+03  0.28585148213E+03  0.00000000000E+00 0.  1.
         21   -1    0    0  502  503 -0.00000000000E+00 -0.00000000000E+00 -0.89562395718E+03  0.89562395718E+03  0.00000000000E+00 0.  1.
    9000005    1    1    2  501    0 -0.98647702825E+02  0.10611048051E+03  0.14902794643E+02  0.42569108123E+03  0.40000000000E+03 0. -1.
   -9000005    1    1    2    0  503  0.98647702825E+02 -0.10611048051E+03 -0.62467526970E+03  0.75578435808E+03  0.40000000000E+03 0. -1.
<mgrwt>
<rscale>  2 0.42543014E+03</rscale>
<asrwt>0</asrwt>
<pdfrwt beam="1">  1       21 0.43977152E-01 0.42543014E+03</pdfrwt>
<pdfrwt beam="2">  1       21 0.13778830E+00 0.42543014E+03</pdfrwt>
<totfact> 0.15982070E+03</totfact>
</mgrwt>
</event>
<event>
 4    1  0.4774032E-002  0.5138206E+03  0.7818608E-02  0.1010233E+00
         21   -1    0    0  503  502  0.00000000000E+00  0.00000000000E+00  0.54874841670E+03  0.54874841670E+03  0.00000000000E+00 0.  1.
         21   -1    0    0  501  503 -0.00000000000E+00 -0.00000000000E+00 -0.50442136856E+03  0.50442136856E+03  0.00000000000E+00 0. -1.
    9000005    1    1    2  501    0  0.99228996736E+02 -0.30686342940E+03 -0.91024659597E+02  0.52182089528E+03  0.40000000000E+03 0. -1.
   -9000005    1    1    2    0  502 -0.99228996736E+02  0.30686342940E+03  0.13535170773E+03  0.53134888998E+03  0.40000000000E+03 0.  1.
<mgrwt>
<rscale>  2 0.51382055E+03</rscale>
<asrwt>0</asrwt>
<pdfrwt beam="1">  1       21 0.84422834E-01 0.51382055E+03</pdfrwt>
<pdfrwt beam="2">  1       21 0.77603287E-01 0.51382055E+03</pdfrwt>
<totfact> 0.15039375E+03</totfact>
</mgrwt>
</event>
<event>
 4    1  0.4774032E-002  0.4880491E+03  0.7818608E-02  0.1016946E+00
         21   -1    0    0  501  502  0.00000000000E+00  0.00000000000E+00  0.19740270413E+03  0.19740270413E+03  0.00000000000E+00 0.  1.
         21   -1    0    0  502  503 -0.00000000000E+00 -0.00000000000E+00 -0.13537910528E+04  0.13537910528E+04  0.00000000000E+00 0. -1.
    9000005    1    1    2  501    0 -0.27901816132E+03 -0.18461381506E+02 -0.32247859759E+03  0.58496530056E+03  0.40000000000E+03 0. -1.
   -9000005    1    1    2    0  503  0.27901816132E+03  0.18461381506E+02 -0.83390975112E+03  0.96622845641E+03  0.40000000000E+03 0. -1.
<mgrwt>
<rscale>  2 0.48804913E+03</rscale>
<asrwt>0</asrwt>
<pdfrwt beam="1">  1       21 0.30369647E-01 0.48804913E+03</pdfrwt>
<pdfrwt beam="2">  1       21 0.20827555E+00 0.48804913E+03</pdfrwt>
<totfact> 0.10136284E+03</totfact>
</mgrwt>
</event>
<event>
 4    1  0.4774032E-002  0.5104914E+03  0.7818608E-02  0.1011076E+00
         21   -1    0    0  503  502  0.00000000000E+00  0.00000000000E+00  0.33135483925E+03  0.33135483925E+03  0.00000000000E+00 0. -1.
         21   -1    0    0  501  503 -0.00000000000E+00 -0.00000000000E+00 -0.79771406814E+03  0.79771406814E+03  0.00000000000E+00 0. -1.
    9000005    1    1    2  501    0  0.31085915555E+03 -0.62992794665E+02 -0.16616368235E+03  0.53685368221E+03  0.40000000000E+03 0. -1.
   -9000005    1    1    2    0  502 -0.31085915555E+03  0.62992794665E+02 -0.30019554654E+03  0.59221522518E+03  0.40000000000E+03 0. -1.
<mgrwt>
<rscale>  2 0.51049144E+03</rscale>
<asrwt>0</asrwt>
<pdfrwt beam="1">  1       21 0.50977668E-01 0.51049144E+03</pdfrwt>
<pdfrwt beam="2">  1       21 0.12272524E+00 0.51049144E+03</pdfrwt>
<totfact> 0.15298098E+03</totfact>
</mgrwt>
</event>
<event>
 4    1  0.4774032E-002  0.5183877E+03  0.7818608E-02  0.1009088E+00
         21   -1    0    0  501  502  0.00000000000E+00  0.00000000000E+00  0.17815542111E+04  0.17815542111E+04  0.00000000000E+00 0. -1.
         21   -1    0    0  502  503 -0.00000000000E+00 -0.00000000000E+00 -0.38332023979E+03  0.38332023979E+03  0.00000000000E+00 0.  1.
    9000005    1    1    2  501    0  0.32934283638E+03 -0.16095285912E+02  0.15420962616E+04  0.16268947852E+04  0.40000000000E+03 0. -1.
   -9000005    1    1    2    0  503 -0.32934283638E+03  0.16095285912E+02 -0.14386229030E+03  0.53797966567E+03  0.40000000000E+03 0.  1.
<mgrwt>
<rscale>  2 0.51838766E+03</rscale>
<asrwt>0</asrwt>
<pdfrwt beam="1">  1       21 0.27408526E+00 0.51838766E+03</pdfrwt>
<pdfrwt beam="2">  1       21 0.58972346E-01 0.51838766E+03</pdfrwt>
<totfact> 0.96974065E+01</totfact>
</mgrwt>
</event>
<event>
 4    1  0.4774032E-002  0.4122521E+03  0.7818608E-02  0.1039618E+00
         21   -1    0    0  501  502  0.00000000000E+00  0.00000000000E+00  0.18026794425E+03  0.18026794425E+03  0.00000000000E+00 0. -1.
         21   -1    0    0  502  503 -0.00000000000E+00 -0.00000000000E+00 -0.14153977834E+04  0.14153977834E+04  0.00000000000E+00 0. -1.
    9000005    1    1    2  501    0  0.18855045036E+02  0.97960548769E+02 -0.15653317284E+03  0.44096985842E+03  0.40000000000E+03 0. -1.
   -9000005    1    1    2    0  503 -0.18855045036E+02 -0.97960548769E+02 -0.10785966664E+04  0.11546958693E+04  0.40000000000E+03 0. -1.
<mgrwt>
<rscale>  2 0.41225209E+03</rscale>
<asrwt>0</asrwt>
<pdfrwt beam="1">  1       21 0.27733529E-01 0.41225209E+03</pdfrwt>
<pdfrwt beam="2">  1       21 0.21775351E+00 0.41225209E+03</pdfrwt>
<totfact> 0.10911534E+03</totfact>
</mgrwt>
</event>
<event>
 4    1  0.4774032E-002  0.4261710E+03  0.7818608E-02  0.1035076E+00
         21   -1    0    0  503  502  0.00000000000E+00  0.00000000000E+00  0.58397391580E+03  0.58397391580E+03  0.00000000000E+00 0. -1.
         21   -1    0    0  501  503 -0.00000000000E+00 -0.00000000000E+00 -0.31176152935E+03  0.31176152935E+03  0.00000000000E+00 0. -1.
    9000005    1    1    2  501    0 -0.14302365172E+03  0.34146172498E+02  0.11411685193E+03  0.44118520141E+03  0.40000000000E+03 0. -1.
   -9000005    1    1    2    0  502  0.14302365172E+03 -0.34146172498E+02  0.15809553452E+03  0.45455024374E+03  0.40000000000E+03 0. -1.
<mgrwt>
<rscale>  2 0.42617101E+03</rscale>
<asrwt>0</asrwt>
<pdfrwt beam="1">  1       21 0.89842141E-01 0.42617101E+03</pdfrwt>
<pdfrwt beam="2">  1       21 0.47963312E-01 0.42617101E+03</pdfrwt>
<totfact> 0.38646308E+03</totfact>
</mgrwt>
</event>
<event>
 4    1  0.4774032E-002  0.5277895E+03  0.7818608E-02  0.1006770E+00
         21   -1    0    0  501  502  0.00000000000E+00  0.00000000000E+00  0.33143435532E+03  0.33143435532E+03  0.00000000000E+00 0. -1.
         21   -1    0    0  502  503 -0.00000000000E+00 -0.00000000000E+00 -0.10043540215E+04  0.10043540215E+04  0.00000000000E+00 0.  1.
    9000005    1    1    2  501    0  0.17038841516E+03  0.29921482678E+03 -0.66668375951E+02  0.53198345551E+03  0.40000000000E+03 0. -1.
   -9000005    1    1    2    0  503 -0.17038841516E+03 -0.29921482678E+03 -0.60625129021E+03  0.80380492128E+03  0.40000000000E+03 0.  1.
<mgrwt>
<rscale>  2 0.52778947E+03</rscale>
<asrwt>0</asrwt>
<pdfrwt beam="1">  1       21 0.50989901E-01 0.52778947E+03</pdfrwt>
<pdfrwt beam="2">  1       21 0.15451600E+00 0.52778947E+03</pdfrwt>
<totfact> 0.82402326E+02</totfact>
</mgrwt>
</event>
<event>
 4    1  0.4774032E-002  0.4834881E+03  0.7818608E-02  0.1018181E+00
         21   -1    0    0  503  502  0.00000000000E+00  0.00000000000E+00  0.12120021857E+04  0.12120021857E+04  0.00000000000E+00 0. -1.
         21   -1    0    0  501  503 -0.00000000000E+00 -0.00000000000E+00 -0.50612722619E+03  0.50612722619E+03  0.00000000000E+00 0. -1.
    9000005    1    1    2  501    0 -0.25984388686E+03  0.79005816136E+02 -0.32290500263E+03  0.58140210289E+03  0.40000000000E+03 0. -1.
   -9000005    1    1    2    0  502  0.25984388686E+03 -0.79005816136E+02  0.10287799622E+04  0.11367273090E+04  0.40000000000E+03 0. -1.
<mgrwt>
<rscale>  2 0.48348812E+03</rscale>
<asrwt>0</asrwt>
<pdfrwt beam="1">  1       21 0.18646187E+00 0.48348812E+03</pdfrwt>
<pdfrwt beam="2">  1       21 0.77865727E-01 0.48348812E+03</pdfrwt>
<totfact> 0.19170144E+02</totfact>
</mgrwt>
</event>
<event>
 4    1  0.4774032E-002  0.4163179E+03  0.7818608E-02  0.1038271E+00
         21   -1    0    0  501  502  0.00000000000E+00  0.00000000000E+00  0.88907297588E+03  0.88907297588E+03  0.00000000000E+00 0. -1.
         21   -1    0    0  502  503 -0.00000000000E+00 -0.00000000000E+00 -0.22855016790E+03  0.22855016790E+03  0.00000000000E+00 0. -1.
    9000005    1    1    2  501    0 -0.89530750015E+01  0.11506709441E+03  0.54453849689E+03  0.68545077749E+03  0.40000000000E+03 0.  1.
   -9000005    1    1    2    0  503  0.89530750015E+01 -0.11506709441E+03  0.11598431109E+03  0.43217236629E+03  0.40000000000E+03 0.  1.
<mgrwt>
<rscale>  2 0.41631790E+03</rscale>
<asrwt>0</asrwt>
<pdfrwt beam="1">  1       21 0.13678046E+00 0.41631790E+03</pdfrwt>
<pdfrwt beam="2">  1       21 0.35161565E-01 0.41631790E+03</pdfrwt>
<totfact> 0.25889583E+03</totfact>
</mgrwt>
</event>
<event>
 4    1  0.4774032E-002  0.6142574E+03  0.7818608E-02  0.9876260E-01
         21   -1    0    0  503  502  0.00000000000E+00  0.00000000000E+00  0.72958833532E+03  0.72958833532E+03  0.00000000000E+00 0. -1.
         21   -1    0    0  501  503 -0.00000000000E+00 -0.00000000000E+00 -0.76283287184E+03  0.76283287184E+03  0.00000000000E+00 0.  1.
    9000005    1    1    2  501    0 -0.33262645241E+03  0.32660646565E+03 -0.44009695345E+03  0.75564374455E+03  0.40000000000E+03 0.  1.
   -9000005    1    1    2    0  502  0.33262645241E+03 -0.32660646565E+03  0.40685241693E+03  0.73677746261E+03  0.40000000000E+03 0. -1.
<mgrwt>
<rscale>  2 0.61425739E+03</rscale>
<asrwt>0</asrwt>
<pdfrwt beam="1">  1       21 0.11224436E+00 0.61425739E+03</pdfrwt>
<pdfrwt beam="2">  1       21 0.11735890E+00 0.61425739E+03</pdfrwt>
<totfact> 0.26768360E+02</totfact>
</mgrwt>
</event>
<event>
 4    1  0.4774032E-002  0.5192952E+03  0.7818608E-02  0.1008862E+00
         21   -1    0    0  503  502  0.00000000000E+00  0.00000000000E+00  0.72573956422E+03  0.72573956422E+03  0.00000000000E+00 0. -1.
         21   -1    0    0  501  503 -0.00000000000E+00 -0.00000000000E+00 -0.41848161338E+03  0.41848161338E+03  0.00000000000E+00 0. -1.
    9000005    1    1    2  501    0 -0.32816727988E+03 -0.44427075533E+02 -0.37908347029E+02  0.52067703175E+03  0.40000000000E+03 0. -1.
   -9000005    1    1    2    0  502  0.32816727988E+03  0.44427075533E+02  0.34516629787E+03  0.62354414584E+03  0.40000000000E+03 0. -1.
<mgrwt>
<rscale>  2 0.51929522E+03</rscale>
<asrwt>0</asrwt>
<pdfrwt beam="1">  1       21 0.11165224E+00 0.51929522E+03</pdfrwt>
<pdfrwt beam="2">  1       21 0.64381787E-01 0.51929522E+03</pdfrwt>
<totfact> 0.11642809E+03</totfact>
</mgrwt>
</event>
<event>
 4    1  0.4774032E-002  0.4166322E+03  0.7818608E-02  0.1038168E+00
         21   -1    0    0  501  502  0.00000000000E+00  0.00000000000E+00  0.46862870079E+03  0.46862870079E+03  0.00000000000E+00 0. -1.
         21   -1    0    0  502  503 -0.00000000000E+00 -0.00000000000E+00 -0.39309610992E+03  0.39309610992E+03  0.00000000000E+00 0. -1.
    9000005    1    1    2  501    0  0.10610104819E+03  0.48217773579E+02  0.14128472291E+03  0.43993608518E+03  0.40000000000E+03 0. -1.
   -9000005    1    1    2    0  503 -0.10610104819E+03 -0.48217773579E+02 -0.65752132040E+02  0.42178872553E+03  0.40000000000E+03 0. -1.
<mgrwt>
<rscale>  2 0.41663220E+03</rscale>
<asrwt>0</asrwt>
<pdfrwt beam="1">  1       21 0.72096723E-01 0.41663220E+03</pdfrwt>
<pdfrwt beam="2">  1       21 0.60476324E-01 0.41663220E+03</pdfrwt>
<totfact> 0.39174420E+03</totfact>
</mgrwt>
</event>
<event>
 4    1  0.4774032E-002  0.4713467E+03  0.7818608E-02  0.1021541E+00
         21   -1    0    0  503  502  0.00000000000E+00  0.00000000000E+00  0.15268456809E+04  0.15268456809E+04  0.00000000000E+00 0. -1.
         21   -1    0    0  501  503 -0.00000000000E+00 -0.00000000000E+00 -0.33093837364E+03  0.33093837364E+03  0.00000000000E+00 0.  1.
    9000005    1    1    2  501    0  0.19863564952E+03 -0.15070375724E+03 -0.97362797530E+02  0.48129747355E+03  0.40000000000E+03 0.  1.
   -9000005    1    1    2    0  502 -0.19863564952E+03  0.15070375724E+03  0.12932701048E+04  0.13764865810E+04  0.40000000000E+03 0. -1.
<mgrwt>
<rscale>  2 0.47134673E+03</rscale>
<asrwt>0</asrwt>
<pdfrwt beam="1">  1       21 0.23489933E+00 0.47134673E+03</pdfrwt>
<pdfrwt beam="2">  1       21 0.50913597E-01 0.47134673E+03</pdfrwt>
<totfact> 0.23803248E+02</totfact>
</mgrwt>
</event>
<event>
 4    1  0.4774032E-002  0.8281817E+03  0.7818608E-02  0.9520098E-01
         21   -1    0    0  503  502  0.00000000000E+00  0.00000000000E+00  0.21324179490E+04  0.21324179490E+04  0.00000000000E+00 0. -1.
         21   -1    0    0  501  503 -0.00000000000E+00 -0.00000000000E+00 -0.37274064758E+03  0.37274064758E+03  0.00000000000E+00 0.  1.
    9000005    1    1    2  501    0  0.51211108210E+03  0.51344634429E+03  0.41608520022E+03  0.92682889614E+03  0.40000000000E+03 0.  1.
   -9000005    1    1    2    0  502 -0.51211108210E+03 -0.51344634429E+03  0.13435921012E+04  0.15783297005E+04  0.40000000000E+03 0. -1.
<mgrwt>
<rscale>  2 0.82818169E+03</rscale>
<asrwt>0</asrwt>
<pdfrwt beam="1">  1       21 0.32806429E+00 0.82818169E+03</pdfrwt>
<pdfrwt beam="2">  1       21 0.57344716E-01 0.82818169E+03</pdfrwt>
<totfact> 0.42126635E+01</totfact>
</mgrwt>
</event>
<event>
 4    1  0.4774032E-002  0.5598256E+03  0.7818608E-02  0.9992449E-01
         21   -1    0    0  503  502  0.00000000000E+00  0.00000000000E+00  0.88418463727E+03  0.88418463727E+03  0.00000000000E+00 0.  1.
         21   -1    0    0  501  503 -0.00000000000E+00 -0.00000000000E+00 -0.36656491246E+03  0.36656491246E+03  0.00000000000E+00 0.  1.
    9000005    1    1    2  501    0  0.34587557318E+03 -0.18377913563E+03  0.14514799545E+03  0.57833608170E+03  0.40000000000E+03 0.  1.
   -9000005    1    1    2    0  502 -0.34587557318E+03  0.18377913563E+03  0.37247172935E+03  0.67241346803E+03  0.40000000000E+03 0.  1.
<mgrwt>
<rscale>  2 0.55982558E+03</rscale>
<asrwt>0</asrwt>
<pdfrwt beam="1">  1       21 0.13602840E+00 0.55982558E+03</pdfrwt>
<pdfrwt beam="2">  1       21 0.56394602E-01 0.55982558E+03</pdfrwt>
<totfact> 0.92525970E+02</totfact>
</mgrwt>
</event>
<event>
 4    1  0.4774032E-002  0.4019958E+03  0.7818608E-02  0.1043091E+00
         21   -1    0    0  501  502  0.00000000000E+00  0.00000000000E+00  0.46254820226E+03  0.46254820226E+03  0.00000000000E+00 0.  1.
         21   -1    0    0  502  503 -0.00000000000E+00 -0.00000000000E+00 -0.59032106925E+03  0.59032106925E+03  0.00000000000E+00 0.  1.
    9000005    1    1    2  501    0 -0.36516780519E+02  0.16344975077E+02  0.27244264289E+03  0.48561880847E+03  0.40000000000E+03 0.  1.
   -9000005    1    1    2    0  503  0.36516780519E+02 -0.16344975077E+02 -0.40021550989E+03  0.56725046304E+03  0.40000000000E+03 0.  1.
<mgrwt>
<rscale>  2 0.40199581E+03</rscale>
<asrwt>0</asrwt>
<pdfrwt beam="1">  1       21 0.71161262E-01 0.40199581E+03</pdfrwt>
<pdfrwt beam="2">  1       21 0.90818626E-01 0.40199581E+03</pdfrwt>
<totfact> 0.16101607E+03</totfact>
</mgrwt>
</event>
<event>
 4    1  0.4774032E-002  0.5506041E+03  0.7818608E-02  0.1001354E+00
         21   -1    0    0  503  502  0.00000000000E+00  0.00000000000E+00  0.14710734624E+04  0.14710734624E+04  0.00000000000E+00 0.  1.
         21   -1    0    0  501  503 -0.00000000000E+00 -0.00000000000E+00 -0.28591320104E+03  0.28591320104E+03  0.00000000000E+00 0.  1.
    9000005    1    1    2  501    0  0.34313090457E+03 -0.15945562688E+03  0.12838362572E+03  0.56537356674E+03  0.40000000000E+03 0.  1.
   -9000005    1    1    2    0  502 -0.34313090457E+03  0.15945562688E+03  0.10567766356E+04  0.11916130967E+04  0.40000000000E+03 0.  1.
<mgrwt>
<rscale>  2 0.55060414E+03</rscale>
<asrwt>0</asrwt>
<pdfrwt beam="1">  1       21 0.22631899E+00 0.55060414E+03</pdfrwt>
<pdfrwt beam="2">  1       21 0.43986647E-01 0.55060414E+03</pdfrwt>
<totfact> 0.35406389E+02</totfact>
</mgrwt>
</event>
<event>
 4    1  0.4774032E-002  0.4005120E+03  0.7818608E-02  0.1043603E+00
         21   -1    0    0  501  502  0.00000000000E+00  0.00000000000E+00  0.66556048783E+03  0.66556048783E+03  0.00000000000E+00 0. -1.
         21   -1    0    0  502  503 -0.00000000000E+00 -0.00000000000E+00 -0.26991370706E+03  0.26991370706E+03  0.00000000000E+00 0. -1.
    9000005    1    1    2  501    0 -0.23992463649E+01 -0.20101755486E+02  0.35087259670E+03  0.53246729108E+03  0.40000000000E+03 0. -1.
   -9000005    1    1    2    0  503  0.23992463649E+01  0.20101755486E+02  0.44774184073E+02  0.40300690381E+03  0.40000000000E+03 0. -1.
<mgrwt>
<rscale>  2 0.40051197E+03</rscale>
<asrwt>0</asrwt>
<pdfrwt beam="1">  1       21 0.10239392E+00 0.40051197E+03</pdfrwt>
<pdfrwt beam="2">  1       21 0.41525186E-01 0.40051197E+03</pdfrwt>
<totfact> 0.38530134E+03</totfact>
</mgrwt>
</event>
<event>
 4    1  0.4774032E-002  0.4618985E+03  0.7818608E-02  0.1024232E+00
         21   -1    0    0  501  502  0.00000000000E+00  0.00000000000E+00  0.44568699478E+03  0.44568699478E+03  0.00000000000E+00 0. -1.
         21   -1    0    0  502  503 -0.00000000000E+00 -0.00000000000E+00 -0.72795662069E+03  0.72795662069E+03  0.00000000000E+00 0. -1.
    9000005    1    1    2  501    0 -0.20875036411E+03 -0.98860876146E+02  0.20224692332E+03  0.50423606112E+03  0.40000000000E+03 0. -1.
   -9000005    1    1    2    0  503  0.20875036411E+03  0.98860876146E+02 -0.48451654923E+03  0.66940755435E+03  0.40000000000E+03 0. -1.
<mgrwt>
<rscale>  2 0.46189846E+03</rscale>
<asrwt>0</asrwt>
<pdfrwt beam="1">  1       21 0.68567231E-01 0.46189846E+03</pdfrwt>
<pdfrwt beam="2">  1       21 0.11199333E+00 0.46189846E+03</pdfrwt>
<totfact> 0.10255559E+03</totfact>
</mgrwt>
</event>
<event>
 4    1  0.4774032E-002  0.1123244E+04  0.7818608E-02  0.9182828E-01
         21   -1    0    0  501  502  0.00000000000E+00  0.00000000000E+00  0.13781522635E+04  0.13781522635E+04  0.00000000000E+00 0. -1.
         21   -1    0    0  502  503 -0.00000000000E+00 -0.00000000000E+00 -0.13574346272E+04  0.13574346272E+04  0.00000000000E+00 0.  1.
    9000005    1    1    2  501    0 -0.51033821212E+03 -0.91718692481E+03  0.79081355377E+03  0.13737041248E+04  0.40000000000E+03 0. -1.
   -9000005    1    1    2    0  503  0.51033821212E+03  0.91718692481E+03 -0.77009591742E+03  0.13618827658E+04  0.40000000000E+03 0.  1.
<mgrwt>
<rscale>  2 0.11232439E+04</rscale>
<asrwt>0</asrwt>
<pdfrwt beam="1">  1       21 0.21202343E+00 0.11232439E+04</pdfrwt>
<pdfrwt beam="2">  1       21 0.20883609E+00 0.11232439E+04</pdfrwt>
<totfact> 0.73347803E+00</totfact>
</mgrwt>
</event>
<event>
 4    1  0.4774032E-002  0.4431335E+03  0.7818608E-02  0.1029790E+00
         21   -1    0    0  503  502  0.00000000000E+00  0.00000000000E+00  0.86306145816E+03  0.86306145816E+03  0.00000000000E+00 0.  1.
         21   -1    0    0  501  503 -0.00000000000E+00 -0.00000000000E+00 -0.32223115433E+03  0.32223115433E+03  0.00000000000E+00 0.  1.
    9000005    1    1    2  501    0 -0.56913382606E+02  0.18201137616E+03 -0.50879134392E+02  0.44604479650E+03  0.40000000000E+03 0.  1.
   -9000005    1    1    2    0  502  0.56913382606E+02 -0.18201137616E+03  0.59170943822E+03  0.73924781599E+03  0.40000000000E+03 0.  1.
<mgrwt>
<rscale>  2 0.44313347E+03</rscale>
<asrwt>0</asrwt>
<pdfrwt beam="1">  1       21 0.13277869E+00 0.44313347E+03</pdfrwt>
<pdfrwt beam="2">  1       21 0.49574024E-01 0.44313347E+03</pdfrwt>
<totfact> 0.13585471E+03</totfact>
</mgrwt>
</event>
<event>
 4    1  0.4774032E-002  0.4744805E+03  0.7818608E-02  0.1020663E+00
         21   -1    0    0  501  502  0.00000000000E+00  0.00000000000E+00  0.17735646271E+03  0.17735646271E+03  0.00000000000E+00 0.  1.
         21   -1    0    0  502  503 -0.00000000000E+00 -0.00000000000E+00 -0.17345008503E+04  0.17345008503E+04  0.00000000000E+00 0.  1.
    9000005    1    1    2  501    0 -0.11657282771E+02  0.25494287243E+03 -0.12735933071E+04  0.13591069393E+04  0.40000000000E+03 0.  1.
   -9000005    1    1    2    0  503  0.11657282771E+02 -0.25494287243E+03 -0.28355108049E+03  0.55275037376E+03  0.40000000000E+03 0.  1.
<mgrwt>
<rscale>  2 0.47448052E+03</rscale>
<asrwt>0</asrwt>
<pdfrwt beam="1">  1       21 0.27285610E-01 0.47448052E+03</pdfrwt>
<pdfrwt beam="2">  1       21 0.26684628E+00 0.47448052E+03</pdfrwt>
<totfact> 0.54128923E+02</totfact>
</mgrwt>
</event>
<event>
 4    1  0.4774032E-002  0.4618472E+03  0.7818608E-02  0.1024247E+00
         21   -1    0    0  501  502  0.00000000000E+00  0.00000000000E+00  0.52787701839E+03  0.52787701839E+03  0.00000000000E+00 0. -1.
         21   -1    0    0  502  503 -0.00000000000E+00 -0.00000000000E+00 -0.49993703707E+03  0.49993703707E+03  0.00000000000E+00 0.  1.
    9000005    1    1    2  501    0  0.21752964696E+03  0.77354319386E+02  0.23900300045E+03  0.52002429968E+03  0.40000000000E+03 0. -1.
   -9000005    1    1    2    0  503 -0.21752964696E+03 -0.77354319386E+02 -0.21106301912E+03  0.50778975578E+03  0.40000000000E+03 0.  1.
<mgrwt>
<rscale>  2 0.46184720E+03</rscale>
<asrwt>0</asrwt>
<pdfrwt beam="1">  1       21 0.81211849E-01 0.46184720E+03</pdfrwt>
<pdfrwt beam="2">  1       21 0.76913390E-01 0.46184720E+03</pdfrwt>
<totfact> 0.17116647E+03</totfact>
</mgrwt>
</event>
<event>
 4    1  0.4774032E-002  0.6061409E+03  0.7818608E-02  0.9892747E-01
         21   -1    0    0  501  502  0.00000000000E+00  0.00000000000E+00  0.79779547760E+03  0.79779547760E+03  0.00000000000E+00 0.  1.
         21   -1    0    0  502  503 -0.00000000000E+00 -0.00000000000E+00 -0.51837150177E+03  0.51837150177E+03  0.00000000000E+00 0. -1.
    9000005    1    1    2  501    0  0.45467739693E+03 -0.25986186443E+02  0.35954318139E+03  0.70475394036E+03  0.40000000000E+03 0.  1.
   -9000005    1    1    2    0  503 -0.45467739693E+03  0.25986186443E+02 -0.80119205557E+02  0.61141303901E+03  0.40000000000E+03 0. -1.
<mgrwt>
<rscale>  2 0.60614092E+03</rscale>
<asrwt>0</asrwt>
<pdfrwt beam="1">  1       21 0.12273777E+00 0.60614092E+03</pdfrwt>
<pdfrwt beam="2">  1       21 0.79749461E-01 0.60614092E+03</pdfrwt>
<totfact> 0.54666378E+02</totfact>
</mgrwt>
</event>
<event>
 4    1  0.4774032E-002  0.4344689E+03  0.7818608E-02  0.1032458E+00
         21   -1    0    0  501  502  0.00000000000E+00  0.00000000000E+00  0.91055730561E+03  0.91055730561E+03  0.00000000000E+00 0. -1.
         21   -1    0    0  502  503 -0.00000000000E+00 -0.00000000000E+00 -0.32514656964E+03  0.32514656964E+03  0.00000000000E+00 0. -1.
    9000005    1    1    2  501    0  0.13320031694E+03 -0.10498048847E+03  0.66466327074E+03  0.79406579757E+03  0.40000000000E+03 0. -1.
   -9000005    1    1    2    0  503 -0.13320031694E+03  0.10498048847E+03 -0.79252534770E+02  0.44163807769E+03  0.40000000000E+03 0. -1.
<mgrwt>
<rscale>  2 0.43446890E+03</rscale>
<asrwt>0</asrwt>
<pdfrwt beam="1">  1       21 0.14008574E+00 0.43446890E+03</pdfrwt>
<pdfrwt beam="2">  1       21 0.50022550E-01 0.43446890E+03</pdfrwt>
<totfact> 0.11618182E+03</totfact>
</mgrwt>
</event>
<event>
 4    1  0.4774032E-002  0.4166956E+03  0.7818608E-02  0.1038147E+00
         21   -1    0    0  503  502  0.00000000000E+00  0.00000000000E+00  0.27897231546E+03  0.27897231546E+03  0.00000000000E+00 0. -1.
         21   -1    0    0  501  503 -0.00000000000E+00 -0.00000000000E+00 -0.62281214669E+03  0.62281214669E+03  0.00000000000E+00 0. -1.
    9000005    1    1    2  501    0  0.11190508027E+03  0.33353566351E+02 -0.16046498286E+03  0.44652459966E+03  0.40000000000E+03 0.  1.
   -9000005    1    1    2    0  502 -0.11190508027E+03 -0.33353566351E+02 -0.18337484837E+03  0.45525986249E+03  0.40000000000E+03 0.  1.
<mgrwt>
<rscale>  2 0.41669558E+03</rscale>
<asrwt>0</asrwt>
<pdfrwt beam="1">  1       21 0.42918818E-01 0.41669558E+03</pdfrwt>
<pdfrwt beam="2">  1       21 0.95817253E-01 0.41669558E+03</pdfrwt>
<totfact> 0.41987283E+03</totfact>
</mgrwt>
</event>
<event>
 4    1  0.4774032E-002  0.5830036E+03  0.7818608E-02  0.9941309E-01
         21   -1    0    0  501  502  0.00000000000E+00  0.00000000000E+00  0.80169187483E+03  0.80169187483E+03  0.00000000000E+00 0.  1.
         21   -1    0    0  502  503 -0.00000000000E+00 -0.00000000000E+00 -0.72762161717E+03  0.72762161717E+03  0.00000000000E+00 0. -1.
    9000005    1    1    2  501    0 -0.31453363171E+03  0.28453788548E+03 -0.45693604684E+03  0.74073191146E+03  0.40000000000E+03 0. -1.
   -9000005    1    1    2    0  503  0.31453363171E+03 -0.28453788548E+03  0.53100630450E+03  0.78858158054E+03  0.40000000000E+03 0.  1.
<mgrwt>
<rscale>  2 0.58300361E+03</rscale>
<asrwt>0</asrwt>
<pdfrwt beam="1">  1       21 0.12333721E+00 0.58300361E+03</pdfrwt>
<pdfrwt beam="2">  1       21 0.11194179E+00 0.58300361E+03</pdfrwt>
<totfact> 0.23993051E+02</totfact>
</mgrwt>
</event>
<event>
 4    1  0.4774032E-002  0.4359852E+03  0.7818608E-02  0.1031986E+00
         21   -1    0    0  501  502  0.00000000000E+00  0.00000000000E+00  0.58611940519E+03  0.58611940519E+03  0.00000000000E+00 0. -1.
         21   -1    0    0  502  503 -0.00000000000E+00 -0.00000000000E+00 -0.32639991187E+03  0.32639991187E+03  0.00000000000E+00 0. -1.
    9000005    1    1    2  501    0  0.99184485507E+02  0.14228684013E+03  0.93331624638E+02  0.44586309468E+03  0.40000000000E+03 0. -1.
   -9000005    1    1    2    0  503 -0.99184485507E+02 -0.14228684013E+03  0.16638786868E+03  0.46665622238E+03  0.40000000000E+03 0. -1.
<mgrwt>
<rscale>  2 0.43598521E+03</rscale>
<asrwt>0</asrwt>
<pdfrwt beam="1">  1       21 0.90172216E-01 0.43598521E+03</pdfrwt>
<pdfrwt beam="2">  1       21 0.50215371E-01 0.43598521E+03</pdfrwt>
<totfact> 0.34639403E+03</totfact>
</mgrwt>
</event>
<event>
 4    1  0.4774032E-002  0.5356205E+03  0.7818608E-02  0.1004878E+00
         21   -1    0    0  501  502  0.00000000000E+00  0.00000000000E+00  0.60041657580E+03  0.60041657580E+03  0.00000000000E+00 0.  1.
         21   -1    0    0  502  503 -0.00000000000E+00 -0.00000000000E+00 -0.48295724864E+03  0.48295724864E+03  0.00000000000E+00 0.  1.
    9000005    1    1    2  501    0 -0.12754055356E+03  0.33260001396E+03  0.11461243858E+03  0.54774571944E+03  0.40000000000E+03 0.  1.
   -9000005    1    1    2    0  503  0.12754055356E+03 -0.33260001396E+03  0.28468885761E+01  0.53562810500E+03  0.40000000000E+03 0.  1.
<mgrwt>
<rscale>  2 0.53562054E+03</rscale>
<asrwt>0</asrwt>
<pdfrwt beam="1">  1       21 0.92371781E-01 0.53562054E+03</pdfrwt>
<pdfrwt beam="2">  1       21 0.74301115E-01 0.53562054E+03</pdfrwt>
<totfact> 0.13331811E+03</totfact>
</mgrwt>
</event>
<event>
 4    1  0.4774032E-002  0.4349161E+03  0.7818608E-02  0.1032318E+00
         21   -1    0    0  501  502  0.00000000000E+00  0.00000000000E+00  0.19395058581E+03  0.19395058581E+03  0.00000000000E+00 0.  1.
         21   -1    0    0  502  503 -0.00000000000E+00 -0.00000000000E+00 -0.11715523937E+04  0.11715523937E+04  0.00000000000E+00 0.  1.
    9000005    1    1    2  501    0 -0.22310632027E+02 -0.16927562714E+03 -0.76827073844E+03  0.88283176754E+03  0.40000000000E+03 0.  1.
   -9000005    1    1    2    0  503  0.22310632027E+02  0.16927562714E+03 -0.20933106949E+03  0.48267121200E+03  0.40000000000E+03 0.  1.
<mgrwt>
<rscale>  2 0.43491609E+03</rscale>
<asrwt>0</asrwt>
<pdfrwt beam="1">  1       21 0.29838552E-01 0.43491609E+03</pdfrwt>
<pdfrwt beam="2">  1       21 0.18023883E+00 0.43491609E+03</pdfrwt>
<totfact> 0.16643949E+03</totfact>
</mgrwt>
</event>
<event>
 4    1  0.4774032E-002  0.4245405E+03  0.7818608E-02  0.1035599E+00
         21   -1    0    0  501  502  0.00000000000E+00  0.00000000000E+00  0.12566010086E+03  0.12566010086E+03  0.00000000000E+00 0. -1.
         21   -1    0    0  502  503 -0.00000000000E+00 -0.00000000000E+00 -0.14497124027E+04  0.14497124027E+04  0.00000000000E+00 0. -1.
    9000005    1    1    2  501    0  0.12372878167E+03 -0.70183954781E+02 -0.58081567591E+03  0.71943133675E+03  0.40000000000E+03 0. -1.
   -9000005    1    1    2    0  503 -0.12372878167E+03  0.70183954781E+02 -0.74323662597E+03  0.85594116685E+03  0.40000000000E+03 0. -1.
<mgrwt>
<rscale>  2 0.42454046E+03</rscale>
<asrwt>0</asrwt>
<pdfrwt beam="1">  1       21 0.19332325E-01 0.42454046E+03</pdfrwt>
<pdfrwt beam="2">  1       21 0.22303266E+00 0.42454046E+03</pdfrwt>
<totfact> 0.20132523E+03</totfact>
</mgrwt>
</event>
<event>
 4    1  0.4774032E-002  0.4184670E+03  0.7818608E-02  0.1037566E+00
         21   -1    0    0  501  502  0.00000000000E+00  0.00000000000E+00  0.71872446854E+03  0.71872446854E+03  0.00000000000E+00 0.  1.
         21   -1    0    0  502  503 -0.00000000000E+00 -0.00000000000E+00 -0.31469098369E+03  0.31469098369E+03  0.00000000000E+00 0.  1.
    9000005    1    1    2  501    0 -0.73136454341E+02 -0.98821355654E+02 -0.43492819652E+02  0.42072107940E+03  0.40000000000E+03 0.  1.
   -9000005    1    1    2    0  503  0.73136454341E+02  0.98821355654E+02  0.44752630450E+03  0.61269437284E+03  0.40000000000E+03 0.  1.
<mgrwt>
<rscale>  2 0.41846697E+03</rscale>
<asrwt>0</asrwt>
<pdfrwt beam="1">  1       21 0.11057299E+00 0.41846697E+03</pdfrwt>
<pdfrwt beam="2">  1       21 0.48413998E-01 0.41846697E+03</pdfrwt>
<totfact> 0.22976274E+03</totfact>
</mgrwt>
</event>
<event>
 4    1  0.4774032E-002  0.5552880E+03  0.7818608E-02  0.1000277E+00
         21   -1    0    0  503  502  0.00000000000E+00  0.00000000000E+00  0.42199121461E+03  0.42199121461E+03  0.00000000000E+00 0. -1.
         21   -1    0    0  501  503 -0.00000000000E+00 -0.00000000000E+00 -0.22611658503E+04  0.22611658503E+04  0.00000000000E+00 0. -1.
    9000005    1    1    2  501    0 -0.85528537764E+02  0.37553909135E+03 -0.20233180593E+04  0.20981326719E+04  0.40000000000E+03 0. -1.
   -9000005    1    1    2    0  502  0.85528537764E+02 -0.37553909135E+03  0.18414342363E+03  0.58502439297E+03  0.40000000000E+03 0. -1.
<mgrwt>
<rscale>  2 0.55528798E+03</rscale>
<asrwt>0</asrwt>
<pdfrwt beam="1">  1       21 0.64921726E-01 0.55528798E+03</pdfrwt>
<pdfrwt beam="2">  1       21 0.34787167E+00 0.55528798E+03</pdfrwt>
<totfact> 0.27295299E+01</totfact>
</mgrwt>
</event>
<event>
 4    1  0.4774032E-002  0.4132750E+03  0.7818608E-02  0.1039278E+00
         21   -1    0    0  503  502  0.00000000000E+00  0.00000000000E+00  0.22583086662E+03  0.22583086662E+03  0.00000000000E+00 0.  1.
         21   -1    0    0  501  503 -0.00000000000E+00 -0.00000000000E+00 -0.17469121833E+04  0.17469121833E+04  0.00000000000E+00 0.  1.
    9000005    1    1    2  501    0  0.51026455653E+02  0.90512763178E+02 -0.15033142557E+04  0.15590862744E+04  0.40000000000E+03 0.  1.
   -9000005    1    1    2    0  502 -0.51026455653E+02 -0.90512763178E+02 -0.17767060923E+02  0.41365677551E+03  0.40000000000E+03 0.  1.
<mgrwt>
<rscale>  2 0.41327504E+03</rscale>
<asrwt>0</asrwt>
<pdfrwt beam="1">  1       21 0.34743211E-01 0.41327504E+03</pdfrwt>
<pdfrwt beam="2">  1       21 0.26875571E+00 0.41327504E+03</pdfrwt>
<totfact> 0.33699973E+02</totfact>
</mgrwt>
</event>
<event>
 4    1  0.4774032E-002  0.4539301E+03  0.7818608E-02  0.1026556E+00
         21   -1    0    0  503  502  0.00000000000E+00  0.00000000000E+00  0.22657713499E+03  0.22657713499E+03  0.00000000000E+00 0. -1.
         21   -1    0    0  501  503 -0.00000000000E+00 -0.00000000000E+00 -0.10370650348E+04  0.10370650348E+04  0.00000000000E+00 0. -1.
    9000005    1    1    2  501    0 -0.82764708135E+02  0.19799636974E+03 -0.18357634319E+03  0.48964561994E+03  0.40000000000E+03 0. -1.
   -9000005    1    1    2    0  502  0.82764708135E+02 -0.19799636974E+03 -0.62691155662E+03  0.77399654984E+03  0.40000000000E+03 0. -1.
<mgrwt>
<rscale>  2 0.45393013E+03</rscale>
<asrwt>0</asrwt>
<pdfrwt beam="1">  1       21 0.34858021E-01 0.45393013E+03</pdfrwt>
<pdfrwt beam="2">  1       21 0.15954847E+00 0.45393013E+03</pdfrwt>
<totfact> 0.17112285E+03</totfact>
</mgrwt>
</event>
<event>
 4    1  0.4774032E-002  0.4297127E+03  0.7818608E-02  0.1033951E+00
         21   -1    0    0  503  502  0.00000000000E+00  0.00000000000E+00  0.27889320636E+04  0.27889320636E+04  0.00000000000E+00 0. -1.
         21   -1    0    0  501  503 -0.00000000000E+00 -0.00000000000E+00 -0.73109692354E+02  0.73109692354E+02  0.00000000000E+00 0.  1.
    9000005    1    1    2  501    0  0.14025036797E+03  0.70589210227E+02  0.17975520596E+04  0.18482008574E+04  0.40000000000E+03 0. -1.
   -9000005    1    1    2    0  502 -0.14025036797E+03 -0.70589210227E+02  0.91827031156E+03  0.10138408985E+04  0.40000000000E+03 0.  1.
<mgrwt>
<rscale>  2 0.42971270E+03</rscale>
<asrwt>0</asrwt>
<pdfrwt beam="1">  1       21 0.42906639E+00 0.42971270E+03</pdfrwt>
<pdfrwt beam="2">  1       21 0.11247647E-01 0.42971270E+03</pdfrwt>
<totfact> 0.29129942E+02</totfact>
</mgrwt>
</event>
<event>
 4    1  0.4774032E-002  0.5915127E+03  0.7818608E-02  0.9923173E-01
         21   -1    0    0  501  502  0.00000000000E+00  0.00000000000E+00  0.16918986074E+04  0.16918986074E+04  0.00000000000E+00 0.  1.
         21   -1    0    0  502  503 -0.00000000000E+00 -0.00000000000E+00 -0.20694728334E+03  0.20694728334E+03  0.00000000000E+00 0. -1.
    9000005    1    1    2  501    0 -0.25574770040E+03  0.35281776019E+03  0.76767017981E+03  0.96912577261E+03  0.40000000000E+03 0.  1.
   -9000005    1    1    2    0  503  0.25574770040E+03 -0.35281776019E+03  0.71728114425E+03  0.92972011813E+03  0.40000000000E+03 0. -1.
<mgrwt>
<rscale>  2 0.59151269E+03</rscale>
<asrwt>0</asrwt>
<pdfrwt beam="1">  1       21 0.26029208E+00 0.59151269E+03</pdfrwt>
<pdfrwt beam="2">  1       21 0.31838045E-01 0.59151269E+03</pdfrwt>
<totfact> 0.41412359E+02</totfact>
</mgrwt>
</event>
<event>
 4    1  0.4774032E-002  0.4555388E+03  0.7818608E-02  0.1026083E+00
         21   -1    0    0  501  502  0.00000000000E+00  0.00000000000E+00  0.34010260522E+03  0.34010260522E+03  0.00000000000E+00 0.  1.
         21   -1    0    0  502  503 -0.00000000000E+00 -0.00000000000E+00 -0.10444686429E+04  0.10444686429E+04  0.00000000000E+00 0.  1.
    9000005    1    1    2  501    0  0.21780270875E+03 -0.88053393175E+01  0.94232188117E+02  0.46518303840E+03  0.40000000000E+03 0.  1.
   -9000005    1    1    2    0  503 -0.21780270875E+03  0.88053393175E+01 -0.79859822581E+03  0.91938820974E+03  0.40000000000E+03 0.  1.
<mgrwt>
<rscale>  2 0.45553875E+03</rscale>
<asrwt>0</asrwt>
<pdfrwt beam="1">  1       21 0.52323478E-01 0.45553875E+03</pdfrwt>
<pdfrwt beam="2">  1       21 0.16068748E+00 0.45553875E+03</pdfrwt>
<totfact> 0.72011214E+02</totfact>
</mgrwt>
</event>
<event>
 4    1  0.4774032E-002  0.5644583E+03  0.7818608E-02  0.9982017E-01
         21   -1    0    0  503  502  0.00000000000E+00  0.00000000000E+00  0.89757143115E+03  0.89757143115E+03  0.00000000000E+00 0. -1.
         21   -1    0    0  501  503 -0.00000000000E+00 -0.00000000000E+00 -0.38259246620E+03  0.38259246620E+03  0.00000000000E+00 0. -1.
    9000005    1    1    2  501    0 -0.37368122608E+03  0.13775180948E+03  0.85509242454E+02  0.57089845882E+03  0.40000000000E+03 0. -1.
   -9000005    1    1    2    0  502  0.37368122608E+03 -0.13775180948E+03  0.42946972250E+03  0.70926543852E+03  0.40000000000E+03 0. -1.
<mgrwt>
<rscale>  2 0.56445834E+03</rscale>
<asrwt>0</asrwt>
<pdfrwt beam="1">  1       21 0.13808791E+00 0.56445834E+03</pdfrwt>
<pdfrwt beam="2">  1       21 0.58860380E-01 0.56445834E+03</pdfrwt>
<totfact> 0.80832244E+02</totfact>
</mgrwt>
</event>
<event>
 4    1  0.4774032E-002  0.4846207E+03  0.7818608E-02  0.1017873E+00
         21   -1    0    0  501  502  0.00000000000E+00  0.00000000000E+00  0.16763730111E+04  0.16763730111E+04  0.00000000000E+00 0. -1.
         21   -1    0    0  502  503 -0.00000000000E+00 -0.00000000000E+00 -0.14982656014E+03  0.14982656014E+03  0.00000000000E+00 0. -1.
    9000005    1    1    2  501    0  0.21627555439E+03  0.16757725574E+03  0.99594204584E+03  0.11075909943E+04  0.40000000000E+03 0.  1.
   -9000005    1    1    2    0  503 -0.21627555439E+03 -0.16757725574E+03  0.53060440509E+03  0.71860857689E+03  0.40000000000E+03 0.  1.
<mgrwt>
<rscale>  2 0.48462073E+03</rscale>
<asrwt>0</asrwt>
<pdfrwt beam="1">  1       21 0.25790353E+00 0.48462073E+03</pdfrwt>
<pdfrwt beam="2">  1       21 0.23050241E-01 0.48462073E+03</pdfrwt>
<totfact> 0.84831334E+02</totfact>
</mgrwt>
</event>
<event>
 4    1  0.4774032E-002  0.4190409E+03  0.7818608E-02  0.1037379E+00
         21   -1    0    0  501  502  0.00000000000E+00  0.00000000000E+00  0.20447349600E+03  0.20447349600E+03  0.00000000000E+00 0.  1.
         21   -1    0    0  502  503 -0.00000000000E+00 -0.00000000000E+00 -0.13744943292E+04  0.13744943292E+04  0.00000000000E+00 0.  1.
    9000005    1    1    2  501    0 -0.10687748595E+03 -0.64594972526E+02 -0.10141582492E+03  0.43113858216E+03  0.40000000000E+03 0.  1.
   -9000005    1    1    2    0  503  0.10687748595E+03  0.64594972526E+02 -0.10686050083E+04  0.11478292431E+04  0.40000000000E+03 0.  1.
<mgrwt>
<rscale>  2 0.41904094E+03</rscale>
<asrwt>0</asrwt>
<pdfrwt beam="1">  1       21 0.31457461E-01 0.41904094E+03</pdfrwt>
<pdfrwt beam="2">  1       21 0.21146067E+00 0.41904094E+03</pdfrwt>
<totfact> 0.93022438E+02</totfact>
</mgrwt>
</event>
<event>
 4    1  0.4774032E-002  0.4215104E+03  0.7818608E-02  0.1036576E+00
         21   -1    0    0  503  502  0.00000000000E+00  0.00000000000E+00  0.17034592114E+03  0.17034592114E+03  0.00000000000E+00 0.  1.
         21   -1    0    0  501  503 -0.00000000000E+00 -0.00000000000E+00 -0.10581594310E+04  0.10581594310E+04  0.00000000000E+00 0.  1.
    9000005    1    1    2  501    0 -0.20027456779E+02 -0.13141496436E+03 -0.37038828478E+03  0.56112251192E+03  0.40000000000E+03 0.  1.
   -9000005    1    1    2    0  502  0.20027456779E+02  0.13141496436E+03 -0.51742522513E+03  0.66738284027E+03  0.40000000000E+03 0.  1.
<mgrwt>
<rscale>  2 0.42151037E+03</rscale>
<asrwt>0</asrwt>
<pdfrwt beam="1">  1       21 0.26207065E-01 0.42151037E+03</pdfrwt>
<pdfrwt beam="2">  1       21 0.16279376E+00 0.42151037E+03</pdfrwt>
<totfact> 0.28899337E+03</totfact>
</mgrwt>
</event>
<event>
 4    1  0.4774032E-002  0.4159544E+03  0.7818608E-02  0.1038391E+00
         21   -1    0    0  503  502  0.00000000000E+00  0.00000000000E+00  0.70729481799E+03  0.70729481799E+03  0.00000000000E+00 0.  1.
         21   -1    0    0  501  503 -0.00000000000E+00 -0.00000000000E+00 -0.28966556794E+03  0.28966556794E+03  0.00000000000E+00 0.  1.
    9000005    1    1    2  501    0  0.64997009666E+02  0.93773216887E+02  0.12239554820E+02  0.41613439436E+03  0.40000000000E+03 0.  1.
   -9000005    1    1    2    0  502 -0.64997009666E+02 -0.93773216887E+02  0.40538969524E+03  0.58082599156E+03  0.40000000000E+03 0.  1.
<mgrwt>
<rscale>  2 0.41595436E+03</rscale>
<asrwt>0</asrwt>
<pdfrwt beam="1">  1       21 0.10881459E+00 0.41595436E+03</pdfrwt>
<pdfrwt beam="2">  1       21 0.44563934E-01 0.41595436E+03</pdfrwt>
<totfact> 0.28480645E+03</totfact>
</mgrwt>
</event>
<event>
 4    1  0.4774032E-002  0.4139599E+03  0.7818608E-02  0.1039050E+00
         21   -1    0    0  501  502  0.00000000000E+00  0.00000000000E+00  0.14039954988E+04  0.14039954988E+04  0.00000000000E+00 0.  1.
         21   -1    0    0  502  503 -0.00000000000E+00 -0.00000000000E+00 -0.48058409064E+03  0.48058409064E+03  0.00000000000E+00 0.  1.
    9000005    1    1    2  501    0 -0.10659648623E+03  0.15199108848E+00  0.12755902176E+04  0.13410791316E+04  0.40000000000E+03 0.  1.
   -9000005    1    1    2    0  503  0.10659648623E+03 -0.15199108848E+00 -0.35217880937E+03  0.54350045791E+03  0.40000000000E+03 0.  1.
<mgrwt>
<rscale>  2 0.41395994E+03</rscale>
<asrwt>0</asrwt>
<pdfrwt beam="1">  1       21 0.21599931E+00 0.41395994E+03</pdfrwt>
<pdfrwt beam="2">  1       21 0.73936014E-01 0.41395994E+03</pdfrwt>
<totfact> 0.14257993E+02</totfact>
</mgrwt>
</event>
<event>
 4    1  0.4774032E-002  0.4567638E+03  0.7818608E-02  0.1025724E+00
         21   -1    0    0  501  502  0.00000000000E+00  0.00000000000E+00  0.61674850921E+03  0.61674850921E+03  0.00000000000E+00 0.  1.
         21   -1    0    0  502  503 -0.00000000000E+00 -0.00000000000E+00 -0.44009117260E+03  0.44009117260E+03  0.00000000000E+00 0.  1.
    9000005    1    1    2  501    0  0.18778725361E+03  0.11562487718E+03  0.34248873052E+03  0.57090427864E+03  0.40000000000E+03 0.  1.
   -9000005    1    1    2    0  503 -0.18778725361E+03 -0.11562487718E+03 -0.16583139391E+03  0.48593540316E+03  0.40000000000E+03 0.  1.
<mgrwt>
<rscale>  2 0.45676380E+03</rscale>
<asrwt>0</asrwt>
<pdfrwt beam="1">  1       21 0.94884386E-01 0.45676380E+03</pdfrwt>
<pdfrwt beam="2">  1       21 0.67706334E-01 0.45676380E+03</pdfrwt>
<totfact> 0.15864435E+03</totfact>
</mgrwt>
</event>
<event>
 4    1  0.4774032E-002  0.4546331E+03  0.7818608E-02  0.1026349E+00
         21   -1    0    0  503  502  0.00000000000E+00  0.00000000000E+00  0.44146875998E+03  0.44146875998E+03  0.00000000000E+00 0.  1.
         21   -1    0    0  501  503 -0.00000000000E+00 -0.00000000000E+00 -0.48604145604E+03  0.48604145604E+03  0.00000000000E+00 0.  1.
    9000005    1    1    2  501    0 -0.19142847829E+03  0.10023154857E+03 -0.11116342934E+03  0.46802621043E+03  0.40000000000E+03 0.  1.
   -9000005    1    1    2    0  502  0.19142847829E+03 -0.10023154857E+03  0.66590733282E+02  0.45948400559E+03  0.40000000000E+03 0.  1.
<mgrwt>
<rscale>  2 0.45463307E+03</rscale>
<asrwt>0</asrwt>
<pdfrwt beam="1">  1       21 0.67918270E-01 0.45463307E+03</pdfrwt>
<pdfrwt beam="2">  1       21 0.74775609E-01 0.45463307E+03</pdfrwt>
<totfact> 0.27506503E+03</totfact>
</mgrwt>
</event>
<event>
 4    1  0.4774032E-002  0.4585306E+03  0.7818608E-02  0.1025208E+00
         21   -1    0    0  501  502  0.00000000000E+00  0.00000000000E+00  0.93750345401E+03  0.93750345401E+03  0.00000000000E+00 0. -1.
         21   -1    0    0  502  503 -0.00000000000E+00 -0.00000000000E+00 -0.34143277348E+03  0.34143277348E+03  0.00000000000E+00 0. -1.
    9000005    1    1    2  501    0 -0.17366211194E+03 -0.14174539503E+03  0.67263575709E+03  0.81405721411E+03  0.40000000000E+03 0. -1.
   -9000005    1    1    2    0  503  0.17366211194E+03  0.14174539503E+03 -0.76565076554E+02  0.46487901338E+03  0.40000000000E+03 0. -1.
<mgrwt>
<rscale>  2 0.45853057E+03</rscale>
<asrwt>0</asrwt>
<pdfrwt beam="1">  1       21 0.14423130E+00 0.45853057E+03</pdfrwt>
<pdfrwt beam="2">  1       21 0.52528120E-01 0.45853057E+03</pdfrwt>
<totfact> 0.95831811E+02</totfact>
</mgrwt>
</event>
<event>
 4    1  0.4774032E-002  0.5051264E+03  0.7818608E-02  0.1012449E+00
         21   -1    0    0  503  502  0.00000000000E+00  0.00000000000E+00  0.49620270066E+03  0.49620270066E+03  0.00000000000E+00 0. -1.
         21   -1    0    0  501  503 -0.00000000000E+00 -0.00000000000E+00 -0.56488704680E+03  0.56488704680E+03  0.00000000000E+00 0. -1.
    9000005    1    1    2  501    0 -0.73975516932E+02 -0.29946661641E+03 -0.19324985222E+03  0.54083096882E+03  0.40000000000E+03 0. -1.
   -9000005    1    1    2    0  502  0.73975516932E+02  0.29946661641E+03  0.12456550607E+03  0.52025877864E+03  0.40000000000E+03 0. -1.
<mgrwt>
<rscale>  2 0.50512635E+03</rscale>
<asrwt>0</asrwt>
<pdfrwt beam="1">  1       21 0.76338877E-01 0.50512635E+03</pdfrwt>
<pdfrwt beam="2">  1       21 0.86905699E-01 0.50512635E+03</pdfrwt>
<totfact> 0.14632413E+03</totfact>
</mgrwt>
</event>
<event>
 4    1  0.4774032E-002  0.4305386E+03  0.7818608E-02  0.1033690E+00
         21   -1    0    0  501  502  0.00000000000E+00  0.00000000000E+00  0.12087204903E+04  0.12087204903E+04  0.00000000000E+00 0.  1.
         21   -1    0    0  502  503 -0.00000000000E+00 -0.00000000000E+00 -0.90946415716E+03  0.90946415716E+03  0.00000000000E+00 0.  1.
    9000005    1    1    2  501    0  0.14443861461E+03  0.67089607725E+02  0.11153081473E+04  0.11955232295E+04  0.40000000000E+03 0.  1.
   -9000005    1    1    2    0  503 -0.14443861461E+03 -0.67089607725E+02 -0.81605181414E+03  0.92266141797E+03  0.40000000000E+03 0.  1.
<mgrwt>
<rscale>  2 0.43053865E+03</rscale>
<asrwt>0</asrwt>
<pdfrwt beam="1">  1       21 0.18595700E+00 0.43053865E+03</pdfrwt>
<pdfrwt beam="2">  1       21 0.13991756E+00 0.43053865E+03</pdfrwt>
<totfact> 0.47092995E+01</totfact>
</mgrwt>
</event>
<event>
 4    1  0.4774032E-002  0.5178576E+03  0.7818608E-02  0.1009220E+00
         21   -1    0    0  503  502  0.00000000000E+00  0.00000000000E+00  0.12584929275E+04  0.12584929275E+04  0.00000000000E+00 0.  1.
         21   -1    0    0  501  503 -0.00000000000E+00 -0.00000000000E+00 -0.22520825262E+03  0.22520825262E+03  0.00000000000E+00 0.  1.
    9000005    1    1    2  501    0  0.81704471315E+02 -0.31859202249E+03  0.34458075044E+03  0.62202282193E+03  0.40000000000E+03 0.  1.
   -9000005    1    1    2    0  502 -0.81704471315E+02  0.31859202249E+03  0.68870392445E+03  0.86167835820E+03  0.40000000000E+03 0.  1.
<mgrwt>
<rscale>  2 0.51785760E+03</rscale>
<asrwt>0</asrwt>
<pdfrwt beam="1">  1       21 0.19361429E+00 0.51785760E+03</pdfrwt>
<pdfrwt beam="2">  1       21 0.34647424E-01 0.51785760E+03</pdfrwt>
<totfact> 0.96305529E+02</totfact>
</mgrwt>
</event>
<event>
 4    1  0.4774032E-002  0.4960860E+03  0.7818608E-02  0.1014806E+00
         21   -1    0    0  501  502  0.00000000000E+00  0.00000000000E+00  0.78226770145E+03  0.78226770145E+03  0.00000000000E+00 0. -1.
         21   -1    0    0  502  503 -0.00000000000E+00 -0.00000000000E+00 -0.20000416697E+04  0.20000416697E+04  0.00000000000E+00 0. -1.
    9000005    1    1    2  501    0 -0.28930857486E+03  0.49008743003E+02  0.66817736882E+03  0.83220328321E+03  0.40000000000E+03 0. -1.
   -9000005    1    1    2    0  503  0.28930857486E+03 -0.49008743003E+02 -0.18859513371E+04  0.19501060880E+04  0.40000000000E+03 0. -1.
<mgrwt>
<rscale>  2 0.49608599E+03</rscale>
<asrwt>0</asrwt>
<pdfrwt beam="1">  1       21 0.12034888E+00 0.49608599E+03</pdfrwt>
<pdfrwt beam="2">  1       21 0.30769871E+00 0.49608599E+03</pdfrwt>
<totfact> 0.11493588E+01</totfact>
</mgrwt>
</event>
<event>
 4    1  0.4774032E-002  0.4256073E+03  0.7818608E-02  0.1035257E+00
         21   -1    0    0  503  502  0.00000000000E+00  0.00000000000E+00  0.21120063259E+03  0.21120063259E+03  0.00000000000E+00 0. -1.
         21   -1    0    0  501  503 -0.00000000000E+00 -0.00000000000E+00 -0.13870036793E+04  0.13870036793E+04  0.00000000000E+00 0.  1.
    9000005    1    1    2  501    0  0.12126658135E+03  0.80224754416E+02 -0.10815593521E+04  0.11622874976E+04  0.40000000000E+03 0.  1.
   -9000005    1    1    2    0  502 -0.12126658135E+03 -0.80224754416E+02 -0.94243694553E+02  0.43591681424E+03  0.40000000000E+03 0. -1.
<mgrwt>
<rscale>  2 0.42560732E+03</rscale>
<asrwt>0</asrwt>
<pdfrwt beam="1">  1       21 0.32492405E-01 0.42560732E+03</pdfrwt>
<pdfrwt beam="2">  1       21 0.21338518E+00 0.42560732E+03</pdfrwt>
<totfact> 0.84448355E+02</totfact>
</mgrwt>
</event>
<event>
 4    1  0.4774032E-002  0.4328315E+03  0.7818608E-02  0.1032969E+00
         21   -1    0    0  501  502  0.00000000000E+00  0.00000000000E+00  0.74595292281E+03  0.74595292281E+03  0.00000000000E+00 0.  1.
         21   -1    0    0  502  503 -0.00000000000E+00 -0.00000000000E+00 -0.27950878954E+03  0.27950878954E+03  0.00000000000E+00 0.  1.
    9000005    1    1    2  501    0  0.12574551801E+03  0.10738328901E+03  0.39655210121E+03  0.58702357281E+03  0.40000000000E+03 0.  1.
   -9000005    1    1    2    0  503 -0.12574551801E+03 -0.10738328901E+03  0.69892032065E+02  0.43843813954E+03  0.40000000000E+03 0.  1.
<mgrwt>
<rscale>  2 0.43283150E+03</rscale>
<asrwt>0</asrwt>
<pdfrwt beam="1">  1       21 0.11476199E+00 0.43283150E+03</pdfrwt>
<pdfrwt beam="2">  1       21 0.43001353E-01 0.43283150E+03</pdfrwt>
<totfact> 0.26706241E+03</totfact>
</mgrwt>
</event>
<event>
 4    1  0.4774032E-002  0.4157621E+03  0.7818608E-02  0.1038454E+00
         21   -1    0    0  501  502  0.00000000000E+00  0.00000000000E+00  0.32759328183E+03  0.32759328183E+03  0.00000000000E+00 0. -1.
         21   -1    0    0  502  503 -0.00000000000E+00 -0.00000000000E+00 -0.67976766987E+03  0.67976766987E+03  0.00000000000E+00 0. -1.
    9000005    1    1    2  501    0 -0.10286099252E+03 -0.47725998426E+02  0.62171734678E+02  0.42038491802E+03  0.40000000000E+03 0. -1.
   -9000005    1    1    2    0  503  0.10286099252E+03  0.47725998426E+02 -0.41434612271E+03  0.58697603368E+03  0.40000000000E+03 0. -1.
<mgrwt>
<rscale>  2 0.41576214E+03</rscale>
<asrwt>0</asrwt>
<pdfrwt beam="1">  1       21 0.50398967E-01 0.41576214E+03</pdfrwt>
<pdfrwt beam="2">  1       21 0.10457964E+00 0.41576214E+03</pdfrwt>
<totfact> 0.24235385E+03</totfact>
</mgrwt>
</event>
<event>
 4    1  0.4774032E-002  0.5187043E+03  0.7818608E-02  0.1009009E+00
         21   -1    0    0  501  502  0.00000000000E+00  0.00000000000E+00  0.19547945916E+04  0.19547945916E+04  0.00000000000E+00 0. -1.
         21   -1    0    0  502  503 -0.00000000000E+00 -0.00000000000E+00 -0.15148341578E+03  0.15148341578E+03  0.00000000000E+00 0. -1.
    9000005    1    1    2  501    0  0.32421890931E+03  0.62739602140E+02  0.12200423659E+04  0.13257290573E+04  0.40000000000E+03 0. -1.
   -9000005    1    1    2    0  503 -0.32421890931E+03 -0.62739602140E+02  0.58326880999E+03  0.78054895012E+03  0.40000000000E+03 0. -1.
<mgrwt>
<rscale>  2 0.51870431E+03</rscale>
<asrwt>0</asrwt>
<pdfrwt beam="1">  1       21 0.30073761E+00 0.51870431E+03</pdfrwt>
<pdfrwt beam="2">  1       21 0.23305142E-01 0.51870431E+03</pdfrwt>
<totfact> 0.44904393E+02</totfact>
</mgrwt>
</event>
<event>
 4    1  0.4774032E-002  0.4101737E+03  0.7818608E-02  0.1040313E+00
         21   -1    0    0  503  502  0.00000000000E+00  0.00000000000E+00  0.18074468518E+04  0.18074468518E+04  0.00000000000E+00 0. -1.
         21   -1    0    0  501  503 -0.00000000000E+00 -0.00000000000E+00 -0.25152889303E+03  0.25152889303E+03  0.00000000000E+00 0. -1.
    9000005    1    1    2  501    0 -0.58028869293E+02 -0.69821752456E+02 -0.39127268461E+02  0.41203564157E+03  0.40000000000E+03 0. -1.
   -9000005    1    1    2    0  502  0.58028869293E+02  0.69821752456E+02  0.15950452272E+04  0.16469401033E+04  0.40000000000E+03 0. -1.
<mgrwt>
<rscale>  2 0.41017365E+03</rscale>
<asrwt>0</asrwt>
<pdfrwt beam="1">  1       21 0.27806874E+00 0.41017365E+03</pdfrwt>
<pdfrwt beam="2">  1       21 0.38696754E-01 0.41017365E+03</pdfrwt>
<totfact> 0.23840134E+02</totfact>
</mgrwt>
</event>
<event>
 4    1  0.4774032E-002  0.4673586E+03  0.7818608E-02  0.1022668E+00
         21   -1    0    0  503  502  0.00000000000E+00  0.00000000000E+00  0.21598555059E+03  0.21598555059E+03  0.00000000000E+00 0. -1.
         21   -1    0    0  501  503 -0.00000000000E+00 -0.00000000000E+00 -0.10113139436E+04  0.10113139436E+04  0.00000000000E+00 0. -1.
    9000005    1    1    2  501    0  0.22481297177E+03 -0.88787294891E+02 -0.39468657096E+03  0.61172015277E+03  0.40000000000E+03 0. -1.
   -9000005    1    1    2    0  502 -0.22481297177E+03  0.88787294891E+02 -0.40064182205E+03  0.61557934142E+03  0.40000000000E+03 0. -1.
<mgrwt>
<rscale>  2 0.46735859E+03</rscale>
<asrwt>0</asrwt>
<pdfrwt beam="1">  1       21 0.33228546E-01 0.46735859E+03</pdfrwt>
<pdfrwt beam="2">  1       21 0.15558676E+00 0.46735859E+03</pdfrwt>
<totfact> 0.20102394E+03</totfact>
</mgrwt>
</event>
<event>
 4    1  0.4774032E-002  0.4192320E+03  0.7818608E-02  0.1037317E+00
         21   -1    0    0  501  502  0.00000000000E+00  0.00000000000E+00  0.16028484291E+03  0.16028484291E+03  0.00000000000E+00 0. -1.
         21   -1    0    0  502  503 -0.00000000000E+00 -0.00000000000E+00 -0.12874503528E+04  0.12874503528E+04  0.00000000000E+00 0. -1.
    9000005    1    1    2  501    0 -0.79108873508E+02  0.97453825344E+02 -0.28482182521E+03  0.50683225436E+03  0.40000000000E+03 0. -1.
   -9000005    1    1    2    0  503  0.79108873508E+02 -0.97453825344E+02 -0.84234368469E+03  0.94090294137E+03  0.40000000000E+03 0. -1.
<mgrwt>
<rscale>  2 0.41923199E+03</rscale>
<asrwt>0</asrwt>
<pdfrwt beam="1">  1       21 0.24659208E-01 0.41923199E+03</pdfrwt>
<pdfrwt beam="2">  1       21 0.19806928E+00 0.41923199E+03</pdfrwt>
<totfact> 0.18391092E+03</totfact>
</mgrwt>
</event>
<event>
 4    1  0.4774032E-002  0.4168839E+03  0.7818608E-02  0.1038085E+00
         21   -1    0    0  503  502  0.00000000000E+00  0.00000000000E+00  0.36135530377E+03  0.36135530377E+03  0.00000000000E+00 0. -1.
         21   -1    0    0  501  503 -0.00000000000E+00 -0.00000000000E+00 -0.52424800201E+03  0.52424800201E+03  0.00000000000E+00 0. -1.
    9000005    1    1    2  501    0 -0.13063292685E+02  0.11671129326E+03 -0.20870806542E+03  0.46620942951E+03  0.40000000000E+03 0. -1.
   -9000005    1    1    2    0  502  0.13063292685E+02 -0.11671129326E+03  0.45815367182E+02  0.41939387628E+03  0.40000000000E+03 0. -1.
<mgrwt>
<rscale>  2 0.41688389E+03</rscale>
<asrwt>0</asrwt>
<pdfrwt beam="1">  1       21 0.55593124E-01 0.41688389E+03</pdfrwt>
<pdfrwt beam="2">  1       21 0.80653538E-01 0.41688389E+03</pdfrwt>
<totfact> 0.36409518E+03</totfact>
</mgrwt>
</event>
<event>
 4    1  0.4774032E-002  0.4091408E+03  0.7818608E-02  0.1040660E+00
         21   -1    0    0  501  502  0.00000000000E+00  0.00000000000E+00  0.61105119921E+03  0.61105119921E+03  0.00000000000E+00 0.  1.
         21   -1    0    0  502  503 -0.00000000000E+00 -0.00000000000E+00 -0.30920255921E+03  0.30920255921E+03  0.00000000000E+00 0.  1.
    9000005    1    1    2  501    0  0.67074201348E+02 -0.53826252638E+02  0.30629322737E+03  0.51108879374E+03  0.40000000000E+03 0.  1.
   -9000005    1    1    2    0  503 -0.67074201348E+02  0.53826252638E+02 -0.44445873620E+01  0.40916496467E+03  0.40000000000E+03 0.  1.
<mgrwt>
<rscale>  2 0.40914082E+03</rscale>
<asrwt>0</asrwt>
<pdfrwt beam="1">  1       21 0.94007877E-01 0.40914082E+03</pdfrwt>
<pdfrwt beam="2">  1       21 0.47569625E-01 0.40914082E+03</pdfrwt>
<totfact> 0.35535173E+03</totfact>
</mgrwt>
</event>
<event>
 4    1  0.4774032E-002  0.5831004E+03  0.7818608E-02  0.9941101E-01
         21   -1    0    0  501  502  0.00000000000E+00  0.00000000000E+00  0.71673570833E+03  0.71673570833E+03  0.00000000000E+00 0.  1.
         21   -1    0    0  502  503 -0.00000000000E+00 -0.00000000000E+00 -0.47506380615E+03  0.47506380615E+03  0.00000000000E+00 0.  1.
    9000005    1    1    2  501    0 -0.37441964159E+03  0.19953951900E+03  0.14342090397E+03  0.60047951118E+03  0.40000000000E+03 0.  1.
   -9000005    1    1    2    0  503  0.37441964159E+03 -0.19953951900E+03  0.98250998215E+02  0.59132000330E+03  0.40000000000E+03 0.  1.
<mgrwt>
<rscale>  2 0.58310041E+03</rscale>
<asrwt>0</asrwt>
<pdfrwt beam="1">  1       21 0.11026703E+00 0.58310041E+03</pdfrwt>
<pdfrwt beam="2">  1       21 0.73086739E-01 0.58310041E+03</pdfrwt>
<totfact> 0.88352051E+02</totfact>
</mgrwt>
</event>
<event>
 4    1  0.4774032E-002  0.4112684E+03  0.7818608E-02  0.1039946E+00
         21   -1    0    0  503  502  0.00000000000E+00  0.00000000000E+00  0.17032951692E+03  0.17032951692E+03  0.00000000000E+00 0. -1.
         21   -1    0    0  501  503 -0.00000000000E+00 -0.00000000000E+00 -0.22024266425E+04  0.22024266425E+04  0.00000000000E+00 0. -1.
    9000005    1    1    2  501    0  0.58311051384E+02 -0.75772598276E+02 -0.18951873823E+04  0.19392980378E+04  0.40000000000E+03 0. -1.
   -9000005    1    1    2    0  502 -0.58311051384E+02  0.75772598276E+02 -0.13690974322E+03  0.43345812157E+03  0.40000000000E+03 0. -1.
<mgrwt>
<rscale>  2 0.41126836E+03</rscale>
<asrwt>0</asrwt>
<pdfrwt beam="1">  1       21 0.26204543E-01 0.41126836E+03</pdfrwt>
<pdfrwt beam="2">  1       21 0.33883484E+00 0.41126836E+03</pdfrwt>
<totfact> 0.22392843E+02</totfact>
</mgrwt>
</event>
<event>
 4    1  0.4774032E-002  0.7714572E+03  0.7818608E-02  0.9602276E-01
         21   -1    0    0  501  502  0.00000000000E+00  0.00000000000E+00  0.47673633504E+03  0.47673633504E+03  0.00000000000E+00 0. -1.
         21   -1    0    0  502  503 -0.00000000000E+00 -0.00000000000E+00 -0.15680854280E+04  0.15680854280E+04  0.00000000000E+00 0.  1.
    9000005    1    1    2  501    0 -0.38728409281E+03  0.53400111169E+03 -0.84018650183E+02  0.77601887182E+03  0.40000000000E+03 0. -1.
   -9000005    1    1    2    0  503  0.38728409281E+03 -0.53400111169E+03 -0.10073304428E+04  0.12688028912E+04  0.40000000000E+03 0.  1.
<mgrwt>
<rscale>  2 0.77145716E+03</rscale>
<asrwt>0</asrwt>
<pdfrwt beam="1">  1       21 0.73344050E-01 0.77145716E+03</pdfrwt>
<pdfrwt beam="2">  1       21 0.24124392E+00 0.77145716E+03</pdfrwt>
<totfact> 0.85414156E+01</totfact>
</mgrwt>
</event>
<event>
 4    1  0.4774032E-002  0.4471593E+03  0.7818608E-02  0.1028573E+00
         21   -1    0    0  501  502  0.00000000000E+00  0.00000000000E+00  0.88099649093E+03  0.88099649093E+03  0.00000000000E+00 0.  1.
         21   -1    0    0  502  503 -0.00000000000E+00 -0.00000000000E+00 -0.22885632489E+03  0.22885632489E+03  0.00000000000E+00 0. -1.
    9000005    1    1    2  501    0 -0.23567776892E+02  0.19848427550E+03  0.37657659407E+03  0.58460360838E+03  0.40000000000E+03 0.  1.
   -9000005    1    1    2    0  503  0.23567776892E+02 -0.19848427550E+03  0.27556357197E+03  0.52524920745E+03  0.40000000000E+03 0. -1.
<mgrwt>
<rscale>  2 0.44715931E+03</rscale>
<asrwt>0</asrwt>
<pdfrwt beam="1">  1       21 0.13553792E+00 0.44715931E+03</pdfrwt>
<pdfrwt beam="2">  1       21 0.35208666E-01 0.44715931E+03</pdfrwt>
<totfact> 0.26126447E+03</totfact>
</mgrwt>
</event>
<event>
 4    1  0.4774032E-002  0.4679634E+03  0.7818608E-02  0.1022497E+00
         21   -1    0    0  501  502  0.00000000000E+00  0.00000000000E+00  0.88840784490E+03  0.88840784490E+03  0.00000000000E+00 0. -1.
         21   -1    0    0  502  503 -0.00000000000E+00 -0.00000000000E+00 -0.25086323484E+03  0.25086323484E+03  0.00000000000E+00 0. -1.
    9000005    1    1    2  501    0  0.51274801853E+02 -0.23740386126E+03  0.39392449218E+03  0.61169126541E+03  0.40000000000E+03 0. -1.
   -9000005    1    1    2    0  503 -0.51274801853E+02  0.23740386126E+03  0.24362011789E+03  0.52757981433E+03  0.40000000000E+03 0. -1.
<mgrwt>
<rscale>  2 0.46796335E+03</rscale>
<asrwt>0</asrwt>
<pdfrwt beam="1">  1       21 0.13667813E+00 0.46796335E+03</pdfrwt>
<pdfrwt beam="2">  1       21 0.38594344E-01 0.46796335E+03</pdfrwt>
<totfact> 0.21031856E+03</totfact>
</mgrwt>
</event>
<event>
 4    1  0.4774032E-002  0.4138158E+03  0.7818608E-02  0.1039098E+00
         21   -1    0    0  501  502  0.00000000000E+00  0.00000000000E+00  0.59349058425E+03  0.59349058425E+03  0.00000000000E+00 0.  1.
         21   -1    0    0  502  503 -0.00000000000E+00 -0.00000000000E+00 -0.31878718750E+03  0.31878718750E+03  0.00000000000E+00 0.  1.
    9000005    1    1    2  501    0 -0.10031850956E+03  0.34346472424E+02  0.27786481358E+03  0.49844993546E+03  0.40000000000E+03 0.  1.
   -9000005    1    1    2    0  503  0.10031850956E+03 -0.34346472424E+02 -0.31614168361E+01  0.41382783629E+03  0.40000000000E+03 0.  1.
<mgrwt>
<rscale>  2 0.41381576E+03</rscale>
<asrwt>0</asrwt>
<pdfrwt beam="1">  1       21 0.91306244E-01 0.41381576E+03</pdfrwt>
<pdfrwt beam="2">  1       21 0.49044183E-01 0.41381576E+03</pdfrwt>
<totfact> 0.35645159E+03</totfact>
</mgrwt>
</event>
<event>
 4    1  0.4774032E-002  0.4704587E+03  0.7818608E-02  0.1021791E+00
         21   -1    0    0  501  502  0.00000000000E+00  0.00000000000E+00  0.97895293072E+03  0.97895293072E+03  0.00000000000E+00 0.  1.
         21   -1    0    0  502  503 -0.00000000000E+00 -0.00000000000E+00 -0.27179640212E+03  0.27179640212E+03  0.00000000000E+00 0.  1.
    9000005    1    1    2  501    0  0.24613675537E+03  0.27350428637E+02  0.61003111561E+03  0.77036959332E+03  0.40000000000E+03 0.  1.
   -9000005    1    1    2    0  503 -0.24613675537E+03 -0.27350428637E+02  0.97125412981E+02  0.48037973952E+03  0.40000000000E+03 0.  1.
<mgrwt>
<rscale>  2 0.47045866E+03</rscale>
<asrwt>0</asrwt>
<pdfrwt beam="1">  1       21 0.15060814E+00 0.47045866E+03</pdfrwt>
<pdfrwt beam="2">  1       21 0.41814831E-01 0.47045866E+03</pdfrwt>
<totfact> 0.13724305E+03</totfact>
</mgrwt>
</event>
<event>
 4    1  0.4774032E-002  0.4026619E+03  0.7818608E-02  0.1042862E+00
         21   -1    0    0  503  502  0.00000000000E+00  0.00000000000E+00  0.22971196181E+03  0.22971196181E+03  0.00000000000E+00 0. -1.
         21   -1    0    0  501  503 -0.00000000000E+00 -0.00000000000E+00 -0.10390521085E+04  0.10390521085E+04  0.00000000000E+00 0. -1.
    9000005    1    1    2  501    0 -0.24969881428E+02  0.38899222887E+02 -0.76392423641E+03  0.86354900469E+03  0.40000000000E+03 0. -1.
   -9000005    1    1    2    0  502  0.24969881428E+02 -0.38899222887E+02 -0.45415910311E+02  0.40521506565E+03  0.40000000000E+03 0. -1.
<mgrwt>
<rscale>  2 0.40266195E+03</rscale>
<asrwt>0</asrwt>
<pdfrwt beam="1">  1       21 0.35340303E-01 0.40266195E+03</pdfrwt>
<pdfrwt beam="2">  1       21 0.15985417E+00 0.40266195E+03</pdfrwt>
<totfact> 0.16924648E+03</totfact>
</mgrwt>
</event>
<event>
 4    1  0.4774032E-002  0.4235498E+03  0.7818608E-02  0.1035917E+00
         21   -1    0    0  501  502  0.00000000000E+00  0.00000000000E+00  0.57053892687E+03  0.57053892687E+03  0.00000000000E+00 0. -1.
         21   -1    0    0  502  503 -0.00000000000E+00 -0.00000000000E+00 -0.42910874932E+03  0.42910874932E+03  0.00000000000E+00 0. -1.
    9000005    1    1    2  501    0  0.98148929156E+02  0.98799078953E+02  0.32910469173E+03  0.53638080541E+03  0.40000000000E+03 0. -1.
   -9000005    1    1    2    0  503 -0.98148929156E+02 -0.98799078953E+02 -0.18767451418E+03  0.46326687079E+03  0.40000000000E+03 0. -1.
<mgrwt>
<rscale>  2 0.42354984E+03</rscale>
<asrwt>0</asrwt>
<pdfrwt beam="1">  1       21 0.87775220E-01 0.42354984E+03</pdfrwt>
<pdfrwt beam="2">  1       21 0.66016731E-01 0.42354984E+03</pdfrwt>
<totfact> 0.20457510E+03</totfact>
</mgrwt>
</event>
<event>
 4    1  0.4774032E-002  0.5288212E+03  0.7818608E-02  0.1006518E+00
         21   -1    0    0  501  502  0.00000000000E+00  0.00000000000E+00  0.34299214272E+03  0.34299214272E+03  0.00000000000E+00 0. -1.
         21   -1    0    0  502  503 -0.00000000000E+00 -0.00000000000E+00 -0.10966343301E+04  0.10966343301E+04  0.00000000000E+00 0. -1.
    9000005    1    1    2  501    0  0.17307538373E+03  0.29949412266E+03 -0.74138783086E+03  0.91066334817E+03  0.40000000000E+03 0. -1.
   -9000005    1    1    2    0  503 -0.17307538373E+03 -0.29949412266E+03 -0.12254356497E+02  0.52896312463E+03  0.40000000000E+03 0. -1.
<mgrwt>
<rscale>  2 0.52882116E+03</rscale>
<asrwt>0</asrwt>
<pdfrwt beam="1">  1       21 0.52768022E-01 0.52882116E+03</pdfrwt>
<pdfrwt beam="2">  1       21 0.16871297E+00 0.52882116E+03</pdfrwt>
<totfact> 0.59773387E+02</totfact>
</mgrwt>
</event>
<event>
 4    1  0.4774032E-002  0.5879625E+03  0.7818608E-02  0.9930699E-01
         21   -1    0    0  501  502  0.00000000000E+00  0.00000000000E+00  0.40375909688E+03  0.40375909688E+03  0.00000000000E+00 0.  1.
         21   -1    0    0  502  503 -0.00000000000E+00 -0.00000000000E+00 -0.11455852240E+04  0.11455852240E+04  0.00000000000E+00 0. -1.
    9000005    1    1    2  501    0  0.16297935600E+03  0.39892064596E+03  0.18436593403E+02  0.58825152803E+03  0.40000000000E+03 0.  1.
   -9000005    1    1    2    0  503 -0.16297935600E+03 -0.39892064596E+03 -0.76026272052E+03  0.96109279285E+03  0.40000000000E+03 0. -1.
<mgrwt>
<rscale>  2 0.58796254E+03</rscale>
<asrwt>0</asrwt>
<pdfrwt beam="1">  1       21 0.62116785E-01 0.58796254E+03</pdfrwt>
<pdfrwt beam="2">  1       21 0.17624388E+00 0.58796254E+03</pdfrwt>
<totfact> 0.36075719E+02</totfact>
</mgrwt>
</event>
<event>
 4    1  0.4774032E-002  0.5100416E+03  0.7818608E-02  0.1011191E+00
         21   -1    0    0  503  502  0.00000000000E+00  0.00000000000E+00  0.10199699307E+04  0.10199699307E+04  0.00000000000E+00 0.  1.
         21   -1    0    0  501  503 -0.00000000000E+00 -0.00000000000E+00 -0.36087702397E+03  0.36087702397E+03  0.00000000000E+00 0.  1.
    9000005    1    1    2  501    0  0.14860440965E+03 -0.27939064441E+03 -0.44336868922E+02  0.51196499948E+03  0.40000000000E+03 0.  1.
   -9000005    1    1    2    0  502 -0.14860440965E+03  0.27939064441E+03  0.70342977561E+03  0.86888195514E+03  0.40000000000E+03 0.  1.
<mgrwt>
<rscale>  2 0.51004157E+03</rscale>
<asrwt>0</asrwt>
<pdfrwt beam="1">  1       21 0.15691845E+00 0.51004157E+03</pdfrwt>
<pdfrwt beam="2">  1       21 0.55519543E-01 0.51004157E+03</pdfrwt>
<totfact> 0.66171987E+02</totfact>
</mgrwt>
</event>
<event>
 4    1  0.4774032E-002  0.4443283E+03  0.7818608E-02  0.1029427E+00
         21   -1    0    0  503  502  0.00000000000E+00  0.00000000000E+00  0.82134824881E+03  0.82134824881E+03  0.00000000000E+00 0.  1.
         21   -1    0    0  501  503 -0.00000000000E+00 -0.00000000000E+00 -0.34473724705E+03  0.34473724705E+03  0.00000000000E+00 0.  1.
    9000005    1    1    2  501    0 -0.75659274119E+02  0.17805428806E+03 -0.82497158368E+02  0.45192193618E+03  0.40000000000E+03 0.  1.
   -9000005    1    1    2    0  502  0.75659274119E+02 -0.17805428806E+03  0.55910816013E+03  0.71416355968E+03  0.40000000000E+03 0.  1.
<mgrwt>
<rscale>  2 0.44432832E+03</rscale>
<asrwt>0</asrwt>
<pdfrwt beam="1">  1       21 0.12636127E+00 0.44432832E+03</pdfrwt>
<pdfrwt beam="2">  1       21 0.53036500E-01 0.44432832E+03</pdfrwt>
<totfact> 0.13366557E+03</totfact>
</mgrwt>
</event>
<event>
 4    1  0.4774032E-002  0.4039083E+03  0.7818608E-02  0.1042435E+00
         21   -1    0    0  503  502  0.00000000000E+00  0.00000000000E+00  0.88721113731E+03  0.88721113731E+03  0.00000000000E+00 0. -1.
         21   -1    0    0  501  503 -0.00000000000E+00 -0.00000000000E+00 -0.44285498810E+03  0.44285498810E+03  0.00000000000E+00 0. -1.
    9000005    1    1    2  501    0 -0.46492252379E+02  0.31310692370E+02 -0.28637929870E+03  0.49513128735E+03  0.40000000000E+03 0. -1.
   -9000005    1    1    2    0  502  0.46492252379E+02 -0.31310692370E+02  0.73073544791E+03  0.83493483807E+03  0.40000000000E+03 0. -1.
<mgrwt>
<rscale>  2 0.40390827E+03</rscale>
<asrwt>0</asrwt>
<pdfrwt beam="1">  1       21 0.13649402E+00 0.40390827E+03</pdfrwt>
<pdfrwt beam="2">  1       21 0.68131536E-01 0.40390827E+03</pdfrwt>
<totfact> 0.64389467E+02</totfact>
</mgrwt>
</event>
<event>
 4    1  0.4774032E-002  0.4247854E+03  0.7818608E-02  0.1035520E+00
         21   -1    0    0  503  502  0.00000000000E+00  0.00000000000E+00  0.52653482336E+03  0.52653482336E+03  0.00000000000E+00 0.  1.
         21   -1    0    0  501  503 -0.00000000000E+00 -0.00000000000E+00 -0.40727777148E+03  0.40727777148E+03  0.00000000000E+00 0.  1.
    9000005    1    1    2  501    0 -0.76937816508E+02 -0.12051219468E+03 -0.12629375691E+03  0.44316219346E+03  0.40000000000E+03 0.  1.
   -9000005    1    1    2    0  502  0.76937816508E+02  0.12051219468E+03  0.24555080879E+03  0.49065040138E+03  0.40000000000E+03 0.  1.
<mgrwt>
<rscale>  2 0.42478538E+03</rscale>
<asrwt>0</asrwt>
<pdfrwt beam="1">  1       21 0.81005357E-01 0.42478538E+03</pdfrwt>
<pdfrwt beam="2">  1       21 0.62658119E-01 0.42478538E+03</pdfrwt>
<totfact> 0.27681125E+03</totfact>
</mgrwt>
</event>
<event>
 4    1  0.4774032E-002  0.5902792E+03  0.7818608E-02  0.9925781E-01
         21   -1    0    0  503  502  0.00000000000E+00  0.00000000000E+00  0.10949386562E+04  0.10949386562E+04  0.00000000000E+00 0.  1.
         21   -1    0    0  501  503 -0.00000000000E+00 -0.00000000000E+00 -0.68633023519E+03  0.68633023519E+03  0.00000000000E+00 0.  1.
    9000005    1    1    2  501    0  0.43388066720E+03  0.13306192640E+02 -0.44795900521E+03  0.74101063318E+03  0.40000000000E+03 0.  1.
   -9000005    1    1    2    0  502 -0.43388066720E+03 -0.13306192640E+02  0.85656742625E+03  0.10402582582E+04  0.40000000000E+03 0.  1.
<mgrwt>
<rscale>  2 0.59027916E+03</rscale>
<asrwt>0</asrwt>
<pdfrwt beam="1">  1       21 0.16845210E+00 0.59027916E+03</pdfrwt>
<pdfrwt beam="2">  1       21 0.10558927E+00 0.59027916E+03</pdfrwt>
<totfact> 0.11887886E+02</totfact>
</mgrwt>
</event>
<event>
 4    1  0.4774032E-002  0.4316869E+03  0.7818608E-02  0.1033328E+00
         21   -1    0    0  503  502  0.00000000000E+00  0.00000000000E+00  0.24863710841E+03  0.24863710841E+03  0.00000000000E+00 0.  1.
         21   -1    0    0  501  503 -0.00000000000E+00 -0.00000000000E+00 -0.74959400063E+03  0.74959400063E+03  0.00000000000E+00 0.  1.
    9000005    1    1    2  501    0 -0.51187244778E+02  0.15405663357E+03 -0.25605960353E+03  0.50191642824E+03  0.40000000000E+03 0.  1.
   -9000005    1    1    2    0  502  0.51187244778E+02 -0.15405663357E+03 -0.24489728869E+03  0.49631468081E+03  0.40000000000E+03 0.  1.
<mgrwt>
<rscale>  2 0.43168690E+03</rscale>
<asrwt>0</asrwt>
<pdfrwt beam="1">  1       21 0.38251863E-01 0.43168690E+03</pdfrwt>
<pdfrwt beam="2">  1       21 0.11532215E+00 0.43168690E+03</pdfrwt>
<totfact> 0.33601084E+03</totfact>
</mgrwt>
</event>
<event>
 4    1  0.4774032E-002  0.4488640E+03  0.7818608E-02  0.1028061E+00
         21   -1    0    0  501  502  0.00000000000E+00  0.00000000000E+00  0.10123969652E+04  0.10123969652E+04  0.00000000000E+00 0. -1.
         21   -1    0    0  502  503 -0.00000000000E+00 -0.00000000000E+00 -0.23154068832E+03  0.23154068832E+03  0.00000000000E+00 0. -1.
    9000005    1    1    2  501    0  0.62854286070E+02  0.19372199679E+03  0.62355376920E+03  0.76830864657E+03  0.40000000000E+03 0. -1.
   -9000005    1    1    2    0  503 -0.62854286070E+02 -0.19372199679E+03  0.15730250768E+03  0.47562900694E+03  0.40000000000E+03 0. -1.
<mgrwt>
<rscale>  2 0.44886398E+03</rscale>
<asrwt>0</asrwt>
<pdfrwt beam="1">  1       21 0.15575338E+00 0.44886398E+03</pdfrwt>
<pdfrwt beam="2">  1       21 0.35621645E-01 0.44886398E+03</pdfrwt>
<totfact> 0.17544000E+03</totfact>
</mgrwt>
</event>
<event>
 4    1  0.4774032E-002  0.4032627E+03  0.7818608E-02  0.1042656E+00
         21   -1    0    0  503  502  0.00000000000E+00  0.00000000000E+00  0.67662145148E+03  0.67662145148E+03  0.00000000000E+00 0. -1.
         21   -1    0    0  501  503 -0.00000000000E+00 -0.00000000000E+00 -0.48598194526E+03  0.48598194526E+03  0.00000000000E+00 0. -1.
    9000005    1    1    2  501    0 -0.65146488924E+00 -0.51189325038E+02 -0.31795676965E+03  0.51353410673E+03  0.40000000000E+03 0. -1.
   -9000005    1    1    2    0  502  0.65146488924E+00  0.51189325038E+02  0.50859627588E+03  0.64906929002E+03  0.40000000000E+03 0. -1.
<mgrwt>
<rscale>  2 0.40326266E+03</rscale>
<asrwt>0</asrwt>
<pdfrwt beam="1">  1       21 0.10409561E+00 0.40326266E+03</pdfrwt>
<pdfrwt beam="2">  1       21 0.74766454E-01 0.40326266E+03</pdfrwt>
<totfact> 0.10362621E+03</totfact>
</mgrwt>
</event>
<event>
 4    1  0.4774032E-002  0.5446993E+03  0.7818608E-02  0.1002728E+00
         21   -1    0    0  501  502  0.00000000000E+00  0.00000000000E+00  0.85629778899E+03  0.85629778899E+03  0.00000000000E+00 0.  1.
         21   -1    0    0  502  503 -0.00000000000E+00 -0.00000000000E+00 -0.34907543090E+03  0.34907543090E+03  0.00000000000E+00 0. -1.
    9000005    1    1    2  501    0 -0.22759324881E+03  0.29137361942E+03  0.30549483081E+03  0.62451930687E+03  0.40000000000E+03 0.  1.
   -9000005    1    1    2    0  503  0.22759324881E+03 -0.29137361942E+03  0.20172752728E+03  0.58085391301E+03  0.40000000000E+03 0. -1.
<mgrwt>
<rscale>  2 0.54469925E+03</rscale>
<asrwt>0</asrwt>
<pdfrwt beam="1">  1       21 0.13173812E+00 0.54469925E+03</pdfrwt>
<pdfrwt beam="2">  1       21 0.53703913E-01 0.54469925E+03</pdfrwt>
<totfact> 0.11248974E+03</totfact>
</mgrwt>
</event>
<event>
 4    1  0.4774032E-002  0.4909414E+03  0.7818608E-02  0.1016171E+00
         21   -1    0    0  501  502  0.00000000000E+00  0.00000000000E+00  0.67275035989E+03  0.67275035989E+03  0.00000000000E+00 0.  1.
         21   -1    0    0  502  503 -0.00000000000E+00 -0.00000000000E+00 -0.36185358790E+03  0.36185358790E+03  0.00000000000E+00 0. -1.
    9000005    1    1    2  501    0  0.11321194606E+03 -0.26116370355E+03  0.20695855473E+03  0.53278069425E+03  0.40000000000E+03 0. -1.
   -9000005    1    1    2    0  503 -0.11321194606E+03  0.26116370355E+03  0.10393821726E+03  0.50182325354E+03  0.40000000000E+03 0.  1.
<mgrwt>
<rscale>  2 0.49094137E+03</rscale>
<asrwt>0</asrwt>
<pdfrwt beam="1">  1       21 0.10350006E+00 0.49094137E+03</pdfrwt>
<pdfrwt beam="2">  1       21 0.55669783E-01 0.49094137E+03</pdfrwt>
<totfact> 0.19526787E+03</totfact>
</mgrwt>
</event>
<event>
 4    1  0.4774032E-002  0.4067628E+03  0.7818608E-02  0.1041463E+00
         21   -1    0    0  503  502  0.00000000000E+00  0.00000000000E+00  0.25470906350E+03  0.25470906350E+03  0.00000000000E+00 0.  1.
         21   -1    0    0  501  503 -0.00000000000E+00 -0.00000000000E+00 -0.17873504090E+04  0.17873504090E+04  0.00000000000E+00 0.  1.
    9000005    1    1    2  501    0 -0.71073461402E+02  0.20113309884E+02 -0.15809486209E+04  0.16324382145E+04  0.40000000000E+03 0.  1.
   -9000005    1    1    2    0  502  0.71073461402E+02 -0.20113309884E+02  0.48307275427E+02  0.40962125800E+03  0.40000000000E+03 0.  1.
<mgrwt>
<rscale>  2 0.40676281E+03</rscale>
<asrwt>0</asrwt>
<pdfrwt beam="1">  1       21 0.39186010E-01 0.40676281E+03</pdfrwt>
<pdfrwt beam="2">  1       21 0.27497699E+00 0.40676281E+03</pdfrwt>
<totfact> 0.24304925E+02</totfact>
</mgrwt>
</event>
<event>
 4    1  0.4774032E-002  0.4529036E+03  0.7818608E-02  0.1026860E+00
         21   -1    0    0  503  502  0.00000000000E+00  0.00000000000E+00  0.12014673209E+03  0.12014673209E+03  0.00000000000E+00 0.  1.
         21   -1    0    0  501  503 -0.00000000000E+00 -0.00000000000E+00 -0.17073008845E+04  0.17073008845E+04  0.00000000000E+00 0.  1.
    9000005    1    1    2  501    0  0.19192824338E+03  0.91023259471E+02 -0.79806000115E+03  0.91761726760E+03  0.40000000000E+03 0.  1.
   -9000005    1    1    2    0  502 -0.19192824338E+03 -0.91023259471E+02 -0.78909415127E+03  0.90983034899E+03  0.40000000000E+03 0.  1.
<mgrwt>
<rscale>  2 0.45290361E+03</rscale>
<asrwt>0</asrwt>
<pdfrwt beam="1">  1       21 0.18484114E-01 0.45290361E+03</pdfrwt>
<pdfrwt beam="2">  1       21 0.26266165E+00 0.45290361E+03</pdfrwt>
<totfact> 0.12288051E+03</totfact>
</mgrwt>
</event>
<event>
 4    1  0.4774032E-002  0.4618389E+03  0.7818608E-02  0.1024249E+00
         21   -1    0    0  501  502  0.00000000000E+00  0.00000000000E+00  0.88147934913E+03  0.88147934913E+03  0.00000000000E+00 0.  1.
         21   -1    0    0  502  503 -0.00000000000E+00 -0.00000000000E+00 -0.42505141351E+03  0.42505141351E+03  0.00000000000E+00 0. -1.
    9000005    1    1    2  501    0 -0.14647844211E+03 -0.17843561508E+03  0.65694620097E+03  0.80304016942E+03  0.40000000000E+03 0.  1.
   -9000005    1    1    2    0  503  0.14647844211E+03  0.17843561508E+03 -0.20051826535E+03  0.50349059323E+03  0.40000000000E+03 0. -1.
<mgrwt>
<rscale>  2 0.46183894E+03</rscale>
<asrwt>0</asrwt>
<pdfrwt beam="1">  1       21 0.13561221E+00 0.46183894E+03</pdfrwt>
<pdfrwt beam="2">  1       21 0.65392525E-01 0.46183894E+03</pdfrwt>
<totfact> 0.69874872E+02</totfact>
</mgrwt>
</event>
<event>
 4    1  0.4774032E-002  0.4983255E+03  0.7818608E-02  0.1014217E+00
         21   -1    0    0  503  502  0.00000000000E+00  0.00000000000E+00  0.17782311494E+03  0.17782311494E+03  0.00000000000E+00 0.  1.
         21   -1    0    0  501  503 -0.00000000000E+00 -0.00000000000E+00 -0.13995421026E+04  0.13995421026E+04  0.00000000000E+00 0. -1.
    9000005    1    1    2  501    0 -0.27137082260E+03  0.12118671851E+03 -0.57403371884E+03  0.76015988743E+03  0.40000000000E+03 0.  1.
   -9000005    1    1    2    0  502  0.27137082260E+03 -0.12118671851E+03 -0.64768526886E+03  0.81720533013E+03  0.40000000000E+03 0. -1.
<mgrwt>
<rscale>  2 0.49832554E+03</rscale>
<asrwt>0</asrwt>
<pdfrwt beam="1">  1       21 0.27357403E-01 0.49832554E+03</pdfrwt>
<pdfrwt beam="2">  1       21 0.21531416E+00 0.49832554E+03</pdfrwt>
<totfact> 0.11167925E+03</totfact>
</mgrwt>
</event>
<event>
 4    1  0.4774032E-002  0.4720008E+03  0.7818608E-02  0.1021357E+00
         21   -1    0    0  503  502  0.00000000000E+00  0.00000000000E+00  0.88975198235E+03  0.88975198235E+03  0.00000000000E+00 0.  1.
         21   -1    0    0  501  503 -0.00000000000E+00 -0.00000000000E+00 -0.94757135511E+03  0.94757135511E+03  0.00000000000E+00 0. -1.
    9000005    1    1    2  501    0  0.24348159794E+03  0.59173385549E+02 -0.81690311056E+03  0.94345931027E+03  0.40000000000E+03 0. -1.
   -9000005    1    1    2    0  502 -0.24348159794E+03 -0.59173385549E+02  0.75908373780E+03  0.89386402718E+03  0.40000000000E+03 0.  1.
<mgrwt>
<rscale>  2 0.47200082E+03</rscale>
<asrwt>0</asrwt>
<pdfrwt beam="1">  1       21 0.13688492E+00 0.47200082E+03</pdfrwt>
<pdfrwt beam="2">  1       21 0.14578021E+00 0.47200082E+03</pdfrwt>
<totfact> 0.96737424E+01</totfact>
</mgrwt>
</event>
<event>
 4    1  0.4774032E-002  0.4285182E+03  0.7818608E-02  0.1034329E+00
         21   -1    0    0  501  502  0.00000000000E+00  0.00000000000E+00  0.66208018722E+03  0.66208018722E+03  0.00000000000E+00 0. -1.
         21   -1    0    0  502  503 -0.00000000000E+00 -0.00000000000E+00 -0.51573265323E+03  0.51573265323E+03  0.00000000000E+00 0. -1.
    9000005    1    1    2  501    0 -0.61292239731E+02  0.14096487537E+03  0.47355290818E+03  0.63865498635E+03  0.40000000000E+03 0. -1.
   -9000005    1    1    2    0  503  0.61292239731E+02 -0.14096487537E+03 -0.32720537419E+03  0.53915785410E+03  0.40000000000E+03 0. -1.
<mgrwt>
<rscale>  2 0.42851818E+03</rscale>
<asrwt>0</asrwt>
<pdfrwt beam="1">  1       21 0.10185849E+00 0.42851818E+03</pdfrwt>
<pdfrwt beam="2">  1       21 0.79343486E-01 0.42851818E+03</pdfrwt>
<totfact> 0.94311263E+02</totfact>
</mgrwt>
</event>
<event>
 4    1  0.4774032E-002  0.9603093E+03  0.7818608E-02  0.9353181E-01
         21   -1    0    0  503  502  0.00000000000E+00  0.00000000000E+00  0.97942058394E+03  0.97942058394E+03  0.00000000000E+00 0.  1.
         21   -1    0    0  501  503 -0.00000000000E+00 -0.00000000000E+00 -0.11180786121E+04  0.11180786121E+04  0.00000000000E+00 0. -1.
    9000005    1    1    2  501    0  0.82050923187E+03  0.29825914112E+03 -0.48602324490E+03  0.10762957351E+04  0.40000000000E+03 0. -1.
   -9000005    1    1    2    0  502 -0.82050923187E+03 -0.29825914112E+03  0.34736521673E+03  0.10212034609E+04  0.40000000000E+03 0.  1.
<mgrwt>
<rscale>  2 0.96030928E+03</rscale>
<asrwt>0</asrwt>
<pdfrwt beam="1">  1       21 0.15068009E+00 0.96030928E+03</pdfrwt>
<pdfrwt beam="2">  1       21 0.17201209E+00 0.96030928E+03</pdfrwt>
<totfact> 0.39060231E+01</totfact>
</mgrwt>
</event>
<event>
 4    1  0.4774032E-002  0.4040970E+03  0.7818608E-02  0.1042370E+00
         21   -1    0    0  503  502  0.00000000000E+00  0.00000000000E+00  0.14323323862E+04  0.14323323862E+04  0.00000000000E+00 0. -1.
         21   -1    0    0  501  503 -0.00000000000E+00 -0.00000000000E+00 -0.41355421555E+03  0.41355421555E+03  0.00000000000E+00 0. -1.
    9000005    1    1    2  501    0  0.37674861582E+02  0.43301370644E+02 -0.27610370958E+03  0.48941563353E+03  0.40000000000E+03 0. -1.
   -9000005    1    1    2    0  502 -0.37674861582E+02 -0.43301370644E+02  0.12948818803E+04  0.13564709683E+04  0.40000000000E+03 0. -1.
<mgrwt>
<rscale>  2 0.40409702E+03</rscale>
<asrwt>0</asrwt>
<pdfrwt beam="1">  1       21 0.22035883E+00 0.40409702E+03</pdfrwt>
<pdfrwt beam="2">  1       21 0.63623726E-01 0.40409702E+03</pdfrwt>
<totfact> 0.18833607E+02</totfact>
</mgrwt>
</event>
<event>
 4    1  0.4774032E-002  0.5670509E+03  0.7818608E-02  0.9976226E-01
         21   -1    0    0  501  502  0.00000000000E+00  0.00000000000E+00  0.11259341411E+04  0.11259341411E+04  0.00000000000E+00 0.  1.
         21   -1    0    0  502  503 -0.00000000000E+00 -0.00000000000E+00 -0.35570759458E+03  0.35570759458E+03  0.00000000000E+00 0.  1.
    9000005    1    1    2  501    0 -0.21678435479E+03 -0.33845423330E+03  0.71404393967E+03  0.91181438478E+03  0.40000000000E+03 0.  1.
   -9000005    1    1    2    0  503  0.21678435479E+03  0.33845423330E+03  0.56182606848E+02  0.56982735090E+03  0.40000000000E+03 0.  1.
<mgrwt>
<rscale>  2 0.56705090E+03</rscale>
<asrwt>0</asrwt>
<pdfrwt beam="1">  1       21 0.17322064E+00 0.56705090E+03</pdfrwt>
<pdfrwt beam="2">  1       21 0.54724246E-01 0.56705090E+03</pdfrwt>
<totfact> 0.50484859E+02</totfact>
</mgrwt>
</event>
<event>
 4    1  0.4774032E-002  0.4641861E+03  0.7818608E-02  0.1023574E+00
         21   -1    0    0  503  502  0.00000000000E+00  0.00000000000E+00  0.24791688159E+03  0.24791688159E+03  0.00000000000E+00 0. -1.
         21   -1    0    0  501  503 -0.00000000000E+00 -0.00000000000E+00 -0.88955262961E+03  0.88955262961E+03  0.00000000000E+00 0.  1.
    9000005    1    1    2  501    0  0.22725043999E+03  0.61854228814E+02 -0.23461517125E+03  0.52010862969E+03  0.40000000000E+03 0. -1.
   -9000005    1    1    2    0  502 -0.22725043999E+03 -0.61854228814E+02 -0.40702057677E+03  0.61736088151E+03  0.40000000000E+03 0.  1.
<mgrwt>
<rscale>  2 0.46418607E+03</rscale>
<asrwt>0</asrwt>
<pdfrwt beam="1">  1       21 0.38141058E-01 0.46418607E+03</pdfrwt>
<pdfrwt beam="2">  1       21 0.13685425E+00 0.46418607E+03</pdfrwt>
<totfact> 0.21504457E+03</totfact>
</mgrwt>
</event>
<event>
 4    1  0.4774032E-002  0.5517404E+03  0.7818608E-02  0.1001092E+00
         21   -1    0    0  503  502  0.00000000000E+00  0.00000000000E+00  0.29877689524E+04  0.29877689524E+04  0.00000000000E+00 0.  1.
         21   -1    0    0  501  503 -0.00000000000E+00 -0.00000000000E+00 -0.10241893847E+03  0.10241893847E+03  0.00000000000E+00 0. -1.
    9000005    1    1    2  501    0  0.59170510163E+02 -0.37538819595E+03  0.13314158946E+04  0.14412098152E+04  0.40000000000E+03 0.  1.
   -9000005    1    1    2    0  502 -0.59170510163E+02  0.37538819595E+03  0.15539341193E+04  0.16489780757E+04  0.40000000000E+03 0. -1.
<mgrwt>
<rscale>  2 0.55174038E+03</rscale>
<asrwt>0</asrwt>
<pdfrwt beam="1">  1       21 0.45965670E+00 0.55174038E+03</pdfrwt>
<pdfrwt beam="2">  1       21 0.15756762E-01 0.55174038E+03</pdfrwt>
<totfact> 0.90241569E+01</totfact>
</mgrwt>
</event>
<event>
 4    1  0.4774032E-002  0.4587111E+03  0.7818608E-02  0.1025156E+00
         21   -1    0    0  503  502  0.00000000000E+00  0.00000000000E+00  0.11050243305E+04  0.11050243305E+04  0.00000000000E+00 0. -1.
         21   -1    0    0  501  503 -0.00000000000E+00 -0.00000000000E+00 -0.23679860408E+03  0.23679860408E+03  0.00000000000E+00 0. -1.
    9000005    1    1    2  501    0  0.18537281005E+03 -0.12669945904E+03  0.73103787030E+03  0.86303661535E+03  0.40000000000E+03 0. -1.
   -9000005    1    1    2    0  502 -0.18537281005E+03  0.12669945904E+03  0.13718785614E+03  0.47878631925E+03  0.40000000000E+03 0. -1.
<mgrwt>
<rscale>  2 0.45871105E+03</rscale>
<asrwt>0</asrwt>
<pdfrwt beam="1">  1       21 0.17000374E+00 0.45871105E+03</pdfrwt>
<pdfrwt beam="2">  1       21 0.36430555E-01 0.45871105E+03</pdfrwt>
<totfact> 0.13059826E+03</totfact>
</mgrwt>
</event>
<event>
 4    1  0.4774032E-002  0.4219788E+03  0.7818608E-02  0.1036424E+00
         21   -1    0    0  501  502  0.00000000000E+00  0.00000000000E+00  0.39303340810E+03  0.39303340810E+03  0.00000000000E+00 0. -1.
         21   -1    0    0  502  503 -0.00000000000E+00 -0.00000000000E+00 -0.56887612723E+03  0.56887612723E+03  0.00000000000E+00 0. -1.
    9000005    1    1    2  501    0  0.93985314347E+02 -0.96087622796E+02  0.12909263824E+03  0.44128333281E+03  0.40000000000E+03 0. -1.
   -9000005    1    1    2    0  503 -0.93985314347E+02  0.96087622796E+02 -0.30493535738E+03  0.52062620252E+03  0.40000000000E+03 0. -1.
<mgrwt>
<rscale>  2 0.42197876E+03</rscale>
<asrwt>0</asrwt>
<pdfrwt beam="1">  1       21 0.60466678E-01 0.42197876E+03</pdfrwt>
<pdfrwt beam="2">  1       21 0.87519404E-01 0.42197876E+03</pdfrwt>
<totfact> 0.25021750E+03</totfact>
</mgrwt>
</event>
<event>
 4    1  0.4774032E-002  0.4185231E+03  0.7818608E-02  0.1037548E+00
         21   -1    0    0  503  502  0.00000000000E+00  0.00000000000E+00  0.22231949990E+03  0.22231949990E+03  0.00000000000E+00 0. -1.
         21   -1    0    0  501  503 -0.00000000000E+00 -0.00000000000E+00 -0.81212795868E+03  0.81212795868E+03  0.00000000000E+00 0. -1.
    9000005    1    1    2  501    0 -0.95289897207E+02 -0.77983539907E+02 -0.38427248496E+03  0.56817861602E+03  0.40000000000E+03 0. -1.
   -9000005    1    1    2    0  502  0.95289897207E+02  0.77983539907E+02 -0.20553597383E+03  0.46626884256E+03  0.40000000000E+03 0. -1.
<mgrwt>
<rscale>  2 0.41852311E+03</rscale>
<asrwt>0</asrwt>
<pdfrwt beam="1">  1       21 0.34203000E-01 0.41852311E+03</pdfrwt>
<pdfrwt beam="2">  1       21 0.12494276E+00 0.41852311E+03</pdfrwt>
<totfact> 0.34584647E+03</totfact>
</mgrwt>
</event>
<event>
 4    1  0.4774032E-002  0.4541674E+03  0.7818608E-02  0.1026487E+00
         21   -1    0    0  503  502  0.00000000000E+00  0.00000000000E+00  0.66735537396E+03  0.66735537396E+03  0.00000000000E+00 0.  1.
         21   -1    0    0  501  503 -0.00000000000E+00 -0.00000000000E+00 -0.35407190802E+03  0.35407190802E+03  0.00000000000E+00 0.  1.
    9000005    1    1    2  501    0  0.65435215854E+02  0.20490539067E+03  0.33868976949E+03  0.56654986238E+03  0.40000000000E+03 0. -1.
   -9000005    1    1    2    0  502 -0.65435215854E+02 -0.20490539067E+03 -0.25406303548E+02  0.45487741960E+03  0.40000000000E+03 0. -1.
<mgrwt>
<rscale>  2 0.45416736E+03</rscale>
<asrwt>0</asrwt>
<pdfrwt beam="1">  1       21 0.10267006E+00 0.45416736E+03</pdfrwt>
<pdfrwt beam="2">  1       21 0.54472602E-01 0.45416736E+03</pdfrwt>
<totfact> 0.21153948E+03</totfact>
</mgrwt>
</event>
<event>
 4    1  0.4774032E-002  0.4456468E+03  0.7818608E-02  0.1029028E+00
         21   -1    0    0  501  502  0.00000000000E+00  0.00000000000E+00  0.12200074578E+04  0.12200074578E+04  0.00000000000E+00 0. -1.
         21   -1    0    0  502  503 -0.00000000000E+00 -0.00000000000E+00 -0.36362580776E+03  0.36362580776E+03  0.00000000000E+00 0. -1.
    9000005    1    1    2  501    0 -0.15102407727E+02 -0.19589029257E+03  0.10166567532E+04  0.11100414602E+04  0.40000000000E+03 0. -1.
   -9000005    1    1    2    0  503  0.15102407727E+02  0.19589029257E+03 -0.16027510317E+03  0.47359180540E+03  0.40000000000E+03 0. -1.
<mgrwt>
<rscale>  2 0.44564682E+03</rscale>
<asrwt>0</asrwt>
<pdfrwt beam="1">  1       21 0.18769345E+00 0.44564682E+03</pdfrwt>
<pdfrwt beam="2">  1       21 0.55942432E-01 0.44564682E+03</pdfrwt>
<totfact> 0.40060511E+02</totfact>
</mgrwt>
</event>
<event>
 4    1  0.4774032E-002  0.4088184E+03  0.7818608E-02  0.1040768E+00
         21   -1    0    0  501  502  0.00000000000E+00  0.00000000000E+00  0.23064239331E+03  0.23064239331E+03  0.00000000000E+00 0. -1.
         21   -1    0    0  502  503 -0.00000000000E+00 -0.00000000000E+00 -0.10083451048E+04  0.10083451048E+04  0.00000000000E+00 0. -1.
    9000005    1    1    2  501    0  0.84437847224E+02  0.16571147347E+01 -0.60252084321E+02  0.41323456987E+03  0.40000000000E+03 0. -1.
   -9000005    1    1    2    0  503 -0.84437847224E+02 -0.16571147347E+01 -0.71745062719E+03  0.82575292826E+03  0.40000000000E+03 0. -1.
<mgrwt>
<rscale>  2 0.40881841E+03</rscale>
<asrwt>0</asrwt>
<pdfrwt beam="1">  1       21 0.35483445E-01 0.40881841E+03</pdfrwt>
<pdfrwt beam="2">  1       21 0.15513002E+00 0.40881841E+03</pdfrwt>
<totfact> 0.18184834E+03</totfact>
</mgrwt>
</event>
<event>
 4    1  0.4774032E-002  0.5249228E+03  0.7818608E-02  0.1007471E+00
         21   -1    0    0  501  502  0.00000000000E+00  0.00000000000E+00  0.92640349805E+03  0.92640349805E+03  0.00000000000E+00 0.  1.
         21   -1    0    0  502  503 -0.00000000000E+00 -0.00000000000E+00 -0.67098848582E+03  0.67098848582E+03  0.00000000000E+00 0.  1.
    9000005    1    1    2  501    0 -0.64533094807E+02 -0.33373561062E+03  0.72364525886E+03  0.89398346674E+03  0.40000000000E+03 0.  1.
   -9000005    1    1    2    0  503  0.64533094807E+02  0.33373561062E+03 -0.46823024663E+03  0.70340851714E+03  0.40000000000E+03 0.  1.
<mgrwt>
<rscale>  2 0.52492283E+03</rscale>
<asrwt>0</asrwt>
<pdfrwt beam="1">  1       21 0.14252362E+00 0.52492283E+03</pdfrwt>
<pdfrwt beam="2">  1       21 0.10322900E+00 0.52492283E+03</pdfrwt>
<totfact> 0.20538454E+02</totfact>
</mgrwt>
</event>
<event>
 4    1  0.4774032E-002  0.4817552E+03  0.7818608E-02  0.1018654E+00
         21   -1    0    0  501  502  0.00000000000E+00  0.00000000000E+00  0.12970036122E+04  0.12970036122E+04  0.00000000000E+00 0.  1.
         21   -1    0    0  502  503 -0.00000000000E+00 -0.00000000000E+00 -0.25703371947E+03  0.25703371947E+03  0.00000000000E+00 0. -1.
    9000005    1    1    2  501    0  0.18242754965E+03 -0.19699823988E+03  0.94827653338E+03  0.10636336311E+04  0.40000000000E+03 0.  1.
   -9000005    1    1    2    0  503 -0.18242754965E+03  0.19699823988E+03  0.91693359321E+02  0.49040370057E+03  0.40000000000E+03 0. -1.
<mgrwt>
<rscale>  2 0.48175525E+03</rscale>
<asrwt>0</asrwt>
<pdfrwt beam="1">  1       21 0.19953901E+00 0.48175525E+03</pdfrwt>
<pdfrwt beam="2">  1       21 0.39543650E-01 0.48175525E+03</pdfrwt>
<totfact> 0.68053489E+02</totfact>
</mgrwt>
</event>
<event>
 4    1  0.4774032E-002  0.5089358E+03  0.7818608E-02  0.1011473E+00
         21   -1    0    0  503  502  0.00000000000E+00  0.00000000000E+00  0.16631330675E+04  0.16631330675E+04  0.00000000000E+00 0.  1.
         21   -1    0    0  501  503 -0.00000000000E+00 -0.00000000000E+00 -0.16552038899E+03  0.16552038899E+03  0.00000000000E+00 0.  1.
    9000005    1    1    2  501    0 -0.24444794249E+03 -0.19814344060E+03  0.52654527006E+03  0.73230153698E+03  0.40000000000E+03 0.  1.
   -9000005    1    1    2    0  502  0.24444794249E+03  0.19814344060E+03  0.97106740843E+03  0.10963519195E+04  0.40000000000E+03 0.  1.
<mgrwt>
<rscale>  2 0.50893577E+03</rscale>
<asrwt>0</asrwt>
<pdfrwt beam="1">  1       21 0.25586661E+00 0.50893577E+03</pdfrwt>
<pdfrwt beam="2">  1       21 0.25464676E-01 0.50893577E+03</pdfrwt>
<totfact> 0.71138205E+02</totfact>
</mgrwt>
</event>
<event>
 4    1  0.4774032E-002  0.4833491E+03  0.7818608E-02  0.1018219E+00
         21   -1    0    0  501  502  0.00000000000E+00  0.00000000000E+00  0.48043742717E+03  0.48043742717E+03  0.00000000000E+00 0. -1.
         21   -1    0    0  502  503 -0.00000000000E+00 -0.00000000000E+00 -0.50843153669E+03  0.50843153669E+03  0.00000000000E+00 0.  1.
    9000005    1    1    2  501    0  0.22025274557E+03  0.15847723588E+03 -0.11720446538E+03  0.49735620327E+03  0.40000000000E+03 0.  1.
   -9000005    1    1    2    0  503 -0.22025274557E+03 -0.15847723588E+03  0.89210355858E+02  0.49151276058E+03  0.40000000000E+03 0. -1.
<mgrwt>
<rscale>  2 0.48334905E+03</rscale>
<asrwt>0</asrwt>
<pdfrwt beam="1">  1       21 0.73913451E-01 0.48334905E+03</pdfrwt>
<pdfrwt beam="2">  1       21 0.78220236E-01 0.48334905E+03</pdfrwt>
<totfact> 0.20286894E+03</totfact>
</mgrwt>
</event>
<event>
 4    1  0.4774032E-002  0.4030228E+03  0.7818608E-02  0.1042738E+00
         21   -1    0    0  501  502  0.00000000000E+00  0.00000000000E+00  0.47302052830E+03  0.47302052830E+03  0.00000000000E+00 0. -1.
         21   -1    0    0  502  503 -0.00000000000E+00 -0.00000000000E+00 -0.41373045362E+03  0.41373045362E+03  0.00000000000E+00 0. -1.
    9000005    1    1    2  501    0 -0.34004380647E+02 -0.35652369317E+02  0.21247019040E+03  0.45559957326E+03  0.40000000000E+03 0. -1.
   -9000005    1    1    2    0  503  0.34004380647E+02  0.35652369317E+02 -0.15318011572E+03  0.43115140866E+03  0.40000000000E+03 0. -1.
<mgrwt>
<rscale>  2 0.40302281E+03</rscale>
<asrwt>0</asrwt>
<pdfrwt beam="1">  1       21 0.72772389E-01 0.40302281E+03</pdfrwt>
<pdfrwt beam="2">  1       21 0.63650839E-01 0.40302281E+03</pdfrwt>
<totfact> 0.34451815E+03</totfact>
</mgrwt>
</event>
<event>
 4    1  0.4774032E-002  0.4539477E+03  0.7818608E-02  0.1026551E+00
         21   -1    0    0  503  502  0.00000000000E+00  0.00000000000E+00  0.10954832182E+04  0.10954832182E+04  0.00000000000E+00 0.  1.
         21   -1    0    0  501  503 -0.00000000000E+00 -0.00000000000E+00 -0.26855741208E+03  0.26855741208E+03  0.00000000000E+00 0.  1.
    9000005    1    1    2  501    0 -0.53397852537E+01  0.21456936828E+03  0.40176879730E+02  0.45572218376E+03  0.40000000000E+03 0.  1.
   -9000005    1    1    2    0  502  0.53397852537E+01 -0.21456936828E+03  0.78674892639E+03  0.90831844652E+03  0.40000000000E+03 0.  1.
<mgrwt>
<rscale>  2 0.45394771E+03</rscale>
<asrwt>0</asrwt>
<pdfrwt beam="1">  1       21 0.16853588E+00 0.45394771E+03</pdfrwt>
<pdfrwt beam="2">  1       21 0.41316525E-01 0.45394771E+03</pdfrwt>
<totfact> 0.10360367E+03</totfact>
</mgrwt>
</event>
<event>
 4    1  0.4774032E-002  0.4867369E+03  0.7818608E-02  0.1017300E+00
         21   -1    0    0  503  502  0.00000000000E+00  0.00000000000E+00  0.19002563175E+03  0.19002563175E+03  0.00000000000E+00 0.  1.
         21   -1    0    0  501  503 -0.00000000000E+00 -0.00000000000E+00 -0.34593247351E+04  0.34593247351E+04  0.00000000000E+00 0.  1.
    9000005    1    1    2  501    0 -0.18354341688E+03  0.20790535137E+03 -0.30939332079E+04  0.31319858742E+04  0.40000000000E+03 0.  1.
   -9000005    1    1    2    0  502  0.18354341688E+03 -0.20790535137E+03 -0.17536589545E+03  0.51736449269E+03  0.40000000000E+03 0.  1.
<mgrwt>
<rscale>  2 0.48673691E+03</rscale>
<asrwt>0</asrwt>
<pdfrwt beam="1">  1       21 0.29234713E-01 0.48673691E+03</pdfrwt>
<pdfrwt beam="2">  1       21 0.53220379E+00 0.48673691E+03</pdfrwt>
<totfact> 0.87244356E+00</totfact>
</mgrwt>
</event>
<event>
 4    1  0.4774032E-002  0.4573348E+03  0.7818608E-02  0.1025557E+00
         21   -1    0    0  501  502  0.00000000000E+00  0.00000000000E+00  0.21666978638E+03  0.21666978638E+03  0.00000000000E+00 0.  1.
         21   -1    0    0  502  503 -0.00000000000E+00 -0.00000000000E+00 -0.11978448831E+04  0.11978448831E+04  0.00000000000E+00 0.  1.
    9000005    1    1    2  501    0 -0.20639232038E+03 -0.80977288328E+02 -0.17897543592E+03  0.49110825467E+03  0.40000000000E+03 0.  1.
   -9000005    1    1    2    0  503  0.20639232038E+03  0.80977288328E+02 -0.80219966083E+03  0.92340641484E+03  0.40000000000E+03 0.  1.
<mgrwt>
<rscale>  2 0.45733479E+03</rscale>
<asrwt>0</asrwt>
<pdfrwt beam="1">  1       21 0.33333813E-01 0.45733479E+03</pdfrwt>
<pdfrwt beam="2">  1       21 0.18428383E+00 0.45733479E+03</pdfrwt>
<totfact> 0.12376372E+03</totfact>
</mgrwt>
</event>
<event>
 4    1  0.4774032E-002  0.4177635E+03  0.7818608E-02  0.1037797E+00
         21   -1    0    0  503  502  0.00000000000E+00  0.00000000000E+00  0.59714246755E+03  0.59714246755E+03  0.00000000000E+00 0. -1.
         21   -1    0    0  501  503 -0.00000000000E+00 -0.00000000000E+00 -0.42471296671E+03  0.42471296671E+03  0.00000000000E+00 0. -1.
    9000005    1    1    2  501    0  0.11132954342E+03  0.46174778992E+02 -0.19910208139E+03  0.46278290403E+03  0.40000000000E+03 0. -1.
   -9000005    1    1    2    0  502 -0.11132954342E+03 -0.46174778992E+02  0.37153158223E+03  0.55907253022E+03  0.40000000000E+03 0. -1.
<mgrwt>
<rscale>  2 0.41776354E+03</rscale>
<asrwt>0</asrwt>
<pdfrwt beam="1">  1       21 0.91868072E-01 0.41776354E+03</pdfrwt>
<pdfrwt beam="2">  1       21 0.65340457E-01 0.41776354E+03</pdfrwt>
<totfact> 0.18837570E+03</totfact>
</mgrwt>
</event>
<event>
 4    1  0.4774032E-002  0.7669120E+03  0.7818608E-02  0.9609185E-01
         21   -1    0    0  501  502  0.00000000000E+00  0.00000000000E+00  0.12763318175E+04  0.12763318175E+04  0.00000000000E+00 0.  1.
         21   -1    0    0  502  503 -0.00000000000E+00 -0.00000000000E+00 -0.11418697057E+04  0.11418697057E+04  0.00000000000E+00 0. -1.
    9000005    1    1    2  501    0  0.54585900327E+03  0.36082124299E+03  0.10010118235E+04  0.12610228751E+04  0.40000000000E+03 0.  1.
   -9000005    1    1    2    0  503 -0.54585900327E+03 -0.36082124299E+03 -0.86654971164E+03  0.11571786481E+04  0.40000000000E+03 0. -1.
<mgrwt>
<rscale>  2 0.76691200E+03</rscale>
<asrwt>0</asrwt>
<pdfrwt beam="1">  1       21 0.19635874E+00 0.76691200E+03</pdfrwt>
<pdfrwt beam="2">  1       21 0.17567226E+00 0.76691200E+03</pdfrwt>
<totfact> 0.17945410E+01</totfact>
</mgrwt>
</event>
<event>
 4    1  0.4774032E-002  0.4141927E+03  0.7818608E-02  0.1038973E+00
         21   -1    0    0  501  502  0.00000000000E+00  0.00000000000E+00  0.46856922220E+03  0.46856922220E+03  0.00000000000E+00 0. -1.
         21   -1    0    0  502  503 -0.00000000000E+00 -0.00000000000E+00 -0.48807713324E+03  0.48807713324E+03  0.00000000000E+00 0. -1.
    9000005    1    1    2  501    0 -0.80919571814E+02 -0.70764578345E+02  0.22934035972E+03  0.47344757181E+03  0.40000000000E+03 0. -1.
   -9000005    1    1    2    0  503  0.80919571814E+02  0.70764578345E+02 -0.24884827076E+03  0.48319878364E+03  0.40000000000E+03 0. -1.
<mgrwt>
<rscale>  2 0.41419271E+03</rscale>
<asrwt>0</asrwt>
<pdfrwt beam="1">  1       21 0.72087572E-01 0.41419271E+03</pdfrwt>
<pdfrwt beam="2">  1       21 0.75088790E-01 0.41419271E+03</pdfrwt>
<totfact> 0.24191014E+03</totfact>
</mgrwt>
</event>
<event>
 4    1  0.4774032E-002  0.5108510E+03  0.7818608E-02  0.1010985E+00
         21   -1    0    0  501  502  0.00000000000E+00  0.00000000000E+00  0.28274797537E+03  0.28274797537E+03  0.00000000000E+00 0. -1.
         21   -1    0    0  502  503 -0.00000000000E+00 -0.00000000000E+00 -0.10988923817E+04  0.10988923817E+04  0.00000000000E+00 0. -1.
    9000005    1    1    2  501    0  0.18410079326E+03  0.25898972633E+03 -0.13166832471E+03  0.52754651753E+03  0.40000000000E+03 0. -1.
   -9000005    1    1    2    0  503 -0.18410079326E+03 -0.25898972633E+03 -0.68447608164E+03  0.85409383955E+03  0.40000000000E+03 0. -1.
<mgrwt>
<rscale>  2 0.51085104E+03</rscale>
<asrwt>0</asrwt>
<pdfrwt beam="1">  1       21 0.43499689E-01 0.51085104E+03</pdfrwt>
<pdfrwt beam="2">  1       21 0.16906036E+00 0.51085104E+03</pdfrwt>
<totfact> 0.90127774E+02</totfact>
</mgrwt>
</event>
<event>
 4    1  0.4774032E-002  0.5132776E+03  0.7818608E-02  0.1010370E+00
         21   -1    0    0  501  502  0.00000000000E+00  0.00000000000E+00  0.15715287171E+04  0.15715287171E+04  0.00000000000E+00 0.  1.
         21   -1    0    0  502  503 -0.00000000000E+00 -0.00000000000E+00 -0.17981225898E+03  0.17981225898E+03  0.00000000000E+00 0.  1.
    9000005    1    1    2  501    0  0.27545750658E+03  0.16606326402E+03  0.92367473869E+03  0.10567066142E+04  0.40000000000E+03 0.  1.
   -9000005    1    1    2    0  503 -0.27545750658E+03 -0.16606326402E+03  0.46804171943E+03  0.69463436189E+03  0.40000000000E+03 0.  1.
<mgrwt>
<rscale>  2 0.51327755E+03</rscale>
<asrwt>0</asrwt>
<pdfrwt beam="1">  1       21 0.24177364E+00 0.51327755E+03</pdfrwt>
<pdfrwt beam="2">  1       21 0.27663426E-01 0.51327755E+03</pdfrwt>
<totfact> 0.73761997E+02</totfact>
</mgrwt>
</event>
<event>
 4    1  0.4774032E-002  0.4020583E+03  0.7818608E-02  0.1043069E+00
         21   -1    0    0  501  502  0.00000000000E+00  0.00000000000E+00  0.57307209589E+03  0.57307209589E+03  0.00000000000E+00 0.  1.
         21   -1    0    0  502  503 -0.00000000000E+00 -0.00000000000E+00 -0.30238225485E+03  0.30238225485E+03  0.00000000000E+00 0.  1.
    9000005    1    1    2  501    0  0.13527556713E+02  0.38313413282E+02  0.21916706614E+02  0.40265525510E+03  0.40000000000E+03 0.  1.
   -9000005    1    1    2    0  503 -0.13527556713E+02 -0.38313413282E+02  0.24877313443E+03  0.47279909564E+03  0.40000000000E+03 0.  1.
<mgrwt>
<rscale>  2 0.40205834E+03</rscale>
<asrwt>0</asrwt>
<pdfrwt beam="1">  1       21 0.88164937E-01 0.40205834E+03</pdfrwt>
<pdfrwt beam="2">  1       21 0.46520347E-01 0.40205834E+03</pdfrwt>
<totfact> 0.43473553E+03</totfact>
</mgrwt>
</event>
<event>
 4    1  0.4774032E-002  0.5175727E+03  0.7818608E-02  0.1009291E+00
         21   -1    0    0  503  502  0.00000000000E+00  0.00000000000E+00  0.51852897570E+03  0.51852897570E+03  0.00000000000E+00 0. -1.
         21   -1    0    0  501  503 -0.00000000000E+00 -0.00000000000E+00 -0.59527589669E+03  0.59527589669E+03  0.00000000000E+00 0.  1.
    9000005    1    1    2  501    0 -0.32675244911E+03 -0.33381420068E+02 -0.24081084069E+03  0.57085141955E+03  0.40000000000E+03 0.  1.
   -9000005    1    1    2    0  502  0.32675244911E+03  0.33381420068E+02  0.16406391970E+03  0.54295345284E+03  0.40000000000E+03 0. -1.
<mgrwt>
<rscale>  2 0.51757268E+03</rscale>
<asrwt>0</asrwt>
<pdfrwt beam="1">  1       21 0.79773690E-01 0.51757268E+03</pdfrwt>
<pdfrwt beam="2">  1       21 0.91580906E-01 0.51757268E+03</pdfrwt>
<totfact> 0.11625641E+03</totfact>
</mgrwt>
</event>
<event>
 4    1  0.4774032E-002  0.4210124E+03  0.7818608E-02  0.1036737E+00
         21   -1    0    0  503  502  0.00000000000E+00  0.00000000000E+00  0.67200175176E+03  0.67200175176E+03  0.00000000000E+00 0.  1.
         21   -1    0    0  501  503 -0.00000000000E+00 -0.00000000000E+00 -0.30669118686E+03  0.30669118686E+03  0.00000000000E+00 0.  1.
    9000005    1    1    2  501    0 -0.12550723184E+03 -0.38721840339E+02 -0.41597348471E+00  0.42101261168E+03  0.40000000000E+03 0.  1.
   -9000005    1    1    2    0  502  0.12550723184E+03  0.38721840339E+02  0.36572653838E+03  0.55768032693E+03  0.40000000000E+03 0.  1.
<mgrwt>
<rscale>  2 0.42101241E+03</rscale>
<asrwt>0</asrwt>
<pdfrwt beam="1">  1       21 0.10338488E+00 0.42101241E+03</pdfrwt>
<pdfrwt beam="2">  1       21 0.47183260E-01 0.42101241E+03</pdfrwt>
<totfact> 0.28600998E+03</totfact>
</mgrwt>
</event>
<event>
 4    1  0.4774032E-002  0.5034095E+03  0.7818608E-02  0.1012893E+00
         21   -1    0    0  503  502  0.00000000000E+00  0.00000000000E+00  0.65677289055E+03  0.65677289055E+03  0.00000000000E+00 0.  1.
         21   -1    0    0  501  503 -0.00000000000E+00 -0.00000000000E+00 -0.38596564049E+03  0.38596564049E+03  0.00000000000E+00 0.  1.
    9000005    1    1    2  501    0 -0.97930671722E+02  0.28953531443E+03  0.12669932782E+03  0.51910869231E+03  0.40000000000E+03 0.  1.
   -9000005    1    1    2    0  502  0.97930671722E+02 -0.28953531443E+03  0.14410792224E+03  0.52362983874E+03  0.40000000000E+03 0.  1.
<mgrwt>
<rscale>  2 0.50340949E+03</rscale>
<asrwt>0</asrwt>
<pdfrwt beam="1">  1       21 0.10104198E+00 0.50340949E+03</pdfrwt>
<pdfrwt beam="2">  1       21 0.59379329E-01 0.50340949E+03</pdfrwt>
<totfact> 0.17919689E+03</totfact>
</mgrwt>
</event>
<event>
 4    1  0.4774032E-002  0.4046745E+03  0.7818608E-02  0.1042173E+00
         21   -1    0    0  503  502  0.00000000000E+00  0.00000000000E+00  0.12218147396E+03  0.12218147396E+03  0.00000000000E+00 0. -1.
         21   -1    0    0  501  503 -0.00000000000E+00 -0.00000000000E+00 -0.17466577773E+04  0.17466577773E+04  0.00000000000E+00 0. -1.
    9000005    1    1    2  501    0 -0.49240218637E+02  0.36563346161E+02 -0.12629356227E+04  0.13261854563E+04  0.40000000000E+03 0. -1.
   -9000005    1    1    2    0  502  0.49240218637E+02 -0.36563346161E+02 -0.36154068057E+03  0.54265379490E+03  0.40000000000E+03 0. -1.
<mgrwt>
<rscale>  2 0.40467453E+03</rscale>
<asrwt>0</asrwt>
<pdfrwt beam="1">  1       21 0.18797151E-01 0.40467453E+03</pdfrwt>
<pdfrwt beam="2">  1       21 0.26871657E+00 0.40467453E+03</pdfrwt>
<totfact> 0.11223014E+03</totfact>
</mgrwt>
</event>
<event>
 4    1  0.4774032E-002  0.4351897E+03  0.7818608E-02  0.1032233E+00
         21   -1    0    0  501  502  0.00000000000E+00  0.00000000000E+00  0.51353341760E+03  0.51353341760E+03  0.00000000000E+00 0. -1.
         21   -1    0    0  502  503 -0.00000000000E+00 -0.00000000000E+00 -0.54510630386E+03  0.54510630386E+03  0.00000000000E+00 0. -1.
    9000005    1    1    2  501    0  0.11997145468E+03  0.12246181343E+03  0.28524654874E+03  0.52034184846E+03  0.40000000000E+03 0. -1.
   -9000005    1    1    2    0  503 -0.11997145468E+03 -0.12246181343E+03 -0.31681943500E+03  0.53829787300E+03  0.40000000000E+03 0. -1.
<mgrwt>
<rscale>  2 0.43518967E+03</rscale>
<asrwt>0</asrwt>
<pdfrwt beam="1">  1       21 0.79005141E-01 0.43518967E+03</pdfrwt>
<pdfrwt beam="2">  1       21 0.83862508E-01 0.43518967E+03</pdfrwt>
<totfact> 0.15090344E+03</totfact>
</mgrwt>
</event>
<event>
 4    1  0.4774032E-002  0.5487527E+03  0.7818608E-02  0.1001783E+00
         21   -1    0    0  501  502  0.00000000000E+00  0.00000000000E+00  0.40874456683E+03  0.40874456683E+03  0.00000000000E+00 0.  1.
         21   -1    0    0  502  503 -0.00000000000E+00 -0.00000000000E+00 -0.83318077002E+03  0.83318077002E+03  0.00000000000E+00 0. -1.
    9000005    1    1    2  501    0 -0.24303671540E+03  0.28646579139E+03 -0.42350650203E+03  0.69317187763E+03  0.40000000000E+03 0.  1.
   -9000005    1    1    2    0  503  0.24303671540E+03 -0.28646579139E+03 -0.92970116209E+00  0.54875345923E+03  0.40000000000E+03 0. -1.
<mgrwt>
<rscale>  2 0.54875267E+03</rscale>
<asrwt>0</asrwt>
<pdfrwt beam="1">  1       21 0.62883780E-01 0.54875267E+03</pdfrwt>
<pdfrwt beam="2">  1       21 0.12818166E+00 0.54875267E+03</pdfrwt>
<totfact> 0.85410184E+02</totfact>
</mgrwt>
</event>
<event>
 4    1  0.4774032E-002  0.4255514E+03  0.7818608E-02  0.1035275E+00
         21   -1    0    0  503  502  0.00000000000E+00  0.00000000000E+00  0.15111784091E+04  0.15111784091E+04  0.00000000000E+00 0.  1.
         21   -1    0    0  501  503 -0.00000000000E+00 -0.00000000000E+00 -0.23145225455E+03  0.23145225455E+03  0.00000000000E+00 0. -1.
    9000005    1    1    2  501    0 -0.51843672270E+02 -0.13566947903E+03  0.34789959766E+02  0.42697109410E+03  0.40000000000E+03 0. -1.
   -9000005    1    1    2    0  502  0.51843672270E+02  0.13566947903E+03  0.12449361948E+04  0.13156595696E+04  0.40000000000E+03 0.  1.
<mgrwt>
<rscale>  2 0.42555138E+03</rscale>
<asrwt>0</asrwt>
<pdfrwt beam="1">  1       21 0.23248898E+00 0.42555138E+03</pdfrwt>
<pdfrwt beam="2">  1       21 0.35608040E-01 0.42555138E+03</pdfrwt>
<totfact> 0.53110724E+02</totfact>
</mgrwt>
</event>
<event>
 4    1  0.4774032E-002  0.4561842E+03  0.7818608E-02  0.1025894E+00
         21   -1    0    0  503  502  0.00000000000E+00  0.00000000000E+00  0.27282584542E+03  0.27282584542E+03  0.00000000000E+00 0. -1.
         21   -1    0    0  501  503 -0.00000000000E+00 -0.00000000000E+00 -0.13511763614E+04  0.13511763614E+04  0.00000000000E+00 0.  1.
    9000005    1    1    2  501    0  0.57797856828E+01 -0.21925020564E+03 -0.10750192287E+04  0.11678058061E+04  0.40000000000E+03 0.  1.
   -9000005    1    1    2    0  502 -0.57797856828E+01  0.21925020564E+03 -0.33312872850E+01  0.45619640077E+03  0.40000000000E+03 0. -1.
<mgrwt>
<rscale>  2 0.45618424E+03</rscale>
<asrwt>0</asrwt>
<pdfrwt beam="1">  1       21 0.41973208E-01 0.45618424E+03</pdfrwt>
<pdfrwt beam="2">  1       21 0.20787328E+00 0.45618424E+03</pdfrwt>
<totfact> 0.53620205E+02</totfact>
</mgrwt>
</event>
<event>
 4    1  0.4774032E-002  0.5456906E+03  0.7818608E-02  0.1002496E+00
         21   -1    0    0  503  502  0.00000000000E+00  0.00000000000E+00  0.36388307529E+04  0.36388307529E+04  0.00000000000E+00 0.  1.
         21   -1    0    0  501  503 -0.00000000000E+00 -0.00000000000E+00 -0.83660095650E+02  0.83660095650E+02  0.00000000000E+00 0.  1.
    9000005    1    1    2  501    0  0.13978247764E+03 -0.34385907276E+03  0.20526073186E+04  0.21239056023E+04  0.40000000000E+03 0.  1.
   -9000005    1    1    2    0  502 -0.13978247764E+03  0.34385907276E+03  0.15025633387E+04  0.15985852463E+04  0.40000000000E+03 0.  1.
<mgrwt>
<rscale>  2 0.54569057E+03</rscale>
<asrwt>0</asrwt>
<pdfrwt beam="1">  1       21 0.55981999E+00 0.54569057E+03</pdfrwt>
<pdfrwt beam="2">  1       21 0.12870787E-01 0.54569057E+03</pdfrwt>
<totfact> 0.24934693E+01</totfact>
</mgrwt>
</event>
<event>
 4    1  0.4774032E-002  0.4394596E+03  0.7818608E-02  0.1030913E+00
         21   -1    0    0  503  502  0.00000000000E+00  0.00000000000E+00  0.18358594085E+04  0.18358594085E+04  0.00000000000E+00 0. -1.
         21   -1    0    0  501  503 -0.00000000000E+00 -0.00000000000E+00 -0.11916852014E+03  0.11916852014E+03  0.00000000000E+00 0. -1.
    9000005    1    1    2  501    0 -0.17516990483E+03 -0.49398910811E+02  0.11930659078E+04  0.12714287272E+04  0.40000000000E+03 0. -1.
   -9000005    1    1    2    0  502  0.17516990483E+03  0.49398910811E+02  0.52362498051E+03  0.68359920141E+03  0.40000000000E+03 0. -1.
<mgrwt>
<rscale>  2 0.43945961E+03</rscale>
<asrwt>0</asrwt>
<pdfrwt beam="1">  1       21 0.28243989E+00 0.43945961E+03</pdfrwt>
<pdfrwt beam="2">  1       21 0.18333620E-01 0.43945961E+03</pdfrwt>
<totfact> 0.95421399E+02</totfact>
</mgrwt>
</event>
<event>
 4    1  0.4774032E-002  0.4118896E+03  0.7818608E-02  0.1039739E+00
         21   -1    0    0  501  502  0.00000000000E+00  0.00000000000E+00  0.24022541556E+03  0.24022541556E+03  0.00000000000E+00 0.  1.
         21   -1    0    0  502  503 -0.00000000000E+00 -0.00000000000E+00 -0.76814947045E+03  0.76814947045E+03  0.00000000000E+00 0.  1.
    9000005    1    1    2  501    0  0.52308174197E+02 -0.83167755620E+02 -0.12080824095E+03  0.42924078527E+03  0.40000000000E+03 0.  1.
   -9000005    1    1    2    0  503 -0.52308174197E+02  0.83167755620E+02 -0.40711581394E+03  0.57913410073E+03  0.40000000000E+03 0.  1.
<mgrwt>
<rscale>  2 0.41188957E+03</rscale>
<asrwt>0</asrwt>
<pdfrwt beam="1">  1       21 0.36957756E-01 0.41188957E+03</pdfrwt>
<pdfrwt beam="2">  1       21 0.11817684E+00 0.41188957E+03</pdfrwt>
<totfact> 0.34159393E+03</totfact>
</mgrwt>
</event>
<event>
 4    1  0.4774032E-002  0.5134056E+03  0.7818608E-02  0.1010338E+00
         21   -1    0    0  501  502  0.00000000000E+00  0.00000000000E+00  0.20666226739E+03  0.20666226739E+03  0.00000000000E+00 0.  1.
         21   -1    0    0  502  503 -0.00000000000E+00 -0.00000000000E+00 -0.17018399808E+04  0.17018399808E+04  0.00000000000E+00 0.  1.
    9000005    1    1    2  501    0 -0.32182242037E+03 -0.39521245575E+01 -0.12252412830E+04  0.13284583136E+04  0.40000000000E+03 0.  1.
   -9000005    1    1    2    0  503  0.32182242037E+03  0.39521245575E+01 -0.26993643045E+03  0.58004393457E+03  0.40000000000E+03 0.  1.
<mgrwt>
<rscale>  2 0.51340558E+03</rscale>
<asrwt>0</asrwt>
<pdfrwt beam="1">  1       21 0.31794196E-01 0.51340558E+03</pdfrwt>
<pdfrwt beam="2">  1       21 0.26182153E+00 0.51340558E+03</pdfrwt>
<totfact> 0.42054925E+02</totfact>
</mgrwt>
</event>
<event>
 4    1  0.4774032E-002  0.4191901E+03  0.7818608E-02  0.1037330E+00
         21   -1    0    0  503  502  0.00000000000E+00  0.00000000000E+00  0.19056643914E+04  0.19056643914E+04  0.00000000000E+00 0. -1.
         21   -1    0    0  501  503 -0.00000000000E+00 -0.00000000000E+00 -0.10971446586E+03  0.10971446586E+03  0.00000000000E+00 0. -1.
    9000005    1    1    2  501    0 -0.32106326591E+02 -0.12120020964E+03  0.49546582939E+03  0.64900438760E+03  0.40000000000E+03 0.  1.
   -9000005    1    1    2    0  502  0.32106326591E+02  0.12120020964E+03  0.13004840961E+04  0.13663744696E+04  0.40000000000E+03 0.  1.
<mgrwt>
<rscale>  2 0.41919006E+03</rscale>
<asrwt>0</asrwt>
<pdfrwt beam="1">  1       21 0.29317911E+00 0.41919006E+03</pdfrwt>
<pdfrwt beam="2">  1       21 0.16879150E-01 0.41919006E+03</pdfrwt>
<totfact> 0.97147380E+02</totfact>
</mgrwt>
</event>
<event>
 4    1  0.4774032E-002  0.4305201E+03  0.7818608E-02  0.1033696E+00
         21   -1    0    0  501  502  0.00000000000E+00  0.00000000000E+00  0.10206110395E+04  0.10206110395E+04  0.00000000000E+00 0.  1.
         21   -1    0    0  502  503 -0.00000000000E+00 -0.00000000000E+00 -0.41001606382E+03  0.41001606382E+03  0.00000000000E+00 0. -1.
    9000005    1    1    2  501    0  0.76478732188E+02  0.13963710293E+03  0.83919155908E+03  0.94318078321E+03  0.40000000000E+03 0.  1.
   -9000005    1    1    2    0  503 -0.76478732188E+02 -0.13963710293E+03 -0.22859658344E+03  0.48744632007E+03  0.40000000000E+03 0. -1.
<mgrwt>
<rscale>  2 0.43052005E+03</rscale>
<asrwt>0</asrwt>
<pdfrwt beam="1">  1       21 0.15701708E+00 0.43052005E+03</pdfrwt>
<pdfrwt beam="2">  1       21 0.63079395E-01 0.43052005E+03</pdfrwt>
<totfact> 0.51732911E+02</totfact>
</mgrwt>
</event>
<event>
 4    1  0.4774032E-002  0.4423600E+03  0.7818608E-02  0.1030025E+00
         21   -1    0    0  503  502  0.00000000000E+00  0.00000000000E+00  0.84227920328E+03  0.84227920328E+03  0.00000000000E+00 0. -1.
         21   -1    0    0  501  503 -0.00000000000E+00 -0.00000000000E+00 -0.31272499303E+03  0.31272499303E+03  0.00000000000E+00 0. -1.
    9000005    1    1    2  501    0  0.21430377806E+01  0.18888551692E+03 -0.28042984182E+02  0.44324794424E+03  0.40000000000E+03 0. -1.
   -9000005    1    1    2    0  502 -0.21430377806E+01 -0.18888551692E+03  0.55759719444E+03  0.71175625207E+03  0.40000000000E+03 0. -1.
<mgrwt>
<rscale>  2 0.44235996E+03</rscale>
<asrwt>0</asrwt>
<pdfrwt beam="1">  1       21 0.12958142E+00 0.44235996E+03</pdfrwt>
<pdfrwt beam="2">  1       21 0.48111538E-01 0.44235996E+03</pdfrwt>
<totfact> 0.15426826E+03</totfact>
</mgrwt>
</event>
<event>
 4    1  0.4774032E-002  0.5303984E+03  0.7818608E-02  0.1006136E+00
         21   -1    0    0  503  502  0.00000000000E+00  0.00000000000E+00  0.12339073648E+04  0.12339073648E+04  0.00000000000E+00 0. -1.
         21   -1    0    0  501  503 -0.00000000000E+00 -0.00000000000E+00 -0.27525127122E+03  0.27525127122E+03  0.00000000000E+00 0. -1.
    9000005    1    1    2  501    0 -0.33118749464E+03 -0.10787634835E+03  0.16666372836E+03  0.55596696079E+03  0.40000000000E+03 0. -1.
   -9000005    1    1    2    0  502  0.33118749464E+03  0.10787634835E+03  0.79199236521E+03  0.95319167521E+03  0.40000000000E+03 0. -1.
<mgrwt>
<rscale>  2 0.53039840E+03</rscale>
<asrwt>0</asrwt>
<pdfrwt beam="1">  1       21 0.18983190E+00 0.53039840E+03</pdfrwt>
<pdfrwt beam="2">  1       21 0.42346350E-01 0.53039840E+03</pdfrwt>
<totfact> 0.67357809E+02</totfact>
</mgrwt>
</event>
<event>
 4    1  0.4774032E-002  0.4473367E+03  0.7818608E-02  0.1028519E+00
         21   -1    0    0  501  502  0.00000000000E+00  0.00000000000E+00  0.88541764779E+03  0.88541764779E+03  0.00000000000E+00 0. -1.
         21   -1    0    0  502  503 -0.00000000000E+00 -0.00000000000E+00 -0.37980514329E+03  0.37980514329E+03  0.00000000000E+00 0.  1.
    9000005    1    1    2  501    0  0.15633372418E+03  0.12517952486E+03  0.65536830798E+03  0.79348457191E+03  0.40000000000E+03 0. -1.
   -9000005    1    1    2    0  503 -0.15633372418E+03 -0.12517952486E+03 -0.14975580348E+03  0.47173821918E+03  0.40000000000E+03 0.  1.
<mgrwt>
<rscale>  2 0.44733673E+03</rscale>
<asrwt>0</asrwt>
<pdfrwt beam="1">  1       21 0.13621810E+00 0.44733673E+03</pdfrwt>
<pdfrwt beam="2">  1       21 0.58431561E-01 0.44733673E+03</pdfrwt>
<totfact> 0.89057784E+02</totfact>
</mgrwt>
</event>
<event>
 4    1  0.4774032E-002  0.4057382E+03  0.7818608E-02  0.1041811E+00
         21   -1    0    0  501  502  0.00000000000E+00  0.00000000000E+00  0.22749073808E+03  0.22749073808E+03  0.00000000000E+00 0.  1.
         21   -1    0    0  502  503 -0.00000000000E+00 -0.00000000000E+00 -0.13180728235E+04  0.13180728235E+04  0.00000000000E+00 0.  1.
    9000005    1    1    2  501    0  0.46172490539E+02  0.49916187053E+02 -0.26329534006E+02  0.40659164892E+03  0.40000000000E+03 0.  1.
   -9000005    1    1    2    0  503 -0.46172490539E+02 -0.49916187053E+02 -0.10642525514E+04  0.11389719126E+04  0.40000000000E+03 0.  1.
<mgrwt>
<rscale>  2 0.40573825E+03</rscale>
<asrwt>0</asrwt>
<pdfrwt beam="1">  1       21 0.34998575E-01 0.40573825E+03</pdfrwt>
<pdfrwt beam="2">  1       21 0.20278043E+00 0.40573825E+03</pdfrwt>
<totfact> 0.86157670E+02</totfact>
</mgrwt>
</event>
<event>
 4    1  0.4774032E-002  0.4566689E+03  0.7818608E-02  0.1025752E+00
         21   -1    0    0  503  502  0.00000000000E+00  0.00000000000E+00  0.68806889601E+03  0.68806889601E+03  0.00000000000E+00 0.  1.
         21   -1    0    0  501  503 -0.00000000000E+00 -0.00000000000E+00 -0.66280026379E+03  0.66280026379E+03  0.00000000000E+00 0.  1.
    9000005    1    1    2  501    0 -0.18377085999E+03  0.12155147766E+03 -0.48495224545E+03  0.66612699320E+03  0.40000000000E+03 0.  1.
   -9000005    1    1    2    0  502  0.18377085999E+03 -0.12155147766E+03  0.51022087767E+03  0.68474216659E+03  0.40000000000E+03 0.  1.
<mgrwt>
<rscale>  2 0.45666891E+03</rscale>
<asrwt>0</asrwt>
<pdfrwt beam="1">  1       21 0.10585675E+00 0.45666891E+03</pdfrwt>
<pdfrwt beam="2">  1       21 0.10196927E+00 0.45666891E+03</pdfrwt>
<totfact> 0.46769718E+02</totfact>
</mgrwt>
</event>
<event>
 4    1  0.4774032E-002  0.4850364E+03  0.7818608E-02  0.1017760E+00
         21   -1    0    0  501  502  0.00000000000E+00  0.00000000000E+00  0.24027539800E+03  0.24027539800E+03  0.00000000000E+00 0. -1.
         21   -1    0    0  502  503 -0.00000000000E+00 -0.00000000000E+00 -0.10018776071E+04  0.10018776071E+04  0.00000000000E+00 0. -1.
    9000005    1    1    2  501    0 -0.53928240575E+01 -0.27428305116E+03 -0.28721130970E+03  0.56369372103E+03  0.40000000000E+03 0. -1.
   -9000005    1    1    2    0  503  0.53928240575E+01  0.27428305116E+03 -0.47439089937E+03  0.67845928405E+03  0.40000000000E+03 0. -1.
<mgrwt>
<rscale>  2 0.48503636E+03</rscale>
<asrwt>0</asrwt>
<pdfrwt beam="1">  1       21 0.36965446E-01 0.48503636E+03</pdfrwt>
<pdfrwt beam="2">  1       21 0.15413502E+00 0.48503636E+03</pdfrwt>
<totfact> 0.16508551E+03</totfact>
</mgrwt>
</event>
<event>
 4    1  0.4774032E-002  0.4409139E+03  0.7818608E-02  0.1030467E+00
         21   -1    0    0  503  502  0.00000000000E+00  0.00000000000E+00  0.81622849544E+03  0.81622849544E+03  0.00000000000E+00 0.  1.
         21   -1    0    0  501  503 -0.00000000000E+00 -0.00000000000E+00 -0.39566142820E+03  0.39566142820E+03  0.00000000000E+00 0.  1.
    9000005    1    1    2  501    0 -0.12395619809E+03  0.13798533547E+03 -0.17200661620E+03  0.47327726321E+03  0.40000000000E+03 0.  1.
   -9000005    1    1    2    0  502  0.12395619809E+03 -0.13798533547E+03  0.59257368344E+03  0.73861266044E+03  0.40000000000E+03 0.  1.
<mgrwt>
<rscale>  2 0.44091393E+03</rscale>
<asrwt>0</asrwt>
<pdfrwt beam="1">  1       21 0.12557361E+00 0.44091393E+03</pdfrwt>
<pdfrwt beam="2">  1       21 0.60870989E-01 0.44091393E+03</pdfrwt>
<totfact> 0.10087081E+03</totfact>
</mgrwt>
</event>
<event>
 4    1  0.4774032E-002  0.5489094E+03  0.7818608E-02  0.1001747E+00
         21   -1    0    0  501  502  0.00000000000E+00  0.00000000000E+00  0.70853639094E+03  0.70853639094E+03  0.00000000000E+00 0.  1.
         21   -1    0    0  502  503 -0.00000000000E+00 -0.00000000000E+00 -0.42860738344E+03  0.42860738344E+03  0.00000000000E+00 0.  1.
    9000005    1    1    2  501    0  0.23023907604E+03  0.29713892852E+03  0.19032356079E+03  0.58096870206E+03  0.40000000000E+03 0.  1.
   -9000005    1    1    2    0  503 -0.23023907604E+03 -0.29713892852E+03  0.89605446712E+02  0.55617507231E+03  0.40000000000E+03 0.  1.
<mgrwt>
<rscale>  2 0.54890944E+03</rscale>
<asrwt>0</asrwt>
<pdfrwt beam="1">  1       21 0.10900560E+00 0.54890944E+03</pdfrwt>
<pdfrwt beam="2">  1       21 0.65939598E-01 0.54890944E+03</pdfrwt>
<totfact> 0.11602046E+03</totfact>
</mgrwt>
</event>
<event>
 4    1  0.4774032E-002  0.4108025E+03  0.7818608E-02  0.1040102E+00
         21   -1    0    0  501  502  0.00000000000E+00  0.00000000000E+00  0.44391523568E+03  0.44391523568E+03  0.00000000000E+00 0.  1.
         21   -1    0    0  502  503 -0.00000000000E+00 -0.00000000000E+00 -0.38057777499E+03  0.38057777499E+03  0.00000000000E+00 0.  1.
    9000005    1    1    2  501    0 -0.34822419708E+02 -0.86868033149E+02  0.45333226752E+02  0.41329621042E+03  0.40000000000E+03 0.  1.
   -9000005    1    1    2    0  503  0.34822419708E+02  0.86868033149E+02  0.18004233947E+02  0.41119680025E+03  0.40000000000E+03 0.  1.
<mgrwt>
<rscale>  2 0.41080245E+03</rscale>
<asrwt>0</asrwt>
<pdfrwt beam="1">  1       21 0.68294651E-01 0.41080245E+03</pdfrwt>
<pdfrwt beam="2">  1       21 0.58550427E-01 0.41080245E+03</pdfrwt>
<totfact> 0.47592144E+03</totfact>
</mgrwt>
</event>
<event>
 4    1  0.4774032E-002  0.4272050E+03  0.7818608E-02  0.1034747E+00
         21   -1    0    0  501  502  0.00000000000E+00  0.00000000000E+00  0.58517910450E+03  0.58517910450E+03  0.00000000000E+00 0.  1.
         21   -1    0    0  502  503 -0.00000000000E+00 -0.00000000000E+00 -0.33553184168E+03  0.33553184168E+03  0.00000000000E+00 0.  1.
    9000005    1    1    2  501    0  0.14393372189E+03  0.42275715291E+02  0.25922950769E+01  0.42721291225E+03  0.40000000000E+03 0.  1.
   -9000005    1    1    2    0  503 -0.14393372189E+03 -0.42275715291E+02  0.24705496775E+03  0.49349803393E+03  0.40000000000E+03 0.  1.
<mgrwt>
<rscale>  2 0.42720505E+03</rscale>
<asrwt>0</asrwt>
<pdfrwt beam="1">  1       21 0.90027555E-01 0.42720505E+03</pdfrwt>
<pdfrwt beam="2">  1       21 0.51620283E-01 0.42720505E+03</pdfrwt>
<totfact> 0.32890488E+03</totfact>
</mgrwt>
</event>
<event>
 4    1  0.4774032E-002  0.6422192E+03  0.7818608E-02  0.9821490E-01
         21   -1    0    0  503  502  0.00000000000E+00  0.00000000000E+00  0.46002554717E+03  0.46002554717E+03  0.00000000000E+00 0.  1.
         21   -1    0    0  501  503 -0.00000000000E+00 -0.00000000000E+00 -0.18927160624E+04  0.18927160624E+04  0.00000000000E+00 0. -1.
    9000005    1    1    2  501    0  0.49061242950E+03  0.10837436083E+03 -0.15697652260E+04  0.16960567274E+04  0.40000000000E+03 0. -1.
   -9000005    1    1    2    0  502 -0.49061242950E+03 -0.10837436083E+03  0.13707471075E+03  0.65668488211E+03  0.40000000000E+03 0.  1.
<mgrwt>
<rscale>  2 0.64221924E+03</rscale>
<asrwt>0</asrwt>
<pdfrwt beam="1">  1       21 0.70773159E-01 0.64221924E+03</pdfrwt>
<pdfrwt beam="2">  1       21 0.29118709E+00 0.64221924E+03</pdfrwt>
<totfact> 0.47768457E+01</totfact>
</mgrwt>
</event>
<event>
 4    1  0.4774032E-002  0.4762253E+03  0.7818608E-02  0.1020178E+00
         21   -1    0    0  503  502  0.00000000000E+00  0.00000000000E+00  0.78747180134E+03  0.78747180134E+03  0.00000000000E+00 0. -1.
         21   -1    0    0  501  503 -0.00000000000E+00 -0.00000000000E+00 -0.36179137889E+03  0.36179137889E+03  0.00000000000E+00 0.  1.
    9000005    1    1    2  501    0 -0.14659002696E+03 -0.21284234995E+03 -0.46678304415E+02  0.47850743572E+03  0.40000000000E+03 0.  1.
   -9000005    1    1    2    0  502  0.14659002696E+03  0.21284234995E+03  0.47235872687E+03  0.67075574451E+03  0.40000000000E+03 0. -1.
<mgrwt>
<rscale>  2 0.47622526E+03</rscale>
<asrwt>0</asrwt>
<pdfrwt beam="1">  1       21 0.12114951E+00 0.47622526E+03</pdfrwt>
<pdfrwt beam="2">  1       21 0.55660212E-01 0.47622526E+03</pdfrwt>
<totfact> 0.13252244E+03</totfact>
</mgrwt>
</event>
<event>
 4    1  0.4774032E-002  0.4078594E+03  0.7818608E-02  0.1041092E+00
         21   -1    0    0  501  502  0.00000000000E+00  0.00000000000E+00  0.22387192312E+04  0.22387192312E+04  0.00000000000E+00 0.  1.
         21   -1    0    0  502  503 -0.00000000000E+00 -0.00000000000E+00 -0.82906290766E+02  0.82906290766E+02  0.00000000000E+00 0. -1.
    9000005    1    1    2  501    0 -0.62793411813E+02  0.49054106508E+02  0.14517894965E+04  0.15079927254E+04  0.40000000000E+03 0.  1.
   -9000005    1    1    2    0  503  0.62793411813E+02 -0.49054106508E+02  0.70402344400E+03  0.81363279655E+03  0.40000000000E+03 0. -1.
<mgrwt>
<rscale>  2 0.40785943E+03</rscale>
<asrwt>0</asrwt>
<pdfrwt beam="1">  1       21 0.34441830E+00 0.40785943E+03</pdfrwt>
<pdfrwt beam="2">  1       21 0.12754816E-01 0.40785943E+03</pdfrwt>
<totfact> 0.80690260E+02</totfact>
</mgrwt>
</event>
<event>
 4    1  0.4774032E-002  0.4298731E+03  0.7818608E-02  0.1033900E+00
         21   -1    0    0  501  502  0.00000000000E+00  0.00000000000E+00  0.62302900621E+03  0.62302900621E+03  0.00000000000E+00 0.  1.
         21   -1    0    0  502  503 -0.00000000000E+00 -0.00000000000E+00 -0.30173081421E+03  0.30173081421E+03  0.00000000000E+00 0.  1.
    9000005    1    1    2  501    0 -0.11378634919E+03 -0.10882806510E+03  0.22093972448E+03  0.48332726270E+03  0.40000000000E+03 0.  1.
   -9000005    1    1    2    0  503  0.11378634919E+03  0.10882806510E+03  0.10035846752E+03  0.44143255772E+03  0.40000000000E+03 0.  1.
<mgrwt>
<rscale>  2 0.42987310E+03</rscale>
<asrwt>0</asrwt>
<pdfrwt beam="1">  1       21 0.95850616E-01 0.42987310E+03</pdfrwt>
<pdfrwt beam="2">  1       21 0.46420126E-01 0.42987310E+03</pdfrwt>
<totfact> 0.35440080E+03</totfact>
</mgrwt>
</event>
<event>
 4    1  0.4774032E-002  0.4875655E+03  0.7818608E-02  0.1017076E+00
         21   -1    0    0  503  502  0.00000000000E+00  0.00000000000E+00  0.68794657095E+03  0.68794657095E+03  0.00000000000E+00 0. -1.
         21   -1    0    0  501  503 -0.00000000000E+00 -0.00000000000E+00 -0.34617111873E+03  0.34617111873E+03  0.00000000000E+00 0.  1.
    9000005    1    1    2  501    0  0.25048981327E+03 -0.12237215360E+03  0.14898974208E+03  0.50982157053E+03  0.40000000000E+03 0.  1.
   -9000005    1    1    2    0  502 -0.25048981327E+03  0.12237215360E+03  0.19278571014E+03  0.52429611916E+03  0.40000000000E+03 0.  1.
<mgrwt>
<rscale>  2 0.48756547E+03</rscale>
<asrwt>0</asrwt>
<pdfrwt beam="1">  1       21 0.10583793E+00 0.48756547E+03</pdfrwt>
<pdfrwt beam="2">  1       21 0.53257095E-01 0.48756547E+03</pdfrwt>
<totfact> 0.20360079E+03</totfact>
</mgrwt>
</event>
<event>
 4    1  0.4774032E-002  0.4409692E+03  0.7818608E-02  0.1030450E+00
         21   -1    0    0  503  502  0.00000000000E+00  0.00000000000E+00  0.86239135263E+03  0.86239135263E+03  0.00000000000E+00 0. -1.
         21   -1    0    0  501  503 -0.00000000000E+00 -0.00000000000E+00 -0.24127307758E+03  0.24127307758E+03  0.00000000000E+00 0. -1.
    9000005    1    1    2  501    0 -0.13555624776E+03  0.12680030583E+03  0.16938435854E+03  0.47238212793E+03  0.40000000000E+03 0. -1.
   -9000005    1    1    2    0  502  0.13555624776E+03 -0.12680030583E+03  0.45173391650E+03  0.63128230229E+03  0.40000000000E+03 0. -1.
<mgrwt>
<rscale>  2 0.44096918E+03</rscale>
<asrwt>0</asrwt>
<pdfrwt beam="1">  1       21 0.13267559E+00 0.44096918E+03</pdfrwt>
<pdfrwt beam="2">  1       21 0.37118936E-01 0.44096918E+03</pdfrwt>
<totfact> 0.24872057E+03</totfact>
</mgrwt>
</event>
<event>
 4    1  0.4774032E-002  0.4362637E+03  0.7818608E-02  0.1031899E+00
         21   -1    0    0  501  502  0.00000000000E+00  0.00000000000E+00  0.14639979996E+03  0.14639979996E+03  0.00000000000E+00 0.  1.
         21   -1    0    0  502  503 -0.00000000000E+00 -0.00000000000E+00 -0.14612490937E+04  0.14612490937E+04  0.00000000000E+00 0.  1.
    9000005    1    1    2  501    0  0.15306885937E+03  0.83041613889E+02 -0.39043755294E+03  0.58546346436E+03  0.40000000000E+03 0.  1.
   -9000005    1    1    2    0  503 -0.15306885937E+03 -0.83041613889E+02 -0.92441174079E+03  0.10221854293E+04  0.40000000000E+03 0.  1.
<mgrwt>
<rscale>  2 0.43626366E+03</rscale>
<asrwt>0</asrwt>
<pdfrwt beam="1">  1       21 0.22523046E-01 0.43626366E+03</pdfrwt>
<pdfrwt beam="2">  1       21 0.22480755E+00 0.43626366E+03</pdfrwt>
<totfact> 0.14573749E+03</totfact>
</mgrwt>
</event>
<event>
 4    1  0.4774032E-002  0.4028526E+03  0.7818608E-02  0.1042796E+00
         21   -1    0    0  501  502  0.00000000000E+00  0.00000000000E+00  0.49368549892E+03  0.49368549892E+03  0.00000000000E+00 0. -1.
         21   -1    0    0  502  503 -0.00000000000E+00 -0.00000000000E+00 -0.34052631341E+03  0.34052631341E+03  0.00000000000E+00 0. -1.
    9000005    1    1    2  501    0 -0.44175933208E+02  0.18403236162E+02  0.15420581014E+03  0.43135788396E+03  0.40000000000E+03 0.  1.
   -9000005    1    1    2    0  503  0.44175933208E+02 -0.18403236162E+02 -0.10466246269E+01  0.40285392837E+03  0.40000000000E+03 0.  1.
<mgrwt>
<rscale>  2 0.40285257E+03</rscale>
<asrwt>0</asrwt>
<pdfrwt beam="1">  1       21 0.75951615E-01 0.40285257E+03</pdfrwt>
<pdfrwt beam="2">  1       21 0.52388663E-01 0.40285257E+03</pdfrwt>
<totfact> 0.47724350E+03</totfact>
</mgrwt>
</event>
<event>
 4    1  0.4774032E-002  0.4173807E+03  0.7818608E-02  0.1037922E+00
         21   -1    0    0  503  502  0.00000000000E+00  0.00000000000E+00  0.12429389813E+04  0.12429389813E+04  0.00000000000E+00 0. -1.
         21   -1    0    0  501  503 -0.00000000000E+00 -0.00000000000E+00 -0.58635830032E+03  0.58635830032E+03  0.00000000000E+00 0.  1.
    9000005    1    1    2  501    0 -0.10545126567E+03  0.55558096522E+02 -0.46959069388E+03  0.62826912331E+03  0.40000000000E+03 0.  1.
   -9000005    1    1    2    0  502  0.10545126567E+03 -0.55558096522E+02  0.11261713749E+04  0.12010281583E+04  0.40000000000E+03 0. -1.
<mgrwt>
<rscale>  2 0.41738073E+03</rscale>
<asrwt>0</asrwt>
<pdfrwt beam="1">  1       21 0.19122138E+00 0.41738073E+03</pdfrwt>
<pdfrwt beam="2">  1       21 0.90208970E-01 0.41738073E+03</pdfrwt>
<totfact> 0.13077733E+02</totfact>
</mgrwt>
</event>
<event>
 4    1  0.4774032E-002  0.4950705E+03  0.7818608E-02  0.1015074E+00
         21   -1    0    0  503  502  0.00000000000E+00  0.00000000000E+00  0.41539428144E+03  0.41539428144E+03  0.00000000000E+00 0. -1.
         21   -1    0    0  501  503 -0.00000000000E+00 -0.00000000000E+00 -0.59346122021E+03  0.59346122021E+03  0.00000000000E+00 0.  1.
    9000005    1    1    2  501    0  0.17345192722E+03 -0.23454037097E+03 -0.12739337658E+03  0.51119842436E+03  0.40000000000E+03 0.  1.
   -9000005    1    1    2    0  502 -0.17345192722E+03  0.23454037097E+03 -0.50673562196E+02  0.49765707729E+03  0.40000000000E+03 0. -1.
<mgrwt>
<rscale>  2 0.49507046E+03</rscale>
<asrwt>0</asrwt>
<pdfrwt beam="1">  1       21 0.63906813E-01 0.49507046E+03</pdfrwt>
<pdfrwt beam="2">  1       21 0.91301726E-01 0.49507046E+03</pdfrwt>
<totfact> 0.19509560E+03</totfact>
</mgrwt>
</event>
<event>
 4    1  0.4774032E-002  0.4305990E+03  0.7818608E-02  0.1033671E+00
         21   -1    0    0  503  502  0.00000000000E+00  0.00000000000E+00  0.39234579747E+03  0.39234579747E+03  0.00000000000E+00 0. -1.
         21   -1    0    0  501  503 -0.00000000000E+00 -0.00000000000E+00 -0.47265341868E+03  0.47265341868E+03  0.00000000000E+00 0. -1.
    9000005    1    1    2  501    0 -0.12315902263E+03  0.10122925270E+03 -0.45475476418E+02  0.43299367826E+03  0.40000000000E+03 0. -1.
   -9000005    1    1    2    0  502  0.12315902263E+03 -0.10122925270E+03 -0.34832144796E+02  0.43200553789E+03  0.40000000000E+03 0. -1.
<mgrwt>
<rscale>  2 0.43059901E+03</rscale>
<asrwt>0</asrwt>
<pdfrwt beam="1">  1       21 0.60360892E-01 0.43059901E+03</pdfrwt>
<pdfrwt beam="2">  1       21 0.72715911E-01 0.43059901E+03</pdfrwt>
<totfact> 0.38390898E+03</totfact>
</mgrwt>
</event>
<event>
 4    1  0.4774032E-002  0.4618131E+03  0.7818608E-02  0.1024257E+00
         21   -1    0    0  501  502  0.00000000000E+00  0.00000000000E+00  0.75790132477E+03  0.75790132477E+03  0.00000000000E+00 0.  1.
         21   -1    0    0  502  503 -0.00000000000E+00 -0.00000000000E+00 -0.37646765787E+03  0.37646765787E+03  0.00000000000E+00 0.  1.
    9000005    1    1    2  501    0  0.98324988996E+02 -0.20881451656E+03 -0.94308405680E+02  0.47134422790E+03  0.40000000000E+03 0.  1.
   -9000005    1    1    2    0  503 -0.98324988996E+02  0.20881451656E+03  0.47574207257E+03  0.66302475474E+03  0.40000000000E+03 0.  1.
<mgrwt>
<rscale>  2 0.46181306E+03</rscale>
<asrwt>0</asrwt>
<pdfrwt beam="1">  1       21 0.11660020E+00 0.46181306E+03</pdfrwt>
<pdfrwt beam="2">  1       21 0.57918101E-01 0.46181306E+03</pdfrwt>
<totfact> 0.13469328E+03</totfact>
</mgrwt>
</event>
<event>
 4    1  0.4774032E-002  0.4143353E+03  0.7818608E-02  0.1038926E+00
         21   -1    0    0  503  502  0.00000000000E+00  0.00000000000E+00  0.23380441597E+03  0.23380441597E+03  0.00000000000E+00 0. -1.
         21   -1    0    0  501  503 -0.00000000000E+00 -0.00000000000E+00 -0.89840134425E+03  0.89840134425E+03  0.00000000000E+00 0. -1.
    9000005    1    1    2  501    0 -0.83768824559E+02  0.68238467528E+02 -0.57427122461E+03  0.70813921219E+03  0.40000000000E+03 0. -1.
   -9000005    1    1    2    0  502  0.83768824559E+02 -0.68238467528E+02 -0.90325703672E+02  0.42406654804E+03  0.40000000000E+03 0. -1.
<mgrwt>
<rscale>  2 0.41433526E+03</rscale>
<asrwt>0</asrwt>
<pdfrwt beam="1">  1       21 0.35969910E-01 0.41433526E+03</pdfrwt>
<pdfrwt beam="2">  1       21 0.13821559E+00 0.41433526E+03</pdfrwt>
<totfact> 0.24072472E+03</totfact>
</mgrwt>
</event>
<event>
 4    1  0.4774032E-002  0.4183713E+03  0.7818608E-02  0.1037598E+00
         21   -1    0    0  501  502  0.00000000000E+00  0.00000000000E+00  0.76195025315E+03  0.76195025315E+03  0.00000000000E+00 0.  1.
         21   -1    0    0  502  503 -0.00000000000E+00 -0.00000000000E+00 -0.41777248103E+03  0.41777248103E+03  0.00000000000E+00 0.  1.
    9000005    1    1    2  501    0  0.12075037927E+03 -0.21304494228E+02  0.56783858897E+03  0.70531921758E+03  0.40000000000E+03 0.  1.
   -9000005    1    1    2    0  503 -0.12075037927E+03  0.21304494228E+02 -0.22366081685E+03  0.47440351660E+03  0.40000000000E+03 0.  1.
<mgrwt>
<rscale>  2 0.41837129E+03</rscale>
<asrwt>0</asrwt>
<pdfrwt beam="1">  1       21 0.11722312E+00 0.41837129E+03</pdfrwt>
<pdfrwt beam="2">  1       21 0.64272689E-01 0.41837129E+03</pdfrwt>
<totfact> 0.10766291E+03</totfact>
</mgrwt>
</event>
<event>
 4    1  0.4774032E-002  0.4188606E+03  0.7818608E-02  0.1037438E+00
         21   -1    0    0  503  502  0.00000000000E+00  0.00000000000E+00  0.36855848944E+03  0.36855848944E+03  0.00000000000E+00 0. -1.
         21   -1    0    0  501  503 -0.00000000000E+00 -0.00000000000E+00 -0.48667658597E+03  0.48667658597E+03  0.00000000000E+00 0. -1.
    9000005    1    1    2  501    0  0.62815447924E+02 -0.10723063626E+03  0.41937342410E+01  0.41888157904E+03  0.40000000000E+03 0. -1.
   -9000005    1    1    2    0  502 -0.62815447924E+02  0.10723063626E+03 -0.12231183076E+03  0.43635349637E+03  0.40000000000E+03 0. -1.
<mgrwt>
<rscale>  2 0.41886059E+03</rscale>
<asrwt>0</asrwt>
<pdfrwt beam="1">  1       21 0.56701306E-01 0.41886059E+03</pdfrwt>
<pdfrwt beam="2">  1       21 0.74873321E-01 0.41886059E+03</pdfrwt>
<totfact> 0.41344739E+03</totfact>
</mgrwt>
</event>
<event>
 4    1  0.4774032E-002  0.4546822E+03  0.7818608E-02  0.1026335E+00
         21   -1    0    0  501  502  0.00000000000E+00  0.00000000000E+00  0.45543867657E+03  0.45543867657E+03  0.00000000000E+00 0.  1.
         21   -1    0    0  502  503 -0.00000000000E+00 -0.00000000000E+00 -0.66666311427E+03  0.66666311427E+03  0.00000000000E+00 0.  1.
    9000005    1    1    2  501    0  0.52662833155E+02  0.20967236047E+03  0.21132244821E+03  0.50139111466E+03  0.40000000000E+03 0.  1.
   -9000005    1    1    2    0  503 -0.52662833155E+02 -0.20967236047E+03 -0.42254688591E+03  0.62071067619E+03  0.40000000000E+03 0.  1.
<mgrwt>
<rscale>  2 0.45468217E+03</rscale>
<asrwt>0</asrwt>
<pdfrwt beam="1">  1       21 0.70067489E-01 0.45468217E+03</pdfrwt>
<pdfrwt beam="2">  1       21 0.10256356E+00 0.45468217E+03</pdfrwt>
<totfact> 0.12175305E+03</totfact>
</mgrwt>
</event>
<event>
 4    1  0.4774032E-002  0.4488681E+03  0.7818608E-02  0.1028060E+00
         21   -1    0    0  503  502  0.00000000000E+00  0.00000000000E+00  0.94548964708E+03  0.94548964708E+03  0.00000000000E+00 0. -1.
         21   -1    0    0  501  503 -0.00000000000E+00 -0.00000000000E+00 -0.60920680878E+03  0.60920680878E+03  0.00000000000E+00 0. -1.
    9000005    1    1    2  501    0 -0.17716076427E+03 -0.10048218692E+03 -0.45867463319E+03  0.64176711151E+03  0.40000000000E+03 0. -1.
   -9000005    1    1    2    0  502  0.17716076427E+03  0.10048218692E+03  0.79495747149E+03  0.91292934434E+03  0.40000000000E+03 0. -1.
<mgrwt>
<rscale>  2 0.44886814E+03</rscale>
<asrwt>0</asrwt>
<pdfrwt beam="1">  1       21 0.14545995E+00 0.44886814E+03</pdfrwt>
<pdfrwt beam="2">  1       21 0.93724124E-01 0.44886814E+03</pdfrwt>
<totfact> 0.25455202E+02</totfact>
</mgrwt>
</event>
<event>
 4    1  0.4774032E-002  0.4969184E+03  0.7818608E-02  0.1014586E+00
         21   -1    0    0  503  502  0.00000000000E+00  0.00000000000E+00  0.82182270711E+03  0.82182270711E+03  0.00000000000E+00 0.  1.
         21   -1    0    0  501  503 -0.00000000000E+00 -0.00000000000E+00 -0.36357352700E+03  0.36357352700E+03  0.00000000000E+00 0. -1.
    9000005    1    1    2  501    0 -0.25964617021E+03  0.13968443468E+03 -0.17812305548E+02  0.49723752194E+03  0.40000000000E+03 0. -1.
   -9000005    1    1    2    0  502  0.25964617021E+03 -0.13968443468E+03  0.47606148566E+03  0.68815871216E+03  0.40000000000E+03 0.  1.
<mgrwt>
<rscale>  2 0.49691838E+03</rscale>
<asrwt>0</asrwt>
<pdfrwt beam="1">  1       21 0.12643426E+00 0.49691838E+03</pdfrwt>
<pdfrwt beam="2">  1       21 0.55934389E-01 0.49691838E+03</pdfrwt>
<totfact> 0.11656622E+03</totfact>
</mgrwt>
</event>
<event>
 4    1  0.4774032E-002  0.4615976E+03  0.7818608E-02  0.1024319E+00
         21   -1    0    0  501  502  0.00000000000E+00  0.00000000000E+00  0.69300116355E+03  0.69300116355E+03  0.00000000000E+00 0. -1.
         21   -1    0    0  502  503 -0.00000000000E+00 -0.00000000000E+00 -0.30972888078E+03  0.30972888078E+03  0.00000000000E+00 0. -1.
    9000005    1    1    2  501    0 -0.12333928509E+03 -0.19457594739E+03  0.23451659121E+03  0.51775516425E+03  0.40000000000E+03 0. -1.
   -9000005    1    1    2    0  503  0.12333928509E+03  0.19457594739E+03  0.14875569155E+03  0.48497488009E+03  0.40000000000E+03 0. -1.
<mgrwt>
<rscale>  2 0.46159764E+03</rscale>
<asrwt>0</asrwt>
<pdfrwt beam="1">  1       21 0.10661556E+00 0.46159764E+03</pdfrwt>
<pdfrwt beam="2">  1       21 0.47650597E-01 0.46159764E+03</pdfrwt>
<totfact> 0.25582105E+03</totfact>
</mgrwt>
</event>
<event>
 4    1  0.4774032E-002  0.5274444E+03  0.7818608E-02  0.1006854E+00
         21   -1    0    0  503  502  0.00000000000E+00  0.00000000000E+00  0.17968485501E+03  0.17968485501E+03  0.00000000000E+00 0. -1.
         21   -1    0    0  501  503 -0.00000000000E+00 -0.00000000000E+00 -0.15596024891E+04  0.15596024891E+04  0.00000000000E+00 0. -1.
    9000005    1    1    2  501    0  0.10969349851E+03  0.32582966110E+03 -0.76414462822E+03  0.92850128945E+03  0.40000000000E+03 0. -1.
   -9000005    1    1    2    0  502 -0.10969349851E+03 -0.32582966110E+03 -0.61577300585E+03  0.81078605464E+03  0.40000000000E+03 0. -1.
<mgrwt>
<rscale>  2 0.52744443E+03</rscale>
<asrwt>0</asrwt>
<pdfrwt beam="1">  1       21 0.27643824E-01 0.52744443E+03</pdfrwt>
<pdfrwt beam="2">  1       21 0.23993884E+00 0.52744443E+03</pdfrwt>
<totfact> 0.75383412E+02</totfact>
</mgrwt>
</event>
<event>
 4    1  0.4774032E-002  0.4529738E+03  0.7818608E-02  0.1026839E+00
         21   -1    0    0  501  502  0.00000000000E+00  0.00000000000E+00  0.27431296059E+03  0.27431296059E+03  0.00000000000E+00 0.  1.
         21   -1    0    0  502  503 -0.00000000000E+00 -0.00000000000E+00 -0.91217543755E+03  0.91217543755E+03  0.00000000000E+00 0. -1.
    9000005    1    1    2  501    0 -0.17435760806E+03  0.12159233320E+03 -0.67249111573E+02  0.45793854827E+03  0.40000000000E+03 0. -1.
   -9000005    1    1    2    0  503  0.17435760806E+03 -0.12159233320E+03 -0.57061336539E+03  0.72854984987E+03  0.40000000000E+03 0. -1.
<mgrwt>
<rscale>  2 0.45297381E+03</rscale>
<asrwt>0</asrwt>
<pdfrwt beam="1">  1       21 0.42201994E-01 0.45297381E+03</pdfrwt>
<pdfrwt beam="2">  1       21 0.14033468E+00 0.45297381E+03</pdfrwt>
<totfact> 0.16400005E+03</totfact>
</mgrwt>
</event>
<event>
 4    1  0.4774032E-002  0.4417102E+03  0.7818608E-02  0.1030223E+00
         21   -1    0    0  501  502  0.00000000000E+00  0.00000000000E+00  0.49168727573E+03  0.49168727573E+03  0.00000000000E+00 0.  1.
         21   -1    0    0  502  503 -0.00000000000E+00 -0.00000000000E+00 -0.58816865597E+03  0.58816865597E+03  0.00000000000E+00 0.  1.
    9000005    1    1    2  501    0  0.75816895910E+02 -0.17134666074E+03  0.25972730736E+03  0.51241209397E+03  0.40000000000E+03 0.  1.
   -9000005    1    1    2    0  503 -0.75816895910E+02  0.17134666074E+03 -0.35620868761E+03  0.56744383773E+03  0.40000000000E+03 0.  1.
<mgrwt>
<rscale>  2 0.44171018E+03</rscale>
<asrwt>0</asrwt>
<pdfrwt beam="1">  1       21 0.75644196E-01 0.44171018E+03</pdfrwt>
<pdfrwt beam="2">  1       21 0.90487486E-01 0.44171018E+03</pdfrwt>
<totfact> 0.13907099E+03</totfact>
</mgrwt>
</event>
<event>
 4    1  0.4774032E-002  0.4331273E+03  0.7818608E-02  0.1032877E+00
         21   -1    0    0  503  502  0.00000000000E+00  0.00000000000E+00  0.89964883608E+02  0.89964883608E+02  0.00000000000E+00 0.  1.
         21   -1    0    0  501  503 -0.00000000000E+00 -0.00000000000E+00 -0.23936900409E+04  0.23936900409E+04  0.00000000000E+00 0.  1.
    9000005    1    1    2  501    0 -0.52353254309E+02  0.15766540298E+03 -0.15976347183E+04  0.16553053904E+04  0.40000000000E+03 0.  1.
   -9000005    1    1    2    0  502  0.52353254309E+02 -0.15766540298E+03 -0.70609043898E+03  0.82834953405E+03  0.40000000000E+03 0.  1.
<mgrwt>
<rscale>  2 0.43312728E+03</rscale>
<asrwt>0</asrwt>
<pdfrwt beam="1">  1       21 0.13840754E-01 0.43312728E+03</pdfrwt>
<pdfrwt beam="2">  1       21 0.36825994E+00 0.43312728E+03</pdfrwt>
<totfact> 0.48766001E+02</totfact>
</mgrwt>
</event>
<event>
 4    1  0.4774032E-002  0.4034844E+03  0.7818608E-02  0.1042580E+00
         21   -1    0    0  501  502  0.00000000000E+00  0.00000000000E+00  0.38813316331E+03  0.38813316331E+03  0.00000000000E+00 0. -1.
         21   -1    0    0  502  503 -0.00000000000E+00 -0.00000000000E+00 -0.44926410504E+03  0.44926410504E+03  0.00000000000E+00 0. -1.
    9000005    1    1    2  501    0 -0.31679312383E+01 -0.52816811259E+02 -0.13843882525E+03  0.42657351028E+03  0.40000000000E+03 0.  1.
   -9000005    1    1    2    0  503  0.31679312383E+01  0.52816811259E+02  0.77307883517E+02  0.41082375807E+03  0.40000000000E+03 0.  1.
<mgrwt>
<rscale>  2 0.40348439E+03</rscale>
<asrwt>0</asrwt>
<pdfrwt beam="1">  1       21 0.59712794E-01 0.40348439E+03</pdfrwt>
<pdfrwt beam="2">  1       21 0.69117555E-01 0.40348439E+03</pdfrwt>
<totfact> 0.44508904E+03</totfact>
</mgrwt>
</event>
<event>
 4    1  0.4774032E-002  0.4418684E+03  0.7818608E-02  0.1030175E+00
         21   -1    0    0  501  502  0.00000000000E+00  0.00000000000E+00  0.16849001077E+03  0.16849001077E+03  0.00000000000E+00 0.  1.
         21   -1    0    0  502  503 -0.00000000000E+00 -0.00000000000E+00 -0.11859188017E+04  0.11859188017E+04  0.00000000000E+00 0. -1.
    9000005    1    1    2  501    0 -0.11742885428E+03  0.14648602675E+03 -0.40632433485E+03  0.60028922774E+03  0.40000000000E+03 0. -1.
   -9000005    1    1    2    0  503  0.11742885428E+03 -0.14648602675E+03 -0.61110445613E+03  0.75411958478E+03  0.40000000000E+03 0.  1.
<mgrwt>
<rscale>  2 0.44186841E+03</rscale>
<asrwt>0</asrwt>
<pdfrwt beam="1">  1       21 0.25921539E-01 0.44186841E+03</pdfrwt>
<pdfrwt beam="2">  1       21 0.18244905E+00 0.44186841E+03</pdfrwt>
<totfact> 0.21123572E+03</totfact>
</mgrwt>
</event>
<event>
 4    1  0.4774032E-002  0.5122194E+03  0.7818608E-02  0.1010638E+00
         21   -1    0    0  501  502  0.00000000000E+00  0.00000000000E+00  0.77312727148E+03  0.77312727148E+03  0.00000000000E+00 0. -1.
         21   -1    0    0  502  503 -0.00000000000E+00 -0.00000000000E+00 -0.39180977663E+03  0.39180977663E+03  0.00000000000E+00 0.  1.
    9000005    1    1    2  501    0  0.22779985814E+03 -0.22466851360E+03 -0.22451991025E+02  0.51271123284E+03  0.40000000000E+03 0.  1.
   -9000005    1    1    2    0  503 -0.22779985814E+03  0.22466851360E+03  0.40376948587E+03  0.65222581527E+03  0.40000000000E+03 0. -1.
<mgrwt>
<rscale>  2 0.51221940E+03</rscale>
<asrwt>0</asrwt>
<pdfrwt beam="1">  1       21 0.11894266E+00 0.51221940E+03</pdfrwt>
<pdfrwt beam="2">  1       21 0.60278427E-01 0.51221940E+03</pdfrwt>
<totfact> 0.11517854E+03</totfact>
</mgrwt>
</event>
<event>
 4    1  0.4774032E-002  0.4286745E+03  0.7818608E-02  0.1034279E+00
         21   -1    0    0  501  502  0.00000000000E+00  0.00000000000E+00  0.12008707848E+03  0.12008707848E+03  0.00000000000E+00 0.  1.
         21   -1    0    0  502  503 -0.00000000000E+00 -0.00000000000E+00 -0.17267129599E+04  0.17267129599E+04  0.00000000000E+00 0. -1.
    9000005    1    1    2  501    0  0.12492510796E+03  0.90308282158E+02 -0.49183099495E+03  0.65242593144E+03  0.40000000000E+03 0. -1.
   -9000005    1    1    2    0  503 -0.12492510796E+03 -0.90308282158E+02 -0.11147948864E+04  0.11943741069E+04  0.40000000000E+03 0.  1.
<mgrwt>
<rscale>  2 0.42867455E+03</rscale>
<asrwt>0</asrwt>
<pdfrwt beam="1">  1       21 0.18474935E-01 0.42867455E+03</pdfrwt>
<pdfrwt beam="2">  1       21 0.26564816E+00 0.42867455E+03</pdfrwt>
<totfact> 0.11943800E+03</totfact>
</mgrwt>
</event>
<event>
 4    1  0.4774032E-002  0.4503467E+03  0.7818608E-02  0.1027619E+00
         21   -1    0    0  501  502  0.00000000000E+00  0.00000000000E+00  0.71740852447E+03  0.71740852447E+03  0.00000000000E+00 0.  1.
         21   -1    0    0  502  503 -0.00000000000E+00 -0.00000000000E+00 -0.42499886629E+03  0.42499886629E+03  0.00000000000E+00 0.  1.
    9000005    1    1    2  501    0 -0.19166574203E+03 -0.77951392456E+02  0.47672363109E+03  0.65580301668E+03  0.40000000000E+03 0.  1.
   -9000005    1    1    2    0  503  0.19166574203E+03  0.77951392456E+02 -0.18431397291E+03  0.48660437407E+03  0.40000000000E+03 0.  1.
<mgrwt>
<rscale>  2 0.45034673E+03</rscale>
<asrwt>0</asrwt>
<pdfrwt beam="1">  1       21 0.11037054E+00 0.45034673E+03</pdfrwt>
<pdfrwt beam="2">  1       21 0.65384441E-01 0.45034673E+03</pdfrwt>
<totfact> 0.11881885E+03</totfact>
</mgrwt>
</event>
<event>
 4    1  0.4774032E-002  0.4834680E+03  0.7818608E-02  0.1018186E+00
         21   -1    0    0  503  502  0.00000000000E+00  0.00000000000E+00  0.19659916580E+03  0.19659916580E+03  0.00000000000E+00 0.  1.
         21   -1    0    0  501  503 -0.00000000000E+00 -0.00000000000E+00 -0.13202547115E+04  0.13202547115E+04  0.00000000000E+00 0. -1.
    9000005    1    1    2  501    0  0.35321761683E+02  0.26924646184E+03 -0.80103239709E+03  0.93562502385E+03  0.40000000000E+03 0. -1.
   -9000005    1    1    2    0  502 -0.35321761683E+02 -0.26924646184E+03 -0.32262314862E+03  0.58122885345E+03  0.40000000000E+03 0.  1.
<mgrwt>
<rscale>  2 0.48346798E+03</rscale>
<asrwt>0</asrwt>
<pdfrwt beam="1">  1       21 0.30246025E-01 0.48346798E+03</pdfrwt>
<pdfrwt beam="2">  1       21 0.20311611E+00 0.48346798E+03</pdfrwt>
<totfact> 0.11074196E+03</totfact>
</mgrwt>
</event>
<event>
 4    1  0.4774032E-002  0.6248672E+03  0.7818608E-02  0.9855117E-01
         21   -1    0    0  501  502  0.00000000000E+00  0.00000000000E+00  0.54472396883E+03  0.54472396883E+03  0.00000000000E+00 0.  1.
         21   -1    0    0  502  503 -0.00000000000E+00 -0.00000000000E+00 -0.80631805020E+03  0.80631805020E+03  0.00000000000E+00 0.  1.
    9000005    1    1    2  501    0  0.27080129574E+02 -0.47929712009E+03  0.94282941127E+02  0.63194013619E+03  0.40000000000E+03 0.  1.
   -9000005    1    1    2    0  503 -0.27080129574E+02  0.47929712009E+03 -0.35587702250E+03  0.71910188283E+03  0.40000000000E+03 0.  1.
<mgrwt>
<rscale>  2 0.62486724E+03</rscale>
<asrwt>0</asrwt>
<pdfrwt beam="1">  1       21 0.83803687E-01 0.62486724E+03</pdfrwt>
<pdfrwt beam="2">  1       21 0.12404893E+00 0.62486724E+03</pdfrwt>
<totfact> 0.47080569E+02</totfact>
</mgrwt>
</event>
<event>
 4    1  0.4774032E-002  0.4588037E+03  0.7818608E-02  0.1025129E+00
         21   -1    0    0  501  502  0.00000000000E+00  0.00000000000E+00  0.36994598920E+03  0.36994598920E+03  0.00000000000E+00 0. -1.
         21   -1    0    0  502  503 -0.00000000000E+00 -0.00000000000E+00 -0.72190153537E+03  0.72190153537E+03  0.00000000000E+00 0. -1.
    9000005    1    1    2  501    0 -0.14207769394E+03 -0.17411137462E+03  0.75264605306E+02  0.46493612755E+03  0.40000000000E+03 0. -1.
   -9000005    1    1    2    0  503  0.14207769394E+03  0.17411137462E+03 -0.42722015147E+03  0.62691139702E+03  0.40000000000E+03 0. -1.
<mgrwt>
<rscale>  2 0.45880371E+03</rscale>
<asrwt>0</asrwt>
<pdfrwt beam="1">  1       21 0.56914768E-01 0.45880371E+03</pdfrwt>
<pdfrwt beam="2">  1       21 0.11106177E+00 0.45880371E+03</pdfrwt>
<totfact> 0.15818327E+03</totfact>
</mgrwt>
</event>
<event>
 4    1  0.4774032E-002  0.4229454E+03  0.7818608E-02  0.1036112E+00
         21   -1    0    0  501  502  0.00000000000E+00  0.00000000000E+00  0.11376921296E+03  0.11376921296E+03  0.00000000000E+00 0. -1.
         21   -1    0    0  502  503 -0.00000000000E+00 -0.00000000000E+00 -0.16147743006E+04  0.16147743006E+04  0.00000000000E+00 0. -1.
    9000005    1    1    2  501    0 -0.49208605501E+02  0.12830155678E+03 -0.61038169433E+03  0.74259584506E+03  0.40000000000E+03 0. -1.
   -9000005    1    1    2    0  503  0.49208605501E+02 -0.12830155678E+03 -0.89062339335E+03  0.98594766855E+03  0.40000000000E+03 0. -1.
<mgrwt>
<rscale>  2 0.42294536E+03</rscale>
<asrwt>0</asrwt>
<pdfrwt beam="1">  1       21 0.17502955E-01 0.42294536E+03</pdfrwt>
<pdfrwt beam="2">  1       21 0.24842683E+00 0.42294536E+03</pdfrwt>
<totfact> 0.16883422E+03</totfact>
</mgrwt>
</event>
<event>
 4    1  0.4774032E-002  0.5529923E+03  0.7818608E-02  0.1000804E+00
         21   -1    0    0  501  502  0.00000000000E+00  0.00000000000E+00  0.32146763615E+03  0.32146763615E+03  0.00000000000E+00 0. -1.
         21   -1    0    0  502  503 -0.00000000000E+00 -0.00000000000E+00 -0.15936363104E+04  0.15936363104E+04  0.00000000000E+00 0.  1.
    9000005    1    1    2  501    0 -0.16140548154E+02  0.38149707906E+03 -0.28143654266E+02  0.55370804933E+03  0.40000000000E+03 0. -1.
   -9000005    1    1    2    0  503  0.16140548154E+02 -0.38149707906E+03 -0.12440250200E+04  0.13613958972E+04  0.40000000000E+03 0.  1.
<mgrwt>
<rscale>  2 0.55299235E+03</rscale>
<asrwt>0</asrwt>
<pdfrwt beam="1">  1       21 0.49456560E-01 0.55299235E+03</pdfrwt>
<pdfrwt beam="2">  1       21 0.24517482E+00 0.55299235E+03</pdfrwt>
<totfact> 0.20996740E+02</totfact>
</mgrwt>
</event>
<event>
 4    1  0.4774032E-002  0.4412153E+03  0.7818608E-02  0.1030375E+00
         21   -1    0    0  501  502  0.00000000000E+00  0.00000000000E+00  0.16705228291E+04  0.16705228291E+04  0.00000000000E+00 0.  1.
         21   -1    0    0  502  503 -0.00000000000E+00 -0.00000000000E+00 -0.12511208412E+03  0.12511208412E+03  0.00000000000E+00 0.  1.
    9000005    1    1    2  501    0 -0.13314797853E+03  0.13016364179E+03  0.53760134106E+03  0.69547549183E+03  0.40000000000E+03 0. -1.
   -9000005    1    1    2    0  503  0.13314797853E+03 -0.13016364179E+03  0.10078094039E+04  0.11001594214E+04  0.40000000000E+03 0. -1.
<mgrwt>
<rscale>  2 0.44121532E+03</rscale>
<asrwt>0</asrwt>
<pdfrwt beam="1">  1       21 0.25700350E+00 0.44121532E+03</pdfrwt>
<pdfrwt beam="2">  1       21 0.19248014E-01 0.44121532E+03</pdfrwt>
<totfact> 0.12393076E+03</totfact>
</mgrwt>
</event>
<event>
 4    1  0.4774032E-002  0.4163877E+03  0.7818608E-02  0.1038248E+00
         21   -1    0    0  503  502  0.00000000000E+00  0.00000000000E+00  0.22977397911E+03  0.22977397911E+03  0.00000000000E+00 0. -1.
         21   -1    0    0  501  503 -0.00000000000E+00 -0.00000000000E+00 -0.13466334870E+04  0.13466334870E+04  0.00000000000E+00 0. -1.
    9000005    1    1    2  501    0 -0.10813496954E+03  0.41055088928E+02 -0.10810676415E+04  0.11584843276E+04  0.40000000000E+03 0. -1.
   -9000005    1    1    2    0  502  0.10813496954E+03 -0.41055088928E+02 -0.35791866413E+02  0.41792313847E+03  0.40000000000E+03 0. -1.
<mgrwt>
<rscale>  2 0.41638767E+03</rscale>
<asrwt>0</asrwt>
<pdfrwt beam="1">  1       21 0.35349842E-01 0.41638767E+03</pdfrwt>
<pdfrwt beam="2">  1       21 0.20717439E+00 0.41638767E+03</pdfrwt>
<totfact> 0.78575338E+02</totfact>
</mgrwt>
</event>
<event>
 4    1  0.4774032E-002  0.4272937E+03  0.7818608E-02  0.1034718E+00
         21   -1    0    0  503  502  0.00000000000E+00  0.00000000000E+00  0.11141874007E+04  0.11141874007E+04  0.00000000000E+00 0. -1.
         21   -1    0    0  501  503 -0.00000000000E+00 -0.00000000000E+00 -0.16402962826E+03  0.16402962826E+03  0.00000000000E+00 0. -1.
    9000005    1    1    2  501    0  0.27578821802E+02  0.14771355232E+03  0.49512830835E+03  0.65401217625E+03  0.40000000000E+03 0.  1.
   -9000005    1    1    2    0  502 -0.27578821802E+02 -0.14771355232E+03  0.45502946406E+03  0.62420485268E+03  0.40000000000E+03 0.  1.
<mgrwt>
<rscale>  2 0.42729368E+03</rscale>
<asrwt>0</asrwt>
<pdfrwt beam="1">  1       21 0.17141344E+00 0.42729368E+03</pdfrwt>
<pdfrwt beam="2">  1       21 0.25235328E-01 0.42729368E+03</pdfrwt>
<totfact> 0.26827863E+03</totfact>
</mgrwt>
</event>
<event>
 4    1  0.4774032E-002  0.4704057E+03  0.7818608E-02  0.1021806E+00
         21   -1    0    0  503  502  0.00000000000E+00  0.00000000000E+00  0.62521238479E+03  0.62521238479E+03  0.00000000000E+00 0.  1.
         21   -1    0    0  501  503 -0.00000000000E+00 -0.00000000000E+00 -0.37581952399E+03  0.37581952399E+03  0.00000000000E+00 0.  1.
    9000005    1    1    2  501    0  0.13390735577E+02  0.24718860002E+03  0.39025632599E+01  0.47042188063E+03  0.40000000000E+03 0.  1.
   -9000005    1    1    2    0  502 -0.13390735577E+02 -0.24718860002E+03  0.24549029754E+03  0.53061002815E+03  0.40000000000E+03 0.  1.
<mgrwt>
<rscale>  2 0.47040569E+03</rscale>
<asrwt>0</asrwt>
<pdfrwt beam="1">  1       21 0.96186521E-01 0.47040569E+03</pdfrwt>
<pdfrwt beam="2">  1       21 0.57818388E-01 0.47040569E+03</pdfrwt>
<totfact> 0.21651632E+03</totfact>
</mgrwt>
</event>
<event>
 4    1  0.4774032E-002  0.4384856E+03  0.7818608E-02  0.1031212E+00
         21   -1    0    0  503  502  0.00000000000E+00  0.00000000000E+00  0.46164404653E+03  0.46164404653E+03  0.00000000000E+00 0.  1.
         21   -1    0    0  501  503 -0.00000000000E+00 -0.00000000000E+00 -0.41672155607E+03  0.41672155607E+03  0.00000000000E+00 0.  1.
    9000005    1    1    2  501    0 -0.95573439398E+01 -0.17938308911E+03  0.12084754116E+02  0.43865211360E+03  0.40000000000E+03 0.  1.
   -9000005    1    1    2    0  502  0.95573439398E+01  0.17938308911E+03  0.32837736338E+02  0.43971348900E+03  0.40000000000E+03 0.  1.
<mgrwt>
<rscale>  2 0.43848562E+03</rscale>
<asrwt>0</asrwt>
<pdfrwt beam="1">  1       21 0.71022161E-01 0.43848562E+03</pdfrwt>
<pdfrwt beam="2">  1       21 0.64111009E-01 0.43848562E+03</pdfrwt>
<totfact> 0.35356628E+03</totfact>
</mgrwt>
</event>
<event>
 4    1  0.4774032E-002  0.4265425E+03  0.7818608E-02  0.1034958E+00
         21   -1    0    0  503  502  0.00000000000E+00  0.00000000000E+00  0.23783811988E+03  0.23783811988E+03  0.00000000000E+00 0.  1.
         21   -1    0    0  501  503 -0.00000000000E+00 -0.00000000000E+00 -0.81427687855E+03  0.81427687855E+03  0.00000000000E+00 0.  1.
    9000005    1    1    2  501    0  0.10949434378E+02 -0.14771115452E+03 -0.41767208354E+03  0.59698278422E+03  0.40000000000E+03 0.  1.
   -9000005    1    1    2    0  502 -0.10949434378E+02  0.14771115452E+03 -0.15876667513E+03  0.45513221421E+03  0.40000000000E+03 0.  1.
<mgrwt>
<rscale>  2 0.42654247E+03</rscale>
<asrwt>0</asrwt>
<pdfrwt beam="1">  1       21 0.36590480E-01 0.42654247E+03</pdfrwt>
<pdfrwt beam="2">  1       21 0.12527337E+00 0.42654247E+03</pdfrwt>
<totfact> 0.29873985E+03</totfact>
</mgrwt>
</event>
<event>
 4    1  0.4774032E-002  0.8622331E+03  0.7818608E-02  0.9474064E-01
         21   -1    0    0  501  502  0.00000000000E+00  0.00000000000E+00  0.20832820880E+04  0.20832820880E+04  0.00000000000E+00 0.  1.
         21   -1    0    0  502  503 -0.00000000000E+00 -0.00000000000E+00 -0.35997615734E+03  0.35997615734E+03  0.00000000000E+00 0. -1.
    9000005    1    1    2  501    0  0.32236499762E+03  0.69247865498E+03  0.97526307751E+03  0.13017618636E+04  0.40000000000E+03 0.  1.
   -9000005    1    1    2    0  503 -0.32236499762E+03 -0.69247865498E+03  0.74804285317E+03  0.11414963817E+04  0.40000000000E+03 0. -1.
<mgrwt>
<rscale>  2 0.86223308E+03</rscale>
<asrwt>0</asrwt>
<pdfrwt beam="1">  1       21 0.32050493E+00 0.86223308E+03</pdfrwt>
<pdfrwt beam="2">  1       21 0.55380948E-01 0.86223308E+03</pdfrwt>
<totfact> 0.50061940E+01</totfact>
</mgrwt>
</event>
<event>
 4    1  0.4774032E-002  0.5435695E+03  0.7818608E-02  0.1002993E+00
         21   -1    0    0  501  502  0.00000000000E+00  0.00000000000E+00  0.11738263512E+04  0.11738263512E+04  0.00000000000E+00 0. -1.
         21   -1    0    0  502  503 -0.00000000000E+00 -0.00000000000E+00 -0.41001529594E+03  0.41001529594E+03  0.00000000000E+00 0.  1.
    9000005    1    1    2  501    0  0.26059810252E+03 -0.25991619606E+03  0.87397318114E+03  0.10292215123E+04  0.40000000000E+03 0. -1.
   -9000005    1    1    2    0  503 -0.26059810252E+03  0.25991619606E+03 -0.11016212588E+03  0.55462013486E+03  0.40000000000E+03 0.  1.
<mgrwt>
<rscale>  2 0.54356950E+03</rscale>
<asrwt>0</asrwt>
<pdfrwt beam="1">  1       21 0.18058867E+00 0.54356950E+03</pdfrwt>
<pdfrwt beam="2">  1       21 0.63079277E-01 0.54356950E+03</pdfrwt>
<totfact> 0.33025353E+02</totfact>
</mgrwt>
</event>
<event>
 4    1  0.4774032E-002  0.4890777E+03  0.7818608E-02  0.1016670E+00
         21   -1    0    0  501  502  0.00000000000E+00  0.00000000000E+00  0.14071555957E+04  0.14071555957E+04  0.00000000000E+00 0.  1.
         21   -1    0    0  502  503 -0.00000000000E+00 -0.00000000000E+00 -0.30518489502E+03  0.30518489502E+03  0.00000000000E+00 0. -1.
    9000005    1    1    2  501    0  0.19832079915E+03  0.19966424118E+03  0.11208411321E+04  0.12228989296E+04  0.40000000000E+03 0.  1.
   -9000005    1    1    2    0  503 -0.19832079915E+03 -0.19966424118E+03 -0.18870431425E+02  0.48944156113E+03  0.40000000000E+03 0. -1.
<mgrwt>
<rscale>  2 0.48907765E+03</rscale>
<asrwt>0</asrwt>
<pdfrwt beam="1">  1       21 0.21648547E+00 0.48907765E+03</pdfrwt>
<pdfrwt beam="2">  1       21 0.46951523E-01 0.48907765E+03</pdfrwt>
<totfact> 0.36682790E+02</totfact>
</mgrwt>
</event>
<event>
 4    1  0.4774032E-002  0.5392782E+03  0.7818608E-02  0.1004007E+00
         21   -1    0    0  503  502  0.00000000000E+00  0.00000000000E+00  0.87370102046E+03  0.87370102046E+03  0.00000000000E+00 0.  1.
         21   -1    0    0  501  503 -0.00000000000E+00 -0.00000000000E+00 -0.38241326825E+03  0.38241326825E+03  0.00000000000E+00 0.  1.
    9000005    1    1    2  501    0  0.14379272130E+03 -0.33188037357E+03  0.19562500887E+02  0.53963285713E+03  0.40000000000E+03 0.  1.
   -9000005    1    1    2    0  502 -0.14379272130E+03  0.33188037357E+03  0.47172525132E+03  0.71648143157E+03  0.40000000000E+03 0.  1.
<mgrwt>
<rscale>  2 0.53927816E+03</rscale>
<asrwt>0</asrwt>
<pdfrwt beam="1">  1       21 0.13441554E+00 0.53927816E+03</pdfrwt>
<pdfrwt beam="2">  1       21 0.58832811E-01 0.53927816E+03</pdfrwt>
<totfact> 0.87661893E+02</totfact>
</mgrwt>
</event>
<event>
 4    1  0.4774032E-002  0.4327619E+03  0.7818608E-02  0.1032991E+00
         21   -1    0    0  501  502  0.00000000000E+00  0.00000000000E+00  0.12107560072E+04  0.12107560072E+04  0.00000000000E+00 0.  1.
         21   -1    0    0  502  503 -0.00000000000E+00 -0.00000000000E+00 -0.27268873974E+03  0.27268873974E+03  0.00000000000E+00 0.  1.
    9000005    1    1    2  501    0  0.16500239517E+03 -0.75549029825E+01  0.95696654172E+03  0.10502703599E+04  0.40000000000E+03 0.  1.
   -9000005    1    1    2    0  503 -0.16500239517E+03  0.75549029825E+01 -0.18899274283E+02  0.43317438698E+03  0.40000000000E+03 0.  1.
<mgrwt>
<rscale>  2 0.43276191E+03</rscale>
<asrwt>0</asrwt>
<pdfrwt beam="1">  1       21 0.18627015E+00 0.43276191E+03</pdfrwt>
<pdfrwt beam="2">  1       21 0.41952114E-01 0.43276191E+03</pdfrwt>
<totfact> 0.75830901E+02</totfact>
</mgrwt>
</event>
<event>
 4    1  0.4774032E-002  0.5505862E+03  0.7818608E-02  0.1001358E+00
         21   -1    0    0  503  502  0.00000000000E+00  0.00000000000E+00  0.38525480087E+03  0.38525480087E+03  0.00000000000E+00 0.  1.
         21   -1    0    0  501  503 -0.00000000000E+00 -0.00000000000E+00 -0.11816212814E+04  0.11816212814E+04  0.00000000000E+00 0.  1.
    9000005    1    1    2  501    0 -0.15630235242E+03  0.34455001074E+03 -0.85100545054E+03  0.10135854242E+04  0.40000000000E+03 0.  1.
   -9000005    1    1    2    0  502  0.15630235242E+03 -0.34455001074E+03  0.54638970022E+02  0.55329065808E+03  0.40000000000E+03 0.  1.
<mgrwt>
<rscale>  2 0.55058617E+03</rscale>
<asrwt>0</asrwt>
<pdfrwt beam="1">  1       21 0.59269971E-01 0.55058617E+03</pdfrwt>
<pdfrwt beam="2">  1       21 0.18178788E+00 0.55058617E+03</pdfrwt>
<totfact> 0.37057783E+02</totfact>
</mgrwt>
</event>
<event>
 4    1  0.4774032E-002  0.7017687E+03  0.7818608E-02  0.9714212E-01
         21   -1    0    0  503  502  0.00000000000E+00  0.00000000000E+00  0.11252641255E+04  0.11252641255E+04  0.00000000000E+00 0. -1.
         21   -1    0    0  501  503 -0.00000000000E+00 -0.00000000000E+00 -0.70611751831E+03  0.70611751831E+03  0.00000000000E+00 0. -1.
    9000005    1    1    2  501    0 -0.55529991042E+03 -0.15531017039E+03 -0.35503976563E+03  0.78646835582E+03  0.40000000000E+03 0. -1.
   -9000005    1    1    2    0  502  0.55529991042E+03  0.15531017039E+03  0.77418637281E+03  0.10449132880E+04  0.40000000000E+03 0. -1.
<mgrwt>
<rscale>  2 0.70176865E+03</rscale>
<asrwt>0</asrwt>
<pdfrwt beam="1">  1       21 0.17311756E+00 0.70176865E+03</pdfrwt>
<pdfrwt beam="2">  1       21 0.10863346E+00 0.70176865E+03</pdfrwt>
<totfact> 0.98162758E+01</totfact>
</mgrwt>
</event>
<event>
 4    1  0.4774032E-002  0.4983575E+03  0.7818608E-02  0.1014209E+00
         21   -1    0    0  503  502  0.00000000000E+00  0.00000000000E+00  0.45796354735E+03  0.45796354735E+03  0.00000000000E+00 0.  1.
         21   -1    0    0  501  503 -0.00000000000E+00 -0.00000000000E+00 -0.61105611249E+03  0.61105611249E+03  0.00000000000E+00 0. -1.
    9000005    1    1    2  501    0  0.75156270816E+02  0.28759641085E+03 -0.25582377856E+03  0.56018386826E+03  0.40000000000E+03 0. -1.
   -9000005    1    1    2    0  502 -0.75156270816E+02 -0.28759641085E+03  0.10273121343E+03  0.50883579158E+03  0.40000000000E+03 0.  1.
<mgrwt>
<rscale>  2 0.49835746E+03</rscale>
<asrwt>0</asrwt>
<pdfrwt beam="1">  1       21 0.70455931E-01 0.49835746E+03</pdfrwt>
<pdfrwt beam="2">  1       21 0.94008632E-01 0.49835746E+03</pdfrwt>
<totfact> 0.14605937E+03</totfact>
</mgrwt>
</event>
<event>
 4    1  0.4774032E-002  0.4308393E+03  0.7818608E-02  0.1033595E+00
         21   -1    0    0  503  502  0.00000000000E+00  0.00000000000E+00  0.30302498780E+03  0.30302498780E+03  0.00000000000E+00 0. -1.
         21   -1    0    0  501  503 -0.00000000000E+00 -0.00000000000E+00 -0.70654769937E+03  0.70654769937E+03  0.00000000000E+00 0. -1.
    9000005    1    1    2  501    0 -0.15684452861E+03 -0.31973316902E+02 -0.38586434081E+03  0.57837167000E+03  0.40000000000E+03 0. -1.
   -9000005    1    1    2    0  502  0.15684452861E+03  0.31973316902E+02 -0.17658370763E+02  0.43120101717E+03  0.40000000000E+03 0. -1.
<mgrwt>
<rscale>  2 0.43083930E+03</rscale>
<asrwt>0</asrwt>
<pdfrwt beam="1">  1       21 0.46619229E-01 0.43083930E+03</pdfrwt>
<pdfrwt beam="2">  1       21 0.10869965E+00 0.43083930E+03</pdfrwt>
<totfact> 0.25831174E+03</totfact>
</mgrwt>
</event>
<event>
 4    1  0.4774032E-002  0.4589630E+03  0.7818608E-02  0.1025082E+00
         21   -1    0    0  501  502  0.00000000000E+00  0.00000000000E+00  0.97912850970E+03  0.97912850970E+03  0.00000000000E+00 0. -1.
         21   -1    0    0  502  503 -0.00000000000E+00 -0.00000000000E+00 -0.24283673871E+03  0.24283673871E+03  0.00000000000E+00 0.  1.
    9000005    1    1    2  501    0 -0.46685767678E+02 -0.22015336804E+03  0.57449714714E+03  0.73531900454E+03  0.40000000000E+03 0. -1.
   -9000005    1    1    2    0  503  0.46685767678E+02  0.22015336804E+03  0.16179462384E+03  0.48664624387E+03  0.40000000000E+03 0. -1.
<mgrwt>
<rscale>  2 0.45896303E+03</rscale>
<asrwt>0</asrwt>
<pdfrwt beam="1">  1       21 0.15063515E+00 0.45896303E+03</pdfrwt>
<pdfrwt beam="2">  1       21 0.37359499E-01 0.45896303E+03</pdfrwt>
<totfact> 0.17376545E+03</totfact>
</mgrwt>
</event>
<event>
 4    1  0.4774032E-002  0.4442305E+03  0.7818608E-02  0.1029457E+00
         21   -1    0    0  501  502  0.00000000000E+00  0.00000000000E+00  0.10526306492E+03  0.10526306492E+03  0.00000000000E+00 0. -1.
         21   -1    0    0  502  503 -0.00000000000E+00 -0.00000000000E+00 -0.20566570957E+04  0.20566570957E+04  0.00000000000E+00 0. -1.
    9000005    1    1    2  501    0 -0.14756929774E+03  0.12475593498E+03 -0.65420734269E+03  0.79077682578E+03  0.40000000000E+03 0. -1.
   -9000005    1    1    2    0  503  0.14756929774E+03 -0.12475593498E+03 -0.12971866881E+04  0.13711433349E+04  0.40000000000E+03 0. -1.
<mgrwt>
<rscale>  2 0.44423050E+03</rscale>
<asrwt>0</asrwt>
<pdfrwt beam="1">  1       21 0.16194319E-01 0.44423050E+03</pdfrwt>
<pdfrwt beam="2">  1       21 0.31640877E+00 0.44423050E+03</pdfrwt>
<totfact> 0.75051480E+02</totfact>
</mgrwt>
</event>
<event>
 4    1  0.4774032E-002  0.4825814E+03  0.7818608E-02  0.1018428E+00
         21   -1    0    0  503  502  0.00000000000E+00  0.00000000000E+00  0.19996407319E+04  0.19996407319E+04  0.00000000000E+00 0. -1.
         21   -1    0    0  501  503 -0.00000000000E+00 -0.00000000000E+00 -0.21207870204E+03  0.21207870204E+03  0.00000000000E+00 0. -1.
    9000005    1    1    2  501    0  0.95245892671E+02 -0.25261242436E+03  0.15124867889E+03  0.50572816797E+03  0.40000000000E+03 0. -1.
   -9000005    1    1    2    0  502 -0.95245892671E+02  0.25261242436E+03  0.16363133509E+04  0.17059912659E+04  0.40000000000E+03 0. -1.
<mgrwt>
<rscale>  2 0.48258141E+03</rscale>
<asrwt>0</asrwt>
<pdfrwt beam="1">  1       21 0.30763702E+00 0.48258141E+03</pdfrwt>
<pdfrwt beam="2">  1       21 0.32627494E-01 0.48258141E+03</pdfrwt>
<totfact> 0.21409691E+02</totfact>
</mgrwt>
</event>
<event>
 4    1  0.4774032E-002  0.4193193E+03  0.7818608E-02  0.1037288E+00
         21   -1    0    0  503  502  0.00000000000E+00  0.00000000000E+00  0.11872569682E+03  0.11872569682E+03  0.00000000000E+00 0. -1.
         21   -1    0    0  501  503 -0.00000000000E+00 -0.00000000000E+00 -0.15294653838E+04  0.15294653838E+04  0.00000000000E+00 0. -1.
    9000005    1    1    2  501    0  0.38576307099E+02 -0.11975190735E+03 -0.85211996520E+03  0.94970368320E+03  0.40000000000E+03 0. -1.
   -9000005    1    1    2    0  502 -0.38576307099E+02  0.11975190735E+03 -0.55861972174E+03  0.69848739738E+03  0.40000000000E+03 0. -1.
<mgrwt>
<rscale>  2 0.41931927E+03</rscale>
<asrwt>0</asrwt>
<pdfrwt beam="1">  1       21 0.18265493E-01 0.41931927E+03</pdfrwt>
<pdfrwt beam="2">  1       21 0.23530235E+00 0.41931927E+03</pdfrwt>
<totfact> 0.18813503E+03</totfact>
</mgrwt>
</event>
<event>
 4    1  0.4774032E-002  0.4283828E+03  0.7818608E-02  0.1034372E+00
         21   -1    0    0  503  502  0.00000000000E+00  0.00000000000E+00  0.26270300782E+03  0.26270300782E+03  0.00000000000E+00 0. -1.
         21   -1    0    0  501  503 -0.00000000000E+00 -0.00000000000E+00 -0.79414151830E+03  0.79414151830E+03  0.00000000000E+00 0. -1.
    9000005    1    1    2  501    0  0.11690302230E+03 -0.99224606366E+02 -0.44905037405E+03  0.62061105176E+03  0.40000000000E+03 0. -1.
   -9000005    1    1    2    0  502 -0.11690302230E+03  0.99224606366E+02 -0.82388136427E+02  0.43623347436E+03  0.40000000000E+03 0. -1.
<mgrwt>
<rscale>  2 0.42838282E+03</rscale>
<asrwt>0</asrwt>
<pdfrwt beam="1">  1       21 0.40415847E-01 0.42838282E+03</pdfrwt>
<pdfrwt beam="2">  1       21 0.12217562E+00 0.42838282E+03</pdfrwt>
<totfact> 0.25969912E+03</totfact>
</mgrwt>
</event>
<event>
 4    1  0.4774032E-002  0.4027646E+03  0.7818608E-02  0.1042827E+00
         21   -1    0    0  503  502  0.00000000000E+00  0.00000000000E+00  0.20504984199E+03  0.20504984199E+03  0.00000000000E+00 0. -1.
         21   -1    0    0  501  503 -0.00000000000E+00 -0.00000000000E+00 -0.15638970715E+04  0.15638970715E+04  0.00000000000E+00 0. -1.
    9000005    1    1    2  501    0 -0.47058169465E+02 -0.22031709293E+01 -0.13011616432E+04  0.13620722987E+04  0.40000000000E+03 0. -1.
   -9000005    1    1    2    0  502  0.47058169465E+02  0.22031709293E+01 -0.57685586344E+02  0.40687461477E+03  0.40000000000E+03 0. -1.
<mgrwt>
<rscale>  2 0.40276460E+03</rscale>
<asrwt>0</asrwt>
<pdfrwt beam="1">  1       21 0.31546129E-01 0.40276460E+03</pdfrwt>
<pdfrwt beam="2">  1       21 0.24059956E+00 0.40276460E+03</pdfrwt>
<totfact> 0.61099347E+02</totfact>
</mgrwt>
</event>
<event>
 4    1  0.4774032E-002  0.4183806E+03  0.7818608E-02  0.1037595E+00
         21   -1    0    0  503  502  0.00000000000E+00  0.00000000000E+00  0.10332182546E+04  0.10332182546E+04  0.00000000000E+00 0. -1.
         21   -1    0    0  501  503 -0.00000000000E+00 -0.00000000000E+00 -0.30725249864E+03  0.30725249864E+03  0.00000000000E+00 0. -1.
    9000005    1    1    2  501    0 -0.65255180151E+02 -0.10384637022E+03 -0.85931878327E+02  0.42711426440E+03  0.40000000000E+03 0. -1.
   -9000005    1    1    2    0  502  0.65255180151E+02  0.10384637022E+03  0.81189763429E+03  0.91335648885E+03  0.40000000000E+03 0. -1.
<mgrwt>
<rscale>  2 0.41838058E+03</rscale>
<asrwt>0</asrwt>
<pdfrwt beam="1">  1       21 0.15895665E+00 0.41838058E+03</pdfrwt>
<pdfrwt beam="2">  1       21 0.47269616E-01 0.41838058E+03</pdfrwt>
<totfact> 0.93662390E+02</totfact>
</mgrwt>
</event>
<event>
 4    1  0.4774032E-002  0.6397328E+03  0.7818608E-02  0.9826238E-01
         21   -1    0    0  503  502  0.00000000000E+00  0.00000000000E+00  0.27751702160E+03  0.27751702160E+03  0.00000000000E+00 0. -1.
         21   -1    0    0  501  503 -0.00000000000E+00 -0.00000000000E+00 -0.15318654483E+04  0.15318654483E+04  0.00000000000E+00 0. -1.
    9000005    1    1    2  501    0 -0.42558709776E+03  0.26102417777E+03 -0.80192009476E+03  0.10258332406E+04  0.40000000000E+03 0. -1.
   -9000005    1    1    2    0  502  0.42558709776E+03 -0.26102417777E+03 -0.45242833190E+03  0.78354922926E+03  0.40000000000E+03 0. -1.
<mgrwt>
<rscale>  2 0.63973276E+03</rscale>
<asrwt>0</asrwt>
<pdfrwt beam="1">  1       21 0.42694927E-01 0.63973276E+03</pdfrwt>
<pdfrwt beam="2">  1       21 0.23567161E+00 0.63973276E+03</pdfrwt>
<totfact> 0.31731767E+02</totfact>
</mgrwt>
</event>
<event>
 4    1  0.4774032E-002  0.5418988E+03  0.7818608E-02  0.1003387E+00
         21   -1    0    0  503  502  0.00000000000E+00  0.00000000000E+00  0.34980799027E+03  0.34980799027E+03  0.00000000000E+00 0.  1.
         21   -1    0    0  501  503 -0.00000000000E+00 -0.00000000000E+00 -0.22426139310E+04  0.22426139310E+04  0.00000000000E+00 0.  1.
    9000005    1    1    2  501    0 -0.35758340415E+03  0.76081733787E+02 -0.19716985783E+04  0.20448104080E+04  0.40000000000E+03 0.  1.
   -9000005    1    1    2    0  502  0.35758340415E+03 -0.76081733787E+02  0.78892637596E+02  0.54761151322E+03  0.40000000000E+03 0.  1.
<mgrwt>
<rscale>  2 0.54189881E+03</rscale>
<asrwt>0</asrwt>
<pdfrwt beam="1">  1       21 0.53816613E-01 0.54189881E+03</pdfrwt>
<pdfrwt beam="2">  1       21 0.34501754E+00 0.54189881E+03</pdfrwt>
<totfact> 0.43249847E+01</totfact>
</mgrwt>
</event>
<event>
 4    1  0.4774032E-002  0.4373366E+03  0.7818608E-02  0.1031567E+00
         21   -1    0    0  503  502  0.00000000000E+00  0.00000000000E+00  0.12362163220E+03  0.12362163220E+03  0.00000000000E+00 0. -1.
         21   -1    0    0  501  503 -0.00000000000E+00 -0.00000000000E+00 -0.15710569325E+04  0.15710569325E+04  0.00000000000E+00 0. -1.
    9000005    1    1    2  501    0 -0.16631833815E+03  0.60012535584E+02 -0.82820651271E+03  0.93658385728E+03  0.40000000000E+03 0. -1.
   -9000005    1    1    2    0  502  0.16631833815E+03 -0.60012535584E+02 -0.61922878758E+03  0.75809470741E+03  0.40000000000E+03 0. -1.
<mgrwt>
<rscale>  2 0.43733659E+03</rscale>
<asrwt>0</asrwt>
<pdfrwt beam="1">  1       21 0.19018715E-01 0.43733659E+03</pdfrwt>
<pdfrwt beam="2">  1       21 0.24170104E+00 0.43733659E+03</pdfrwt>
<totfact> 0.15770075E+03</totfact>
</mgrwt>
</event>
<event>
 4    1  0.4774032E-002  0.4255791E+03  0.7818608E-02  0.1035266E+00
         21   -1    0    0  501  502  0.00000000000E+00  0.00000000000E+00  0.33162891905E+03  0.33162891905E+03  0.00000000000E+00 0. -1.
         21   -1    0    0  502  503 -0.00000000000E+00 -0.00000000000E+00 -0.61321098049E+03  0.61321098049E+03  0.00000000000E+00 0.  1.
    9000005    1    1    2  501    0 -0.47728645570E+02  0.13725726242E+03  0.15442193068E+02  0.42585917980E+03  0.40000000000E+03 0. -1.
   -9000005    1    1    2    0  503  0.47728645570E+02 -0.13725726242E+03 -0.29702425451E+03  0.51898071974E+03  0.40000000000E+03 0.  1.
<mgrwt>
<rscale>  2 0.42557911E+03</rscale>
<asrwt>0</asrwt>
<pdfrwt beam="1">  1       21 0.51019834E-01 0.42557911E+03</pdfrwt>
<pdfrwt beam="2">  1       21 0.94340151E-01 0.42557911E+03</pdfrwt>
<totfact> 0.30189652E+03</totfact>
</mgrwt>
</event>
<event>
 4    1  0.4774032E-002  0.5195672E+03  0.7818608E-02  0.1008794E+00
         21   -1    0    0  501  502  0.00000000000E+00  0.00000000000E+00  0.43100232932E+03  0.43100232932E+03  0.00000000000E+00 0. -1.
         21   -1    0    0  502  503 -0.00000000000E+00 -0.00000000000E+00 -0.75734225803E+03  0.75734225803E+03  0.00000000000E+00 0.  1.
    9000005    1    1    2  501    0  0.30287646643E+03  0.13496627084E+03  0.83957427684E+02  0.52630684761E+03  0.40000000000E+03 0. -1.
   -9000005    1    1    2    0  503 -0.30287646643E+03 -0.13496627084E+03 -0.41029735639E+03  0.66203773974E+03  0.40000000000E+03 0.  1.
<mgrwt>
<rscale>  2 0.51956717E+03</rscale>
<asrwt>0</asrwt>
<pdfrwt beam="1">  1       21 0.66308052E-01 0.51956717E+03</pdfrwt>
<pdfrwt beam="2">  1       21 0.11651419E+00 0.51956717E+03</pdfrwt>
<totfact> 0.97956900E+02</totfact>
</mgrwt>
</event>
<event>
 4    1  0.4774032E-002  0.8153843E+03  0.7818608E-02  0.9538012E-01
         21   -1    0    0  501  502  0.00000000000E+00  0.00000000000E+00  0.10993170964E+04  0.10993170964E+04  0.00000000000E+00 0.  1.
         21   -1    0    0  502  503 -0.00000000000E+00 -0.00000000000E+00 -0.10751277222E+04  0.10751277222E+04  0.00000000000E+00 0. -1.
    9000005    1    1    2  501    0  0.53741182350E+03  0.46480106919E+03  0.73120439947E+03  0.10952220669E+04  0.40000000000E+03 0. -1.
   -9000005    1    1    2    0  503 -0.53741182350E+03 -0.46480106919E+03 -0.70701502520E+03  0.10792227517E+04  0.40000000000E+03 0.  1.
<mgrwt>
<rscale>  2 0.81538427E+03</rscale>
<asrwt>0</asrwt>
<pdfrwt beam="1">  1       21 0.16912571E+00 0.81538427E+03</pdfrwt>
<pdfrwt beam="2">  1       21 0.16540427E+00 0.81538427E+03</pdfrwt>
<totfact> 0.32898789E+01</totfact>
</mgrwt>
</event>
<event>
 4    1  0.4774032E-002  0.4026421E+03  0.7818608E-02  0.1042869E+00
         21   -1    0    0  503  502  0.00000000000E+00  0.00000000000E+00  0.16263386420E+04  0.16263386420E+04  0.00000000000E+00 0.  1.
         21   -1    0    0  501  503 -0.00000000000E+00 -0.00000000000E+00 -0.99838964189E+02  0.99838964189E+02  0.00000000000E+00 0.  1.
    9000005    1    1    2  501    0  0.24588487292E+02 -0.38936738954E+02  0.72929528674E+03  0.83306198965E+03  0.40000000000E+03 0.  1.
   -9000005    1    1    2    0  502 -0.24588487292E+02  0.38936738954E+02  0.79720439105E+03  0.89311561651E+03  0.40000000000E+03 0.  1.
<mgrwt>
<rscale>  2 0.40264210E+03</rscale>
<asrwt>0</asrwt>
<pdfrwt beam="1">  1       21 0.25020592E+00 0.40264210E+03</pdfrwt>
<pdfrwt beam="2">  1       21 0.15359842E-01 0.40264210E+03</pdfrwt>
<totfact> 0.21227782E+03</totfact>
</mgrwt>
</event>
<event>
 4    1  0.4774032E-002  0.4239905E+03  0.7818608E-02  0.1035775E+00
         21   -1    0    0  501  502  0.00000000000E+00  0.00000000000E+00  0.10944784638E+04  0.10944784638E+04  0.00000000000E+00 0. -1.
         21   -1    0    0  502  503 -0.00000000000E+00 -0.00000000000E+00 -0.18148769658E+03  0.18148769658E+03  0.00000000000E+00 0. -1.
    9000005    1    1    2  501    0 -0.12961530384E+03 -0.54477595940E+02  0.25987572627E+03  0.49729601703E+03  0.40000000000E+03 0.  1.
   -9000005    1    1    2    0  503  0.12961530384E+03  0.54477595940E+02  0.65311504098E+03  0.77867014339E+03  0.40000000000E+03 0.  1.
<mgrwt>
<rscale>  2 0.42399049E+03</rscale>
<asrwt>0</asrwt>
<pdfrwt beam="1">  1       21 0.16838130E+00 0.42399049E+03</pdfrwt>
<pdfrwt beam="2">  1       21 0.27921185E-01 0.42399049E+03</pdfrwt>
<totfact> 0.23187998E+03</totfact>
</mgrwt>
</event>
<event>
 4    1  0.4774032E-002  0.5545782E+03  0.7818608E-02  0.1000440E+00
         21   -1    0    0  503  502  0.00000000000E+00  0.00000000000E+00  0.50437099582E+03  0.50437099582E+03  0.00000000000E+00 0. -1.
         21   -1    0    0  501  503 -0.00000000000E+00 -0.00000000000E+00 -0.63490059412E+03  0.63490059412E+03  0.00000000000E+00 0. -1.
    9000005    1    1    2  501    0  0.31651580431E+03 -0.21765744235E+03  0.48035412742E+02  0.55665466626E+03  0.40000000000E+03 0. -1.
   -9000005    1    1    2    0  502 -0.31651580431E+03  0.21765744235E+03 -0.17856501104E+03  0.58261692368E+03  0.40000000000E+03 0. -1.
<mgrwt>
<rscale>  2 0.55457823E+03</rscale>
<asrwt>0</asrwt>
<pdfrwt beam="1">  1       21 0.77595538E-01 0.55457823E+03</pdfrwt>
<pdfrwt beam="2">  1       21 0.97677015E-01 0.55457823E+03</pdfrwt>
<totfact> 0.10483282E+03</totfact>
</mgrwt>
</event>
<event>
 4    1  0.4774032E-002  0.5193582E+03  0.7818608E-02  0.1008846E+00
         21   -1    0    0  501  502  0.00000000000E+00  0.00000000000E+00  0.73835904101E+03  0.73835904101E+03  0.00000000000E+00 0. -1.
         21   -1    0    0  502  503 -0.00000000000E+00 -0.00000000000E+00 -0.45160816703E+03  0.45160816703E+03  0.00000000000E+00 0. -1.
    9000005    1    1    2  501    0 -0.56475735772E+02  0.32640994751E+03 -0.11670913661E+03  0.53231004606E+03  0.40000000000E+03 0. -1.
   -9000005    1    1    2    0  503  0.56475735772E+02 -0.32640994751E+03  0.40346001058E+03  0.65765716198E+03  0.40000000000E+03 0. -1.
<mgrwt>
<rscale>  2 0.51935822E+03</rscale>
<asrwt>0</asrwt>
<pdfrwt beam="1">  1       21 0.11359370E+00 0.51935822E+03</pdfrwt>
<pdfrwt beam="2">  1       21 0.69478179E-01 0.51935822E+03</pdfrwt>
<totfact> 0.94011626E+02</totfact>
</mgrwt>
</event>
<event>
 4    1  0.4774032E-002  0.1527311E+04  0.7818608E-02  0.8866492E-01
         21   -1    0    0  503  502  0.00000000000E+00  0.00000000000E+00  0.21809841880E+04  0.21809841880E+04  0.00000000000E+00 0. -1.
         21   -1    0    0  501  503 -0.00000000000E+00 -0.00000000000E+00 -0.12559638663E+04  0.12559638663E+04  0.00000000000E+00 0.  1.
    9000005    1    1    2  501    0 -0.14343787543E+04  0.33946712411E+03 -0.19953689709E+03  0.15402906584E+04  0.40000000000E+03 0.  1.
   -9000005    1    1    2    0  502  0.14343787543E+04 -0.33946712411E+03  0.11245572188E+04  0.18966573959E+04  0.40000000000E+03 0. -1.
<mgrwt>
<rscale>  2 0.15273115E+04</rscale>
<asrwt>0</asrwt>
<pdfrwt beam="1">  1       21 0.33553603E+00 0.15273115E+04</pdfrwt>
<pdfrwt beam="2">  1       21 0.19322521E+00 0.15273115E+04</pdfrwt>
<totfact> 0.13793461E+00</totfact>
</mgrwt>
</event>
<event>
 4    1  0.4774032E-002  0.5154450E+03  0.7818608E-02  0.1009824E+00
         21   -1    0    0  501  502  0.00000000000E+00  0.00000000000E+00  0.80981479944E+03  0.80981479944E+03  0.00000000000E+00 0. -1.
         21   -1    0    0  502  503 -0.00000000000E+00 -0.00000000000E+00 -0.40158414465E+03  0.40158414465E+03  0.00000000000E+00 0. -1.
    9000005    1    1    2  501    0  0.12181846020E+03  0.30140305564E+03 -0.55020018859E+02  0.51837316835E+03  0.40000000000E+03 0. -1.
   -9000005    1    1    2    0  503 -0.12181846020E+03 -0.30140305564E+03  0.46325067365E+03  0.69302577573E+03  0.40000000000E+03 0. -1.
<mgrwt>
<rscale>  2 0.51544499E+03</rscale>
<asrwt>0</asrwt>
<pdfrwt beam="1">  1       21 0.12458689E+00 0.51544499E+03</pdfrwt>
<pdfrwt beam="2">  1       21 0.61782176E-01 0.51544499E+03</pdfrwt>
<totfact> 0.96741208E+02</totfact>
</mgrwt>
</event>
<event>
 4    1  0.4774032E-002  0.4999906E+03  0.7818608E-02  0.1013781E+00
         21   -1    0    0  501  502  0.00000000000E+00  0.00000000000E+00  0.16784033215E+04  0.16784033215E+04  0.00000000000E+00 0.  1.
         21   -1    0    0  502  503 -0.00000000000E+00 -0.00000000000E+00 -0.20019765083E+03  0.20019765083E+03  0.00000000000E+00 0. -1.
    9000005    1    1    2  501    0 -0.20279238405E+03 -0.22105624386E+03  0.12143626852E+04  0.13132659080E+04  0.40000000000E+03 0.  1.
   -9000005    1    1    2    0  503  0.20279238405E+03  0.22105624386E+03  0.26384298552E+03  0.56533506436E+03  0.40000000000E+03 0. -1.
<mgrwt>
<rscale>  2 0.49999061E+03</rscale>
<asrwt>0</asrwt>
<pdfrwt beam="1">  1       21 0.25821589E+00 0.49999061E+03</pdfrwt>
<pdfrwt beam="2">  1       21 0.30799640E-01 0.49999061E+03</pdfrwt>
<totfact> 0.47451076E+02</totfact>
</mgrwt>
</event>
<event>
 4    1  0.4774032E-002  0.6682787E+03  0.7818608E-02  0.9773072E-01
         21   -1    0    0  501  502  0.00000000000E+00  0.00000000000E+00  0.12936384374E+04  0.12936384374E+04  0.00000000000E+00 0. -1.
         21   -1    0    0  502  503 -0.00000000000E+00 -0.00000000000E+00 -0.51675346629E+03  0.51675346629E+03  0.00000000000E+00 0.  1.
    9000005    1    1    2  501    0  0.48339948595E+03 -0.23004642135E+03  0.90996002435E+03  0.11289923228E+04  0.40000000000E+03 0. -1.
   -9000005    1    1    2    0  503 -0.48339948595E+03  0.23004642135E+03 -0.13307505328E+03  0.68139958086E+03  0.40000000000E+03 0.  1.
<mgrwt>
<rscale>  2 0.66827870E+03</rscale>
<asrwt>0</asrwt>
<pdfrwt beam="1">  1       21 0.19902130E+00 0.66827870E+03</pdfrwt>
<pdfrwt beam="2">  1       21 0.79500533E-01 0.66827870E+03</pdfrwt>
<totfact> 0.13869853E+02</totfact>
</mgrwt>
</event>
<event>
 4    1  0.4774032E-002  0.4958662E+03  0.7818608E-02  0.1014864E+00
         21   -1    0    0  501  502  0.00000000000E+00  0.00000000000E+00  0.89181264798E+03  0.89181264798E+03  0.00000000000E+00 0.  1.
         21   -1    0    0  502  503 -0.00000000000E+00 -0.00000000000E+00 -0.49684074241E+03  0.49684074241E+03  0.00000000000E+00 0.  1.
    9000005    1    1    2  501    0  0.16171562975E+03 -0.24439999216E+03  0.66069605541E+03  0.82607661795E+03  0.40000000000E+03 0.  1.
   -9000005    1    1    2    0  503 -0.16171562975E+03  0.24439999216E+03 -0.26572414985E+03  0.56257677244E+03  0.40000000000E+03 0.  1.
<mgrwt>
<rscale>  2 0.49586621E+03</rscale>
<asrwt>0</asrwt>
<pdfrwt beam="1">  1       21 0.13720195E+00 0.49586621E+03</pdfrwt>
<pdfrwt beam="2">  1       21 0.76437037E-01 0.49586621E+03</pdfrwt>
<totfact> 0.46939397E+02</totfact>
</mgrwt>
</event>
<event>
 4    1  0.4774032E-002  0.4210842E+03  0.7818608E-02  0.1036714E+00
         21   -1    0    0  503  502  0.00000000000E+00  0.00000000000E+00  0.19361760208E+04  0.19361760208E+04  0.00000000000E+00 0.  1.
         21   -1    0    0  501  503 -0.00000000000E+00 -0.00000000000E+00 -0.10246562517E+03  0.10246562517E+03  0.00000000000E+00 0.  1.
    9000005    1    1    2  501    0 -0.66616542555E+02 -0.11346432138E+03  0.58459351611E+03  0.72045922511E+03  0.40000000000E+03 0.  1.
   -9000005    1    1    2    0  502  0.66616542555E+02  0.11346432138E+03  0.12491168795E+04  0.13181824208E+04  0.40000000000E+03 0.  1.
<mgrwt>
<rscale>  2 0.42108421E+03</rscale>
<asrwt>0</asrwt>
<pdfrwt beam="1">  1       21 0.29787321E+00 0.42108421E+03</pdfrwt>
<pdfrwt beam="2">  1       21 0.15763944E-01 0.42108421E+03</pdfrwt>
<totfact> 0.10332598E+03</totfact>
</mgrwt>
</event>
<event>
 4    1  0.4774032E-002  0.5084625E+03  0.7818608E-02  0.1011593E+00
         21   -1    0    0  503  502  0.00000000000E+00  0.00000000000E+00  0.77333303678E+03  0.77333303678E+03  0.00000000000E+00 0. -1.
         21   -1    0    0  501  503 -0.00000000000E+00 -0.00000000000E+00 -0.40705321801E+03  0.40705321801E+03  0.00000000000E+00 0. -1.
    9000005    1    1    2  501    0 -0.52111307794E+02 -0.30954571975E+03 -0.66354188722E+02  0.51277384818E+03  0.40000000000E+03 0. -1.
   -9000005    1    1    2    0  502  0.52111307794E+02  0.30954571975E+03  0.43263400750E+03  0.66761240661E+03  0.40000000000E+03 0. -1.
<mgrwt>
<rscale>  2 0.50846253E+03</rscale>
<asrwt>0</asrwt>
<pdfrwt beam="1">  1       21 0.11897431E+00 0.50846253E+03</pdfrwt>
<pdfrwt beam="2">  1       21 0.62623572E-01 0.50846253E+03</pdfrwt>
<totfact> 0.10594370E+03</totfact>
</mgrwt>
</event>
<event>
 4    1  0.4774032E-002  0.6167150E+03  0.7818608E-02  0.9871322E-01
         21   -1    0    0  503  502  0.00000000000E+00  0.00000000000E+00  0.17074017721E+04  0.17074017721E+04  0.00000000000E+00 0.  1.
         21   -1    0    0  501  503 -0.00000000000E+00 -0.00000000000E+00 -0.23182036704E+03  0.23182036704E+03  0.00000000000E+00 0.  1.
    9000005    1    1    2  501    0  0.42751457727E+03 -0.19382633885E+03  0.54608141049E+03  0.82373677245E+03  0.40000000000E+03 0.  1.
   -9000005    1    1    2    0  502 -0.42751457727E+03  0.19382633885E+03  0.92949999456E+03  0.11154853667E+04  0.40000000000E+03 0.  1.
<mgrwt>
<rscale>  2 0.61671498E+03</rscale>
<asrwt>0</asrwt>
<pdfrwt beam="1">  1       21 0.26267719E+00 0.61671498E+03</pdfrwt>
<pdfrwt beam="2">  1       21 0.35664673E-01 0.61671498E+03</pdfrwt>
<totfact> 0.31492060E+02</totfact>
</mgrwt>
</event>
<event>
 4    1  0.4774032E-002  0.4046092E+03  0.7818608E-02  0.1042195E+00
         21   -1    0    0  501  502  0.00000000000E+00  0.00000000000E+00  0.12728008621E+04  0.12728008621E+04  0.00000000000E+00 0. -1.
         21   -1    0    0  502  503 -0.00000000000E+00 -0.00000000000E+00 -0.25955198666E+03  0.25955198666E+03  0.00000000000E+00 0. -1.
    9000005    1    1    2  501    0  0.43291748738E+02  0.42830633342E+02  0.10507989443E+04  0.11260049112E+04  0.40000000000E+03 0. -1.
   -9000005    1    1    2    0  503 -0.43291748738E+02 -0.42830633342E+02 -0.37550068914E+02  0.40634793753E+03  0.40000000000E+03 0. -1.
<mgrwt>
<rscale>  2 0.40460924E+03</rscale>
<asrwt>0</asrwt>
<pdfrwt beam="1">  1       21 0.19581551E+00 0.40460924E+03</pdfrwt>
<pdfrwt beam="2">  1       21 0.39931075E-01 0.40460924E+03</pdfrwt>
<totfact> 0.73333446E+02</totfact>
</mgrwt>
</event>
<event>
 4    1  0.4774032E-002  0.4534488E+03  0.7818608E-02  0.1026699E+00
         21   -1    0    0  501  502  0.00000000000E+00  0.00000000000E+00  0.47881766401E+03  0.47881766401E+03  0.00000000000E+00 0. -1.
         21   -1    0    0  502  503 -0.00000000000E+00 -0.00000000000E+00 -0.62562106589E+03  0.62562106589E+03  0.00000000000E+00 0. -1.
    9000005    1    1    2  501    0  0.12058910277E+02 -0.21323790178E+03  0.23584291706E+03  0.51111417668E+03  0.40000000000E+03 0. -1.
   -9000005    1    1    2    0  503 -0.12058910277E+02  0.21323790178E+03 -0.38264631894E+03  0.59332455323E+03  0.40000000000E+03 0. -1.
<mgrwt>
<rscale>  2 0.45344881E+03</rscale>
<asrwt>0</asrwt>
<pdfrwt beam="1">  1       21 0.73664256E-01 0.45344881E+03</pdfrwt>
<pdfrwt beam="2">  1       21 0.96249394E-01 0.45344881E+03</pdfrwt>
<totfact> 0.12689715E+03</totfact>
</mgrwt>
</event>
<event>
 4    1  0.4774032E-002  0.4401561E+03  0.7818608E-02  0.1030699E+00
         21   -1    0    0  503  502  0.00000000000E+00  0.00000000000E+00  0.55798677071E+03  0.55798677071E+03  0.00000000000E+00 0. -1.
         21   -1    0    0  501  503 -0.00000000000E+00 -0.00000000000E+00 -0.48230719247E+03  0.48230719247E+03  0.00000000000E+00 0. -1.
    9000005    1    1    2  501    0 -0.14753714759E+02  0.18308393140E+03 -0.23745044125E+03  0.50012009567E+03  0.40000000000E+03 0. -1.
   -9000005    1    1    2    0  502  0.14753714759E+02 -0.18308393140E+03  0.31313001949E+03  0.54017386751E+03  0.40000000000E+03 0. -1.
<mgrwt>
<rscale>  2 0.44015611E+03</rscale>
<asrwt>0</asrwt>
<pdfrwt beam="1">  1       21 0.85844118E-01 0.44015611E+03</pdfrwt>
<pdfrwt beam="2">  1       21 0.74201107E-01 0.44015611E+03</pdfrwt>
<totfact> 0.16462333E+03</totfact>
</mgrwt>
</event>
<event>
 4    1  0.4774032E-002  0.7110428E+03  0.7818608E-02  0.9698532E-01
         21   -1    0    0  503  502  0.00000000000E+00  0.00000000000E+00  0.14262001637E+04  0.14262001637E+04  0.00000000000E+00 0. -1.
         21   -1    0    0  501  503 -0.00000000000E+00 -0.00000000000E+00 -0.94234439242E+03  0.94234439242E+03  0.00000000000E+00 0.  1.
    9000005    1    1    2  501    0  0.55433767059E+03  0.19568247488E+03 -0.69343363784E+03  0.99319287860E+03  0.40000000000E+03 0.  1.
   -9000005    1    1    2    0  502 -0.55433767059E+03 -0.19568247488E+03  0.11772894091E+04  0.13753516775E+04  0.40000000000E+03 0. -1.
<mgrwt>
<rscale>  2 0.71104281E+03</rscale>
<asrwt>0</asrwt>
<pdfrwt beam="1">  1       21 0.21941541E+00 0.71104281E+03</pdfrwt>
<pdfrwt beam="2">  1       21 0.14497606E+00 0.71104281E+03</pdfrwt>
<totfact> 0.22142532E+01</totfact>
</mgrwt>
</event>
<event>
 4    1  0.4774032E-002  0.4226438E+03  0.7818608E-02  0.1036209E+00
         21   -1    0    0  501  502  0.00000000000E+00  0.00000000000E+00  0.87735708013E+03  0.87735708013E+03  0.00000000000E+00 0.  1.
         21   -1    0    0  502  503 -0.00000000000E+00 -0.00000000000E+00 -0.24443627597E+03  0.24443627597E+03  0.00000000000E+00 0.  1.
    9000005    1    1    2  501    0  0.31144262203E+02 -0.13288277011E+03  0.54572440270E+03  0.69024844757E+03  0.40000000000E+03 0.  1.
   -9000005    1    1    2    0  503 -0.31144262203E+02  0.13288277011E+03  0.87196401455E+02  0.43154490854E+03  0.40000000000E+03 0.  1.
<mgrwt>
<rscale>  2 0.42264382E+03</rscale>
<asrwt>0</asrwt>
<pdfrwt beam="1">  1       21 0.13497801E+00 0.42264382E+03</pdfrwt>
<pdfrwt beam="2">  1       21 0.37605581E-01 0.42264382E+03</pdfrwt>
<totfact> 0.23325469E+03</totfact>
</mgrwt>
</event>
<event>
 4    1  0.4774032E-002  0.8014172E+03  0.7818608E-02  0.9557968E-01
         21   -1    0    0  501  502  0.00000000000E+00  0.00000000000E+00  0.10716178149E+04  0.10716178149E+04  0.00000000000E+00 0. -1.
         21   -1    0    0  502  503 -0.00000000000E+00 -0.00000000000E+00 -0.76628119906E+03  0.76628119906E+03  0.00000000000E+00 0.  1.
    9000005    1    1    2  501    0 -0.43831747887E+03  0.53865318773E+03  0.58158405125E+03  0.99020678528E+03  0.40000000000E+03 0. -1.
   -9000005    1    1    2    0  503  0.43831747887E+03 -0.53865318773E+03 -0.27624743544E+03  0.84769222866E+03  0.40000000000E+03 0.  1.
<mgrwt>
<rscale>  2 0.80141716E+03</rscale>
<asrwt>0</asrwt>
<pdfrwt beam="1">  1       21 0.16486428E+00 0.80141716E+03</pdfrwt>
<pdfrwt beam="2">  1       21 0.11788942E+00 0.80141716E+03</pdfrwt>
<totfact> 0.89060005E+01</totfact>
</mgrwt>
</event>
<event>
 4    1  0.4774032E-002  0.4458237E+03  0.7818608E-02  0.1028975E+00
         21   -1    0    0  501  502  0.00000000000E+00  0.00000000000E+00  0.15185770684E+03  0.15185770684E+03  0.00000000000E+00 0.  1.
         21   -1    0    0  502  503 -0.00000000000E+00 -0.00000000000E+00 -0.18714184305E+04  0.18714184305E+04  0.00000000000E+00 0.  1.
    9000005    1    1    2  501    0  0.19684224510E+03  0.34513072846E+01 -0.30511908721E+03  0.54023739075E+03  0.40000000000E+03 0.  1.
   -9000005    1    1    2    0  503 -0.19684224510E+03 -0.34513072846E+01 -0.14144416364E+04  0.14830387466E+04  0.40000000000E+03 0.  1.
<mgrwt>
<rscale>  2 0.44582371E+03</rscale>
<asrwt>0</asrwt>
<pdfrwt beam="1">  1       21 0.23362726E-01 0.44582371E+03</pdfrwt>
<pdfrwt beam="2">  1       21 0.28791051E+00 0.44582371E+03</pdfrwt>
<totfact> 0.55491525E+02</totfact>
</mgrwt>
</event>
<event>
 4    1  0.4774032E-002  0.4408607E+03  0.7818608E-02  0.1030483E+00
         21   -1    0    0  501  502  0.00000000000E+00  0.00000000000E+00  0.47479355161E+03  0.47479355161E+03  0.00000000000E+00 0. -1.
         21   -1    0    0  502  503 -0.00000000000E+00 -0.00000000000E+00 -0.56393365916E+03  0.56393365916E+03  0.00000000000E+00 0. -1.
    9000005    1    1    2  501    0 -0.35052346282E+02  0.18201519237E+03  0.22734608578E+03  0.49602866848E+03  0.40000000000E+03 0. -1.
   -9000005    1    1    2    0  503  0.35052346282E+02 -0.18201519237E+03 -0.31648619333E+03  0.54269854229E+03  0.40000000000E+03 0. -1.
<mgrwt>
<rscale>  2 0.44086075E+03</rscale>
<asrwt>0</asrwt>
<pdfrwt beam="1">  1       21 0.73045162E-01 0.44086075E+03</pdfrwt>
<pdfrwt beam="2">  1       21 0.86759024E-01 0.44086075E+03</pdfrwt>
<totfact> 0.16636493E+03</totfact>
</mgrwt>
</event>
<event>
 4    1  0.4774032E-002  0.4312112E+03  0.7818608E-02  0.1033478E+00
         21   -1    0    0  501  502  0.00000000000E+00  0.00000000000E+00  0.35738968066E+03  0.35738968066E+03  0.00000000000E+00 0.  1.
         21   -1    0    0  502  503 -0.00000000000E+00 -0.00000000000E+00 -0.60725183766E+03  0.60725183766E+03  0.00000000000E+00 0. -1.
    9000005    1    1    2  501    0 -0.15682226871E+03  0.36740267262E+02 -0.30746277358E+03  0.52960025334E+03  0.40000000000E+03 0. -1.
   -9000005    1    1    2    0  503  0.15682226871E+03 -0.36740267262E+02  0.57600616576E+02  0.43504126498E+03  0.40000000000E+03 0.  1.
<mgrwt>
<rscale>  2 0.43121117E+03</rscale>
<asrwt>0</asrwt>
<pdfrwt beam="1">  1       21 0.54983029E-01 0.43121117E+03</pdfrwt>
<pdfrwt beam="2">  1       21 0.93423358E-01 0.43121117E+03</pdfrwt>
<totfact> 0.26267220E+03</totfact>
</mgrwt>
</event>
<event>
 4    1  0.4774032E-002  0.4445300E+03  0.7818608E-02  0.1029366E+00
         21   -1    0    0  501  502  0.00000000000E+00  0.00000000000E+00  0.47678642686E+03  0.47678642686E+03  0.00000000000E+00 0. -1.
         21   -1    0    0  502  503 -0.00000000000E+00 -0.00000000000E+00 -0.51012237494E+03  0.51012237494E+03  0.00000000000E+00 0.  1.
    9000005    1    1    2  501    0 -0.19391228153E+03 -0.22235581733E+01  0.19702481689E+03  0.48623625493E+03  0.40000000000E+03 0. -1.
   -9000005    1    1    2    0  503  0.19391228153E+03  0.22235581733E+01 -0.23036076498E+03  0.50067254686E+03  0.40000000000E+03 0.  1.
<mgrwt>
<rscale>  2 0.44453000E+03</rscale>
<asrwt>0</asrwt>
<pdfrwt beam="1">  1       21 0.73351758E-01 0.44453000E+03</pdfrwt>
<pdfrwt beam="2">  1       21 0.78480365E-01 0.44453000E+03</pdfrwt>
<totfact> 0.20775643E+03</totfact>
</mgrwt>
</event>
<event>
 4    1  0.4774032E-002  0.4712292E+03  0.7818608E-02  0.1021574E+00
         21   -1    0    0  503  502  0.00000000000E+00  0.00000000000E+00  0.28984421852E+03  0.28984421852E+03  0.00000000000E+00 0. -1.
         21   -1    0    0  501  503 -0.00000000000E+00 -0.00000000000E+00 -0.87930672666E+03  0.87930672666E+03  0.00000000000E+00 0.  1.
    9000005    1    1    2  501    0  0.64036807221E+01  0.24903006278E+03 -0.50446003719E+03  0.69031652770E+03  0.40000000000E+03 0.  1.
   -9000005    1    1    2    0  502 -0.64036807221E+01 -0.24903006278E+03 -0.85002470954E+02  0.47883441748E+03  0.40000000000E+03 0. -1.
<mgrwt>
<rscale>  2 0.47122922E+03</rscale>
<asrwt>0</asrwt>
<pdfrwt beam="1">  1       21 0.44591419E-01 0.47122922E+03</pdfrwt>
<pdfrwt beam="2">  1       21 0.13527796E+00 0.47122922E+03</pdfrwt>
<totfact> 0.15997748E+03</totfact>
</mgrwt>
</event>
<event>
 4    1  0.4774032E-002  0.4346169E+03  0.7818608E-02  0.1032411E+00
         21   -1    0    0  503  502  0.00000000000E+00  0.00000000000E+00  0.46437061646E+03  0.46437061646E+03  0.00000000000E+00 0. -1.
         21   -1    0    0  501  503 -0.00000000000E+00 -0.00000000000E+00 -0.57382741663E+03  0.57382741663E+03  0.00000000000E+00 0.  1.
    9000005    1    1    2  501    0 -0.14524319047E+03 -0.88296676404E+02 -0.33481533721E+03  0.54862846943E+03  0.40000000000E+03 0.  1.
   -9000005    1    1    2    0  502  0.14524319047E+03  0.88296676404E+02  0.22535853704E+03  0.48956956365E+03  0.40000000000E+03 0. -1.
<mgrwt>
<rscale>  2 0.43461694E+03</rscale>
<asrwt>0</asrwt>
<pdfrwt beam="1">  1       21 0.71441634E-01 0.43461694E+03</pdfrwt>
<pdfrwt beam="2">  1       21 0.88281141E-01 0.43461694E+03</pdfrwt>
<totfact> 0.16833839E+03</totfact>
</mgrwt>
</event>
<event>
 4    1  0.4774032E-002  0.4131353E+03  0.7818608E-02  0.1039324E+00
         21   -1    0    0  503  502  0.00000000000E+00  0.00000000000E+00  0.12191919202E+04  0.12191919202E+04  0.00000000000E+00 0.  1.
         21   -1    0    0  501  503 -0.00000000000E+00 -0.00000000000E+00 -0.24167408822E+03  0.24167408822E+03  0.00000000000E+00 0.  1.
    9000005    1    1    2  501    0 -0.89910980010E+02  0.50958868931E+02  0.14974104179E+02  0.41340659700E+03  0.40000000000E+03 0.  1.
   -9000005    1    1    2    0  502  0.89910980010E+02 -0.50958868931E+02  0.96254372781E+03  0.10474594114E+04  0.40000000000E+03 0.  1.
<mgrwt>
<rscale>  2 0.41313532E+03</rscale>
<asrwt>0</asrwt>
<pdfrwt beam="1">  1       21 0.18756798E+00 0.41313532E+03</pdfrwt>
<pdfrwt beam="2">  1       21 0.37180630E-01 0.41313532E+03</pdfrwt>
<totfact> 0.96103441E+02</totfact>
</mgrwt>
</event>
<event>
 4    1  0.4774032E-002  0.4468242E+03  0.7818608E-02  0.1028673E+00
         21   -1    0    0  503  502  0.00000000000E+00  0.00000000000E+00  0.61458275635E+03  0.61458275635E+03  0.00000000000E+00 0.  1.
         21   -1    0    0  501  503 -0.00000000000E+00 -0.00000000000E+00 -0.35201043550E+03  0.35201043550E+03  0.00000000000E+00 0.  1.
    9000005    1    1    2  501    0 -0.28710656735E+02 -0.19704715454E+03  0.26551428219E+03  0.51975928752E+03  0.40000000000E+03 0.  1.
   -9000005    1    1    2    0  502  0.28710656735E+02  0.19704715454E+03 -0.29419613437E+01  0.44683390433E+03  0.40000000000E+03 0.  1.
<mgrwt>
<rscale>  2 0.44682422E+03</rscale>
<asrwt>0</asrwt>
<pdfrwt beam="1">  1       21 0.94551193E-01 0.44682422E+03</pdfrwt>
<pdfrwt beam="2">  1       21 0.54155452E-01 0.44682422E+03</pdfrwt>
<totfact> 0.26220028E+03</totfact>
</mgrwt>
</event>
<event>
 4    1  0.4774032E-002  0.5239933E+03  0.7818608E-02  0.1007699E+00
         21   -1    0    0  501  502  0.00000000000E+00  0.00000000000E+00  0.26704408454E+03  0.26704408454E+03  0.00000000000E+00 0. -1.
         21   -1    0    0  502  503 -0.00000000000E+00 -0.00000000000E+00 -0.12122311803E+04  0.12122311803E+04  0.00000000000E+00 0. -1.
    9000005    1    1    2  501    0 -0.15291025532E+03 -0.30197250378E+03 -0.18439117275E+03  0.55548991333E+03  0.40000000000E+03 0. -1.
   -9000005    1    1    2    0  503  0.15291025532E+03  0.30197250378E+03 -0.76079592298E+03  0.92378535149E+03  0.40000000000E+03 0. -1.
<mgrwt>
<rscale>  2 0.52399326E+03</rscale>
<asrwt>0</asrwt>
<pdfrwt beam="1">  1       21 0.41083705E-01 0.52399326E+03</pdfrwt>
<pdfrwt beam="2">  1       21 0.18649710E+00 0.52399326E+03</pdfrwt>
<totfact> 0.75835869E+02</totfact>
</mgrwt>
</event>
<event>
 4    1  0.4774032E-002  0.6714055E+03  0.7818608E-02  0.9767422E-01
         21   -1    0    0  501  502  0.00000000000E+00  0.00000000000E+00  0.66035955885E+03  0.66035955885E+03  0.00000000000E+00 0.  1.
         21   -1    0    0  502  503 -0.00000000000E+00 -0.00000000000E+00 -0.69095419333E+03  0.69095419333E+03  0.00000000000E+00 0. -1.
    9000005    1    1    2  501    0  0.47197252791E+03  0.26082040214E+03 -0.89430131151E+02  0.67733529188E+03  0.40000000000E+03 0.  1.
   -9000005    1    1    2    0  503 -0.47197252791E+03 -0.26082040214E+03  0.58835496667E+02  0.67397846029E+03  0.40000000000E+03 0. -1.
<mgrwt>
<rscale>  2 0.67140550E+03</rscale>
<asrwt>0</asrwt>
<pdfrwt beam="1">  1       21 0.10159378E+00 0.67140550E+03</pdfrwt>
<pdfrwt beam="2">  1       21 0.10630064E+00 0.67140550E+03</pdfrwt>
<totfact> 0.43205334E+02</totfact>
</mgrwt>
</event>
<event>
 4    1  0.4774032E-002  0.5961439E+03  0.7818608E-02  0.9913439E-01
         21   -1    0    0  503  502  0.00000000000E+00  0.00000000000E+00  0.16676310517E+04  0.16676310517E+04  0.00000000000E+00 0.  1.
         21   -1    0    0  501  503 -0.00000000000E+00 -0.00000000000E+00 -0.21318012114E+03  0.21318012114E+03  0.00000000000E+00 0.  1.
    9000005    1    1    2  501    0 -0.29973488596E+03  0.32487926803E+03  0.71007442278E+03  0.92714250606E+03  0.40000000000E+03 0.  1.
   -9000005    1    1    2    0  502  0.29973488596E+03 -0.32487926803E+03  0.74437650779E+03  0.95366866679E+03  0.40000000000E+03 0.  1.
<mgrwt>
<rscale>  2 0.59614389E+03</rscale>
<asrwt>0</asrwt>
<pdfrwt beam="1">  1       21 0.25655862E+00 0.59614389E+03</pdfrwt>
<pdfrwt beam="2">  1       21 0.32796943E-01 0.59614389E+03</pdfrwt>
<totfact> 0.41056109E+02</totfact>
</mgrwt>
</event>
<event>
 4    1  0.4774032E-002  0.5438182E+03  0.7818608E-02  0.1002935E+00
         21   -1    0    0  501  502  0.00000000000E+00  0.00000000000E+00  0.15609840064E+04  0.15609840064E+04  0.00000000000E+00 0.  1.
         21   -1    0    0  502  503 -0.00000000000E+00 -0.00000000000E+00 -0.23068343868E+03  0.23068343868E+03  0.00000000000E+00 0. -1.
    9000005    1    1    2  501    0 -0.35057405974E+03  0.11329633449E+03  0.10438638607E+04  0.11770259090E+04  0.40000000000E+03 0.  1.
   -9000005    1    1    2    0  503  0.35057405974E+03 -0.11329633449E+03  0.28643670705E+03  0.61464153612E+03  0.40000000000E+03 0. -1.
<mgrwt>
<rscale>  2 0.54381820E+03</rscale>
<asrwt>0</asrwt>
<pdfrwt beam="1">  1       21 0.24015138E+00 0.54381820E+03</pdfrwt>
<pdfrwt beam="2">  1       21 0.35489761E-01 0.54381820E+03</pdfrwt>
<totfact> 0.45231109E+02</totfact>
</mgrwt>
</event>
<event>
 4    1  0.4774032E-002  0.4110123E+03  0.7818608E-02  0.1040032E+00
         21   -1    0    0  501  502  0.00000000000E+00  0.00000000000E+00  0.97242445696E+03  0.97242445696E+03  0.00000000000E+00 0.  1.
         21   -1    0    0  502  503 -0.00000000000E+00 -0.00000000000E+00 -0.31161008158E+03  0.31161008158E+03  0.00000000000E+00 0.  1.
    9000005    1    1    2  501    0 -0.57196170388E+01 -0.94331229537E+02  0.75748303937E+03  0.86180719991E+03  0.40000000000E+03 0.  1.
   -9000005    1    1    2    0  503  0.57196170388E+01  0.94331229537E+02 -0.96668663991E+02  0.42222733863E+03  0.40000000000E+03 0.  1.
<mgrwt>
<rscale>  2 0.41101228E+03</rscale>
<asrwt>0</asrwt>
<pdfrwt beam="1">  1       21 0.14960376E+00 0.41101228E+03</pdfrwt>
<pdfrwt beam="2">  1       21 0.47940013E-01 0.41101228E+03</pdfrwt>
<totfact> 0.10770386E+03</totfact>
</mgrwt>
</event>
<event>
 4    1  0.4774032E-002  0.4830372E+03  0.7818608E-02  0.1018304E+00
         21   -1    0    0  501  502  0.00000000000E+00  0.00000000000E+00  0.41426195994E+03  0.41426195994E+03  0.00000000000E+00 0.  1.
         21   -1    0    0  502  503 -0.00000000000E+00 -0.00000000000E+00 -0.10686762447E+04  0.10686762447E+04  0.00000000000E+00 0.  1.
    9000005    1    1    2  501    0  0.24787566491E+03 -0.10900739653E+03  0.18271898687E+03  0.51644088327E+03  0.40000000000E+03 0.  1.
   -9000005    1    1    2    0  503 -0.24787566491E+03  0.10900739653E+03 -0.83713327163E+03  0.96649732137E+03  0.40000000000E+03 0.  1.
<mgrwt>
<rscale>  2 0.48303722E+03</rscale>
<asrwt>0</asrwt>
<pdfrwt beam="1">  1       21 0.63732609E-01 0.48303722E+03</pdfrwt>
<pdfrwt beam="2">  1       21 0.16441173E+00 0.48303722E+03</pdfrwt>
<totfact> 0.43394042E+02</totfact>
</mgrwt>
</event>
<event>
 4    1  0.4774032E-002  0.5794025E+03  0.7818608E-02  0.9949085E-01
         21   -1    0    0  503  502  0.00000000000E+00  0.00000000000E+00  0.24151287467E+03  0.24151287467E+03  0.00000000000E+00 0.  1.
         21   -1    0    0  501  503 -0.00000000000E+00 -0.00000000000E+00 -0.21150805534E+04  0.21150805534E+04  0.00000000000E+00 0.  1.
    9000005    1    1    2  501    0 -0.30107351787E+02 -0.41809187548E+03 -0.16266723564E+04  0.17267803056E+04  0.40000000000E+03 0.  1.
   -9000005    1    1    2    0  502  0.30107351787E+02  0.41809187548E+03 -0.24689532234E+03  0.62981312241E+03  0.40000000000E+03 0.  1.
<mgrwt>
<rscale>  2 0.57940251E+03</rscale>
<asrwt>0</asrwt>
<pdfrwt beam="1">  1       21 0.37155827E-01 0.57940251E+03</pdfrwt>
<pdfrwt beam="2">  1       21 0.32539700E+00 0.57940251E+03</pdfrwt>
<totfact> 0.12189289E+02</totfact>
</mgrwt>
</event>
<event>
 4    1  0.4774032E-002  0.5996184E+03  0.7818608E-02  0.9906198E-01
         21   -1    0    0  503  502  0.00000000000E+00  0.00000000000E+00  0.20471378773E+03  0.20471378773E+03  0.00000000000E+00 0. -1.
         21   -1    0    0  501  503 -0.00000000000E+00 -0.00000000000E+00 -0.17682071526E+04  0.17682071526E+04  0.00000000000E+00 0. -1.
    9000005    1    1    2  501    0  0.43622315580E+03  0.96184937207E+02 -0.86264093907E+03  0.10505672628E+04  0.40000000000E+03 0.  1.
   -9000005    1    1    2    0  502 -0.43622315580E+03 -0.96184937207E+02 -0.70085242580E+03  0.92235367758E+03  0.40000000000E+03 0.  1.
<mgrwt>
<rscale>  2 0.59961837E+03</rscale>
<asrwt>0</asrwt>
<pdfrwt beam="1">  1       21 0.31494429E-01 0.59961837E+03</pdfrwt>
<pdfrwt beam="2">  1       21 0.27203187E+00 0.59961837E+03</pdfrwt>
<totfact> 0.35729887E+02</totfact>
</mgrwt>
</event>
<event>
 4    1  0.4774032E-002  0.5174512E+03  0.7818608E-02  0.1009322E+00
         21   -1    0    0  501  502  0.00000000000E+00  0.00000000000E+00  0.12204843083E+04  0.12204843083E+04  0.00000000000E+00 0. -1.
         21   -1    0    0  502  503 -0.00000000000E+00 -0.00000000000E+00 -0.22007701970E+03  0.22007701970E+03  0.00000000000E+00 0.  1.
    9000005    1    1    2  501    0  0.27521451821E+03  0.17892098361E+03  0.45980886904E+03  0.69222824665E+03  0.40000000000E+03 0. -1.
   -9000005    1    1    2    0  503 -0.27521451821E+03 -0.17892098361E+03  0.54059841951E+03  0.74833308131E+03  0.40000000000E+03 0. -1.
<mgrwt>
<rscale>  2 0.51745120E+03</rscale>
<asrwt>0</asrwt>
<pdfrwt beam="1">  1       21 0.18776681E+00 0.51745120E+03</pdfrwt>
<pdfrwt beam="2">  1       21 0.33858004E-01 0.51745120E+03</pdfrwt>
<totfact> 0.11069506E+03</totfact>
</mgrwt>
</event>
<event>
 4    1  0.4774032E-002  0.4999816E+03  0.7818608E-02  0.1013784E+00
         21   -1    0    0  503  502  0.00000000000E+00  0.00000000000E+00  0.29049347515E+03  0.29049347515E+03  0.00000000000E+00 0.  1.
         21   -1    0    0  501  503 -0.00000000000E+00 -0.00000000000E+00 -0.93048148051E+03  0.93048148051E+03  0.00000000000E+00 0.  1.
    9000005    1    1    2  501    0  0.13815267657E+03  0.26626192562E+03 -0.48736757448E+03  0.69821825222E+03  0.40000000000E+03 0.  1.
   -9000005    1    1    2    0  502 -0.13815267657E+03 -0.26626192562E+03 -0.15262043088E+03  0.52275670345E+03  0.40000000000E+03 0.  1.
<mgrwt>
<rscale>  2 0.49998157E+03</rscale>
<asrwt>0</asrwt>
<pdfrwt beam="1">  1       21 0.44691304E-01 0.49998157E+03</pdfrwt>
<pdfrwt beam="2">  1       21 0.14315100E+00 0.49998157E+03</pdfrwt>
<totfact> 0.13550447E+03</totfact>
</mgrwt>
</event>
<event>
 4    1  0.4774032E-002  0.5442121E+03  0.7818608E-02  0.1002843E+00
         21   -1    0    0  501  502  0.00000000000E+00  0.00000000000E+00  0.51416657920E+03  0.51416657920E+03  0.00000000000E+00 0. -1.
         21   -1    0    0  502  503 -0.00000000000E+00 -0.00000000000E+00 -0.63594806682E+03  0.63594806682E+03  0.00000000000E+00 0. -1.
    9000005    1    1    2  501    0 -0.36521867592E+03  0.52746149288E+02 -0.23742922013E+03  0.59375034491E+03  0.40000000000E+03 0. -1.
   -9000005    1    1    2    0  503  0.36521867592E+03 -0.52746149288E+02  0.11564773250E+03  0.55636430110E+03  0.40000000000E+03 0. -1.
<mgrwt>
<rscale>  2 0.54421213E+03</rscale>
<asrwt>0</asrwt>
<pdfrwt beam="1">  1       21 0.79102552E-01 0.54421213E+03</pdfrwt>
<pdfrwt beam="2">  1       21 0.97838163E-01 0.54421213E+03</pdfrwt>
<totfact> 0.10021788E+03</totfact>
</mgrwt>
</event>
<event>
 4    1  0.4774032E-002  0.5024940E+03  0.7818608E-02  0.1013130E+00
         21   -1    0    0  503  502  0.00000000000E+00  0.00000000000E+00  0.15218430322E+03  0.15218430322E+03  0.00000000000E+00 0. -1.
         21   -1    0    0  501  503 -0.00000000000E+00 -0.00000000000E+00 -0.18576700263E+04  0.18576700263E+04  0.00000000000E+00 0. -1.
    9000005    1    1    2  501    0  0.21558158262E+03 -0.21453385721E+03 -0.11812361700E+04  0.12836740568E+04  0.40000000000E+03 0. -1.
   -9000005    1    1    2    0  502 -0.21558158262E+03  0.21453385721E+03 -0.52424955308E+03  0.72618027277E+03  0.40000000000E+03 0. -1.
<mgrwt>
<rscale>  2 0.50249397E+03</rscale>
<asrwt>0</asrwt>
<pdfrwt beam="1">  1       21 0.23412971E-01 0.50249397E+03</pdfrwt>
<pdfrwt beam="2">  1       21 0.28579538E+00 0.50249397E+03</pdfrwt>
<totfact> 0.55231120E+02</totfact>
</mgrwt>
</event>
<event>
 4    1  0.4774032E-002  0.4037963E+03  0.7818608E-02  0.1042473E+00
         21   -1    0    0  503  502  0.00000000000E+00  0.00000000000E+00  0.30705528997E+03  0.30705528997E+03  0.00000000000E+00 0. -1.
         21   -1    0    0  501  503 -0.00000000000E+00 -0.00000000000E+00 -0.53455222075E+03  0.53455222075E+03  0.00000000000E+00 0. -1.
    9000005    1    1    2  501    0  0.46224918910E+02  0.30244553925E+02 -0.14797109355E+03  0.43005455549E+03  0.40000000000E+03 0. -1.
   -9000005    1    1    2    0  502 -0.46224918910E+02 -0.30244553925E+02 -0.79525837231E+02  0.41155295523E+03  0.40000000000E+03 0. -1.
<mgrwt>
<rscale>  2 0.40379633E+03</rscale>
<asrwt>0</asrwt>
<pdfrwt beam="1">  1       21 0.47239276E-01 0.40379633E+03</pdfrwt>
<pdfrwt beam="2">  1       21 0.82238802E-01 0.40379633E+03</pdfrwt>
<totfact> 0.49485768E+03</totfact>
</mgrwt>
</event>
<event>
 4    1  0.4774032E-002  0.4271720E+03  0.7818608E-02  0.1034757E+00
         21   -1    0    0  501  502  0.00000000000E+00  0.00000000000E+00  0.76895882010E+03  0.76895882010E+03  0.00000000000E+00 0. -1.
         21   -1    0    0  502  503 -0.00000000000E+00 -0.00000000000E+00 -0.25922439160E+03  0.25922439160E+03  0.00000000000E+00 0. -1.
    9000005    1    1    2  501    0  0.14638437132E+03  0.32365903800E+02  0.40436697323E+03  0.58820794362E+03  0.40000000000E+03 0. -1.
   -9000005    1    1    2    0  503 -0.14638437132E+03 -0.32365903800E+02  0.10536745527E+03  0.43997526808E+03  0.40000000000E+03 0. -1.
<mgrwt>
<rscale>  2 0.42717202E+03</rscale>
<asrwt>0</asrwt>
<pdfrwt beam="1">  1       21 0.11830136E+00 0.42717202E+03</pdfrwt>
<pdfrwt beam="2">  1       21 0.39880676E-01 0.42717202E+03</pdfrwt>
<totfact> 0.28987125E+03</totfact>
</mgrwt>
</event>
<event>
 4    1  0.4774032E-002  0.4430951E+03  0.7818608E-02  0.1029801E+00
         21   -1    0    0  503  502  0.00000000000E+00  0.00000000000E+00  0.60141524963E+03  0.60141524963E+03  0.00000000000E+00 0.  1.
         21   -1    0    0  501  503 -0.00000000000E+00 -0.00000000000E+00 -0.56262424745E+03  0.56262424745E+03  0.00000000000E+00 0. -1.
    9000005    1    1    2  501    0 -0.18332141108E+03 -0.52216277140E+02 -0.35769259712E+03  0.56945348659E+03  0.40000000000E+03 0. -1.
   -9000005    1    1    2    0  502  0.18332141108E+03  0.52216277140E+02  0.39648359929E+03  0.59458601049E+03  0.40000000000E+03 0.  1.
<mgrwt>
<rscale>  2 0.44309511E+03</rscale>
<asrwt>0</asrwt>
<pdfrwt beam="1">  1       21 0.92525423E-01 0.44309511E+03</pdfrwt>
<pdfrwt beam="2">  1       21 0.86557577E-01 0.44309511E+03</pdfrwt>
<totfact> 0.96494771E+02</totfact>
</mgrwt>
</event>
<event>
 4    1  0.4774032E-002  0.5970293E+03  0.7818608E-02  0.9911589E-01
         21   -1    0    0  501  502  0.00000000000E+00  0.00000000000E+00  0.14089864327E+04  0.14089864327E+04  0.00000000000E+00 0.  1.
         21   -1    0    0  502  503 -0.00000000000E+00 -0.00000000000E+00 -0.42923816115E+03  0.42923816115E+03  0.00000000000E+00 0. -1.
    9000005    1    1    2  501    0 -0.42740440384E+03  0.11734341699E+03  0.10788469417E+04  0.12330266524E+04  0.40000000000E+03 0.  1.
   -9000005    1    1    2    0  503  0.42740440384E+03 -0.11734341699E+03 -0.99098670127E+02  0.60519794147E+03  0.40000000000E+03 0. -1.
<mgrwt>
<rscale>  2 0.59702931E+03</rscale>
<asrwt>0</asrwt>
<pdfrwt beam="1">  1       21 0.21676714E+00 0.59702931E+03</pdfrwt>
<pdfrwt beam="2">  1       21 0.66036641E-01 0.59702931E+03</pdfrwt>
<totfact> 0.16595210E+02</totfact>
</mgrwt>
</event>
<event>
 4    1  0.4774032E-002  0.5602795E+03  0.7818608E-02  0.9991422E-01
         21   -1    0    0  501  502  0.00000000000E+00  0.00000000000E+00  0.26305601716E+03  0.26305601716E+03  0.00000000000E+00 0. -1.
         21   -1    0    0  502  503 -0.00000000000E+00 -0.00000000000E+00 -0.21617177961E+04  0.21617177961E+04  0.00000000000E+00 0. -1.
    9000005    1    1    2  501    0  0.25060222232E+03  0.30184707641E+03 -0.13787303012E+03  0.57699402407E+03  0.40000000000E+03 0. -1.
   -9000005    1    1    2    0  503 -0.25060222232E+03 -0.30184707641E+03 -0.17607887488E+04  0.18477797892E+04  0.40000000000E+03 0. -1.
<mgrwt>
<rscale>  2 0.56027951E+03</rscale>
<asrwt>0</asrwt>
<pdfrwt beam="1">  1       21 0.40470158E-01 0.56027951E+03</pdfrwt>
<pdfrwt beam="2">  1       21 0.33257195E+00 0.56027951E+03</pdfrwt>
<totfact> 0.93296860E+01</totfact>
</mgrwt>
</event>
<event>
 4    1  0.4774032E-002  0.4093643E+03  0.7818608E-02  0.1040585E+00
         21   -1    0    0  503  502  0.00000000000E+00  0.00000000000E+00  0.18748558973E+03  0.18748558973E+03  0.00000000000E+00 0. -1.
         21   -1    0    0  501  503 -0.00000000000E+00 -0.00000000000E+00 -0.17748994034E+04  0.17748994034E+04  0.00000000000E+00 0. -1.
    9000005    1    1    2  501    0  0.79661553643E+02 -0.35116651016E+02 -0.14850185251E+04  0.15404087646E+04  0.40000000000E+03 0. -1.
   -9000005    1    1    2    0  502 -0.79661553643E+02  0.35116651016E+02 -0.10239528860E+03  0.42197622852E+03  0.40000000000E+03 0. -1.
<mgrwt>
<rscale>  2 0.40936431E+03</rscale>
<asrwt>0</asrwt>
<pdfrwt beam="1">  1       21 0.28843937E-01 0.40936431E+03</pdfrwt>
<pdfrwt beam="2">  1       21 0.27306145E+00 0.40936431E+03</pdfrwt>
<totfact> 0.46131477E+02</totfact>
</mgrwt>
</event>
<event>
 4    1  0.4774032E-002  0.6873768E+03  0.7818608E-02  0.9739066E-01
         21   -1    0    0  503  502  0.00000000000E+00  0.00000000000E+00  0.65330811227E+03  0.65330811227E+03  0.00000000000E+00 0.  1.
         21   -1    0    0  501  503 -0.00000000000E+00 -0.00000000000E+00 -0.15743355072E+04  0.15743355072E+04  0.00000000000E+00 0.  1.
    9000005    1    1    2  501    0  0.10996488164E+03 -0.54808261097E+03 -0.12794701410E+04  0.14524223440E+04  0.40000000000E+03 0.  1.
   -9000005    1    1    2    0  502 -0.10996488164E+03  0.54808261097E+03  0.35844274611E+03  0.77522127543E+03  0.40000000000E+03 0.  1.
<mgrwt>
<rscale>  2 0.68737677E+03</rscale>
<asrwt>0</asrwt>
<pdfrwt beam="1">  1       21 0.10050894E+00 0.68737677E+03</pdfrwt>
<pdfrwt beam="2">  1       21 0.24220546E+00 0.68737677E+03</pdfrwt>
<totfact> 0.41119696E+01</totfact>
</mgrwt>
</event>
<event>
 4    1  0.4774032E-002  0.5992428E+03  0.7818608E-02  0.9906978E-01
         21   -1    0    0  503  502  0.00000000000E+00  0.00000000000E+00  0.53672908992E+03  0.53672908992E+03  0.00000000000E+00 0. -1.
         21   -1    0    0  501  503 -0.00000000000E+00 -0.00000000000E+00 -0.90031902071E+03  0.90031902071E+03  0.00000000000E+00 0. -1.
    9000005    1    1    2  501    0  0.16296598113E+03 -0.41537220165E+03 -0.54597271852E+03  0.81066527389E+03  0.40000000000E+03 0. -1.
   -9000005    1    1    2    0  502 -0.16296598113E+03  0.41537220165E+03  0.18238278774E+03  0.62638283675E+03  0.40000000000E+03 0. -1.
<mgrwt>
<rscale>  2 0.59924284E+03</rscale>
<asrwt>0</asrwt>
<pdfrwt beam="1">  1       21 0.82573707E-01 0.59924284E+03</pdfrwt>
<pdfrwt beam="2">  1       21 0.13851062E+00 0.59924284E+03</pdfrwt>
<totfact> 0.36795219E+02</totfact>
</mgrwt>
</event>
<event>
 4    1  0.4774032E-002  0.4110361E+03  0.7818608E-02  0.1040024E+00
         21   -1    0    0  503  502  0.00000000000E+00  0.00000000000E+00  0.70147030261E+03  0.70147030261E+03  0.00000000000E+00 0.  1.
         21   -1    0    0  501  503 -0.00000000000E+00 -0.00000000000E+00 -0.39152207261E+03  0.39152207261E+03  0.00000000000E+00 0.  1.
    9000005    1    1    2  501    0  0.73956473413E+02  0.59001159093E+02 -0.18404341682E+03  0.45035838619E+03  0.40000000000E+03 0.  1.
   -9000005    1    1    2    0  502 -0.73956473413E+02 -0.59001159093E+02  0.49399164682E+03  0.64263398904E+03  0.40000000000E+03 0.  1.
<mgrwt>
<rscale>  2 0.41103613E+03</rscale>
<asrwt>0</asrwt>
<pdfrwt beam="1">  1       21 0.10791851E+00 0.41103613E+03</pdfrwt>
<pdfrwt beam="2">  1       21 0.60234165E-01 0.41103613E+03</pdfrwt>
<totfact> 0.15302820E+03</totfact>
</mgrwt>
</event>
<event>
 4    1  0.4774032E-002  0.4505631E+03  0.7818608E-02  0.1027554E+00
         21   -1    0    0  503  502  0.00000000000E+00  0.00000000000E+00  0.11181721690E+03  0.11181721690E+03  0.00000000000E+00 0.  1.
         21   -1    0    0  501  503 -0.00000000000E+00 -0.00000000000E+00 -0.18546255280E+04  0.18546255280E+04  0.00000000000E+00 0.  1.
    9000005    1    1    2  501    0  0.18284209903E+03  0.97856325822E+02 -0.10141644722E+04  0.11097462189E+04  0.40000000000E+03 0.  1.
   -9000005    1    1    2    0  502 -0.18284209903E+03 -0.97856325822E+02 -0.72864383885E+03  0.85669652595E+03  0.40000000000E+03 0.  1.
<mgrwt>
<rscale>  2 0.45056309E+03</rscale>
<asrwt>0</asrwt>
<pdfrwt beam="1">  1       21 0.17202648E-01 0.45056309E+03</pdfrwt>
<pdfrwt beam="2">  1       21 0.28532702E+00 0.45056309E+03</pdfrwt>
<totfact> 0.10273746E+03</totfact>
</mgrwt>
</event>
<event>
 4    1  0.4774032E-002  0.4123185E+03  0.7818608E-02  0.1039596E+00
         21   -1    0    0  501  502  0.00000000000E+00  0.00000000000E+00  0.88256642350E+02  0.88256642350E+02  0.00000000000E+00 0. -1.
         21   -1    0    0  502  503 -0.00000000000E+00 -0.00000000000E+00 -0.21668708507E+04  0.21668708507E+04  0.00000000000E+00 0. -1.
    9000005    1    1    2  501    0 -0.46036399473E+02  0.88809729998E+02 -0.66358294393E+03  0.78124825869E+03  0.40000000000E+03 0. -1.
   -9000005    1    1    2    0  503  0.46036399473E+02 -0.88809729998E+02 -0.14150312644E+04  0.14738792344E+04  0.40000000000E+03 0. -1.
<mgrwt>
<rscale>  2 0.41231847E+03</rscale>
<asrwt>0</asrwt>
<pdfrwt beam="1">  1       21 0.13577945E-01 0.41231847E+03</pdfrwt>
<pdfrwt beam="2">  1       21 0.33336474E+00 0.41231847E+03</pdfrwt>
<totfact> 0.83734023E+02</totfact>
</mgrwt>
</event>
<event>
 4    1  0.4774032E-002  0.4094582E+03  0.7818608E-02  0.1040553E+00
         21   -1    0    0  501  502  0.00000000000E+00  0.00000000000E+00  0.27291981666E+03  0.27291981666E+03  0.00000000000E+00 0.  1.
         21   -1    0    0  502  503 -0.00000000000E+00 -0.00000000000E+00 -0.94278614241E+03  0.94278614241E+03  0.00000000000E+00 0.  1.
    9000005    1    1    2  501    0  0.81890102976E+02 -0.30821881167E+02  0.23862554067E+02  0.41015289687E+03  0.40000000000E+03 0.  1.
   -9000005    1    1    2    0  503 -0.81890102976E+02  0.30821881167E+02 -0.69372887982E+03  0.80555306220E+03  0.40000000000E+03 0.  1.
<mgrwt>
<rscale>  2 0.40945815E+03</rscale>
<asrwt>0</asrwt>
<pdfrwt beam="1">  1       21 0.41987664E-01 0.40945815E+03</pdfrwt>
<pdfrwt beam="2">  1       21 0.14504402E+00 0.40945815E+03</pdfrwt>
<totfact> 0.15454600E+03</totfact>
</mgrwt>
</event>
<event>
 4    1  0.4774032E-002  0.4239999E+03  0.7818608E-02  0.1035772E+00
         21   -1    0    0  503  502  0.00000000000E+00  0.00000000000E+00  0.49337613220E+03  0.49337613220E+03  0.00000000000E+00 0. -1.
         21   -1    0    0  501  503 -0.00000000000E+00 -0.00000000000E+00 -0.70386265313E+03  0.70386265313E+03  0.00000000000E+00 0. -1.
    9000005    1    1    2  501    0 -0.11717357715E+03 -0.77757563478E+02 -0.52097796018E+03  0.67170969983E+03  0.40000000000E+03 0. -1.
   -9000005    1    1    2    0  502  0.11717357715E+03  0.77757563478E+02  0.31049143924E+03  0.52552908550E+03  0.40000000000E+03 0. -1.
<mgrwt>
<rscale>  2 0.42399987E+03</rscale>
<asrwt>0</asrwt>
<pdfrwt beam="1">  1       21 0.75904020E-01 0.42399987E+03</pdfrwt>
<pdfrwt beam="2">  1       21 0.10828656E+00 0.42399987E+03</pdfrwt>
<totfact> 0.90002908E+02</totfact>
</mgrwt>
</event>
<event>
 4    1  0.4774032E-002  0.4017564E+03  0.7818608E-02  0.1043173E+00
         21   -1    0    0  501  502  0.00000000000E+00  0.00000000000E+00  0.60329790011E+03  0.60329790011E+03  0.00000000000E+00 0.  1.
         21   -1    0    0  502  503 -0.00000000000E+00 -0.00000000000E+00 -0.27794995086E+03  0.27794995086E+03  0.00000000000E+00 0.  1.
    9000005    1    1    2  501    0 -0.23243257916E+02  0.29461757578E+02  0.77414514191E+02  0.40914697995E+03  0.40000000000E+03 0.  1.
   -9000005    1    1    2    0  503  0.23243257916E+02 -0.29461757578E+02  0.24793343505E+03  0.47210087102E+03  0.40000000000E+03 0.  1.
<mgrwt>
<rscale>  2 0.40175645E+03</rscale>
<asrwt>0</asrwt>
<pdfrwt beam="1">  1       21 0.92815061E-01 0.40175645E+03</pdfrwt>
<pdfrwt beam="2">  1       21 0.42761531E-01 0.40175645E+03</pdfrwt>
<totfact> 0.45905241E+03</totfact>
</mgrwt>
</event>
<event>
 4    1  0.4774032E-002  0.7234331E+03  0.7818608E-02  0.9677977E-01
         21   -1    0    0  503  502  0.00000000000E+00  0.00000000000E+00  0.18945853586E+04  0.18945853586E+04  0.00000000000E+00 0.  1.
         21   -1    0    0  501  503 -0.00000000000E+00 -0.00000000000E+00 -0.33636514637E+03  0.33636514637E+03  0.00000000000E+00 0.  1.
    9000005    1    1    2  501    0  0.28043717648E+03 -0.53358259849E+03  0.30749057394E+03  0.78606987757E+03  0.40000000000E+03 0.  1.
   -9000005    1    1    2    0  502 -0.28043717648E+03  0.53358259849E+03  0.12507296383E+04  0.14448806274E+04  0.40000000000E+03 0.  1.
<mgrwt>
<rscale>  2 0.72343306E+03</rscale>
<asrwt>0</asrwt>
<pdfrwt beam="1">  1       21 0.29147467E+00 0.72343306E+03</pdfrwt>
<pdfrwt beam="2">  1       21 0.51748485E-01 0.72343306E+03</pdfrwt>
<totfact> 0.92024077E+01</totfact>
</mgrwt>
</event>
<event>
 4    1  0.4774032E-002  0.4139586E+03  0.7818608E-02  0.1039051E+00
         21   -1    0    0  501  502  0.00000000000E+00  0.00000000000E+00  0.86031600516E+03  0.86031600516E+03  0.00000000000E+00 0. -1.
         21   -1    0    0  502  503 -0.00000000000E+00 -0.00000000000E+00 -0.41327292141E+03  0.41327292141E+03  0.00000000000E+00 0. -1.
    9000005    1    1    2  501    0  0.85191866738E+02 -0.64063253488E+02  0.68185042536E+03  0.79767271307E+03  0.40000000000E+03 0. -1.
   -9000005    1    1    2    0  503 -0.85191866738E+02  0.64063253488E+02 -0.23480734161E+03  0.47591621351E+03  0.40000000000E+03 0. -1.
<mgrwt>
<rscale>  2 0.41395864E+03</rscale>
<asrwt>0</asrwt>
<pdfrwt beam="1">  1       21 0.13235631E+00 0.41395864E+03</pdfrwt>
<pdfrwt beam="2">  1       21 0.63580450E-01 0.41395864E+03</pdfrwt>
<totfact> 0.80958208E+02</totfact>
</mgrwt>
</event>
<event>
 4    1  0.4774032E-002  0.8755114E+03  0.7818608E-02  0.9456722E-01
         21   -1    0    0  501  502  0.00000000000E+00  0.00000000000E+00  0.11270980268E+04  0.11270980268E+04  0.00000000000E+00 0.  1.
         21   -1    0    0  502  503 -0.00000000000E+00 -0.00000000000E+00 -0.84179874816E+03  0.84179874816E+03  0.00000000000E+00 0. -1.
    9000005    1    1    2  501    0 -0.12897168637E+03  0.76804068626E+03  0.57413393140E+03  0.10469718061E+04  0.40000000000E+03 0.  1.
   -9000005    1    1    2    0  503  0.12897168637E+03 -0.76804068626E+03 -0.28883465271E+03  0.92192496888E+03  0.40000000000E+03 0. -1.
<mgrwt>
<rscale>  2 0.87551139E+03</rscale>
<asrwt>0</asrwt>
<pdfrwt beam="1">  1       21 0.17339970E+00 0.87551139E+03</pdfrwt>
<pdfrwt beam="2">  1       21 0.12950750E+00 0.87551139E+03</pdfrwt>
<totfact> 0.58889802E+01</totfact>
</mgrwt>
</event>
<event>
 4    1  0.4774032E-002  0.4368054E+03  0.7818608E-02  0.1031732E+00
         21   -1    0    0  503  502  0.00000000000E+00  0.00000000000E+00  0.18760695230E+03  0.18760695230E+03  0.00000000000E+00 0. -1.
         21   -1    0    0  501  503 -0.00000000000E+00 -0.00000000000E+00 -0.11470209279E+04  0.11470209279E+04  0.00000000000E+00 0. -1.
    9000005    1    1    2  501    0  0.15876162849E+03  0.74790935864E+02 -0.25504613540E+03  0.50581367118E+03  0.40000000000E+03 0. -1.
   -9000005    1    1    2    0  502 -0.15876162849E+03 -0.74790935864E+02 -0.70436784023E+03  0.82881420904E+03  0.40000000000E+03 0. -1.
<mgrwt>
<rscale>  2 0.43680538E+03</rscale>
<asrwt>0</asrwt>
<pdfrwt beam="1">  1       21 0.28862608E-01 0.43680538E+03</pdfrwt>
<pdfrwt beam="2">  1       21 0.17646476E+00 0.43680538E+03</pdfrwt>
<totfact> 0.18890075E+03</totfact>
</mgrwt>
</event>
<event>
 4    1  0.4774032E-002  0.4428524E+03  0.7818608E-02  0.1029875E+00
         21   -1    0    0  503  502  0.00000000000E+00  0.00000000000E+00  0.82408685970E+03  0.82408685970E+03  0.00000000000E+00 0. -1.
         21   -1    0    0  501  503 -0.00000000000E+00 -0.00000000000E+00 -0.30505508902E+03  0.30505508902E+03  0.00000000000E+00 0. -1.
    9000005    1    1    2  501    0  0.18156594425E+03 -0.56143347830E+02 -0.52133344209E+01  0.44288310701E+03  0.40000000000E+03 0. -1.
   -9000005    1    1    2    0  502 -0.18156594425E+03  0.56143347830E+02  0.52424510510E+03  0.68625884172E+03  0.40000000000E+03 0. -1.
<mgrwt>
<rscale>  2 0.44285242E+03</rscale>
<asrwt>0</asrwt>
<pdfrwt beam="1">  1       21 0.12678259E+00 0.44285242E+03</pdfrwt>
<pdfrwt beam="2">  1       21 0.46931552E-01 0.44285242E+03</pdfrwt>
<totfact> 0.17197456E+03</totfact>
</mgrwt>
</event>
<event>
 4    1  0.4774032E-002  0.4524663E+03  0.7818608E-02  0.1026989E+00
         21   -1    0    0  501  502  0.00000000000E+00  0.00000000000E+00  0.12920092290E+04  0.12920092290E+04  0.00000000000E+00 0.  1.
         21   -1    0    0  502  503 -0.00000000000E+00 -0.00000000000E+00 -0.15921270670E+03  0.15921270670E+03  0.00000000000E+00 0.  1.
    9000005    1    1    2  501    0 -0.13143025929E+03 -0.16568610321E+03  0.51635333570E+03  0.68654684119E+03  0.40000000000E+03 0.  1.
   -9000005    1    1    2    0  503  0.13143025929E+03  0.16568610321E+03  0.61644318658E+03  0.76467509449E+03  0.40000000000E+03 0.  1.
<mgrwt>
<rscale>  2 0.45246635E+03</rscale>
<asrwt>0</asrwt>
<pdfrwt beam="1">  1       21 0.19877064E+00 0.45246635E+03</pdfrwt>
<pdfrwt beam="2">  1       21 0.24494263E-01 0.45246635E+03</pdfrwt>
<totfact> 0.18162608E+03</totfact>
</mgrwt>
</event>
<event>
 4    1  0.4774032E-002  0.4581351E+03  0.7818608E-02  0.1025323E+00
         21   -1    0    0  501  502  0.00000000000E+00  0.00000000000E+00  0.17051461089E+04  0.17051461089E+04  0.00000000000E+00 0.  1.
         21   -1    0    0  502  503 -0.00000000000E+00 -0.00000000000E+00 -0.12344615131E+03  0.12344615131E+03  0.00000000000E+00 0.  1.
    9000005    1    1    2  501    0 -0.14605724738E+03 -0.16898249449E+03  0.74179585465E+03  0.87186518048E+03  0.40000000000E+03 0.  1.
   -9000005    1    1    2    0  503  0.14605724738E+03  0.16898249449E+03  0.83990410293E+03  0.95672707972E+03  0.40000000000E+03 0.  1.
<mgrwt>
<rscale>  2 0.45813514E+03</rscale>
<asrwt>0</asrwt>
<pdfrwt beam="1">  1       21 0.26233015E+00 0.45813514E+03</pdfrwt>
<pdfrwt beam="2">  1       21 0.18991717E-01 0.45813514E+03</pdfrwt>
<totfact> 0.11698110E+03</totfact>
</mgrwt>
</event>
<event>
 4    1  0.4774032E-002  0.4127317E+03  0.7818608E-02  0.1039458E+00
         21   -1    0    0  503  502  0.00000000000E+00  0.00000000000E+00  0.12900296632E+04  0.12900296632E+04  0.00000000000E+00 0.  1.
         21   -1    0    0  501  503 -0.00000000000E+00 -0.00000000000E+00 -0.21746674694E+03  0.21746674694E+03  0.00000000000E+00 0.  1.
    9000005    1    1    2  501    0 -0.10127018049E+03 -0.95836671504E+01  0.63888744275E+02  0.41764730070E+03  0.40000000000E+03 0.  1.
   -9000005    1    1    2    0  502  0.10127018049E+03  0.95836671504E+01  0.10086741720E+04  0.10898491095E+04  0.40000000000E+03 0.  1.
<mgrwt>
<rscale>  2 0.41273175E+03</rscale>
<asrwt>0</asrwt>
<pdfrwt beam="1">  1       21 0.19846610E+00 0.41273175E+03</pdfrwt>
<pdfrwt beam="2">  1       21 0.33456423E-01 0.41273175E+03</pdfrwt>
<totfact> 0.10040806E+03</totfact>
</mgrwt>
</event>
<event>
 4    1  0.4774032E-002  0.4552302E+03  0.7818608E-02  0.1026174E+00
         21   -1    0    0  501  502  0.00000000000E+00  0.00000000000E+00  0.10130005751E+04  0.10130005751E+04  0.00000000000E+00 0. -1.
         21   -1    0    0  502  503 -0.00000000000E+00 -0.00000000000E+00 -0.26701256464E+03  0.26701256464E+03  0.00000000000E+00 0.  1.
    9000005    1    1    2  501    0  0.13137743793E+03  0.17313156086E+03  0.68248045802E+03  0.82037439267E+03  0.40000000000E+03 0. -1.
   -9000005    1    1    2    0  503 -0.13137743793E+03 -0.17313156086E+03  0.63507552391E+02  0.45963874703E+03  0.40000000000E+03 0.  1.
<mgrwt>
<rscale>  2 0.45523024E+03</rscale>
<asrwt>0</asrwt>
<pdfrwt beam="1">  1       21 0.15584624E+00 0.45523024E+03</pdfrwt>
<pdfrwt beam="2">  1       21 0.41078856E-01 0.45523024E+03</pdfrwt>
<totfact> 0.13047299E+03</totfact>
</mgrwt>
</event>
<event>
 4    1  0.4774032E-002  0.4165732E+03  0.7818608E-02  0.1038187E+00
         21   -1    0    0  501  502  0.00000000000E+00  0.00000000000E+00  0.83671310781E+03  0.83671310781E+03  0.00000000000E+00 0.  1.
         21   -1    0    0  502  503 -0.00000000000E+00 -0.00000000000E+00 -0.30759709715E+03  0.30759709715E+03  0.00000000000E+00 0.  1.
    9000005    1    1    2  501    0 -0.17002889437E+02  0.11508301621E+03  0.59111055359E+03  0.72314928295E+03  0.40000000000E+03 0.  1.
   -9000005    1    1    2    0  503  0.17002889437E+02 -0.11508301621E+03 -0.61994542931E+02  0.42116092200E+03  0.40000000000E+03 0.  1.
<mgrwt>
<rscale>  2 0.41657316E+03</rscale>
<asrwt>0</asrwt>
<pdfrwt beam="1">  1       21 0.12872509E+00 0.41657316E+03</pdfrwt>
<pdfrwt beam="2">  1       21 0.47322631E-01 0.41657316E+03</pdfrwt>
<totfact> 0.16426091E+03</totfact>
</mgrwt>
</event>
<event>
 4    1  0.4774032E-002  0.4867809E+03  0.7818608E-02  0.1017288E+00
         21   -1    0    0  503  502  0.00000000000E+00  0.00000000000E+00  0.26117798227E+03  0.26117798227E+03  0.00000000000E+00 0. -1.
         21   -1    0    0  501  503 -0.00000000000E+00 -0.00000000000E+00 -0.11090574280E+04  0.11090574280E+04  0.00000000000E+00 0.  1.
    9000005    1    1    2  501    0  0.19419843549E+03 -0.19809740952E+03 -0.71618597740E+03  0.86595494700E+03  0.40000000000E+03 0.  1.
   -9000005    1    1    2    0  502 -0.19419843549E+03  0.19809740952E+03 -0.13169346829E+03  0.50428046323E+03  0.40000000000E+03 0.  1.
<mgrwt>
<rscale>  2 0.48678087E+03</rscale>
<asrwt>0</asrwt>
<pdfrwt beam="1">  1       21 0.40181228E-01 0.48678087E+03</pdfrwt>
<pdfrwt beam="2">  1       21 0.17062422E+00 0.48678087E+03</pdfrwt>
<totfact> 0.10450955E+03</totfact>
</mgrwt>
</event>
<event>
 4    1  0.4774032E-002  0.4531326E+03  0.7818608E-02  0.1026792E+00
         21   -1    0    0  501  502  0.00000000000E+00  0.00000000000E+00  0.60840862908E+03  0.60840862908E+03  0.00000000000E+00 0.  1.
         21   -1    0    0  502  503 -0.00000000000E+00 -0.00000000000E+00 -0.36435496597E+03  0.36435496597E+03  0.00000000000E+00 0. -1.
    9000005    1    1    2  501    0  0.18169523927E+03  0.11097725684E+03  0.25410900411E+03  0.51951948710E+03  0.40000000000E+03 0.  1.
   -9000005    1    1    2    0  503 -0.18169523927E+03 -0.11097725684E+03 -0.10055340998E+02  0.45324410795E+03  0.40000000000E+03 0. -1.
<mgrwt>
<rscale>  2 0.45313255E+03</rscale>
<asrwt>0</asrwt>
<pdfrwt beam="1">  1       21 0.93601328E-01 0.45313255E+03</pdfrwt>
<pdfrwt beam="2">  1       21 0.56054610E-01 0.45313255E+03</pdfrwt>
<totfact> 0.24877062E+03</totfact>
</mgrwt>
</event>
<event>
 4    1  0.4774032E-002  0.4173883E+03  0.7818608E-02  0.1037920E+00
         21   -1    0    0  501  502  0.00000000000E+00  0.00000000000E+00  0.42411950230E+03  0.42411950230E+03  0.00000000000E+00 0. -1.
         21   -1    0    0  502  503 -0.00000000000E+00 -0.00000000000E+00 -0.74455560968E+03  0.74455560968E+03  0.00000000000E+00 0. -1.
    9000005    1    1    2  501    0  0.11882279534E+03 -0.97037637408E+01  0.23103067833E+03  0.47706204424E+03  0.40000000000E+03 0. -1.
   -9000005    1    1    2    0  503 -0.11882279534E+03  0.97037637408E+01 -0.55146678571E+03  0.69161306774E+03  0.40000000000E+03 0. -1.
<mgrwt>
<rscale>  2 0.41738833E+03</rscale>
<asrwt>0</asrwt>
<pdfrwt beam="1">  1       21 0.65249155E-01 0.41738833E+03</pdfrwt>
<pdfrwt beam="2">  1       21 0.11454702E+00 0.41738833E+03</pdfrwt>
<totfact> 0.11035782E+03</totfact>
</mgrwt>
</event>
<event>
 4    1  0.4774032E-002  0.5207051E+03  0.7818608E-02  0.1008512E+00
         21   -1    0    0  503  502  0.00000000000E+00  0.00000000000E+00  0.73103793875E+03  0.73103793875E+03  0.00000000000E+00 0.  1.
         21   -1    0    0  501  503 -0.00000000000E+00 -0.00000000000E+00 -0.11018836150E+04  0.11018836150E+04  0.00000000000E+00 0.  1.
    9000005    1    1    2  501    0 -0.15378962170E+03 -0.29577456938E+03 -0.93187700024E+03  0.10674870431E+04  0.40000000000E+03 0.  1.
   -9000005    1    1    2    0  502  0.15378962170E+03  0.29577456938E+03  0.56103132397E+03  0.76543451066E+03  0.40000000000E+03 0.  1.
<mgrwt>
<rscale>  2 0.52070514E+03</rscale>
<asrwt>0</asrwt>
<pdfrwt beam="1">  1       21 0.11246737E+00 0.52070514E+03</pdfrwt>
<pdfrwt beam="2">  1       21 0.16952056E+00 0.52070514E+03</pdfrwt>
<totfact> 0.10288104E+02</totfact>
</mgrwt>
</event>
<event>
 4    1  0.4774032E-002  0.4324932E+03  0.7818608E-02  0.1033075E+00
         21   -1    0    0  501  502  0.00000000000E+00  0.00000000000E+00  0.92610580603E+02  0.92610580603E+02  0.00000000000E+00 0.  1.
         21   -1    0    0  502  503 -0.00000000000E+00 -0.00000000000E+00 -0.20295273702E+04  0.20295273702E+04  0.00000000000E+00 0. -1.
    9000005    1    1    2  501    0  0.73444013712E+02  0.14716100999E+03 -0.89481777823E+03  0.99385574519E+03  0.40000000000E+03 0. -1.
   -9000005    1    1    2    0  503 -0.73444013712E+02 -0.14716100999E+03 -0.10420990114E+04  0.11282822056E+04  0.40000000000E+03 0. -1.
<mgrwt>
<rscale>  2 0.43249322E+03</rscale>
<asrwt>0</asrwt>
<pdfrwt beam="1">  1       21 0.14247782E-01 0.43249322E+03</pdfrwt>
<pdfrwt beam="2">  1       21 0.31223497E+00 0.43249322E+03</pdfrwt>
<totfact> 0.10153045E+03</totfact>
</mgrwt>
</event>
<event>
 4    1  0.4774032E-002  0.5189554E+03  0.7818608E-02  0.1008946E+00
         21   -1    0    0  501  502  0.00000000000E+00  0.00000000000E+00  0.32716167114E+03  0.32716167114E+03  0.00000000000E+00 0. -1.
         21   -1    0    0  502  503 -0.00000000000E+00 -0.00000000000E+00 -0.82594048168E+03  0.82594048168E+03  0.00000000000E+00 0. -1.
    9000005    1    1    2  501    0 -0.28195845738E+03  0.17266758931E+03 -0.28268915871E+03  0.59095501397E+03  0.40000000000E+03 0. -1.
   -9000005    1    1    2    0  503  0.28195845738E+03 -0.17266758931E+03 -0.21608965183E+03  0.56214713885E+03  0.40000000000E+03 0. -1.
<mgrwt>
<rscale>  2 0.51895536E+03</rscale>
<asrwt>0</asrwt>
<pdfrwt beam="1">  1       21 0.50332564E-01 0.51895536E+03</pdfrwt>
<pdfrwt beam="2">  1       21 0.12706777E+00 0.51895536E+03</pdfrwt>
<totfact> 0.14329013E+03</totfact>
</mgrwt>
</event>
<event>
 4    1  0.4774032E-002  0.4043683E+03  0.7818608E-02  0.1042277E+00
         21   -1    0    0  503  502  0.00000000000E+00  0.00000000000E+00  0.99823307480E+03  0.99823307480E+03  0.00000000000E+00 0.  1.
         21   -1    0    0  501  503 -0.00000000000E+00 -0.00000000000E+00 -0.16887924550E+03  0.16887924550E+03  0.00000000000E+00 0.  1.
    9000005    1    1    2  501    0 -0.18026937022E+02 -0.56469314643E+02  0.31350544831E+03  0.51166338552E+03  0.40000000000E+03 0.  1.
   -9000005    1    1    2    0  502  0.18026937022E+02  0.56469314643E+02  0.51584838099E+03  0.65544893479E+03  0.40000000000E+03 0.  1.
<mgrwt>
<rscale>  2 0.40436834E+03</rscale>
<asrwt>0</asrwt>
<pdfrwt beam="1">  1       21 0.15357432E+00 0.40436834E+03</pdfrwt>
<pdfrwt beam="2">  1       21 0.25981423E-01 0.40436834E+03</pdfrwt>
<totfact> 0.34777728E+03</totfact>
</mgrwt>
</event>
<event>
 4    1  0.4774032E-002  0.4420459E+03  0.7818608E-02  0.1030121E+00
         21   -1    0    0  503  502  0.00000000000E+00  0.00000000000E+00  0.14790339146E+03  0.14790339146E+03  0.00000000000E+00 0.  1.
         21   -1    0    0  501  503 -0.00000000000E+00 -0.00000000000E+00 -0.23520400493E+04  0.23520400493E+04  0.00000000000E+00 0.  1.
    9000005    1    1    2  501    0 -0.15577117862E+03  0.10554564232E+03 -0.19295934556E+04  0.19795796136E+04  0.40000000000E+03 0.  1.
   -9000005    1    1    2    0  502  0.15577117862E+03 -0.10554564232E+03 -0.27454320223E+03  0.52036382713E+03  0.40000000000E+03 0.  1.
<mgrwt>
<rscale>  2 0.44204586E+03</rscale>
<asrwt>0</asrwt>
<pdfrwt beam="1">  1       21 0.22754367E-01 0.44204586E+03</pdfrwt>
<pdfrwt beam="2">  1       21 0.36185233E+00 0.44204586E+03</pdfrwt>
<totfact> 0.20844812E+02</totfact>
</mgrwt>
</event>
<event>
 4    1  0.4774032E-002  0.4269044E+03  0.7818608E-02  0.1034842E+00
         21   -1    0    0  501  502  0.00000000000E+00  0.00000000000E+00  0.71718020317E+03  0.71718020317E+03  0.00000000000E+00 0. -1.
         21   -1    0    0  502  503 -0.00000000000E+00 -0.00000000000E+00 -0.35678496296E+03  0.35678496296E+03  0.00000000000E+00 0.  1.
    9000005    1    1    2  501    0  0.13423988675E+03  0.65015292245E+02  0.46825262295E+03  0.63364647424E+03  0.40000000000E+03 0. -1.
   -9000005    1    1    2    0  503 -0.13423988675E+03 -0.65015292245E+02 -0.10785738274E+03  0.44031869189E+03  0.40000000000E+03 0.  1.
<mgrwt>
<rscale>  2 0.42690436E+03</rscale>
<asrwt>0</asrwt>
<pdfrwt beam="1">  1       21 0.11033542E+00 0.42690436E+03</pdfrwt>
<pdfrwt beam="2">  1       21 0.54889995E-01 0.42690436E+03</pdfrwt>
<totfact> 0.17609665E+03</totfact>
</mgrwt>
</event>
<event>
 4    1  0.4774032E-002  0.4820049E+03  0.7818608E-02  0.1018586E+00
         21   -1    0    0  501  502  0.00000000000E+00  0.00000000000E+00  0.12289965335E+04  0.12289965335E+04  0.00000000000E+00 0.  1.
         21   -1    0    0  502  503 -0.00000000000E+00 -0.00000000000E+00 -0.21086880928E+03  0.21086880928E+03  0.00000000000E+00 0.  1.
    9000005    1    1    2  501    0 -0.21180032365E+03  0.16573878845E+03  0.74070039698E+03  0.88372269473E+03  0.40000000000E+03 0.  1.
   -9000005    1    1    2    0  503  0.21180032365E+03 -0.16573878845E+03  0.27742732727E+03  0.55614264808E+03  0.40000000000E+03 0.  1.
<mgrwt>
<rscale>  2 0.48200490E+03</rscale>
<asrwt>0</asrwt>
<pdfrwt beam="1">  1       21 0.18907639E+00 0.48200490E+03</pdfrwt>
<pdfrwt beam="2">  1       21 0.32441356E-01 0.48200490E+03</pdfrwt>
<totfact> 0.11983724E+03</totfact>
</mgrwt>
</event>
<event>
 4    1  0.4774032E-002  0.4541995E+03  0.7818608E-02  0.1026477E+00
         21   -1    0    0  501  502  0.00000000000E+00  0.00000000000E+00  0.36190655919E+03  0.36190655919E+03  0.00000000000E+00 0. -1.
         21   -1    0    0  502  503 -0.00000000000E+00 -0.00000000000E+00 -0.58115477216E+03  0.58115477216E+03  0.00000000000E+00 0. -1.
    9000005    1    1    2  501    0 -0.17729410997E+03 -0.12191809149E+03 -0.17486647851E+03  0.48669858000E+03  0.40000000000E+03 0. -1.
   -9000005    1    1    2    0  503  0.17729410997E+03  0.12191809149E+03 -0.44381734456E+02  0.45636275135E+03  0.40000000000E+03 0. -1.
<mgrwt>
<rscale>  2 0.45419954E+03</rscale>
<asrwt>0</asrwt>
<pdfrwt beam="1">  1       21 0.55677933E-01 0.45419954E+03</pdfrwt>
<pdfrwt beam="2">  1       21 0.89408425E-01 0.45419954E+03</pdfrwt>
<totfact> 0.28137800E+03</totfact>
</mgrwt>
</event>
<event>
 4    1  0.4774032E-002  0.5091104E+03  0.7818608E-02  0.1011428E+00
         21   -1    0    0  501  502  0.00000000000E+00  0.00000000000E+00  0.16031369308E+04  0.16031369308E+04  0.00000000000E+00 0. -1.
         21   -1    0    0  502  503 -0.00000000000E+00 -0.00000000000E+00 -0.30055736710E+03  0.30055736710E+03  0.00000000000E+00 0. -1.
    9000005    1    1    2  501    0  0.84855225992E+02  0.30330345004E+03  0.12983146970E+04  0.13945660417E+04  0.40000000000E+03 0. -1.
   -9000005    1    1    2    0  503 -0.84855225992E+02 -0.30330345004E+03  0.42648666920E+01  0.50912825621E+03  0.40000000000E+03 0. -1.
<mgrwt>
<rscale>  2 0.50911039E+03</rscale>
<asrwt>0</asrwt>
<pdfrwt beam="1">  1       21 0.24663645E+00 0.50911039E+03</pdfrwt>
<pdfrwt beam="2">  1       21 0.46239596E-01 0.50911039E+03</pdfrwt>
<totfact> 0.24206725E+02</totfact>
</mgrwt>
</event>
<event>
 4    1  0.4774032E-002  0.6056987E+03  0.7818608E-02  0.9893653E-01
         21   -1    0    0  503  502  0.00000000000E+00  0.00000000000E+00  0.10386016576E+04  0.10386016576E+04  0.00000000000E+00 0. -1.
         21   -1    0    0  501  503 -0.00000000000E+00 -0.00000000000E+00 -0.14861285592E+04  0.14861285592E+04  0.00000000000E+00 0.  1.
    9000005    1    1    2  501    0 -0.99934547882E+02  0.44371615796E+03 -0.13259402280E+04  0.14577340056E+04  0.40000000000E+03 0.  1.
   -9000005    1    1    2    0  502  0.99934547882E+02 -0.44371615796E+03  0.87841332645E+03  0.10669962112E+04  0.40000000000E+03 0. -1.
<mgrwt>
<rscale>  2 0.60569872E+03</rscale>
<asrwt>0</asrwt>
<pdfrwt beam="1">  1       21 0.15978487E+00 0.60569872E+03</pdfrwt>
<pdfrwt beam="2">  1       21 0.22863516E+00 0.60569872E+03</pdfrwt>
<totfact> 0.15478643E+01</totfact>
</mgrwt>
</event>
<event>
 4    1  0.4774032E-002  0.4068424E+03  0.7818608E-02  0.1041436E+00
         21   -1    0    0  501  502  0.00000000000E+00  0.00000000000E+00  0.38631443676E+03  0.38631443676E+03  0.00000000000E+00 0.  1.
         21   -1    0    0  502  503 -0.00000000000E+00 -0.00000000000E+00 -0.46632028926E+03  0.46632028926E+03  0.00000000000E+00 0.  1.
    9000005    1    1    2  501    0  0.56759604344E+02  0.47948393435E+02  0.81469198949E+02  0.41491918670E+03  0.40000000000E+03 0.  1.
   -9000005    1    1    2    0  503 -0.56759604344E+02 -0.47948393435E+02 -0.16147505145E+03  0.43771553932E+03  0.40000000000E+03 0.  1.
<mgrwt>
<rscale>  2 0.40684235E+03</rscale>
<asrwt>0</asrwt>
<pdfrwt beam="1">  1       21 0.59432991E-01 0.40684235E+03</pdfrwt>
<pdfrwt beam="2">  1       21 0.71741582E-01 0.40684235E+03</pdfrwt>
<totfact> 0.41300430E+03</totfact>
</mgrwt>
</event>
<event>
 4    1  0.4774032E-002  0.4575292E+03  0.7818608E-02  0.1025500E+00
         21   -1    0    0  501  502  0.00000000000E+00  0.00000000000E+00  0.17648871260E+04  0.17648871260E+04  0.00000000000E+00 0.  1.
         21   -1    0    0  502  503 -0.00000000000E+00 -0.00000000000E+00 -0.12476371048E+03  0.12476371048E+03  0.00000000000E+00 0.  1.
    9000005    1    1    2  501    0 -0.13067195037E+03 -0.17960448902E+03  0.10298989518E+04  0.11269537621E+04  0.40000000000E+03 0.  1.
   -9000005    1    1    2    0  503  0.13067195037E+03  0.17960448902E+03  0.61022446376E+03  0.76269707438E+03  0.40000000000E+03 0.  1.
<mgrwt>
<rscale>  2 0.45752916E+03</rscale>
<asrwt>0</asrwt>
<pdfrwt beam="1">  1       21 0.27152108E+00 0.45752916E+03</pdfrwt>
<pdfrwt beam="2">  1       21 0.19194418E-01 0.45752916E+03</pdfrwt>
<totfact> 0.10086169E+03</totfact>
</mgrwt>
</event>
<event>
 4    1  0.4774032E-002  0.4049370E+03  0.7818608E-02  0.1042083E+00
         21   -1    0    0  501  502  0.00000000000E+00  0.00000000000E+00  0.66953159649E+03  0.66953159649E+03  0.00000000000E+00 0.  1.
         21   -1    0    0  502  503 -0.00000000000E+00 -0.00000000000E+00 -0.33878890865E+03  0.33878890865E+03  0.00000000000E+00 0. -1.
    9000005    1    1    2  501    0 -0.60625787310E+02  0.17275981830E+02 -0.10002296912E+03  0.41710734828E+03  0.40000000000E+03 0. -1.
   -9000005    1    1    2    0  503  0.60625787310E+02 -0.17275981830E+02  0.43076565696E+03  0.59121315686E+03  0.40000000000E+03 0.  1.
<mgrwt>
<rscale>  2 0.40493697E+03</rscale>
<asrwt>0</asrwt>
<pdfrwt beam="1">  1       21 0.10300486E+00 0.40493697E+03</pdfrwt>
<pdfrwt beam="2">  1       21 0.52121371E-01 0.40493697E+03</pdfrwt>
<totfact> 0.23518625E+03</totfact>
</mgrwt>
</event>
<event>
 4    1  0.4774032E-002  0.6472463E+03  0.7818608E-02  0.9811960E-01
         21   -1    0    0  503  502  0.00000000000E+00  0.00000000000E+00  0.58609910202E+03  0.58609910202E+03  0.00000000000E+00 0.  1.
         21   -1    0    0  501  503 -0.00000000000E+00 -0.00000000000E+00 -0.78452050585E+03  0.78452050585E+03  0.00000000000E+00 0.  1.
    9000005    1    1    2  501    0 -0.26146792975E+03  0.43653438071E+03  0.10512747097E+03  0.65572824324E+03  0.40000000000E+03 0.  1.
   -9000005    1    1    2    0  502  0.26146792975E+03 -0.43653438071E+03 -0.30354887479E+03  0.71489136463E+03  0.40000000000E+03 0.  1.
<mgrwt>
<rscale>  2 0.64724628E+03</rscale>
<asrwt>0</asrwt>
<pdfrwt beam="1">  1       21 0.90169092E-01 0.64724628E+03</pdfrwt>
<pdfrwt beam="2">  1       21 0.12069546E+00 0.64724628E+03</pdfrwt>
<totfact> 0.42186544E+02</totfact>
</mgrwt>
</event>
<event>
 4    1  0.4774032E-002  0.5475248E+03  0.7818608E-02  0.1002068E+00
         21   -1    0    0  501  502  0.00000000000E+00  0.00000000000E+00  0.54304225953E+03  0.54304225953E+03  0.00000000000E+00 0.  1.
         21   -1    0    0  502  503 -0.00000000000E+00 -0.00000000000E+00 -0.94853622292E+03  0.94853622292E+03  0.00000000000E+00 0. -1.
    9000005    1    1    2  501    0 -0.16683983060E+03  0.33458608730E+03  0.27942984135E+03  0.61470677166E+03  0.40000000000E+03 0.  1.
   -9000005    1    1    2    0  503  0.16683983060E+03 -0.33458608730E+03 -0.68492380474E+03  0.87687171079E+03  0.40000000000E+03 0. -1.
<mgrwt>
<rscale>  2 0.54752477E+03</rscale>
<asrwt>0</asrwt>
<pdfrwt beam="1">  1       21 0.83544963E-01 0.54752477E+03</pdfrwt>
<pdfrwt beam="2">  1       21 0.14592865E+00 0.54752477E+03</pdfrwt>
<totfact> 0.31709531E+02</totfact>
</mgrwt>
</event>
<event>
 4    1  0.4774032E-002  0.4843106E+03  0.7818608E-02  0.1017957E+00
         21   -1    0    0  503  502  0.00000000000E+00  0.00000000000E+00  0.13985833489E+03  0.13985833489E+03  0.00000000000E+00 0. -1.
         21   -1    0    0  501  503 -0.00000000000E+00 -0.00000000000E+00 -0.17343617443E+04  0.17343617443E+04  0.00000000000E+00 0. -1.
    9000005    1    1    2  501    0  0.27276593087E+03  0.12468199721E+02 -0.96752440326E+03  0.10819705079E+04  0.40000000000E+03 0. -1.
   -9000005    1    1    2    0  502 -0.27276593087E+03 -0.12468199721E+02 -0.62697900610E+03  0.79224957125E+03  0.40000000000E+03 0. -1.
<mgrwt>
<rscale>  2 0.48431055E+03</rscale>
<asrwt>0</asrwt>
<pdfrwt beam="1">  1       21 0.21516666E-01 0.48431055E+03</pdfrwt>
<pdfrwt beam="2">  1       21 0.26682490E+00 0.48431055E+03</pdfrwt>
<totfact> 0.85465928E+02</totfact>
</mgrwt>
</event>
<event>
 4    1  0.4774032E-002  0.4019841E+03  0.7818608E-02  0.1043095E+00
         21   -1    0    0  501  502  0.00000000000E+00  0.00000000000E+00  0.18909014869E+04  0.18909014869E+04  0.00000000000E+00 0.  1.
         21   -1    0    0  502  503 -0.00000000000E+00 -0.00000000000E+00 -0.11436698026E+03  0.11436698026E+03  0.00000000000E+00 0.  1.
    9000005    1    1    2  501    0 -0.36628163709E+02  0.15798864532E+02  0.13923644468E+04  0.14492308233E+04  0.40000000000E+03 0.  1.
   -9000005    1    1    2    0  503  0.36628163709E+02 -0.15798864532E+02  0.38417005980E+03  0.55603764382E+03  0.40000000000E+03 0.  1.
<mgrwt>
<rscale>  2 0.40198411E+03</rscale>
<asrwt>0</asrwt>
<pdfrwt beam="1">  1       21 0.29090790E+00 0.40198411E+03</pdfrwt>
<pdfrwt beam="2">  1       21 0.17594921E-01 0.40198411E+03</pdfrwt>
<totfact> 0.93683145E+02</totfact>
</mgrwt>
</event>
