<event>
 4    1  0.1147209E-002  0.4030846E+03  0.7818608E-02  0.1042717E+00
         21   -1    0    0  501  502  0.00000000000E+00  0.00000000000E+00  0.53935985888E+03  0.53935985888E+03  0.00000000000E+00 0.  1.
         21   -1    0    0  502  503 -0.00000000000E+00 -0.00000000000E+00 -0.30179233534E+03  0.30179233534E+03  0.00000000000E+00 0.  1.
    9000007    1    1    2  501    0  0.47185696567E+02 -0.15833620988E+02  0.10080422429E+03  0.41549811690E+03  0.40000000000E+03 0.  1.
   -9000007    1    1    2    0  503 -0.47185696567E+02  0.15833620988E+02  0.13676329926E+03  0.42565407732E+03  0.40000000000E+03 0.  1.
<mgrwt>
<rscale>  2 0.40308460E+03</rscale>
<asrwt>0</asrwt>
<pdfrwt beam="1">  1       21 0.82978440E-01 0.40308460E+03</pdfrwt>
<pdfrwt beam="2">  1       21 0.46429590E-01 0.40308460E+03</pdfrwt>
<totfact> 0.50275877E+03</totfact>
</mgrwt>
</event>
<event>
 4    1  0.1147209E-002  0.4347685E+03  0.7818608E-02  0.1032364E+00
         21   -1    0    0  503  502  0.00000000000E+00  0.00000000000E+00  0.10443133428E+03  0.10443133428E+03  0.00000000000E+00 0.  1.
         21   -1    0    0  501  503 -0.00000000000E+00 -0.00000000000E+00 -0.18635424296E+04  0.18635424296E+04  0.00000000000E+00 0.  1.
    9000007    1    1    2  501    0 -0.11373709790E+03  0.12683658788E+03 -0.10463013048E+04  0.11330357752E+04  0.40000000000E+03 0. -1.
   -9000007    1    1    2    0  502  0.11373709790E+03 -0.12683658788E+03 -0.71280979046E+03  0.83493798862E+03  0.40000000000E+03 0. -1.
<mgrwt>
<rscale>  2 0.43476850E+03</rscale>
<asrwt>0</asrwt>
<pdfrwt beam="1">  1       21 0.16066360E-01 0.43476850E+03</pdfrwt>
<pdfrwt beam="2">  1       21 0.28669881E+00 0.43476850E+03</pdfrwt>
<totfact> 0.11551077E+03</totfact>
</mgrwt>
</event>
<event>
 4    1  0.1147209E-002  0.4324326E+03  0.7818608E-02  0.1033094E+00
         21   -1    0    0  501  502  0.00000000000E+00  0.00000000000E+00  0.49814735368E+03  0.49814735368E+03  0.00000000000E+00 0.  1.
         21   -1    0    0  502  503 -0.00000000000E+00 -0.00000000000E+00 -0.40807156053E+03  0.40807156053E+03  0.00000000000E+00 0.  1.
    9000007    1    1    2  501    0  0.13660345215E+03  0.91309542691E+02  0.17327322448E+03  0.46585571376E+03  0.40000000000E+03 0.  1.
   -9000007    1    1    2    0  503 -0.13660345215E+03 -0.91309542691E+02 -0.83197431328E+02  0.44036320044E+03  0.40000000000E+03 0.  1.
<mgrwt>
<rscale>  2 0.43243258E+03</rscale>
<asrwt>0</asrwt>
<pdfrwt beam="1">  1       21 0.76638054E-01 0.43243258E+03</pdfrwt>
<pdfrwt beam="2">  1       21 0.62780240E-01 0.43243258E+03</pdfrwt>
<totfact> 0.31221646E+03</totfact>
</mgrwt>
</event>
<event>
 4    1  0.1147209E-002  0.4205074E+03  0.7818608E-02  0.1036901E+00
         21   -1    0    0  501  502  0.00000000000E+00  0.00000000000E+00  0.15208265574E+04  0.15208265574E+04  0.00000000000E+00 0.  1.
         21   -1    0    0  502  503 -0.00000000000E+00 -0.00000000000E+00 -0.11665045177E+03  0.11665045177E+03  0.00000000000E+00 0.  1.
    9000007    1    1    2  501    0  0.12393125971E+03 -0.38307737418E+02  0.74884819302E+03  0.85883645479E+03  0.40000000000E+03 0. -1.
   -9000007    1    1    2    0  503 -0.12393125971E+03  0.38307737418E+02  0.65532791259E+03  0.77864055436E+03  0.40000000000E+03 0. -1.
<mgrwt>
<rscale>  2 0.42050736E+03</rscale>
<asrwt>0</asrwt>
<pdfrwt beam="1">  1       21 0.23397330E+00 0.42050736E+03</pdfrwt>
<pdfrwt beam="2">  1       21 0.17946224E-01 0.42050736E+03</pdfrwt>
<totfact> 0.19811605E+03</totfact>
</mgrwt>
</event>
<event>
 4    1  0.1147209E-002  0.4678748E+03  0.7818608E-02  0.1022522E+00
         21   -1    0    0  501  502  0.00000000000E+00  0.00000000000E+00  0.15171875080E+03  0.15171875080E+03  0.00000000000E+00 0. -1.
         21   -1    0    0  502  503 -0.00000000000E+00 -0.00000000000E+00 -0.14678777738E+04  0.14678777738E+04  0.00000000000E+00 0. -1.
    9000007    1    1    2  501    0 -0.11740062823E+03 -0.21242381359E+03 -0.76382898159E+03  0.89573517135E+03  0.40000000000E+03 0. -1.
   -9000007    1    1    2    0  503  0.11740062823E+03  0.21242381359E+03 -0.55233004146E+03  0.72386135329E+03  0.40000000000E+03 0. -1.
<mgrwt>
<rscale>  2 0.46787475E+03</rscale>
<asrwt>0</asrwt>
<pdfrwt beam="1">  1       21 0.23341348E-01 0.46787475E+03</pdfrwt>
<pdfrwt beam="2">  1       21 0.22582734E+00 0.46787475E+03</pdfrwt>
<totfact> 0.13209187E+03</totfact>
</mgrwt>
</event>
<event>
 4    1  0.1147209E-002  0.4457404E+03  0.7818608E-02  0.1029000E+00
         21   -1    0    0  503  502  0.00000000000E+00  0.00000000000E+00  0.40675063396E+03  0.40675063396E+03  0.00000000000E+00 0.  1.
         21   -1    0    0  501  503 -0.00000000000E+00 -0.00000000000E+00 -0.51153932063E+03  0.51153932063E+03  0.00000000000E+00 0.  1.
    9000007    1    1    2  501    0 -0.18835011120E+03  0.56645952713E+02 -0.14990448805E+03  0.47027213811E+03  0.40000000000E+03 0.  1.
   -9000007    1    1    2    0  502  0.18835011120E+03 -0.56645952713E+02  0.45115801375E+02  0.44801781648E+03  0.40000000000E+03 0.  1.
<mgrwt>
<rscale>  2 0.44574043E+03</rscale>
<asrwt>0</asrwt>
<pdfrwt beam="1">  1       21 0.62577021E-01 0.44574043E+03</pdfrwt>
<pdfrwt beam="2">  1       21 0.78698357E-01 0.44574043E+03</pdfrwt>
<totfact> 0.29446122E+03</totfact>
</mgrwt>
</event>
<event>
 4    1  0.1147209E-002  0.6024690E+03  0.7818608E-02  0.9900297E-01
         21   -1    0    0  503  502  0.00000000000E+00  0.00000000000E+00  0.12960992515E+04  0.12960992515E+04  0.00000000000E+00 0.  1.
         21   -1    0    0  501  503 -0.00000000000E+00 -0.00000000000E+00 -0.39548730068E+03  0.39548730068E+03  0.00000000000E+00 0.  1.
    9000007    1    1    2  501    0  0.44449376273E+03  0.73444763631E+02 -0.66522413899E+01  0.60250567692E+03  0.40000000000E+03 0.  1.
   -9000007    1    1    2    0  502 -0.44449376273E+03 -0.73444763631E+02  0.90726419224E+03  0.10890808753E+04  0.40000000000E+03 0.  1.
<mgrwt>
<rscale>  2 0.60246895E+03</rscale>
<asrwt>0</asrwt>
<pdfrwt beam="1">  1       21 0.19939988E+00 0.60246895E+03</pdfrwt>
<pdfrwt beam="2">  1       21 0.60844201E-01 0.60246895E+03</pdfrwt>
<totfact> 0.25905628E+02</totfact>
</mgrwt>
</event>
<event>
 4    1  0.1147209E-002  0.4057919E+03  0.7818608E-02  0.1041792E+00
         21   -1    0    0  503  502  0.00000000000E+00  0.00000000000E+00  0.13767043130E+04  0.13767043130E+04  0.00000000000E+00 0. -1.
         21   -1    0    0  501  503 -0.00000000000E+00 -0.00000000000E+00 -0.16262657908E+03  0.16262657908E+03  0.00000000000E+00 0. -1.
    9000007    1    1    2  501    0 -0.25938553876E+02  0.63200120432E+02  0.21119297910E+03  0.45745987608E+03  0.40000000000E+03 0. -1.
   -9000007    1    1    2    0  502  0.25938553876E+02 -0.63200120432E+02  0.10028847548E+04  0.10818710160E+04  0.40000000000E+03 0. -1.
<mgrwt>
<rscale>  2 0.40579190E+03</rscale>
<asrwt>0</asrwt>
<pdfrwt beam="1">  1       21 0.21180066E+00 0.40579190E+03</pdfrwt>
<pdfrwt beam="2">  1       21 0.25019475E-01 0.40579190E+03</pdfrwt>
<totfact> 0.14621351E+03</totfact>
</mgrwt>
</event>
<event>
 4    1  0.1147209E-002  0.4170127E+03  0.7818608E-02  0.1038043E+00
         21   -1    0    0  501  502  0.00000000000E+00  0.00000000000E+00  0.19240259237E+03  0.19240259237E+03  0.00000000000E+00 0.  1.
         21   -1    0    0  502  503 -0.00000000000E+00 -0.00000000000E+00 -0.91657369663E+03  0.91657369663E+03  0.00000000000E+00 0.  1.
    9000007    1    1    2  501    0  0.11203662015E+03  0.36706290058E+02 -0.42746298425E+03  0.59718017288E+03  0.40000000000E+03 0.  1.
   -9000007    1    1    2    0  503 -0.11203662015E+03 -0.36706290058E+02 -0.29670812002E+03  0.51179611611E+03  0.40000000000E+03 0.  1.
<mgrwt>
<rscale>  2 0.41701266E+03</rscale>
<asrwt>0</asrwt>
<pdfrwt beam="1">  1       21 0.29600398E-01 0.41701266E+03</pdfrwt>
<pdfrwt beam="2">  1       21 0.14101134E+00 0.41701266E+03</pdfrwt>
<totfact> 0.33694070E+03</totfact>
</mgrwt>
</event>
<event>
 4    1  0.1147209E-002  0.4731171E+03  0.7818608E-02  0.1021044E+00
         21   -1    0    0  501  502  0.00000000000E+00  0.00000000000E+00  0.65423812400E+03  0.65423812400E+03  0.00000000000E+00 0.  1.
         21   -1    0    0  502  503 -0.00000000000E+00 -0.00000000000E+00 -0.50485055325E+03  0.50485055325E+03  0.00000000000E+00 0.  1.
    9000007    1    1    2  501    0  0.22051462489E+03 -0.12334133016E+03 -0.25432118309E+03  0.53713969103E+03  0.40000000000E+03 0.  1.
   -9000007    1    1    2    0  503 -0.22051462489E+03  0.12334133016E+03  0.40370875384E+03  0.62194898621E+03  0.40000000000E+03 0.  1.
<mgrwt>
<rscale>  2 0.47311709E+03</rscale>
<asrwt>0</asrwt>
<pdfrwt beam="1">  1       21 0.10065202E+00 0.47311709E+03</pdfrwt>
<pdfrwt beam="2">  1       21 0.77669316E-01 0.47311709E+03</pdfrwt>
<totfact> 0.10011330E+03</totfact>
</mgrwt>
</event>
<event>
 4    1  0.1147209E-002  0.4641226E+03  0.7818608E-02  0.1023592E+00
         21   -1    0    0  501  502  0.00000000000E+00  0.00000000000E+00  0.45117694582E+03  0.45117694582E+03  0.00000000000E+00 0. -1.
         21   -1    0    0  502  503 -0.00000000000E+00 -0.00000000000E+00 -0.48148723798E+03  0.48148723798E+03  0.00000000000E+00 0. -1.
    9000007    1    1    2  501    0 -0.13941208961E+03 -0.18966822075E+03  0.27601228501E+02  0.46494256904E+03  0.40000000000E+03 0. -1.
   -9000007    1    1    2    0  503  0.13941208961E+03  0.18966822075E+03 -0.57911520659E+02  0.46772161476E+03  0.40000000000E+03 0. -1.
<mgrwt>
<rscale>  2 0.46412258E+03</rscale>
<asrwt>0</asrwt>
<pdfrwt beam="1">  1       21 0.69411838E-01 0.46412258E+03</pdfrwt>
<pdfrwt beam="2">  1       21 0.74074959E-01 0.46412258E+03</pdfrwt>
<totfact> 0.26674254E+03</totfact>
</mgrwt>
</event>
<event>
 4    1  0.1147209E-002  0.4148030E+03  0.7818608E-02  0.1038771E+00
         21   -1    0    0  503  502  0.00000000000E+00  0.00000000000E+00  0.12229128686E+04  0.12229128686E+04  0.00000000000E+00 0. -1.
         21   -1    0    0  501  503 -0.00000000000E+00 -0.00000000000E+00 -0.20332236169E+03  0.20332236169E+03  0.00000000000E+00 0. -1.
    9000007    1    1    2  501    0  0.42738178703E+02 -0.10116806000E+03  0.11402798890E+03  0.43019055142E+03  0.40000000000E+03 0. -1.
   -9000007    1    1    2    0  502 -0.42738178703E+02  0.10116806000E+03  0.90556251803E+03  0.99604467889E+03  0.40000000000E+03 0. -1.
<mgrwt>
<rscale>  2 0.41480300E+03</rscale>
<asrwt>0</asrwt>
<pdfrwt beam="1">  1       21 0.18814044E+00 0.41480300E+03</pdfrwt>
<pdfrwt beam="2">  1       21 0.31280364E-01 0.41480300E+03</pdfrwt>
<totfact> 0.13477317E+03</totfact>
</mgrwt>
</event>
<event>
 4    1  0.1147209E-002  0.5061687E+03  0.7818608E-02  0.1012181E+00
         21   -1    0    0  501  502  0.00000000000E+00  0.00000000000E+00  0.18214608073E+03  0.18214608073E+03  0.00000000000E+00 0.  1.
         21   -1    0    0  502  503 -0.00000000000E+00 -0.00000000000E+00 -0.15594634469E+04  0.15594634469E+04  0.00000000000E+00 0.  1.
    9000007    1    1    2  501    0 -0.23283088879E+03 -0.20493057395E+03 -0.41602196089E+03  0.65519541730E+03  0.40000000000E+03 0.  1.
   -9000007    1    1    2    0  503  0.23283088879E+03  0.20493057395E+03 -0.96129540532E+03  0.10864141104E+04  0.40000000000E+03 0.  1.
<mgrwt>
<rscale>  2 0.50616871E+03</rscale>
<asrwt>0</asrwt>
<pdfrwt beam="1">  1       21 0.28022475E-01 0.50616871E+03</pdfrwt>
<pdfrwt beam="2">  1       21 0.23991744E+00 0.50616871E+03</pdfrwt>
<totfact> 0.74076678E+02</totfact>
</mgrwt>
</event>
<event>
 4    1  0.1147209E-002  0.4669815E+03  0.7818608E-02  0.1022776E+00
         21   -1    0    0  503  502  0.00000000000E+00  0.00000000000E+00  0.10520899016E+04  0.10520899016E+04  0.00000000000E+00 0. -1.
         21   -1    0    0  501  503 -0.00000000000E+00 -0.00000000000E+00 -0.25255374388E+03  0.25255374388E+03  0.00000000000E+00 0. -1.
    9000007    1    1    2  501    0 -0.59332914382E+02  0.23356230696E+03  0.12356211861E+03  0.48305211222E+03  0.40000000000E+03 0. -1.
   -9000007    1    1    2    0  502  0.59332914382E+02 -0.23356230696E+03  0.67597403909E+03  0.82159153324E+03  0.40000000000E+03 0. -1.
<mgrwt>
<rscale>  2 0.46698153E+03</rscale>
<asrwt>0</asrwt>
<pdfrwt beam="1">  1       21 0.16185998E+00 0.46698153E+03</pdfrwt>
<pdfrwt beam="2">  1       21 0.38854423E-01 0.46698153E+03</pdfrwt>
<totfact> 0.13106990E+03</totfact>
</mgrwt>
</event>
<event>
 4    1  0.1147209E-002  0.4361217E+03  0.7818608E-02  0.1031943E+00
         21   -1    0    0  503  502  0.00000000000E+00  0.00000000000E+00  0.90293113058E+03  0.90293113058E+03  0.00000000000E+00 0.  1.
         21   -1    0    0  501  503 -0.00000000000E+00 -0.00000000000E+00 -0.22556363344E+03  0.22556363344E+03  0.00000000000E+00 0.  1.
    9000007    1    1    2  501    0  0.34839657846E+02  0.17025959742E+03  0.19359566339E+03  0.47715973547E+03  0.40000000000E+03 0.  1.
   -9000007    1    1    2    0  502 -0.34839657846E+02 -0.17025959742E+03  0.48377183376E+03  0.65133502854E+03  0.40000000000E+03 0.  1.
<mgrwt>
<rscale>  2 0.43612169E+03</rscale>
<asrwt>0</asrwt>
<pdfrwt beam="1">  1       21 0.13891248E+00 0.43612169E+03</pdfrwt>
<pdfrwt beam="2">  1       21 0.34702098E-01 0.43612169E+03</pdfrwt>
<totfact> 0.25320416E+03</totfact>
</mgrwt>
</event>
<event>
 4    1  0.1147209E-002  0.4498247E+03  0.7818608E-02  0.1027774E+00
         21   -1    0    0  501  502  0.00000000000E+00  0.00000000000E+00  0.89546114848E+03  0.89546114848E+03  0.00000000000E+00 0. -1.
         21   -1    0    0  502  503 -0.00000000000E+00 -0.00000000000E+00 -0.30016894962E+03  0.30016894962E+03  0.00000000000E+00 0.  1.
    9000007    1    1    2  501    0 -0.19636039585E+03  0.61520958163E+02  0.59488084800E+03  0.74580524044E+03  0.40000000000E+03 0.  1.
   -9000007    1    1    2    0  503  0.19636039585E+03 -0.61520958163E+02  0.41135085833E+00  0.44982485765E+03  0.40000000000E+03 0. -1.
<mgrwt>
<rscale>  2 0.44982467E+03</rscale>
<asrwt>0</asrwt>
<pdfrwt beam="1">  1       21 0.13776325E+00 0.44982467E+03</pdfrwt>
<pdfrwt beam="2">  1       21 0.46179839E-01 0.44982467E+03</pdfrwt>
<totfact> 0.14289081E+03</totfact>
</mgrwt>
</event>
<event>
 4    1  0.1147209E-002  0.4810052E+03  0.7818608E-02  0.1018859E+00
         21   -1    0    0  501  502  0.00000000000E+00  0.00000000000E+00  0.42586208092E+03  0.42586208092E+03  0.00000000000E+00 0.  1.
         21   -1    0    0  502  503 -0.00000000000E+00 -0.00000000000E+00 -0.54514696659E+03  0.54514696659E+03  0.00000000000E+00 0. -1.
    9000007    1    1    2  501    0  0.12369103993E+03 -0.23678375808E+03 -0.31295902599E+02  0.48202225568E+03  0.40000000000E+03 0.  1.
   -9000007    1    1    2    0  503 -0.12369103993E+03  0.23678375808E+03 -0.87988983068E+02  0.48898679184E+03  0.40000000000E+03 0.  1.
<mgrwt>
<rscale>  2 0.48100522E+03</rscale>
<asrwt>0</asrwt>
<pdfrwt beam="1">  1       21 0.65517244E-01 0.48100522E+03</pdfrwt>
<pdfrwt beam="2">  1       21 0.83868764E-01 0.48100522E+03</pdfrwt>
<totfact> 0.22663027E+03</totfact>
</mgrwt>
</event>
<event>
 4    1  0.1147209E-002  0.1305873E+04  0.7818608E-02  0.9024921E-01
         21   -1    0    0  501  502  0.00000000000E+00  0.00000000000E+00  0.11187341799E+04  0.11187341799E+04  0.00000000000E+00 0. -1.
         21   -1    0    0  502  503 -0.00000000000E+00 -0.00000000000E+00 -0.15524103165E+04  0.15524103165E+04  0.00000000000E+00 0.  1.
    9000007    1    1    2  501    0  0.10074843399E+04 -0.72820282242E+03 -0.37167939201E+02  0.13064017381E+04  0.40000000000E+03 0.  1.
   -9000007    1    1    2    0  503 -0.10074843399E+04  0.72820282242E+03 -0.39650819735E+03  0.13647427583E+04  0.40000000000E+03 0. -1.
<mgrwt>
<rscale>  2 0.13058729E+04</rscale>
<asrwt>0</asrwt>
<pdfrwt beam="1">  1       21 0.17211295E+00 0.13058729E+04</pdfrwt>
<pdfrwt beam="2">  1       21 0.23883236E+00 0.13058729E+04</pdfrwt>
<totfact> 0.84980423E+00</totfact>
</mgrwt>
</event>
<event>
 4    1  0.1147209E-002  0.5460105E+03  0.7818608E-02  0.1002422E+00
         21   -1    0    0  503  502  0.00000000000E+00  0.00000000000E+00  0.18566076086E+03  0.18566076086E+03  0.00000000000E+00 0. -1.
         21   -1    0    0  501  503 -0.00000000000E+00 -0.00000000000E+00 -0.16678143101E+04  0.16678143101E+04  0.00000000000E+00 0. -1.
    9000007    1    1    2  501    0 -0.63672291057E+02  0.36616014649E+03 -0.91983004159E+03  0.10696797273E+04  0.40000000000E+03 0. -1.
   -9000007    1    1    2    0  502  0.63672291057E+02 -0.36616014649E+03 -0.56232350765E+03  0.78379534368E+03  0.40000000000E+03 0. -1.
<mgrwt>
<rscale>  2 0.54601045E+03</rscale>
<asrwt>0</asrwt>
<pdfrwt beam="1">  1       21 0.28563194E-01 0.54601045E+03</pdfrwt>
<pdfrwt beam="2">  1       21 0.25658682E+00 0.54601045E+03</pdfrwt>
<totfact> 0.55265654E+02</totfact>
</mgrwt>
</event>
<event>
 4    1  0.1147209E-002  0.4448923E+03  0.7818608E-02  0.1029256E+00
         21   -1    0    0  503  502  0.00000000000E+00  0.00000000000E+00  0.12193975585E+04  0.12193975585E+04  0.00000000000E+00 0. -1.
         21   -1    0    0  501  503 -0.00000000000E+00 -0.00000000000E+00 -0.16824797708E+03  0.16824797708E+03  0.00000000000E+00 0. -1.
    9000007    1    1    2  501    0 -0.30606057123E+02  0.19233420452E+03  0.39530910356E+03  0.59514575048E+03  0.40000000000E+03 0. -1.
   -9000007    1    1    2    0  502  0.30606057123E+02 -0.19233420452E+03  0.65584047785E+03  0.79249978508E+03  0.40000000000E+03 0. -1.
<mgrwt>
<rscale>  2 0.44489232E+03</rscale>
<asrwt>0</asrwt>
<pdfrwt beam="1">  1       21 0.18759962E+00 0.44489232E+03</pdfrwt>
<pdfrwt beam="2">  1       21 0.25884305E-01 0.44489232E+03</pdfrwt>
<totfact> 0.19485602E+03</totfact>
</mgrwt>
</event>
<event>
 4    1  0.1147209E-002  0.4407519E+03  0.7818608E-02  0.1030516E+00
         21   -1    0    0  501  502  0.00000000000E+00  0.00000000000E+00  0.90130996466E+03  0.90130996466E+03  0.00000000000E+00 0.  1.
         21   -1    0    0  502  503 -0.00000000000E+00 -0.00000000000E+00 -0.34324553138E+03  0.34324553138E+03  0.00000000000E+00 0.  1.
    9000007    1    1    2  501    0  0.79958897918E+02 -0.16693946508E+03  0.65860779436E+03  0.79248119041E+03  0.40000000000E+03 0.  1.
   -9000007    1    1    2    0  503 -0.79958897918E+02  0.16693946508E+03 -0.10054336108E+03  0.45207430563E+03  0.40000000000E+03 0.  1.
<mgrwt>
<rscale>  2 0.44075187E+03</rscale>
<asrwt>0</asrwt>
<pdfrwt beam="1">  1       21 0.13866307E+00 0.44075187E+03</pdfrwt>
<pdfrwt beam="2">  1       21 0.52807005E-01 0.44075187E+03</pdfrwt>
<totfact> 0.10605136E+03</totfact>
</mgrwt>
</event>
<event>
 4    1  0.1147209E-002  0.4280226E+03  0.7818608E-02  0.1034486E+00
         21   -1    0    0  501  502  0.00000000000E+00  0.00000000000E+00  0.24897409818E+03  0.24897409818E+03  0.00000000000E+00 0. -1.
         21   -1    0    0  502  503 -0.00000000000E+00 -0.00000000000E+00 -0.73867104251E+03  0.73867104251E+03  0.00000000000E+00 0. -1.
    9000007    1    1    2  501    0 -0.10954873962E+03 -0.10584161922E+03 -0.21423944101E+03  0.47864591589E+03  0.40000000000E+03 0. -1.
   -9000007    1    1    2    0  503  0.10954873962E+03  0.10584161922E+03 -0.27545750332E+03  0.50899922480E+03  0.40000000000E+03 0. -1.
<mgrwt>
<rscale>  2 0.42802263E+03</rscale>
<asrwt>0</asrwt>
<pdfrwt beam="1">  1       21 0.38303708E-01 0.42802263E+03</pdfrwt>
<pdfrwt beam="2">  1       21 0.11364170E+00 0.42802263E+03</pdfrwt>
<totfact> 0.34805767E+03</totfact>
</mgrwt>
</event>
<event>
 4    1  0.1147209E-002  0.4431380E+03  0.7818608E-02  0.1029788E+00
         21   -1    0    0  503  502  0.00000000000E+00  0.00000000000E+00  0.13868610708E+03  0.13868610708E+03  0.00000000000E+00 0.  1.
         21   -1    0    0  501  503 -0.00000000000E+00 -0.00000000000E+00 -0.14589844799E+04  0.14589844799E+04  0.00000000000E+00 0. -1.
    9000007    1    1    2  501    0 -0.13529135185E+03 -0.13441541316E+03 -0.52293818267E+03  0.68544554567E+03  0.40000000000E+03 0. -1.
   -9000007    1    1    2    0  502  0.13529135185E+03  0.13441541316E+03 -0.79736019016E+03  0.91222504133E+03  0.40000000000E+03 0. -1.
<mgrwt>
<rscale>  2 0.44313796E+03</rscale>
<asrwt>0</asrwt>
<pdfrwt beam="1">  1       21 0.21336324E-01 0.44313796E+03</pdfrwt>
<pdfrwt beam="2">  1       21 0.22445915E+00 0.44313796E+03</pdfrwt>
<totfact> 0.16199567E+03</totfact>
</mgrwt>
</event>
<event>
 4    1  0.1147209E-002  0.5505938E+03  0.7818608E-02  0.1001357E+00
         21   -1    0    0  501  502  0.00000000000E+00  0.00000000000E+00  0.59500801928E+03  0.59500801928E+03  0.00000000000E+00 0. -1.
         21   -1    0    0  502  503 -0.00000000000E+00 -0.00000000000E+00 -0.84393968798E+03  0.84393968798E+03  0.00000000000E+00 0. -1.
    9000007    1    1    2  501    0  0.36759485582E+03 -0.89596622073E+02  0.32845421587E+03  0.64112066308E+03  0.40000000000E+03 0. -1.
   -9000007    1    1    2    0  503 -0.36759485582E+03  0.89596622073E+02 -0.57738588457E+03  0.79782704418E+03  0.40000000000E+03 0. -1.
<mgrwt>
<rscale>  2 0.55059380E+03</rscale>
<asrwt>0</asrwt>
<pdfrwt beam="1">  1       21 0.91539696E-01 0.55059380E+03</pdfrwt>
<pdfrwt beam="2">  1       21 0.12983687E+00 0.55059380E+03</pdfrwt>
<totfact> 0.34810738E+02</totfact>
</mgrwt>
</event>
<event>
 4    1  0.1147209E-002  0.4436757E+03  0.7818608E-02  0.1029625E+00
         21   -1    0    0  503  502  0.00000000000E+00  0.00000000000E+00  0.33297134761E+03  0.33297134761E+03  0.00000000000E+00 0. -1.
         21   -1    0    0  501  503 -0.00000000000E+00 -0.00000000000E+00 -0.59276513961E+03  0.59276513961E+03  0.00000000000E+00 0. -1.
    9000007    1    1    2  501    0 -0.13995914322E+01  0.19195352088E+03 -0.15378486717E+03  0.46957203750E+03  0.40000000000E+03 0. -1.
   -9000007    1    1    2    0  502  0.13995914322E+01 -0.19195352088E+03 -0.10600892483E+03  0.45616444971E+03  0.40000000000E+03 0. -1.
<mgrwt>
<rscale>  2 0.44367568E+03</rscale>
<asrwt>0</asrwt>
<pdfrwt beam="1">  1       21 0.51226361E-01 0.44367568E+03</pdfrwt>
<pdfrwt beam="2">  1       21 0.91194637E-01 0.44367568E+03</pdfrwt>
<totfact> 0.32234340E+03</totfact>
</mgrwt>
</event>
<event>
 4    1  0.1147209E-002  0.4364077E+03  0.7818608E-02  0.1031855E+00
         21   -1    0    0  503  502  0.00000000000E+00  0.00000000000E+00  0.12030176655E+04  0.12030176655E+04  0.00000000000E+00 0.  1.
         21   -1    0    0  501  503 -0.00000000000E+00 -0.00000000000E+00 -0.15840142391E+03  0.15840142391E+03  0.00000000000E+00 0.  1.
    9000007    1    1    2  501    0 -0.83550861366E+02 -0.15320234081E+03  0.53851402810E+03  0.69314432994E+03  0.40000000000E+03 0.  1.
   -9000007    1    1    2    0  502  0.83550861366E+02  0.15320234081E+03  0.50610221351E+03  0.66827475950E+03  0.40000000000E+03 0.  1.
<mgrwt>
<rscale>  2 0.43640773E+03</rscale>
<asrwt>0</asrwt>
<pdfrwt beam="1">  1       21 0.18507963E+00 0.43640773E+03</pdfrwt>
<pdfrwt beam="2">  1       21 0.24369451E-01 0.43640773E+03</pdfrwt>
<totfact> 0.22889607E+03</totfact>
</mgrwt>
</event>
<event>
 4    1  0.1147209E-002  0.4156497E+03  0.7818608E-02  0.1038492E+00
         21   -1    0    0  503  502  0.00000000000E+00  0.00000000000E+00  0.15725541393E+04  0.15725541393E+04  0.00000000000E+00 0.  1.
         21   -1    0    0  501  503 -0.00000000000E+00 -0.00000000000E+00 -0.12935500317E+03  0.12935500317E+03  0.00000000000E+00 0. -1.
    9000007    1    1    2  501    0 -0.10579641905E+03 -0.39646090288E+02  0.39126896488E+03  0.57083806604E+03  0.40000000000E+03 0. -1.
   -9000007    1    1    2    0  502  0.10579641905E+03  0.39646090288E+02  0.10519301713E+04  0.11310710764E+04  0.40000000000E+03 0.  1.
<mgrwt>
<rscale>  2 0.41564973E+03</rscale>
<asrwt>0</asrwt>
<pdfrwt beam="1">  1       21 0.24193139E+00 0.41564973E+03</pdfrwt>
<pdfrwt beam="2">  1       21 0.19900771E-01 0.41564973E+03</pdfrwt>
<totfact> 0.14579017E+03</totfact>
</mgrwt>
</event>
<event>
 4    1  0.1147209E-002  0.4028027E+03  0.7818608E-02  0.1042814E+00
         21   -1    0    0  503  502  0.00000000000E+00  0.00000000000E+00  0.85997099728E+03  0.85997099728E+03  0.00000000000E+00 0. -1.
         21   -1    0    0  501  503 -0.00000000000E+00 -0.00000000000E+00 -0.37359350033E+03  0.37359350033E+03  0.00000000000E+00 0. -1.
    9000007    1    1    2  501    0 -0.41304793695E+02  0.23322210742E+02 -0.19075080851E+03  0.44568585623E+03  0.40000000000E+03 0. -1.
   -9000007    1    1    2    0  502  0.41304793695E+02 -0.23322210742E+02  0.67712830545E+03  0.78787864138E+03  0.40000000000E+03 0. -1.
<mgrwt>
<rscale>  2 0.40280270E+03</rscale>
<asrwt>0</asrwt>
<pdfrwt beam="1">  1       21 0.13230323E+00 0.40280270E+03</pdfrwt>
<pdfrwt beam="2">  1       21 0.57475923E-01 0.40280270E+03</pdfrwt>
<totfact> 0.10162990E+03</totfact>
</mgrwt>
</event>
<event>
 4    1  0.1147209E-002  0.4034473E+03  0.7818608E-02  0.1042593E+00
         21   -1    0    0  503  502  0.00000000000E+00  0.00000000000E+00  0.78049436023E+03  0.78049436023E+03  0.00000000000E+00 0.  1.
         21   -1    0    0  501  503 -0.00000000000E+00 -0.00000000000E+00 -0.24396367623E+03  0.24396367623E+03  0.00000000000E+00 0.  1.
    9000007    1    1    2  501    0  0.33168297257E+02 -0.40860178745E+02  0.73098505790E+02  0.41001595298E+03  0.40000000000E+03 0. -1.
   -9000007    1    1    2    0  502 -0.33168297257E+02  0.40860178745E+02  0.46343217821E+03  0.61444208348E+03  0.40000000000E+03 0. -1.
<mgrwt>
<rscale>  2 0.40344726E+03</rscale>
<asrwt>0</asrwt>
<pdfrwt beam="1">  1       21 0.12007605E+00 0.40344726E+03</pdfrwt>
<pdfrwt beam="2">  1       21 0.37532874E-01 0.40344726E+03</pdfrwt>
<totfact> 0.31900283E+03</totfact>
</mgrwt>
</event>
<event>
 4    1  0.1147209E-002  0.5688364E+03  0.7818608E-02  0.9972257E-01
         21   -1    0    0  503  502  0.00000000000E+00  0.00000000000E+00  0.12520370297E+04  0.12520370297E+04  0.00000000000E+00 0. -1.
         21   -1    0    0  501  503 -0.00000000000E+00 -0.00000000000E+00 -0.26302990053E+03  0.26302990053E+03  0.00000000000E+00 0.  1.
    9000007    1    1    2  501    0  0.81397143060E+01 -0.40436200445E+03  0.39442063640E+03  0.69220121642E+03  0.40000000000E+03 0. -1.
   -9000007    1    1    2    0  502 -0.81397143060E+01  0.40436200445E+03  0.59458649281E+03  0.82286571385E+03  0.40000000000E+03 0. -1.
<mgrwt>
<rscale>  2 0.56883643E+03</rscale>
<asrwt>0</asrwt>
<pdfrwt beam="1">  1       21 0.19262108E+00 0.56883643E+03</pdfrwt>
<pdfrwt beam="2">  1       21 0.40466139E-01 0.56883643E+03</pdfrwt>
<totfact> 0.69807169E+02</totfact>
</mgrwt>
</event>
<event>
 4    1  0.1147209E-002  0.6549623E+03  0.7818608E-02  0.9797512E-01
         21   -1    0    0  501  502  0.00000000000E+00  0.00000000000E+00  0.72168709241E+03  0.72168709241E+03  0.00000000000E+00 0. -1.
         21   -1    0    0  502  503 -0.00000000000E+00 -0.00000000000E+00 -0.66716231539E+03  0.66716231539E+03  0.00000000000E+00 0. -1.
    9000007    1    1    2  501    0 -0.82898875470E+02 -0.51196034657E+03  0.25658282679E+03  0.70342758477E+03  0.40000000000E+03 0. -1.
   -9000007    1    1    2    0  503  0.82898875470E+02  0.51196034657E+03 -0.20205804976E+03  0.68542182303E+03  0.40000000000E+03 0. -1.
<mgrwt>
<rscale>  2 0.65496230E+03</rscale>
<asrwt>0</asrwt>
<pdfrwt beam="1">  1       21 0.11102878E+00 0.65496230E+03</pdfrwt>
<pdfrwt beam="2">  1       21 0.10264036E+00 0.65496230E+03</pdfrwt>
<totfact> 0.37968031E+02</totfact>
</mgrwt>
</event>
<event>
 4    1  0.1147209E-002  0.4420831E+03  0.7818608E-02  0.1030110E+00
         21   -1    0    0  501  502  0.00000000000E+00  0.00000000000E+00  0.10767572714E+04  0.10767572714E+04  0.00000000000E+00 0. -1.
         21   -1    0    0  502  503 -0.00000000000E+00 -0.00000000000E+00 -0.18254246744E+03  0.18254246744E+03  0.00000000000E+00 0. -1.
    9000007    1    1    2  501    0 -0.18229969764E+03 -0.46950146629E+02  0.49456159689E+03  0.66334656790E+03  0.40000000000E+03 0. -1.
   -9000007    1    1    2    0  503  0.18229969764E+03  0.46950146629E+02  0.39965320704E+03  0.59595317092E+03  0.40000000000E+03 0. -1.
<mgrwt>
<rscale>  2 0.44208313E+03</rscale>
<asrwt>0</asrwt>
<pdfrwt beam="1">  1       21 0.16565496E+00 0.44208313E+03</pdfrwt>
<pdfrwt beam="2">  1       21 0.28083457E-01 0.44208313E+03</pdfrwt>
<totfact> 0.23827998E+03</totfact>
</mgrwt>
</event>
<event>
 4    1  0.1147209E-002  0.4698857E+03  0.7818608E-02  0.1021952E+00
         21   -1    0    0  503  502  0.00000000000E+00  0.00000000000E+00  0.49363474789E+03  0.49363474789E+03  0.00000000000E+00 0.  1.
         21   -1    0    0  501  503 -0.00000000000E+00 -0.00000000000E+00 -0.45003185856E+03  0.45003185856E+03  0.00000000000E+00 0.  1.
    9000007    1    1    2  501    0 -0.20853477804E+03 -0.13155158228E+03 -0.15099744869E+02  0.47012825351E+03  0.40000000000E+03 0.  1.
   -9000007    1    1    2    0  502  0.20853477804E+03  0.13155158228E+03  0.58702634197E+02  0.47353835295E+03  0.40000000000E+03 0.  1.
<mgrwt>
<rscale>  2 0.46988570E+03</rscale>
<asrwt>0</asrwt>
<pdfrwt beam="1">  1       21 0.75943807E-01 0.46988570E+03</pdfrwt>
<pdfrwt beam="2">  1       21 0.69235671E-01 0.46988570E+03</pdfrwt>
<totfact> 0.25292738E+03</totfact>
</mgrwt>
</event>
<event>
 4    1  0.1147209E-002  0.4471364E+03  0.7818608E-02  0.1028579E+00
         21   -1    0    0  503  502  0.00000000000E+00  0.00000000000E+00  0.92397376263E+03  0.92397376263E+03  0.00000000000E+00 0.  1.
         21   -1    0    0  501  503 -0.00000000000E+00 -0.00000000000E+00 -0.22864129883E+03  0.22864129883E+03  0.00000000000E+00 0.  1.
    9000007    1    1    2  501    0  0.13585135638E+03  0.14654483685E+03  0.21421710927E+03  0.49580232971E+03  0.40000000000E+03 0.  1.
   -9000007    1    1    2    0  502 -0.13585135638E+03 -0.14654483685E+03  0.48111535452E+03  0.65681273175E+03  0.40000000000E+03 0.  1.
<mgrwt>
<rscale>  2 0.44713642E+03</rscale>
<asrwt>0</asrwt>
<pdfrwt beam="1">  1       21 0.14214981E+00 0.44713642E+03</pdfrwt>
<pdfrwt beam="2">  1       21 0.35175585E-01 0.44713642E+03</pdfrwt>
<totfact> 0.23070422E+03</totfact>
</mgrwt>
</event>
<event>
 4    1  0.1147209E-002  0.5162585E+03  0.7818608E-02  0.1009620E+00
         21   -1    0    0  503  502  0.00000000000E+00  0.00000000000E+00  0.11380509363E+04  0.11380509363E+04  0.00000000000E+00 0.  1.
         21   -1    0    0  501  503 -0.00000000000E+00 -0.00000000000E+00 -0.29818808625E+03  0.29818808625E+03  0.00000000000E+00 0. -1.
    9000007    1    1    2  501    0 -0.26881420911E+03  0.18509931029E+03  0.87251135021E+02  0.52357959686E+03  0.40000000000E+03 0. -1.
   -9000007    1    1    2    0  502  0.26881420911E+03 -0.18509931029E+03  0.75261171505E+03  0.91265942570E+03  0.40000000000E+03 0.  1.
<mgrwt>
<rscale>  2 0.51625850E+03</rscale>
<asrwt>0</asrwt>
<pdfrwt beam="1">  1       21 0.17508476E+00 0.51625850E+03</pdfrwt>
<pdfrwt beam="2">  1       21 0.45875091E-01 0.51625850E+03</pdfrwt>
<totfact> 0.72736364E+02</totfact>
</mgrwt>
</event>
<event>
 4    1  0.1147209E-002  0.4056232E+03  0.7818608E-02  0.1041850E+00
         21   -1    0    0  503  502  0.00000000000E+00  0.00000000000E+00  0.55536869039E+02  0.55536869039E+02  0.00000000000E+00 0. -1.
         21   -1    0    0  501  503 -0.00000000000E+00 -0.00000000000E+00 -0.30989261979E+04  0.30989261979E+04  0.00000000000E+00 0. -1.
    9000007    1    1    2  501    0 -0.14916984467E+02 -0.65632662496E+02 -0.18525788399E+04  0.18964647428E+04  0.40000000000E+03 0.  1.
   -9000007    1    1    2    0  502  0.14916984467E+02  0.65632662496E+02 -0.11908104890E+04  0.12579983242E+04  0.40000000000E+03 0.  1.
<mgrwt>
<rscale>  2 0.40562318E+03</rscale>
<asrwt>0</asrwt>
<pdfrwt beam="1">  1       21 0.85441333E-02 0.40562318E+03</pdfrwt>
<pdfrwt beam="2">  1       21 0.47675790E+00 0.40562318E+03</pdfrwt>
<totfact> 0.23048917E+02</totfact>
</mgrwt>
</event>
<event>
 4    1  0.1147209E-002  0.5735815E+03  0.7818608E-02  0.9961784E-01
         21   -1    0    0  503  502  0.00000000000E+00  0.00000000000E+00  0.36852334882E+03  0.36852334882E+03  0.00000000000E+00 0. -1.
         21   -1    0    0  501  503 -0.00000000000E+00 -0.00000000000E+00 -0.94010714108E+03  0.94010714108E+03  0.00000000000E+00 0.  1.
    9000007    1    1    2  501    0 -0.40779754153E+03  0.51931824334E+02 -0.43266229603E+03  0.71846531695E+03  0.40000000000E+03 0.  1.
   -9000007    1    1    2    0  502  0.40779754153E+03 -0.51931824334E+02 -0.13892149624E+03  0.59016517296E+03  0.40000000000E+03 0.  1.
<mgrwt>
<rscale>  2 0.57358151E+03</rscale>
<asrwt>0</asrwt>
<pdfrwt beam="1">  1       21 0.56695901E-01 0.57358151E+03</pdfrwt>
<pdfrwt beam="2">  1       21 0.14463186E+00 0.57358151E+03</pdfrwt>
<totfact> 0.77226218E+02</totfact>
</mgrwt>
</event>
<event>
 4    1  0.1147209E-002  0.7378516E+03  0.7818608E-02  0.9654604E-01
         21   -1    0    0  503  502  0.00000000000E+00  0.00000000000E+00  0.33394387762E+03  0.33394387762E+03  0.00000000000E+00 0. -1.
         21   -1    0    0  501  503 -0.00000000000E+00 -0.00000000000E+00 -0.16411104669E+04  0.16411104669E+04  0.00000000000E+00 0. -1.
    9000007    1    1    2  501    0  0.61987129144E+03 -0.13586346738E+02 -0.57339247958E+03  0.93445382037E+03  0.40000000000E+03 0. -1.
   -9000007    1    1    2    0  502 -0.61987129144E+03  0.13586346738E+02 -0.73377410966E+03  0.10406005241E+04  0.40000000000E+03 0. -1.
<mgrwt>
<rscale>  2 0.73785162E+03</rscale>
<asrwt>0</asrwt>
<pdfrwt beam="1">  1       21 0.51375983E-01 0.73785162E+03</pdfrwt>
<pdfrwt beam="2">  1       21 0.25247852E+00 0.73785162E+03</pdfrwt>
<totfact> 0.16207809E+02</totfact>
</mgrwt>
</event>
<event>
 4    1  0.1147209E-002  0.4500629E+03  0.7818608E-02  0.1027703E+00
         21   -1    0    0  503  502  0.00000000000E+00  0.00000000000E+00  0.85472632118E+03  0.85472632118E+03  0.00000000000E+00 0.  1.
         21   -1    0    0  501  503 -0.00000000000E+00 -0.00000000000E+00 -0.23754523171E+03  0.23754523171E+03  0.00000000000E+00 0.  1.
    9000007    1    1    2  501    0  0.53901619701E+02  0.19912625567E+03  0.33513131598E+03  0.56113247033E+03  0.40000000000E+03 0.  1.
   -9000007    1    1    2    0  502 -0.53901619701E+02 -0.19912625567E+03  0.28204977349E+03  0.53113908257E+03  0.40000000000E+03 0.  1.
<mgrwt>
<rscale>  2 0.45006294E+03</rscale>
<asrwt>0</asrwt>
<pdfrwt beam="1">  1       21 0.13149636E+00 0.45006294E+03</pdfrwt>
<pdfrwt beam="2">  1       21 0.36545421E-01 0.45006294E+03</pdfrwt>
<totfact> 0.26186273E+03</totfact>
</mgrwt>
</event>
<event>
 4    1  0.1147209E-002  0.4921200E+03  0.7818608E-02  0.1015856E+00
         21   -1    0    0  501  502  0.00000000000E+00  0.00000000000E+00  0.47694793008E+03  0.47694793008E+03  0.00000000000E+00 0. -1.
         21   -1    0    0  502  503 -0.00000000000E+00 -0.00000000000E+00 -0.65973450944E+03  0.65973450944E+03  0.00000000000E+00 0. -1.
    9000007    1    1    2  501    0 -0.13389266726E+03  0.25348543949E+03  0.18137184519E+03  0.52447865601E+03  0.40000000000E+03 0. -1.
   -9000007    1    1    2    0  503  0.13389266726E+03 -0.25348543949E+03 -0.36415842455E+03  0.61220378352E+03  0.40000000000E+03 0. -1.
<mgrwt>
<rscale>  2 0.49212002E+03</rscale>
<asrwt>0</asrwt>
<pdfrwt beam="1">  1       21 0.73376605E-01 0.49212002E+03</pdfrwt>
<pdfrwt beam="2">  1       21 0.10149762E+00 0.49212002E+03</pdfrwt>
<totfact> 0.11089605E+03</totfact>
</mgrwt>
</event>
<event>
 4    1  0.1147209E-002  0.4626569E+03  0.7818608E-02  0.1024013E+00
         21   -1    0    0  501  502  0.00000000000E+00  0.00000000000E+00  0.74358736311E+03  0.74358736311E+03  0.00000000000E+00 0. -1.
         21   -1    0    0  502  503 -0.00000000000E+00 -0.00000000000E+00 -0.31237739882E+03  0.31237739882E+03  0.00000000000E+00 0. -1.
    9000007    1    1    2  501    0  0.12518230773E+03  0.19591019947E+03  0.36351198442E+03  0.58838115133E+03  0.40000000000E+03 0. -1.
   -9000007    1    1    2    0  503 -0.12518230773E+03 -0.19591019947E+03  0.67697979865E+02  0.46758361060E+03  0.40000000000E+03 0. -1.
<mgrwt>
<rscale>  2 0.46265691E+03</rscale>
<asrwt>0</asrwt>
<pdfrwt beam="1">  1       21 0.11439806E+00 0.46265691E+03</pdfrwt>
<pdfrwt beam="2">  1       21 0.48058062E-01 0.46265691E+03</pdfrwt>
<totfact> 0.21082037E+03</totfact>
</mgrwt>
</event>
<event>
 4    1  0.1147209E-002  0.4712168E+03  0.7818608E-02  0.1021577E+00
         21   -1    0    0  503  502  0.00000000000E+00  0.00000000000E+00  0.29377326797E+03  0.29377326797E+03  0.00000000000E+00 0. -1.
         21   -1    0    0  501  503 -0.00000000000E+00 -0.00000000000E+00 -0.82888003591E+03  0.82888003591E+03  0.00000000000E+00 0. -1.
    9000007    1    1    2  501    0  0.16371509796E+03 -0.18773030928E+03 -0.43418338305E+03  0.64074996093E+03  0.40000000000E+03 0. -1.
   -9000007    1    1    2    0  502 -0.16371509796E+03  0.18773030928E+03 -0.10092338489E+03  0.48190334294E+03  0.40000000000E+03 0. -1.
<mgrwt>
<rscale>  2 0.47121683E+03</rscale>
<asrwt>0</asrwt>
<pdfrwt beam="1">  1       21 0.45195887E-01 0.47121683E+03</pdfrwt>
<pdfrwt beam="2">  1       21 0.12752001E+00 0.47121683E+03</pdfrwt>
<totfact> 0.18138577E+03</totfact>
</mgrwt>
</event>
<event>
 4    1  0.1147209E-002  0.4355533E+03  0.7818608E-02  0.1032120E+00
         21   -1    0    0  501  502  0.00000000000E+00  0.00000000000E+00  0.12652705032E+03  0.12652705032E+03  0.00000000000E+00 0.  1.
         21   -1    0    0  502  503 -0.00000000000E+00 -0.00000000000E+00 -0.14993521653E+04  0.14993521653E+04  0.00000000000E+00 0.  1.
    9000007    1    1    2  501    0  0.14689275116E+03  0.90162093613E+02 -0.68900106614E+03  0.81512523738E+03  0.40000000000E+03 0. -1.
   -9000007    1    1    2    0  503 -0.14689275116E+03 -0.90162093613E+02 -0.68382404887E+03  0.81075397827E+03  0.40000000000E+03 0. -1.
<mgrwt>
<rscale>  2 0.43555331E+03</rscale>
<asrwt>0</asrwt>
<pdfrwt beam="1">  1       21 0.19465699E-01 0.43555331E+03</pdfrwt>
<pdfrwt beam="2">  1       21 0.23066957E+00 0.43555331E+03</pdfrwt>
<totfact> 0.17693911E+03</totfact>
</mgrwt>
</event>
<event>
 4    1  0.1147209E-002  0.4577985E+03  0.7818608E-02  0.1025422E+00
         21   -1    0    0  503  502  0.00000000000E+00  0.00000000000E+00  0.55149100773E+03  0.55149100773E+03  0.00000000000E+00 0.  1.
         21   -1    0    0  501  503 -0.00000000000E+00 -0.00000000000E+00 -0.48213504056E+03  0.48213504056E+03  0.00000000000E+00 0. -1.
    9000007    1    1    2  501    0  0.23519511391E+02  0.22141882698E+03 -0.20316306944E+03  0.50085396788E+03  0.40000000000E+03 0. -1.
   -9000007    1    1    2    0  502 -0.23519511391E+02 -0.22141882698E+03  0.27251903660E+03  0.53277208041E+03  0.40000000000E+03 0.  1.
<mgrwt>
<rscale>  2 0.45779850E+03</rscale>
<asrwt>0</asrwt>
<pdfrwt beam="1">  1       21 0.84844771E-01 0.45779850E+03</pdfrwt>
<pdfrwt beam="2">  1       21 0.74174621E-01 0.45779850E+03</pdfrwt>
<totfact> 0.16818917E+03</totfact>
</mgrwt>
</event>
<event>
 4    1  0.1147209E-002  0.4879038E+03  0.7818608E-02  0.1016985E+00
         21   -1    0    0  501  502  0.00000000000E+00  0.00000000000E+00  0.16699587751E+04  0.16699587751E+04  0.00000000000E+00 0. -1.
         21   -1    0    0  502  503 -0.00000000000E+00 -0.00000000000E+00 -0.32249281174E+03  0.32249281174E+03  0.00000000000E+00 0. -1.
    9000007    1    1    2  501    0  0.27579941998E+03  0.44551554583E+02  0.14178937885E+04  0.14994908991E+04  0.40000000000E+03 0. -1.
   -9000007    1    1    2    0  503 -0.27579941998E+03 -0.44551554583E+02 -0.70427825151E+02  0.49296068771E+03  0.40000000000E+03 0. -1.
<mgrwt>
<rscale>  2 0.48790384E+03</rscale>
<asrwt>0</asrwt>
<pdfrwt beam="1">  1       21 0.25691673E+00 0.48790384E+03</pdfrwt>
<pdfrwt beam="2">  1       21 0.49614280E-01 0.48790384E+03</pdfrwt>
<totfact> 0.18215317E+02</totfact>
</mgrwt>
</event>
<event>
 4    1  0.1147209E-002  0.4454753E+03  0.7818608E-02  0.1029080E+00
         21   -1    0    0  503  502  0.00000000000E+00  0.00000000000E+00  0.11654527317E+04  0.11654527317E+04  0.00000000000E+00 0. -1.
         21   -1    0    0  501  503 -0.00000000000E+00 -0.00000000000E+00 -0.17595575312E+03  0.17595575312E+03  0.00000000000E+00 0.  1.
    9000007    1    1    2  501    0  0.64733467274E+02  0.18508857976E+03  0.37424267683E+03  0.58181250013E+03  0.40000000000E+03 0.  1.
   -9000007    1    1    2    0  502 -0.64733467274E+02 -0.18508857976E+03  0.61525430170E+03  0.75959598465E+03  0.40000000000E+03 0. -1.
<mgrwt>
<rscale>  2 0.44547526E+03</rscale>
<asrwt>0</asrwt>
<pdfrwt beam="1">  1       21 0.17930042E+00 0.44547526E+03</pdfrwt>
<pdfrwt beam="2">  1       21 0.27070117E-01 0.44547526E+03</pdfrwt>
<totfact> 0.20388610E+03</totfact>
</mgrwt>
</event>
<event>
 4    1  0.1147209E-002  0.4651717E+03  0.7818608E-02  0.1023292E+00
         21   -1    0    0  501  502  0.00000000000E+00  0.00000000000E+00  0.10262508156E+04  0.10262508156E+04  0.00000000000E+00 0.  1.
         21   -1    0    0  502  503 -0.00000000000E+00 -0.00000000000E+00 -0.22882015915E+03  0.22882015915E+03  0.00000000000E+00 0.  1.
    9000007    1    1    2  501    0  0.33050413139E+02  0.23514324207E+03  0.57457682484E+03  0.73927207558E+03  0.40000000000E+03 0.  1.
   -9000007    1    1    2    0  503 -0.33050413139E+02 -0.23514324207E+03  0.22285383160E+03  0.51579889914E+03  0.40000000000E+03 0.  1.
<mgrwt>
<rscale>  2 0.46517166E+03</rscale>
<asrwt>0</asrwt>
<pdfrwt beam="1">  1       21 0.15788474E+00 0.46517166E+03</pdfrwt>
<pdfrwt beam="2">  1       21 0.35203102E-01 0.46517166E+03</pdfrwt>
<totfact> 0.17192905E+03</totfact>
</mgrwt>
</event>
<event>
 4    1  0.1147209E-002  0.4380325E+03  0.7818608E-02  0.1031352E+00
         21   -1    0    0  503  502  0.00000000000E+00  0.00000000000E+00  0.70216047074E+03  0.70216047074E+03  0.00000000000E+00 0.  1.
         21   -1    0    0  501  503 -0.00000000000E+00 -0.00000000000E+00 -0.27326738852E+03  0.27326738852E+03  0.00000000000E+00 0.  1.
    9000007    1    1    2  501    0 -0.14631781132E+03 -0.10229155577E+03  0.21193363172E+03  0.48660900993E+03  0.40000000000E+03 0.  1.
   -9000007    1    1    2    0  502  0.14631781132E+03  0.10229155577E+03  0.21695945051E+03  0.48881884933E+03  0.40000000000E+03 0.  1.
<mgrwt>
<rscale>  2 0.43803249E+03</rscale>
<asrwt>0</asrwt>
<pdfrwt beam="1">  1       21 0.10802469E+00 0.43803249E+03</pdfrwt>
<pdfrwt beam="2">  1       21 0.42041137E-01 0.43803249E+03</pdfrwt>
<totfact> 0.32464967E+03</totfact>
</mgrwt>
</event>
<event>
 4    1  0.1147209E-002  0.7287831E+03  0.7818608E-02  0.9669237E-01
         21   -1    0    0  501  502  0.00000000000E+00  0.00000000000E+00  0.12916805398E+04  0.12916805398E+04  0.00000000000E+00 0.  1.
         21   -1    0    0  502  503 -0.00000000000E+00 -0.00000000000E+00 -0.54159309566E+03  0.54159309566E+03  0.00000000000E+00 0.  1.
    9000007    1    1    2  501    0 -0.49098001803E+03 -0.36064314647E+03  0.82483011999E+03  0.11006677900E+04  0.40000000000E+03 0.  1.
   -9000007    1    1    2    0  503  0.49098001803E+03  0.36064314647E+03 -0.74742675811E+02  0.73260584545E+03  0.40000000000E+03 0.  1.
<mgrwt>
<rscale>  2 0.72878313E+03</rscale>
<asrwt>0</asrwt>
<pdfrwt beam="1">  1       21 0.19872008E+00 0.72878313E+03</pdfrwt>
<pdfrwt beam="2">  1       21 0.83322015E-01 0.72878313E+03</pdfrwt>
<totfact> 0.12225088E+02</totfact>
</mgrwt>
</event>
<event>
 4    1  0.1147209E-002  0.4687664E+03  0.7818608E-02  0.1022269E+00
         21   -1    0    0  501  502  0.00000000000E+00  0.00000000000E+00  0.26686006930E+03  0.26686006930E+03  0.00000000000E+00 0.  1.
         21   -1    0    0  502  503 -0.00000000000E+00 -0.00000000000E+00 -0.97672751469E+03  0.97672751469E+03  0.00000000000E+00 0. -1.
    9000007    1    1    2  501    0 -0.18400947536E+03  0.16088015860E+03 -0.10860208667E+03  0.48118221672E+03  0.40000000000E+03 0.  1.
   -9000007    1    1    2    0  503  0.18400947536E+03 -0.16088015860E+03 -0.60126535872E+03  0.76240536728E+03  0.40000000000E+03 0. -1.
<mgrwt>
<rscale>  2 0.46876637E+03</rscale>
<asrwt>0</asrwt>
<pdfrwt beam="1">  1       21 0.41055395E-01 0.46876637E+03</pdfrwt>
<pdfrwt beam="2">  1       21 0.15026577E+00 0.46876637E+03</pdfrwt>
<totfact> 0.14353939E+03</totfact>
</mgrwt>
</event>
<event>
 4    1  0.1147209E-002  0.8071290E+03  0.7818608E-02  0.9549755E-01
         21   -1    0    0  503  502  0.00000000000E+00  0.00000000000E+00  0.31986999808E+04  0.31986999808E+04  0.00000000000E+00 0. -1.
         21   -1    0    0  501  503 -0.00000000000E+00 -0.00000000000E+00 -0.22396111037E+03  0.22396111037E+03  0.00000000000E+00 0.  1.
    9000007    1    1    2  501    0 -0.16760507093E+03  0.68070977356E+03  0.97217164504E+03  0.12635564740E+04  0.40000000000E+03 0.  1.
   -9000007    1    1    2    0  502  0.16760507093E+03 -0.68070977356E+03  0.20025672254E+04  0.21591046172E+04  0.40000000000E+03 0.  1.
<mgrwt>
<rscale>  2 0.80712902E+03</rscale>
<asrwt>0</asrwt>
<pdfrwt beam="1">  1       21 0.49210766E+00 0.80712902E+03</pdfrwt>
<pdfrwt beam="2">  1       21 0.34455558E-01 0.80712902E+03</pdfrwt>
<totfact> 0.10280861E+01</totfact>
</mgrwt>
</event>
<event>
 4    1  0.1147209E-002  0.4779518E+03  0.7818608E-02  0.1019700E+00
         21   -1    0    0  501  502  0.00000000000E+00  0.00000000000E+00  0.60116444218E+03  0.60116444218E+03  0.00000000000E+00 0.  1.
         21   -1    0    0  502  503 -0.00000000000E+00 -0.00000000000E+00 -0.68489125130E+03  0.68489125130E+03  0.00000000000E+00 0.  1.
    9000007    1    1    2  501    0 -0.75089470957E+01 -0.26149864632E+03  0.38717567976E+03  0.61509587326E+03  0.40000000000E+03 0.  1.
   -9000007    1    1    2    0  503  0.75089470957E+01  0.26149864632E+03 -0.47090248888E+03  0.67095982022E+03  0.40000000000E+03 0.  1.
<mgrwt>
<rscale>  2 0.47795180E+03</rscale>
<asrwt>0</asrwt>
<pdfrwt beam="1">  1       21 0.92486837E-01 0.47795180E+03</pdfrwt>
<pdfrwt beam="2">  1       21 0.10536788E+00 0.47795180E+03</pdfrwt>
<totfact> 0.59322800E+02</totfact>
</mgrwt>
</event>
<event>
 4    1  0.1147209E-002  0.4044005E+03  0.7818608E-02  0.1042267E+00
         21   -1    0    0  501  502  0.00000000000E+00  0.00000000000E+00  0.10966919492E+04  0.10966919492E+04  0.00000000000E+00 0. -1.
         21   -1    0    0  502  503 -0.00000000000E+00 -0.00000000000E+00 -0.22555813058E+03  0.22555813058E+03  0.00000000000E+00 0. -1.
    9000007    1    1    2  501    0 -0.48458586118E+02  0.34518213686E+02  0.82043038910E+03  0.91468342338E+03  0.40000000000E+03 0. -1.
   -9000007    1    1    2    0  503  0.48458586118E+02 -0.34518213686E+02  0.50703429514E+02  0.40756665640E+03  0.40000000000E+03 0. -1.
<mgrwt>
<rscale>  2 0.40440047E+03</rscale>
<asrwt>0</asrwt>
<pdfrwt beam="1">  1       21 0.16872184E+00 0.40440047E+03</pdfrwt>
<pdfrwt beam="2">  1       21 0.34701252E-01 0.40440047E+03</pdfrwt>
<totfact> 0.15083043E+03</totfact>
</mgrwt>
</event>
<event>
 4    1  0.1147209E-002  0.4091532E+03  0.7818608E-02  0.1040656E+00
         21   -1    0    0  501  502  0.00000000000E+00  0.00000000000E+00  0.52174303314E+03  0.52174303314E+03  0.00000000000E+00 0.  1.
         21   -1    0    0  502  503 -0.00000000000E+00 -0.00000000000E+00 -0.33187688889E+03  0.33187688889E+03  0.00000000000E+00 0.  1.
    9000007    1    1    2  501    0 -0.20779129119E+02 -0.83513661722E+02  0.17168500060E+02  0.40951320039E+03  0.40000000000E+03 0. -1.
   -9000007    1    1    2    0  503  0.20779129119E+02  0.83513661722E+02  0.17269764419E+03  0.44410672164E+03  0.40000000000E+03 0. -1.
<mgrwt>
<rscale>  2 0.40915315E+03</rscale>
<asrwt>0</asrwt>
<pdfrwt beam="1">  1       21 0.80268159E-01 0.40915315E+03</pdfrwt>
<pdfrwt beam="2">  1       21 0.51057983E-01 0.40915315E+03</pdfrwt>
<totfact> 0.44308835E+03</totfact>
</mgrwt>
</event>
<event>
 4    1  0.1147209E-002  0.4208690E+03  0.7818608E-02  0.1036784E+00
         21   -1    0    0  501  502  0.00000000000E+00  0.00000000000E+00  0.69806191080E+03  0.69806191080E+03  0.00000000000E+00 0.  1.
         21   -1    0    0  502  503 -0.00000000000E+00 -0.00000000000E+00 -0.29888083381E+03  0.29888083381E+03  0.00000000000E+00 0.  1.
    9000007    1    1    2  501    0 -0.12689515424E+03  0.32068125497E+02  0.39329733413E+03  0.57603258404E+03  0.40000000000E+03 0.  1.
   -9000007    1    1    2    0  503  0.12689515424E+03 -0.32068125497E+02  0.58837428654E+01  0.42091016057E+03  0.40000000000E+03 0.  1.
<mgrwt>
<rscale>  2 0.42086904E+03</rscale>
<asrwt>0</asrwt>
<pdfrwt beam="1">  1       21 0.10739414E+00 0.42086904E+03</pdfrwt>
<pdfrwt beam="2">  1       21 0.45981667E-01 0.42086904E+03</pdfrwt>
<totfact> 0.27500352E+03</totfact>
</mgrwt>
</event>
<event>
 4    1  0.1147209E-002  0.4598629E+03  0.7818608E-02  0.1024821E+00
         21   -1    0    0  503  502  0.00000000000E+00  0.00000000000E+00  0.72178397762E+03  0.72178397762E+03  0.00000000000E+00 0. -1.
         21   -1    0    0  501  503 -0.00000000000E+00 -0.00000000000E+00 -0.29812488971E+03  0.29812488971E+03  0.00000000000E+00 0. -1.
    9000007    1    1    2  501    0  0.56252958667E+02 -0.21979423038E+03  0.14488874909E+03  0.48214795310E+03  0.40000000000E+03 0. -1.
   -9000007    1    1    2    0  502 -0.56252958667E+02  0.21979423038E+03  0.27877033882E+03  0.53776091423E+03  0.40000000000E+03 0. -1.
<mgrwt>
<rscale>  2 0.45986291E+03</rscale>
<asrwt>0</asrwt>
<pdfrwt beam="1">  1       21 0.11104369E+00 0.45986291E+03</pdfrwt>
<pdfrwt beam="2">  1       21 0.45865368E-01 0.45986291E+03</pdfrwt>
<totfact> 0.25081534E+03</totfact>
</mgrwt>
</event>
<event>
 4    1  0.1147209E-002  0.4420788E+03  0.7818608E-02  0.1030111E+00
         21   -1    0    0  503  502  0.00000000000E+00  0.00000000000E+00  0.74041687689E+03  0.74041687689E+03  0.00000000000E+00 0.  1.
         21   -1    0    0  501  503 -0.00000000000E+00 -0.00000000000E+00 -0.44299503125E+03  0.44299503125E+03  0.00000000000E+00 0.  1.
    9000007    1    1    2  501    0 -0.60402653969E+02  0.17828390309E+03  0.52488310126E+03  0.68624769632E+03  0.40000000000E+03 0.  1.
   -9000007    1    1    2    0  502  0.60402653969E+02 -0.17828390309E+03 -0.22746125562E+03  0.49716421182E+03  0.40000000000E+03 0.  1.
<mgrwt>
<rscale>  2 0.44207876E+03</rscale>
<asrwt>0</asrwt>
<pdfrwt beam="1">  1       21 0.11391029E+00 0.44207876E+03</pdfrwt>
<pdfrwt beam="2">  1       21 0.68153082E-01 0.44207876E+03</pdfrwt>
<totfact> 0.10047147E+03</totfact>
</mgrwt>
</event>
<event>
 4    1  0.1147209E-002  0.5887227E+03  0.7818608E-02  0.9929083E-01
         21   -1    0    0  503  502  0.00000000000E+00  0.00000000000E+00  0.24975190305E+04  0.24975190305E+04  0.00000000000E+00 0.  1.
         21   -1    0    0  501  503 -0.00000000000E+00 -0.00000000000E+00 -0.14948046984E+03  0.14948046984E+03  0.00000000000E+00 0. -1.
    9000007    1    1    2  501    0 -0.24790672805E+02  0.43125377091E+03  0.81983861740E+03  0.10093214309E+04  0.40000000000E+03 0.  1.
   -9000007    1    1    2    0  502  0.24790672805E+02 -0.43125377091E+03  0.15281999432E+04  0.16376780693E+04  0.40000000000E+03 0. -1.
<mgrwt>
<rscale>  2 0.58872268E+03</rscale>
<asrwt>0</asrwt>
<pdfrwt beam="1">  1       21 0.38423367E+00 0.58872268E+03</pdfrwt>
<pdfrwt beam="2">  1       21 0.22996997E-01 0.58872268E+03</pdfrwt>
<totfact> 0.13570076E+02</totfact>
</mgrwt>
</event>
<event>
 4    1  0.1147209E-002  0.4271412E+03  0.7818608E-02  0.1034767E+00
         21   -1    0    0  503  502  0.00000000000E+00  0.00000000000E+00  0.42748414531E+03  0.42748414531E+03  0.00000000000E+00 0.  1.
         21   -1    0    0  501  503 -0.00000000000E+00 -0.00000000000E+00 -0.46280799024E+03  0.46280799024E+03  0.00000000000E+00 0.  1.
    9000007    1    1    2  501    0  0.14982747098E+03  0.11373928951E+01 -0.14183029491E+03  0.45007265778E+03  0.40000000000E+03 0.  1.
   -9000007    1    1    2    0  502 -0.14982747098E+03 -0.11373928951E+01  0.10650644999E+03  0.44021947777E+03  0.40000000000E+03 0.  1.
<mgrwt>
<rscale>  2 0.42714115E+03</rscale>
<asrwt>0</asrwt>
<pdfrwt beam="1">  1       21 0.65766791E-01 0.42714115E+03</pdfrwt>
<pdfrwt beam="2">  1       21 0.71201229E-01 0.42714115E+03</pdfrwt>
<totfact> 0.33357479E+03</totfact>
</mgrwt>
</event>
<event>
 4    1  0.1147209E-002  0.4581169E+03  0.7818608E-02  0.1025329E+00
         21   -1    0    0  501  502  0.00000000000E+00  0.00000000000E+00  0.12354417784E+04  0.12354417784E+04  0.00000000000E+00 0. -1.
         21   -1    0    0  502  503 -0.00000000000E+00 -0.00000000000E+00 -0.18873138223E+03  0.18873138223E+03  0.00000000000E+00 0.  1.
    9000007    1    1    2  501    0 -0.22267457714E+03  0.16944823151E+02  0.29827567214E+03  0.54666211770E+03  0.40000000000E+03 0.  1.
   -9000007    1    1    2    0  503  0.22267457714E+03 -0.16944823151E+02  0.74843472404E+03  0.87751104294E+03  0.40000000000E+03 0. -1.
<mgrwt>
<rscale>  2 0.45811690E+03</rscale>
<asrwt>0</asrwt>
<pdfrwt beam="1">  1       21 0.19006796E+00 0.45811690E+03</pdfrwt>
<pdfrwt beam="2">  1       21 0.29035598E-01 0.45811690E+03</pdfrwt>
<totfact> 0.14867183E+03</totfact>
</mgrwt>
</event>
<event>
 4    1  0.1147209E-002  0.4995945E+03  0.7818608E-02  0.1013885E+00
         21   -1    0    0  501  502  0.00000000000E+00  0.00000000000E+00  0.80910784491E+03  0.80910784491E+03  0.00000000000E+00 0. -1.
         21   -1    0    0  502  503 -0.00000000000E+00 -0.00000000000E+00 -0.42590642513E+03  0.42590642513E+03  0.00000000000E+00 0. -1.
    9000007    1    1    2  501    0 -0.16537035464E+03 -0.24949417034E+03  0.51583972635E+03  0.71811233001E+03  0.40000000000E+03 0. -1.
   -9000007    1    1    2    0  503  0.16537035464E+03  0.24949417034E+03 -0.13263830657E+03  0.51690194002E+03  0.40000000000E+03 0. -1.
<mgrwt>
<rscale>  2 0.49959453E+03</rscale>
<asrwt>0</asrwt>
<pdfrwt beam="1">  1       21 0.12447813E+00 0.49959453E+03</pdfrwt>
<pdfrwt beam="2">  1       21 0.65524065E-01 0.49959453E+03</pdfrwt>
<totfact> 0.85590381E+02</totfact>
</mgrwt>
</event>
<event>
 4    1  0.1147209E-002  0.4013600E+03  0.7818608E-02  0.1043310E+00
         21   -1    0    0  501  502  0.00000000000E+00  0.00000000000E+00  0.51590504564E+03  0.51590504564E+03  0.00000000000E+00 0. -1.
         21   -1    0    0  502  503 -0.00000000000E+00 -0.00000000000E+00 -0.31322954980E+03  0.31322954980E+03  0.00000000000E+00 0. -1.
    9000007    1    1    2  501    0  0.25850676083E+02 -0.20532057980E+02  0.78119343926E+02  0.40889173965E+03  0.40000000000E+03 0.  1.
   -9000007    1    1    2    0  503 -0.25850676083E+02  0.20532057980E+02  0.12455615192E+03  0.42024285579E+03  0.40000000000E+03 0.  1.
<mgrwt>
<rscale>  2 0.40135997E+03</rscale>
<asrwt>0</asrwt>
<pdfrwt beam="1">  1       21 0.79370007E-01 0.40135997E+03</pdfrwt>
<pdfrwt beam="2">  1       21 0.48189161E-01 0.40135997E+03</pdfrwt>
<totfact> 0.51552985E+03</totfact>
</mgrwt>
</event>
<event>
 4    1  0.1147209E-002  0.4539797E+03  0.7818608E-02  0.1026542E+00
         21   -1    0    0  503  502  0.00000000000E+00  0.00000000000E+00  0.16132987564E+04  0.16132987564E+04  0.00000000000E+00 0.  1.
         21   -1    0    0  501  503 -0.00000000000E+00 -0.00000000000E+00 -0.13661036051E+03  0.13661036051E+03  0.00000000000E+00 0. -1.
    9000007    1    1    2  501    0  0.15911691531E+03 -0.14415042105E+03  0.51550564435E+03  0.68690873192E+03  0.40000000000E+03 0. -1.
   -9000007    1    1    2    0  502 -0.15911691531E+03  0.14415042105E+03  0.96118275158E+03  0.10630003850E+04  0.40000000000E+03 0.  1.
<mgrwt>
<rscale>  2 0.45397967E+03</rscale>
<asrwt>0</asrwt>
<pdfrwt beam="1">  1       21 0.24819979E+00 0.45397967E+03</pdfrwt>
<pdfrwt beam="2">  1       21 0.21016980E-01 0.45397967E+03</pdfrwt>
<totfact> 0.11794340E+03</totfact>
</mgrwt>
</event>
<event>
 4    1  0.1147209E-002  0.4207967E+03  0.7818608E-02  0.1036807E+00
         21   -1    0    0  503  502  0.00000000000E+00  0.00000000000E+00  0.49582737324E+03  0.49582737324E+03  0.00000000000E+00 0. -1.
         21   -1    0    0  501  503 -0.00000000000E+00 -0.00000000000E+00 -0.39241884758E+03  0.39241884758E+03  0.00000000000E+00 0. -1.
    9000007    1    1    2  501    0  0.10815601293E+03 -0.73294650195E+02 -0.81497274240E+02  0.42861595233E+03  0.40000000000E+03 0. -1.
   -9000007    1    1    2    0  502 -0.10815601293E+03  0.73294650195E+02  0.18490579990E+03  0.45963026850E+03  0.40000000000E+03 0. -1.
<mgrwt>
<rscale>  2 0.42079666E+03</rscale>
<asrwt>0</asrwt>
<pdfrwt beam="1">  1       21 0.76281134E-01 0.42079666E+03</pdfrwt>
<pdfrwt beam="2">  1       21 0.60372130E-01 0.42079666E+03</pdfrwt>
<totfact> 0.34538109E+03</totfact>
</mgrwt>
</event>
<event>
 4    1  0.1147209E-002  0.4044057E+03  0.7818608E-02  0.1042265E+00
         21   -1    0    0  501  502  0.00000000000E+00  0.00000000000E+00  0.47545087891E+03  0.47545087891E+03  0.00000000000E+00 0.  1.
         21   -1    0    0  502  503 -0.00000000000E+00 -0.00000000000E+00 -0.38514710413E+03  0.38514710413E+03  0.00000000000E+00 0.  1.
    9000007    1    1    2  501    0  0.34107727792E+02 -0.48791872818E+02  0.18583760914E+03  0.44506134512E+03  0.40000000000E+03 0.  1.
   -9000007    1    1    2    0  503 -0.34107727792E+02  0.48791872818E+02 -0.95533834354E+02  0.41553663792E+03  0.40000000000E+03 0.  1.
<mgrwt>
<rscale>  2 0.40440572E+03</rscale>
<asrwt>0</asrwt>
<pdfrwt beam="1">  1       21 0.73146289E-01 0.40440572E+03</pdfrwt>
<pdfrwt beam="2">  1       21 0.59253401E-01 0.40440572E+03</pdfrwt>
<totfact> 0.39828117E+03</totfact>
</mgrwt>
</event>
<event>
 4    1  0.1147209E-002  0.5847457E+03  0.7818608E-02  0.9937569E-01
         21   -1    0    0  503  502  0.00000000000E+00  0.00000000000E+00  0.24915349224E+03  0.24915349224E+03  0.00000000000E+00 0.  1.
         21   -1    0    0  501  503 -0.00000000000E+00 -0.00000000000E+00 -0.14625390096E+04  0.14625390096E+04  0.00000000000E+00 0. -1.
    9000007    1    1    2  501    0 -0.40956146128E+03  0.11910898615E+03 -0.81921381134E+03  0.10064982910E+04  0.40000000000E+03 0.  1.
   -9000007    1    1    2    0  502  0.40956146128E+03 -0.11910898615E+03 -0.39417170603E+03  0.70519421083E+03  0.40000000000E+03 0.  1.
<mgrwt>
<rscale>  2 0.58474571E+03</rscale>
<asrwt>0</asrwt>
<pdfrwt beam="1">  1       21 0.38331306E-01 0.58474571E+03</pdfrwt>
<pdfrwt beam="2">  1       21 0.22500600E+00 0.58474571E+03</pdfrwt>
<totfact> 0.47385050E+02</totfact>
</mgrwt>
</event>
<event>
 4    1  0.1147209E-002  0.5964108E+03  0.7818608E-02  0.9912881E-01
         21   -1    0    0  503  502  0.00000000000E+00  0.00000000000E+00  0.62994641153E+03  0.62994641153E+03  0.00000000000E+00 0. -1.
         21   -1    0    0  501  503 -0.00000000000E+00 -0.00000000000E+00 -0.56705018242E+03  0.56705018242E+03  0.00000000000E+00 0.  1.
    9000007    1    1    2  501    0  0.65006563924E+02 -0.43758426649E+03  0.70301065415E+02  0.60053982668E+03  0.40000000000E+03 0. -1.
   -9000007    1    1    2    0  502 -0.65006563924E+02  0.43758426649E+03 -0.74048363013E+01  0.59645676728E+03  0.40000000000E+03 0. -1.
<mgrwt>
<rscale>  2 0.59641080E+03</rscale>
<asrwt>0</asrwt>
<pdfrwt beam="1">  1       21 0.96914833E-01 0.59641080E+03</pdfrwt>
<pdfrwt beam="2">  1       21 0.87238489E-01 0.59641080E+03</pdfrwt>
<totfact> 0.80162076E+02</totfact>
</mgrwt>
</event>
<event>
 4    1  0.1147209E-002  0.4165455E+03  0.7818608E-02  0.1038197E+00
         21   -1    0    0  501  502  0.00000000000E+00  0.00000000000E+00  0.34663300034E+03  0.34663300034E+03  0.00000000000E+00 0.  1.
         21   -1    0    0  502  503 -0.00000000000E+00 -0.00000000000E+00 -0.65663851589E+03  0.65663851589E+03  0.00000000000E+00 0.  1.
    9000007    1    1    2  501    0 -0.86097671558E+02 -0.78085505041E+02  0.89564727413E+02  0.42606571740E+03  0.40000000000E+03 0.  1.
   -9000007    1    1    2    0  503  0.86097671558E+02  0.78085505041E+02 -0.39957024296E+03  0.57720579883E+03  0.40000000000E+03 0.  1.
<mgrwt>
<rscale>  2 0.41654550E+03</rscale>
<asrwt>0</asrwt>
<pdfrwt beam="1">  1       21 0.53328154E-01 0.41654550E+03</pdfrwt>
<pdfrwt beam="2">  1       21 0.10102131E+00 0.41654550E+03</pdfrwt>
<totfact> 0.23371909E+03</totfact>
</mgrwt>
</event>
<event>
 4    1  0.1147209E-002  0.4032358E+03  0.7818608E-02  0.1042665E+00
         21   -1    0    0  501  502  0.00000000000E+00  0.00000000000E+00  0.95938019253E+03  0.95938019253E+03  0.00000000000E+00 0. -1.
         21   -1    0    0  502  503 -0.00000000000E+00 -0.00000000000E+00 -0.20749374033E+03  0.20749374033E+03  0.00000000000E+00 0. -1.
    9000007    1    1    2  501    0  0.20679221301E+02  0.46599474290E+02  0.12622997911E+03  0.42253183173E+03  0.40000000000E+03 0. -1.
   -9000007    1    1    2    0  503 -0.20679221301E+02 -0.46599474290E+02  0.62565647309E+03  0.74434210113E+03  0.40000000000E+03 0. -1.
<mgrwt>
<rscale>  2 0.40323584E+03</rscale>
<asrwt>0</asrwt>
<pdfrwt beam="1">  1       21 0.14759695E+00 0.40323584E+03</pdfrwt>
<pdfrwt beam="2">  1       21 0.31922114E-01 0.40323584E+03</pdfrwt>
<totfact> 0.25808113E+03</totfact>
</mgrwt>
</event>
<event>
 4    1  0.1147209E-002  0.4920342E+03  0.7818608E-02  0.1015879E+00
         21   -1    0    0  503  502  0.00000000000E+00  0.00000000000E+00  0.80847450803E+03  0.80847450803E+03  0.00000000000E+00 0. -1.
         21   -1    0    0  501  503 -0.00000000000E+00 -0.00000000000E+00 -0.29981927410E+03  0.29981927410E+03  0.00000000000E+00 0. -1.
    9000007    1    1    2  501    0  0.48940854147E+02 -0.28231625489E+03  0.27377591134E+03  0.56307275250E+03  0.40000000000E+03 0. -1.
   -9000007    1    1    2    0  502 -0.48940854147E+02  0.28231625489E+03  0.23487932260E+03  0.54522102964E+03  0.40000000000E+03 0. -1.
<mgrwt>
<rscale>  2 0.49203422E+03</rscale>
<asrwt>0</asrwt>
<pdfrwt beam="1">  1       21 0.12438069E+00 0.49203422E+03</pdfrwt>
<pdfrwt beam="2">  1       21 0.46126043E-01 0.49203422E+03</pdfrwt>
<totfact> 0.18392293E+03</totfact>
</mgrwt>
</event>
<event>
 4    1  0.1147209E-002  0.4062144E+03  0.7818608E-02  0.1041649E+00
         21   -1    0    0  503  502  0.00000000000E+00  0.00000000000E+00  0.78918958164E+03  0.78918958164E+03  0.00000000000E+00 0. -1.
         21   -1    0    0  501  503 -0.00000000000E+00 -0.00000000000E+00 -0.21246274994E+03  0.21246274994E+03  0.00000000000E+00 0. -1.
    9000007    1    1    2  501    0 -0.66709780490E+02  0.23663534429E+02  0.22524452430E+03  0.46448385699E+03  0.40000000000E+03 0.  1.
   -9000007    1    1    2    0  502  0.66709780490E+02 -0.23663534429E+02  0.35148230741E+03  0.53716847459E+03  0.40000000000E+03 0.  1.
<mgrwt>
<rscale>  2 0.40621442E+03</rscale>
<asrwt>0</asrwt>
<pdfrwt beam="1">  1       21 0.12141378E+00 0.40621442E+03</pdfrwt>
<pdfrwt beam="2">  1       21 0.32686577E-01 0.40621442E+03</pdfrwt>
<totfact> 0.40957066E+03</totfact>
</mgrwt>
</event>
<event>
 4    1  0.1147209E-002  0.4409012E+03  0.7818608E-02  0.1030471E+00
         21   -1    0    0  501  502  0.00000000000E+00  0.00000000000E+00  0.62768316196E+03  0.62768316196E+03  0.00000000000E+00 0.  1.
         21   -1    0    0  502  503 -0.00000000000E+00 -0.00000000000E+00 -0.31424958904E+03  0.31424958904E+03  0.00000000000E+00 0.  1.
    9000007    1    1    2  501    0 -0.13005988293E+03 -0.13220559213E+03  0.10005282205E+03  0.45211111349E+03  0.40000000000E+03 0. -1.
   -9000007    1    1    2    0  503  0.13005988293E+03  0.13220559213E+03  0.21338075087E+03  0.48982163752E+03  0.40000000000E+03 0. -1.
<mgrwt>
<rscale>  2 0.44090123E+03</rscale>
<asrwt>0</asrwt>
<pdfrwt beam="1">  1       21 0.96566640E-01 0.44090123E+03</pdfrwt>
<pdfrwt beam="2">  1       21 0.48346091E-01 0.44090123E+03</pdfrwt>
<totfact> 0.31824623E+03</totfact>
</mgrwt>
</event>
<event>
 4    1  0.1147209E-002  0.5241184E+03  0.7818608E-02  0.1007669E+00
         21   -1    0    0  501  502  0.00000000000E+00  0.00000000000E+00  0.32863583686E+03  0.32863583686E+03  0.00000000000E+00 0.  1.
         21   -1    0    0  502  503 -0.00000000000E+00 -0.00000000000E+00 -0.11021246080E+04  0.11021246080E+04  0.00000000000E+00 0. -1.
    9000007    1    1    2  501    0  0.10139285299E+03  0.32314022120E+03 -0.35133740123E+02  0.52529467244E+03  0.40000000000E+03 0. -1.
   -9000007    1    1    2    0  503 -0.10139285299E+03 -0.32314022120E+03 -0.73835503097E+03  0.90546577238E+03  0.40000000000E+03 0. -1.
<mgrwt>
<rscale>  2 0.52411842E+03</rscale>
<asrwt>0</asrwt>
<pdfrwt beam="1">  1       21 0.50559359E-01 0.52411842E+03</pdfrwt>
<pdfrwt beam="2">  1       21 0.16955764E+00 0.52411842E+03</pdfrwt>
<totfact> 0.64704209E+02</totfact>
</mgrwt>
</event>
<event>
 4    1  0.1147209E-002  0.4154533E+03  0.7818608E-02  0.1038556E+00
         21   -1    0    0  503  502  0.00000000000E+00  0.00000000000E+00  0.22087240540E+03  0.22087240540E+03  0.00000000000E+00 0. -1.
         21   -1    0    0  501  503 -0.00000000000E+00 -0.00000000000E+00 -0.86388134040E+03  0.86388134040E+03  0.00000000000E+00 0. -1.
    9000007    1    1    2  501    0 -0.62686353006E+02  0.93122980966E+02 -0.15396712461E+03  0.44306584601E+03  0.40000000000E+03 0.  1.
   -9000007    1    1    2    0  502  0.62686353006E+02 -0.93122980966E+02 -0.48904181039E+03  0.64168789980E+03  0.40000000000E+03 0.  1.
<mgrwt>
<rscale>  2 0.41545333E+03</rscale>
<asrwt>0</asrwt>
<pdfrwt beam="1">  1       21 0.33980370E-01 0.41545333E+03</pdfrwt>
<pdfrwt beam="2">  1       21 0.13290482E+00 0.41545333E+03</pdfrwt>
<totfact> 0.29909111E+03</totfact>
</mgrwt>
</event>
<event>
 4    1  0.1147209E-002  0.4359305E+03  0.7818608E-02  0.1032003E+00
         21   -1    0    0  501  502  0.00000000000E+00  0.00000000000E+00  0.24209573319E+03  0.24209573319E+03  0.00000000000E+00 0. -1.
         21   -1    0    0  502  503 -0.00000000000E+00 -0.00000000000E+00 -0.79658983653E+03  0.79658983653E+03  0.00000000000E+00 0. -1.
    9000007    1    1    2  501    0 -0.41441356265E+02  0.16827948976E+03 -0.33999951517E+03  0.55284269281E+03  0.40000000000E+03 0. -1.
   -9000007    1    1    2    0  503  0.41441356265E+02 -0.16827948976E+03 -0.21449458817E+03  0.48584287690E+03  0.40000000000E+03 0. -1.
<mgrwt>
<rscale>  2 0.43593047E+03</rscale>
<asrwt>0</asrwt>
<pdfrwt beam="1">  1       21 0.37245498E-01 0.43593047E+03</pdfrwt>
<pdfrwt beam="2">  1       21 0.12255228E+00 0.43593047E+03</pdfrwt>
<totfact> 0.30374337E+03</totfact>
</mgrwt>
</event>
<event>
 4    1  0.1147209E-002  0.4164995E+03  0.7818608E-02  0.1038212E+00
         21   -1    0    0  503  502  0.00000000000E+00  0.00000000000E+00  0.70227625932E+03  0.70227625932E+03  0.00000000000E+00 0.  1.
         21   -1    0    0  501  503 -0.00000000000E+00 -0.00000000000E+00 -0.25693486793E+03  0.25693486793E+03  0.00000000000E+00 0.  1.
    9000007    1    1    2  501    0  0.46717642076E+02  0.10625116139E+03  0.12842654662E+03  0.43585000316E+03  0.40000000000E+03 0.  1.
   -9000007    1    1    2    0  502 -0.46717642076E+02 -0.10625116139E+03  0.31691484476E+03  0.52336112409E+03  0.40000000000E+03 0.  1.
<mgrwt>
<rscale>  2 0.41649952E+03</rscale>
<asrwt>0</asrwt>
<pdfrwt beam="1">  1       21 0.10804250E+00 0.41649952E+03</pdfrwt>
<pdfrwt beam="2">  1       21 0.39528442E-01 0.41649952E+03</pdfrwt>
<totfact> 0.37148850E+03</totfact>
</mgrwt>
</event>
<event>
 4    1  0.1147209E-002  0.4228943E+03  0.7818608E-02  0.1036128E+00
         21   -1    0    0  503  502  0.00000000000E+00  0.00000000000E+00  0.16458220115E+03  0.16458220115E+03  0.00000000000E+00 0.  1.
         21   -1    0    0  501  503 -0.00000000000E+00 -0.00000000000E+00 -0.10982359722E+04  0.10982359722E+04  0.00000000000E+00 0. -1.
    9000007    1    1    2  501    0 -0.12176831954E+03 -0.63340771655E+02 -0.40191159883E+03  0.58341452696E+03  0.40000000000E+03 0.  1.
   -9000007    1    1    2    0  502  0.12176831954E+03  0.63340771655E+02 -0.53174217224E+03  0.67940364640E+03  0.40000000000E+03 0.  1.
<mgrwt>
<rscale>  2 0.42289429E+03</rscale>
<asrwt>0</asrwt>
<pdfrwt beam="1">  1       21 0.25320340E-01 0.42289429E+03</pdfrwt>
<pdfrwt beam="2">  1       21 0.16895937E+00 0.42289429E+03</pdfrwt>
<totfact> 0.27818401E+03</totfact>
</mgrwt>
</event>
<event>
 4    1  0.1147209E-002  0.5068589E+03  0.7818608E-02  0.1012004E+00
         21   -1    0    0  501  502  0.00000000000E+00  0.00000000000E+00  0.71109583168E+03  0.71109583168E+03  0.00000000000E+00 0.  1.
         21   -1    0    0  502  503 -0.00000000000E+00 -0.00000000000E+00 -0.36615685644E+03  0.36615685644E+03  0.00000000000E+00 0. -1.
    9000007    1    1    2  501    0 -0.11048634022E+03  0.29103042272E+03  0.23462026539E+03  0.55852717683E+03  0.40000000000E+03 0.  1.
   -9000007    1    1    2    0  503  0.11048634022E+03 -0.29103042272E+03  0.11031870984E+03  0.51872551129E+03  0.40000000000E+03 0. -1.
<mgrwt>
<rscale>  2 0.50685889E+03</rscale>
<asrwt>0</asrwt>
<pdfrwt beam="1">  1       21 0.10939936E+00 0.50685889E+03</pdfrwt>
<pdfrwt beam="2">  1       21 0.56331824E-01 0.50685889E+03</pdfrwt>
<totfact> 0.16503274E+03</totfact>
</mgrwt>
</event>
<event>
 4    1  0.1147209E-002  0.4037591E+03  0.7818608E-02  0.1042486E+00
         21   -1    0    0  503  502  0.00000000000E+00  0.00000000000E+00  0.18702769621E+03  0.18702769621E+03  0.00000000000E+00 0. -1.
         21   -1    0    0  501  503 -0.00000000000E+00 -0.00000000000E+00 -0.14098934962E+04  0.14098934962E+04  0.00000000000E+00 0. -1.
    9000007    1    1    2  501    0  0.71925566847E+01  0.54494811781E+02 -0.11808591473E+03  0.42067291408E+03  0.40000000000E+03 0. -1.
   -9000007    1    1    2    0  502 -0.71925566847E+01 -0.54494811781E+02 -0.11047798852E+04  0.11762482783E+04  0.40000000000E+03 0. -1.
<mgrwt>
<rscale>  2 0.40375911E+03</rscale>
<asrwt>0</asrwt>
<pdfrwt beam="1">  1       21 0.28773491E-01 0.40375911E+03</pdfrwt>
<pdfrwt beam="2">  1       21 0.21690670E+00 0.40375911E+03</pdfrwt>
<totfact> 0.10322004E+03</totfact>
</mgrwt>
</event>
<event>
 4    1  0.1147209E-002  0.4467966E+03  0.7818608E-02  0.1028682E+00
         21   -1    0    0  503  502  0.00000000000E+00  0.00000000000E+00  0.11488002029E+04  0.11488002029E+04  0.00000000000E+00 0. -1.
         21   -1    0    0  501  503 -0.00000000000E+00 -0.00000000000E+00 -0.17474338240E+03  0.17474338240E+03  0.00000000000E+00 0.  1.
    9000007    1    1    2  501    0  0.90968040062E+02  0.17706500998E+03  0.43764141888E+03  0.62542562595E+03  0.40000000000E+03 0. -1.
   -9000007    1    1    2    0  502 -0.90968040062E+02 -0.17706500998E+03  0.53641540159E+03  0.69811795933E+03  0.40000000000E+03 0.  1.
<mgrwt>
<rscale>  2 0.44679660E+03</rscale>
<asrwt>0</asrwt>
<pdfrwt beam="1">  1       21 0.17673849E+00 0.44679660E+03</pdfrwt>
<pdfrwt beam="2">  1       21 0.26883598E-01 0.44679660E+03</pdfrwt>
<totfact> 0.21538606E+03</totfact>
</mgrwt>
</event>
<event>
 4    1  0.1147209E-002  0.4009765E+03  0.7818608E-02  0.1043442E+00
         21   -1    0    0  501  502  0.00000000000E+00  0.00000000000E+00  0.23619867742E+03  0.23619867742E+03  0.00000000000E+00 0. -1.
         21   -1    0    0  502  503 -0.00000000000E+00 -0.00000000000E+00 -0.77733547034E+03  0.77733547034E+03  0.00000000000E+00 0. -1.
    9000007    1    1    2  501    0 -0.35978702044E+01  0.27735209376E+02 -0.44924011342E+03  0.60216182710E+03  0.40000000000E+03 0. -1.
   -9000007    1    1    2    0  503  0.35978702044E+01 -0.27735209376E+02 -0.91896679500E+02  0.41137232067E+03  0.40000000000E+03 0. -1.
<mgrwt>
<rscale>  2 0.40097654E+03</rscale>
<asrwt>0</asrwt>
<pdfrwt beam="1">  1       21 0.36338259E-01 0.40097654E+03</pdfrwt>
<pdfrwt beam="2">  1       21 0.11959007E+00 0.40097654E+03</pdfrwt>
<totfact> 0.34455452E+03</totfact>
</mgrwt>
</event>
<event>
 4    1  0.1147209E-002  0.4292010E+03  0.7818608E-02  0.1034113E+00
         21   -1    0    0  501  502  0.00000000000E+00  0.00000000000E+00  0.81714502223E+03  0.81714502223E+03  0.00000000000E+00 0.  1.
         21   -1    0    0  502  503 -0.00000000000E+00 -0.00000000000E+00 -0.23527964470E+03  0.23527964470E+03  0.00000000000E+00 0.  1.
    9000007    1    1    2  501    0 -0.12602764774E+03  0.91271935821E+02  0.18329686858E+03  0.46670255656E+03  0.40000000000E+03 0.  1.
   -9000007    1    1    2    0  503  0.12602764774E+03 -0.91271935821E+02  0.39856850894E+03  0.58572211038E+03  0.40000000000E+03 0.  1.
<mgrwt>
<rscale>  2 0.42920104E+03</rscale>
<asrwt>0</asrwt>
<pdfrwt beam="1">  1       21 0.12571462E+00 0.42920104E+03</pdfrwt>
<pdfrwt beam="2">  1       21 0.36196869E-01 0.42920104E+03</pdfrwt>
<totfact> 0.30232029E+03</totfact>
</mgrwt>
</event>
<event>
 4    1  0.1147209E-002  0.4098892E+03  0.7818608E-02  0.1040408E+00
         21   -1    0    0  503  502  0.00000000000E+00  0.00000000000E+00  0.12496248059E+03  0.12496248059E+03  0.00000000000E+00 0.  1.
         21   -1    0    0  501  503 -0.00000000000E+00 -0.00000000000E+00 -0.14569640807E+04  0.14569640807E+04  0.00000000000E+00 0.  1.
    9000007    1    1    2  501    0 -0.51380021460E+02 -0.73275228399E+02 -0.88577841677E+03  0.97601873410E+03  0.40000000000E+03 0.  1.
   -9000007    1    1    2    0  502  0.51380021460E+02  0.73275228399E+02 -0.44622318334E+03  0.60590782719E+03  0.40000000000E+03 0.  1.
<mgrwt>
<rscale>  2 0.40988921E+03</rscale>
<asrwt>0</asrwt>
<pdfrwt beam="1">  1       21 0.19224997E-01 0.40988921E+03</pdfrwt>
<pdfrwt beam="2">  1       21 0.22414832E+00 0.40988921E+03</pdfrwt>
<totfact> 0.20157491E+03</totfact>
</mgrwt>
</event>
<event>
 4    1  0.1147209E-002  0.4086392E+03  0.7818608E-02  0.1040829E+00
         21   -1    0    0  501  502  0.00000000000E+00  0.00000000000E+00  0.35536428038E+03  0.35536428038E+03  0.00000000000E+00 0.  1.
         21   -1    0    0  502  503 -0.00000000000E+00 -0.00000000000E+00 -0.60534565353E+03  0.60534565353E+03  0.00000000000E+00 0.  1.
    9000007    1    1    2  501    0  0.75641571128E+02  0.35557270990E+02  0.10222682180E+03  0.42123187189E+03  0.40000000000E+03 0.  1.
   -9000007    1    1    2    0  503 -0.75641571128E+02 -0.35557270990E+02 -0.35220819495E+03  0.53947806201E+03  0.40000000000E+03 0.  1.
<mgrwt>
<rscale>  2 0.40863916E+03</rscale>
<asrwt>0</asrwt>
<pdfrwt beam="1">  1       21 0.54671428E-01 0.40863916E+03</pdfrwt>
<pdfrwt beam="2">  1       21 0.93130101E-01 0.40863916E+03</pdfrwt>
<totfact> 0.27025813E+03</totfact>
</mgrwt>
</event>
<event>
 4    1  0.1147209E-002  0.5243627E+03  0.7818608E-02  0.1007609E+00
         21   -1    0    0  503  502  0.00000000000E+00  0.00000000000E+00  0.15225102463E+04  0.15225102463E+04  0.00000000000E+00 0.  1.
         21   -1    0    0  501  503 -0.00000000000E+00 -0.00000000000E+00 -0.19228856214E+03  0.19228856214E+03  0.00000000000E+00 0. -1.
    9000007    1    1    2  501    0 -0.24228992111E+03 -0.23717465743E+03  0.45366539913E+03  0.69337473156E+03  0.40000000000E+03 0. -1.
   -9000007    1    1    2    0  502  0.24228992111E+03  0.23717465743E+03  0.87655628499E+03  0.10214240768E+04  0.40000000000E+03 0.  1.
<mgrwt>
<rscale>  2 0.52436268E+03</rscale>
<asrwt>0</asrwt>
<pdfrwt beam="1">  1       21 0.23423234E+00 0.52436268E+03</pdfrwt>
<pdfrwt beam="2">  1       21 0.29582857E-01 0.52436268E+03</pdfrwt>
<totfact> 0.71660555E+02</totfact>
</mgrwt>
</event>
<event>
 4    1  0.1147209E-002  0.4519723E+03  0.7818608E-02  0.1027136E+00
         21   -1    0    0  501  502  0.00000000000E+00  0.00000000000E+00  0.96240615819E+03  0.96240615819E+03  0.00000000000E+00 0.  1.
         21   -1    0    0  502  503 -0.00000000000E+00 -0.00000000000E+00 -0.26590487119E+03  0.26590487119E+03  0.00000000000E+00 0.  1.
    9000007    1    1    2  501    0  0.59369944233E+02 -0.20187656530E+03  0.62410838260E+03  0.77057784236E+03  0.40000000000E+03 0.  1.
   -9000007    1    1    2    0  503 -0.59369944233E+02  0.20187656530E+03  0.72392904394E+02  0.45773318702E+03  0.40000000000E+03 0.  1.
<mgrwt>
<rscale>  2 0.45197228E+03</rscale>
<asrwt>0</asrwt>
<pdfrwt beam="1">  1       21 0.14806248E+00 0.45197228E+03</pdfrwt>
<pdfrwt beam="2">  1       21 0.40908442E-01 0.45197228E+03</pdfrwt>
<totfact> 0.15154004E+03</totfact>
</mgrwt>
</event>
<event>
 4    1  0.1147209E-002  0.5286086E+03  0.7818608E-02  0.1006570E+00
         21   -1    0    0  501  502  0.00000000000E+00  0.00000000000E+00  0.38900358265E+03  0.38900358265E+03  0.00000000000E+00 0.  1.
         21   -1    0    0  502  503 -0.00000000000E+00 -0.00000000000E+00 -0.99089515578E+03  0.99089515578E+03  0.00000000000E+00 0. -1.
    9000007    1    1    2  501    0 -0.34555855915E+03  0.40438598351E+01  0.60922533741E+02  0.53210772004E+03  0.40000000000E+03 0.  1.
   -9000007    1    1    2    0  503  0.34555855915E+03 -0.40438598351E+01 -0.66281410687E+03  0.84779101840E+03  0.40000000000E+03 0. -1.
<mgrwt>
<rscale>  2 0.52860862E+03</rscale>
<asrwt>0</asrwt>
<pdfrwt beam="1">  1       21 0.59846705E-01 0.52860862E+03</pdfrwt>
<pdfrwt beam="2">  1       21 0.15244541E+00 0.52860862E+03</pdfrwt>
<totfact> 0.60404107E+02</totfact>
</mgrwt>
</event>
<event>
 4    1  0.1147209E-002  0.4486690E+03  0.7818608E-02  0.1028120E+00
         21   -1    0    0  501  502  0.00000000000E+00  0.00000000000E+00  0.44705175751E+03  0.44705175751E+03  0.00000000000E+00 0.  1.
         21   -1    0    0  502  503 -0.00000000000E+00 -0.00000000000E+00 -0.52079208729E+03  0.52079208729E+03  0.00000000000E+00 0.  1.
    9000007    1    1    2  501    0 -0.86123090388E+02  0.18408331043E+03  0.14117811599E+03  0.47035636735E+03  0.40000000000E+03 0.  1.
   -9000007    1    1    2    0  503  0.86123090388E+02 -0.18408331043E+03 -0.21491844577E+03  0.49748747744E+03  0.40000000000E+03 0.  1.
<mgrwt>
<rscale>  2 0.44866898E+03</rscale>
<asrwt>0</asrwt>
<pdfrwt beam="1">  1       21 0.68777194E-01 0.44866898E+03</pdfrwt>
<pdfrwt beam="2">  1       21 0.80121859E-01 0.44866898E+03</pdfrwt>
<totfact> 0.22871401E+03</totfact>
</mgrwt>
</event>
<event>
 4    1  0.1147209E-002  0.5570861E+03  0.7818608E-02  0.9998670E-01
         21   -1    0    0  503  502  0.00000000000E+00  0.00000000000E+00  0.50046253127E+03  0.50046253127E+03  0.00000000000E+00 0.  1.
         21   -1    0    0  501  503 -0.00000000000E+00 -0.00000000000E+00 -0.63146265043E+03  0.63146265043E+03  0.00000000000E+00 0.  1.
    9000007    1    1    2  501    0 -0.38461213473E+03  0.49177358249E+02  0.10365476097E+02  0.55718251035E+03  0.40000000000E+03 0.  1.
   -9000007    1    1    2    0  502  0.38461213473E+03 -0.49177358249E+02 -0.14136559525E+03  0.57474267135E+03  0.40000000000E+03 0.  1.
<mgrwt>
<rscale>  2 0.55708609E+03</rscale>
<asrwt>0</asrwt>
<pdfrwt beam="1">  1       21 0.76994236E-01 0.55708609E+03</pdfrwt>
<pdfrwt beam="2">  1       21 0.97148100E-01 0.55708609E+03</pdfrwt>
<totfact> 0.10805566E+03</totfact>
</mgrwt>
</event>
<event>
 4    1  0.1147209E-002  0.4008241E+03  0.7818608E-02  0.1043495E+00
         21   -1    0    0  503  502  0.00000000000E+00  0.00000000000E+00  0.76580868191E+02  0.76580868191E+02  0.00000000000E+00 0.  1.
         21   -1    0    0  501  503 -0.00000000000E+00 -0.00000000000E+00 -0.21070952554E+04  0.21070952554E+04  0.00000000000E+00 0.  1.
    9000007    1    1    2  501    0 -0.25207965419E+02 -0.49493008330E+01 -0.94317799968E+03  0.10248144594E+04  0.40000000000E+03 0.  1.
   -9000007    1    1    2    0  502  0.25207965419E+02  0.49493008330E+01 -0.10873363875E+04  0.11588616642E+04  0.40000000000E+03 0.  1.
<mgrwt>
<rscale>  2 0.40082407E+03</rscale>
<asrwt>0</asrwt>
<pdfrwt beam="1">  1       21 0.11781670E-01 0.40082407E+03</pdfrwt>
<pdfrwt beam="2">  1       21 0.32416854E+00 0.40082407E+03</pdfrwt>
<totfact> 0.12419112E+03</totfact>
</mgrwt>
</event>
<event>
 4    1  0.1147209E-002  0.4114089E+03  0.7818608E-02  0.1039899E+00
         21   -1    0    0  501  502  0.00000000000E+00  0.00000000000E+00  0.41906537034E+03  0.41906537034E+03  0.00000000000E+00 0. -1.
         21   -1    0    0  502  503 -0.00000000000E+00 -0.00000000000E+00 -0.42645532994E+03  0.42645532994E+03  0.00000000000E+00 0.  1.
    9000007    1    1    2  501    0 -0.47464994612E+02  0.83692262102E+02  0.93547308717E+02  0.42191044004E+03  0.40000000000E+03 0. -1.
   -9000007    1    1    2    0  503  0.47464994612E+02 -0.83692262102E+02 -0.10093726832E+03  0.42361026024E+03  0.40000000000E+03 0.  1.
<mgrwt>
<rscale>  2 0.41140895E+03</rscale>
<asrwt>0</asrwt>
<pdfrwt beam="1">  1       21 0.64471596E-01 0.41140895E+03</pdfrwt>
<pdfrwt beam="2">  1       21 0.65608512E-01 0.41140895E+03</pdfrwt>
<totfact> 0.42111169E+03</totfact>
</mgrwt>
</event>
<event>
 4    1  0.1147209E-002  0.4710661E+03  0.7818608E-02  0.1021620E+00
         21   -1    0    0  501  502  0.00000000000E+00  0.00000000000E+00  0.30199095133E+03  0.30199095133E+03  0.00000000000E+00 0. -1.
         21   -1    0    0  502  503 -0.00000000000E+00 -0.00000000000E+00 -0.83852487642E+03  0.83852487642E+03  0.00000000000E+00 0. -1.
    9000007    1    1    2  501    0 -0.19462779532E+02  0.24804134570E+03 -0.46883065989E+03  0.66460928117E+03  0.40000000000E+03 0. -1.
   -9000007    1    1    2    0  503  0.19462779532E+02 -0.24804134570E+03 -0.67703265199E+02  0.47590654658E+03  0.40000000000E+03 0. -1.
<mgrwt>
<rscale>  2 0.47106614E+03</rscale>
<asrwt>0</asrwt>
<pdfrwt beam="1">  1       21 0.46460146E-01 0.47106614E+03</pdfrwt>
<pdfrwt beam="2">  1       21 0.12900383E+00 0.47106614E+03</pdfrwt>
<totfact> 0.16612095E+03</totfact>
</mgrwt>
</event>
<event>
 4    1  0.1147209E-002  0.4685971E+03  0.7818608E-02  0.1022317E+00
         21   -1    0    0  503  502  0.00000000000E+00  0.00000000000E+00  0.11773354557E+04  0.11773354557E+04  0.00000000000E+00 0.  1.
         21   -1    0    0  501  503 -0.00000000000E+00 -0.00000000000E+00 -0.21077732339E+03  0.21077732339E+03  0.00000000000E+00 0.  1.
    9000007    1    1    2  501    0 -0.23912285555E+03 -0.49025241459E+02  0.24777084265E+03  0.53006943395E+03  0.40000000000E+03 0.  1.
   -9000007    1    1    2    0  502  0.23912285555E+03  0.49025241459E+02  0.71878728963E+03  0.85804334511E+03  0.40000000000E+03 0.  1.
<mgrwt>
<rscale>  2 0.46859707E+03</rscale>
<asrwt>0</asrwt>
<pdfrwt beam="1">  1       21 0.18112853E+00 0.46859707E+03</pdfrwt>
<pdfrwt beam="2">  1       21 0.32427281E-01 0.46859707E+03</pdfrwt>
<totfact> 0.13698048E+03</totfact>
</mgrwt>
</event>
<event>
 4    1  0.1147209E-002  0.7385281E+03  0.7818608E-02  0.9653522E-01
         21   -1    0    0  503  502  0.00000000000E+00  0.00000000000E+00  0.32095452058E+03  0.32095452058E+03  0.00000000000E+00 0.  1.
         21   -1    0    0  501  503 -0.00000000000E+00 -0.00000000000E+00 -0.19112190589E+04  0.19112190589E+04  0.00000000000E+00 0. -1.
    9000007    1    1    2  501    0 -0.58624190916E+03  0.20431399438E+03 -0.11667063926E+04  0.13808068623E+04  0.40000000000E+03 0. -1.
   -9000007    1    1    2    0  502  0.58624190916E+03 -0.20431399438E+03 -0.42355814571E+03  0.85136671720E+03  0.40000000000E+03 0.  1.
<mgrwt>
<rscale>  2 0.73852812E+03</rscale>
<asrwt>0</asrwt>
<pdfrwt beam="1">  1       21 0.49377619E-01 0.73852812E+03</pdfrwt>
<pdfrwt beam="2">  1       21 0.29403370E+00 0.73852812E+03</pdfrwt>
<totfact> 0.97641258E+01</totfact>
</mgrwt>
</event>
<event>
 4    1  0.1147209E-002  0.4007015E+03  0.7818608E-02  0.1043537E+00
         21   -1    0    0  503  502  0.00000000000E+00  0.00000000000E+00  0.57648911458E+03  0.57648911458E+03  0.00000000000E+00 0. -1.
         21   -1    0    0  501  503 -0.00000000000E+00 -0.00000000000E+00 -0.28684657830E+03  0.28684657830E+03  0.00000000000E+00 0. -1.
    9000007    1    1    2  501    0  0.15248961353E+02 -0.18141757580E+02  0.71259382126E+02  0.40698839508E+03  0.40000000000E+03 0.  1.
   -9000007    1    1    2    0  502 -0.15248961353E+02  0.18141757580E+02  0.21838315416E+03  0.45634729780E+03  0.40000000000E+03 0.  1.
<mgrwt>
<rscale>  2 0.40070145E+03</rscale>
<asrwt>0</asrwt>
<pdfrwt beam="1">  1       21 0.88690632E-01 0.40070145E+03</pdfrwt>
<pdfrwt beam="2">  1       21 0.44130243E-01 0.40070145E+03</pdfrwt>
<totfact> 0.47894827E+03</totfact>
</mgrwt>
</event>
<event>
 4    1  0.1147209E-002  0.4309134E+03  0.7818608E-02  0.1033572E+00
         21   -1    0    0  501  502  0.00000000000E+00  0.00000000000E+00  0.99975801641E+03  0.99975801641E+03  0.00000000000E+00 0.  1.
         21   -1    0    0  502  503 -0.00000000000E+00 -0.00000000000E+00 -0.30261889328E+03  0.30261889328E+03  0.00000000000E+00 0.  1.
    9000007    1    1    2  501    0  0.13911280213E+03 -0.79586377312E+02  0.75327856672E+03  0.86782196461E+03  0.40000000000E+03 0.  1.
   -9000007    1    1    2    0  503 -0.13911280213E+03  0.79586377312E+02 -0.56139443602E+02  0.43455494508E+03  0.40000000000E+03 0.  1.
<mgrwt>
<rscale>  2 0.43091341E+03</rscale>
<asrwt>0</asrwt>
<pdfrwt beam="1">  1       21 0.15380892E+00 0.43091341E+03</pdfrwt>
<pdfrwt beam="2">  1       21 0.46556753E-01 0.43091341E+03</pdfrwt>
<totfact> 0.10528500E+03</totfact>
</mgrwt>
</event>
<event>
 4    1  0.1147209E-002  0.4692772E+03  0.7818608E-02  0.1022124E+00
         21   -1    0    0  503  502  0.00000000000E+00  0.00000000000E+00  0.44045719339E+03  0.44045719339E+03  0.00000000000E+00 0.  1.
         21   -1    0    0  501  503 -0.00000000000E+00 -0.00000000000E+00 -0.54083893449E+03  0.54083893449E+03  0.00000000000E+00 0.  1.
    9000007    1    1    2  501    0  0.20823463619E+03 -0.12984381409E+03 -0.18504493526E+03  0.50444296787E+03  0.40000000000E+03 0.  1.
   -9000007    1    1    2    0  502 -0.20823463619E+03  0.12984381409E+03  0.84663194156E+02  0.47685316001E+03  0.40000000000E+03 0.  1.
<mgrwt>
<rscale>  2 0.46927719E+03</rscale>
<asrwt>0</asrwt>
<pdfrwt beam="1">  1       21 0.67762645E-01 0.46927719E+03</pdfrwt>
<pdfrwt beam="2">  1       21 0.83205990E-01 0.46927719E+03</pdfrwt>
<totfact> 0.21500488E+03</totfact>
</mgrwt>
</event>
<event>
 4    1  0.1147209E-002  0.4788219E+03  0.7818608E-02  0.1019459E+00
         21   -1    0    0  503  502  0.00000000000E+00  0.00000000000E+00  0.43859386020E+03  0.43859386020E+03  0.00000000000E+00 0. -1.
         21   -1    0    0  501  503 -0.00000000000E+00 -0.00000000000E+00 -0.55027332902E+03  0.55027332902E+03  0.00000000000E+00 0. -1.
    9000007    1    1    2  501    0  0.23599039020E+03  0.11652868132E+03 -0.16643866271E+03  0.50692428062E+03  0.40000000000E+03 0. -1.
   -9000007    1    1    2    0  502 -0.23599039020E+03 -0.11652868132E+03  0.54759193888E+02  0.48194290860E+03  0.40000000000E+03 0. -1.
<mgrwt>
<rscale>  2 0.47882189E+03</rscale>
<asrwt>0</asrwt>
<pdfrwt beam="1">  1       21 0.67475979E-01 0.47882189E+03</pdfrwt>
<pdfrwt beam="2">  1       21 0.84657435E-01 0.47882189E+03</pdfrwt>
<totfact> 0.20775556E+03</totfact>
</mgrwt>
</event>
<event>
 4    1  0.1147209E-002  0.4216138E+03  0.7818608E-02  0.1036542E+00
         21   -1    0    0  501  502  0.00000000000E+00  0.00000000000E+00  0.22198782044E+03  0.22198782044E+03  0.00000000000E+00 0.  1.
         21   -1    0    0  502  503 -0.00000000000E+00 -0.00000000000E+00 -0.84463643627E+03  0.84463643627E+03  0.00000000000E+00 0.  1.
    9000007    1    1    2  501    0 -0.40972562212E+02 -0.12680489450E+03 -0.18976768883E+03  0.46235268773E+03  0.40000000000E+03 0.  1.
   -9000007    1    1    2    0  503  0.40972562212E+02  0.12680489450E+03 -0.43288092699E+03  0.60427156898E+03  0.40000000000E+03 0.  1.
<mgrwt>
<rscale>  2 0.42161384E+03</rscale>
<asrwt>0</asrwt>
<pdfrwt beam="1">  1       21 0.34151973E-01 0.42161384E+03</pdfrwt>
<pdfrwt beam="2">  1       21 0.12994407E+00 0.42161384E+03</pdfrwt>
<totfact> 0.31313861E+03</totfact>
</mgrwt>
</event>
<event>
 4    1  0.1147209E-002  0.4322356E+03  0.7818608E-02  0.1033156E+00
         21   -1    0    0  503  502  0.00000000000E+00  0.00000000000E+00  0.26837467449E+03  0.26837467449E+03  0.00000000000E+00 0.  1.
         21   -1    0    0  501  503 -0.00000000000E+00 -0.00000000000E+00 -0.69962736101E+03  0.69962736101E+03  0.00000000000E+00 0.  1.
    9000007    1    1    2  501    0  0.15263640888E+03 -0.59411444375E+02 -0.24977485552E+03  0.49921445441E+03  0.40000000000E+03 0.  1.
   -9000007    1    1    2    0  502 -0.15263640888E+03  0.59411444375E+02 -0.18147783100E+03  0.46878758109E+03  0.40000000000E+03 0.  1.
<mgrwt>
<rscale>  2 0.43223558E+03</rscale>
<asrwt>0</asrwt>
<pdfrwt beam="1">  1       21 0.41288412E-01 0.43223558E+03</pdfrwt>
<pdfrwt beam="2">  1       21 0.10763498E+00 0.43223558E+03</pdfrwt>
<totfact> 0.34077226E+03</totfact>
</mgrwt>
</event>
<event>
 4    1  0.1147209E-002  0.4164008E+03  0.7818608E-02  0.1038244E+00
         21   -1    0    0  501  502  0.00000000000E+00  0.00000000000E+00  0.54513995897E+03  0.54513995897E+03  0.00000000000E+00 0. -1.
         21   -1    0    0  502  503 -0.00000000000E+00 -0.00000000000E+00 -0.47164906738E+03  0.47164906738E+03  0.00000000000E+00 0. -1.
    9000007    1    1    2  501    0  0.11440014240E+03 -0.17385291727E+02  0.32685713351E+03  0.52936303864E+03  0.40000000000E+03 0. -1.
   -9000007    1    1    2    0  503 -0.11440014240E+03  0.17385291727E+02 -0.25336624192E+03  0.48742598771E+03  0.40000000000E+03 0. -1.
<mgrwt>
<rscale>  2 0.41640082E+03</rscale>
<asrwt>0</asrwt>
<pdfrwt beam="1">  1       21 0.83867686E-01 0.41640082E+03</pdfrwt>
<pdfrwt beam="2">  1       21 0.72561395E-01 0.41640082E+03</pdfrwt>
<totfact> 0.18461989E+03</totfact>
</mgrwt>
</event>
<event>
 4    1  0.1147209E-002  0.4065178E+03  0.7818608E-02  0.1041546E+00
         21   -1    0    0  501  502  0.00000000000E+00  0.00000000000E+00  0.45726278632E+03  0.45726278632E+03  0.00000000000E+00 0.  1.
         21   -1    0    0  502  503 -0.00000000000E+00 -0.00000000000E+00 -0.37435394493E+03  0.37435394493E+03  0.00000000000E+00 0.  1.
    9000007    1    1    2  501    0 -0.59116761071E+02  0.41975134157E+02  0.11879050667E+03  0.42351846217E+03  0.40000000000E+03 0.  1.
   -9000007    1    1    2    0  503  0.59116761071E+02 -0.41975134157E+02 -0.35881665276E+02  0.40809826908E+03  0.40000000000E+03 0.  1.
<mgrwt>
<rscale>  2 0.40651778E+03</rscale>
<asrwt>0</asrwt>
<pdfrwt beam="1">  1       21 0.70348121E-01 0.40651778E+03</pdfrwt>
<pdfrwt beam="2">  1       21 0.57592915E-01 0.40651778E+03</pdfrwt>
<totfact> 0.46231891E+03</totfact>
</mgrwt>
</event>
<event>
 4    1  0.1147209E-002  0.5829220E+03  0.7818608E-02  0.9941485E-01
         21   -1    0    0  501  502  0.00000000000E+00  0.00000000000E+00  0.49108581288E+03  0.49108581288E+03  0.00000000000E+00 0. -1.
         21   -1    0    0  502  503 -0.00000000000E+00 -0.00000000000E+00 -0.73206184443E+03  0.73206184443E+03  0.00000000000E+00 0.  1.
    9000007    1    1    2  501    0 -0.40532295079E+03 -0.12454456902E+03  0.22700482246E+02  0.58336382816E+03  0.40000000000E+03 0. -1.
   -9000007    1    1    2    0  503  0.40532295079E+03  0.12454456902E+03 -0.26367651379E+03  0.63978382915E+03  0.40000000000E+03 0.  1.
<mgrwt>
<rscale>  2 0.58292199E+03</rscale>
<asrwt>0</asrwt>
<pdfrwt beam="1">  1       21 0.75551664E-01 0.58292199E+03</pdfrwt>
<pdfrwt beam="2">  1       21 0.11262490E+00 0.58292199E+03</pdfrwt>
<totfact> 0.77665240E+02</totfact>
</mgrwt>
</event>
<event>
 4    1  0.1147209E-002  0.4308427E+03  0.7818608E-02  0.1033594E+00
         21   -1    0    0  503  502  0.00000000000E+00  0.00000000000E+00  0.16590421849E+03  0.16590421849E+03  0.00000000000E+00 0. -1.
         21   -1    0    0  501  503 -0.00000000000E+00 -0.00000000000E+00 -0.21462186276E+04  0.21462186276E+04  0.00000000000E+00 0.  1.
    9000007    1    1    2  501    0  0.15804488686E+03 -0.25441508163E+02 -0.17899962341E+04  0.18411170453E+04  0.40000000000E+03 0.  1.
   -9000007    1    1    2    0  502 -0.15804488686E+03  0.25441508163E+02 -0.19031817505E+03  0.47100580076E+03  0.40000000000E+03 0. -1.
<mgrwt>
<rscale>  2 0.43084273E+03</rscale>
<asrwt>0</asrwt>
<pdfrwt beam="1">  1       21 0.25523727E-01 0.43084273E+03</pdfrwt>
<pdfrwt beam="2">  1       21 0.33018747E+00 0.43084273E+03</pdfrwt>
<totfact> 0.26251338E+02</totfact>
</mgrwt>
</event>
<event>
 4    1  0.1147209E-002  0.4745514E+03  0.7818608E-02  0.1020643E+00
         21   -1    0    0  503  502  0.00000000000E+00  0.00000000000E+00  0.19776207498E+03  0.19776207498E+03  0.00000000000E+00 0.  1.
         21   -1    0    0  501  503 -0.00000000000E+00 -0.00000000000E+00 -0.11421645786E+04  0.11421645786E+04  0.00000000000E+00 0.  1.
    9000007    1    1    2  501    0 -0.18802662689E+03 -0.17275712108E+03 -0.43550121346E+03  0.64409653176E+03  0.40000000000E+03 0.  1.
   -9000007    1    1    2    0  502  0.18802662689E+03  0.17275712108E+03 -0.50890129018E+03  0.69583012184E+03  0.40000000000E+03 0.  1.
<mgrwt>
<rscale>  2 0.47455140E+03</rscale>
<asrwt>0</asrwt>
<pdfrwt beam="1">  1       21 0.30424935E-01 0.47455140E+03</pdfrwt>
<pdfrwt beam="2">  1       21 0.17571763E+00 0.47455140E+03</pdfrwt>
<totfact> 0.16958150E+03</totfact>
</mgrwt>
</event>
<event>
 4    1  0.1147209E-002  0.6035454E+03  0.7818608E-02  0.9898078E-01
         21   -1    0    0  503  502  0.00000000000E+00  0.00000000000E+00  0.60410155059E+03  0.60410155059E+03  0.00000000000E+00 0. -1.
         21   -1    0    0  501  503 -0.00000000000E+00 -0.00000000000E+00 -0.75862636348E+03  0.75862636348E+03  0.00000000000E+00 0. -1.
    9000007    1    1    2  501    0  0.41022071292E+03 -0.18969967438E+03 -0.38588035268E+03  0.71635929976E+03  0.40000000000E+03 0. -1.
   -9000007    1    1    2    0  502 -0.41022071292E+03  0.18969967438E+03  0.23135553979E+03  0.64636861431E+03  0.40000000000E+03 0. -1.
<mgrwt>
<rscale>  2 0.60354536E+03</rscale>
<asrwt>0</asrwt>
<pdfrwt beam="1">  1       21 0.92938700E-01 0.60354536E+03</pdfrwt>
<pdfrwt beam="2">  1       21 0.11671175E+00 0.60354536E+03</pdfrwt>
<totfact> 0.43349385E+02</totfact>
</mgrwt>
</event>
<event>
 4    1  0.1147209E-002  0.8358183E+03  0.7818608E-02  0.9509571E-01
         21   -1    0    0  503  502  0.00000000000E+00  0.00000000000E+00  0.14965164288E+04  0.14965164288E+04  0.00000000000E+00 0. -1.
         21   -1    0    0  501  503 -0.00000000000E+00 -0.00000000000E+00 -0.10113900952E+04  0.10113900952E+04  0.00000000000E+00 0.  1.
    9000007    1    1    2  501    0  0.73287074579E+03 -0.38634856386E+02 -0.67757276642E+03  0.10759633060E+04  0.40000000000E+03 0.  1.
   -9000007    1    1    2    0  502 -0.73287074579E+03  0.38634856386E+02  0.11626991000E+04  0.14319432179E+04  0.40000000000E+03 0. -1.
<mgrwt>
<rscale>  2 0.83581827E+03</rscale>
<asrwt>0</asrwt>
<pdfrwt beam="1">  1       21 0.23023330E+00 0.83581827E+03</pdfrwt>
<pdfrwt beam="2">  1       21 0.15559848E+00 0.83581827E+03</pdfrwt>
<totfact> 0.14775154E+01</totfact>
</mgrwt>
</event>
<event>
 4    1  0.1147209E-002  0.4972436E+03  0.7818608E-02  0.1014501E+00
         21   -1    0    0  503  502  0.00000000000E+00  0.00000000000E+00  0.28691212959E+03  0.28691212959E+03  0.00000000000E+00 0. -1.
         21   -1    0    0  501  503 -0.00000000000E+00 -0.00000000000E+00 -0.94651506157E+03  0.94651506157E+03  0.00000000000E+00 0. -1.
    9000007    1    1    2  501    0  0.21767601354E+03 -0.19967054478E+03 -0.51433985092E+03  0.71539964745E+03  0.40000000000E+03 0. -1.
   -9000007    1    1    2    0  502 -0.21767601354E+03  0.19967054478E+03 -0.14526308105E+03  0.51802754371E+03  0.40000000000E+03 0. -1.
<mgrwt>
<rscale>  2 0.49724358E+03</rscale>
<asrwt>0</asrwt>
<pdfrwt beam="1">  1       21 0.44140327E-01 0.49724358E+03</pdfrwt>
<pdfrwt beam="2">  1       21 0.14561770E+00 0.49724358E+03</pdfrwt>
<totfact> 0.13294793E+03</totfact>
</mgrwt>
</event>
<event>
 4    1  0.1147209E-002  0.4673654E+03  0.7818608E-02  0.1022666E+00
         21   -1    0    0  501  502  0.00000000000E+00  0.00000000000E+00  0.26923523424E+03  0.26923523424E+03  0.00000000000E+00 0.  1.
         21   -1    0    0  502  503 -0.00000000000E+00 -0.00000000000E+00 -0.81130859159E+03  0.81130859159E+03  0.00000000000E+00 0. -1.
    9000007    1    1    2  501    0  0.23872065654E+03  0.37985518669E+02 -0.27283021485E+03  0.54117167112E+03  0.40000000000E+03 0. -1.
   -9000007    1    1    2    0  503 -0.23872065654E+03 -0.37985518669E+02 -0.26924314250E+03  0.53937215471E+03  0.40000000000E+03 0.  1.
<mgrwt>
<rscale>  2 0.46736544E+03</rscale>
<asrwt>0</asrwt>
<pdfrwt beam="1">  1       21 0.41420805E-01 0.46736544E+03</pdfrwt>
<pdfrwt beam="2">  1       21 0.12481671E+00 0.46736544E+03</pdfrwt>
<totfact> 0.23026177E+03</totfact>
</mgrwt>
</event>
<event>
 4    1  0.1147209E-002  0.4172788E+03  0.7818608E-02  0.1037956E+00
         21   -1    0    0  503  502  0.00000000000E+00  0.00000000000E+00  0.63979991770E+03  0.63979991770E+03  0.00000000000E+00 0. -1.
         21   -1    0    0  501  503 -0.00000000000E+00 -0.00000000000E+00 -0.27975513511E+03  0.27975513511E+03  0.00000000000E+00 0. -1.
    9000007    1    1    2  501    0 -0.95929262871E+02  0.70136557711E+02  0.25582979285E+03  0.48945933755E+03  0.40000000000E+03 0. -1.
   -9000007    1    1    2    0  502  0.95929262871E+02 -0.70136557711E+02  0.10421498973E+03  0.43009571526E+03  0.40000000000E+03 0. -1.
<mgrwt>
<rscale>  2 0.41727876E+03</rscale>
<asrwt>0</asrwt>
<pdfrwt beam="1">  1       21 0.98430756E-01 0.41727876E+03</pdfrwt>
<pdfrwt beam="2">  1       21 0.43039252E-01 0.41727876E+03</pdfrwt>
<totfact> 0.39119980E+03</totfact>
</mgrwt>
</event>
<event>
 4    1  0.1147209E-002  0.5452380E+03  0.7818608E-02  0.1002602E+00
         21   -1    0    0  503  502  0.00000000000E+00  0.00000000000E+00  0.61925793283E+03  0.61925793283E+03  0.00000000000E+00 0. -1.
         21   -1    0    0  501  503 -0.00000000000E+00 -0.00000000000E+00 -0.48267039881E+03  0.48267039881E+03  0.00000000000E+00 0. -1.
    9000007    1    1    2  501    0  0.21027188646E+03 -0.30507406920E+03  0.10876831781E+03  0.55598111559E+03  0.40000000000E+03 0. -1.
   -9000007    1    1    2    0  502 -0.21027188646E+03  0.30507406920E+03  0.27819216213E+02  0.54594721606E+03  0.40000000000E+03 0. -1.
<mgrwt>
<rscale>  2 0.54523798E+03</rscale>
<asrwt>0</asrwt>
<pdfrwt beam="1">  1       21 0.95270452E-01 0.54523798E+03</pdfrwt>
<pdfrwt beam="2">  1       21 0.74256984E-01 0.54523798E+03</pdfrwt>
<totfact> 0.12356377E+03</totfact>
</mgrwt>
</event>
<event>
 4    1  0.1147209E-002  0.4367750E+03  0.7818608E-02  0.1031741E+00
         21   -1    0    0  503  502  0.00000000000E+00  0.00000000000E+00  0.19280159066E+03  0.19280159066E+03  0.00000000000E+00 0.  1.
         21   -1    0    0  501  503 -0.00000000000E+00 -0.00000000000E+00 -0.10871575484E+04  0.10871575484E+04  0.00000000000E+00 0.  1.
    9000007    1    1    2  501    0 -0.17150670607E+03  0.36848775552E+02 -0.25534289852E+03  0.50593712881E+03  0.40000000000E+03 0.  1.
   -9000007    1    1    2    0  502  0.17150670607E+03 -0.36848775552E+02 -0.63901305918E+03  0.77402201021E+03  0.40000000000E+03 0.  1.
<mgrwt>
<rscale>  2 0.43677498E+03</rscale>
<asrwt>0</asrwt>
<pdfrwt beam="1">  1       21 0.29661783E-01 0.43677498E+03</pdfrwt>
<pdfrwt beam="2">  1       21 0.16725501E+00 0.43677498E+03</pdfrwt>
<totfact> 0.20859055E+03</totfact>
</mgrwt>
</event>
<event>
 4    1  0.1147209E-002  0.5508188E+03  0.7818608E-02  0.1001305E+00
         21   -1    0    0  501  502  0.00000000000E+00  0.00000000000E+00  0.62422681565E+03  0.62422681565E+03  0.00000000000E+00 0. -1.
         21   -1    0    0  502  503 -0.00000000000E+00 -0.00000000000E+00 -0.66014544328E+03  0.66014544328E+03  0.00000000000E+00 0.  1.
    9000007    1    1    2  501    0  0.36962152168E+03  0.82348685909E+02  0.31183482821E+03  0.63296313909E+03  0.40000000000E+03 0. -1.
   -9000007    1    1    2    0  503 -0.36962152168E+03 -0.82348685909E+02 -0.34775345584E+03  0.65140911984E+03  0.40000000000E+03 0.  1.
<mgrwt>
<rscale>  2 0.55081882E+03</rscale>
<asrwt>0</asrwt>
<pdfrwt beam="1">  1       21 0.96034894E-01 0.55081882E+03</pdfrwt>
<pdfrwt beam="2">  1       21 0.10156084E+00 0.55081882E+03</pdfrwt>
<totfact> 0.57705398E+02</totfact>
</mgrwt>
</event>
<event>
 4    1  0.1147209E-002  0.4127570E+03  0.7818608E-02  0.1039450E+00
         21   -1    0    0  503  502  0.00000000000E+00  0.00000000000E+00  0.27913785522E+03  0.27913785522E+03  0.00000000000E+00 0. -1.
         21   -1    0    0  501  503 -0.00000000000E+00 -0.00000000000E+00 -0.61034695518E+03  0.61034695518E+03  0.00000000000E+00 0. -1.
    9000007    1    1    2  501    0  0.69106492930E+02  0.74783888095E+02 -0.16386624907E+03  0.44409513043E+03  0.40000000000E+03 0. -1.
   -9000007    1    1    2    0  502 -0.69106492930E+02 -0.74783888095E+02 -0.16734285090E+03  0.44538967998E+03  0.40000000000E+03 0. -1.
<mgrwt>
<rscale>  2 0.41275700E+03</rscale>
<asrwt>0</asrwt>
<pdfrwt beam="1">  1       21 0.42944286E-01 0.41275700E+03</pdfrwt>
<pdfrwt beam="2">  1       21 0.93899530E-01 0.41275700E+03</pdfrwt>
<totfact> 0.44076107E+03</totfact>
</mgrwt>
</event>
<event>
 4    1  0.1147209E-002  0.4476846E+03  0.7818608E-02  0.1028415E+00
         21   -1    0    0  503  502  0.00000000000E+00  0.00000000000E+00  0.86502294146E+03  0.86502294146E+03  0.00000000000E+00 0. -1.
         21   -1    0    0  501  503 -0.00000000000E+00 -0.00000000000E+00 -0.37443382052E+03  0.37443382052E+03  0.00000000000E+00 0. -1.
    9000007    1    1    2  501    0 -0.18382082657E+02  0.20020896522E+03 -0.13734056204E+03  0.46827765343E+03  0.40000000000E+03 0. -1.
   -9000007    1    1    2    0  502  0.18382082657E+02 -0.20020896522E+03  0.62792968297E+03  0.77117910856E+03  0.40000000000E+03 0. -1.
<mgrwt>
<rscale>  2 0.44768463E+03</rscale>
<asrwt>0</asrwt>
<pdfrwt beam="1">  1       21 0.13308045E+00 0.44768463E+03</pdfrwt>
<pdfrwt beam="2">  1       21 0.57605204E-01 0.44768463E+03</pdfrwt>
<totfact> 0.97624408E+02</totfact>
</mgrwt>
</event>
<event>
 4    1  0.1147209E-002  0.4773012E+03  0.7818608E-02  0.1019880E+00
         21   -1    0    0  501  502  0.00000000000E+00  0.00000000000E+00  0.73466258919E+03  0.73466258919E+03  0.00000000000E+00 0.  1.
         21   -1    0    0  502  503 -0.00000000000E+00 -0.00000000000E+00 -0.37049847813E+03  0.37049847813E+03  0.00000000000E+00 0.  1.
    9000007    1    1    2  501    0  0.13850199878E+02  0.26004737099E+03  0.40519621759E+03  0.62609938344E+03  0.40000000000E+03 0.  1.
   -9000007    1    1    2    0  503 -0.13850199878E+02 -0.26004737099E+03 -0.41032106521E+02  0.47906168388E+03  0.40000000000E+03 0.  1.
<mgrwt>
<rscale>  2 0.47730123E+03</rscale>
<asrwt>0</asrwt>
<pdfrwt beam="1">  1       21 0.11302501E+00 0.47730123E+03</pdfrwt>
<pdfrwt beam="2">  1       21 0.56999766E-01 0.47730123E+03</pdfrwt>
<totfact> 0.14987776E+03</totfact>
</mgrwt>
</event>
<event>
 4    1  0.1147209E-002  0.4565142E+03  0.7818608E-02  0.1025797E+00
         21   -1    0    0  503  502  0.00000000000E+00  0.00000000000E+00  0.30752410781E+03  0.30752410781E+03  0.00000000000E+00 0. -1.
         21   -1    0    0  501  503 -0.00000000000E+00 -0.00000000000E+00 -0.72888952551E+03  0.72888952551E+03  0.00000000000E+00 0.  1.
    9000007    1    1    2  501    0  0.11987481538E+03  0.18448646465E+03 -0.34802872585E+03  0.57404635790E+03  0.40000000000E+03 0.  1.
   -9000007    1    1    2    0  502 -0.11987481538E+03 -0.18448646465E+03 -0.73336691845E+02  0.46236727541E+03  0.40000000000E+03 0. -1.
<mgrwt>
<rscale>  2 0.45651421E+03</rscale>
<asrwt>0</asrwt>
<pdfrwt beam="1">  1       21 0.47311401E-01 0.45651421E+03</pdfrwt>
<pdfrwt beam="2">  1       21 0.11213685E+00 0.45651421E+03</pdfrwt>
<totfact> 0.22956540E+03</totfact>
</mgrwt>
</event>
<event>
 4    1  0.1147209E-002  0.8160602E+03  0.7818608E-02  0.9537057E-01
         21   -1    0    0  503  502  0.00000000000E+00  0.00000000000E+00  0.13270258827E+04  0.13270258827E+04  0.00000000000E+00 0.  1.
         21   -1    0    0  501  503 -0.00000000000E+00 -0.00000000000E+00 -0.50196417212E+03  0.50196417212E+03  0.00000000000E+00 0.  1.
    9000007    1    1    2  501    0  0.48182304393E+03  0.52325985819E+03  0.42692911606E+03  0.92099011666E+03  0.40000000000E+03 0.  1.
   -9000007    1    1    2    0  502 -0.48182304393E+03 -0.52325985819E+03  0.39813259450E+03  0.90799993814E+03  0.40000000000E+03 0.  1.
<mgrwt>
<rscale>  2 0.81606025E+03</rscale>
<asrwt>0</asrwt>
<pdfrwt beam="1">  1       21 0.20415783E+00 0.81606025E+03</pdfrwt>
<pdfrwt beam="2">  1       21 0.77225258E-01 0.81606025E+03</pdfrwt>
<totfact> 0.13058551E+02</totfact>
</mgrwt>
</event>
<event>
 4    1  0.1147209E-002  0.4177828E+03  0.7818608E-02  0.1037790E+00
         21   -1    0    0  503  502  0.00000000000E+00  0.00000000000E+00  0.34971403747E+03  0.34971403747E+03  0.00000000000E+00 0.  1.
         21   -1    0    0  501  503 -0.00000000000E+00 -0.00000000000E+00 -0.55083895028E+03  0.55083895028E+03  0.00000000000E+00 0.  1.
    9000007    1    1    2  501    0  0.11810432062E+03 -0.24369116699E+02 -0.23856060552E+03  0.48109629691E+03  0.40000000000E+03 0.  1.
   -9000007    1    1    2    0  502 -0.11810432062E+03  0.24369116699E+02  0.37435692711E+02  0.41945669084E+03  0.40000000000E+03 0.  1.
<mgrwt>
<rscale>  2 0.41778282E+03</rscale>
<asrwt>0</asrwt>
<pdfrwt beam="1">  1       21 0.53802160E-01 0.41778282E+03</pdfrwt>
<pdfrwt beam="2">  1       21 0.84744453E-01 0.41778282E+03</pdfrwt>
<totfact> 0.34817758E+03</totfact>
</mgrwt>
</event>
<event>
 4    1  0.1147209E-002  0.5511377E+03  0.7818608E-02  0.1001231E+00
         21   -1    0    0  501  502  0.00000000000E+00  0.00000000000E+00  0.17761911013E+04  0.17761911013E+04  0.00000000000E+00 0.  1.
         21   -1    0    0  502  503 -0.00000000000E+00 -0.00000000000E+00 -0.17601056380E+03  0.17601056380E+03  0.00000000000E+00 0. -1.
    9000007    1    1    2  501    0  0.35202099707E+03 -0.14083325664E+03  0.96455756105E+03  0.11109113723E+04  0.40000000000E+03 0.  1.
   -9000007    1    1    2    0  503 -0.35202099707E+03  0.14083325664E+03  0.63562297644E+03  0.84129029278E+03  0.40000000000E+03 0. -1.
<mgrwt>
<rscale>  2 0.55113772E+03</rscale>
<asrwt>0</asrwt>
<pdfrwt beam="1">  1       21 0.27326016E+00 0.55113772E+03</pdfrwt>
<pdfrwt beam="2">  1       21 0.27078549E-01 0.55113772E+03</pdfrwt>
<totfact> 0.48437360E+02</totfact>
</mgrwt>
</event>
<event>
 4    1  0.1147209E-002  0.4685693E+03  0.7818608E-02  0.1022325E+00
         21   -1    0    0  503  502  0.00000000000E+00  0.00000000000E+00  0.14699042960E+04  0.14699042960E+04  0.00000000000E+00 0.  1.
         21   -1    0    0  501  503 -0.00000000000E+00 -0.00000000000E+00 -0.18596589117E+03  0.18596589117E+03  0.00000000000E+00 0.  1.
    9000007    1    1    2  501    0 -0.69663200244E+02 -0.23388931638E+03  0.27468214904E+03  0.54314588904E+03  0.40000000000E+03 0.  1.
   -9000007    1    1    2    0  502  0.69663200244E+02  0.23388931638E+03  0.10092562557E+04  0.11127242981E+04  0.40000000000E+03 0.  1.
<mgrwt>
<rscale>  2 0.46856928E+03</rscale>
<asrwt>0</asrwt>
<pdfrwt beam="1">  1       21 0.22613912E+00 0.46856928E+03</pdfrwt>
<pdfrwt beam="2">  1       21 0.28610138E-01 0.46856928E+03</pdfrwt>
<totfact> 0.88300092E+02</totfact>
</mgrwt>
</event>
<event>
 4    1  0.1147209E-002  0.4268172E+03  0.7818608E-02  0.1034870E+00
         21   -1    0    0  501  502  0.00000000000E+00  0.00000000000E+00  0.42698459065E+03  0.42698459065E+03  0.00000000000E+00 0.  1.
         21   -1    0    0  502  503 -0.00000000000E+00 -0.00000000000E+00 -0.44375761978E+03  0.44375761978E+03  0.00000000000E+00 0.  1.
    9000007    1    1    2  501    0 -0.13248777729E+03 -0.67970166073E+02  0.77096948806E+02  0.43372444492E+03  0.40000000000E+03 0.  1.
   -9000007    1    1    2    0  503  0.13248777729E+03  0.67970166073E+02 -0.93869977934E+02  0.43701776550E+03  0.40000000000E+03 0.  1.
<mgrwt>
<rscale>  2 0.42681724E+03</rscale>
<asrwt>0</asrwt>
<pdfrwt beam="1">  1       21 0.65689937E-01 0.42681724E+03</pdfrwt>
<pdfrwt beam="2">  1       21 0.68270403E-01 0.42681724E+03</pdfrwt>
<totfact> 0.36762348E+03</totfact>
</mgrwt>
</event>
<event>
 4    1  0.1147209E-002  0.4149023E+03  0.7818608E-02  0.1038738E+00
         21   -1    0    0  501  502  0.00000000000E+00  0.00000000000E+00  0.94838929988E+03  0.94838929988E+03  0.00000000000E+00 0.  1.
         21   -1    0    0  502  503 -0.00000000000E+00 -0.00000000000E+00 -0.18319511299E+03  0.18319511299E+03  0.00000000000E+00 0.  1.
    9000007    1    1    2  501    0 -0.61388556603E+02 -0.91516987438E+02  0.43683134132E+03  0.60246621037E+03  0.40000000000E+03 0.  1.
   -9000007    1    1    2    0  503  0.61388556603E+02  0.91516987438E+02  0.32836284557E+03  0.52911820251E+03  0.40000000000E+03 0.  1.
<mgrwt>
<rscale>  2 0.41490229E+03</rscale>
<asrwt>0</asrwt>
<pdfrwt beam="1">  1       21 0.14590604E+00 0.41490229E+03</pdfrwt>
<pdfrwt beam="2">  1       21 0.28183864E-01 0.41490229E+03</pdfrwt>
<totfact> 0.33912413E+03</totfact>
</mgrwt>
</event>
<event>
 4    1  0.1147209E-002  0.4977667E+03  0.7818608E-02  0.1014363E+00
         21   -1    0    0  503  502  0.00000000000E+00  0.00000000000E+00  0.32286301732E+03  0.32286301732E+03  0.00000000000E+00 0. -1.
         21   -1    0    0  501  503 -0.00000000000E+00 -0.00000000000E+00 -0.78598395546E+03  0.78598395546E+03  0.00000000000E+00 0. -1.
    9000007    1    1    2  501    0  0.29478797565E+03 -0.29525837607E+02 -0.14635583939E+03  0.51883692756E+03  0.40000000000E+03 0. -1.
   -9000007    1    1    2    0  502 -0.29478797565E+03  0.29525837607E+02 -0.31676509875E+03  0.59001004522E+03  0.40000000000E+03 0. -1.
<mgrwt>
<rscale>  2 0.49776674E+03</rscale>
<asrwt>0</asrwt>
<pdfrwt beam="1">  1       21 0.49671234E-01 0.49776674E+03</pdfrwt>
<pdfrwt beam="2">  1       21 0.12092061E+00 0.49776674E+03</pdfrwt>
<totfact> 0.16869956E+03</totfact>
</mgrwt>
</event>
<event>
 4    1  0.1147209E-002  0.4323910E+03  0.7818608E-02  0.1033107E+00
         21   -1    0    0  501  502  0.00000000000E+00  0.00000000000E+00  0.56690233323E+03  0.56690233323E+03  0.00000000000E+00 0. -1.
         21   -1    0    0  502  503 -0.00000000000E+00 -0.00000000000E+00 -0.36217366382E+03  0.36217366382E+03  0.00000000000E+00 0. -1.
    9000007    1    1    2  501    0 -0.52010497365E+02 -0.15574613623E+03  0.24125964749E+03  0.49514459332E+03  0.40000000000E+03 0. -1.
   -9000007    1    1    2    0  503  0.52010497365E+02  0.15574613623E+03 -0.36530978080E+02  0.43393140373E+03  0.40000000000E+03 0. -1.
<mgrwt>
<rscale>  2 0.43239097E+03</rscale>
<asrwt>0</asrwt>
<pdfrwt beam="1">  1       21 0.87215743E-01 0.43239097E+03</pdfrwt>
<pdfrwt beam="2">  1       21 0.55719025E-01 0.43239097E+03</pdfrwt>
<totfact> 0.30022996E+03</totfact>
</mgrwt>
</event>
<event>
 4    1  0.1147209E-002  0.4502378E+03  0.7818608E-02  0.1027651E+00
         21   -1    0    0  503  502  0.00000000000E+00  0.00000000000E+00  0.90677301411E+03  0.90677301411E+03  0.00000000000E+00 0.  1.
         21   -1    0    0  501  503 -0.00000000000E+00 -0.00000000000E+00 -0.26291754060E+03  0.26291754060E+03  0.00000000000E+00 0.  1.
    9000007    1    1    2  501    0  0.56481292281E+02  0.19880634461E+03  0.95635329724E+02  0.46028275584E+03  0.40000000000E+03 0.  1.
   -9000007    1    1    2    0  502 -0.56481292281E+02 -0.19880634461E+03  0.54822014378E+03  0.70940779886E+03  0.40000000000E+03 0.  1.
<mgrwt>
<rscale>  2 0.45023782E+03</rscale>
<asrwt>0</asrwt>
<pdfrwt beam="1">  1       21 0.13950354E+00 0.45023782E+03</pdfrwt>
<pdfrwt beam="2">  1       21 0.40448853E-01 0.45023782E+03</pdfrwt>
<totfact> 0.18210820E+03</totfact>
</mgrwt>
</event>
<event>
 4    1  0.1147209E-002  0.4157439E+03  0.7818608E-02  0.1038460E+00
         21   -1    0    0  501  502  0.00000000000E+00  0.00000000000E+00  0.54065728582E+03  0.54065728582E+03  0.00000000000E+00 0.  1.
         21   -1    0    0  502  503 -0.00000000000E+00 -0.00000000000E+00 -0.48447295181E+03  0.48447295181E+03  0.00000000000E+00 0.  1.
    9000007    1    1    2  501    0 -0.83737950928E+02  0.76360518790E+02  0.32702238656E+03  0.52894859350E+03  0.40000000000E+03 0.  1.
   -9000007    1    1    2    0  503  0.83737950928E+02 -0.76360518790E+02 -0.27083805255E+03  0.49618164413E+03  0.40000000000E+03 0.  1.
<mgrwt>
<rscale>  2 0.41574388E+03</rscale>
<asrwt>0</asrwt>
<pdfrwt beam="1">  1       21 0.83178044E-01 0.41574388E+03</pdfrwt>
<pdfrwt beam="2">  1       21 0.74534300E-01 0.41574388E+03</pdfrwt>
<totfact> 0.17713736E+03</totfact>
</mgrwt>
</event>
<event>
 4    1  0.1147209E-002  0.4189453E+03  0.7818608E-02  0.1037410E+00
         21   -1    0    0  501  502  0.00000000000E+00  0.00000000000E+00  0.56435199623E+03  0.56435199623E+03  0.00000000000E+00 0. -1.
         21   -1    0    0  502  503 -0.00000000000E+00 -0.00000000000E+00 -0.37664943220E+03  0.37664943220E+03  0.00000000000E+00 0. -1.
    9000007    1    1    2  501    0  0.81130280131E+02 -0.94514602402E+02  0.29027656014E+03  0.50968187508E+03  0.40000000000E+03 0. -1.
   -9000007    1    1    2    0  503 -0.81130280131E+02  0.94514602402E+02 -0.10257399611E+03  0.43131955335E+03  0.40000000000E+03 0. -1.
<mgrwt>
<rscale>  2 0.41894526E+03</rscale>
<asrwt>0</asrwt>
<pdfrwt beam="1">  1       21 0.86823384E-01 0.41894526E+03</pdfrwt>
<pdfrwt beam="2">  1       21 0.57946066E-01 0.41894526E+03</pdfrwt>
<totfact> 0.28012212E+03</totfact>
</mgrwt>
</event>
<event>
 4    1  0.1147209E-002  0.5203561E+03  0.7818608E-02  0.1008598E+00
         21   -1    0    0  501  502  0.00000000000E+00  0.00000000000E+00  0.30967767760E+03  0.30967767760E+03  0.00000000000E+00 0. -1.
         21   -1    0    0  502  503 -0.00000000000E+00 -0.00000000000E+00 -0.88578908008E+03  0.88578908008E+03  0.00000000000E+00 0.  1.
    9000007    1    1    2  501    0  0.30628226100E+03 -0.13023677704E+03 -0.35594589376E+03  0.63045056966E+03  0.40000000000E+03 0. -1.
   -9000007    1    1    2    0  503 -0.30628226100E+03  0.13023677704E+03 -0.22016550872E+03  0.56501618802E+03  0.40000000000E+03 0. -1.
<mgrwt>
<rscale>  2 0.52035607E+03</rscale>
<asrwt>0</asrwt>
<pdfrwt beam="1">  1       21 0.47642720E-01 0.52035607E+03</pdfrwt>
<pdfrwt beam="2">  1       21 0.13627524E+00 0.52035607E+03</pdfrwt>
<totfact> 0.13407494E+03</totfact>
</mgrwt>
</event>
<event>
 4    1  0.1147209E-002  0.4011982E+03  0.7818608E-02  0.1043366E+00
         21   -1    0    0  501  502  0.00000000000E+00  0.00000000000E+00  0.16415634624E+03  0.16415634624E+03  0.00000000000E+00 0. -1.
         21   -1    0    0  502  503 -0.00000000000E+00 -0.00000000000E+00 -0.11848327888E+04  0.11848327888E+04  0.00000000000E+00 0. -1.
    9000007    1    1    2  501    0  0.14944730801E+02 -0.27140760973E+02 -0.79042249914E+03  0.88641282314E+03  0.40000000000E+03 0.  1.
   -9000007    1    1    2    0  503 -0.14944730801E+02  0.27140760973E+02 -0.23025394346E+03  0.46257631194E+03  0.40000000000E+03 0.  1.
<mgrwt>
<rscale>  2 0.40119816E+03</rscale>
<asrwt>0</asrwt>
<pdfrwt beam="1">  1       21 0.25254822E-01 0.40119816E+03</pdfrwt>
<pdfrwt beam="2">  1       21 0.18228197E+00 0.40119816E+03</pdfrwt>
<totfact> 0.22685278E+03</totfact>
</mgrwt>
</event>
<event>
 4    1  0.1147209E-002  0.5629020E+03  0.7818608E-02  0.9985510E-01
         21   -1    0    0  503  502  0.00000000000E+00  0.00000000000E+00  0.76208751149E+03  0.76208751149E+03  0.00000000000E+00 0.  1.
         21   -1    0    0  501  503 -0.00000000000E+00 -0.00000000000E+00 -0.44900523884E+03  0.44900523884E+03  0.00000000000E+00 0. -1.
    9000007    1    1    2  501    0 -0.30101274438E+02  0.39490826497E+03 -0.81893383260E+01  0.56296153485E+03  0.40000000000E+03 0. -1.
   -9000007    1    1    2    0  502  0.30101274438E+02 -0.39490826497E+03  0.32127161098E+03  0.64813121548E+03  0.40000000000E+03 0.  1.
<mgrwt>
<rscale>  2 0.56290197E+03</rscale>
<asrwt>0</asrwt>
<pdfrwt beam="1">  1       21 0.11724423E+00 0.56290197E+03</pdfrwt>
<pdfrwt beam="2">  1       21 0.69077729E-01 0.56290197E+03</pdfrwt>
<totfact> 0.86651534E+02</totfact>
</mgrwt>
</event>
<event>
 4    1  0.1147209E-002  0.4904016E+03  0.7818608E-02  0.1016315E+00
         21   -1    0    0  503  502  0.00000000000E+00  0.00000000000E+00  0.24489784572E+03  0.24489784572E+03  0.00000000000E+00 0. -1.
         21   -1    0    0  501  503 -0.00000000000E+00 -0.00000000000E+00 -0.99489751495E+03  0.99489751495E+03  0.00000000000E+00 0. -1.
    9000007    1    1    2  501    0  0.23205597047E+02 -0.28276363432E+03 -0.30446516719E+03  0.57722856016E+03  0.40000000000E+03 0. -1.
   -9000007    1    1    2    0  502 -0.23205597047E+02  0.28276363432E+03 -0.44553450204E+03  0.66256680051E+03  0.40000000000E+03 0. -1.
<mgrwt>
<rscale>  2 0.49040164E+03</rscale>
<asrwt>0</asrwt>
<pdfrwt beam="1">  1       21 0.37676591E-01 0.49040164E+03</pdfrwt>
<pdfrwt beam="2">  1       21 0.15306116E+00 0.49040164E+03</pdfrwt>
<totfact> 0.16152483E+03</totfact>
</mgrwt>
</event>
<event>
 4    1  0.1147209E-002  0.4232140E+03  0.7818608E-02  0.1036025E+00
         21   -1    0    0  503  502  0.00000000000E+00  0.00000000000E+00  0.12808669267E+04  0.12808669267E+04  0.00000000000E+00 0. -1.
         21   -1    0    0  501  503 -0.00000000000E+00 -0.00000000000E+00 -0.19872737830E+03  0.19872737830E+03  0.00000000000E+00 0. -1.
    9000007    1    1    2  501    0 -0.10453969638E+03  0.90451673135E+02  0.13834043102E+03  0.44525063520E+03  0.40000000000E+03 0. -1.
   -9000007    1    1    2    0  502  0.10453969638E+03 -0.90451673135E+02  0.94379911738E+03  0.10343436698E+04  0.40000000000E+03 0. -1.
<mgrwt>
<rscale>  2 0.42321396E+03</rscale>
<asrwt>0</asrwt>
<pdfrwt beam="1">  1       21 0.19705645E+00 0.42321396E+03</pdfrwt>
<pdfrwt beam="2">  1       21 0.30573444E-01 0.42321396E+03</pdfrwt>
<totfact> 0.12224100E+03</totfact>
</mgrwt>
</event>
<event>
 4    1  0.1147209E-002  0.4166489E+03  0.7818608E-02  0.1038163E+00
         21   -1    0    0  503  502  0.00000000000E+00  0.00000000000E+00  0.12136002624E+03  0.12136002624E+03  0.00000000000E+00 0. -1.
         21   -1    0    0  501  503 -0.00000000000E+00 -0.00000000000E+00 -0.15590806689E+04  0.15590806689E+04  0.00000000000E+00 0. -1.
    9000007    1    1    2  501    0  0.94488091499E+02  0.68324818162E+02 -0.96022585081E+03  0.10467234424E+04  0.40000000000E+03 0. -1.
   -9000007    1    1    2    0  502 -0.94488091499E+02 -0.68324818162E+02 -0.47749479182E+03  0.63371725274E+03  0.40000000000E+03 0. -1.
<mgrwt>
<rscale>  2 0.41664887E+03</rscale>
<asrwt>0</asrwt>
<pdfrwt beam="1">  1       21 0.18670774E-01 0.41664887E+03</pdfrwt>
<pdfrwt beam="2">  1       21 0.23985856E+00 0.41664887E+03</pdfrwt>
<totfact> 0.16935257E+03</totfact>
</mgrwt>
</event>
<event>
 4    1  0.1147209E-002  0.4179959E+03  0.7818608E-02  0.1037721E+00
         21   -1    0    0  501  502  0.00000000000E+00  0.00000000000E+00  0.89251738126E+03  0.89251738126E+03  0.00000000000E+00 0. -1.
         21   -1    0    0  502  503 -0.00000000000E+00 -0.00000000000E+00 -0.21553883973E+03  0.21553883973E+03  0.00000000000E+00 0. -1.
    9000007    1    1    2  501    0  0.11941772641E+03  0.21446412735E+02  0.17066569933E+03  0.45149454363E+03  0.40000000000E+03 0. -1.
   -9000007    1    1    2    0  503 -0.11941772641E+03 -0.21446412735E+02  0.50631284220E+03  0.65656167736E+03  0.40000000000E+03 0. -1.
<mgrwt>
<rscale>  2 0.41799586E+03</rscale>
<asrwt>0</asrwt>
<pdfrwt beam="1">  1       21 0.13731036E+00 0.41799586E+03</pdfrwt>
<pdfrwt beam="2">  1       21 0.33159822E-01 0.41799586E+03</pdfrwt>
<totfact> 0.28818952E+03</totfact>
</mgrwt>
</event>
<event>
 4    1  0.1147209E-002  0.4559796E+03  0.7818608E-02  0.1025954E+00
         21   -1    0    0  501  502  0.00000000000E+00  0.00000000000E+00  0.18694689527E+03  0.18694689527E+03  0.00000000000E+00 0.  1.
         21   -1    0    0  502  503 -0.00000000000E+00 -0.00000000000E+00 -0.11130321329E+04  0.11130321329E+04  0.00000000000E+00 0. -1.
    9000007    1    1    2  501    0  0.11251661390E+03 -0.18776944066E+03 -0.48109768058E+03  0.66285166479E+03  0.40000000000E+03 0. -1.
   -9000007    1    1    2    0  503 -0.11251661390E+03  0.18776944066E+03 -0.44498755706E+03  0.63712736340E+03  0.40000000000E+03 0. -1.
<mgrwt>
<rscale>  2 0.45597955E+03</rscale>
<asrwt>0</asrwt>
<pdfrwt beam="1">  1       21 0.28761060E-01 0.45597955E+03</pdfrwt>
<pdfrwt beam="2">  1       21 0.17123572E+00 0.45597955E+03</pdfrwt>
<totfact> 0.20577264E+03</totfact>
</mgrwt>
</event>
<event>
 4    1  0.1147209E-002  0.4145533E+03  0.7818608E-02  0.1038854E+00
         21   -1    0    0  503  502  0.00000000000E+00  0.00000000000E+00  0.25758292084E+03  0.25758292084E+03  0.00000000000E+00 0.  1.
         21   -1    0    0  501  503 -0.00000000000E+00 -0.00000000000E+00 -0.73033449070E+03  0.73033449070E+03  0.00000000000E+00 0.  1.
    9000007    1    1    2  501    0 -0.89079556834E+02  0.62603893856E+02 -0.91121608341E+02  0.42444971726E+03  0.40000000000E+03 0.  1.
   -9000007    1    1    2    0  502  0.89079556834E+02 -0.62603893856E+02 -0.38162996152E+03  0.56346769429E+03  0.40000000000E+03 0.  1.
<mgrwt>
<rscale>  2 0.41455327E+03</rscale>
<asrwt>0</asrwt>
<pdfrwt beam="1">  1       21 0.39628142E-01 0.41455327E+03</pdfrwt>
<pdfrwt beam="2">  1       21 0.11235915E+00 0.41455327E+03</pdfrwt>
<totfact> 0.33564525E+03</totfact>
</mgrwt>
</event>
<event>
 4    1  0.1147209E-002  0.4646007E+03  0.7818608E-02  0.1023455E+00
         21   -1    0    0  503  502  0.00000000000E+00  0.00000000000E+00  0.22533767270E+03  0.22533767270E+03  0.00000000000E+00 0.  1.
         21   -1    0    0  501  503 -0.00000000000E+00 -0.00000000000E+00 -0.10137048961E+04  0.10137048961E+04  0.00000000000E+00 0.  1.
    9000007    1    1    2  501    0  0.11336206541E+03 -0.20737119397E+03 -0.24884265133E+03  0.52704500290E+03  0.40000000000E+03 0.  1.
   -9000007    1    1    2    0  502 -0.11336206541E+03  0.20737119397E+03 -0.53952457202E+03  0.71199756585E+03  0.40000000000E+03 0.  1.
<mgrwt>
<rscale>  2 0.46460066E+03</rscale>
<asrwt>0</asrwt>
<pdfrwt beam="1">  1       21 0.34667334E-01 0.46460066E+03</pdfrwt>
<pdfrwt beam="2">  1       21 0.15595460E+00 0.46460066E+03</pdfrwt>
<totfact> 0.18354224E+03</totfact>
</mgrwt>
</event>
<event>
 4    1  0.1147209E-002  0.4044196E+03  0.7818608E-02  0.1042260E+00
         21   -1    0    0  501  502  0.00000000000E+00  0.00000000000E+00  0.12310953717E+03  0.12310953717E+03  0.00000000000E+00 0.  1.
         21   -1    0    0  502  503 -0.00000000000E+00 -0.00000000000E+00 -0.13799465179E+04  0.13799465179E+04  0.00000000000E+00 0.  1.
    9000007    1    1    2  501    0  0.58215221432E+02 -0.12892634518E+02 -0.77347846363E+03  0.87282539246E+03  0.40000000000E+03 0. -1.
   -9000007    1    1    2    0  503 -0.58215221432E+02  0.12892634518E+02 -0.48335851706E+03  0.63023066257E+03  0.40000000000E+03 0. -1.
<mgrwt>
<rscale>  2 0.40441962E+03</rscale>
<asrwt>0</asrwt>
<pdfrwt beam="1">  1       21 0.18939929E-01 0.40441962E+03</pdfrwt>
<pdfrwt beam="2">  1       21 0.21229946E+00 0.40441962E+03</pdfrwt>
<totfact> 0.24751531E+03</totfact>
</mgrwt>
</event>
<event>
 4    1  0.1147209E-002  0.4306899E+03  0.7818608E-02  0.1033642E+00
         21   -1    0    0  503  502  0.00000000000E+00  0.00000000000E+00  0.18938898755E+04  0.18938898755E+04  0.00000000000E+00 0.  1.
         21   -1    0    0  501  503 -0.00000000000E+00 -0.00000000000E+00 -0.12476161896E+03  0.12476161896E+03  0.00000000000E+00 0. -1.
    9000007    1    1    2  501    0 -0.14731123498E+03 -0.61589129221E+02  0.41660638090E+03  0.59921173003E+03  0.40000000000E+03 0. -1.
   -9000007    1    1    2    0  502  0.14731123498E+03  0.61589129221E+02  0.13525218756E+04  0.14194397644E+04  0.40000000000E+03 0.  1.
<mgrwt>
<rscale>  2 0.43068994E+03</rscale>
<asrwt>0</asrwt>
<pdfrwt beam="1">  1       21 0.29136765E+00 0.43068994E+03</pdfrwt>
<pdfrwt beam="2">  1       21 0.19194097E-01 0.43068994E+03</pdfrwt>
<totfact> 0.77701625E+02</totfact>
</mgrwt>
</event>
<event>
 4    1  0.1147209E-002  0.4091521E+03  0.7818608E-02  0.1040656E+00
         21   -1    0    0  501  502  0.00000000000E+00  0.00000000000E+00  0.30376471314E+03  0.30376471314E+03  0.00000000000E+00 0.  1.
         21   -1    0    0  502  503 -0.00000000000E+00 -0.00000000000E+00 -0.57073987156E+03  0.57073987156E+03  0.00000000000E+00 0.  1.
    9000007    1    1    2  501    0  0.84769344671E+02 -0.14817818949E+02 -0.21459445977E+03  0.46201319431E+03  0.40000000000E+03 0.  1.
   -9000007    1    1    2    0  503 -0.84769344671E+02  0.14817818949E+02 -0.52380698645E+02  0.41249139039E+03  0.40000000000E+03 0.  1.
<mgrwt>
<rscale>  2 0.40915206E+03</rscale>
<asrwt>0</asrwt>
<pdfrwt beam="1">  1       21 0.46733033E-01 0.40915206E+03</pdfrwt>
<pdfrwt beam="2">  1       21 0.87806134E-01 0.40915206E+03</pdfrwt>
<totfact> 0.43356232E+03</totfact>
</mgrwt>
</event>
<event>
 4    1  0.1147209E-002  0.4846376E+03  0.7818608E-02  0.1017868E+00
         21   -1    0    0  503  502  0.00000000000E+00  0.00000000000E+00  0.63488455548E+03  0.63488455548E+03  0.00000000000E+00 0. -1.
         21   -1    0    0  501  503 -0.00000000000E+00 -0.00000000000E+00 -0.50160706719E+03  0.50160706719E+03  0.00000000000E+00 0. -1.
    9000007    1    1    2  501    0 -0.24811644744E+03  0.11537676413E+03  0.35776517175E+03  0.60238649330E+03  0.40000000000E+03 0. -1.
   -9000007    1    1    2    0  502  0.24811644744E+03 -0.11537676413E+03 -0.22448768346E+03  0.53410512937E+03  0.40000000000E+03 0. -1.
<mgrwt>
<rscale>  2 0.48463756E+03</rscale>
<asrwt>0</asrwt>
<pdfrwt beam="1">  1       21 0.97674547E-01 0.48463756E+03</pdfrwt>
<pdfrwt beam="2">  1       21 0.77170318E-01 0.48463756E+03</pdfrwt>
<totfact> 0.10880157E+03</totfact>
</mgrwt>
</event>
<event>
 4    1  0.1147209E-002  0.4759245E+03  0.7818608E-02  0.1020261E+00
         21   -1    0    0  501  502  0.00000000000E+00  0.00000000000E+00  0.10250024361E+04  0.10250024361E+04  0.00000000000E+00 0. -1.
         21   -1    0    0  502  503 -0.00000000000E+00 -0.00000000000E+00 -0.24528643431E+03  0.24528643431E+03  0.00000000000E+00 0. -1.
    9000007    1    1    2  501    0  0.18480510297E+03  0.17986449289E+03  0.18991601652E+03  0.51241804732E+03  0.40000000000E+03 0. -1.
   -9000007    1    1    2    0  503 -0.18480510297E+03 -0.17986449289E+03  0.58979998530E+03  0.75787082313E+03  0.40000000000E+03 0. -1.
<mgrwt>
<rscale>  2 0.47592453E+03</rscale>
<asrwt>0</asrwt>
<pdfrwt beam="1">  1       21 0.15769268E+00 0.47592453E+03</pdfrwt>
<pdfrwt beam="2">  1       21 0.37736375E-01 0.47592453E+03</pdfrwt>
<totfact> 0.14911785E+03</totfact>
</mgrwt>
</event>
<event>
 4    1  0.1147209E-002  0.1036442E+04  0.7818608E-02  0.9269454E-01
         21   -1    0    0  501  502  0.00000000000E+00  0.00000000000E+00  0.19363993188E+04  0.19363993188E+04  0.00000000000E+00 0. -1.
         21   -1    0    0  502  503 -0.00000000000E+00 -0.00000000000E+00 -0.74721822700E+03  0.74721822700E+03  0.00000000000E+00 0.  1.
    9000007    1    1    2  501    0  0.15091598015E+03  0.94415945620E+03  0.12755938576E+04  0.16435791437E+04  0.40000000000E+03 0.  1.
   -9000007    1    1    2    0  503 -0.15091598015E+03 -0.94415945620E+03 -0.86412765866E+02  0.10400384021E+04  0.40000000000E+03 0. -1.
<mgrwt>
<rscale>  2 0.10364423E+04</rscale>
<asrwt>0</asrwt>
<pdfrwt beam="1">  1       21 0.29790759E+00 0.10364423E+04</pdfrwt>
<pdfrwt beam="2">  1       21 0.11495665E+00 0.10364423E+04</pdfrwt>
<totfact> 0.11687138E+01</totfact>
</mgrwt>
</event>
<event>
 4    1  0.1147209E-002  0.4133569E+03  0.7818608E-02  0.1039250E+00
         21   -1    0    0  501  502  0.00000000000E+00  0.00000000000E+00  0.22385062985E+03  0.22385062985E+03  0.00000000000E+00 0. -1.
         21   -1    0    0  502  503 -0.00000000000E+00 -0.00000000000E+00 -0.80530229647E+03  0.80530229647E+03  0.00000000000E+00 0. -1.
    9000007    1    1    2  501    0 -0.91613452232E+02 -0.49707964423E+02 -0.17319914108E+03  0.44817613594E+03  0.40000000000E+03 0. -1.
   -9000007    1    1    2    0  503  0.91613452232E+02  0.49707964423E+02 -0.40825252553E+03  0.58097679038E+03  0.40000000000E+03 0. -1.
<mgrwt>
<rscale>  2 0.41335688E+03</rscale>
<asrwt>0</asrwt>
<pdfrwt beam="1">  1       21 0.34438558E-01 0.41335688E+03</pdfrwt>
<pdfrwt beam="2">  1       21 0.12389266E+00 0.41335688E+03</pdfrwt>
<totfact> 0.34925035E+03</totfact>
</mgrwt>
</event>
<event>
 4    1  0.1147209E-002  0.4062660E+03  0.7818608E-02  0.1041631E+00
         21   -1    0    0  501  502  0.00000000000E+00  0.00000000000E+00  0.18199757322E+04  0.18199757322E+04  0.00000000000E+00 0.  1.
         21   -1    0    0  502  503 -0.00000000000E+00 -0.00000000000E+00 -0.10872831289E+03  0.10872831289E+03  0.00000000000E+00 0.  1.
    9000007    1    1    2  501    0 -0.36039950845E+02  0.61263498486E+02  0.12484243458E+04  0.13128653554E+04  0.40000000000E+03 0.  1.
   -9000007    1    1    2    0  503  0.36039950845E+02 -0.61263498486E+02  0.46282307347E+03  0.61583868962E+03  0.40000000000E+03 0.  1.
<mgrwt>
<rscale>  2 0.40626604E+03</rscale>
<asrwt>0</asrwt>
<pdfrwt beam="1">  1       21 0.27999624E+00 0.40626604E+03</pdfrwt>
<pdfrwt beam="2">  1       21 0.16727434E-01 0.40626604E+03</pdfrwt>
<totfact> 0.11939994E+03</totfact>
</mgrwt>
</event>
<event>
 4    1  0.1147209E-002  0.4866417E+03  0.7818608E-02  0.1017326E+00
         21   -1    0    0  501  502  0.00000000000E+00  0.00000000000E+00  0.10550332429E+04  0.10550332429E+04  0.00000000000E+00 0.  1.
         21   -1    0    0  502  503 -0.00000000000E+00 -0.00000000000E+00 -0.27406003970E+03  0.27406003970E+03  0.00000000000E+00 0. -1.
    9000007    1    1    2  501    0 -0.27671838368E+03  0.15718119528E+02  0.67317831109E+03  0.83065586235E+03  0.40000000000E+03 0.  1.
   -9000007    1    1    2    0  503  0.27671838368E+03 -0.15718119528E+02  0.10779489212E+03  0.49843742026E+03  0.40000000000E+03 0. -1.
<mgrwt>
<rscale>  2 0.48664168E+03</rscale>
<asrwt>0</asrwt>
<pdfrwt beam="1">  1       21 0.16231280E+00 0.48664168E+03</pdfrwt>
<pdfrwt beam="2">  1       21 0.42163084E-01 0.48664168E+03</pdfrwt>
<totfact> 0.10896718E+03</totfact>
</mgrwt>
</event>
<event>
 4    1  0.1147209E-002  0.4096652E+03  0.7818608E-02  0.1040483E+00
         21   -1    0    0  501  502  0.00000000000E+00  0.00000000000E+00  0.31240843535E+03  0.31240843535E+03  0.00000000000E+00 0. -1.
         21   -1    0    0  502  503 -0.00000000000E+00 -0.00000000000E+00 -0.54621036256E+03  0.54621036256E+03  0.00000000000E+00 0. -1.
    9000007    1    1    2  501    0 -0.31224120423E+02 -0.82768721089E+02 -0.61759620067E+02  0.41429440928E+03  0.40000000000E+03 0. -1.
   -9000007    1    1    2    0  503  0.31224120423E+02  0.82768721089E+02 -0.17204230714E+03  0.44432438863E+03  0.40000000000E+03 0. -1.
<mgrwt>
<rscale>  2 0.40966524E+03</rscale>
<asrwt>0</asrwt>
<pdfrwt beam="1">  1       21 0.48062837E-01 0.40966524E+03</pdfrwt>
<pdfrwt beam="2">  1       21 0.84032363E-01 0.40966524E+03</pdfrwt>
<totfact> 0.45283537E+03</totfact>
</mgrwt>
</event>
<event>
 4    1  0.1147209E-002  0.5650763E+03  0.7818608E-02  0.9980634E-01
         21   -1    0    0  503  502  0.00000000000E+00  0.00000000000E+00  0.14386358388E+04  0.14386358388E+04  0.00000000000E+00 0.  1.
         21   -1    0    0  501  503 -0.00000000000E+00 -0.00000000000E+00 -0.31118242727E+03  0.31118242727E+03  0.00000000000E+00 0.  1.
    9000007    1    1    2  501    0  0.38091974874E+03 -0.11921134492E+03  0.95229868148E+02  0.57304443766E+03  0.40000000000E+03 0.  1.
   -9000007    1    1    2    0  502 -0.38091974874E+03  0.11921134492E+03  0.10322235434E+04  0.11767738284E+04  0.40000000000E+03 0.  1.
<mgrwt>
<rscale>  2 0.56507628E+03</rscale>
<asrwt>0</asrwt>
<pdfrwt beam="1">  1       21 0.22132859E+00 0.56507628E+03</pdfrwt>
<pdfrwt beam="2">  1       21 0.47874220E-01 0.56507628E+03</pdfrwt>
<totfact> 0.31681826E+02</totfact>
</mgrwt>
</event>
<event>
 4    1  0.1147209E-002  0.4183126E+03  0.7818608E-02  0.1037617E+00
         21   -1    0    0  503  502  0.00000000000E+00  0.00000000000E+00  0.88169353498E+03  0.88169353498E+03  0.00000000000E+00 0. -1.
         21   -1    0    0  501  503 -0.00000000000E+00 -0.00000000000E+00 -0.20443102284E+03  0.20443102284E+03  0.00000000000E+00 0.  1.
    9000007    1    1    2  501    0  0.11971234289E+03 -0.25581246274E+02  0.24586009221E+03  0.48521400448E+03  0.40000000000E+03 0.  1.
   -9000007    1    1    2    0  502 -0.11971234289E+03  0.25581246274E+02  0.43140241993E+03  0.60091055334E+03  0.40000000000E+03 0. -1.
<mgrwt>
<rscale>  2 0.41831262E+03</rscale>
<asrwt>0</asrwt>
<pdfrwt beam="1">  1       21 0.13564516E+00 0.41831262E+03</pdfrwt>
<pdfrwt beam="2">  1       21 0.31450927E-01 0.41831262E+03</pdfrwt>
<totfact> 0.33076239E+03</totfact>
</mgrwt>
</event>
<event>
 4    1  0.1147209E-002  0.8997431E+03  0.7818608E-02  0.9425903E-01
         21   -1    0    0  501  502  0.00000000000E+00  0.00000000000E+00  0.20465751957E+04  0.20465751957E+04  0.00000000000E+00 0. -1.
         21   -1    0    0  502  503 -0.00000000000E+00 -0.00000000000E+00 -0.69439764467E+03  0.69439764467E+03  0.00000000000E+00 0.  1.
    9000007    1    1    2  501    0  0.30639901025E+03  0.74542429121E+03  0.15751520185E+04  0.18140125713E+04  0.40000000000E+03 0. -1.
   -9000007    1    1    2    0  503 -0.30639901025E+03 -0.74542429121E+03 -0.22297446742E+03  0.92696026912E+03  0.40000000000E+03 0.  1.
<mgrwt>
<rscale>  2 0.89974315E+03</rscale>
<asrwt>0</asrwt>
<pdfrwt beam="1">  1       21 0.31485772E+00 0.89974315E+03</pdfrwt>
<pdfrwt beam="2">  1       21 0.10683041E+00 0.89974315E+03</pdfrwt>
<totfact> 0.11544257E+01</totfact>
</mgrwt>
</event>
<event>
 4    1  0.1147209E-002  0.4731945E+03  0.7818608E-02  0.1021022E+00
         21   -1    0    0  501  502  0.00000000000E+00  0.00000000000E+00  0.84454102035E+03  0.84454102035E+03  0.00000000000E+00 0.  1.
         21   -1    0    0  502  503 -0.00000000000E+00 -0.00000000000E+00 -0.31473437916E+03  0.31473437916E+03  0.00000000000E+00 0.  1.
    9000007    1    1    2  501    0 -0.24991505696E+03  0.38150541069E+02  0.49501855802E+03  0.68480389329E+03  0.40000000000E+03 0.  1.
   -9000007    1    1    2    0  503  0.24991505696E+03 -0.38150541069E+02  0.34788083165E+02  0.47447150621E+03  0.40000000000E+03 0.  1.
<mgrwt>
<rscale>  2 0.47319446E+03</rscale>
<asrwt>0</asrwt>
<pdfrwt beam="1">  1       21 0.12992939E+00 0.47319446E+03</pdfrwt>
<pdfrwt beam="2">  1       21 0.48420674E-01 0.47319446E+03</pdfrwt>
<totfact> 0.14930849E+03</totfact>
</mgrwt>
</event>
<event>
 4    1  0.1147209E-002  0.5274871E+03  0.7818608E-02  0.1006843E+00
         21   -1    0    0  501  502  0.00000000000E+00  0.00000000000E+00  0.99359784681E+03  0.99359784681E+03  0.00000000000E+00 0.  1.
         21   -1    0    0  502  503 -0.00000000000E+00 -0.00000000000E+00 -0.37419581695E+03  0.37419581695E+03  0.00000000000E+00 0.  1.
    9000007    1    1    2  501    0 -0.33312440254E+03 -0.85269119331E+02  0.65276492733E+03  0.83925248920E+03  0.40000000000E+03 0.  1.
   -9000007    1    1    2    0  503  0.33312440254E+03  0.85269119331E+02 -0.33362897465E+02  0.52854117456E+03  0.40000000000E+03 0.  1.
<mgrwt>
<rscale>  2 0.52748715E+03</rscale>
<asrwt>0</asrwt>
<pdfrwt beam="1">  1       21 0.15286121E+00 0.52748715E+03</pdfrwt>
<pdfrwt beam="2">  1       21 0.57568587E-01 0.52748715E+03</pdfrwt>
<totfact> 0.65304529E+02</totfact>
</mgrwt>
</event>
<event>
 4    1  0.1147209E-002  0.5747249E+03  0.7818608E-02  0.9959277E-01
         21   -1    0    0  503  502  0.00000000000E+00  0.00000000000E+00  0.21133985023E+04  0.21133985023E+04  0.00000000000E+00 0. -1.
         21   -1    0    0  501  503 -0.00000000000E+00 -0.00000000000E+00 -0.15863500330E+03  0.15863500330E+03  0.00000000000E+00 0.  1.
    9000007    1    1    2  501    0 -0.19934225575E+03 -0.36134658373E+03  0.11154233045E+04  0.12547819877E+04  0.40000000000E+03 0.  1.
   -9000007    1    1    2    0  502  0.19934225575E+03  0.36134658373E+03  0.83934019451E+03  0.10172515179E+04  0.40000000000E+03 0.  1.
<mgrwt>
<rscale>  2 0.57472488E+03</rscale>
<asrwt>0</asrwt>
<pdfrwt beam="1">  1       21 0.32513821E+00 0.57472488E+03</pdfrwt>
<pdfrwt beam="2">  1       21 0.24405387E-01 0.57472488E+03</pdfrwt>
<totfact> 0.28403349E+02</totfact>
</mgrwt>
</event>
<event>
 4    1  0.1147209E-002  0.4563613E+03  0.7818608E-02  0.1025842E+00
         21   -1    0    0  503  502  0.00000000000E+00  0.00000000000E+00  0.21429528081E+03  0.21429528081E+03  0.00000000000E+00 0.  1.
         21   -1    0    0  501  503 -0.00000000000E+00 -0.00000000000E+00 -0.99767943389E+03  0.99767943389E+03  0.00000000000E+00 0.  1.
    9000007    1    1    2  501    0  0.74747894320E+02 -0.20658758631E+03 -0.48917201277E+03  0.66899546830E+03  0.40000000000E+03 0.  1.
   -9000007    1    1    2    0  502 -0.74747894320E+02  0.20658758631E+03 -0.29421214031E+03  0.54297924641E+03  0.40000000000E+03 0.  1.
<mgrwt>
<rscale>  2 0.45636135E+03</rscale>
<asrwt>0</asrwt>
<pdfrwt beam="1">  1       21 0.32968505E-01 0.45636135E+03</pdfrwt>
<pdfrwt beam="2">  1       21 0.15348914E+00 0.45636135E+03</pdfrwt>
<totfact> 0.21288681E+03</totfact>
</mgrwt>
</event>
<event>
 4    1  0.1147209E-002  0.5988138E+03  0.7818608E-02  0.9907870E-01
         21   -1    0    0  501  502  0.00000000000E+00  0.00000000000E+00  0.78489331221E+03  0.78489331221E+03  0.00000000000E+00 0.  1.
         21   -1    0    0  502  503 -0.00000000000E+00 -0.00000000000E+00 -0.49254469947E+03  0.49254469947E+03  0.00000000000E+00 0. -1.
    9000007    1    1    2  501    0 -0.24975536256E+03  0.36905307359E+03 -0.25772260812E+02  0.59936810199E+03  0.40000000000E+03 0. -1.
   -9000007    1    1    2    0  503  0.24975536256E+03 -0.36905307359E+03  0.31812087355E+03  0.67806990970E+03  0.40000000000E+03 0.  1.
<mgrwt>
<rscale>  2 0.59881375E+03</rscale>
<asrwt>0</asrwt>
<pdfrwt beam="1">  1       21 0.12075282E+00 0.59881375E+03</pdfrwt>
<pdfrwt beam="2">  1       21 0.75776108E-01 0.59881375E+03</pdfrwt>
<totfact> 0.64316696E+02</totfact>
</mgrwt>
</event>
<event>
 4    1  0.1147209E-002  0.4287232E+03  0.7818608E-02  0.1034264E+00
         21   -1    0    0  501  502  0.00000000000E+00  0.00000000000E+00  0.19291913578E+03  0.19291913578E+03  0.00000000000E+00 0.  1.
         21   -1    0    0  502  503 -0.00000000000E+00 -0.00000000000E+00 -0.10308185203E+04  0.10308185203E+04  0.00000000000E+00 0.  1.
    9000007    1    1    2  501    0  0.64642698418E+02  0.14008883592E+03 -0.25056317906E+03  0.49657372776E+03  0.40000000000E+03 0.  1.
   -9000007    1    1    2    0  503 -0.64642698418E+02 -0.14008883592E+03 -0.58733620548E+03  0.72716392833E+03  0.40000000000E+03 0.  1.
<mgrwt>
<rscale>  2 0.42872317E+03</rscale>
<asrwt>0</asrwt>
<pdfrwt beam="1">  1       21 0.29679868E-01 0.42872317E+03</pdfrwt>
<pdfrwt beam="2">  1       21 0.15858746E+00 0.42872317E+03</pdfrwt>
<totfact> 0.24261630E+03</totfact>
</mgrwt>
</event>
<event>
 4    1  0.1147209E-002  0.4828483E+03  0.7818608E-02  0.1018355E+00
         21   -1    0    0  503  502  0.00000000000E+00  0.00000000000E+00  0.27040848480E+03  0.27040848480E+03  0.00000000000E+00 0. -1.
         21   -1    0    0  501  503 -0.00000000000E+00 -0.00000000000E+00 -0.88103697126E+03  0.88103697126E+03  0.00000000000E+00 0.  1.
    9000007    1    1    2  501    0  0.26024377442E+03 -0.73590887047E+02 -0.22110071619E+03  0.53106305415E+03  0.40000000000E+03 0. -1.
   -9000007    1    1    2    0  502 -0.26024377442E+03  0.73590887047E+02 -0.38952777027E+03  0.62038240191E+03  0.40000000000E+03 0.  1.
<mgrwt>
<rscale>  2 0.48284826E+03</rscale>
<asrwt>0</asrwt>
<pdfrwt beam="1">  1       21 0.41601306E-01 0.48284826E+03</pdfrwt>
<pdfrwt beam="2">  1       21 0.13554415E+00 0.48284826E+03</pdfrwt>
<totfact> 0.18312898E+03</totfact>
</mgrwt>
</event>
<event>
 4    1  0.1147209E-002  0.4422877E+03  0.7818608E-02  0.1030047E+00
         21   -1    0    0  501  502  0.00000000000E+00  0.00000000000E+00  0.13471895718E+04  0.13471895718E+04  0.00000000000E+00 0. -1.
         21   -1    0    0  502  503 -0.00000000000E+00 -0.00000000000E+00 -0.14621919882E+03  0.14621919882E+03  0.00000000000E+00 0. -1.
    9000007    1    1    2  501    0 -0.14757725795E+03  0.11764089576E+03  0.53829164393E+03  0.69668954445E+03  0.40000000000E+03 0. -1.
   -9000007    1    1    2    0  503  0.14757725795E+03 -0.11764089576E+03  0.66267872908E+03  0.79671922620E+03  0.40000000000E+03 0. -1.
<mgrwt>
<rscale>  2 0.44228772E+03</rscale>
<asrwt>0</asrwt>
<pdfrwt beam="1">  1       21 0.20725993E+00 0.44228772E+03</pdfrwt>
<pdfrwt beam="2">  1       21 0.22495262E-01 0.44228772E+03</pdfrwt>
<totfact> 0.18896695E+03</totfact>
</mgrwt>
</event>
<event>
 4    1  0.1147209E-002  0.4424341E+03  0.7818608E-02  0.1030003E+00
         21   -1    0    0  503  502  0.00000000000E+00  0.00000000000E+00  0.14999212364E+04  0.14999212364E+04  0.00000000000E+00 0.  1.
         21   -1    0    0  501  503 -0.00000000000E+00 -0.00000000000E+00 -0.14511936551E+03  0.14511936551E+03  0.00000000000E+00 0.  1.
    9000007    1    1    2  501    0  0.61227256115E+02  0.17888311384E+03  0.41638516550E+03  0.60755621251E+03  0.40000000000E+03 0.  1.
   -9000007    1    1    2    0  502 -0.61227256115E+02 -0.17888311384E+03  0.93841670542E+03  0.10374843894E+04  0.40000000000E+03 0.  1.
<mgrwt>
<rscale>  2 0.44243411E+03</rscale>
<asrwt>0</asrwt>
<pdfrwt beam="1">  1       21 0.23075710E+00 0.44243411E+03</pdfrwt>
<pdfrwt beam="2">  1       21 0.22326057E-01 0.44243411E+03</pdfrwt>
<totfact> 0.13555872E+03</totfact>
</mgrwt>
</event>
<event>
 4    1  0.1147209E-002  0.4191073E+03  0.7818608E-02  0.1037357E+00
         21   -1    0    0  503  502  0.00000000000E+00  0.00000000000E+00  0.16561524471E+03  0.16561524471E+03  0.00000000000E+00 0. -1.
         21   -1    0    0  501  503 -0.00000000000E+00 -0.00000000000E+00 -0.11113769493E+04  0.11113769493E+04  0.00000000000E+00 0.  1.
    9000007    1    1    2  501    0 -0.94995572266E+02 -0.81404842236E+02 -0.33639837302E+03  0.53741489788E+03  0.40000000000E+03 0. -1.
   -9000007    1    1    2    0  502  0.94995572266E+02  0.81404842236E+02 -0.60936333155E+03  0.73957729612E+03  0.40000000000E+03 0. -1.
<mgrwt>
<rscale>  2 0.41910727E+03</rscale>
<asrwt>0</asrwt>
<pdfrwt beam="1">  1       21 0.25479268E-01 0.41910727E+03</pdfrwt>
<pdfrwt beam="2">  1       21 0.17098107E+00 0.41910727E+03</pdfrwt>
<totfact> 0.26611078E+03</totfact>
</mgrwt>
</event>
<event>
 4    1  0.1147209E-002  0.4598941E+03  0.7818608E-02  0.1024812E+00
         21   -1    0    0  503  502  0.00000000000E+00  0.00000000000E+00  0.67259138873E+03  0.67259138873E+03  0.00000000000E+00 0.  1.
         21   -1    0    0  501  503 -0.00000000000E+00 -0.00000000000E+00 -0.31461642336E+03  0.31461642336E+03  0.00000000000E+00 0.  1.
    9000007    1    1    2  501    0  0.41395090415E+02  0.22313449101E+03  0.19002158647E+03  0.49760502199E+03  0.40000000000E+03 0.  1.
   -9000007    1    1    2    0  502 -0.41395090415E+02 -0.22313449101E+03  0.16795337889E+03  0.48960279009E+03  0.40000000000E+03 0.  1.
<mgrwt>
<rscale>  2 0.45989407E+03</rscale>
<asrwt>0</asrwt>
<pdfrwt beam="1">  1       21 0.10347560E+00 0.45989407E+03</pdfrwt>
<pdfrwt beam="2">  1       21 0.48402527E-01 0.45989407E+03</pdfrwt>
<totfact> 0.26655614E+03</totfact>
</mgrwt>
</event>
<event>
 4    1  0.1147209E-002  0.4614746E+03  0.7818608E-02  0.1024354E+00
         21   -1    0    0  503  502  0.00000000000E+00  0.00000000000E+00  0.74703761529E+03  0.74703761529E+03  0.00000000000E+00 0.  1.
         21   -1    0    0  501  503 -0.00000000000E+00 -0.00000000000E+00 -0.31611417991E+03  0.31611417991E+03  0.00000000000E+00 0.  1.
    9000007    1    1    2  501    0  0.89868584271E+02  0.21185487830E+03  0.48880691482E+02  0.46405621847E+03  0.40000000000E+03 0.  1.
   -9000007    1    1    2    0  502 -0.89868584271E+02 -0.21185487830E+03  0.38204274389E+03  0.59909557673E+03  0.40000000000E+03 0.  1.
<mgrwt>
<rscale>  2 0.46147465E+03</rscale>
<asrwt>0</asrwt>
<pdfrwt beam="1">  1       21 0.11492886E+00 0.46147465E+03</pdfrwt>
<pdfrwt beam="2">  1       21 0.48632951E-01 0.46147465E+03</pdfrwt>
<totfact> 0.20329973E+03</totfact>
</mgrwt>
</event>
<event>
 4    1  0.1147209E-002  0.8586359E+03  0.7818608E-02  0.9478819E-01
         21   -1    0    0  503  502  0.00000000000E+00  0.00000000000E+00  0.66604297383E+03  0.66604297383E+03  0.00000000000E+00 0. -1.
         21   -1    0    0  501  503 -0.00000000000E+00 -0.00000000000E+00 -0.11073899289E+04  0.11073899289E+04  0.00000000000E+00 0.  1.
    9000007    1    1    2  501    0  0.35304029014E+03 -0.67276900906E+03 -0.20238668921E+03  0.88216549354E+03  0.40000000000E+03 0. -1.
   -9000007    1    1    2    0  502 -0.35304029014E+03  0.67276900906E+03 -0.23896026585E+03  0.89126740918E+03  0.40000000000E+03 0.  1.
<mgrwt>
<rscale>  2 0.85863589E+03</rscale>
<asrwt>0</asrwt>
<pdfrwt beam="1">  1       21 0.10246815E+00 0.85863589E+03</pdfrwt>
<pdfrwt beam="2">  1       21 0.17036768E+00 0.85863589E+03</pdfrwt>
<totfact> 0.11345093E+02</totfact>
</mgrwt>
</event>
<event>
 4    1  0.1147209E-002  0.4491209E+03  0.7818608E-02  0.1027985E+00
         21   -1    0    0  503  502  0.00000000000E+00  0.00000000000E+00  0.53961788116E+03  0.53961788116E+03  0.00000000000E+00 0.  1.
         21   -1    0    0  501  503 -0.00000000000E+00 -0.00000000000E+00 -0.41067603842E+03  0.41067603842E+03  0.00000000000E+00 0.  1.
    9000007    1    1    2  501    0  0.16187730164E+03  0.12452038471E+03 -0.77908028680E+02  0.45582809033E+03  0.40000000000E+03 0.  1.
   -9000007    1    1    2    0  502 -0.16187730164E+03 -0.12452038471E+03  0.20684987142E+03  0.49446582926E+03  0.40000000000E+03 0.  1.
<mgrwt>
<rscale>  2 0.44912090E+03</rscale>
<asrwt>0</asrwt>
<pdfrwt beam="1">  1       21 0.83018135E-01 0.44912090E+03</pdfrwt>
<pdfrwt beam="2">  1       21 0.63180929E-01 0.44912090E+03</pdfrwt>
<totfact> 0.25442863E+03</totfact>
</mgrwt>
</event>
<event>
 4    1  0.1147209E-002  0.5377630E+03  0.7818608E-02  0.1004367E+00
         21   -1    0    0  503  502  0.00000000000E+00  0.00000000000E+00  0.59765231449E+03  0.59765231449E+03  0.00000000000E+00 0. -1.
         21   -1    0    0  501  503 -0.00000000000E+00 -0.00000000000E+00 -0.50471620450E+03  0.50471620450E+03  0.00000000000E+00 0.  1.
    9000007    1    1    2  501    0 -0.13769987350E+02  0.35916496918E+03 -0.65535885067E+02  0.54174167263E+03  0.40000000000E+03 0. -1.
   -9000007    1    1    2    0  502  0.13769987350E+02 -0.35916496918E+03  0.15847199505E+03  0.56062684635E+03  0.40000000000E+03 0.  1.
<mgrwt>
<rscale>  2 0.53776304E+03</rscale>
<asrwt>0</asrwt>
<pdfrwt beam="1">  1       21 0.91946510E-01 0.53776304E+03</pdfrwt>
<pdfrwt beam="2">  1       21 0.77648646E-01 0.53776304E+03</pdfrwt>
<totfact> 0.12173897E+03</totfact>
</mgrwt>
</event>
<event>
 4    1  0.1147209E-002  0.5040983E+03  0.7818608E-02  0.1012715E+00
         21   -1    0    0  501  502  0.00000000000E+00  0.00000000000E+00  0.15138759829E+03  0.15138759829E+03  0.00000000000E+00 0. -1.
         21   -1    0    0  502  503 -0.00000000000E+00 -0.00000000000E+00 -0.16897623300E+04  0.16897623300E+04  0.00000000000E+00 0. -1.
    9000007    1    1    2  501    0  0.30562876522E+03 -0.26574290321E+02 -0.69427588413E+03  0.85798259791E+03  0.40000000000E+03 0. -1.
   -9000007    1    1    2    0  503 -0.30562876522E+03  0.26574290321E+02 -0.84409884754E+03  0.98316733034E+03  0.40000000000E+03 0. -1.
<mgrwt>
<rscale>  2 0.50409834E+03</rscale>
<asrwt>0</asrwt>
<pdfrwt beam="1">  1       21 0.23290400E-01 0.50409834E+03</pdfrwt>
<pdfrwt beam="2">  1       21 0.25996343E+00 0.50409834E+03</pdfrwt>
<totfact> 0.80041815E+02</totfact>
</mgrwt>
</event>
<event>
 4    1  0.1147209E-002  0.8846050E+03  0.7818608E-02  0.9445033E-01
         21   -1    0    0  501  502  0.00000000000E+00  0.00000000000E+00  0.21858701171E+04  0.21858701171E+04  0.00000000000E+00 0. -1.
         21   -1    0    0  502  503 -0.00000000000E+00 -0.00000000000E+00 -0.36698033869E+03  0.36698033869E+03  0.00000000000E+00 0.  1.
    9000007    1    1    2  501    0  0.77153734678E+03  0.16509445311E+03  0.11091968893E+04  0.14187472626E+04  0.40000000000E+03 0. -1.
   -9000007    1    1    2    0  503 -0.77153734678E+03 -0.16509445311E+03  0.70969288908E+03  0.11341031932E+04  0.40000000000E+03 0. -1.
<mgrwt>
<rscale>  2 0.88460503E+03</rscale>
<asrwt>0</asrwt>
<pdfrwt beam="1">  1       21 0.33628770E+00 0.88460503E+03</pdfrwt>
<pdfrwt beam="2">  1       21 0.56458515E-01 0.88460503E+03</pdfrwt>
<totfact> 0.37996554E+01</totfact>
</mgrwt>
</event>
<event>
 4    1  0.1147209E-002  0.4756195E+03  0.7818608E-02  0.1020346E+00
         21   -1    0    0  501  502  0.00000000000E+00  0.00000000000E+00  0.85939172285E+03  0.85939172285E+03  0.00000000000E+00 0.  1.
         21   -1    0    0  502  503 -0.00000000000E+00 -0.00000000000E+00 -0.26336124482E+03  0.26336124482E+03  0.00000000000E+00 0. -1.
    9000007    1    1    2  501    0 -0.25458426846E+03 -0.37426275523E+02  0.28527350979E+03  0.55461234321E+03  0.40000000000E+03 0.  1.
   -9000007    1    1    2    0  503  0.25458426846E+03  0.37426275523E+02  0.31075696825E+03  0.56814062446E+03  0.40000000000E+03 0.  1.
<mgrwt>
<rscale>  2 0.47561947E+03</rscale>
<asrwt>0</asrwt>
<pdfrwt beam="1">  1       21 0.13221411E+00 0.47561947E+03</pdfrwt>
<pdfrwt beam="2">  1       21 0.40517115E-01 0.47561947E+03</pdfrwt>
<totfact> 0.20698563E+03</totfact>
</mgrwt>
</event>
<event>
 4    1  0.1147209E-002  0.4049719E+03  0.7818608E-02  0.1042072E+00
         21   -1    0    0  501  502  0.00000000000E+00  0.00000000000E+00  0.31137044590E+03  0.31137044590E+03  0.00000000000E+00 0. -1.
         21   -1    0    0  502  503 -0.00000000000E+00 -0.00000000000E+00 -0.57635861142E+03  0.57635861142E+03  0.00000000000E+00 0. -1.
    9000007    1    1    2  501    0 -0.12881619090E+02  0.61937889615E+02 -0.26276672908E+03  0.48275106649E+03  0.40000000000E+03 0. -1.
   -9000007    1    1    2    0  503  0.12881619090E+02 -0.61937889615E+02 -0.22214364369E+01  0.40497799083E+03  0.40000000000E+03 0. -1.
<mgrwt>
<rscale>  2 0.40497190E+03</rscale>
<asrwt>0</asrwt>
<pdfrwt beam="1">  1       21 0.47903145E-01 0.40497190E+03</pdfrwt>
<pdfrwt beam="2">  1       21 0.88670556E-01 0.40497190E+03</pdfrwt>
<totfact> 0.40283304E+03</totfact>
</mgrwt>
</event>
<event>
 4    1  0.1147209E-002  0.4005842E+03  0.7818608E-02  0.1043578E+00
         21   -1    0    0  503  502  0.00000000000E+00  0.00000000000E+00  0.12932081748E+03  0.12932081748E+03  0.00000000000E+00 0. -1.
         21   -1    0    0  501  503 -0.00000000000E+00 -0.00000000000E+00 -0.16734885772E+04  0.16734885772E+04  0.00000000000E+00 0. -1.
    9000007    1    1    2  501    0 -0.10285072804E+02  0.19023812813E+02 -0.12304064542E+04  0.12939736206E+04  0.40000000000E+03 0. -1.
   -9000007    1    1    2    0  502  0.10285072804E+02 -0.19023812813E+02 -0.31376130551E+03  0.50883577411E+03  0.40000000000E+03 0. -1.
<mgrwt>
<rscale>  2 0.40058418E+03</rscale>
<asrwt>0</asrwt>
<pdfrwt beam="1">  1       21 0.19895511E-01 0.40058418E+03</pdfrwt>
<pdfrwt beam="2">  1       21 0.25745977E+00 0.40058418E+03</pdfrwt>
<totfact> 0.11816896E+03</totfact>
</mgrwt>
</event>
<event>
 4    1  0.1147209E-002  0.4541752E+03  0.7818608E-02  0.1026484E+00
         21   -1    0    0  503  502  0.00000000000E+00  0.00000000000E+00  0.13763565185E+04  0.13763565185E+04  0.00000000000E+00 0. -1.
         21   -1    0    0  501  503 -0.00000000000E+00 -0.00000000000E+00 -0.14995712753E+03  0.14995712753E+03  0.00000000000E+00 0. -1.
    9000007    1    1    2  501    0  0.10901212772E+03  0.18544942896E+03  0.63155024973E+03  0.77790157001E+03  0.40000000000E+03 0. -1.
   -9000007    1    1    2    0  502 -0.10901212772E+03 -0.18544942896E+03  0.59484914123E+03  0.74841207600E+03  0.40000000000E+03 0. -1.
<mgrwt>
<rscale>  2 0.45417522E+03</rscale>
<asrwt>0</asrwt>
<pdfrwt beam="1">  1       21 0.21174715E+00 0.45417522E+03</pdfrwt>
<pdfrwt beam="2">  1       21 0.23070328E-01 0.45417522E+03</pdfrwt>
<totfact> 0.16738011E+03</totfact>
</mgrwt>
</event>
<event>
 4    1  0.1147209E-002  0.5081845E+03  0.7818608E-02  0.1011664E+00
         21   -1    0    0  501  502  0.00000000000E+00  0.00000000000E+00  0.87737787900E+03  0.87737787900E+03  0.00000000000E+00 0.  1.
         21   -1    0    0  502  503 -0.00000000000E+00 -0.00000000000E+00 -0.29576147177E+03  0.29576147177E+03  0.00000000000E+00 0.  1.
    9000007    1    1    2  501    0 -0.25692410366E+03 -0.17955926665E+03  0.33140570753E+03  0.60669701521E+03  0.40000000000E+03 0.  1.
   -9000007    1    1    2    0  503  0.25692410366E+03  0.17955926665E+03  0.25021069970E+03  0.56644233557E+03  0.40000000000E+03 0.  1.
<mgrwt>
<rscale>  2 0.50818454E+03</rscale>
<asrwt>0</asrwt>
<pdfrwt beam="1">  1       21 0.13498121E+00 0.50818454E+03</pdfrwt>
<pdfrwt beam="2">  1       21 0.45501765E-01 0.50818454E+03</pdfrwt>
<totfact> 0.15214111E+03</totfact>
</mgrwt>
</event>
<event>
 4    1  0.1147209E-002  0.4014067E+03  0.7818608E-02  0.1043294E+00
         21   -1    0    0  501  502  0.00000000000E+00  0.00000000000E+00  0.19337458765E+03  0.19337458765E+03  0.00000000000E+00 0.  1.
         21   -1    0    0  502  503 -0.00000000000E+00 -0.00000000000E+00 -0.10141672267E+04  0.10141672267E+04  0.00000000000E+00 0.  1.
    9000007    1    1    2  501    0 -0.13771209897E+02 -0.30621401102E+02 -0.15537873054E+03  0.43042986227E+03  0.40000000000E+03 0.  1.
   -9000007    1    1    2    0  503  0.13771209897E+02  0.30621401102E+02 -0.66541390848E+03  0.77711195205E+03  0.40000000000E+03 0.  1.
<mgrwt>
<rscale>  2 0.40140667E+03</rscale>
<asrwt>0</asrwt>
<pdfrwt beam="1">  1       21 0.29749936E-01 0.40140667E+03</pdfrwt>
<pdfrwt beam="2">  1       21 0.15602573E+00 0.40140667E+03</pdfrwt>
<totfact> 0.25554263E+03</totfact>
</mgrwt>
</event>
<event>
 4    1  0.1147209E-002  0.4014980E+03  0.7818608E-02  0.1043262E+00
         21   -1    0    0  503  502  0.00000000000E+00  0.00000000000E+00  0.10184945228E+03  0.10184945228E+03  0.00000000000E+00 0. -1.
         21   -1    0    0  501  503 -0.00000000000E+00 -0.00000000000E+00 -0.17213864781E+04  0.17213864781E+04  0.00000000000E+00 0. -1.
    9000007    1    1    2  501    0 -0.34480155743E+02 -0.34279526922E+01 -0.10684926036E+04  0.11414364090E+04  0.40000000000E+03 0. -1.
   -9000007    1    1    2    0  502  0.34480155743E+02  0.34279526922E+01 -0.55104442222E+03  0.68179952131E+03  0.40000000000E+03 0. -1.
<mgrwt>
<rscale>  2 0.40149799E+03</rscale>
<asrwt>0</asrwt>
<pdfrwt beam="1">  1       21 0.15669148E-01 0.40149799E+03</pdfrwt>
<pdfrwt beam="2">  1       21 0.26482867E+00 0.40149799E+03</pdfrwt>
<totfact> 0.16685403E+03</totfact>
</mgrwt>
</event>
<event>
 4    1  0.1147209E-002  0.4231968E+03  0.7818608E-02  0.1036031E+00
         21   -1    0    0  501  502  0.00000000000E+00  0.00000000000E+00  0.75838473067E+03  0.75838473067E+03  0.00000000000E+00 0. -1.
         21   -1    0    0  502  503 -0.00000000000E+00 -0.00000000000E+00 -0.26082276177E+03  0.26082276177E+03  0.00000000000E+00 0. -1.
    9000007    1    1    2  501    0 -0.13738979737E+03  0.14818811435E+02  0.40550441829E+03  0.58611380025E+03  0.40000000000E+03 0. -1.
   -9000007    1    1    2    0  503  0.13738979737E+03 -0.14818811435E+02  0.92057550611E+02  0.43309369220E+03  0.40000000000E+03 0. -1.
<mgrwt>
<rscale>  2 0.42319683E+03</rscale>
<asrwt>0</asrwt>
<pdfrwt beam="1">  1       21 0.11667457E+00 0.42319683E+03</pdfrwt>
<pdfrwt beam="2">  1       21 0.40126579E-01 0.42319683E+03</pdfrwt>
<totfact> 0.29679092E+03</totfact>
</mgrwt>
</event>
<event>
 4    1  0.1147209E-002  0.4234247E+03  0.7818608E-02  0.1035957E+00
         21   -1    0    0  501  502  0.00000000000E+00  0.00000000000E+00  0.67791320556E+03  0.67791320556E+03  0.00000000000E+00 0. -1.
         21   -1    0    0  502  503 -0.00000000000E+00 -0.00000000000E+00 -0.26703191613E+03  0.26703191613E+03  0.00000000000E+00 0. -1.
    9000007    1    1    2  501    0 -0.80065614293E+01 -0.13865198587E+03  0.15917263449E+03  0.45235429232E+03  0.40000000000E+03 0. -1.
   -9000007    1    1    2    0  503  0.80065614293E+01  0.13865198587E+03  0.25170865494E+03  0.49259082938E+03  0.40000000000E+03 0. -1.
<mgrwt>
<rscale>  2 0.42342470E+03</rscale>
<asrwt>0</asrwt>
<pdfrwt beam="1">  1       21 0.10429434E+00 0.42342470E+03</pdfrwt>
<pdfrwt beam="2">  1       21 0.41081834E-01 0.42342470E+03</pdfrwt>
<totfact> 0.37332244E+03</totfact>
</mgrwt>
</event>
<event>
 4    1  0.1147209E-002  0.4852599E+03  0.7818608E-02  0.1017700E+00
         21   -1    0    0  503  502  0.00000000000E+00  0.00000000000E+00  0.47261524690E+03  0.47261524690E+03  0.00000000000E+00 0.  1.
         21   -1    0    0  501  503 -0.00000000000E+00 -0.00000000000E+00 -0.52408019337E+03  0.52408019337E+03  0.00000000000E+00 0. -1.
    9000007    1    1    2  501    0  0.19915076197E+03 -0.18925155869E+03 -0.13638398126E+03  0.50406127485E+03  0.40000000000E+03 0. -1.
   -9000007    1    1    2    0  502 -0.19915076197E+03  0.18925155869E+03  0.84919034793E+02  0.49263416541E+03  0.40000000000E+03 0.  1.
<mgrwt>
<rscale>  2 0.48525991E+03</rscale>
<asrwt>0</asrwt>
<pdfrwt beam="1">  1       21 0.72710038E-01 0.48525991E+03</pdfrwt>
<pdfrwt beam="2">  1       21 0.80627722E-01 0.48525991E+03</pdfrwt>
<totfact> 0.19621051E+03</totfact>
</mgrwt>
</event>
<event>
 4    1  0.1147209E-002  0.4529704E+03  0.7818608E-02  0.1026840E+00
         21   -1    0    0  501  502  0.00000000000E+00  0.00000000000E+00  0.24478525350E+04  0.24478525350E+04  0.00000000000E+00 0. -1.
         21   -1    0    0  502  503 -0.00000000000E+00 -0.00000000000E+00 -0.11093863985E+03  0.11093863985E+03  0.00000000000E+00 0. -1.
    9000007    1    1    2  501    0  0.21171513140E+03 -0.18944871578E+02  0.18009953475E+04  0.18570854711E+04  0.40000000000E+03 0. -1.
   -9000007    1    1    2    0  503 -0.21171513140E+03  0.18944871578E+02  0.53591854755E+03  0.70170570372E+03  0.40000000000E+03 0. -1.
<mgrwt>
<rscale>  2 0.45297042E+03</rscale>
<asrwt>0</asrwt>
<pdfrwt beam="1">  1       21 0.37659266E+00 0.45297042E+03</pdfrwt>
<pdfrwt beam="2">  1       21 0.17067485E-01 0.45297042E+03</pdfrwt>
<totfact> 0.28936779E+02</totfact>
</mgrwt>
</event>
<event>
 4    1  0.1147209E-002  0.4905993E+03  0.7818608E-02  0.1016262E+00
         21   -1    0    0  501  502  0.00000000000E+00  0.00000000000E+00  0.22268962131E+03  0.22268962131E+03  0.00000000000E+00 0. -1.
         21   -1    0    0  502  503 -0.00000000000E+00 -0.00000000000E+00 -0.11608199444E+04  0.11608199444E+04  0.00000000000E+00 0. -1.
    9000007    1    1    2  501    0  0.10157926832E+03 -0.26527226158E+03 -0.28746734054E+03  0.56861691181E+03  0.40000000000E+03 0. -1.
   -9000007    1    1    2    0  503 -0.10157926832E+03  0.26527226158E+03 -0.65066298259E+03  0.81489265393E+03  0.40000000000E+03 0. -1.
<mgrwt>
<rscale>  2 0.49059935E+03</rscale>
<asrwt>0</asrwt>
<pdfrwt beam="1">  1       21 0.34259942E-01 0.49059935E+03</pdfrwt>
<pdfrwt beam="2">  1       21 0.17858768E+00 0.49059935E+03</pdfrwt>
<totfact> 0.12665395E+03</totfact>
</mgrwt>
</event>
<event>
 4    1  0.1147209E-002  0.4107281E+03  0.7818608E-02  0.1040127E+00
         21   -1    0    0  501  502  0.00000000000E+00  0.00000000000E+00  0.58452341478E+03  0.58452341478E+03  0.00000000000E+00 0.  1.
         21   -1    0    0  502  503 -0.00000000000E+00 -0.00000000000E+00 -0.37586508944E+03  0.37586508944E+03  0.00000000000E+00 0.  1.
    9000007    1    1    2  501    0 -0.80379132144E+02 -0.47294287118E+02  0.33569742745E+03  0.53046236179E+03  0.40000000000E+03 0.  1.
   -9000007    1    1    2    0  503  0.80379132144E+02  0.47294287118E+02 -0.12703910211E+03  0.42992614243E+03  0.40000000000E+03 0.  1.
<mgrwt>
<rscale>  2 0.41072808E+03</rscale>
<asrwt>0</asrwt>
<pdfrwt beam="1">  1       21 0.89926680E-01 0.41072808E+03</pdfrwt>
<pdfrwt beam="2">  1       21 0.57825398E-01 0.41072808E+03</pdfrwt>
<totfact> 0.25989449E+03</totfact>
</mgrwt>
</event>
<event>
 4    1  0.1147209E-002  0.5436864E+03  0.7818608E-02  0.1002966E+00
         21   -1    0    0  501  502  0.00000000000E+00  0.00000000000E+00  0.29813215893E+03  0.29813215893E+03  0.00000000000E+00 0.  1.
         21   -1    0    0  502  503 -0.00000000000E+00 -0.00000000000E+00 -0.99380270838E+03  0.99380270838E+03  0.00000000000E+00 0. -1.
    9000007    1    1    2  501    0  0.27410657503E+03 -0.24588721219E+03 -0.37899964401E+03  0.66274856903E+03  0.40000000000E+03 0. -1.
   -9000007    1    1    2    0  503 -0.27410657503E+03  0.24588721219E+03 -0.31667090543E+03  0.62918629828E+03  0.40000000000E+03 0. -1.
<mgrwt>
<rscale>  2 0.54368643E+03</rscale>
<asrwt>0</asrwt>
<pdfrwt beam="1">  1       21 0.45866486E-01 0.54368643E+03</pdfrwt>
<pdfrwt beam="2">  1       21 0.15289273E+00 0.54368643E+03</pdfrwt>
<totfact> 0.10563282E+03</totfact>
</mgrwt>
</event>
<event>
 4    1  0.1147209E-002  0.4384625E+03  0.7818608E-02  0.1031220E+00
         21   -1    0    0  503  502  0.00000000000E+00  0.00000000000E+00  0.13777913618E+04  0.13777913618E+04  0.00000000000E+00 0. -1.
         21   -1    0    0  501  503 -0.00000000000E+00 -0.00000000000E+00 -0.16246940986E+03  0.16246940986E+03  0.00000000000E+00 0. -1.
    9000007    1    1    2  501    0  0.14611719620E+03 -0.10439891704E+03  0.31830837689E+03  0.54182062687E+03  0.40000000000E+03 0. -1.
   -9000007    1    1    2    0  502 -0.14611719620E+03  0.10439891704E+03  0.89701357508E+03  0.99844014482E+03  0.40000000000E+03 0. -1.
<mgrwt>
<rscale>  2 0.43846251E+03</rscale>
<asrwt>0</asrwt>
<pdfrwt beam="1">  1       21 0.21196789E+00 0.43846251E+03</pdfrwt>
<pdfrwt beam="2">  1       21 0.24995295E-01 0.43846251E+03</pdfrwt>
<totfact> 0.14385172E+03</totfact>
</mgrwt>
</event>
<event>
 4    1  0.1147209E-002  0.4846272E+03  0.7818608E-02  0.1017871E+00
         21   -1    0    0  503  502  0.00000000000E+00  0.00000000000E+00  0.51497487503E+03  0.51497487503E+03  0.00000000000E+00 0. -1.
         21   -1    0    0  501  503 -0.00000000000E+00 -0.00000000000E+00 -0.75653559948E+03  0.75653559948E+03  0.00000000000E+00 0. -1.
    9000007    1    1    2  501    0 -0.24878296315E+03  0.11388840596E+03 -0.52143864670E+03  0.71187203487E+03  0.40000000000E+03 0. -1.
   -9000007    1    1    2    0  502  0.24878296315E+03 -0.11388840596E+03  0.27987792225E+03  0.55963843964E+03  0.40000000000E+03 0. -1.
<mgrwt>
<rscale>  2 0.48462721E+03</rscale>
<asrwt>0</asrwt>
<pdfrwt beam="1">  1       21 0.79226904E-01 0.48462721E+03</pdfrwt>
<pdfrwt beam="2">  1       21 0.11639009E+00 0.48462721E+03</pdfrwt>
<totfact> 0.66411198E+02</totfact>
</mgrwt>
</event>
<event>
 4    1  0.1147209E-002  0.4651037E+03  0.7818608E-02  0.1023311E+00
         21   -1    0    0  501  502  0.00000000000E+00  0.00000000000E+00  0.98356247913E+03  0.98356247913E+03  0.00000000000E+00 0.  1.
         21   -1    0    0  502  503 -0.00000000000E+00 -0.00000000000E+00 -0.25501978894E+03  0.25501978894E+03  0.00000000000E+00 0. -1.
    9000007    1    1    2  501    0  0.20901506081E+03  0.11240166566E+03  0.59396932990E+03  0.75440108361E+03  0.40000000000E+03 0.  1.
   -9000007    1    1    2    0  503 -0.20901506081E+03 -0.11240166566E+03  0.13457336028E+03  0.48418118446E+03  0.40000000000E+03 0. -1.
<mgrwt>
<rscale>  2 0.46510368E+03</rscale>
<asrwt>0</asrwt>
<pdfrwt beam="1">  1       21 0.15131730E+00 0.46510368E+03</pdfrwt>
<pdfrwt beam="2">  1       21 0.39233814E-01 0.46510368E+03</pdfrwt>
<totfact> 0.15488974E+03</totfact>
</mgrwt>
</event>
<event>
 4    1  0.1147209E-002  0.4004246E+03  0.7818608E-02  0.1043633E+00
         21   -1    0    0  503  502  0.00000000000E+00  0.00000000000E+00  0.24411536593E+04  0.24411536593E+04  0.00000000000E+00 0.  1.
         21   -1    0    0  501  503 -0.00000000000E+00 -0.00000000000E+00 -0.11664977395E+03  0.11664977395E+03  0.00000000000E+00 0.  1.
    9000007    1    1    2  501    0  0.14969104519E+02 -0.10761140265E+02  0.31688937243E+03  0.51064542551E+03  0.40000000000E+03 0.  1.
   -9000007    1    1    2    0  502 -0.14969104519E+02  0.10761140265E+02  0.20076145129E+04  0.20471580077E+04  0.40000000000E+03 0.  1.
<mgrwt>
<rscale>  2 0.40042462E+03</rscale>
<asrwt>0</asrwt>
<pdfrwt beam="1">  1       21 0.37556206E+00 0.40042462E+03</pdfrwt>
<pdfrwt beam="2">  1       21 0.17946121E-01 0.40042462E+03</pdfrwt>
<totfact> 0.27705086E+02</totfact>
</mgrwt>
</event>
<event>
 4    1  0.1147209E-002  0.4876583E+03  0.7818608E-02  0.1017051E+00
         21   -1    0    0  503  502  0.00000000000E+00  0.00000000000E+00  0.42933024462E+03  0.42933024462E+03  0.00000000000E+00 0.  1.
         21   -1    0    0  501  503 -0.00000000000E+00 -0.00000000000E+00 -0.63992215812E+03  0.63992215812E+03  0.00000000000E+00 0. -1.
    9000007    1    1    2  501    0 -0.23455067486E+03  0.15098548111E+03 -0.30129985668E+03  0.57322965574E+03  0.40000000000E+03 0. -1.
   -9000007    1    1    2    0  502  0.23455067486E+03 -0.15098548111E+03  0.90707943186E+02  0.49602274700E+03  0.40000000000E+03 0. -1.
<mgrwt>
<rscale>  2 0.48765832E+03</rscale>
<asrwt>0</asrwt>
<pdfrwt beam="1">  1       21 0.66050807E-01 0.48765832E+03</pdfrwt>
<pdfrwt beam="2">  1       21 0.98449563E-01 0.48765832E+03</pdfrwt>
<totfact> 0.15165778E+03</totfact>
</mgrwt>
</event>
<event>
 4    1  0.1147209E-002  0.4897805E+03  0.7818608E-02  0.1016481E+00
         21   -1    0    0  503  502  0.00000000000E+00  0.00000000000E+00  0.31448205831E+03  0.31448205831E+03  0.00000000000E+00 0.  1.
         21   -1    0    0  501  503 -0.00000000000E+00 -0.00000000000E+00 -0.78441555383E+03  0.78441555383E+03  0.00000000000E+00 0. -1.
    9000007    1    1    2  501    0  0.34686581513E+02 -0.28050275101E+03 -0.14374466598E+03  0.51043851859E+03  0.40000000000E+03 0.  1.
   -9000007    1    1    2    0  502 -0.34686581513E+02  0.28050275101E+03 -0.32618882955E+03  0.58845909355E+03  0.40000000000E+03 0. -1.
<mgrwt>
<rscale>  2 0.48978051E+03</rscale>
<asrwt>0</asrwt>
<pdfrwt beam="1">  1       21 0.48381855E-01 0.48978051E+03</pdfrwt>
<pdfrwt beam="2">  1       21 0.12067932E+00 0.48978051E+03</pdfrwt>
<totfact> 0.17981920E+03</totfact>
</mgrwt>
</event>
<event>
 4    1  0.1147209E-002  0.4708220E+03  0.7818608E-02  0.1021688E+00
         21   -1    0    0  501  502  0.00000000000E+00  0.00000000000E+00  0.76706162745E+03  0.76706162745E+03  0.00000000000E+00 0. -1.
         21   -1    0    0  502  503 -0.00000000000E+00 -0.00000000000E+00 -0.29883733034E+03  0.29883733034E+03  0.00000000000E+00 0.  1.
    9000007    1    1    2  501    0  0.23363875776E+03  0.84179866306E+02  0.33085585385E+03  0.57544670913E+03  0.40000000000E+03 0.  1.
   -9000007    1    1    2    0  503 -0.23363875776E+03 -0.84179866306E+02  0.13736844325E+03  0.49045224866E+03  0.40000000000E+03 0.  1.
<mgrwt>
<rscale>  2 0.47082196E+03</rscale>
<asrwt>0</asrwt>
<pdfrwt beam="1">  1       21 0.11800948E+00 0.47082196E+03</pdfrwt>
<pdfrwt beam="2">  1       21 0.45974974E-01 0.47082196E+03</pdfrwt>
<totfact> 0.21347771E+03</totfact>
</mgrwt>
</event>
<event>
 4    1  0.1147209E-002  0.4547582E+03  0.7818608E-02  0.1026313E+00
         21   -1    0    0  501  502  0.00000000000E+00  0.00000000000E+00  0.65576043924E+02  0.65576043924E+02  0.00000000000E+00 0. -1.
         21   -1    0    0  502  503 -0.00000000000E+00 -0.00000000000E+00 -0.35220548025E+04  0.35220548025E+04  0.00000000000E+00 0. -1.
    9000007    1    1    2  501    0 -0.51833605143E+02  0.21004347292E+03 -0.11480997634E+04  0.12348838204E+04  0.40000000000E+03 0. -1.
   -9000007    1    1    2    0  503  0.51833605143E+02 -0.21004347292E+03 -0.23083789952E+04  0.23527470261E+04  0.40000000000E+03 0. -1.
<mgrwt>
<rscale>  2 0.45475816E+03</rscale>
<asrwt>0</asrwt>
<pdfrwt beam="1">  1       21 0.10088620E-01 0.45475816E+03</pdfrwt>
<pdfrwt beam="2">  1       21 0.54185470E+00 0.45475816E+03</pdfrwt>
<totfact> 0.56168820E+01</totfact>
</mgrwt>
</event>
<event>
 4    1  0.1147209E-002  0.6263715E+03  0.7818608E-02  0.9852155E-01
         21   -1    0    0  501  502  0.00000000000E+00  0.00000000000E+00  0.99367208110E+03  0.99367208110E+03  0.00000000000E+00 0. -1.
         21   -1    0    0  502  503 -0.00000000000E+00 -0.00000000000E+00 -0.45061914860E+03  0.45061914860E+03  0.00000000000E+00 0.  1.
    9000007    1    1    2  501    0  0.16793698940E+03 -0.45181686372E+03  0.52559833285E+03  0.81767653644E+03  0.40000000000E+03 0. -1.
   -9000007    1    1    2    0  503 -0.16793698940E+03  0.45181686372E+03  0.17454599654E+02  0.62661469325E+03  0.40000000000E+03 0.  1.
<mgrwt>
<rscale>  2 0.62637154E+03</rscale>
<asrwt>0</asrwt>
<pdfrwt beam="1">  1       21 0.15287263E+00 0.62637154E+03</pdfrwt>
<pdfrwt beam="2">  1       21 0.69326023E-01 0.62637154E+03</pdfrwt>
<totfact> 0.41703967E+02</totfact>
</mgrwt>
</event>
<event>
 4    1  0.1147209E-002  0.5234816E+03  0.7818608E-02  0.1007825E+00
         21   -1    0    0  503  502  0.00000000000E+00  0.00000000000E+00  0.74327209617E+03  0.74327209617E+03  0.00000000000E+00 0. -1.
         21   -1    0    0  501  503 -0.00000000000E+00 -0.00000000000E+00 -0.50110496071E+03  0.50110496071E+03  0.00000000000E+00 0. -1.
    9000007    1    1    2  501    0 -0.30977104451E+03 -0.13444271056E+03  0.44092528214E+03  0.68443264597E+03  0.40000000000E+03 0.  1.
   -9000007    1    1    2    0  502  0.30977104451E+03  0.13444271056E+03 -0.19875814668E+03  0.55994441091E+03  0.40000000000E+03 0.  1.
<mgrwt>
<rscale>  2 0.52348156E+03</rscale>
<asrwt>0</asrwt>
<pdfrwt beam="1">  1       21 0.11434955E+00 0.52348156E+03</pdfrwt>
<pdfrwt beam="2">  1       21 0.77093071E-01 0.52348156E+03</pdfrwt>
<totfact> 0.72845219E+02</totfact>
</mgrwt>
</event>
<event>
 4    1  0.1147209E-002  0.4419095E+03  0.7818608E-02  0.1030163E+00
         21   -1    0    0  501  502  0.00000000000E+00  0.00000000000E+00  0.33911127232E+03  0.33911127232E+03  0.00000000000E+00 0.  1.
         21   -1    0    0  502  503 -0.00000000000E+00 -0.00000000000E+00 -0.85816277437E+03  0.85816277437E+03  0.00000000000E+00 0.  1.
    9000007    1    1    2  501    0 -0.16682631662E+03  0.86330861555E+02  0.83817528991E+02  0.44978818986E+03  0.40000000000E+03 0.  1.
   -9000007    1    1    2    0  503  0.16682631662E+03 -0.86330861555E+02 -0.60286903104E+03  0.74748585683E+03  0.40000000000E+03 0.  1.
<mgrwt>
<rscale>  2 0.44190954E+03</rscale>
<asrwt>0</asrwt>
<pdfrwt beam="1">  1       21 0.52170966E-01 0.44190954E+03</pdfrwt>
<pdfrwt beam="2">  1       21 0.13202504E+00 0.44190954E+03</pdfrwt>
<totfact> 0.12372522E+03</totfact>
</mgrwt>
</event>
<event>
 4    1  0.1147209E-002  0.4416240E+03  0.7818608E-02  0.1030250E+00
         21   -1    0    0  503  502  0.00000000000E+00  0.00000000000E+00  0.10700734368E+04  0.10700734368E+04  0.00000000000E+00 0. -1.
         21   -1    0    0  501  503 -0.00000000000E+00 -0.00000000000E+00 -0.19368172258E+03  0.19368172258E+03  0.00000000000E+00 0. -1.
    9000007    1    1    2  501    0  0.18606675967E+03  0.20270538786E+02  0.28475119706E+03  0.52546643853E+03  0.40000000000E+03 0. -1.
   -9000007    1    1    2    0  502 -0.18606675967E+03 -0.20270538786E+02  0.59164051721E+03  0.73828872089E+03  0.40000000000E+03 0. -1.
<mgrwt>
<rscale>  2 0.44162397E+03</rscale>
<asrwt>0</asrwt>
<pdfrwt beam="1">  1       21 0.16462668E+00 0.44162397E+03</pdfrwt>
<pdfrwt beam="2">  1       21 0.29797189E-01 0.44162397E+03</pdfrwt>
<totfact> 0.21572430E+03</totfact>
</mgrwt>
</event>
<event>
 4    1  0.1147209E-002  0.4194335E+03  0.7818608E-02  0.1037251E+00
         21   -1    0    0  503  502  0.00000000000E+00  0.00000000000E+00  0.15707277162E+04  0.15707277162E+04  0.00000000000E+00 0. -1.
         21   -1    0    0  501  503 -0.00000000000E+00 -0.00000000000E+00 -0.12734938846E+03  0.12734938846E+03  0.00000000000E+00 0. -1.
    9000007    1    1    2  501    0 -0.43768095825E+02  0.11835898990E+03  0.42694340575E+03  0.59850243810E+03  0.40000000000E+03 0. -1.
   -9000007    1    1    2    0  502  0.43768095825E+02 -0.11835898990E+03  0.10164349220E+04  0.10995746666E+04  0.40000000000E+03 0. -1.
<mgrwt>
<rscale>  2 0.41943354E+03</rscale>
<asrwt>0</asrwt>
<pdfrwt beam="1">  1       21 0.24165040E+00 0.41943354E+03</pdfrwt>
<pdfrwt beam="2">  1       21 0.19592215E-01 0.41943354E+03</pdfrwt>
<totfact> 0.15049294E+03</totfact>
</mgrwt>
</event>
<event>
 4    1  0.1147209E-002  0.4649767E+03  0.7818608E-02  0.1023348E+00
         21   -1    0    0  501  502  0.00000000000E+00  0.00000000000E+00  0.21624733460E+04  0.21624733460E+04  0.00000000000E+00 0. -1.
         21   -1    0    0  502  503 -0.00000000000E+00 -0.00000000000E+00 -0.11920108206E+03  0.11920108206E+03  0.00000000000E+00 0. -1.
    9000007    1    1    2  501    0  0.98895035133E+02 -0.21546014160E+03  0.14797533298E+04  0.15510877531E+04  0.40000000000E+03 0. -1.
   -9000007    1    1    2    0  503 -0.98895035133E+02  0.21546014160E+03  0.56351893416E+03  0.73058667504E+03  0.40000000000E+03 0. -1.
<mgrwt>
<rscale>  2 0.46497667E+03</rscale>
<asrwt>0</asrwt>
<pdfrwt beam="1">  1       21 0.33268818E+00 0.46497667E+03</pdfrwt>
<pdfrwt beam="2">  1       21 0.18338630E-01 0.46497667E+03</pdfrwt>
<totfact> 0.46804979E+02</totfact>
</mgrwt>
</event>
<event>
 4    1  0.1147209E-002  0.4003267E+03  0.7818608E-02  0.1043667E+00
         21   -1    0    0  501  502  0.00000000000E+00  0.00000000000E+00  0.10863717313E+04  0.10863717313E+04  0.00000000000E+00 0.  1.
         21   -1    0    0  502  503 -0.00000000000E+00 -0.00000000000E+00 -0.17604131729E+03  0.17604131729E+03  0.00000000000E+00 0.  1.
    9000007    1    1    2  501    0 -0.15692815076E+02 -0.38952101888E+01  0.70923311415E+03  0.81441577054E+03  0.40000000000E+03 0.  1.
   -9000007    1    1    2    0  503  0.15692815076E+02  0.38952101888E+01  0.20109729983E+03  0.44799727801E+03  0.40000000000E+03 0.  1.
<mgrwt>
<rscale>  2 0.40032666E+03</rscale>
<asrwt>0</asrwt>
<pdfrwt beam="1">  1       21 0.16713411E+00 0.40032666E+03</pdfrwt>
<pdfrwt beam="2">  1       21 0.27083280E-01 0.40032666E+03</pdfrwt>
<totfact> 0.25400844E+03</totfact>
</mgrwt>
</event>
<event>
 4    1  0.1147209E-002  0.4856755E+03  0.7818608E-02  0.1017587E+00
         21   -1    0    0  503  502  0.00000000000E+00  0.00000000000E+00  0.10664025220E+04  0.10664025220E+04  0.00000000000E+00 0.  1.
         21   -1    0    0  501  503 -0.00000000000E+00 -0.00000000000E+00 -0.26593099284E+03  0.26593099284E+03  0.00000000000E+00 0.  1.
    9000007    1    1    2  501    0 -0.26236279235E+03  0.83942911702E+02  0.67347137519E+03  0.83032785117E+03  0.40000000000E+03 0.  1.
   -9000007    1    1    2    0  502  0.26236279235E+03 -0.83942911702E+02  0.12700015395E+03  0.50200566365E+03  0.40000000000E+03 0.  1.
<mgrwt>
<rscale>  2 0.48567545E+03</rscale>
<asrwt>0</asrwt>
<pdfrwt beam="1">  1       21 0.16406192E+00 0.48567545E+03</pdfrwt>
<pdfrwt beam="2">  1       21 0.40912461E-01 0.48567545E+03</pdfrwt>
<totfact> 0.11259016E+03</totfact>
</mgrwt>
</event>
<event>
 4    1  0.1147209E-002  0.4835078E+03  0.7818608E-02  0.1018176E+00
         21   -1    0    0  501  502  0.00000000000E+00  0.00000000000E+00  0.33054124256E+03  0.33054124256E+03  0.00000000000E+00 0. -1.
         21   -1    0    0  502  503 -0.00000000000E+00 -0.00000000000E+00 -0.83035112236E+03  0.83035112236E+03  0.00000000000E+00 0.  1.
    9000007    1    1    2  501    0 -0.17814110954E+03  0.20505000944E+03 -0.26425160273E+02  0.48422933655E+03  0.40000000000E+03 0.  1.
   -9000007    1    1    2    0  503  0.17814110954E+03 -0.20505000944E+03 -0.47338471952E+03  0.67666302837E+03  0.40000000000E+03 0. -1.
<mgrwt>
<rscale>  2 0.48350777E+03</rscale>
<asrwt>0</asrwt>
<pdfrwt beam="1">  1       21 0.50852500E-01 0.48350777E+03</pdfrwt>
<pdfrwt beam="2">  1       21 0.12774632E+00 0.48350777E+03</pdfrwt>
<totfact> 0.14001978E+03</totfact>
</mgrwt>
</event>
<event>
 4    1  0.1147209E-002  0.4053933E+03  0.7818608E-02  0.1041928E+00
         21   -1    0    0  501  502  0.00000000000E+00  0.00000000000E+00  0.57168282208E+03  0.57168282208E+03  0.00000000000E+00 0.  1.
         21   -1    0    0  502  503 -0.00000000000E+00 -0.00000000000E+00 -0.29961218390E+03  0.29961218390E+03  0.00000000000E+00 0.  1.
    9000007    1    1    2  501    0 -0.25426017229E+02  0.60805112010E+02  0.48347610485E+02  0.40826613310E+03  0.40000000000E+03 0. -1.
   -9000007    1    1    2    0  503  0.25426017229E+02 -0.60805112010E+02  0.22372302769E+03  0.46302887288E+03  0.40000000000E+03 0. -1.
<mgrwt>
<rscale>  2 0.40539332E+03</rscale>
<asrwt>0</asrwt>
<pdfrwt beam="1">  1       21 0.87951203E-01 0.40539332E+03</pdfrwt>
<pdfrwt beam="2">  1       21 0.46094182E-01 0.40539332E+03</pdfrwt>
<totfact> 0.44518078E+03</totfact>
</mgrwt>
</event>
<event>
 4    1  0.1147209E-002  0.4911352E+03  0.7818608E-02  0.1016119E+00
         21   -1    0    0  503  502  0.00000000000E+00  0.00000000000E+00  0.11004002119E+04  0.11004002119E+04  0.00000000000E+00 0. -1.
         21   -1    0    0  501  503 -0.00000000000E+00 -0.00000000000E+00 -0.25842955614E+03  0.25842955614E+03  0.00000000000E+00 0. -1.
    9000007    1    1    2  501    0 -0.18350698727E+03 -0.21803440023E+03  0.15629380126E+03  0.51540427469E+03  0.40000000000E+03 0. -1.
   -9000007    1    1    2    0  502  0.18350698727E+03  0.21803440023E+03  0.68567685454E+03  0.84342549339E+03  0.40000000000E+03 0. -1.
<mgrwt>
<rscale>  2 0.49113523E+03</rscale>
<asrwt>0</asrwt>
<pdfrwt beam="1">  1       21 0.16929234E+00 0.49113523E+03</pdfrwt>
<pdfrwt beam="2">  1       21 0.39758394E-01 0.49113523E+03</pdfrwt>
<totfact> 0.10904108E+03</totfact>
</mgrwt>
</event>
<event>
 4    1  0.1147209E-002  0.4231478E+03  0.7818608E-02  0.1036047E+00
         21   -1    0    0  503  502  0.00000000000E+00  0.00000000000E+00  0.96753844251E+03  0.96753844251E+03  0.00000000000E+00 0.  1.
         21   -1    0    0  501  503 -0.00000000000E+00 -0.00000000000E+00 -0.29641028125E+03  0.29641028125E+03  0.00000000000E+00 0.  1.
    9000007    1    1    2  501    0  0.74803634090E+02 -0.11601063810E+03 -0.51778900382E+02  0.42630400696E+03  0.40000000000E+03 0.  1.
   -9000007    1    1    2    0  502 -0.74803634090E+02  0.11601063810E+03  0.72290706164E+03  0.83764471681E+03  0.40000000000E+03 0.  1.
<mgrwt>
<rscale>  2 0.42314779E+03</rscale>
<asrwt>0</asrwt>
<pdfrwt beam="1">  1       21 0.14885207E+00 0.42314779E+03</pdfrwt>
<pdfrwt beam="2">  1       21 0.45601582E-01 0.42314779E+03</pdfrwt>
<totfact> 0.12062219E+03</totfact>
</mgrwt>
</event>
<event>
 4    1  0.1147209E-002  0.5098389E+03  0.7818608E-02  0.1011242E+00
         21   -1    0    0  501  502  0.00000000000E+00  0.00000000000E+00  0.53506482403E+03  0.53506482403E+03  0.00000000000E+00 0.  1.
         21   -1    0    0  502  503 -0.00000000000E+00 -0.00000000000E+00 -0.49037634130E+03  0.49037634130E+03  0.00000000000E+00 0.  1.
    9000007    1    1    2  501    0 -0.19332804139E+03 -0.25011987308E+03 -0.27174495443E+02  0.51056256786E+03  0.40000000000E+03 0.  1.
   -9000007    1    1    2    0  503  0.19332804139E+03  0.25011987308E+03  0.71862978170E+02  0.51487859747E+03  0.40000000000E+03 0.  1.
<mgrwt>
<rscale>  2 0.50983888E+03</rscale>
<asrwt>0</asrwt>
<pdfrwt beam="1">  1       21 0.82317666E-01 0.50983888E+03</pdfrwt>
<pdfrwt beam="2">  1       21 0.75442514E-01 0.50983888E+03</pdfrwt>
<totfact> 0.17045588E+03</totfact>
</mgrwt>
</event>
<event>
 4    1  0.1147209E-002  0.4112915E+03  0.7818608E-02  0.1039938E+00
         21   -1    0    0  501  502  0.00000000000E+00  0.00000000000E+00  0.12858290386E+03  0.12858290386E+03  0.00000000000E+00 0.  1.
         21   -1    0    0  502  503 -0.00000000000E+00 -0.00000000000E+00 -0.13185032427E+04  0.13185032427E+04  0.00000000000E+00 0.  1.
    9000007    1    1    2  501    0  0.44136692004E+01 -0.95609644698E+02 -0.56087274992E+03  0.69551342635E+03  0.40000000000E+03 0.  1.
   -9000007    1    1    2    0  503 -0.44136692004E+01  0.95609644698E+02 -0.62904758895E+03  0.75157272023E+03  0.40000000000E+03 0.  1.
<mgrwt>
<rscale>  2 0.41129148E+03</rscale>
<asrwt>0</asrwt>
<pdfrwt beam="1">  1       21 0.19781986E-01 0.41129148E+03</pdfrwt>
<pdfrwt beam="2">  1       21 0.20284664E+00 0.41129148E+03</pdfrwt>
<totfact> 0.26187239E+03</totfact>
</mgrwt>
</event>
<event>
 4    1  0.1147209E-002  0.4822324E+03  0.7818608E-02  0.1018523E+00
         21   -1    0    0  503  502  0.00000000000E+00  0.00000000000E+00  0.88906176407E+03  0.88906176407E+03  0.00000000000E+00 0. -1.
         21   -1    0    0  501  503 -0.00000000000E+00 -0.00000000000E+00 -0.29281503720E+03  0.29281503720E+03  0.00000000000E+00 0. -1.
    9000007    1    1    2  501    0 -0.55350516716E+02  0.26359904230E+03  0.10507533707E+03  0.49354732424E+03  0.40000000000E+03 0. -1.
   -9000007    1    1    2    0  502  0.55350516716E+02 -0.26359904230E+03  0.49117138980E+03  0.68832947704E+03  0.40000000000E+03 0. -1.
<mgrwt>
<rscale>  2 0.48223245E+03</rscale>
<asrwt>0</asrwt>
<pdfrwt beam="1">  1       21 0.13677873E+00 0.48223245E+03</pdfrwt>
<pdfrwt beam="2">  1       21 0.45048468E-01 0.48223245E+03</pdfrwt>
<totfact> 0.15148213E+03</totfact>
</mgrwt>
</event>
<event>
 4    1  0.1147209E-002  0.7513407E+03  0.7818608E-02  0.9633249E-01
         21   -1    0    0  501  502  0.00000000000E+00  0.00000000000E+00  0.23643965187E+04  0.23643965187E+04  0.00000000000E+00 0. -1.
         21   -1    0    0  502  503 -0.00000000000E+00 -0.00000000000E+00 -0.33964697929E+03  0.33964697929E+03  0.00000000000E+00 0.  1.
    9000007    1    1    2  501    0 -0.30654292286E+03 -0.55726505568E+03  0.17492548770E+04  0.19037871548E+04  0.40000000000E+03 0.  1.
   -9000007    1    1    2    0  503  0.30654292286E+03  0.55726505568E+03  0.27549466235E+03  0.80025634319E+03  0.40000000000E+03 0.  1.
<mgrwt>
<rscale>  2 0.75134074E+03</rscale>
<asrwt>0</asrwt>
<pdfrwt beam="1">  1       21 0.36375330E+00 0.75134074E+03</pdfrwt>
<pdfrwt beam="2">  1       21 0.52253383E-01 0.75134074E+03</pdfrwt>
<totfact> 0.31788750E+01</totfact>
</mgrwt>
</event>
<event>
 4    1  0.1147209E-002  0.4703997E+03  0.7818608E-02  0.1021807E+00
         21   -1    0    0  501  502  0.00000000000E+00  0.00000000000E+00  0.70555175034E+03  0.70555175034E+03  0.00000000000E+00 0.  1.
         21   -1    0    0  502  503 -0.00000000000E+00 -0.00000000000E+00 -0.34495481067E+03  0.34495481067E+03  0.00000000000E+00 0. -1.
    9000007    1    1    2  501    0 -0.15604135145E+03  0.19216386327E+03  0.21993628319E+02  0.47091355194E+03  0.40000000000E+03 0. -1.
   -9000007    1    1    2    0  503  0.15604135145E+03 -0.19216386327E+03  0.33860331135E+03  0.57959300907E+03  0.40000000000E+03 0.  1.
<mgrwt>
<rscale>  2 0.47039967E+03</rscale>
<asrwt>0</asrwt>
<pdfrwt beam="1">  1       21 0.10854642E+00 0.47039967E+03</pdfrwt>
<pdfrwt beam="2">  1       21 0.53069971E-01 0.47039967E+03</pdfrwt>
<totfact> 0.19390257E+03</totfact>
</mgrwt>
</event>
<event>
 4    1  0.1147209E-002  0.6064309E+03  0.7818608E-02  0.9892153E-01
         21   -1    0    0  503  502  0.00000000000E+00  0.00000000000E+00  0.17157329490E+04  0.17157329490E+04  0.00000000000E+00 0. -1.
         21   -1    0    0  501  503 -0.00000000000E+00 -0.00000000000E+00 -0.21814863320E+03  0.21814863320E+03  0.00000000000E+00 0.  1.
    9000007    1    1    2  501    0 -0.30585092141E+03 -0.33795513756E+03  0.62110902701E+03  0.86806387124E+03  0.40000000000E+03 0.  1.
   -9000007    1    1    2    0  502  0.30585092141E+03  0.33795513756E+03  0.87647528885E+03  0.10658177110E+04  0.40000000000E+03 0. -1.
<mgrwt>
<rscale>  2 0.60643092E+03</rscale>
<asrwt>0</asrwt>
<pdfrwt beam="1">  1       21 0.26395891E+00 0.60643092E+03</pdfrwt>
<pdfrwt beam="2">  1       21 0.33561329E-01 0.60643092E+03</pdfrwt>
<totfact> 0.35135242E+02</totfact>
</mgrwt>
</event>
<event>
 4    1  0.1147209E-002  0.5315383E+03  0.7818608E-02  0.1005860E+00
         21   -1    0    0  501  502  0.00000000000E+00  0.00000000000E+00  0.10536593234E+04  0.10536593234E+04  0.00000000000E+00 0.  1.
         21   -1    0    0  502  503 -0.00000000000E+00 -0.00000000000E+00 -0.31255182166E+03  0.31255182166E+03  0.00000000000E+00 0. -1.
    9000007    1    1    2  501    0 -0.92847541384E+02 -0.33750903387E+03  0.62803986672E+03  0.82278009704E+03  0.40000000000E+03 0.  1.
   -9000007    1    1    2    0  503  0.92847541384E+02  0.33750903387E+03  0.11306763503E+03  0.54343104804E+03  0.40000000000E+03 0. -1.
<mgrwt>
<rscale>  2 0.53153835E+03</rscale>
<asrwt>0</asrwt>
<pdfrwt beam="1">  1       21 0.16210143E+00 0.53153835E+03</pdfrwt>
<pdfrwt beam="2">  1       21 0.48084896E-01 0.53153835E+03</pdfrwt>
<totfact> 0.81574088E+02</totfact>
</mgrwt>
</event>
<event>
 4    1  0.1147209E-002  0.4786964E+03  0.7818608E-02  0.1019494E+00
         21   -1    0    0  501  502  0.00000000000E+00  0.00000000000E+00  0.18233573906E+03  0.18233573906E+03  0.00000000000E+00 0.  1.
         21   -1    0    0  502  503 -0.00000000000E+00 -0.00000000000E+00 -0.12747386789E+04  0.12747386789E+04  0.00000000000E+00 0.  1.
    9000007    1    1    2  501    0 -0.23093523627E+03  0.12577423408E+03 -0.45965408532E+03  0.66365060044E+03  0.40000000000E+03 0.  1.
   -9000007    1    1    2    0  503  0.23093523627E+03 -0.12577423408E+03 -0.63274885448E+03  0.79342381749E+03  0.40000000000E+03 0.  1.
<mgrwt>
<rscale>  2 0.47869640E+03</rscale>
<asrwt>0</asrwt>
<pdfrwt beam="1">  1       21 0.28051652E-01 0.47869640E+03</pdfrwt>
<pdfrwt beam="2">  1       21 0.19611365E+00 0.47869640E+03</pdfrwt>
<totfact> 0.14353205E+03</totfact>
</mgrwt>
</event>
<event>
 4    1  0.1147209E-002  0.4188282E+03  0.7818608E-02  0.1037448E+00
         21   -1    0    0  503  502  0.00000000000E+00  0.00000000000E+00  0.11116534681E+04  0.11116534681E+04  0.00000000000E+00 0. -1.
         21   -1    0    0  501  503 -0.00000000000E+00 -0.00000000000E+00 -0.16591925100E+03  0.16591925100E+03  0.00000000000E+00 0. -1.
    9000007    1    1    2  501    0 -0.72699993661E+02 -0.10065651895E+03  0.33154478297E+03  0.53417128994E+03  0.40000000000E+03 0. -1.
   -9000007    1    1    2    0  502  0.72699993661E+02  0.10065651895E+03  0.61418943418E+03  0.74340142921E+03  0.40000000000E+03 0. -1.
<mgrwt>
<rscale>  2 0.41882816E+03</rscale>
<asrwt>0</asrwt>
<pdfrwt beam="1">  1       21 0.17102361E+00 0.41882816E+03</pdfrwt>
<pdfrwt beam="2">  1       21 0.25526039E-01 0.41882816E+03</pdfrwt>
<totfact> 0.26500585E+03</totfact>
</mgrwt>
</event>
<event>
 4    1  0.1147209E-002  0.4278500E+03  0.7818608E-02  0.1034541E+00
         21   -1    0    0  503  502  0.00000000000E+00  0.00000000000E+00  0.21048473211E+04  0.21048473211E+04  0.00000000000E+00 0. -1.
         21   -1    0    0  501  503 -0.00000000000E+00 -0.00000000000E+00 -0.13901732970E+03  0.13901732970E+03  0.00000000000E+00 0. -1.
    9000007    1    1    2  501    0 -0.76690909621E+02 -0.13104999091E+03  0.29642009616E+03  0.52050021051E+03  0.40000000000E+03 0. -1.
   -9000007    1    1    2    0  502  0.76690909621E+02  0.13104999091E+03  0.16694098953E+04  0.17233644403E+04  0.40000000000E+03 0. -1.
<mgrwt>
<rscale>  2 0.42784997E+03</rscale>
<asrwt>0</asrwt>
<pdfrwt beam="1">  1       21 0.32382264E+00 0.42784997E+03</pdfrwt>
<pdfrwt beam="2">  1       21 0.21387283E-01 0.42784997E+03</pdfrwt>
<totfact> 0.40428584E+02</totfact>
</mgrwt>
</event>
<event>
 4    1  0.1147209E-002  0.4372918E+03  0.7818608E-02  0.1031581E+00
         21   -1    0    0  503  502  0.00000000000E+00  0.00000000000E+00  0.26163966081E+03  0.26163966081E+03  0.00000000000E+00 0.  1.
         21   -1    0    0  501  503 -0.00000000000E+00 -0.00000000000E+00 -0.74409512478E+03  0.74409512478E+03  0.00000000000E+00 0.  1.
    9000007    1    1    2  501    0  0.14656001615E+03 -0.98713234963E+02 -0.17418269907E+03  0.47070559137E+03  0.40000000000E+03 0.  1.
   -9000007    1    1    2    0  502 -0.14656001615E+03  0.98713234963E+02 -0.30827276490E+03  0.53502919422E+03  0.40000000000E+03 0.  1.
<mgrwt>
<rscale>  2 0.43729183E+03</rscale>
<asrwt>0</asrwt>
<pdfrwt beam="1">  1       21 0.40252256E-01 0.43729183E+03</pdfrwt>
<pdfrwt beam="2">  1       21 0.11447617E+00 0.43729183E+03</pdfrwt>
<totfact> 0.30760512E+03</totfact>
</mgrwt>
</event>
<event>
 4    1  0.1147209E-002  0.4145848E+03  0.7818608E-02  0.1038843E+00
         21   -1    0    0  501  502  0.00000000000E+00  0.00000000000E+00  0.31093938904E+03  0.31093938904E+03  0.00000000000E+00 0. -1.
         21   -1    0    0  502  503 -0.00000000000E+00 -0.00000000000E+00 -0.55800692467E+03  0.55800692467E+03  0.00000000000E+00 0.  1.
    9000007    1    1    2  501    0  0.46261506607E+00  0.10899692412E+03 -0.81476859551E+02  0.42251511467E+03  0.40000000000E+03 0. -1.
   -9000007    1    1    2    0  503 -0.46261506607E+00 -0.10899692412E+03 -0.16559067607E+03  0.44643119905E+03  0.40000000000E+03 0.  1.
<mgrwt>
<rscale>  2 0.41458478E+03</rscale>
<asrwt>0</asrwt>
<pdfrwt beam="1">  1       21 0.47836829E-01 0.41458478E+03</pdfrwt>
<pdfrwt beam="2">  1       21 0.85847219E-01 0.41458478E+03</pdfrwt>
<totfact> 0.43432689E+03</totfact>
</mgrwt>
</event>
<event>
 4    1  0.1147209E-002  0.5864123E+03  0.7818608E-02  0.9934004E-01
         21   -1    0    0  503  502  0.00000000000E+00  0.00000000000E+00  0.19214496254E+03  0.19214496254E+03  0.00000000000E+00 0.  1.
         21   -1    0    0  501  503 -0.00000000000E+00 -0.00000000000E+00 -0.18696077648E+04  0.18696077648E+04  0.00000000000E+00 0.  1.
    9000007    1    1    2  501    0 -0.42860784678E+03  0.13216879159E+02 -0.10518693160E+04  0.12042875198E+04  0.40000000000E+03 0.  1.
   -9000007    1    1    2    0  502  0.42860784678E+03 -0.13216879159E+02 -0.62559348624E+03  0.85746520760E+03  0.40000000000E+03 0.  1.
<mgrwt>
<rscale>  2 0.58641229E+03</rscale>
<asrwt>0</asrwt>
<pdfrwt beam="1">  1       21 0.29560763E-01 0.58641229E+03</pdfrwt>
<pdfrwt beam="2">  1       21 0.28763197E+00 0.58641229E+03</pdfrwt>
<totfact> 0.32758589E+02</totfact>
</mgrwt>
</event>
<event>
 4    1  0.1147209E-002  0.4379575E+03  0.7818608E-02  0.1031375E+00
         21   -1    0    0  503  502  0.00000000000E+00  0.00000000000E+00  0.11846678012E+04  0.11846678012E+04  0.00000000000E+00 0. -1.
         21   -1    0    0  501  503 -0.00000000000E+00 -0.00000000000E+00 -0.16570376859E+03  0.16570376859E+03  0.00000000000E+00 0. -1.
    9000007    1    1    2  501    0  0.14131232846E+03  0.10880064424E+03  0.40728735524E+03  0.59807168810E+03  0.40000000000E+03 0. -1.
   -9000007    1    1    2    0  502 -0.14131232846E+03 -0.10880064424E+03  0.61167667733E+03  0.75229988166E+03  0.40000000000E+03 0. -1.
<mgrwt>
<rscale>  2 0.43795748E+03</rscale>
<asrwt>0</asrwt>
<pdfrwt beam="1">  1       21 0.18225658E+00 0.43795748E+03</pdfrwt>
<pdfrwt beam="2">  1       21 0.25492888E-01 0.43795748E+03</pdfrwt>
<totfact> 0.21925668E+03</totfact>
</mgrwt>
</event>
<event>
 4    1  0.1147209E-002  0.4609094E+03  0.7818608E-02  0.1024518E+00
         21   -1    0    0  503  502  0.00000000000E+00  0.00000000000E+00  0.88535663506E+02  0.88535663506E+02  0.00000000000E+00 0.  1.
         21   -1    0    0  501  503 -0.00000000000E+00 -0.00000000000E+00 -0.25064318845E+04  0.25064318845E+04  0.00000000000E+00 0.  1.
    9000007    1    1    2  501    0  0.15058509575E+03  0.17251565030E+03 -0.94089872013E+03  0.10477251177E+04  0.40000000000E+03 0.  1.
   -9000007    1    1    2    0  502 -0.15058509575E+03 -0.17251565030E+03 -0.14769975008E+04  0.15472424303E+04  0.40000000000E+03 0.  1.
<mgrwt>
<rscale>  2 0.46090945E+03</rscale>
<asrwt>0</asrwt>
<pdfrwt beam="1">  1       21 0.13620872E-01 0.46090945E+03</pdfrwt>
<pdfrwt beam="2">  1       21 0.38560488E+00 0.46090945E+03</pdfrwt>
<totfact> 0.38416464E+02</totfact>
</mgrwt>
</event>
<event>
 4    1  0.1147209E-002  0.5235184E+03  0.7818608E-02  0.1007816E+00
         21   -1    0    0  501  502  0.00000000000E+00  0.00000000000E+00  0.43473727457E+03  0.43473727457E+03  0.00000000000E+00 0.  1.
         21   -1    0    0  502  503 -0.00000000000E+00 -0.00000000000E+00 -0.63418644928E+03  0.63418644928E+03  0.00000000000E+00 0. -1.
    9000007    1    1    2  501    0 -0.91677799857E+02  0.32506413524E+03 -0.14085706827E+03  0.54213672140E+03  0.40000000000E+03 0. -1.
   -9000007    1    1    2    0  503  0.91677799857E+02 -0.32506413524E+03 -0.58592106438E+02  0.52678700245E+03  0.40000000000E+03 0. -1.
<mgrwt>
<rscale>  2 0.52351840E+03</rscale>
<asrwt>0</asrwt>
<pdfrwt beam="1">  1       21 0.66882658E-01 0.52351840E+03</pdfrwt>
<pdfrwt beam="2">  1       21 0.97567146E-01 0.52351840E+03</pdfrwt>
<totfact> 0.14887656E+03</totfact>
</mgrwt>
</event>
<event>
 4    1  0.1147209E-002  0.4278615E+03  0.7818608E-02  0.1034538E+00
         21   -1    0    0  501  502  0.00000000000E+00  0.00000000000E+00  0.50213601602E+03  0.50213601602E+03  0.00000000000E+00 0. -1.
         21   -1    0    0  502  503 -0.00000000000E+00 -0.00000000000E+00 -0.46304227650E+03  0.46304227650E+03  0.00000000000E+00 0. -1.
    9000007    1    1    2  501    0  0.25485970444E+02 -0.14971942891E+03  0.24209127799E+03  0.49160312139E+03  0.40000000000E+03 0. -1.
   -9000007    1    1    2    0  503 -0.25485970444E+02  0.14971942891E+03 -0.20299753847E+03  0.47357517113E+03  0.40000000000E+03 0. -1.
<mgrwt>
<rscale>  2 0.42786148E+03</rscale>
<asrwt>0</asrwt>
<pdfrwt beam="1">  1       21 0.77251695E-01 0.42786148E+03</pdfrwt>
<pdfrwt beam="2">  1       21 0.71237273E-01 0.42786148E+03</pdfrwt>
<totfact> 0.23163522E+03</totfact>
</mgrwt>
</event>
<event>
 4    1  0.1147209E-002  0.4790607E+03  0.7818608E-02  0.1019394E+00
         21   -1    0    0  503  502  0.00000000000E+00  0.00000000000E+00  0.43284294651E+03  0.43284294651E+03  0.00000000000E+00 0. -1.
         21   -1    0    0  501  503 -0.00000000000E+00 -0.00000000000E+00 -0.58849800553E+03  0.58849800553E+03  0.00000000000E+00 0. -1.
    9000007    1    1    2  501    0  0.16781331276E+03 -0.20331701316E+03 -0.23853842039E+03  0.53516324032E+03  0.40000000000E+03 0. -1.
   -9000007    1    1    2    0  502 -0.16781331276E+03  0.20331701316E+03  0.82883361377E+02  0.48617771172E+03  0.40000000000E+03 0. -1.
<mgrwt>
<rscale>  2 0.47906066E+03</rscale>
<asrwt>0</asrwt>
<pdfrwt beam="1">  1       21 0.66591223E-01 0.47906066E+03</pdfrwt>
<pdfrwt beam="2">  1       21 0.90538155E-01 0.47906066E+03</pdfrwt>
<totfact> 0.18262396E+03</totfact>
</mgrwt>
</event>
<event>
 4    1  0.1147209E-002  0.5505246E+03  0.7818608E-02  0.1001373E+00
         21   -1    0    0  501  502  0.00000000000E+00  0.00000000000E+00  0.19287562741E+04  0.19287562741E+04  0.00000000000E+00 0.  1.
         21   -1    0    0  502  503 -0.00000000000E+00 -0.00000000000E+00 -0.15871181123E+03  0.15871181123E+03  0.00000000000E+00 0. -1.
    9000007    1    1    2  501    0 -0.26140404223E+03  0.27339571123E+03  0.78102542411E+03  0.95555115056E+03  0.40000000000E+03 0. -1.
   -9000007    1    1    2    0  503  0.26140404223E+03 -0.27339571123E+03  0.98901903872E+03  0.11319169347E+04  0.40000000000E+03 0.  1.
<mgrwt>
<rscale>  2 0.55052456E+03</rscale>
<asrwt>0</asrwt>
<pdfrwt beam="1">  1       21 0.29673172E+00 0.55052456E+03</pdfrwt>
<pdfrwt beam="2">  1       21 0.24417203E-01 0.55052456E+03</pdfrwt>
<totfact> 0.42725254E+02</totfact>
</mgrwt>
</event>
<event>
 4    1  0.1147209E-002  0.4760978E+03  0.7818608E-02  0.1020213E+00
         21   -1    0    0  501  502  0.00000000000E+00  0.00000000000E+00  0.39675425871E+03  0.39675425871E+03  0.00000000000E+00 0. -1.
         21   -1    0    0  502  503 -0.00000000000E+00 -0.00000000000E+00 -0.58821847975E+03  0.58821847975E+03  0.00000000000E+00 0. -1.
    9000007    1    1    2  501    0 -0.16389559991E+03 -0.19951788331E+03 -0.12230651651E+02  0.47625491312E+03  0.40000000000E+03 0. -1.
   -9000007    1    1    2    0  503  0.16389559991E+03  0.19951788331E+03 -0.17923356939E+03  0.50871782535E+03  0.40000000000E+03 0. -1.
<mgrwt>
<rscale>  2 0.47609784E+03</rscale>
<asrwt>0</asrwt>
<pdfrwt beam="1">  1       21 0.61039117E-01 0.47609784E+03</pdfrwt>
<pdfrwt beam="2">  1       21 0.90495150E-01 0.47609784E+03</pdfrwt>
<totfact> 0.22200288E+03</totfact>
</mgrwt>
</event>
<event>
 4    1  0.1147209E-002  0.4660010E+03  0.7818608E-02  0.1023055E+00
         21   -1    0    0  501  502  0.00000000000E+00  0.00000000000E+00  0.10210540388E+04  0.10210540388E+04  0.00000000000E+00 0. -1.
         21   -1    0    0  502  503 -0.00000000000E+00 -0.00000000000E+00 -0.21320797730E+03  0.21320797730E+03  0.00000000000E+00 0. -1.
    9000007    1    1    2  501    0  0.13683337644E+03  0.19604470014E+03  0.43465820486E+03  0.63724771668E+03  0.40000000000E+03 0. -1.
   -9000007    1    1    2    0  503 -0.13683337644E+03 -0.19604470014E+03  0.37318785661E+03  0.59701429939E+03  0.40000000000E+03 0. -1.
<mgrwt>
<rscale>  2 0.46600096E+03</rscale>
<asrwt>0</asrwt>
<pdfrwt beam="1">  1       21 0.15708523E+00 0.46600096E+03</pdfrwt>
<pdfrwt beam="2">  1       21 0.32801228E-01 0.46600096E+03</pdfrwt>
<totfact> 0.20102839E+03</totfact>
</mgrwt>
</event>
<event>
 4    1  0.1147209E-002  0.4213107E+03  0.7818608E-02  0.1036641E+00
         21   -1    0    0  503  502  0.00000000000E+00  0.00000000000E+00  0.83337113437E+03  0.83337113437E+03  0.00000000000E+00 0. -1.
         21   -1    0    0  501  503 -0.00000000000E+00 -0.00000000000E+00 -0.27714672686E+03  0.27714672686E+03  0.00000000000E+00 0. -1.
    9000007    1    1    2  501    0 -0.92542804723E+02 -0.94544020244E+02  0.10965702519E+02  0.42145342459E+03  0.40000000000E+03 0. -1.
   -9000007    1    1    2    0  502  0.92542804723E+02  0.94544020244E+02  0.54525870499E+03  0.68906443663E+03  0.40000000000E+03 0. -1.
<mgrwt>
<rscale>  2 0.42131074E+03</rscale>
<asrwt>0</asrwt>
<pdfrwt beam="1">  1       21 0.12821094E+00 0.42131074E+03</pdfrwt>
<pdfrwt beam="2">  1       21 0.42637958E-01 0.42131074E+03</pdfrwt>
<totfact> 0.20598336E+03</totfact>
</mgrwt>
</event>
<event>
 4    1  0.1147209E-002  0.4259943E+03  0.7818608E-02  0.1035133E+00
         21   -1    0    0  503  502  0.00000000000E+00  0.00000000000E+00  0.46737604719E+03  0.46737604719E+03  0.00000000000E+00 0.  1.
         21   -1    0    0  501  503 -0.00000000000E+00 -0.00000000000E+00 -0.40377681187E+03  0.40377681187E+03  0.00000000000E+00 0. -1.
    9000007    1    1    2  501    0  0.14000608729E+03  0.43237454298E+02  0.11714155907E+03  0.44180688858E+03  0.40000000000E+03 0.  1.
   -9000007    1    1    2    0  502 -0.14000608729E+03 -0.43237454298E+02 -0.53542323751E+02  0.42934597048E+03  0.40000000000E+03 0. -1.
<mgrwt>
<rscale>  2 0.42599434E+03</rscale>
<asrwt>0</asrwt>
<pdfrwt beam="1">  1       21 0.71904007E-01 0.42599434E+03</pdfrwt>
<pdfrwt beam="2">  1       21 0.62119509E-01 0.42599434E+03</pdfrwt>
<totfact> 0.37032089E+03</totfact>
</mgrwt>
</event>
<event>
 4    1  0.1147209E-002  0.5066153E+03  0.7818608E-02  0.1012067E+00
         21   -1    0    0  501  502  0.00000000000E+00  0.00000000000E+00  0.86614065072E+03  0.86614065072E+03  0.00000000000E+00 0. -1.
         21   -1    0    0  502  503 -0.00000000000E+00 -0.00000000000E+00 -0.37115959371E+03  0.37115959371E+03  0.00000000000E+00 0.  1.
    9000007    1    1    2  501    0  0.17546329522E+03 -0.25665483599E+03  0.52528023332E+03  0.72977969027E+03  0.40000000000E+03 0. -1.
   -9000007    1    1    2    0  503 -0.17546329522E+03  0.25665483599E+03 -0.30299176305E+02  0.50752055416E+03  0.40000000000E+03 0.  1.
<mgrwt>
<rscale>  2 0.50661531E+03</rscale>
<asrwt>0</asrwt>
<pdfrwt beam="1">  1       21 0.13325241E+00 0.50661531E+03</pdfrwt>
<pdfrwt beam="2">  1       21 0.57101476E-01 0.50661531E+03</pdfrwt>
<totfact> 0.96867920E+02</totfact>
</mgrwt>
</event>
<event>
 4    1  0.1147209E-002  0.5005198E+03  0.7818608E-02  0.1013643E+00
         21   -1    0    0  503  502  0.00000000000E+00  0.00000000000E+00  0.42028703430E+03  0.42028703430E+03  0.00000000000E+00 0. -1.
         21   -1    0    0  501  503 -0.00000000000E+00 -0.00000000000E+00 -0.66793237366E+03  0.66793237366E+03  0.00000000000E+00 0. -1.
    9000007    1    1    2  501    0 -0.24118765663E+03 -0.17985703938E+03  0.54651041687E+02  0.50349456470E+03  0.40000000000E+03 0. -1.
   -9000007    1    1    2    0  502  0.24118765663E+03  0.17985703938E+03 -0.30229638105E+03  0.58472484326E+03  0.40000000000E+03 0. -1.
<mgrwt>
<rscale>  2 0.50051977E+03</rscale>
<asrwt>0</asrwt>
<pdfrwt beam="1">  1       21 0.64659544E-01 0.50051977E+03</pdfrwt>
<pdfrwt beam="2">  1       21 0.10275883E+00 0.50051977E+03</pdfrwt>
<totfact> 0.14258098E+03</totfact>
</mgrwt>
</event>
<event>
 4    1  0.1147209E-002  0.4200463E+03  0.7818608E-02  0.1037051E+00
         21   -1    0    0  503  502  0.00000000000E+00  0.00000000000E+00  0.17412752324E+03  0.17412752324E+03  0.00000000000E+00 0. -1.
         21   -1    0    0  501  503 -0.00000000000E+00 -0.00000000000E+00 -0.18258991592E+04  0.18258991592E+04  0.00000000000E+00 0.  1.
    9000007    1    1    2  501    0  0.83430522456E+02  0.97356458746E+02 -0.14930188892E+04  0.15509817329E+04  0.40000000000E+03 0.  1.
   -9000007    1    1    2    0  502 -0.83430522456E+02 -0.97356458746E+02 -0.15875274674E+03  0.44904494957E+03  0.40000000000E+03 0. -1.
<mgrwt>
<rscale>  2 0.42004635E+03</rscale>
<asrwt>0</asrwt>
<pdfrwt beam="1">  1       21 0.26788849E-01 0.42004635E+03</pdfrwt>
<pdfrwt beam="2">  1       21 0.28090757E+00 0.42004635E+03</pdfrwt>
<totfact> 0.47554609E+02</totfact>
</mgrwt>
</event>
<event>
 4    1  0.1147209E-002  0.4354871E+03  0.7818608E-02  0.1032141E+00
         21   -1    0    0  501  502  0.00000000000E+00  0.00000000000E+00  0.12874033807E+04  0.12874033807E+04  0.00000000000E+00 0.  1.
         21   -1    0    0  502  503 -0.00000000000E+00 -0.00000000000E+00 -0.14731622056E+03  0.14731622056E+03  0.00000000000E+00 0.  1.
    9000007    1    1    2  501    0 -0.73789902885E+02 -0.15557652608E+03  0.57420919790E+03  0.72066997175E+03  0.40000000000E+03 0.  1.
   -9000007    1    1    2    0  503  0.73789902885E+02  0.15557652608E+03  0.56587796224E+03  0.71404962950E+03  0.40000000000E+03 0.  1.
<mgrwt>
<rscale>  2 0.43548709E+03</rscale>
<asrwt>0</asrwt>
<pdfrwt beam="1">  1       21 0.19806205E+00 0.43548709E+03</pdfrwt>
<pdfrwt beam="2">  1       21 0.22664035E-01 0.43548709E+03</pdfrwt>
<totfact> 0.21494230E+03</totfact>
</mgrwt>
</event>
<event>
 4    1  0.1147209E-002  0.4569562E+03  0.7818608E-02  0.1025668E+00
         21   -1    0    0  503  502  0.00000000000E+00  0.00000000000E+00  0.35054376313E+03  0.35054376313E+03  0.00000000000E+00 0. -1.
         21   -1    0    0  501  503 -0.00000000000E+00 -0.00000000000E+00 -0.59965268412E+03  0.59965268412E+03  0.00000000000E+00 0.  1.
    9000007    1    1    2  501    0  0.16308452858E+03 -0.14903832345E+03 -0.16326515075E+03  0.48524683901E+03  0.40000000000E+03 0. -1.
   -9000007    1    1    2    0  502 -0.16308452858E+03  0.14903832345E+03 -0.85843770230E+02  0.46494960824E+03  0.40000000000E+03 0.  1.
<mgrwt>
<rscale>  2 0.45695622E+03</rscale>
<asrwt>0</asrwt>
<pdfrwt beam="1">  1       21 0.53929810E-01 0.45695622E+03</pdfrwt>
<pdfrwt beam="2">  1       21 0.92254258E-01 0.45695622E+03</pdfrwt>
<totfact> 0.27954927E+03</totfact>
</mgrwt>
</event>
<event>
 4    1  0.1147209E-002  0.4344738E+03  0.7818608E-02  0.1032456E+00
         21   -1    0    0  501  502  0.00000000000E+00  0.00000000000E+00  0.17266290656E+03  0.17266290656E+03  0.00000000000E+00 0.  1.
         21   -1    0    0  502  503 -0.00000000000E+00 -0.00000000000E+00 -0.11074345047E+04  0.11074345047E+04  0.00000000000E+00 0.  1.
    9000007    1    1    2  501    0  0.16297857213E+03 -0.46962231461E+02 -0.39500407581E+03  0.58719305689E+03  0.40000000000E+03 0.  1.
   -9000007    1    1    2    0  503 -0.16297857213E+03  0.46962231461E+02 -0.53976752237E+03  0.69290435441E+03  0.40000000000E+03 0.  1.
<mgrwt>
<rscale>  2 0.43447378E+03</rscale>
<asrwt>0</asrwt>
<pdfrwt beam="1">  1       21 0.26563525E-01 0.43447378E+03</pdfrwt>
<pdfrwt beam="2">  1       21 0.17037453E+00 0.43447378E+03</pdfrwt>
<totfact> 0.24623581E+03</totfact>
</mgrwt>
</event>
<event>
 4    1  0.1147209E-002  0.7481589E+03  0.7818608E-02  0.9638243E-01
         21   -1    0    0  503  502  0.00000000000E+00  0.00000000000E+00  0.13608402291E+04  0.13608402291E+04  0.00000000000E+00 0. -1.
         21   -1    0    0  501  503 -0.00000000000E+00 -0.00000000000E+00 -0.42536306018E+03  0.42536306018E+03  0.00000000000E+00 0.  1.
    9000007    1    1    2  501    0 -0.58916357286E+03 -0.22940794733E+03  0.30546738712E+03  0.80811635702E+03  0.40000000000E+03 0. -1.
   -9000007    1    1    2    0  502  0.58916357286E+03  0.22940794733E+03  0.63000978176E+03  0.97808693223E+03  0.40000000000E+03 0.  1.
<mgrwt>
<rscale>  2 0.74815889E+03</rscale>
<asrwt>0</asrwt>
<pdfrwt beam="1">  1       21 0.20936003E+00 0.74815889E+03</pdfrwt>
<pdfrwt beam="2">  1       21 0.65440471E-01 0.74815889E+03</pdfrwt>
<totfact> 0.17960259E+02</totfact>
</mgrwt>
</event>
<event>
 4    1  0.1147209E-002  0.6604479E+03  0.7818608E-02  0.9787370E-01
         21   -1    0    0  501  502  0.00000000000E+00  0.00000000000E+00  0.63508763334E+03  0.63508763334E+03  0.00000000000E+00 0.  1.
         21   -1    0    0  502  503 -0.00000000000E+00 -0.00000000000E+00 -0.73158828190E+03  0.73158828190E+03  0.00000000000E+00 0. -1.
    9000007    1    1    2  501    0 -0.48554047778E+03  0.20110168242E+03  0.12078721358E+03  0.67140225885E+03  0.40000000000E+03 0.  1.
   -9000007    1    1    2    0  503  0.48554047778E+03 -0.20110168242E+03 -0.21728786213E+03  0.69527365638E+03  0.40000000000E+03 0. -1.
<mgrwt>
<rscale>  2 0.66044791E+03</rscale>
<asrwt>0</asrwt>
<pdfrwt beam="1">  1       21 0.97705790E-01 0.66044791E+03</pdfrwt>
<pdfrwt beam="2">  1       21 0.11255204E+00 0.66044791E+03</pdfrwt>
<totfact> 0.41338971E+02</totfact>
</mgrwt>
</event>
<event>
 4    1  0.1147209E-002  0.5057153E+03  0.7818608E-02  0.1012298E+00
         21   -1    0    0  503  502  0.00000000000E+00  0.00000000000E+00  0.15868683878E+03  0.15868683878E+03  0.00000000000E+00 0. -1.
         21   -1    0    0  501  503 -0.00000000000E+00 -0.00000000000E+00 -0.19476212440E+04  0.19476212440E+04  0.00000000000E+00 0.  1.
    9000007    1    1    2  501    0  0.30325554663E+03  0.61514248923E+02 -0.13318780384E+04  0.14246568143E+04  0.40000000000E+03 0. -1.
   -9000007    1    1    2    0  502 -0.30325554663E+03 -0.61514248923E+02 -0.45705636684E+03  0.68165126850E+03  0.40000000000E+03 0. -1.
<mgrwt>
<rscale>  2 0.50571527E+03</rscale>
<asrwt>0</asrwt>
<pdfrwt beam="1">  1       21 0.24413358E-01 0.50571527E+03</pdfrwt>
<pdfrwt beam="2">  1       21 0.29963407E+00 0.50571527E+03</pdfrwt>
<totfact> 0.41932730E+02</totfact>
</mgrwt>
</event>
<event>
 4    1  0.1147209E-002  0.4178731E+03  0.7818608E-02  0.1037761E+00
         21   -1    0    0  501  502  0.00000000000E+00  0.00000000000E+00  0.13638055901E+04  0.13638055901E+04  0.00000000000E+00 0. -1.
         21   -1    0    0  502  503 -0.00000000000E+00 -0.00000000000E+00 -0.12820170768E+03  0.12820170768E+03  0.00000000000E+00 0. -1.
    9000007    1    1    2  501    0  0.14489479552E+02 -0.12003329697E+03  0.64451980049E+03  0.76813000893E+03  0.40000000000E+03 0.  1.
   -9000007    1    1    2    0  503 -0.14489479552E+02  0.12003329697E+03  0.59108408197E+03  0.72387728888E+03  0.40000000000E+03 0.  1.
<mgrwt>
<rscale>  2 0.41787311E+03</rscale>
<asrwt>0</asrwt>
<pdfrwt beam="1">  1       21 0.20981623E+00 0.41787311E+03</pdfrwt>
<pdfrwt beam="2">  1       21 0.19723341E-01 0.41787311E+03</pdfrwt>
<totfact> 0.23638762E+03</totfact>
</mgrwt>
</event>
<event>
 4    1  0.1147209E-002  0.4906514E+03  0.7818608E-02  0.1016248E+00
         21   -1    0    0  503  502  0.00000000000E+00  0.00000000000E+00  0.13245784541E+04  0.13245784541E+04  0.00000000000E+00 0. -1.
         21   -1    0    0  501  503 -0.00000000000E+00 -0.00000000000E+00 -0.30770541273E+03  0.30770541273E+03  0.00000000000E+00 0. -1.
    9000007    1    1    2  501    0  0.19253289103E+03  0.20897348467E+03 -0.13732185406E+02  0.49084356402E+03  0.40000000000E+03 0. -1.
   -9000007    1    1    2    0  502 -0.19253289103E+03 -0.20897348467E+03  0.10306052267E+04  0.11414403028E+04  0.40000000000E+03 0. -1.
<mgrwt>
<rscale>  2 0.49065144E+03</rscale>
<asrwt>0</asrwt>
<pdfrwt beam="1">  1       21 0.20378130E+00 0.49065144E+03</pdfrwt>
<pdfrwt beam="2">  1       21 0.47339295E-01 0.49065144E+03</pdfrwt>
<totfact> 0.43624067E+02</totfact>
</mgrwt>
</event>
<event>
 4    1  0.1147209E-002  0.5482874E+03  0.7818608E-02  0.1001891E+00
         21   -1    0    0  503  502  0.00000000000E+00  0.00000000000E+00  0.86402386874E+03  0.86402386874E+03  0.00000000000E+00 0. -1.
         21   -1    0    0  501  503 -0.00000000000E+00 -0.00000000000E+00 -0.39456529187E+03  0.39456529187E+03  0.00000000000E+00 0. -1.
    9000007    1    1    2  501    0 -0.12904564784E+03 -0.35208844505E+03  0.18379705127E+02  0.54859535719E+03  0.40000000000E+03 0. -1.
   -9000007    1    1    2    0  502  0.12904564784E+03  0.35208844505E+03  0.45107887174E+03  0.70999380342E+03  0.40000000000E+03 0. -1.
<mgrwt>
<rscale>  2 0.54828738E+03</rscale>
<asrwt>0</asrwt>
<pdfrwt beam="1">  1       21 0.13292675E+00 0.54828738E+03</pdfrwt>
<pdfrwt beam="2">  1       21 0.60702353E-01 0.54828738E+03</pdfrwt>
<totfact> 0.83996863E+02</totfact>
</mgrwt>
</event>
<event>
 4    1  0.1147209E-002  0.4790079E+03  0.7818608E-02  0.1019408E+00
         21   -1    0    0  501  502  0.00000000000E+00  0.00000000000E+00  0.74165953833E+03  0.74165953833E+03  0.00000000000E+00 0.  1.
         21   -1    0    0  502  503 -0.00000000000E+00 -0.00000000000E+00 -0.31182896878E+03  0.31182896878E+03  0.00000000000E+00 0.  1.
    9000007    1    1    2  501    0 -0.24912940736E+03 -0.85924933753E+02  0.16815706796E+03  0.50766657892E+03  0.40000000000E+03 0.  1.
   -9000007    1    1    2    0  503  0.24912940736E+03  0.85924933753E+02  0.26167350159E+03  0.54582192818E+03  0.40000000000E+03 0.  1.
<mgrwt>
<rscale>  2 0.47900789E+03</rscale>
<asrwt>0</asrwt>
<pdfrwt beam="1">  1       21 0.11410147E+00 0.47900789E+03</pdfrwt>
<pdfrwt beam="2">  1       21 0.47973688E-01 0.47900789E+03</pdfrwt>
<totfact> 0.21172217E+03</totfact>
</mgrwt>
</event>
<event>
 4    1  0.1147209E-002  0.5291902E+03  0.7818608E-02  0.1006429E+00
         21   -1    0    0  501  502  0.00000000000E+00  0.00000000000E+00  0.15197700698E+04  0.15197700698E+04  0.00000000000E+00 0.  1.
         21   -1    0    0  502  503 -0.00000000000E+00 -0.00000000000E+00 -0.18843745411E+03  0.18843745411E+03  0.00000000000E+00 0.  1.
    9000007    1    1    2  501    0 -0.28526603382E+03 -0.19663555263E+03  0.53859119126E+03  0.75506471372E+03  0.40000000000E+03 0.  1.
   -9000007    1    1    2    0  503  0.28526603382E+03  0.19663555263E+03  0.79274142446E+03  0.95314281021E+03  0.40000000000E+03 0.  1.
<mgrwt>
<rscale>  2 0.52919018E+03</rscale>
<asrwt>0</asrwt>
<pdfrwt beam="1">  1       21 0.23381077E+00 0.52919018E+03</pdfrwt>
<pdfrwt beam="2">  1       21 0.28990379E-01 0.52919018E+03</pdfrwt>
<totfact> 0.74908321E+02</totfact>
</mgrwt>
</event>
<event>
 4    1  0.1147209E-002  0.4688925E+03  0.7818608E-02  0.1022233E+00
         21   -1    0    0  501  502  0.00000000000E+00  0.00000000000E+00  0.58334371684E+03  0.58334371684E+03  0.00000000000E+00 0. -1.
         21   -1    0    0  502  503 -0.00000000000E+00 -0.00000000000E+00 -0.37726697625E+03  0.37726697625E+03  0.00000000000E+00 0.  1.
    9000007    1    1    2  501    0 -0.21690995722E+03  0.11318234797E+03  0.11809074772E+03  0.48353448494E+03  0.40000000000E+03 0. -1.
   -9000007    1    1    2    0  503  0.21690995722E+03 -0.11318234797E+03  0.87985992869E+02  0.47707620814E+03  0.40000000000E+03 0. -1.
<mgrwt>
<rscale>  2 0.46889250E+03</rscale>
<asrwt>0</asrwt>
<pdfrwt beam="1">  1       21 0.89745187E-01 0.46889250E+03</pdfrwt>
<pdfrwt beam="2">  1       21 0.58041073E-01 0.46889250E+03</pdfrwt>
<totfact> 0.25348996E+03</totfact>
</mgrwt>
</event>
<event>
 4    1  0.1147209E-002  0.4396525E+03  0.7818608E-02  0.1030853E+00
         21   -1    0    0  503  502  0.00000000000E+00  0.00000000000E+00  0.28659015961E+03  0.28659015961E+03  0.00000000000E+00 0.  1.
         21   -1    0    0  501  503 -0.00000000000E+00 -0.00000000000E+00 -0.71627733229E+03  0.71627733229E+03  0.00000000000E+00 0.  1.
    9000007    1    1    2  501    0  0.10889530718E+02 -0.18214220347E+03 -0.33599744560E+03  0.55334315538E+03  0.40000000000E+03 0. -1.
   -9000007    1    1    2    0  502 -0.10889530718E+02  0.18214220347E+03 -0.93689727088E+02  0.44952433652E+03  0.40000000000E+03 0. -1.
<mgrwt>
<rscale>  2 0.43965255E+03</rscale>
<asrwt>0</asrwt>
<pdfrwt beam="1">  1       21 0.44090794E-01 0.43965255E+03</pdfrwt>
<pdfrwt beam="2">  1       21 0.11019651E+00 0.43965255E+03</pdfrwt>
<totfact> 0.27972653E+03</totfact>
</mgrwt>
</event>
<event>
 4    1  0.1147209E-002  0.4582137E+03  0.7818608E-02  0.1025301E+00
         21   -1    0    0  501  502  0.00000000000E+00  0.00000000000E+00  0.26143477664E+03  0.26143477664E+03  0.00000000000E+00 0. -1.
         21   -1    0    0  502  503 -0.00000000000E+00 -0.00000000000E+00 -0.86793962761E+03  0.86793962761E+03  0.00000000000E+00 0. -1.
    9000007    1    1    2  501    0  0.14389749233E+03 -0.17103606482E+03 -0.14891774526E+03  0.48180527044E+03  0.40000000000E+03 0. -1.
   -9000007    1    1    2    0  503 -0.14389749233E+03  0.17103606482E+03 -0.45758710570E+03  0.64756913381E+03  0.40000000000E+03 0. -1.
<mgrwt>
<rscale>  2 0.45821373E+03</rscale>
<asrwt>0</asrwt>
<pdfrwt beam="1">  1       21 0.40220734E-01 0.45821373E+03</pdfrwt>
<pdfrwt beam="2">  1       21 0.13352918E+00 0.45821373E+03</pdfrwt>
<totfact> 0.20612541E+03</totfact>
</mgrwt>
</event>
<event>
 4    1  0.1147209E-002  0.4735151E+03  0.7818608E-02  0.1020933E+00
         21   -1    0    0  503  502  0.00000000000E+00  0.00000000000E+00  0.27748960040E+03  0.27748960040E+03  0.00000000000E+00 0.  1.
         21   -1    0    0  501  503 -0.00000000000E+00 -0.00000000000E+00 -0.84852639085E+03  0.84852639085E+03  0.00000000000E+00 0. -1.
    9000007    1    1    2  501    0 -0.25281766448E+03  0.17314083193E+02 -0.40853258536E+03  0.62539221473E+03  0.40000000000E+03 0. -1.
   -9000007    1    1    2    0  502  0.25281766448E+03 -0.17314083193E+02 -0.16250420509E+03  0.50062377652E+03  0.40000000000E+03 0. -1.
<mgrwt>
<rscale>  2 0.47351510E+03</rscale>
<asrwt>0</asrwt>
<pdfrwt beam="1">  1       21 0.42690708E-01 0.47351510E+03</pdfrwt>
<pdfrwt beam="2">  1       21 0.13054252E+00 0.47351510E+03</pdfrwt>
<totfact> 0.19213115E+03</totfact>
</mgrwt>
</event>
<event>
 4    1  0.1147209E-002  0.4032155E+03  0.7818608E-02  0.1042672E+00
         21   -1    0    0  501  502  0.00000000000E+00  0.00000000000E+00  0.20868142157E+03  0.20868142157E+03  0.00000000000E+00 0. -1.
         21   -1    0    0  502  503 -0.00000000000E+00 -0.00000000000E+00 -0.79384642975E+03  0.79384642975E+03  0.00000000000E+00 0. -1.
    9000007    1    1    2  501    0  0.50795812834E+02 -0.15852941958E+01 -0.22425273924E+03  0.46138055748E+03  0.40000000000E+03 0. -1.
   -9000007    1    1    2    0  503 -0.50795812834E+02  0.15852941958E+01 -0.36091226895E+03  0.54114729385E+03  0.40000000000E+03 0. -1.
<mgrwt>
<rscale>  2 0.40321549E+03</rscale>
<asrwt>0</asrwt>
<pdfrwt beam="1">  1       21 0.32104833E-01 0.40321549E+03</pdfrwt>
<pdfrwt beam="2">  1       21 0.12213022E+00 0.40321549E+03</pdfrwt>
<totfact> 0.41873085E+03</totfact>
</mgrwt>
</event>
<event>
 4    1  0.1147209E-002  0.4196581E+03  0.7818608E-02  0.1037178E+00
         21   -1    0    0  503  502  0.00000000000E+00  0.00000000000E+00  0.91063687710E+02  0.91063687710E+02  0.00000000000E+00 0. -1.
         21   -1    0    0  501  503 -0.00000000000E+00 -0.00000000000E+00 -0.20623526516E+04  0.20623526516E+04  0.00000000000E+00 0. -1.
    9000007    1    1    2  501    0 -0.21757470318E+02  0.12505800264E+03 -0.12543016766E+04  0.13226434090E+04  0.40000000000E+03 0.  1.
   -9000007    1    1    2    0  502  0.21757470318E+02 -0.12505800264E+03 -0.71698728728E+03  0.83077293026E+03  0.40000000000E+03 0.  1.
<mgrwt>
<rscale>  2 0.41965807E+03</rscale>
<asrwt>0</asrwt>
<pdfrwt beam="1">  1       21 0.14009798E-01 0.41965807E+03</pdfrwt>
<pdfrwt beam="2">  1       21 0.31728502E+00 0.41965807E+03</pdfrwt>
<totfact> 0.98386052E+02</totfact>
</mgrwt>
</event>
<event>
 4    1  0.1147209E-002  0.4142101E+03  0.7818608E-02  0.1038967E+00
         21   -1    0    0  501  502  0.00000000000E+00  0.00000000000E+00  0.71634488156E+03  0.71634488156E+03  0.00000000000E+00 0. -1.
         21   -1    0    0  502  503 -0.00000000000E+00 -0.00000000000E+00 -0.40212742560E+03  0.40212742560E+03  0.00000000000E+00 0. -1.
    9000007    1    1    2  501    0  0.10461755690E+03  0.25003289361E+02  0.51274022982E+03  0.65914531097E+03  0.40000000000E+03 0. -1.
   -9000007    1    1    2    0  503 -0.10461755690E+03 -0.25003289361E+02 -0.19852277386E+03  0.45932699620E+03  0.40000000000E+03 0. -1.
<mgrwt>
<rscale>  2 0.41421009E+03</rscale>
<asrwt>0</asrwt>
<pdfrwt beam="1">  1       21 0.11020691E+00 0.41421009E+03</pdfrwt>
<pdfrwt beam="2">  1       21 0.61865758E-01 0.41421009E+03</pdfrwt>
<totfact> 0.13683159E+03</totfact>
</mgrwt>
</event>
<event>
 4    1  0.1147209E-002  0.4474802E+03  0.7818608E-02  0.1028476E+00
         21   -1    0    0  501  502  0.00000000000E+00  0.00000000000E+00  0.42327060111E+03  0.42327060111E+03  0.00000000000E+00 0. -1.
         21   -1    0    0  502  503 -0.00000000000E+00 -0.00000000000E+00 -0.51467864908E+03  0.51467864908E+03  0.00000000000E+00 0. -1.
    9000007    1    1    2  501    0 -0.55501192354E+02  0.19276454165E+03  0.87632555079E+02  0.45598027981E+03  0.40000000000E+03 0. -1.
   -9000007    1    1    2    0  503  0.55501192354E+02 -0.19276454165E+03 -0.17904060305E+03  0.48196897038E+03  0.40000000000E+03 0. -1.
<mgrwt>
<rscale>  2 0.44748022E+03</rscale>
<asrwt>0</asrwt>
<pdfrwt beam="1">  1       21 0.65118554E-01 0.44748022E+03</pdfrwt>
<pdfrwt beam="2">  1       21 0.79181331E-01 0.44748022E+03</pdfrwt>
<totfact> 0.26566869E+03</totfact>
</mgrwt>
</event>
<event>
 4    1  0.1147209E-002  0.4281103E+03  0.7818608E-02  0.1034459E+00
         21   -1    0    0  503  502  0.00000000000E+00  0.00000000000E+00  0.68625441950E+03  0.68625441950E+03  0.00000000000E+00 0.  1.
         21   -1    0    0  501  503 -0.00000000000E+00 -0.00000000000E+00 -0.26746473950E+03  0.26746473950E+03  0.00000000000E+00 0.  1.
    9000007    1    1    2  501    0 -0.13805917306E+03  0.64946713545E+02  0.19109037267E+03  0.46882186531E+03  0.40000000000E+03 0.  1.
   -9000007    1    1    2    0  502  0.13805917306E+03 -0.64946713545E+02  0.22769930733E+03  0.48489729369E+03  0.40000000000E+03 0.  1.
<mgrwt>
<rscale>  2 0.42811028E+03</rscale>
<asrwt>0</asrwt>
<pdfrwt beam="1">  1       21 0.10557760E+00 0.42811028E+03</pdfrwt>
<pdfrwt beam="2">  1       21 0.41148422E-01 0.42811028E+03</pdfrwt>
<totfact> 0.36043888E+03</totfact>
</mgrwt>
</event>
<event>
 4    1  0.1147209E-002  0.4159583E+03  0.7818608E-02  0.1038390E+00
         21   -1    0    0  501  502  0.00000000000E+00  0.00000000000E+00  0.58648324775E+03  0.58648324775E+03  0.00000000000E+00 0. -1.
         21   -1    0    0  502  503 -0.00000000000E+00 -0.00000000000E+00 -0.30617805880E+03  0.30617805880E+03  0.00000000000E+00 0.  1.
    9000007    1    1    2  501    0 -0.99383775001E+02  0.56073086686E+02  0.22537666399E+03  0.47309192178E+03  0.40000000000E+03 0. -1.
   -9000007    1    1    2    0  503  0.99383775001E+02 -0.56073086686E+02  0.54928524957E+02  0.41956938477E+03  0.40000000000E+03 0.  1.
<mgrwt>
<rscale>  2 0.41595832E+03</rscale>
<asrwt>0</asrwt>
<pdfrwt beam="1">  1       21 0.90228192E-01 0.41595832E+03</pdfrwt>
<pdfrwt beam="2">  1       21 0.47104317E-01 0.41595832E+03</pdfrwt>
<totfact> 0.39890511E+03</totfact>
</mgrwt>
</event>
<event>
 4    1  0.1147209E-002  0.5892582E+03  0.7818608E-02  0.9927946E-01
         21   -1    0    0  503  502  0.00000000000E+00  0.00000000000E+00  0.16001373992E+04  0.16001373992E+04  0.00000000000E+00 0.  1.
         21   -1    0    0  501  503 -0.00000000000E+00 -0.00000000000E+00 -0.34602271329E+03  0.34602271329E+03  0.00000000000E+00 0. -1.
    9000007    1    1    2  501    0  0.32109354187E+02 -0.43150227087E+03  0.32855237300E+02  0.59017343807E+03  0.40000000000E+03 0. -1.
   -9000007    1    1    2    0  502 -0.32109354187E+02  0.43150227087E+03  0.12212594486E+04  0.13559866745E+04  0.40000000000E+03 0.  1.
<mgrwt>
<rscale>  2 0.58925820E+03</rscale>
<asrwt>0</asrwt>
<pdfrwt beam="1">  1       21 0.24617498E+00 0.58925820E+03</pdfrwt>
<pdfrwt beam="2">  1       21 0.53234265E-01 0.58925820E+03</pdfrwt>
<totfact> 0.17389664E+02</totfact>
</mgrwt>
</event>
<event>
 4    1  0.1147209E-002  0.4232864E+03  0.7818608E-02  0.1036002E+00
         21   -1    0    0  501  502  0.00000000000E+00  0.00000000000E+00  0.15775179797E+04  0.15775179797E+04  0.00000000000E+00 0. -1.
         21   -1    0    0  502  503 -0.00000000000E+00 -0.00000000000E+00 -0.13104448856E+03  0.13104448856E+03  0.00000000000E+00 0.  1.
    9000007    1    1    2  501    0 -0.13269525399E+03 -0.39539016488E+02  0.10351214484E+04  0.11183236460E+04  0.40000000000E+03 0. -1.
   -9000007    1    1    2    0  503  0.13269525399E+03  0.39539016488E+02  0.41135204281E+03  0.59023882233E+03  0.40000000000E+03 0.  1.
<mgrwt>
<rscale>  2 0.42328639E+03</rscale>
<asrwt>0</asrwt>
<pdfrwt beam="1">  1       21 0.24269506E+00 0.42328639E+03</pdfrwt>
<pdfrwt beam="2">  1       21 0.20160692E-01 0.42328639E+03</pdfrwt>
<totfact> 0.14016167E+03</totfact>
</mgrwt>
</event>
<event>
 4    1  0.1147209E-002  0.5678764E+03  0.7818608E-02  0.9974389E-01
         21   -1    0    0  503  502  0.00000000000E+00  0.00000000000E+00  0.16881314517E+04  0.16881314517E+04  0.00000000000E+00 0.  1.
         21   -1    0    0  501  503 -0.00000000000E+00 -0.00000000000E+00 -0.22094035445E+03  0.22094035445E+03  0.00000000000E+00 0.  1.
    9000007    1    1    2  501    0  0.23082893118E+03  0.33045667370E+03  0.38238614314E+03  0.68461870492E+03  0.40000000000E+03 0.  1.
   -9000007    1    1    2    0  502 -0.23082893118E+03 -0.33045667370E+03  0.10848049541E+04  0.12244531012E+04  0.40000000000E+03 0.  1.
<mgrwt>
<rscale>  2 0.56787640E+03</rscale>
<asrwt>0</asrwt>
<pdfrwt beam="1">  1       21 0.25971252E+00 0.56787640E+03</pdfrwt>
<pdfrwt beam="2">  1       21 0.33990825E-01 0.56787640E+03</pdfrwt>
<totfact> 0.36953754E+02</totfact>
</mgrwt>
</event>
<event>
 4    1  0.1147209E-002  0.5057405E+03  0.7818608E-02  0.1012291E+00
         21   -1    0    0  503  502  0.00000000000E+00  0.00000000000E+00  0.38587026581E+03  0.38587026581E+03  0.00000000000E+00 0.  1.
         21   -1    0    0  501  503 -0.00000000000E+00 -0.00000000000E+00 -0.96935813431E+03  0.96935813431E+03  0.00000000000E+00 0.  1.
    9000007    1    1    2  501    0 -0.13497702860E+03  0.27848643464E+03 -0.67277685260E+03  0.84166631507E+03  0.40000000000E+03 0. -1.
   -9000007    1    1    2    0  502  0.13497702860E+03 -0.27848643464E+03  0.89288984087E+02  0.51356208506E+03  0.40000000000E+03 0. -1.
<mgrwt>
<rscale>  2 0.50574054E+03</rscale>
<asrwt>0</asrwt>
<pdfrwt beam="1">  1       21 0.59364657E-01 0.50574054E+03</pdfrwt>
<pdfrwt beam="2">  1       21 0.14913202E+00 0.50574054E+03</pdfrwt>
<totfact> 0.65868632E+02</totfact>
</mgrwt>
</event>
<event>
 4    1  0.1147209E-002  0.5259866E+03  0.7818608E-02  0.1007210E+00
         21   -1    0    0  503  502  0.00000000000E+00  0.00000000000E+00  0.18739100521E+03  0.18739100521E+03  0.00000000000E+00 0.  1.
         21   -1    0    0  501  503 -0.00000000000E+00 -0.00000000000E+00 -0.16416333910E+04  0.16416333910E+04  0.00000000000E+00 0.  1.
    9000007    1    1    2  501    0  0.15390129500E+03 -0.30492008747E+03 -0.10172666883E+04  0.11452045160E+04  0.40000000000E+03 0.  1.
   -9000007    1    1    2    0  502 -0.15390129500E+03  0.30492008747E+03 -0.43697569742E+03  0.68381988014E+03  0.40000000000E+03 0.  1.
<mgrwt>
<rscale>  2 0.52598657E+03</rscale>
<asrwt>0</asrwt>
<pdfrwt beam="1">  1       21 0.28829386E-01 0.52598657E+03</pdfrwt>
<pdfrwt beam="2">  1       21 0.25255898E+00 0.52598657E+03</pdfrwt>
<totfact> 0.57952637E+02</totfact>
</mgrwt>
</event>
<event>
 4    1  0.1147209E-002  0.6216154E+03  0.7818608E-02  0.9861549E-01
         21   -1    0    0  503  502  0.00000000000E+00  0.00000000000E+00  0.36841918493E+03  0.36841918493E+03  0.00000000000E+00 0.  1.
         21   -1    0    0  501  503 -0.00000000000E+00 -0.00000000000E+00 -0.10627604734E+04  0.10627604734E+04  0.00000000000E+00 0. -1.
    9000007    1    1    2  501    0 -0.36517514061E+03  0.30504552814E+03 -0.42912550892E+03  0.75535048816E+03  0.40000000000E+03 0.  1.
   -9000007    1    1    2    0  502  0.36517514061E+03 -0.30504552814E+03 -0.26521577959E+03  0.67582917021E+03  0.40000000000E+03 0. -1.
<mgrwt>
<rscale>  2 0.62161536E+03</rscale>
<asrwt>0</asrwt>
<pdfrwt beam="1">  1       21 0.56679875E-01 0.62161536E+03</pdfrwt>
<pdfrwt beam="2">  1       21 0.16350161E+00 0.62161536E+03</pdfrwt>
<totfact> 0.54148452E+02</totfact>
</mgrwt>
</event>
<event>
 4    1  0.1147209E-002  0.4962579E+03  0.7818608E-02  0.1014760E+00
         21   -1    0    0  503  502  0.00000000000E+00  0.00000000000E+00  0.10569460849E+04  0.10569460849E+04  0.00000000000E+00 0.  1.
         21   -1    0    0  501  503 -0.00000000000E+00 -0.00000000000E+00 -0.40554687300E+03  0.40554687300E+03  0.00000000000E+00 0. -1.
    9000007    1    1    2  501    0  0.17344164922E+03 -0.23704400189E+03 -0.15127221903E+03  0.51880164684E+03  0.40000000000E+03 0. -1.
   -9000007    1    1    2    0  502 -0.17344164922E+03  0.23704400189E+03  0.80267143094E+03  0.94369131106E+03  0.40000000000E+03 0.  1.
<mgrwt>
<rscale>  2 0.49625786E+03</rscale>
<asrwt>0</asrwt>
<pdfrwt beam="1">  1       21 0.16260709E+00 0.49625786E+03</pdfrwt>
<pdfrwt beam="2">  1       21 0.62391827E-01 0.49625786E+03</pdfrwt>
<totfact> 0.46651201E+02</totfact>
</mgrwt>
</event>
<event>
 4    1  0.1147209E-002  0.4938045E+03  0.7818608E-02  0.1015409E+00
         21   -1    0    0  503  502  0.00000000000E+00  0.00000000000E+00  0.12324833846E+03  0.12324833846E+03  0.00000000000E+00 0. -1.
         21   -1    0    0  501  503 -0.00000000000E+00 -0.00000000000E+00 -0.26618436280E+04  0.26618436280E+04  0.00000000000E+00 0. -1.
    9000007    1    1    2  501    0 -0.15146444172E+03  0.24678215955E+03 -0.56371486522E+03  0.74941134275E+03  0.40000000000E+03 0. -1.
   -9000007    1    1    2    0  502  0.15146444172E+03 -0.24678215955E+03 -0.19748804243E+04  0.20356806237E+04  0.40000000000E+03 0. -1.
<mgrwt>
<rscale>  2 0.49380453E+03</rscale>
<asrwt>0</asrwt>
<pdfrwt beam="1">  1       21 0.18961285E-01 0.49380453E+03</pdfrwt>
<pdfrwt beam="2">  1       21 0.40951436E+00 0.49380453E+03</pdfrwt>
<totfact> 0.14247022E+02</totfact>
</mgrwt>
</event>
<event>
 4    1  0.1147209E-002  0.4012892E+03  0.7818608E-02  0.1043334E+00
         21   -1    0    0  503  502  0.00000000000E+00  0.00000000000E+00  0.15171152118E+04  0.15171152118E+04  0.00000000000E+00 0. -1.
         21   -1    0    0  501  503 -0.00000000000E+00 -0.00000000000E+00 -0.13225490850E+03  0.13225490850E+03  0.00000000000E+00 0. -1.
    9000007    1    1    2  501    0  0.28981798435E+02  0.13895986284E+02  0.32599999160E+03  0.51701937836E+03  0.40000000000E+03 0. -1.
   -9000007    1    1    2    0  502 -0.28981798435E+02 -0.13895986284E+02  0.10588603118E+04  0.11323507420E+04  0.40000000000E+03 0. -1.
<mgrwt>
<rscale>  2 0.40128923E+03</rscale>
<asrwt>0</asrwt>
<pdfrwt beam="1">  1       21 0.23340233E+00 0.40128923E+03</pdfrwt>
<pdfrwt beam="2">  1       21 0.20346910E-01 0.40128923E+03</pdfrwt>
<totfact> 0.15906238E+03</totfact>
</mgrwt>
</event>
<event>
 4    1  0.1147209E-002  0.4903928E+03  0.7818608E-02  0.1016317E+00
         21   -1    0    0  501  502  0.00000000000E+00  0.00000000000E+00  0.29574917311E+03  0.29574917311E+03  0.00000000000E+00 0. -1.
         21   -1    0    0  502  503 -0.00000000000E+00 -0.00000000000E+00 -0.12796031615E+04  0.12796031615E+04  0.00000000000E+00 0. -1.
    9000007    1    1    2  501    0 -0.98258916599E+01  0.28352875091E+03 -0.16351651159E+02  0.49066534138E+03  0.40000000000E+03 0. -1.
   -9000007    1    1    2    0  503  0.98258916599E+01 -0.28352875091E+03 -0.96750233724E+03  0.10846869932E+04  0.40000000000E+03 0. -1.
<mgrwt>
<rscale>  2 0.49039280E+03</rscale>
<asrwt>0</asrwt>
<pdfrwt beam="1">  1       21 0.45499874E-01 0.49039280E+03</pdfrwt>
<pdfrwt beam="2">  1       21 0.19686202E+00 0.49039280E+03</pdfrwt>
<totfact> 0.52765636E+02</totfact>
</mgrwt>
</event>
<event>
 4    1  0.1147209E-002  0.7226551E+03  0.7818608E-02  0.9679255E-01
         21   -1    0    0  501  502  0.00000000000E+00  0.00000000000E+00  0.49801049041E+03  0.49801049041E+03  0.00000000000E+00 0.  1.
         21   -1    0    0  502  503 -0.00000000000E+00 -0.00000000000E+00 -0.11609057175E+04  0.11609057175E+04  0.00000000000E+00 0.  1.
    9000007    1    1    2  501    0 -0.40039038811E+03 -0.44935282408E+03 -0.58939573158E+03  0.93253297626E+03  0.40000000000E+03 0.  1.
   -9000007    1    1    2    0  503  0.40039038811E+03  0.44935282408E+03 -0.73499495516E+02  0.72638323167E+03  0.40000000000E+03 0.  1.
<mgrwt>
<rscale>  2 0.72265512E+03</rscale>
<asrwt>0</asrwt>
<pdfrwt beam="1">  1       21 0.76617000E-01 0.72265512E+03</pdfrwt>
<pdfrwt beam="2">  1       21 0.17860088E+00 0.72265512E+03</pdfrwt>
<totfact> 0.20608628E+02</totfact>
</mgrwt>
</event>
<event>
 4    1  0.1147209E-002  0.4436008E+03  0.7818608E-02  0.1029648E+00
         21   -1    0    0  503  502  0.00000000000E+00  0.00000000000E+00  0.14801963109E+03  0.14801963109E+03  0.00000000000E+00 0. -1.
         21   -1    0    0  501  503 -0.00000000000E+00 -0.00000000000E+00 -0.15190896837E+04  0.15190896837E+04  0.00000000000E+00 0. -1.
    9000007    1    1    2  501    0  0.19067534590E+03  0.20604785062E+02 -0.98006575306E+03  0.10757836795E+04  0.40000000000E+03 0. -1.
   -9000007    1    1    2    0  502 -0.19067534590E+03 -0.20604785062E+02 -0.39100429951E+03  0.59132563528E+03  0.40000000000E+03 0. -1.
<mgrwt>
<rscale>  2 0.44360077E+03</rscale>
<asrwt>0</asrwt>
<pdfrwt beam="1">  1       21 0.22772251E-01 0.44360077E+03</pdfrwt>
<pdfrwt beam="2">  1       21 0.23370610E+00 0.44360077E+03</pdfrwt>
<totfact> 0.12498196E+03</totfact>
</mgrwt>
</event>
<event>
 4    1  0.1147209E-002  0.6148150E+03  0.7818608E-02  0.9875138E-01
         21   -1    0    0  503  502  0.00000000000E+00  0.00000000000E+00  0.56157397817E+03  0.56157397817E+03  0.00000000000E+00 0. -1.
         21   -1    0    0  501  503 -0.00000000000E+00 -0.00000000000E+00 -0.67361400944E+03  0.67361400944E+03  0.00000000000E+00 0. -1.
    9000007    1    1    2  501    0 -0.17628930442E+03  0.43234191283E+03 -0.73020857967E+02  0.61913608693E+03  0.40000000000E+03 0. -1.
   -9000007    1    1    2    0  502  0.17628930442E+03 -0.43234191283E+03 -0.39019173305E+02  0.61605190068E+03  0.40000000000E+03 0. -1.
<mgrwt>
<rscale>  2 0.61481497E+03</rscale>
<asrwt>0</asrwt>
<pdfrwt beam="1">  1       21 0.86395997E-01 0.61481497E+03</pdfrwt>
<pdfrwt beam="2">  1       21 0.10363292E+00 0.61481497E+03</pdfrwt>
<totfact> 0.69207574E+02</totfact>
</mgrwt>
</event>
<event>
 4    1  0.1147209E-002  0.4144624E+03  0.7818608E-02  0.1038884E+00
         21   -1    0    0  501  502  0.00000000000E+00  0.00000000000E+00  0.72636422322E+03  0.72636422322E+03  0.00000000000E+00 0. -1.
         21   -1    0    0  502  503 -0.00000000000E+00 -0.00000000000E+00 -0.25313029051E+03  0.25313029051E+03  0.00000000000E+00 0. -1.
    9000007    1    1    2  501    0 -0.90798223030E+02  0.59453767172E+02  0.36217918441E+03  0.55041150910E+03  0.40000000000E+03 0.  1.
   -9000007    1    1    2    0  503  0.90798223030E+02 -0.59453767172E+02  0.11105474831E+03  0.42908300462E+03  0.40000000000E+03 0.  1.
<mgrwt>
<rscale>  2 0.41446238E+03</rscale>
<asrwt>0</asrwt>
<pdfrwt beam="1">  1       21 0.11174834E+00 0.41446238E+03</pdfrwt>
<pdfrwt beam="2">  1       21 0.38943122E-01 0.41446238E+03</pdfrwt>
<totfact> 0.35261916E+03</totfact>
</mgrwt>
</event>
<event>
 4    1  0.1147209E-002  0.4116361E+03  0.7818608E-02  0.1039823E+00
         21   -1    0    0  503  502  0.00000000000E+00  0.00000000000E+00  0.53426856788E+03  0.53426856788E+03  0.00000000000E+00 0.  1.
         21   -1    0    0  501  503 -0.00000000000E+00 -0.00000000000E+00 -0.31717399357E+03  0.31717399357E+03  0.00000000000E+00 0.  1.
    9000007    1    1    2  501    0  0.95141927455E+02  0.19806456180E+02  0.11210181074E+03  0.42662758706E+03  0.40000000000E+03 0. -1.
   -9000007    1    1    2    0  502 -0.95141927455E+02 -0.19806456180E+02  0.10499276356E+03  0.42481497439E+03  0.40000000000E+03 0. -1.
<mgrwt>
<rscale>  2 0.41163610E+03</rscale>
<asrwt>0</asrwt>
<pdfrwt beam="1">  1       21 0.82195164E-01 0.41163610E+03</pdfrwt>
<pdfrwt beam="2">  1       21 0.48795999E-01 0.41163610E+03</pdfrwt>
<totfact> 0.46136274E+03</totfact>
</mgrwt>
</event>
<event>
 4    1  0.1147209E-002  0.5016911E+03  0.7818608E-02  0.1013338E+00
         21   -1    0    0  501  502  0.00000000000E+00  0.00000000000E+00  0.76513705907E+03  0.76513705907E+03  0.00000000000E+00 0.  1.
         21   -1    0    0  502  503 -0.00000000000E+00 -0.00000000000E+00 -0.34181629276E+03  0.34181629276E+03  0.00000000000E+00 0.  1.
    9000007    1    1    2  501    0  0.27649495839E+03 -0.12346875913E+03  0.31903014469E+03  0.59453698768E+03  0.40000000000E+03 0.  1.
   -9000007    1    1    2    0  503 -0.27649495839E+03  0.12346875913E+03  0.10429062161E+03  0.51241636416E+03  0.40000000000E+03 0.  1.
<mgrwt>
<rscale>  2 0.50169114E+03</rscale>
<asrwt>0</asrwt>
<pdfrwt beam="1">  1       21 0.11771339E+00 0.50169114E+03</pdfrwt>
<pdfrwt beam="2">  1       21 0.52587122E-01 0.50169114E+03</pdfrwt>
<totfact> 0.15968296E+03</totfact>
</mgrwt>
</event>
<event>
 4    1  0.1147209E-002  0.5164558E+03  0.7818608E-02  0.1009571E+00
         21   -1    0    0  501  502  0.00000000000E+00  0.00000000000E+00  0.17864194820E+03  0.17864194820E+03  0.00000000000E+00 0. -1.
         21   -1    0    0  502  503 -0.00000000000E+00 -0.00000000000E+00 -0.17258574085E+04  0.17258574085E+04  0.00000000000E+00 0. -1.
    9000007    1    1    2  501    0  0.11402192886E+03 -0.30614634544E+03 -0.11233269477E+04  0.12363616043E+04  0.40000000000E+03 0. -1.
   -9000007    1    1    2    0  503 -0.11402192886E+03  0.30614634544E+03 -0.42388851257E+03  0.66813775239E+03  0.40000000000E+03 0. -1.
<mgrwt>
<rscale>  2 0.51645579E+03</rscale>
<asrwt>0</asrwt>
<pdfrwt beam="1">  1       21 0.27483376E-01 0.51645579E+03</pdfrwt>
<pdfrwt beam="2">  1       21 0.26551653E+00 0.51645579E+03</pdfrwt>
<totfact> 0.53272869E+02</totfact>
</mgrwt>
</event>
<event>
 4    1  0.1147209E-002  0.5988632E+03  0.7818608E-02  0.9907767E-01
         21   -1    0    0  503  502  0.00000000000E+00  0.00000000000E+00  0.25603085537E+03  0.25603085537E+03  0.00000000000E+00 0. -1.
         21   -1    0    0  501  503 -0.00000000000E+00 -0.00000000000E+00 -0.16735605084E+04  0.16735605084E+04  0.00000000000E+00 0.  1.
    9000007    1    1    2  501    0  0.44509587117E+03  0.22951099451E+02 -0.10982934580E+04  0.12509538790E+04  0.40000000000E+03 0.  1.
   -9000007    1    1    2    0  502 -0.44509587117E+03 -0.22951099451E+02 -0.31923619503E+03  0.67863748476E+03  0.40000000000E+03 0. -1.
<mgrwt>
<rscale>  2 0.59886316E+03</rscale>
<asrwt>0</asrwt>
<pdfrwt beam="1">  1       21 0.39389363E-01 0.59886316E+03</pdfrwt>
<pdfrwt beam="2">  1       21 0.25747084E+00 0.59886316E+03</pdfrwt>
<totfact> 0.27847385E+02</totfact>
</mgrwt>
</event>
<event>
 4    1  0.1147209E-002  0.4885479E+03  0.7818608E-02  0.1016812E+00
         21   -1    0    0  503  502  0.00000000000E+00  0.00000000000E+00  0.29513667468E+03  0.29513667468E+03  0.00000000000E+00 0.  1.
         21   -1    0    0  501  503 -0.00000000000E+00 -0.00000000000E+00 -0.81045254397E+03  0.81045254397E+03  0.00000000000E+00 0. -1.
    9000007    1    1    2  501    0  0.10124188228E+03 -0.26158962435E+03 -0.23200221819E+03  0.54083646284E+03  0.40000000000E+03 0.  1.
   -9000007    1    1    2    0  502 -0.10124188228E+03  0.26158962435E+03 -0.28331365110E+03  0.56475275581E+03  0.40000000000E+03 0. -1.
<mgrwt>
<rscale>  2 0.48854790E+03</rscale>
<asrwt>0</asrwt>
<pdfrwt beam="1">  1       21 0.45405642E-01 0.48854790E+03</pdfrwt>
<pdfrwt beam="2">  1       21 0.12468501E+00 0.48854790E+03</pdfrwt>
<totfact> 0.18915915E+03</totfact>
</mgrwt>
</event>
<event>
 4    1  0.1147209E-002  0.5462463E+03  0.7818608E-02  0.1002367E+00
         21   -1    0    0  501  502  0.00000000000E+00  0.00000000000E+00  0.11267963629E+04  0.11267963629E+04  0.00000000000E+00 0.  1.
         21   -1    0    0  502  503 -0.00000000000E+00 -0.00000000000E+00 -0.27345478362E+03  0.27345478362E+03  0.00000000000E+00 0.  1.
    9000007    1    1    2  501    0  0.36013283060E+03  0.93216618332E+02  0.55116631315E+03  0.77599568192E+03  0.40000000000E+03 0.  1.
   -9000007    1    1    2    0  503 -0.36013283060E+03 -0.93216618332E+02  0.30217526610E+03  0.62425546458E+03  0.40000000000E+03 0.  1.
<mgrwt>
<rscale>  2 0.54624628E+03</rscale>
<asrwt>0</asrwt>
<pdfrwt beam="1">  1       21 0.17335328E+00 0.54624628E+03</pdfrwt>
<pdfrwt beam="2">  1       21 0.42069967E-01 0.54624628E+03</pdfrwt>
<totfact> 0.88747729E+02</totfact>
</mgrwt>
</event>
<event>
 4    1  0.1147209E-002  0.4201872E+03  0.7818608E-02  0.1037005E+00
         21   -1    0    0  503  502  0.00000000000E+00  0.00000000000E+00  0.13083381126E+03  0.13083381126E+03  0.00000000000E+00 0.  1.
         21   -1    0    0  501  503 -0.00000000000E+00 -0.00000000000E+00 -0.17634904733E+04  0.17634904733E+04  0.00000000000E+00 0. -1.
    9000007    1    1    2  501    0  0.12767225354E+03 -0.16032887874E+02 -0.12752566469E+04  0.13426975732E+04  0.40000000000E+03 0. -1.
   -9000007    1    1    2    0  502 -0.12767225354E+03  0.16032887874E+02 -0.35740001522E+03  0.55162671137E+03  0.40000000000E+03 0.  1.
<mgrwt>
<rscale>  2 0.42018717E+03</rscale>
<asrwt>0</asrwt>
<pdfrwt beam="1">  1       21 0.20128278E-01 0.42018717E+03</pdfrwt>
<pdfrwt beam="2">  1       21 0.27130623E+00 0.42018717E+03</pdfrwt>
<totfact> 0.94274828E+02</totfact>
</mgrwt>
</event>
<event>
 4    1  0.1147209E-002  0.4442002E+03  0.7818608E-02  0.1029466E+00
         21   -1    0    0  503  502  0.00000000000E+00  0.00000000000E+00  0.19594351424E+03  0.19594351424E+03  0.00000000000E+00 0.  1.
         21   -1    0    0  501  503 -0.00000000000E+00 -0.00000000000E+00 -0.11231707348E+04  0.11231707348E+04  0.00000000000E+00 0.  1.
    9000007    1    1    2  501    0  0.25072138418E+02  0.19153389580E+03 -0.67573772485E+03  0.80866267266E+03  0.40000000000E+03 0.  1.
   -9000007    1    1    2    0  502 -0.25072138418E+02 -0.19153389580E+03 -0.25148949570E+03  0.51045157637E+03  0.40000000000E+03 0.  1.
<mgrwt>
<rscale>  2 0.44420023E+03</rscale>
<asrwt>0</asrwt>
<pdfrwt beam="1">  1       21 0.30145157E-01 0.44420023E+03</pdfrwt>
<pdfrwt beam="2">  1       21 0.17279549E+00 0.44420023E+03</pdfrwt>
<totfact> 0.18354991E+03</totfact>
</mgrwt>
</event>
<event>
 4    1  0.1147209E-002  0.4754507E+03  0.7818608E-02  0.1020393E+00
         21   -1    0    0  501  502  0.00000000000E+00  0.00000000000E+00  0.26854581753E+03  0.26854581753E+03  0.00000000000E+00 0.  1.
         21   -1    0    0  502  503 -0.00000000000E+00 -0.00000000000E+00 -0.85289034034E+03  0.85289034034E+03  0.00000000000E+00 0.  1.
    9000007    1    1    2  501    0  0.23686821198E+03 -0.99733909173E+02 -0.35620275295E+03  0.59408232064E+03  0.40000000000E+03 0. -1.
   -9000007    1    1    2    0  503 -0.23686821198E+03  0.99733909173E+02 -0.22814176986E+03  0.52735383723E+03  0.40000000000E+03 0. -1.
<mgrwt>
<rscale>  2 0.47545074E+03</rscale>
<asrwt>0</asrwt>
<pdfrwt beam="1">  1       21 0.41314742E-01 0.47545074E+03</pdfrwt>
<pdfrwt beam="2">  1       21 0.13121390E+00 0.47545074E+03</pdfrwt>
<totfact> 0.20278739E+03</totfact>
</mgrwt>
</event>
<event>
 4    1  0.1147209E-002  0.5293211E+03  0.7818608E-02  0.1006397E+00
         21   -1    0    0  503  502  0.00000000000E+00  0.00000000000E+00  0.36969535891E+03  0.36969535891E+03  0.00000000000E+00 0. -1.
         21   -1    0    0  501  503 -0.00000000000E+00 -0.00000000000E+00 -0.76982139609E+03  0.76982139609E+03  0.00000000000E+00 0. -1.
    9000007    1    1    2  501    0  0.29242019761E+03  0.18620232243E+03 -0.27105546912E+03  0.59468642509E+03  0.40000000000E+03 0. -1.
   -9000007    1    1    2    0  502 -0.29242019761E+03 -0.18620232243E+03 -0.12907056806E+03  0.54483032991E+03  0.40000000000E+03 0. -1.
<mgrwt>
<rscale>  2 0.52932115E+03</rscale>
<asrwt>0</asrwt>
<pdfrwt beam="1">  1       21 0.56876210E-01 0.52932115E+03</pdfrwt>
<pdfrwt beam="2">  1       21 0.11843406E+00 0.52932115E+03</pdfrwt>
<totfact> 0.13146540E+03</totfact>
</mgrwt>
</event>
<event>
 4    1  0.1147209E-002  0.4275425E+03  0.7818608E-02  0.1034639E+00
         21   -1    0    0  503  502  0.00000000000E+00  0.00000000000E+00  0.69011635813E+03  0.69011635813E+03  0.00000000000E+00 0. -1.
         21   -1    0    0  501  503 -0.00000000000E+00 -0.00000000000E+00 -0.31379862798E+03  0.31379862798E+03  0.00000000000E+00 0. -1.
    9000007    1    1    2  501    0  0.14592301005E+03 -0.38717823065E+02 -0.10045609716E+02  0.42766050666E+03  0.40000000000E+03 0. -1.
   -9000007    1    1    2    0  502 -0.14592301005E+03  0.38717823065E+02  0.38636333987E+03  0.57625447945E+03  0.40000000000E+03 0. -1.
<mgrwt>
<rscale>  2 0.42754251E+03</rscale>
<asrwt>0</asrwt>
<pdfrwt beam="1">  1       21 0.10617175E+00 0.42754251E+03</pdfrwt>
<pdfrwt beam="2">  1       21 0.48276712E-01 0.42754251E+03</pdfrwt>
<totfact> 0.25463795E+03</totfact>
</mgrwt>
</event>
<event>
 4    1  0.1147209E-002  0.4899008E+03  0.7818608E-02  0.1016449E+00
         21   -1    0    0  501  502  0.00000000000E+00  0.00000000000E+00  0.23610756467E+04  0.23610756467E+04  0.00000000000E+00 0. -1.
         21   -1    0    0  502  503 -0.00000000000E+00 -0.00000000000E+00 -0.10192052909E+03  0.10192052909E+03  0.00000000000E+00 0. -1.
    9000007    1    1    2  501    0 -0.23401085023E+03 -0.15887633819E+03  0.11930527179E+04  0.12897199527E+04  0.40000000000E+03 0. -1.
   -9000007    1    1    2    0  503  0.23401085023E+03  0.15887633819E+03  0.10661023997E+04  0.11732762230E+04  0.40000000000E+03 0. -1.
<mgrwt>
<rscale>  2 0.48990077E+03</rscale>
<asrwt>0</asrwt>
<pdfrwt beam="1">  1       21 0.36324236E+00 0.48990077E+03</pdfrwt>
<pdfrwt beam="2">  1       21 0.15680083E-01 0.48990077E+03</pdfrwt>
<totfact> 0.40166155E+02</totfact>
</mgrwt>
</event>
<event>
 4    1  0.1147209E-002  0.4286182E+03  0.7818608E-02  0.1034297E+00
         21   -1    0    0  503  502  0.00000000000E+00  0.00000000000E+00  0.38020054607E+03  0.38020054607E+03  0.00000000000E+00 0.  1.
         21   -1    0    0  501  503 -0.00000000000E+00 -0.00000000000E+00 -0.54934974351E+03  0.54934974351E+03  0.00000000000E+00 0.  1.
    9000007    1    1    2  501    0 -0.80874771241E+02 -0.13104524680E+03 -0.24585315614E+03  0.49412281845E+03  0.40000000000E+03 0.  1.
   -9000007    1    1    2    0  502  0.80874771241E+02  0.13104524680E+03  0.76703958707E+02  0.43542747113E+03  0.40000000000E+03 0.  1.
<mgrwt>
<rscale>  2 0.42861823E+03</rscale>
<asrwt>0</asrwt>
<pdfrwt beam="1">  1       21 0.58492392E-01 0.42861823E+03</pdfrwt>
<pdfrwt beam="2">  1       21 0.84515345E-01 0.42861823E+03</pdfrwt>
<totfact> 0.29125060E+03</totfact>
</mgrwt>
</event>
<event>
 4    1  0.1147209E-002  0.4613321E+03  0.7818608E-02  0.1024396E+00
         21   -1    0    0  501  502  0.00000000000E+00  0.00000000000E+00  0.70525201685E+03  0.70525201685E+03  0.00000000000E+00 0.  1.
         21   -1    0    0  502  503 -0.00000000000E+00 -0.00000000000E+00 -0.30470472036E+03  0.30470472036E+03  0.00000000000E+00 0.  1.
    9000007    1    1    2  501    0  0.63304910005E+01 -0.22975480323E+03  0.15075657635E+03  0.48533997367E+03  0.40000000000E+03 0.  1.
   -9000007    1    1    2    0  503 -0.63304910005E+01  0.22975480323E+03  0.24979072013E+03  0.52461676354E+03  0.40000000000E+03 0.  1.
<mgrwt>
<rscale>  2 0.46133214E+03</rscale>
<asrwt>0</asrwt>
<pdfrwt beam="1">  1       21 0.10850031E+00 0.46133214E+03</pdfrwt>
<pdfrwt beam="2">  1       21 0.46877650E-01 0.46133214E+03</pdfrwt>
<totfact> 0.25359760E+03</totfact>
</mgrwt>
</event>
<event>
 4    1  0.1147209E-002  0.4437344E+03  0.7818608E-02  0.1029607E+00
         21   -1    0    0  501  502  0.00000000000E+00  0.00000000000E+00  0.33734826204E+03  0.33734826204E+03  0.00000000000E+00 0.  1.
         21   -1    0    0  502  503 -0.00000000000E+00 -0.00000000000E+00 -0.90840119004E+03  0.90840119004E+03  0.00000000000E+00 0. -1.
    9000007    1    1    2  501    0  0.14368941160E+03  0.12748947405E+03  0.86885445406E+02  0.45216069447E+03  0.40000000000E+03 0.  1.
   -9000007    1    1    2    0  503 -0.14368941160E+03 -0.12748947405E+03 -0.65793837341E+03  0.79358875761E+03  0.40000000000E+03 0. -1.
<mgrwt>
<rscale>  2 0.44373439E+03</rscale>
<asrwt>0</asrwt>
<pdfrwt beam="1">  1       21 0.51899734E-01 0.44373439E+03</pdfrwt>
<pdfrwt beam="2">  1       21 0.13975403E+00 0.44373439E+03</pdfrwt>
<totfact> 0.10765562E+03</totfact>
</mgrwt>
</event>
<event>
 4    1  0.1147209E-002  0.4271984E+03  0.7818608E-02  0.1034749E+00
         21   -1    0    0  503  502  0.00000000000E+00  0.00000000000E+00  0.11882433193E+04  0.11882433193E+04  0.00000000000E+00 0. -1.
         21   -1    0    0  501  503 -0.00000000000E+00 -0.00000000000E+00 -0.21321397331E+03  0.21321397331E+03  0.00000000000E+00 0. -1.
    9000007    1    1    2  501    0 -0.75991685544E+02  0.12932044288E+03  0.11694994652E+03  0.44291737741E+03  0.40000000000E+03 0. -1.
   -9000007    1    1    2    0  502  0.75991685544E+02 -0.12932044288E+03  0.85807939946E+03  0.95853991518E+03  0.40000000000E+03 0. -1.
<mgrwt>
<rscale>  2 0.42719845E+03</rscale>
<asrwt>0</asrwt>
<pdfrwt beam="1">  1       21 0.18280666E+00 0.42719845E+03</pdfrwt>
<pdfrwt beam="2">  1       21 0.32802150E-01 0.42719845E+03</pdfrwt>
<totfact> 0.13265507E+03</totfact>
</mgrwt>
</event>
<event>
 4    1  0.1147209E-002  0.6013475E+03  0.7818608E-02  0.9902614E-01
         21   -1    0    0  503  502  0.00000000000E+00  0.00000000000E+00  0.10811261817E+04  0.10811261817E+04  0.00000000000E+00 0. -1.
         21   -1    0    0  501  503 -0.00000000000E+00 -0.00000000000E+00 -0.37183639837E+03  0.37183639837E+03  0.00000000000E+00 0. -1.
    9000007    1    1    2  501    0  0.39897087617E+03 -0.20601236264E+03  0.12438901619E+03  0.61407774829E+03  0.40000000000E+03 0. -1.
   -9000007    1    1    2    0  502 -0.39897087617E+03  0.20601236264E+03  0.58490076717E+03  0.83888483180E+03  0.40000000000E+03 0. -1.
<mgrwt>
<rscale>  2 0.60134753E+03</rscale>
<asrwt>0</asrwt>
<pdfrwt beam="1">  1       21 0.16632710E+00 0.60134753E+03</pdfrwt>
<pdfrwt beam="2">  1       21 0.57205600E-01 0.60134753E+03</pdfrwt>
<totfact> 0.50880450E+02</totfact>
</mgrwt>
</event>
<event>
 4    1  0.1147209E-002  0.4522276E+03  0.7818608E-02  0.1027060E+00
         21   -1    0    0  503  502  0.00000000000E+00  0.00000000000E+00  0.19867012070E+03  0.19867012070E+03  0.00000000000E+00 0. -1.
         21   -1    0    0  501  503 -0.00000000000E+00 -0.00000000000E+00 -0.10482876194E+04  0.10482876194E+04  0.00000000000E+00 0. -1.
    9000007    1    1    2  501    0 -0.60242441111E+02  0.20218969212E+03 -0.34110604453E+03  0.56644784131E+03  0.40000000000E+03 0. -1.
   -9000007    1    1    2    0  502  0.60242441111E+02 -0.20218969212E+03 -0.50851145413E+03  0.68050989875E+03  0.40000000000E+03 0. -1.
<mgrwt>
<rscale>  2 0.45222762E+03</rscale>
<asrwt>0</asrwt>
<pdfrwt beam="1">  1       21 0.30564634E-01 0.45222762E+03</pdfrwt>
<pdfrwt beam="2">  1       21 0.16127502E+00 0.45222762E+03</pdfrwt>
<totfact> 0.21633867E+03</totfact>
</mgrwt>
</event>
<event>
 4    1  0.1147209E-002  0.5868679E+03  0.7818608E-02  0.9933032E-01
         21   -1    0    0  503  502  0.00000000000E+00  0.00000000000E+00  0.10553918200E+04  0.10553918200E+04  0.00000000000E+00 0.  1.
         21   -1    0    0  501  503 -0.00000000000E+00 -0.00000000000E+00 -0.33404427946E+03  0.33404427946E+03  0.00000000000E+00 0. -1.
    9000007    1    1    2  501    0  0.18750833387E+03  0.38633472131E+03  0.46619600674E+03  0.74950157362E+03  0.40000000000E+03 0. -1.
   -9000007    1    1    2    0  502 -0.18750833387E+03 -0.38633472131E+03  0.25515153381E+03  0.63993452585E+03  0.40000000000E+03 0.  1.
<mgrwt>
<rscale>  2 0.58686787E+03</rscale>
<asrwt>0</asrwt>
<pdfrwt beam="1">  1       21 0.16236797E+00 0.58686787E+03</pdfrwt>
<pdfrwt beam="2">  1       21 0.51391428E-01 0.58686787E+03</pdfrwt>
<totfact> 0.69070262E+02</totfact>
</mgrwt>
</event>
<event>
 4    1  0.1147209E-002  0.4131829E+03  0.7818608E-02  0.1039308E+00
         21   -1    0    0  503  502  0.00000000000E+00  0.00000000000E+00  0.47425378475E+03  0.47425378475E+03  0.00000000000E+00 0. -1.
         21   -1    0    0  501  503 -0.00000000000E+00 -0.00000000000E+00 -0.36161867911E+03  0.36161867911E+03  0.00000000000E+00 0. -1.
    9000007    1    1    2  501    0  0.84540059262E+02  0.59775087336E+02  0.28151080651E+02  0.41414075630E+03  0.40000000000E+03 0. -1.
   -9000007    1    1    2    0  502 -0.84540059262E+02 -0.59775087336E+02  0.84484024986E+02  0.42173170756E+03  0.40000000000E+03 0. -1.
<mgrwt>
<rscale>  2 0.41318287E+03</rscale>
<asrwt>0</asrwt>
<pdfrwt beam="1">  1       21 0.72962121E-01 0.41318287E+03</pdfrwt>
<pdfrwt beam="2">  1       21 0.55633643E-01 0.41318287E+03</pdfrwt>
<totfact> 0.45778253E+03</totfact>
</mgrwt>
</event>
<event>
 4    1  0.1147209E-002  0.5382808E+03  0.7818608E-02  0.1004243E+00
         21   -1    0    0  501  502  0.00000000000E+00  0.00000000000E+00  0.16917931415E+04  0.16917931415E+04  0.00000000000E+00 0.  1.
         21   -1    0    0  502  503 -0.00000000000E+00 -0.00000000000E+00 -0.23434963348E+03  0.23434963348E+03  0.00000000000E+00 0.  1.
    9000007    1    1    2  501    0 -0.31419807519E+03  0.17614125870E+03  0.22904902349E+03  0.58498686193E+03  0.40000000000E+03 0.  1.
   -9000007    1    1    2    0  503  0.31419807519E+03 -0.17614125870E+03  0.12283944845E+04  0.13411559130E+04  0.40000000000E+03 0.  1.
<mgrwt>
<rscale>  2 0.53828076E+03</rscale>
<asrwt>0</asrwt>
<pdfrwt beam="1">  1       21 0.26027586E+00 0.53828076E+03</pdfrwt>
<pdfrwt beam="2">  1       21 0.36053791E-01 0.53828076E+03</pdfrwt>
<totfact> 0.32952446E+02</totfact>
</mgrwt>
</event>
<event>
 4    1  0.1147209E-002  0.4247985E+03  0.7818608E-02  0.1035516E+00
         21   -1    0    0  503  502  0.00000000000E+00  0.00000000000E+00  0.34527605976E+03  0.34527605976E+03  0.00000000000E+00 0. -1.
         21   -1    0    0  501  503 -0.00000000000E+00 -0.00000000000E+00 -0.65286541615E+03  0.65286541615E+03  0.00000000000E+00 0. -1.
    9000007    1    1    2  501    0  0.69670740156E+02  0.12489907780E+03 -0.37669175499E+03  0.56775916544E+03  0.40000000000E+03 0. -1.
   -9000007    1    1    2    0  502 -0.69670740156E+02 -0.12489907780E+03  0.69102398590E+02  0.43038231046E+03  0.40000000000E+03 0. -1.
<mgrwt>
<rscale>  2 0.42479853E+03</rscale>
<asrwt>0</asrwt>
<pdfrwt beam="1">  1       21 0.53119394E-01 0.42479853E+03</pdfrwt>
<pdfrwt beam="2">  1       21 0.10044083E+00 0.42479853E+03</pdfrwt>
<totfact> 0.23824961E+03</totfact>
</mgrwt>
</event>
<event>
 4    1  0.1147209E-002  0.7757962E+03  0.7818608E-02  0.9595727E-01
         21   -1    0    0  503  502  0.00000000000E+00  0.00000000000E+00  0.13259641806E+04  0.13259641806E+04  0.00000000000E+00 0.  1.
         21   -1    0    0  501  503 -0.00000000000E+00 -0.00000000000E+00 -0.46845704899E+03  0.46845704899E+03  0.00000000000E+00 0.  1.
    9000007    1    1    2  501    0 -0.66179927686E+03 -0.62301403636E+02  0.58689452215E+03  0.97278205569E+03  0.40000000000E+03 0.  1.
   -9000007    1    1    2    0  502  0.66179927686E+03  0.62301403636E+02  0.27061260951E+03  0.82163917395E+03  0.40000000000E+03 0.  1.
<mgrwt>
<rscale>  2 0.77579620E+03</rscale>
<asrwt>0</asrwt>
<pdfrwt beam="1">  1       21 0.20399449E+00 0.77579620E+03</pdfrwt>
<pdfrwt beam="2">  1       21 0.72070316E-01 0.77579620E+03</pdfrwt>
<totfact> 0.15540059E+02</totfact>
</mgrwt>
</event>
<event>
 4    1  0.1147209E-002  0.4041841E+03  0.7818608E-02  0.1042340E+00
         21   -1    0    0  503  502  0.00000000000E+00  0.00000000000E+00  0.97961358825E+03  0.97961358825E+03  0.00000000000E+00 0.  1.
         21   -1    0    0  501  503 -0.00000000000E+00 -0.00000000000E+00 -0.26778945477E+03  0.26778945477E+03  0.00000000000E+00 0.  1.
    9000007    1    1    2  501    0  0.82059592934E+01  0.57423181943E+02 -0.27172295097E+02  0.40509639990E+03  0.40000000000E+03 0.  1.
   -9000007    1    1    2    0  502 -0.82059592934E+01 -0.57423181943E+02  0.73899642857E+03  0.84230664312E+03  0.40000000000E+03 0.  1.
<mgrwt>
<rscale>  2 0.40418407E+03</rscale>
<asrwt>0</asrwt>
<pdfrwt beam="1">  1       21 0.15070978E+00 0.40418407E+03</pdfrwt>
<pdfrwt beam="2">  1       21 0.41198378E-01 0.40418407E+03</pdfrwt>
<totfact> 0.14531691E+03</totfact>
</mgrwt>
</event>
<event>
 4    1  0.1147209E-002  0.4853303E+03  0.7818608E-02  0.1017680E+00
         21   -1    0    0  501  502  0.00000000000E+00  0.00000000000E+00  0.35499988549E+03  0.35499988549E+03  0.00000000000E+00 0. -1.
         21   -1    0    0  502  503 -0.00000000000E+00 -0.00000000000E+00 -0.97017475703E+03  0.97017475703E+03  0.00000000000E+00 0. -1.
    9000007    1    1    2  501    0 -0.21665591140E+03 -0.16913221555E+03  0.64933800056E+02  0.48965486689E+03  0.40000000000E+03 0. -1.
   -9000007    1    1    2    0  503  0.21665591140E+03  0.16913221555E+03 -0.68010867159E+03  0.83551977562E+03  0.40000000000E+03 0. -1.
<mgrwt>
<rscale>  2 0.48533029E+03</rscale>
<asrwt>0</asrwt>
<pdfrwt beam="1">  1       21 0.54615368E-01 0.48533029E+03</pdfrwt>
<pdfrwt beam="2">  1       21 0.14925765E+00 0.48533029E+03</pdfrwt>
<totfact> 0.79441194E+02</totfact>
</mgrwt>
</event>
<event>
 4    1  0.1147209E-002  0.5191607E+03  0.7818608E-02  0.1008895E+00
         21   -1    0    0  501  502  0.00000000000E+00  0.00000000000E+00  0.56502701810E+03  0.56502701810E+03  0.00000000000E+00 0.  1.
         21   -1    0    0  502  503 -0.00000000000E+00 -0.00000000000E+00 -0.68019039077E+03  0.68019039077E+03  0.00000000000E+00 0.  1.
    9000007    1    1    2  501    0 -0.16320022616E+03 -0.28791226947E+03  0.28269547177E+03  0.59113832433E+03  0.40000000000E+03 0.  1.
   -9000007    1    1    2    0  503  0.16320022616E+03  0.28791226947E+03 -0.39785884444E+03  0.65407908454E+03  0.40000000000E+03 0.  1.
<mgrwt>
<rscale>  2 0.51916066E+03</rscale>
<asrwt>0</asrwt>
<pdfrwt beam="1">  1       21 0.86927233E-01 0.51916066E+03</pdfrwt>
<pdfrwt beam="2">  1       21 0.10464468E+00 0.51916066E+03</pdfrwt>
<totfact> 0.68782876E+02</totfact>
</mgrwt>
</event>
<event>
 4    1  0.1147209E-002  0.4025061E+03  0.7818608E-02  0.1042915E+00
         21   -1    0    0  503  502  0.00000000000E+00  0.00000000000E+00  0.86981818553E+03  0.86981818553E+03  0.00000000000E+00 0. -1.
         21   -1    0    0  501  503 -0.00000000000E+00 -0.00000000000E+00 -0.19511463111E+03  0.19511463111E+03  0.00000000000E+00 0. -1.
    9000007    1    1    2  501    0  0.26682273517E+02 -0.36044471729E+02  0.45079172355E+03  0.60433792342E+03  0.40000000000E+03 0. -1.
   -9000007    1    1    2    0  502 -0.26682273517E+02  0.36044471729E+02  0.22391183087E+03  0.46059489323E+03  0.40000000000E+03 0. -1.
<mgrwt>
<rscale>  2 0.40250608E+03</rscale>
<asrwt>0</asrwt>
<pdfrwt beam="1">  1       21 0.13381818E+00 0.40250608E+03</pdfrwt>
<pdfrwt beam="2">  1       21 0.30017636E-01 0.40250608E+03</pdfrwt>
<totfact> 0.37836246E+03</totfact>
</mgrwt>
</event>
<event>
 4    1  0.1147209E-002  0.4208004E+03  0.7818608E-02  0.1036806E+00
         21   -1    0    0  501  502  0.00000000000E+00  0.00000000000E+00  0.20379285536E+03  0.20379285536E+03  0.00000000000E+00 0. -1.
         21   -1    0    0  502  503 -0.00000000000E+00 -0.00000000000E+00 -0.94363123785E+03  0.94363123785E+03  0.00000000000E+00 0. -1.
    9000007    1    1    2  501    0  0.13063550961E+03 -0.27101186494E+01 -0.53138531188E+03  0.67782249210E+03  0.40000000000E+03 0. -1.
   -9000007    1    1    2    0  503 -0.13063550961E+03  0.27101186494E+01 -0.20845307061E+03  0.46960160111E+03  0.40000000000E+03 0. -1.
<mgrwt>
<rscale>  2 0.42080041E+03</rscale>
<asrwt>0</asrwt>
<pdfrwt beam="1">  1       21 0.31352748E-01 0.42080041E+03</pdfrwt>
<pdfrwt beam="2">  1       21 0.14517403E+00 0.42080041E+03</pdfrwt>
<totfact> 0.27764378E+03</totfact>
</mgrwt>
</event>
<event>
 4    1  0.1147209E-002  0.4552222E+03  0.7818608E-02  0.1026176E+00
         21   -1    0    0  503  502  0.00000000000E+00  0.00000000000E+00  0.19221297929E+03  0.19221297929E+03  0.00000000000E+00 0. -1.
         21   -1    0    0  501  503 -0.00000000000E+00 -0.00000000000E+00 -0.11569079687E+04  0.11569079687E+04  0.00000000000E+00 0.  1.
    9000007    1    1    2  501    0 -0.20221601012E+03  0.79598523188E+02 -0.65839171084E+03  0.80044168091E+03  0.40000000000E+03 0.  1.
   -9000007    1    1    2    0  502  0.20221601012E+03 -0.79598523188E+02 -0.30630327856E+03  0.54867926706E+03  0.40000000000E+03 0.  1.
<mgrwt>
<rscale>  2 0.45522219E+03</rscale>
<asrwt>0</asrwt>
<pdfrwt beam="1">  1       21 0.29571228E-01 0.45522219E+03</pdfrwt>
<pdfrwt beam="2">  1       21 0.17798584E+00 0.45522219E+03</pdfrwt>
<totfact> 0.17425642E+03</totfact>
</mgrwt>
</event>
<event>
 4    1  0.1147209E-002  0.4625931E+03  0.7818608E-02  0.1024032E+00
         21   -1    0    0  503  502  0.00000000000E+00  0.00000000000E+00  0.40926911786E+03  0.40926911786E+03  0.00000000000E+00 0. -1.
         21   -1    0    0  501  503 -0.00000000000E+00 -0.00000000000E+00 -0.58562683290E+03  0.58562683290E+03  0.00000000000E+00 0.  1.
    9000007    1    1    2  501    0  0.90644128658E+02  0.21395323432E+03 -0.25102830316E+03  0.52631507058E+03  0.40000000000E+03 0.  1.
   -9000007    1    1    2    0  502 -0.90644128658E+02 -0.21395323432E+03  0.74670588124E+02  0.46858088017E+03  0.40000000000E+03 0. -1.
<mgrwt>
<rscale>  2 0.46259307E+03</rscale>
<asrwt>0</asrwt>
<pdfrwt beam="1">  1       21 0.62964480E-01 0.46259307E+03</pdfrwt>
<pdfrwt beam="2">  1       21 0.90096436E-01 0.46259307E+03</pdfrwt>
<totfact> 0.21049947E+03</totfact>
</mgrwt>
</event>
<event>
 4    1  0.1147209E-002  0.4041090E+03  0.7818608E-02  0.1042366E+00
         21   -1    0    0  503  502  0.00000000000E+00  0.00000000000E+00  0.98014453046E+03  0.98014453046E+03  0.00000000000E+00 0. -1.
         21   -1    0    0  501  503 -0.00000000000E+00 -0.00000000000E+00 -0.16911627642E+03  0.16911627642E+03  0.00000000000E+00 0. -1.
    9000007    1    1    2  501    0  0.49005450519E+01 -0.57272071019E+02  0.33559216793E+03  0.52528678704E+03  0.40000000000E+03 0. -1.
   -9000007    1    1    2    0  502 -0.49005450519E+01  0.57272071019E+02  0.47543608611E+03  0.62397401984E+03  0.40000000000E+03 0. -1.
<mgrwt>
<rscale>  2 0.40410903E+03</rscale>
<asrwt>0</asrwt>
<pdfrwt beam="1">  1       21 0.15079146E+00 0.40410903E+03</pdfrwt>
<pdfrwt beam="2">  1       21 0.26017889E-01 0.40410903E+03</pdfrwt>
<totfact> 0.36453328E+03</totfact>
</mgrwt>
</event>
<event>
 4    1  0.1147209E-002  0.4494235E+03  0.7818608E-02  0.1027894E+00
         21   -1    0    0  501  502  0.00000000000E+00  0.00000000000E+00  0.59115862031E+03  0.59115862031E+03  0.00000000000E+00 0.  1.
         21   -1    0    0  502  503 -0.00000000000E+00 -0.00000000000E+00 -0.34654539538E+03  0.34654539538E+03  0.00000000000E+00 0.  1.
    9000007    1    1    2  501    0 -0.92414333715E+01 -0.20468523214E+03  0.17791487752E+03  0.48335820257E+03  0.40000000000E+03 0.  1.
   -9000007    1    1    2    0  503  0.92414333715E+01  0.20468523214E+03  0.66698347412E+02  0.45434581312E+03  0.40000000000E+03 0.  1.
<mgrwt>
<rscale>  2 0.44942346E+03</rscale>
<asrwt>0</asrwt>
<pdfrwt beam="1">  1       21 0.90947480E-01 0.44942346E+03</pdfrwt>
<pdfrwt beam="2">  1       21 0.53314676E-01 0.44942346E+03</pdfrwt>
<totfact> 0.29721386E+03</totfact>
</mgrwt>
</event>
<event>
 4    1  0.1147209E-002  0.4089189E+03  0.7818608E-02  0.1040734E+00
         21   -1    0    0  503  502  0.00000000000E+00  0.00000000000E+00  0.36511107541E+03  0.36511107541E+03  0.00000000000E+00 0. -1.
         21   -1    0    0  501  503 -0.00000000000E+00 -0.00000000000E+00 -0.46426792583E+03  0.46426792583E+03  0.00000000000E+00 0. -1.
    9000007    1    1    2  501    0 -0.82663239382E+02 -0.19530966985E+02 -0.97827432600E+02  0.42045793652E+03  0.40000000000E+03 0. -1.
   -9000007    1    1    2    0  502  0.82663239382E+02  0.19530966985E+02 -0.13294178193E+01  0.40892106472E+03  0.40000000000E+03 0. -1.
<mgrwt>
<rscale>  2 0.40891890E+03</rscale>
<asrwt>0</asrwt>
<pdfrwt beam="1">  1       21 0.56170934E-01 0.40891890E+03</pdfrwt>
<pdfrwt beam="2">  1       21 0.71425835E-01 0.40891890E+03</pdfrwt>
<totfact> 0.47119669E+03</totfact>
</mgrwt>
</event>
<event>
 4    1  0.1147209E-002  0.4177534E+03  0.7818608E-02  0.1037800E+00
         21   -1    0    0  503  502  0.00000000000E+00  0.00000000000E+00  0.62700373636E+03  0.62700373636E+03  0.00000000000E+00 0. -1.
         21   -1    0    0  501  503 -0.00000000000E+00 -0.00000000000E+00 -0.27833902670E+03  0.27833902670E+03  0.00000000000E+00 0. -1.
    9000007    1    1    2  501    0  0.53241202799E+02  0.10808929649E+03  0.17292452436E+03  0.45212919925E+03  0.40000000000E+03 0. -1.
   -9000007    1    1    2    0  502 -0.53241202799E+02 -0.10808929649E+03  0.17574018530E+03  0.45321356381E+03  0.40000000000E+03 0. -1.
<mgrwt>
<rscale>  2 0.41775342E+03</rscale>
<asrwt>0</asrwt>
<pdfrwt beam="1">  1       21 0.96462113E-01 0.41775342E+03</pdfrwt>
<pdfrwt beam="2">  1       21 0.42821389E-01 0.41775342E+03</pdfrwt>
<totfact> 0.41496582E+03</totfact>
</mgrwt>
</event>
<event>
 4    1  0.1147209E-002  0.5600233E+03  0.7818608E-02  0.9992002E-01
         21   -1    0    0  501  502  0.00000000000E+00  0.00000000000E+00  0.78127680356E+03  0.78127680356E+03  0.00000000000E+00 0.  1.
         21   -1    0    0  502  503 -0.00000000000E+00 -0.00000000000E+00 -0.40322331882E+03  0.40322331882E+03  0.00000000000E+00 0.  1.
    9000007    1    1    2  501    0 -0.11696680725E+03  0.37409205623E+03  0.14950399972E+03  0.57963570151E+03  0.40000000000E+03 0.  1.
   -9000007    1    1    2    0  503  0.11696680725E+03 -0.37409205623E+03  0.22854948502E+03  0.60486442087E+03  0.40000000000E+03 0.  1.
<mgrwt>
<rscale>  2 0.56002330E+03</rscale>
<asrwt>0</asrwt>
<pdfrwt beam="1">  1       21 0.12019643E+00 0.56002330E+03</pdfrwt>
<pdfrwt beam="2">  1       21 0.62034357E-01 0.56002330E+03</pdfrwt>
<totfact> 0.10354289E+03</totfact>
</mgrwt>
</event>
<event>
 4    1  0.1147209E-002  0.4856302E+03  0.7818608E-02  0.1017599E+00
         21   -1    0    0  503  502  0.00000000000E+00  0.00000000000E+00  0.19464245139E+04  0.19464245139E+04  0.00000000000E+00 0.  1.
         21   -1    0    0  501  503 -0.00000000000E+00 -0.00000000000E+00 -0.15269077035E+03  0.15269077035E+03  0.00000000000E+00 0. -1.
    9000007    1    1    2  501    0 -0.98113065443E+02  0.25731410128E+03  0.41995388762E+03  0.64202646990E+03  0.40000000000E+03 0. -1.
   -9000007    1    1    2    0  502  0.98113065443E+02 -0.25731410128E+03  0.13737798560E+04  0.14570888144E+04  0.40000000000E+03 0.  1.
<mgrwt>
<rscale>  2 0.48563023E+03</rscale>
<asrwt>0</asrwt>
<pdfrwt beam="1">  1       21 0.29944991E+00 0.48563023E+03</pdfrwt>
<pdfrwt beam="2">  1       21 0.23490889E-01 0.48563023E+03</pdfrwt>
<totfact> 0.45775567E+02</totfact>
</mgrwt>
</event>
<event>
 4    1  0.1147209E-002  0.4279431E+03  0.7818608E-02  0.1034512E+00
         21   -1    0    0  501  502  0.00000000000E+00  0.00000000000E+00  0.34464378216E+03  0.34464378216E+03  0.00000000000E+00 0.  1.
         21   -1    0    0  502  503 -0.00000000000E+00 -0.00000000000E+00 -0.66866260150E+03  0.66866260150E+03  0.00000000000E+00 0.  1.
    9000007    1    1    2  501    0 -0.15048055696E+03 -0.22157132370E+02  0.67564109882E+02  0.43324386375E+03  0.40000000000E+03 0.  1.
   -9000007    1    1    2    0  503  0.15048055696E+03  0.22157132370E+02 -0.39158292922E+03  0.58006251990E+03  0.40000000000E+03 0.  1.
<mgrwt>
<rscale>  2 0.42794315E+03</rscale>
<asrwt>0</asrwt>
<pdfrwt beam="1">  1       21 0.53022121E-01 0.42794315E+03</pdfrwt>
<pdfrwt beam="2">  1       21 0.10287117E+00 0.42794315E+03</pdfrwt>
<totfact> 0.22534726E+03</totfact>
</mgrwt>
</event>
<event>
 4    1  0.1147209E-002  0.6146582E+03  0.7818608E-02  0.9875453E-01
         21   -1    0    0  503  502  0.00000000000E+00  0.00000000000E+00  0.51022891207E+03  0.51022891207E+03  0.00000000000E+00 0. -1.
         21   -1    0    0  501  503 -0.00000000000E+00 -0.00000000000E+00 -0.78599342731E+03  0.78599342731E+03  0.00000000000E+00 0. -1.
    9000007    1    1    2  501    0 -0.28944922791E+03  0.36609261401E+03 -0.29387342571E+03  0.68129747388E+03  0.40000000000E+03 0. -1.
   -9000007    1    1    2    0  502  0.28944922791E+03 -0.36609261401E+03  0.18108910473E+02  0.61492486550E+03  0.40000000000E+03 0. -1.
<mgrwt>
<rscale>  2 0.61465816E+03</rscale>
<asrwt>0</asrwt>
<pdfrwt beam="1">  1       21 0.78496755E-01 0.61465816E+03</pdfrwt>
<pdfrwt beam="2">  1       21 0.12092207E+00 0.61465816E+03</pdfrwt>
<totfact> 0.58777167E+02</totfact>
</mgrwt>
</event>
<event>
 4    1  0.1147209E-002  0.4337071E+03  0.7818608E-02  0.1032695E+00
         21   -1    0    0  503  502  0.00000000000E+00  0.00000000000E+00  0.41316664031E+03  0.41316664031E+03  0.00000000000E+00 0.  1.
         21   -1    0    0  501  503 -0.00000000000E+00 -0.00000000000E+00 -0.45537850463E+03  0.45537850463E+03  0.00000000000E+00 0.  1.
    9000007    1    1    2  501    0 -0.78272478147E+02 -0.14824067341E+03 -0.27846559816E+02  0.43460017140E+03  0.40000000000E+03 0.  1.
   -9000007    1    1    2    0  502  0.78272478147E+02  0.14824067341E+03 -0.14365304509E+02  0.43394497354E+03  0.40000000000E+03 0.  1.
<mgrwt>
<rscale>  2 0.43370713E+03</rscale>
<asrwt>0</asrwt>
<pdfrwt beam="1">  1       21 0.63564099E-01 0.43370713E+03</pdfrwt>
<pdfrwt beam="2">  1       21 0.70058231E-01 0.43370713E+03</pdfrwt>
<totfact> 0.37223421E+03</totfact>
</mgrwt>
</event>
<event>
 4    1  0.1147209E-002  0.4691232E+03  0.7818608E-02  0.1022168E+00
         21   -1    0    0  503  502  0.00000000000E+00  0.00000000000E+00  0.82357146049E+02  0.82357146049E+02  0.00000000000E+00 0. -1.
         21   -1    0    0  501  503 -0.00000000000E+00 -0.00000000000E+00 -0.29883915198E+04  0.29883915198E+04  0.00000000000E+00 0. -1.
    9000007    1    1    2  501    0 -0.24223278837E+03  0.37414153121E+02 -0.19524255599E+04  0.20079945492E+04  0.40000000000E+03 0. -1.
   -9000007    1    1    2    0  502  0.24223278837E+03 -0.37414153121E+02 -0.95360881380E+03  0.10627541166E+04  0.40000000000E+03 0. -1.
<mgrwt>
<rscale>  2 0.46912316E+03</rscale>
<asrwt>0</asrwt>
<pdfrwt beam="1">  1       21 0.12670328E-01 0.46912316E+03</pdfrwt>
<pdfrwt beam="2">  1       21 0.45975261E+00 0.46912316E+03</pdfrwt>
<totfact> 0.14190066E+02</totfact>
</mgrwt>
</event>
<event>
 4    1  0.1147209E-002  0.4831030E+03  0.7818608E-02  0.1018286E+00
         21   -1    0    0  503  502  0.00000000000E+00  0.00000000000E+00  0.18173799053E+03  0.18173799053E+03  0.00000000000E+00 0. -1.
         21   -1    0    0  501  503 -0.00000000000E+00 -0.00000000000E+00 -0.13707108415E+04  0.13707108415E+04  0.00000000000E+00 0.  1.
    9000007    1    1    2  501    0 -0.24719648357E+03 -0.11082623419E+03 -0.78948927906E+03  0.92557110879E+03  0.40000000000E+03 0. -1.
   -9000007    1    1    2    0  502  0.24719648357E+03  0.11082623419E+03 -0.39948357192E+03  0.62687772325E+03  0.40000000000E+03 0. -1.
<mgrwt>
<rscale>  2 0.48310305E+03</rscale>
<asrwt>0</asrwt>
<pdfrwt beam="1">  1       21 0.27959690E-01 0.48310305E+03</pdfrwt>
<pdfrwt beam="2">  1       21 0.21087859E+00 0.48310305E+03</pdfrwt>
<totfact> 0.11508011E+03</totfact>
</mgrwt>
</event>
<event>
 4    1  0.1147209E-002  0.6378966E+03  0.7818608E-02  0.9829759E-01
         21   -1    0    0  503  502  0.00000000000E+00  0.00000000000E+00  0.21543542664E+03  0.21543542664E+03  0.00000000000E+00 0. -1.
         21   -1    0    0  501  503 -0.00000000000E+00 -0.00000000000E+00 -0.22294104355E+04  0.22294104355E+04  0.00000000000E+00 0. -1.
    9000007    1    1    2  501    0 -0.31972279163E+03  0.38038065793E+03 -0.14848053101E+04  0.16160318429E+04  0.40000000000E+03 0. -1.
   -9000007    1    1    2    0  502  0.31972279163E+03 -0.38038065793E+03 -0.52916969880E+03  0.82881401927E+03  0.40000000000E+03 0. -1.
<mgrwt>
<rscale>  2 0.63789663E+03</rscale>
<asrwt>0</asrwt>
<pdfrwt beam="1">  1       21 0.33143910E-01 0.63789663E+03</pdfrwt>
<pdfrwt beam="2">  1       21 0.34298624E+00 0.63789663E+03</pdfrwt>
<totfact> 0.11667286E+02</totfact>
</mgrwt>
</event>
<event>
 4    1  0.1147209E-002  0.5693813E+03  0.7818608E-02  0.9971049E-01
         21   -1    0    0  503  502  0.00000000000E+00  0.00000000000E+00  0.10499075166E+03  0.10499075166E+03  0.00000000000E+00 0. -1.
         21   -1    0    0  501  503 -0.00000000000E+00 -0.00000000000E+00 -0.33298333879E+04  0.33298333879E+04  0.00000000000E+00 0. -1.
    9000007    1    1    2  501    0  0.24360803062E+03  0.32380571752E+03 -0.20754008844E+04  0.21520882524E+04  0.40000000000E+03 0. -1.
   -9000007    1    1    2    0  502 -0.24360803062E+03 -0.32380571752E+03 -0.11494417519E+04  0.12827358872E+04  0.40000000000E+03 0. -1.
<mgrwt>
<rscale>  2 0.56938126E+03</rscale>
<asrwt>0</asrwt>
<pdfrwt beam="1">  1       21 0.16152425E-01 0.56938126E+03</pdfrwt>
<pdfrwt beam="2">  1       21 0.51228201E+00 0.56938126E+03</pdfrwt>
<totfact> 0.36271328E+01</totfact>
</mgrwt>
</event>
<event>
 4    1  0.1147209E-002  0.4762894E+03  0.7818608E-02  0.1020160E+00
         21   -1    0    0  501  502  0.00000000000E+00  0.00000000000E+00  0.11426612633E+04  0.11426612633E+04  0.00000000000E+00 0.  1.
         21   -1    0    0  502  503 -0.00000000000E+00 -0.00000000000E+00 -0.20377930522E+03  0.20377930522E+03  0.00000000000E+00 0.  1.
    9000007    1    1    2  501    0 -0.71802808266E+02  0.24838671477E+03  0.57750024053E+03  0.74857072556E+03  0.40000000000E+03 0.  1.
   -9000007    1    1    2    0  503  0.71802808266E+02 -0.24838671477E+03  0.36138171754E+03  0.59786984296E+03  0.40000000000E+03 0.  1.
<mgrwt>
<rscale>  2 0.47628941E+03</rscale>
<asrwt>0</asrwt>
<pdfrwt beam="1">  1       21 0.17579404E+00 0.47628941E+03</pdfrwt>
<pdfrwt beam="2">  1       21 0.31350663E-01 0.47628941E+03</pdfrwt>
<totfact> 0.15942158E+03</totfact>
</mgrwt>
</event>
<event>
 4    1  0.1147209E-002  0.5404351E+03  0.7818608E-02  0.1003732E+00
         21   -1    0    0  501  502  0.00000000000E+00  0.00000000000E+00  0.13347846889E+04  0.13347846889E+04  0.00000000000E+00 0.  1.
         21   -1    0    0  502  503 -0.00000000000E+00 -0.00000000000E+00 -0.21935209529E+03  0.21935209529E+03  0.00000000000E+00 0. -1.
    9000007    1    1    2  501    0  0.12618908385E+03 -0.34080252748E+03  0.51924156583E+03  0.74945436906E+03  0.40000000000E+03 0.  1.
   -9000007    1    1    2    0  503 -0.12618908385E+03  0.34080252748E+03  0.59619102777E+03  0.80468241513E+03  0.40000000000E+03 0. -1.
<mgrwt>
<rscale>  2 0.54043505E+03</rscale>
<asrwt>0</asrwt>
<pdfrwt beam="1">  1       21 0.20535149E+00 0.54043505E+03</pdfrwt>
<pdfrwt beam="2">  1       21 0.33746477E-01 0.54043505E+03</pdfrwt>
<totfact> 0.83963190E+02</totfact>
</mgrwt>
</event>
<event>
 4    1  0.1147209E-002  0.4423567E+03  0.7818608E-02  0.1030026E+00
         21   -1    0    0  503  502  0.00000000000E+00  0.00000000000E+00  0.14653023549E+03  0.14653023549E+03  0.00000000000E+00 0. -1.
         21   -1    0    0  501  503 -0.00000000000E+00 -0.00000000000E+00 -0.15118198111E+04  0.15118198111E+04  0.00000000000E+00 0. -1.
    9000007    1    1    2  501    0  0.13098570108E+03  0.13609629405E+03 -0.96587843815E+03  0.10623561608E+04  0.40000000000E+03 0. -1.
   -9000007    1    1    2    0  502 -0.13098570108E+03 -0.13609629405E+03 -0.39941113741E+03  0.59599388573E+03  0.40000000000E+03 0. -1.
<mgrwt>
<rscale>  2 0.44235671E+03</rscale>
<asrwt>0</asrwt>
<pdfrwt beam="1">  1       21 0.22543112E-01 0.44235671E+03</pdfrwt>
<pdfrwt beam="2">  1       21 0.23258767E+00 0.44235671E+03</pdfrwt>
<totfact> 0.12958956E+03</totfact>
</mgrwt>
</event>
<event>
 4    1  0.1147209E-002  0.6314032E+03  0.7818608E-02  0.9842314E-01
         21   -1    0    0  501  502  0.00000000000E+00  0.00000000000E+00  0.21594955392E+03  0.21594955392E+03  0.00000000000E+00 0. -1.
         21   -1    0    0  502  503 -0.00000000000E+00 -0.00000000000E+00 -0.19828716046E+04  0.19828716046E+04  0.00000000000E+00 0.  1.
    9000007    1    1    2  501    0  0.27559714189E+03  0.40338097828E+03 -0.11721764251E+04  0.13314156263E+04  0.40000000000E+03 0.  1.
   -9000007    1    1    2    0  503 -0.27559714189E+03 -0.40338097828E+03 -0.59474562555E+03  0.86740553224E+03  0.40000000000E+03 0. -1.
<mgrwt>
<rscale>  2 0.63140320E+03</rscale>
<asrwt>0</asrwt>
<pdfrwt beam="1">  1       21 0.33223006E-01 0.63140320E+03</pdfrwt>
<pdfrwt beam="2">  1       21 0.30505719E+00 0.63140320E+03</pdfrwt>
<totfact> 0.19903364E+02</totfact>
</mgrwt>
</event>
<event>
 4    1  0.1147209E-002  0.4619079E+03  0.7818608E-02  0.1024229E+00
         21   -1    0    0  501  502  0.00000000000E+00  0.00000000000E+00  0.17712978010E+03  0.17712978010E+03  0.00000000000E+00 0.  1.
         21   -1    0    0  502  503 -0.00000000000E+00 -0.00000000000E+00 -0.12764685454E+04  0.12764685454E+04  0.00000000000E+00 0.  1.
    9000007    1    1    2  501    0  0.14351554762E+03  0.18100333596E+03 -0.37713454858E+03  0.59631316250E+03  0.40000000000E+03 0. -1.
   -9000007    1    1    2    0  503 -0.14351554762E+03 -0.18100333596E+03 -0.72220421671E+03  0.85728516298E+03  0.40000000000E+03 0. -1.
<mgrwt>
<rscale>  2 0.46190791E+03</rscale>
<asrwt>0</asrwt>
<pdfrwt beam="1">  1       21 0.27250737E-01 0.46190791E+03</pdfrwt>
<pdfrwt beam="2">  1       21 0.19637977E+00 0.46190791E+03</pdfrwt>
<totfact> 0.15241221E+03</totfact>
</mgrwt>
</event>
<event>
 4    1  0.1147209E-002  0.4595765E+03  0.7818608E-02  0.1024904E+00
         21   -1    0    0  503  502  0.00000000000E+00  0.00000000000E+00  0.15425013259E+03  0.15425013259E+03  0.00000000000E+00 0. -1.
         21   -1    0    0  501  503 -0.00000000000E+00 -0.00000000000E+00 -0.14488705659E+04  0.14488705659E+04  0.00000000000E+00 0. -1.
    9000007    1    1    2  501    0 -0.22179987093E+03 -0.44892759111E+02 -0.83518621928E+03  0.95328199576E+03  0.40000000000E+03 0. -1.
   -9000007    1    1    2    0  502  0.22179987093E+03  0.44892759111E+02 -0.45943421408E+03  0.64983870278E+03  0.40000000000E+03 0. -1.
<mgrwt>
<rscale>  2 0.45957648E+03</rscale>
<asrwt>0</asrwt>
<pdfrwt beam="1">  1       21 0.23730790E-01 0.45957648E+03</pdfrwt>
<pdfrwt beam="2">  1       21 0.22290316E+00 0.45957648E+03</pdfrwt>
<totfact> 0.13402217E+03</totfact>
</mgrwt>
</event>
<event>
 4    1  0.1147209E-002  0.4064558E+03  0.7818608E-02  0.1041567E+00
         21   -1    0    0  501  502  0.00000000000E+00  0.00000000000E+00  0.46030401484E+03  0.46030401484E+03  0.00000000000E+00 0. -1.
         21   -1    0    0  502  503 -0.00000000000E+00 -0.00000000000E+00 -0.36212355221E+03  0.36212355221E+03  0.00000000000E+00 0. -1.
    9000007    1    1    2  501    0  0.63077182066E+02  0.35037145179E+02  0.87845849620E+02  0.41584038493E+03  0.40000000000E+03 0. -1.
   -9000007    1    1    2    0  503 -0.63077182066E+02 -0.35037145179E+02  0.10334613004E+02  0.40658718212E+03  0.40000000000E+03 0. -1.
<mgrwt>
<rscale>  2 0.40645582E+03</rscale>
<asrwt>0</asrwt>
<pdfrwt beam="1">  1       21 0.70816002E-01 0.40645582E+03</pdfrwt>
<pdfrwt beam="2">  1       21 0.55711316E-01 0.40645582E+03</pdfrwt>
<totfact> 0.48943767E+03</totfact>
</mgrwt>
</event>
<event>
 4    1  0.1147209E-002  0.4658360E+03  0.7818608E-02  0.1023102E+00
         21   -1    0    0  501  502  0.00000000000E+00  0.00000000000E+00  0.13372443448E+04  0.13372443448E+04  0.00000000000E+00 0.  1.
         21   -1    0    0  502  503 -0.00000000000E+00 -0.00000000000E+00 -0.17149565958E+03  0.17149565958E+03  0.00000000000E+00 0.  1.
    9000007    1    1    2  501    0 -0.21681770968E+03 -0.99966181433E+02  0.75778110343E+03  0.88951411309E+03  0.40000000000E+03 0.  1.
   -9000007    1    1    2    0  503  0.21681770968E+03  0.99966181433E+02  0.40796758178E+03  0.61922589129E+03  0.40000000000E+03 0.  1.
<mgrwt>
<rscale>  2 0.46583598E+03</rscale>
<asrwt>0</asrwt>
<pdfrwt beam="1">  1       21 0.20572989E+00 0.46583598E+03</pdfrwt>
<pdfrwt beam="2">  1       21 0.26383948E-01 0.46583598E+03</pdfrwt>
<totfact> 0.14045293E+03</totfact>
</mgrwt>
</event>
<event>
 4    1  0.1147209E-002  0.4109375E+03  0.7818608E-02  0.1040057E+00
         21   -1    0    0  503  502  0.00000000000E+00  0.00000000000E+00  0.85370272983E+03  0.85370272983E+03  0.00000000000E+00 0.  1.
         21   -1    0    0  501  503 -0.00000000000E+00 -0.00000000000E+00 -0.19798145751E+03  0.19798145751E+03  0.00000000000E+00 0.  1.
    9000007    1    1    2  501    0  0.64045570380E+01  0.93960841442E+02  0.34340276055E+03  0.53553255179E+03  0.40000000000E+03 0.  1.
   -9000007    1    1    2    0  502 -0.64045570380E+01 -0.93960841442E+02  0.31231851177E+03  0.51615163554E+03  0.40000000000E+03 0.  1.
<mgrwt>
<rscale>  2 0.41093754E+03</rscale>
<asrwt>0</asrwt>
<pdfrwt beam="1">  1       21 0.13133888E+00 0.41093754E+03</pdfrwt>
<pdfrwt beam="2">  1       21 0.30458686E-01 0.41093754E+03</pdfrwt>
<totfact> 0.38455904E+03</totfact>
</mgrwt>
</event>
<event>
 4    1  0.1147209E-002  0.5267148E+03  0.7818608E-02  0.1007032E+00
         21   -1    0    0  501  502  0.00000000000E+00  0.00000000000E+00  0.14519782103E+04  0.14519782103E+04  0.00000000000E+00 0.  1.
         21   -1    0    0  502  503 -0.00000000000E+00 -0.00000000000E+00 -0.19550720531E+03  0.19550720531E+03  0.00000000000E+00 0.  1.
    9000007    1    1    2  501    0  0.16575611846E+03  0.29992230551E+03  0.50412785460E+03  0.72909078580E+03  0.40000000000E+03 0.  1.
   -9000007    1    1    2    0  503 -0.16575611846E+03 -0.29992230551E+03  0.75234315040E+03  0.91839462983E+03  0.40000000000E+03 0.  1.
<mgrwt>
<rscale>  2 0.52671480E+03</rscale>
<asrwt>0</asrwt>
<pdfrwt beam="1">  1       21 0.22338126E+00 0.52671480E+03</pdfrwt>
<pdfrwt beam="2">  1       21 0.30078033E-01 0.52671480E+03</pdfrwt>
<totfact> 0.81166345E+02</totfact>
</mgrwt>
</event>
<event>
 4    1  0.1147209E-002  0.4007590E+03  0.7818608E-02  0.1043517E+00
         21   -1    0    0  501  502  0.00000000000E+00  0.00000000000E+00  0.90226407197E+03  0.90226407197E+03  0.00000000000E+00 0.  1.
         21   -1    0    0  502  503 -0.00000000000E+00 -0.00000000000E+00 -0.18311106100E+03  0.18311106100E+03  0.00000000000E+00 0.  1.
    9000007    1    1    2  501    0 -0.23416396351E+02 -0.77102544324E+01  0.45019635769E+03  0.60273089859E+03  0.40000000000E+03 0.  1.
   -9000007    1    1    2    0  503  0.23416396351E+02  0.77102544324E+01  0.26895665328E+03  0.48264423438E+03  0.40000000000E+03 0.  1.
<mgrwt>
<rscale>  2 0.40075900E+03</rscale>
<asrwt>0</asrwt>
<pdfrwt beam="1">  1       21 0.13880986E+00 0.40075900E+03</pdfrwt>
<pdfrwt beam="2">  1       21 0.28170933E-01 0.40075900E+03</pdfrwt>
<totfact> 0.38992224E+03</totfact>
</mgrwt>
</event>
<event>
 4    1  0.1147209E-002  0.4102140E+03  0.7818608E-02  0.1040299E+00
         21   -1    0    0  501  502  0.00000000000E+00  0.00000000000E+00  0.50630186493E+03  0.50630186493E+03  0.00000000000E+00 0. -1.
         21   -1    0    0  502  503 -0.00000000000E+00 -0.00000000000E+00 -0.34392011164E+03  0.34392011164E+03  0.00000000000E+00 0. -1.
    9000007    1    1    2  501    0  0.33197481142E+02 -0.84696430673E+02  0.32590517655E+01  0.41022698539E+03  0.40000000000E+03 0. -1.
   -9000007    1    1    2    0  503 -0.33197481142E+02  0.84696430673E+02  0.15912270152E+03  0.43999499118E+03  0.40000000000E+03 0. -1.
<mgrwt>
<rscale>  2 0.41021404E+03</rscale>
<asrwt>0</asrwt>
<pdfrwt beam="1">  1       21 0.77892595E-01 0.41021404E+03</pdfrwt>
<pdfrwt beam="2">  1       21 0.52910786E-01 0.41021404E+03</pdfrwt>
<totfact> 0.43981218E+03</totfact>
</mgrwt>
</event>
<event>
 4    1  0.1147209E-002  0.7025101E+03  0.7818608E-02  0.9712949E-01
         21   -1    0    0  501  502  0.00000000000E+00  0.00000000000E+00  0.30434226360E+03  0.30434226360E+03  0.00000000000E+00 0. -1.
         21   -1    0    0  502  503 -0.00000000000E+00 -0.00000000000E+00 -0.17185664342E+04  0.17185664342E+04  0.00000000000E+00 0.  1.
    9000007    1    1    2  501    0 -0.50615266199E+03  0.27808270628E+03 -0.46685262252E+03  0.84348792518E+03  0.40000000000E+03 0. -1.
   -9000007    1    1    2    0  503  0.50615266199E+03 -0.27808270628E+03 -0.94737154804E+03  0.11794207726E+04  0.40000000000E+03 0.  1.
<mgrwt>
<rscale>  2 0.70251015E+03</rscale>
<asrwt>0</asrwt>
<pdfrwt beam="1">  1       21 0.46821886E-01 0.70251015E+03</pdfrwt>
<pdfrwt beam="2">  1       21 0.26439484E+00 0.70251015E+03</pdfrwt>
<totfact> 0.16875336E+02</totfact>
</mgrwt>
</event>
<event>
 4    1  0.1147209E-002  0.5187787E+03  0.7818608E-02  0.1008990E+00
         21   -1    0    0  503  502  0.00000000000E+00  0.00000000000E+00  0.25312370260E+03  0.25312370260E+03  0.00000000000E+00 0. -1.
         21   -1    0    0  501  503 -0.00000000000E+00 -0.00000000000E+00 -0.10805781684E+04  0.10805781684E+04  0.00000000000E+00 0. -1.
    9000007    1    1    2  501    0  0.17636618163E+03 -0.27933186212E+03 -0.49819648197E+03  0.71925729323E+03  0.40000000000E+03 0. -1.
   -9000007    1    1    2    0  502 -0.17636618163E+03  0.27933186212E+03 -0.32925798378E+03  0.61444457773E+03  0.40000000000E+03 0. -1.
<mgrwt>
<rscale>  2 0.51877868E+03</rscale>
<asrwt>0</asrwt>
<pdfrwt beam="1">  1       21 0.38942109E-01 0.51877868E+03</pdfrwt>
<pdfrwt beam="2">  1       21 0.16624279E+00 0.51877868E+03</pdfrwt>
<totfact> 0.11859538E+03</totfact>
</mgrwt>
</event>
<event>
 4    1  0.1147209E-002  0.4706306E+03  0.7818608E-02  0.1021742E+00
         21   -1    0    0  501  502  0.00000000000E+00  0.00000000000E+00  0.17343120948E+04  0.17343120948E+04  0.00000000000E+00 0.  1.
         21   -1    0    0  502  503 -0.00000000000E+00 -0.00000000000E+00 -0.15654720599E+03  0.15654720599E+03  0.00000000000E+00 0.  1.
    9000007    1    1    2  501    0  0.20661541990E+03  0.13712487773E+03  0.11946385449E+04  0.12839993835E+04  0.40000000000E+03 0.  1.
   -9000007    1    1    2    0  503 -0.20661541990E+03 -0.13712487773E+03  0.38312634392E+03  0.60685991731E+03  0.40000000000E+03 0.  1.
<mgrwt>
<rscale>  2 0.47063060E+03</rscale>
<asrwt>0</asrwt>
<pdfrwt beam="1">  1       21 0.26681723E+00 0.47063060E+03</pdfrwt>
<pdfrwt beam="2">  1       21 0.24084187E-01 0.47063060E+03</pdfrwt>
<totfact> 0.69234349E+02</totfact>
</mgrwt>
</event>
<event>
 4    1  0.1147209E-002  0.4867211E+03  0.7818608E-02  0.1017304E+00
         21   -1    0    0  503  502  0.00000000000E+00  0.00000000000E+00  0.12141784247E+04  0.12141784247E+04  0.00000000000E+00 0.  1.
         21   -1    0    0  501  503 -0.00000000000E+00 -0.00000000000E+00 -0.21527662542E+03  0.21527662542E+03  0.00000000000E+00 0. -1.
    9000007    1    1    2  501    0 -0.27492017440E+03 -0.36280888097E+02  0.71821048209E+03  0.86759650859E+03  0.40000000000E+03 0.  1.
   -9000007    1    1    2    0  502  0.27492017440E+03  0.36280888097E+02  0.28069131715E+03  0.56185854150E+03  0.40000000000E+03 0. -1.
<mgrwt>
<rscale>  2 0.48672108E+03</rscale>
<asrwt>0</asrwt>
<pdfrwt beam="1">  1       21 0.18679668E+00 0.48672108E+03</pdfrwt>
<pdfrwt beam="2">  1       21 0.33119482E-01 0.48672108E+03</pdfrwt>
<totfact> 0.11895930E+03</totfact>
</mgrwt>
</event>
<event>
 4    1  0.1147209E-002  0.4471572E+03  0.7818608E-02  0.1028573E+00
         21   -1    0    0  501  502  0.00000000000E+00  0.00000000000E+00  0.18151484888E+04  0.18151484888E+04  0.00000000000E+00 0. -1.
         21   -1    0    0  502  503 -0.00000000000E+00 -0.00000000000E+00 -0.13608075817E+03  0.13608075817E+03  0.00000000000E+00 0. -1.
    9000007    1    1    2  501    0 -0.24775499257E+02 -0.19833227552E+03  0.12653647984E+04  0.13420497718E+04  0.40000000000E+03 0. -1.
   -9000007    1    1    2    0  503  0.24775499257E+02  0.19833227552E+03  0.41370293226E+03  0.60917947523E+03  0.40000000000E+03 0. -1.
<mgrwt>
<rscale>  2 0.44715715E+03</rscale>
<asrwt>0</asrwt>
<pdfrwt beam="1">  1       21 0.27925360E+00 0.44715715E+03</pdfrwt>
<pdfrwt beam="2">  1       21 0.20935503E-01 0.44715715E+03</pdfrwt>
<totfact> 0.77192306E+02</totfact>
</mgrwt>
</event>
<event>
 4    1  0.1147209E-002  0.4027958E+03  0.7818608E-02  0.1042816E+00
         21   -1    0    0  501  502  0.00000000000E+00  0.00000000000E+00  0.11774733905E+03  0.11774733905E+03  0.00000000000E+00 0.  1.
         21   -1    0    0  502  503 -0.00000000000E+00 -0.00000000000E+00 -0.15450075553E+04  0.15450075553E+04  0.00000000000E+00 0.  1.
    9000007    1    1    2  501    0  0.36658419482E+02  0.30009653777E+02 -0.98704804326E+03  0.10660714135E+04  0.40000000000E+03 0.  1.
   -9000007    1    1    2    0  503 -0.36658419482E+02 -0.30009653777E+02 -0.44021217296E+03  0.59668348080E+03  0.40000000000E+03 0.  1.
<mgrwt>
<rscale>  2 0.40279575E+03</rscale>
<asrwt>0</asrwt>
<pdfrwt beam="1">  1       21 0.18114975E-01 0.40279575E+03</pdfrwt>
<pdfrwt beam="2">  1       21 0.23769347E+00 0.40279575E+03</pdfrwt>
<totfact> 0.18621124E+03</totfact>
</mgrwt>
</event>
<event>
 4    1  0.1147209E-002  0.9348486E+03  0.7818608E-02  0.9383038E-01
         21   -1    0    0  503  502  0.00000000000E+00  0.00000000000E+00  0.81321510116E+03  0.81321510116E+03  0.00000000000E+00 0.  1.
         21   -1    0    0  501  503 -0.00000000000E+00 -0.00000000000E+00 -0.17706157194E+04  0.17706157194E+04  0.00000000000E+00 0.  1.
    9000007    1    1    2  501    0  0.84073956476E+03 -0.84254755178E+02 -0.12886500438E+04  0.15920304064E+04  0.40000000000E+03 0.  1.
   -9000007    1    1    2    0  502 -0.84073956476E+03  0.84254755178E+02  0.33124942559E+03  0.99180041413E+03  0.40000000000E+03 0.  1.
<mgrwt>
<rscale>  2 0.93484859E+03</rscale>
<asrwt>0</asrwt>
<pdfrwt beam="1">  1       21 0.12511002E+00 0.93484859E+03</pdfrwt>
<pdfrwt beam="2">  1       21 0.27240242E+00 0.93484859E+03</pdfrwt>
<totfact> 0.13960784E+01</totfact>
</mgrwt>
</event>
<event>
 4    1  0.1147209E-002  0.4417336E+03  0.7818608E-02  0.1030216E+00
         21   -1    0    0  501  502  0.00000000000E+00  0.00000000000E+00  0.71700138547E+03  0.71700138547E+03  0.00000000000E+00 0. -1.
         21   -1    0    0  502  503 -0.00000000000E+00 -0.00000000000E+00 -0.41774450231E+03  0.41774450231E+03  0.00000000000E+00 0.  1.
    9000007    1    1    2  501    0 -0.18550840201E+03 -0.26743953420E+02  0.48458820876E+03  0.65570903481E+03  0.40000000000E+03 0. -1.
   -9000007    1    1    2    0  503  0.18550840201E+03  0.26743953420E+02 -0.18533132560E+03  0.47903685298E+03  0.40000000000E+03 0.  1.
<mgrwt>
<rscale>  2 0.44173364E+03</rscale>
<asrwt>0</asrwt>
<pdfrwt beam="1">  1       21 0.11030791E+00 0.44173364E+03</pdfrwt>
<pdfrwt beam="2">  1       21 0.64268385E-01 0.44173364E+03</pdfrwt>
<totfact> 0.12405968E+03</totfact>
</mgrwt>
</event>
<event>
 4    1  0.1147209E-002  0.4226016E+03  0.7818608E-02  0.1036223E+00
         21   -1    0    0  501  502  0.00000000000E+00  0.00000000000E+00  0.17323748270E+04  0.17323748270E+04  0.00000000000E+00 0. -1.
         21   -1    0    0  502  503 -0.00000000000E+00 -0.00000000000E+00 -0.10363930850E+03  0.10363930850E+03  0.00000000000E+00 0. -1.
    9000007    1    1    2  501    0  0.13605673252E+03 -0.89817876884E+01  0.88114519030E+03  0.97724559521E+03  0.40000000000E+03 0.  1.
   -9000007    1    1    2    0  503 -0.13605673252E+03  0.89817876884E+01  0.74759032823E+03  0.85876854031E+03  0.40000000000E+03 0.  1.
<mgrwt>
<rscale>  2 0.42260159E+03</rscale>
<asrwt>0</asrwt>
<pdfrwt beam="1">  1       21 0.26651918E+00 0.42260159E+03</pdfrwt>
<pdfrwt beam="2">  1       21 0.15944510E-01 0.42260159E+03</pdfrwt>
<totfact> 0.15600038E+03</totfact>
</mgrwt>
</event>
<event>
 4    1  0.1147209E-002  0.5020342E+03  0.7818608E-02  0.1013249E+00
         21   -1    0    0  503  502  0.00000000000E+00  0.00000000000E+00  0.15082362162E+04  0.15082362162E+04  0.00000000000E+00 0.  1.
         21   -1    0    0  501  503 -0.00000000000E+00 -0.00000000000E+00 -0.19301627056E+03  0.19301627056E+03  0.00000000000E+00 0.  1.
    9000007    1    1    2  501    0 -0.51928283733E+02  0.29890096085E+03  0.34596432534E+03  0.60969635513E+03  0.40000000000E+03 0.  1.
   -9000007    1    1    2    0  502  0.51928283733E+02 -0.29890096085E+03  0.96925562032E+03  0.10915561317E+04  0.40000000000E+03 0.  1.
<mgrwt>
<rscale>  2 0.50203419E+03</rscale>
<asrwt>0</asrwt>
<pdfrwt beam="1">  1       21 0.23203633E+00 0.50203419E+03</pdfrwt>
<pdfrwt beam="2">  1       21 0.29694812E-01 0.50203419E+03</pdfrwt>
<totfact> 0.74130147E+02</totfact>
</mgrwt>
</event>
<event>
 4    1  0.1147209E-002  0.4235209E+03  0.7818608E-02  0.1035926E+00
         21   -1    0    0  501  502  0.00000000000E+00  0.00000000000E+00  0.20463822507E+03  0.20463822507E+03  0.00000000000E+00 0. -1.
         21   -1    0    0  502  503 -0.00000000000E+00 -0.00000000000E+00 -0.13430608099E+04  0.13430608099E+04  0.00000000000E+00 0. -1.
    9000007    1    1    2  501    0 -0.12591080115E+03  0.59299250518E+02 -0.11311923395E+03  0.43836730267E+03  0.40000000000E+03 0. -1.
   -9000007    1    1    2    0  503  0.12591080115E+03 -0.59299250518E+02 -0.10253033509E+04  0.11093317323E+04  0.40000000000E+03 0. -1.
<mgrwt>
<rscale>  2 0.42352087E+03</rscale>
<asrwt>0</asrwt>
<pdfrwt beam="1">  1       21 0.31482805E-01 0.42352087E+03</pdfrwt>
<pdfrwt beam="2">  1       21 0.20662473E+00 0.42352087E+03</pdfrwt>
<totfact> 0.99636092E+02</totfact>
</mgrwt>
</event>
<event>
 4    1  0.1147209E-002  0.6509827E+03  0.7818608E-02  0.9804937E-01
         21   -1    0    0  503  502  0.00000000000E+00  0.00000000000E+00  0.12818176266E+04  0.12818176266E+04  0.00000000000E+00 0.  1.
         21   -1    0    0  501  503 -0.00000000000E+00 -0.00000000000E+00 -0.37904419414E+03  0.37904419414E+03  0.00000000000E+00 0. -1.
    9000007    1    1    2  501    0 -0.96423841935E+02 -0.50446099104E+03  0.15453054518E+03  0.66907259559E+03  0.40000000000E+03 0.  1.
   -9000007    1    1    2    0  502  0.96423841935E+02  0.50446099104E+03  0.74824288727E+03  0.99178922515E+03  0.40000000000E+03 0.  1.
<mgrwt>
<rscale>  2 0.65098268E+03</rscale>
<asrwt>0</asrwt>
<pdfrwt beam="1">  1       21 0.19720271E+00 0.65098268E+03</pdfrwt>
<pdfrwt beam="2">  1       21 0.58314492E-01 0.65098268E+03</pdfrwt>
<totfact> 0.28935957E+02</totfact>
</mgrwt>
</event>
<event>
 4    1  0.1147209E-002  0.5765333E+03  0.7818608E-02  0.9955325E-01
         21   -1    0    0  501  502  0.00000000000E+00  0.00000000000E+00  0.32027915759E+03  0.32027915759E+03  0.00000000000E+00 0.  1.
         21   -1    0    0  502  503 -0.00000000000E+00 -0.00000000000E+00 -0.20978906561E+04  0.20978906561E+04  0.00000000000E+00 0. -1.
    9000007    1    1    2  501    0  0.28515433085E+03  0.30179079569E+03 -0.29329851939E+02  0.57727889012E+03  0.40000000000E+03 0.  1.
   -9000007    1    1    2    0  503 -0.28515433085E+03 -0.30179079569E+03 -0.17482816465E+04  0.18408909235E+04  0.40000000000E+03 0. -1.
<mgrwt>
<rscale>  2 0.57653333E+03</rscale>
<asrwt>0</asrwt>
<pdfrwt beam="1">  1       21 0.49273715E-01 0.57653333E+03</pdfrwt>
<pdfrwt beam="2">  1       21 0.32275242E+00 0.57653333E+03</pdfrwt>
<totfact> 0.70214655E+01</totfact>
</mgrwt>
</event>
<event>
 4    1  0.1147209E-002  0.4094470E+03  0.7818608E-02  0.1040557E+00
         21   -1    0    0  503  502  0.00000000000E+00  0.00000000000E+00  0.11872139271E+03  0.11872139271E+03  0.00000000000E+00 0. -1.
         21   -1    0    0  501  503 -0.00000000000E+00 -0.00000000000E+00 -0.15492037265E+04  0.15492037265E+04  0.00000000000E+00 0. -1.
    9000007    1    1    2  501    0  0.20961055524E+02  0.84896833239E+02 -0.96333280157E+03  0.10467363205E+04  0.40000000000E+03 0. -1.
   -9000007    1    1    2    0  502 -0.20961055524E+02 -0.84896833239E+02 -0.46714953218E+03  0.62118879864E+03  0.40000000000E+03 0. -1.
<mgrwt>
<rscale>  2 0.40944699E+03</rscale>
<asrwt>0</asrwt>
<pdfrwt beam="1">  1       21 0.18264831E-01 0.40944699E+03</pdfrwt>
<pdfrwt beam="2">  1       21 0.23833902E+00 0.40944699E+03</pdfrwt>
<totfact> 0.18103094E+03</totfact>
</mgrwt>
</event>
<event>
 4    1  0.1147209E-002  0.4606413E+03  0.7818608E-02  0.1024595E+00
         21   -1    0    0  501  502  0.00000000000E+00  0.00000000000E+00  0.18213708388E+03  0.18213708388E+03  0.00000000000E+00 0. -1.
         21   -1    0    0  502  503 -0.00000000000E+00 -0.00000000000E+00 -0.15088678697E+04  0.15088678697E+04  0.00000000000E+00 0. -1.
    9000007    1    1    2  501    0 -0.22575472390E+03 -0.35003161709E+02 -0.25973616935E+03  0.52882255470E+03  0.40000000000E+03 0. -1.
   -9000007    1    1    2    0  503  0.22575472390E+03  0.35003161709E+02 -0.10669946165E+04  0.11621823989E+04  0.40000000000E+03 0. -1.
<mgrwt>
<rscale>  2 0.46064131E+03</rscale>
<asrwt>0</asrwt>
<pdfrwt beam="1">  1       21 0.28021090E-01 0.46064131E+03</pdfrwt>
<pdfrwt beam="2">  1       21 0.23213352E+00 0.46064131E+03</pdfrwt>
<totfact> 0.84648352E+02</totfact>
</mgrwt>
</event>
<event>
 4    1  0.1147209E-002  0.4198596E+03  0.7818608E-02  0.1037112E+00
         21   -1    0    0  501  502  0.00000000000E+00  0.00000000000E+00  0.94311714673E+02  0.94311714673E+02  0.00000000000E+00 0. -1.
         21   -1    0    0  502  503 -0.00000000000E+00 -0.00000000000E+00 -0.22413000714E+04  0.22413000714E+04  0.00000000000E+00 0. -1.
    9000007    1    1    2  501    0 -0.98954711700E+02 -0.80560647978E+02 -0.15493594079E+04  0.16052403645E+04  0.40000000000E+03 0. -1.
   -9000007    1    1    2    0  503  0.98954711700E+02  0.80560647978E+02 -0.59762894881E+03  0.73037142155E+03  0.40000000000E+03 0. -1.
<mgrwt>
<rscale>  2 0.41985956E+03</rscale>
<asrwt>0</asrwt>
<pdfrwt beam="1">  1       21 0.14509495E-01 0.41985956E+03</pdfrwt>
<pdfrwt beam="2">  1       21 0.34481538E+00 0.41985956E+03</pdfrwt>
<totfact> 0.62840913E+02</totfact>
</mgrwt>
</event>
<event>
 4    1  0.1147209E-002  0.4592956E+03  0.7818608E-02  0.1024986E+00
         21   -1    0    0  503  502  0.00000000000E+00  0.00000000000E+00  0.11519768688E+04  0.11519768688E+04  0.00000000000E+00 0. -1.
         21   -1    0    0  501  503 -0.00000000000E+00 -0.00000000000E+00 -0.21492315961E+03  0.21492315961E+03  0.00000000000E+00 0. -1.
    9000007    1    1    2  501    0  0.12675938922E+03  0.18677404126E+03  0.73142382249E+03  0.86367429819E+03  0.40000000000E+03 0. -1.
   -9000007    1    1    2    0  502 -0.12675938922E+03 -0.18677404126E+03  0.20562988670E+03  0.50322573021E+03  0.40000000000E+03 0. -1.
<mgrwt>
<rscale>  2 0.45929564E+03</rscale>
<asrwt>0</asrwt>
<pdfrwt beam="1">  1       21 0.17722721E+00 0.45929564E+03</pdfrwt>
<pdfrwt beam="2">  1       21 0.33065102E-01 0.45929564E+03</pdfrwt>
<totfact> 0.14092121E+03</totfact>
</mgrwt>
</event>
<event>
 4    1  0.1147209E-002  0.4547045E+03  0.7818608E-02  0.1026328E+00
         21   -1    0    0  503  502  0.00000000000E+00  0.00000000000E+00  0.50010286654E+03  0.50010286654E+03  0.00000000000E+00 0. -1.
         21   -1    0    0  501  503 -0.00000000000E+00 -0.00000000000E+00 -0.48814818833E+03  0.48814818833E+03  0.00000000000E+00 0. -1.
    9000007    1    1    2  501    0  0.81291254603E+02  0.20036940622E+03 -0.18734521581E+03  0.49178694260E+03  0.40000000000E+03 0. -1.
   -9000007    1    1    2    0  502 -0.81291254603E+02 -0.20036940622E+03  0.19929989401E+03  0.49646411227E+03  0.40000000000E+03 0. -1.
<mgrwt>
<rscale>  2 0.45470448E+03</rscale>
<asrwt>0</asrwt>
<pdfrwt beam="1">  1       21 0.76938903E-01 0.45470448E+03</pdfrwt>
<pdfrwt beam="2">  1       21 0.75099721E-01 0.45470448E+03</pdfrwt>
<totfact> 0.20530846E+03</totfact>
</mgrwt>
</event>
<event>
 4    1  0.1147209E-002  0.4147051E+03  0.7818608E-02  0.1038804E+00
         21   -1    0    0  503  502  0.00000000000E+00  0.00000000000E+00  0.37612337458E+03  0.37612337458E+03  0.00000000000E+00 0. -1.
         21   -1    0    0  501  503 -0.00000000000E+00 -0.00000000000E+00 -0.46391743003E+03  0.46391743003E+03  0.00000000000E+00 0. -1.
    9000007    1    1    2  501    0 -0.66020514215E+02 -0.87301887007E+02  0.64773577752E+01  0.41475569187E+03  0.40000000000E+03 0. -1.
   -9000007    1    1    2    0  502  0.66020514215E+02  0.87301887007E+02 -0.94271413230E+02  0.42528511275E+03  0.40000000000E+03 0. -1.
<mgrwt>
<rscale>  2 0.41470511E+03</rscale>
<asrwt>0</asrwt>
<pdfrwt beam="1">  1       21 0.57865135E-01 0.41470511E+03</pdfrwt>
<pdfrwt beam="2">  1       21 0.71371912E-01 0.41470511E+03</pdfrwt>
<totfact> 0.44162703E+03</totfact>
</mgrwt>
</event>
<event>
 4    1  0.1147209E-002  0.4009581E+03  0.7818608E-02  0.1043448E+00
         21   -1    0    0  501  502  0.00000000000E+00  0.00000000000E+00  0.23393869464E+04  0.23393869464E+04  0.00000000000E+00 0.  1.
         21   -1    0    0  502  503 -0.00000000000E+00 -0.00000000000E+00 -0.68729983145E+02  0.68729983145E+02  0.00000000000E+00 0.  1.
    9000007    1    1    2  501    0 -0.26035103905E+02 -0.94643206545E+01  0.11223693419E+04  0.11918390578E+04  0.40000000000E+03 0. -1.
   -9000007    1    1    2    0  503  0.26035103905E+02  0.94643206545E+01  0.11482876214E+04  0.12162778718E+04  0.40000000000E+03 0. -1.
<mgrwt>
<rscale>  2 0.40095810E+03</rscale>
<asrwt>0</asrwt>
<pdfrwt beam="1">  1       21 0.35990562E+00 0.40095810E+03</pdfrwt>
<pdfrwt beam="2">  1       21 0.10573845E-01 0.40095810E+03</pdfrwt>
<totfact> 0.91582070E+02</totfact>
</mgrwt>
</event>
<event>
 4    1  0.1147209E-002  0.4195918E+03  0.7818608E-02  0.1037199E+00
         21   -1    0    0  503  502  0.00000000000E+00  0.00000000000E+00  0.67110730259E+03  0.67110730259E+03  0.00000000000E+00 0. -1.
         21   -1    0    0  501  503 -0.00000000000E+00 -0.00000000000E+00 -0.28761276176E+03  0.28761276176E+03  0.00000000000E+00 0. -1.
    9000007    1    1    2  501    0 -0.10596691444E+03  0.69485965681E+02  0.49646333230E+02  0.42251869164E+03  0.40000000000E+03 0.  1.
   -9000007    1    1    2    0  502  0.10596691444E+03 -0.69485965681E+02  0.33384820760E+03  0.53620137271E+03  0.40000000000E+03 0.  1.
<mgrwt>
<rscale>  2 0.41959181E+03</rscale>
<asrwt>0</asrwt>
<pdfrwt beam="1">  1       21 0.10324728E+00 0.41959181E+03</pdfrwt>
<pdfrwt beam="2">  1       21 0.44248117E-01 0.41959181E+03</pdfrwt>
<totfact> 0.32847712E+03</totfact>
</mgrwt>
</event>
<event>
 4    1  0.1147209E-002  0.4080865E+03  0.7818608E-02  0.1041015E+00
         21   -1    0    0  503  502  0.00000000000E+00  0.00000000000E+00  0.74627564906E+03  0.74627564906E+03  0.00000000000E+00 0. -1.
         21   -1    0    0  501  503 -0.00000000000E+00 -0.00000000000E+00 -0.34149542907E+03  0.34149542907E+03  0.00000000000E+00 0. -1.
    9000007    1    1    2  501    0  0.79344314879E+02  0.15461903231E+02 -0.11778162593E+03  0.42474357224E+03  0.40000000000E+03 0. -1.
   -9000007    1    1    2    0  502 -0.79344314879E+02 -0.15461903231E+02  0.52256184592E+03  0.66302750589E+03  0.40000000000E+03 0. -1.
<mgrwt>
<rscale>  2 0.40808650E+03</rscale>
<asrwt>0</asrwt>
<pdfrwt beam="1">  1       21 0.11481164E+00 0.40808650E+03</pdfrwt>
<pdfrwt beam="2">  1       21 0.52537758E-01 0.40808650E+03</pdfrwt>
<totfact> 0.17662666E+03</totfact>
</mgrwt>
</event>
<event>
 4    1  0.1147209E-002  0.4519620E+03  0.7818608E-02  0.1027139E+00
         21   -1    0    0  501  502  0.00000000000E+00  0.00000000000E+00  0.26832410429E+03  0.26832410429E+03  0.00000000000E+00 0.  1.
         21   -1    0    0  502  503 -0.00000000000E+00 -0.00000000000E+00 -0.76262174732E+03  0.76262174732E+03  0.00000000000E+00 0.  1.
    9000007    1    1    2  501    0  0.12503530312E+02  0.21003178430E+03 -0.22552471585E+03  0.50510502487E+03  0.40000000000E+03 0.  1.
   -9000007    1    1    2    0  503 -0.12503530312E+02 -0.21003178430E+03 -0.26877292717E+03  0.52584082674E+03  0.40000000000E+03 0.  1.
<mgrwt>
<rscale>  2 0.45196204E+03</rscale>
<asrwt>0</asrwt>
<pdfrwt beam="1">  1       21 0.41280632E-01 0.45196204E+03</pdfrwt>
<pdfrwt beam="2">  1       21 0.11732642E+00 0.45196204E+03</pdfrwt>
<totfact> 0.27306986E+03</totfact>
</mgrwt>
</event>
<event>
 4    1  0.1147209E-002  0.4427203E+03  0.7818608E-02  0.1029915E+00
         21   -1    0    0  501  502  0.00000000000E+00  0.00000000000E+00  0.13816575966E+04  0.13816575966E+04  0.00000000000E+00 0. -1.
         21   -1    0    0  502  503 -0.00000000000E+00 -0.00000000000E+00 -0.15444892651E+03  0.15444892651E+03  0.00000000000E+00 0.  1.
    9000007    1    1    2  501    0  0.18968029807E+03  0.47559907526E+01  0.83288590148E+03  0.94323918484E+03  0.40000000000E+03 0. -1.
   -9000007    1    1    2    0  503 -0.18968029807E+03 -0.47559907526E+01  0.39432276857E+03  0.59286733823E+03  0.40000000000E+03 0.  1.
<mgrwt>
<rscale>  2 0.44272027E+03</rscale>
<asrwt>0</asrwt>
<pdfrwt beam="1">  1       21 0.21256270E+00 0.44272027E+03</pdfrwt>
<pdfrwt beam="2">  1       21 0.23761374E-01 0.44272027E+03</pdfrwt>
<totfact> 0.15698534E+03</totfact>
</mgrwt>
</event>
<event>
 4    1  0.1147209E-002  0.6738198E+03  0.7818608E-02  0.9763082E-01
         21   -1    0    0  503  502  0.00000000000E+00  0.00000000000E+00  0.44039446608E+03  0.44039446608E+03  0.00000000000E+00 0.  1.
         21   -1    0    0  501  503 -0.00000000000E+00 -0.00000000000E+00 -0.10329788041E+04  0.10329788041E+04  0.00000000000E+00 0. -1.
    9000007    1    1    2  501    0  0.22648869061E+03 -0.49268238210E+03 -0.32878671229E+03  0.74975579943E+03  0.40000000000E+03 0.  1.
   -9000007    1    1    2    0  502 -0.22648869061E+03  0.49268238210E+03 -0.26379762570E+03  0.72361747072E+03  0.40000000000E+03 0. -1.
<mgrwt>
<rscale>  2 0.67381975E+03</rscale>
<asrwt>0</asrwt>
<pdfrwt beam="1">  1       21 0.67752995E-01 0.67381975E+03</pdfrwt>
<pdfrwt beam="2">  1       21 0.15891982E+00 0.67381975E+03</pdfrwt>
<totfact> 0.38826821E+02</totfact>
</mgrwt>
</event>
<event>
 4    1  0.1147209E-002  0.4186588E+03  0.7818608E-02  0.1037504E+00
         21   -1    0    0  503  502  0.00000000000E+00  0.00000000000E+00  0.10958767873E+04  0.10958767873E+04  0.00000000000E+00 0.  1.
         21   -1    0    0  501  503 -0.00000000000E+00 -0.00000000000E+00 -0.28495209953E+03  0.28495209953E+03  0.00000000000E+00 0.  1.
    9000007    1    1    2  501    0  0.11809031121E+02  0.12302740899E+03 -0.51835244292E+02  0.42185553111E+03  0.40000000000E+03 0.  1.
   -9000007    1    1    2    0  502 -0.11809031121E+02 -0.12302740899E+03  0.86275993202E+03  0.95897335567E+03  0.40000000000E+03 0.  1.
<mgrwt>
<rscale>  2 0.41865881E+03</rscale>
<asrwt>0</asrwt>
<pdfrwt beam="1">  1       21 0.16859643E+00 0.41865881E+03</pdfrwt>
<pdfrwt beam="2">  1       21 0.43838785E-01 0.41865881E+03</pdfrwt>
<totfact> 0.92988022E+02</totfact>
</mgrwt>
</event>
<event>
 4    1  0.1147209E-002  0.5012779E+03  0.7818608E-02  0.1013446E+00
         21   -1    0    0  503  502  0.00000000000E+00  0.00000000000E+00  0.12709896708E+04  0.12709896708E+04  0.00000000000E+00 0. -1.
         21   -1    0    0  501  503 -0.00000000000E+00 -0.00000000000E+00 -0.25695275116E+03  0.25695275116E+03  0.00000000000E+00 0. -1.
    9000007    1    1    2  501    0 -0.27784432244E+03 -0.11866789112E+03  0.14016674663E+03  0.52050576630E+03  0.40000000000E+03 0. -1.
   -9000007    1    1    2    0  502  0.27784432244E+03  0.11866789112E+03  0.87387017302E+03  0.10074366557E+04  0.40000000000E+03 0. -1.
<mgrwt>
<rscale>  2 0.50127790E+03</rscale>
<asrwt>0</asrwt>
<pdfrwt beam="1">  1       21 0.19553687E+00 0.50127790E+03</pdfrwt>
<pdfrwt beam="2">  1       21 0.39531193E-01 0.50127790E+03</pdfrwt>
<totfact> 0.71850448E+02</totfact>
</mgrwt>
</event>
<event>
 4    1  0.1147209E-002  0.7658751E+03  0.7818608E-02  0.9610769E-01
         21   -1    0    0  503  502  0.00000000000E+00  0.00000000000E+00  0.96524771693E+03  0.96524771693E+03  0.00000000000E+00 0. -1.
         21   -1    0    0  501  503 -0.00000000000E+00 -0.00000000000E+00 -0.10573429025E+04  0.10573429025E+04  0.00000000000E+00 0. -1.
    9000007    1    1    2  501    0 -0.54344223587E+03  0.36226400607E+03 -0.70554352941E+03  0.10413243230E+04  0.40000000000E+03 0. -1.
   -9000007    1    1    2    0  502  0.54344223587E+03 -0.36226400607E+03  0.61344834387E+03  0.98126629638E+03  0.40000000000E+03 0. -1.
<mgrwt>
<rscale>  2 0.76587510E+03</rscale>
<asrwt>0</asrwt>
<pdfrwt beam="1">  1       21 0.14849965E+00 0.76587510E+03</pdfrwt>
<pdfrwt beam="2">  1       21 0.16266814E+00 0.76587510E+03</pdfrwt>
<totfact> 0.50672671E+01</totfact>
</mgrwt>
</event>
<event>
 4    1  0.1147209E-002  0.4015525E+03  0.7818608E-02  0.1043243E+00
         21   -1    0    0  503  502  0.00000000000E+00  0.00000000000E+00  0.68485924014E+03  0.68485924014E+03  0.00000000000E+00 0. -1.
         21   -1    0    0  501  503 -0.00000000000E+00 -0.00000000000E+00 -0.23549794167E+03  0.23549794167E+03  0.00000000000E+00 0. -1.
    9000007    1    1    2  501    0 -0.31223819066E+02  0.16415810055E+02  0.23179382836E+03  0.46365157669E+03  0.40000000000E+03 0.  1.
   -9000007    1    1    2    0  502  0.31223819066E+02 -0.16415810055E+02  0.21756747011E+03  0.45670560512E+03  0.40000000000E+03 0.  1.
<mgrwt>
<rscale>  2 0.40155249E+03</rscale>
<asrwt>0</asrwt>
<pdfrwt beam="1">  1       21 0.10536296E+00 0.40155249E+03</pdfrwt>
<pdfrwt beam="2">  1       21 0.36230453E-01 0.40155249E+03</pdfrwt>
<totfact> 0.47473116E+03</totfact>
</mgrwt>
</event>
<event>
 4    1  0.1147209E-002  0.4078323E+03  0.7818608E-02  0.1041101E+00
         21   -1    0    0  503  502  0.00000000000E+00  0.00000000000E+00  0.67361825026E+02  0.67361825026E+02  0.00000000000E+00 0.  1.
         21   -1    0    0  501  503 -0.00000000000E+00 -0.00000000000E+00 -0.25781041013E+04  0.25781041013E+04  0.00000000000E+00 0.  1.
    9000007    1    1    2  501    0  0.61322129325E+02 -0.50663648861E+02 -0.15272787074E+04  0.15807933005E+04  0.40000000000E+03 0.  1.
   -9000007    1    1    2    0  502 -0.61322129325E+02  0.50663648861E+02 -0.98346356890E+03  0.10646726258E+04  0.40000000000E+03 0.  1.
<mgrwt>
<rscale>  2 0.40783233E+03</rscale>
<asrwt>0</asrwt>
<pdfrwt beam="1">  1       21 0.10363358E-01 0.40783233E+03</pdfrwt>
<pdfrwt beam="2">  1       21 0.39663140E+00 0.40783233E+03</pdfrwt>
<totfact> 0.55658281E+02</totfact>
</mgrwt>
</event>
<event>
 4    1  0.1147209E-002  0.4730482E+03  0.7818608E-02  0.1021063E+00
         21   -1    0    0  501  502  0.00000000000E+00  0.00000000000E+00  0.10207255767E+04  0.10207255767E+04  0.00000000000E+00 0.  1.
         21   -1    0    0  502  503 -0.00000000000E+00 -0.00000000000E+00 -0.39904236642E+03  0.39904236642E+03  0.00000000000E+00 0. -1.
    9000007    1    1    2  501    0  0.22699213218E+03 -0.11067594310E+03  0.78736755035E+03  0.91854354921E+03  0.40000000000E+03 0.  1.
   -9000007    1    1    2    0  503 -0.22699213218E+03  0.11067594310E+03 -0.16568434011E+03  0.50122439387E+03  0.40000000000E+03 0. -1.
<mgrwt>
<rscale>  2 0.47304819E+03</rscale>
<asrwt>0</asrwt>
<pdfrwt beam="1">  1       21 0.15703470E+00 0.47304819E+03</pdfrwt>
<pdfrwt beam="2">  1       21 0.61391133E-01 0.47304819E+03</pdfrwt>
<totfact> 0.53834542E+02</totfact>
</mgrwt>
</event>
<event>
 4    1  0.1147209E-002  0.4029911E+03  0.7818608E-02  0.1042749E+00
         21   -1    0    0  501  502  0.00000000000E+00  0.00000000000E+00  0.63684960603E+03  0.63684960603E+03  0.00000000000E+00 0. -1.
         21   -1    0    0  502  503 -0.00000000000E+00 -0.00000000000E+00 -0.25638756910E+03  0.25638756910E+03  0.00000000000E+00 0. -1.
    9000007    1    1    2  501    0  0.14845243024E+02 -0.46706169409E+02  0.15747172396E+03  0.43266521856E+03  0.40000000000E+03 0. -1.
   -9000007    1    1    2    0  503 -0.14845243024E+02  0.46706169409E+02  0.22299031297E+03  0.46057195657E+03  0.40000000000E+03 0. -1.
<mgrwt>
<rscale>  2 0.40299113E+03</rscale>
<asrwt>0</asrwt>
<pdfrwt beam="1">  1       21 0.97976862E-01 0.40299113E+03</pdfrwt>
<pdfrwt beam="2">  1       21 0.39444242E-01 0.40299113E+03</pdfrwt>
<totfact> 0.47620285E+03</totfact>
</mgrwt>
</event>
<event>
 4    1  0.1147209E-002  0.4318312E+03  0.7818608E-02  0.1033283E+00
         21   -1    0    0  503  502  0.00000000000E+00  0.00000000000E+00  0.10295259258E+03  0.10295259258E+03  0.00000000000E+00 0.  1.
         21   -1    0    0  501  503 -0.00000000000E+00 -0.00000000000E+00 -0.18813819030E+04  0.18813819030E+04  0.00000000000E+00 0.  1.
    9000007    1    1    2  501    0 -0.12008868395E+03 -0.10980383784E+03 -0.10807041787E+04  0.11637867917E+04  0.40000000000E+03 0.  1.
   -9000007    1    1    2    0  502  0.12008868395E+03  0.10980383784E+03 -0.69772513172E+03  0.82054770383E+03  0.40000000000E+03 0.  1.
<mgrwt>
<rscale>  2 0.43183119E+03</rscale>
<asrwt>0</asrwt>
<pdfrwt beam="1">  1       21 0.15838862E-01 0.43183119E+03</pdfrwt>
<pdfrwt beam="2">  1       21 0.28944334E+00 0.43183119E+03</pdfrwt>
<totfact> 0.11438252E+03</totfact>
</mgrwt>
</event>
<event>
 4    1  0.1147209E-002  0.4808335E+03  0.7818608E-02  0.1018906E+00
         21   -1    0    0  503  502  0.00000000000E+00  0.00000000000E+00  0.18717242177E+03  0.18717242177E+03  0.00000000000E+00 0. -1.
         21   -1    0    0  501  503 -0.00000000000E+00 -0.00000000000E+00 -0.12427687482E+04  0.12427687482E+04  0.00000000000E+00 0.  1.
    9000007    1    1    2  501    0  0.16792425959E+03  0.20736987659E+03 -0.58348704057E+03  0.75608064992E+03  0.40000000000E+03 0. -1.
   -9000007    1    1    2    0  502 -0.16792425959E+03 -0.20736987659E+03 -0.47210928582E+03  0.67386052001E+03  0.40000000000E+03 0.  1.
<mgrwt>
<rscale>  2 0.48083347E+03</rscale>
<asrwt>0</asrwt>
<pdfrwt beam="1">  1       21 0.28795758E-01 0.48083347E+03</pdfrwt>
<pdfrwt beam="2">  1       21 0.19119519E+00 0.48083347E+03</pdfrwt>
<totfact> 0.14707035E+03</totfact>
</mgrwt>
</event>
<event>
 4    1  0.1147209E-002  0.4094006E+03  0.7818608E-02  0.1040572E+00
         21   -1    0    0  501  502  0.00000000000E+00  0.00000000000E+00  0.25088724633E+03  0.25088724633E+03  0.00000000000E+00 0.  1.
         21   -1    0    0  502  503 -0.00000000000E+00 -0.00000000000E+00 -0.79438882879E+03  0.79438882879E+03  0.00000000000E+00 0. -1.
    9000007    1    1    2  501    0 -0.86755033247E+02  0.90788729961E+01 -0.63336278563E+02  0.41427086056E+03  0.40000000000E+03 0.  1.
   -9000007    1    1    2    0  503  0.86755033247E+02 -0.90788729961E+01 -0.48016530390E+03  0.63100521456E+03  0.40000000000E+03 0. -1.
<mgrwt>
<rscale>  2 0.40940061E+03</rscale>
<asrwt>0</asrwt>
<pdfrwt beam="1">  1       21 0.38598039E-01 0.40940061E+03</pdfrwt>
<pdfrwt beam="2">  1       21 0.12221366E+00 0.40940061E+03</pdfrwt>
<totfact> 0.28735429E+03</totfact>
</mgrwt>
</event>
<event>
 4    1  0.1147209E-002  0.4003495E+03  0.7818608E-02  0.1043659E+00
         21   -1    0    0  503  502  0.00000000000E+00  0.00000000000E+00  0.42412155671E+03  0.42412155671E+03  0.00000000000E+00 0. -1.
         21   -1    0    0  501  503 -0.00000000000E+00 -0.00000000000E+00 -0.37797467939E+03  0.37797467939E+03  0.00000000000E+00 0. -1.
    9000007    1    1    2  501    0 -0.43365360518E+01  0.16152064046E+02  0.17819289612E+02  0.40074583192E+03  0.40000000000E+03 0. -1.
   -9000007    1    1    2    0  502  0.43365360518E+01 -0.16152064046E+02  0.28327587709E+02  0.40135040419E+03  0.40000000000E+03 0. -1.
<mgrwt>
<rscale>  2 0.40034947E+03</rscale>
<asrwt>0</asrwt>
<pdfrwt beam="1">  1       21 0.65249470E-01 0.40034947E+03</pdfrwt>
<pdfrwt beam="2">  1       21 0.58149951E-01 0.40034947E+03</pdfrwt>
<totfact> 0.53681123E+03</totfact>
</mgrwt>
</event>
<event>
 4    1  0.1147209E-002  0.4090559E+03  0.7818608E-02  0.1040688E+00
         21   -1    0    0  503  502  0.00000000000E+00  0.00000000000E+00  0.38753072456E+03  0.38753072456E+03  0.00000000000E+00 0. -1.
         21   -1    0    0  501  503 -0.00000000000E+00 -0.00000000000E+00 -0.81825589594E+03  0.81825589594E+03  0.00000000000E+00 0. -1.
    9000007    1    1    2  501    0  0.44278087012E+02  0.73254394316E+02 -0.62970455689E+03  0.75090251314E+03  0.40000000000E+03 0. -1.
   -9000007    1    1    2    0  502 -0.44278087012E+02 -0.73254394316E+02  0.19897938551E+03  0.45488410737E+03  0.40000000000E+03 0. -1.
<mgrwt>
<rscale>  2 0.40905593E+03</rscale>
<asrwt>0</asrwt>
<pdfrwt beam="1">  1       21 0.59620112E-01 0.40905593E+03</pdfrwt>
<pdfrwt beam="2">  1       21 0.12588552E+00 0.40905593E+03</pdfrwt>
<totfact> 0.10637721E+03</totfact>
</mgrwt>
</event>
<event>
 4    1  0.1147209E-002  0.4189891E+03  0.7818608E-02  0.1037396E+00
         21   -1    0    0  501  502  0.00000000000E+00  0.00000000000E+00  0.10451935177E+03  0.10451935177E+03  0.00000000000E+00 0.  1.
         21   -1    0    0  502  503 -0.00000000000E+00 -0.00000000000E+00 -0.21119734500E+04  0.21119734500E+04  0.00000000000E+00 0.  1.
    9000007    1    1    2  501    0  0.12453545846E+02 -0.12408372402E+03 -0.50229043018E+03  0.65410055620E+03  0.40000000000E+03 0.  1.
   -9000007    1    1    2    0  503 -0.12453545846E+02  0.12408372402E+03 -0.15051636681E+04  0.15623922456E+04  0.40000000000E+03 0.  1.
<mgrwt>
<rscale>  2 0.41898909E+03</rscale>
<asrwt>0</asrwt>
<pdfrwt beam="1">  1       21 0.16079899E-01 0.41898909E+03</pdfrwt>
<pdfrwt beam="2">  1       21 0.32491902E+00 0.41898909E+03</pdfrwt>
<totfact> 0.68590278E+02</totfact>
</mgrwt>
</event>
<event>
 4    1  0.1147209E-002  0.6248948E+03  0.7818608E-02  0.9855062E-01
         21   -1    0    0  503  502  0.00000000000E+00  0.00000000000E+00  0.15994172268E+04  0.15994172268E+04  0.00000000000E+00 0.  1.
         21   -1    0    0  501  503 -0.00000000000E+00 -0.00000000000E+00 -0.27180332139E+03  0.27180332139E+03  0.00000000000E+00 0.  1.
    9000007    1    1    2  501    0 -0.44721885701E+03  0.17461058298E+03  0.36536378063E+03  0.72386756658E+03  0.40000000000E+03 0.  1.
   -9000007    1    1    2    0  502  0.44721885701E+03 -0.17461058298E+03  0.96225012478E+03  0.11473529816E+04  0.40000000000E+03 0.  1.
<mgrwt>
<rscale>  2 0.62489484E+03</rscale>
<asrwt>0</asrwt>
<pdfrwt beam="1">  1       21 0.24606418E+00 0.62489484E+03</pdfrwt>
<pdfrwt beam="2">  1       21 0.41815897E-01 0.62489484E+03</pdfrwt>
<totfact> 0.28665696E+02</totfact>
</mgrwt>
</event>
<event>
 4    1  0.1147209E-002  0.4593848E+03  0.7818608E-02  0.1024960E+00
         21   -1    0    0  503  502  0.00000000000E+00  0.00000000000E+00  0.52625943834E+03  0.52625943834E+03  0.00000000000E+00 0. -1.
         21   -1    0    0  501  503 -0.00000000000E+00 -0.00000000000E+00 -0.40101017038E+03  0.40101017038E+03  0.00000000000E+00 0.  1.
    9000007    1    1    2  501    0  0.92158171811E+02 -0.20625540956E+03  0.63615771806E+02  0.46376868052E+03  0.40000000000E+03 0.  1.
   -9000007    1    1    2    0  502 -0.92158171811E+02  0.20625540956E+03  0.61633496153E+02  0.46350092821E+03  0.40000000000E+03 0. -1.
<mgrwt>
<rscale>  2 0.45938483E+03</rscale>
<asrwt>0</asrwt>
<pdfrwt beam="1">  1       21 0.80962991E-01 0.45938483E+03</pdfrwt>
<pdfrwt beam="2">  1       21 0.61693872E-01 0.45938483E+03</pdfrwt>
<totfact> 0.28319582E+03</totfact>
</mgrwt>
</event>
<event>
 4    1  0.1147209E-002  0.4060950E+03  0.7818608E-02  0.1041689E+00
         21   -1    0    0  503  502  0.00000000000E+00  0.00000000000E+00  0.15809784295E+04  0.15809784295E+04  0.00000000000E+00 0. -1.
         21   -1    0    0  501  503 -0.00000000000E+00 -0.00000000000E+00 -0.11053671865E+03  0.11053671865E+03  0.00000000000E+00 0. -1.
    9000007    1    1    2  501    0 -0.51413905451E+01  0.69905218447E+02  0.53449964920E+03  0.67126972855E+03  0.40000000000E+03 0. -1.
   -9000007    1    1    2    0  502  0.51413905451E+01 -0.69905218447E+02  0.93594206161E+03  0.10202454196E+04  0.40000000000E+03 0. -1.
<mgrwt>
<rscale>  2 0.40609503E+03</rscale>
<asrwt>0</asrwt>
<pdfrwt beam="1">  1       21 0.24322743E+00 0.40609503E+03</pdfrwt>
<pdfrwt beam="2">  1       21 0.17005650E-01 0.40609503E+03</pdfrwt>
<totfact> 0.19344583E+03</totfact>
</mgrwt>
</event>
<event>
 4    1  0.1147209E-002  0.4412038E+03  0.7818608E-02  0.1030378E+00
         21   -1    0    0  501  502  0.00000000000E+00  0.00000000000E+00  0.10244841324E+04  0.10244841324E+04  0.00000000000E+00 0. -1.
         21   -1    0    0  502  503 -0.00000000000E+00 -0.00000000000E+00 -0.19965657649E+03  0.19965657649E+03  0.00000000000E+00 0.  1.
    9000007    1    1    2  501    0 -0.18617235470E+03  0.78497773601E+00  0.54696213445E+03  0.70272920700E+03  0.40000000000E+03 0.  1.
   -9000007    1    1    2    0  503  0.18617235470E+03 -0.78497773601E+00  0.27786542141E+03  0.52141150185E+03  0.40000000000E+03 0.  1.
<mgrwt>
<rscale>  2 0.44120376E+03</rscale>
<asrwt>0</asrwt>
<pdfrwt beam="1">  1       21 0.15761294E+00 0.44120376E+03</pdfrwt>
<pdfrwt beam="2">  1       21 0.30716397E-01 0.44120376E+03</pdfrwt>
<totfact> 0.22936080E+03</totfact>
</mgrwt>
</event>
<event>
 4    1  0.1147209E-002  0.4476053E+03  0.7818608E-02  0.1028439E+00
         21   -1    0    0  501  502  0.00000000000E+00  0.00000000000E+00  0.10595056875E+04  0.10595056875E+04  0.00000000000E+00 0. -1.
         21   -1    0    0  502  503 -0.00000000000E+00 -0.00000000000E+00 -0.22159749084E+03  0.22159749084E+03  0.00000000000E+00 0.  1.
    9000007    1    1    2  501    0 -0.37790362292E+02  0.19728749790E+03  0.66426089559E+03  0.80099500980E+03  0.40000000000E+03 0. -1.
   -9000007    1    1    2    0  503  0.37790362292E+02 -0.19728749790E+03  0.17364730103E+03  0.48010816850E+03  0.40000000000E+03 0.  1.
<mgrwt>
<rscale>  2 0.44760526E+03</rscale>
<asrwt>0</asrwt>
<pdfrwt beam="1">  1       21 0.16300087E+00 0.44760526E+03</pdfrwt>
<pdfrwt beam="2">  1       21 0.34091922E-01 0.44760526E+03</pdfrwt>
<totfact> 0.16902394E+03</totfact>
</mgrwt>
</event>
<event>
 4    1  0.1147209E-002  0.4006513E+03  0.7818608E-02  0.1043554E+00
         21   -1    0    0  503  502  0.00000000000E+00  0.00000000000E+00  0.72056073122E+03  0.72056073122E+03  0.00000000000E+00 0.  1.
         21   -1    0    0  501  503 -0.00000000000E+00 -0.00000000000E+00 -0.27790126775E+03  0.27790126775E+03  0.00000000000E+00 0.  1.
    9000007    1    1    2  501    0 -0.21968654882E+02  0.62330260731E+01 -0.10235134862E+01  0.40065261760E+03  0.40000000000E+03 0.  1.
   -9000007    1    1    2    0  502  0.21968654882E+02 -0.62330260731E+01  0.44368297695E+03  0.59780938136E+03  0.40000000000E+03 0.  1.
<mgrwt>
<rscale>  2 0.40065131E+03</rscale>
<asrwt>0</asrwt>
<pdfrwt beam="1">  1       21 0.11085550E+00 0.40065131E+03</pdfrwt>
<pdfrwt beam="2">  1       21 0.42754041E-01 0.40065131E+03</pdfrwt>
<totfact> 0.29836037E+03</totfact>
</mgrwt>
</event>
<event>
 4    1  0.1147209E-002  0.4132231E+03  0.7818608E-02  0.1039295E+00
         21   -1    0    0  501  502  0.00000000000E+00  0.00000000000E+00  0.88646662422E+03  0.88646662422E+03  0.00000000000E+00 0. -1.
         21   -1    0    0  502  503 -0.00000000000E+00 -0.00000000000E+00 -0.34915924630E+03  0.34915924630E+03  0.00000000000E+00 0. -1.
    9000007    1    1    2  501    0  0.10042562361E+03  0.25845840955E+02  0.68232322310E+03  0.79769561498E+03  0.40000000000E+03 0. -1.
   -9000007    1    1    2    0  503 -0.10042562361E+03 -0.25845840955E+02 -0.14501584518E+03  0.43793025555E+03  0.40000000000E+03 0. -1.
<mgrwt>
<rscale>  2 0.41322308E+03</rscale>
<asrwt>0</asrwt>
<pdfrwt beam="1">  1       21 0.13637948E+00 0.41322308E+03</pdfrwt>
<pdfrwt beam="2">  1       21 0.53716807E-01 0.41322308E+03</pdfrwt>
<totfact> 0.10812556E+03</totfact>
</mgrwt>
</event>
<event>
 4    1  0.1147209E-002  0.5819083E+03  0.7818608E-02  0.9943668E-01
         21   -1    0    0  501  502  0.00000000000E+00  0.00000000000E+00  0.28559973930E+03  0.28559973930E+03  0.00000000000E+00 0.  1.
         21   -1    0    0  502  503 -0.00000000000E+00 -0.00000000000E+00 -0.12026919500E+04  0.12026919500E+04  0.00000000000E+00 0.  1.
    9000007    1    1    2  501    0  0.39533516165E+03  0.14942350637E+03 -0.54716399633E+03  0.79875259823E+03  0.40000000000E+03 0.  1.
   -9000007    1    1    2    0  503 -0.39533516165E+03 -0.14942350637E+03 -0.36992821433E+03  0.68953909103E+03  0.40000000000E+03 0.  1.
<mgrwt>
<rscale>  2 0.58190830E+03</rscale>
<asrwt>0</asrwt>
<pdfrwt beam="1">  1       21 0.43938421E-01 0.58190830E+03</pdfrwt>
<pdfrwt beam="2">  1       21 0.18502953E+00 0.58190830E+03</pdfrwt>
<totfact> 0.66042430E+02</totfact>
</mgrwt>
</event>
<event>
 4    1  0.1147209E-002  0.4434884E+03  0.7818608E-02  0.1029682E+00
         21   -1    0    0  503  502  0.00000000000E+00  0.00000000000E+00  0.38126123058E+03  0.38126123058E+03  0.00000000000E+00 0. -1.
         21   -1    0    0  501  503 -0.00000000000E+00 -0.00000000000E+00 -0.56571745729E+03  0.56571745729E+03  0.00000000000E+00 0. -1.
    9000007    1    1    2  501    0 -0.18028749796E+02 -0.19067480554E+03  0.48319696616E+02  0.44611288971E+03  0.40000000000E+03 0. -1.
   -9000007    1    1    2    0  502  0.18028749796E+02  0.19067480554E+03 -0.23277592333E+03  0.50086579816E+03  0.40000000000E+03 0. -1.
<mgrwt>
<rscale>  2 0.44348835E+03</rscale>
<asrwt>0</asrwt>
<pdfrwt beam="1">  1       21 0.58655574E-01 0.44348835E+03</pdfrwt>
<pdfrwt beam="2">  1       21 0.87033455E-01 0.44348835E+03</pdfrwt>
<totfact> 0.26876603E+03</totfact>
</mgrwt>
</event>
<event>
 4    1  0.1147209E-002  0.4368205E+03  0.7818608E-02  0.1031727E+00
         21   -1    0    0  503  502  0.00000000000E+00  0.00000000000E+00  0.14054688316E+03  0.14054688316E+03  0.00000000000E+00 0. -1.
         21   -1    0    0  501  503 -0.00000000000E+00 -0.00000000000E+00 -0.17125097294E+04  0.17125097294E+04  0.00000000000E+00 0. -1.
    9000007    1    1    2  501    0  0.10205331775E+03  0.14281903874E+03 -0.12077519877E+04  0.12843196725E+04  0.40000000000E+03 0. -1.
   -9000007    1    1    2    0  502 -0.10205331775E+03 -0.14281903874E+03 -0.36421085861E+03  0.56873694009E+03  0.40000000000E+03 0. -1.
<mgrwt>
<rscale>  2 0.43682051E+03</rscale>
<asrwt>0</asrwt>
<pdfrwt beam="1">  1       21 0.21622597E-01 0.43682051E+03</pdfrwt>
<pdfrwt beam="2">  1       21 0.26346304E+00 0.43682051E+03</pdfrwt>
<totfact> 0.90902634E+02</totfact>
</mgrwt>
</event>
<event>
 4    1  0.1147209E-002  0.4355851E+03  0.7818608E-02  0.1032110E+00
         21   -1    0    0  501  502  0.00000000000E+00  0.00000000000E+00  0.96605834779E+03  0.96605834779E+03  0.00000000000E+00 0. -1.
         21   -1    0    0  502  503 -0.00000000000E+00 -0.00000000000E+00 -0.22626805040E+03  0.22626805040E+03  0.00000000000E+00 0. -1.
    9000007    1    1    2  501    0 -0.16308229911E+03  0.56022814051E+02  0.15329787950E+03  0.46177335549E+03  0.40000000000E+03 0. -1.
   -9000007    1    1    2    0  503  0.16308229911E+03 -0.56022814051E+02  0.58649241788E+03  0.73055304271E+03  0.40000000000E+03 0. -1.
<mgrwt>
<rscale>  2 0.43558511E+03</rscale>
<asrwt>0</asrwt>
<pdfrwt beam="1">  1       21 0.14862436E+00 0.43558511E+03</pdfrwt>
<pdfrwt beam="2">  1       21 0.34810470E-01 0.43558511E+03</pdfrwt>
<totfact> 0.20999025E+03</totfact>
</mgrwt>
</event>
<event>
 4    1  0.1147209E-002  0.6075808E+03  0.7818608E-02  0.9889802E-01
         21   -1    0    0  501  502  0.00000000000E+00  0.00000000000E+00  0.96074851128E+03  0.96074851128E+03  0.00000000000E+00 0. -1.
         21   -1    0    0  502  503 -0.00000000000E+00 -0.00000000000E+00 -0.38423657999E+03  0.38423657999E+03  0.00000000000E+00 0. -1.
    9000007    1    1    2  501    0 -0.33500627767E+03 -0.31132808243E+03  0.28760942373E+03  0.67221541310E+03  0.40000000000E+03 0. -1.
   -9000007    1    1    2    0  503  0.33500627767E+03  0.31132808243E+03  0.28890250756E+03  0.67276967817E+03  0.40000000000E+03 0. -1.
<mgrwt>
<rscale>  2 0.60758076E+03</rscale>
<asrwt>0</asrwt>
<pdfrwt beam="1">  1       21 0.14780746E+00 0.60758076E+03</pdfrwt>
<pdfrwt beam="2">  1       21 0.59113320E-01 0.60758076E+03</pdfrwt>
<totfact> 0.65687488E+02</totfact>
</mgrwt>
</event>
<event>
 4    1  0.1147209E-002  0.5920049E+03  0.7818608E-02  0.9922134E-01
         21   -1    0    0  501  502  0.00000000000E+00  0.00000000000E+00  0.98583173021E+03  0.98583173021E+03  0.00000000000E+00 0. -1.
         21   -1    0    0  502  503 -0.00000000000E+00 -0.00000000000E+00 -0.49919883831E+03  0.49919883831E+03  0.00000000000E+00 0.  1.
    9000007    1    1    2  501    0 -0.41955765897E+03  0.12017125001E+03  0.64168510104E+03  0.87305757394E+03  0.40000000000E+03 0. -1.
   -9000007    1    1    2    0  503  0.41955765897E+03 -0.12017125001E+03 -0.15505220913E+03  0.61197299457E+03  0.40000000000E+03 0. -1.
<mgrwt>
<rscale>  2 0.59200486E+03</rscale>
<asrwt>0</asrwt>
<pdfrwt beam="1">  1       21 0.15166642E+00 0.59200486E+03</pdfrwt>
<pdfrwt beam="2">  1       21 0.76799821E-01 0.59200486E+03</pdfrwt>
<totfact> 0.34129348E+02</totfact>
</mgrwt>
</event>
<event>
 4    1  0.1147209E-002  0.5223252E+03  0.7818608E-02  0.1008111E+00
         21   -1    0    0  503  502  0.00000000000E+00  0.00000000000E+00  0.29079143739E+03  0.29079143739E+03  0.00000000000E+00 0.  1.
         21   -1    0    0  501  503 -0.00000000000E+00 -0.00000000000E+00 -0.11089497969E+04  0.11089497969E+04  0.00000000000E+00 0.  1.
    9000007    1    1    2  501    0  0.31863713558E+03 -0.10627306564E+03 -0.68369687878E+03  0.86038654726E+03  0.40000000000E+03 0.  1.
   -9000007    1    1    2    0  502 -0.31863713558E+03  0.10627306564E+03 -0.13446148077E+03  0.53935468707E+03  0.40000000000E+03 0.  1.
<mgrwt>
<rscale>  2 0.52232518E+03</rscale>
<asrwt>0</asrwt>
<pdfrwt beam="1">  1       21 0.44737144E-01 0.52232518E+03</pdfrwt>
<pdfrwt beam="2">  1       21 0.17060766E+00 0.52232518E+03</pdfrwt>
<totfact> 0.82436678E+02</totfact>
</mgrwt>
</event>
<event>
 4    1  0.1147209E-002  0.4079109E+03  0.7818608E-02  0.1041074E+00
         21   -1    0    0  501  502  0.00000000000E+00  0.00000000000E+00  0.24158542334E+03  0.24158542334E+03  0.00000000000E+00 0. -1.
         21   -1    0    0  502  503 -0.00000000000E+00 -0.00000000000E+00 -0.74272153212E+03  0.74272153212E+03  0.00000000000E+00 0. -1.
    9000007    1    1    2  501    0  0.77261657971E+02 -0.20541268954E+02 -0.11789559012E+03  0.42460649747E+03  0.40000000000E+03 0.  1.
   -9000007    1    1    2    0  503 -0.77261657971E+02  0.20541268954E+02 -0.38324051867E+03  0.55970045799E+03  0.40000000000E+03 0.  1.
<mgrwt>
<rscale>  2 0.40791091E+03</rscale>
<asrwt>0</asrwt>
<pdfrwt beam="1">  1       21 0.37166989E-01 0.40791091E+03</pdfrwt>
<pdfrwt beam="2">  1       21 0.11426485E+00 0.40791091E+03</pdfrwt>
<totfact> 0.36790786E+03</totfact>
</mgrwt>
</event>
<event>
 4    1  0.1147209E-002  0.5159653E+03  0.7818608E-02  0.1009694E+00
         21   -1    0    0  503  502  0.00000000000E+00  0.00000000000E+00  0.18662749865E+04  0.18662749865E+04  0.00000000000E+00 0. -1.
         21   -1    0    0  501  503 -0.00000000000E+00 -0.00000000000E+00 -0.15612982256E+03  0.15612982256E+03  0.00000000000E+00 0. -1.
    9000007    1    1    2  501    0 -0.14650799086E+03  0.29112808908E+03  0.55792546319E+03  0.75993485123E+03  0.40000000000E+03 0. -1.
   -9000007    1    1    2    0  502  0.14650799086E+03 -0.29112808908E+03  0.11522197007E+04  0.12624699578E+04  0.40000000000E+03 0. -1.
<mgrwt>
<rscale>  2 0.51596527E+03</rscale>
<asrwt>0</asrwt>
<pdfrwt beam="1">  1       21 0.28711921E+00 0.51596527E+03</pdfrwt>
<pdfrwt beam="2">  1       21 0.24019974E-01 0.51596527E+03</pdfrwt>
<totfact> 0.51264143E+02</totfact>
</mgrwt>
</event>
<event>
 4    1  0.1147209E-002  0.4653324E+03  0.7818608E-02  0.1023246E+00
         21   -1    0    0  501  502  0.00000000000E+00  0.00000000000E+00  0.45532163191E+03  0.45532163191E+03  0.00000000000E+00 0. -1.
         21   -1    0    0  502  503 -0.00000000000E+00 -0.00000000000E+00 -0.48393365572E+03  0.48393365572E+03  0.00000000000E+00 0. -1.
    9000007    1    1    2  501    0  0.39716684041E+02 -0.23442869637E+03  0.47457837922E+02  0.46774616519E+03  0.40000000000E+03 0. -1.
   -9000007    1    1    2    0  503 -0.39716684041E+02  0.23442869637E+03 -0.76069861731E+02  0.47150912243E+03  0.40000000000E+03 0. -1.
<mgrwt>
<rscale>  2 0.46533239E+03</rscale>
<asrwt>0</asrwt>
<pdfrwt beam="1">  1       21 0.70049482E-01 0.46533239E+03</pdfrwt>
<pdfrwt beam="2">  1       21 0.74451332E-01 0.46533239E+03</pdfrwt>
<totfact> 0.25819598E+03</totfact>
</mgrwt>
</event>
<event>
 4    1  0.1147209E-002  0.5424413E+03  0.7818608E-02  0.1003259E+00
         21   -1    0    0  503  502  0.00000000000E+00  0.00000000000E+00  0.37133931720E+03  0.37133931720E+03  0.00000000000E+00 0.  1.
         21   -1    0    0  501  503 -0.00000000000E+00 -0.00000000000E+00 -0.91690245330E+03  0.91690245330E+03  0.00000000000E+00 0.  1.
    9000007    1    1    2  501    0 -0.27396097758E+03 -0.24328582309E+03 -0.51015170219E+03  0.74464580050E+03  0.40000000000E+03 0.  1.
   -9000007    1    1    2    0  502  0.27396097758E+03  0.24328582309E+03 -0.35411433913E+02  0.54359597000E+03  0.40000000000E+03 0.  1.
<mgrwt>
<rscale>  2 0.54244134E+03</rscale>
<asrwt>0</asrwt>
<pdfrwt beam="1">  1       21 0.57129127E-01 0.54244134E+03</pdfrwt>
<pdfrwt beam="2">  1       21 0.14106191E+00 0.54244134E+03</pdfrwt>
<totfact> 0.82133371E+02</totfact>
</mgrwt>
</event>
<event>
 4    1  0.1147209E-002  0.5492494E+03  0.7818608E-02  0.1001668E+00
         21   -1    0    0  501  502  0.00000000000E+00  0.00000000000E+00  0.12274128529E+04  0.12274128529E+04  0.00000000000E+00 0.  1.
         21   -1    0    0  502  503 -0.00000000000E+00 -0.00000000000E+00 -0.31375801333E+03  0.31375801333E+03  0.00000000000E+00 0.  1.
    9000007    1    1    2  501    0 -0.34787966261E+03 -0.14371737952E+03  0.81550475635E+03  0.98322070384E+03  0.40000000000E+03 0.  1.
   -9000007    1    1    2    0  503  0.34787966261E+03  0.14371737952E+03  0.98150083182E+02  0.55795016235E+03  0.40000000000E+03 0.  1.
<mgrwt>
<rscale>  2 0.54924944E+03</rscale>
<asrwt>0</asrwt>
<pdfrwt beam="1">  1       21 0.18883274E+00 0.54924944E+03</pdfrwt>
<pdfrwt beam="2">  1       21 0.48270464E-01 0.54924944E+03</pdfrwt>
<totfact> 0.51571377E+02</totfact>
</mgrwt>
</event>
<event>
 4    1  0.1147209E-002  0.4053627E+03  0.7818608E-02  0.1041938E+00
         21   -1    0    0  501  502  0.00000000000E+00  0.00000000000E+00  0.18218851612E+04  0.18218851612E+04  0.00000000000E+00 0. -1.
         21   -1    0    0  502  503 -0.00000000000E+00 -0.00000000000E+00 -0.11259835250E+03  0.11259835250E+03  0.00000000000E+00 0. -1.
    9000007    1    1    2  501    0 -0.21253554070E+01  0.65684008644E+02  0.12861203361E+04  0.13484896830E+04  0.40000000000E+03 0. -1.
   -9000007    1    1    2    0  503  0.21253554070E+01 -0.65684008644E+02  0.42316647256E+03  0.58599383071E+03  0.40000000000E+03 0. -1.
<mgrwt>
<rscale>  2 0.40536268E+03</rscale>
<asrwt>0</asrwt>
<pdfrwt beam="1">  1       21 0.28029000E+00 0.40536268E+03</pdfrwt>
<pdfrwt beam="2">  1       21 0.17322825E-01 0.40536268E+03</pdfrwt>
<totfact> 0.11144478E+03</totfact>
</mgrwt>
</event>
<event>
 4    1  0.1147209E-002  0.5514209E+03  0.7818608E-02  0.1001166E+00
         21   -1    0    0  503  502  0.00000000000E+00  0.00000000000E+00  0.30865177320E+03  0.30865177320E+03  0.00000000000E+00 0. -1.
         21   -1    0    0  501  503 -0.00000000000E+00 -0.00000000000E+00 -0.11704591002E+04  0.11704591002E+04  0.00000000000E+00 0.  1.
    9000007    1    1    2  501    0  0.19543946724E+03 -0.32537429219E+03 -0.72517870851E+03  0.91101546345E+03  0.40000000000E+03 0.  1.
   -9000007    1    1    2    0  502 -0.19543946724E+03  0.32537429219E+03 -0.13662861844E+03  0.56809540990E+03  0.40000000000E+03 0. -1.
<mgrwt>
<rscale>  2 0.55142091E+03</rscale>
<asrwt>0</asrwt>
<pdfrwt beam="1">  1       21 0.47484887E-01 0.55142091E+03</pdfrwt>
<pdfrwt beam="2">  1       21 0.18007063E+00 0.55142091E+03</pdfrwt>
<totfact> 0.61455786E+02</totfact>
</mgrwt>
</event>
<event>
 4    1  0.1147209E-002  0.4605193E+03  0.7818608E-02  0.1024631E+00
         21   -1    0    0  503  502  0.00000000000E+00  0.00000000000E+00  0.49048127314E+03  0.49048127314E+03  0.00000000000E+00 0.  1.
         21   -1    0    0  501  503 -0.00000000000E+00 -0.00000000000E+00 -0.43270251832E+03  0.43270251832E+03  0.00000000000E+00 0.  1.
    9000007    1    1    2  501    0 -0.17897306884E+02  0.22750324636E+03  0.16437521572E+02  0.46081257884E+03  0.40000000000E+03 0.  1.
   -9000007    1    1    2    0  502  0.17897306884E+02 -0.22750324636E+03  0.41341233251E+02  0.46237121263E+03  0.40000000000E+03 0.  1.
<mgrwt>
<rscale>  2 0.46051932E+03</rscale>
<asrwt>0</asrwt>
<pdfrwt beam="1">  1       21 0.75458658E-01 0.46051932E+03</pdfrwt>
<pdfrwt beam="2">  1       21 0.66569618E-01 0.46051932E+03</pdfrwt>
<totfact> 0.28119090E+03</totfact>
</mgrwt>
</event>
<event>
 4    1  0.1147209E-002  0.5190444E+03  0.7818608E-02  0.1008924E+00
         21   -1    0    0  501  502  0.00000000000E+00  0.00000000000E+00  0.19205546273E+03  0.19205546273E+03  0.00000000000E+00 0. -1.
         21   -1    0    0  502  503 -0.00000000000E+00 -0.00000000000E+00 -0.14092609087E+04  0.14092609087E+04  0.00000000000E+00 0. -1.
    9000007    1    1    2  501    0  0.32275264540E+03  0.72372437622E+02 -0.66299746178E+03  0.84200515091E+03  0.40000000000E+03 0. -1.
   -9000007    1    1    2    0  503 -0.32275264540E+03 -0.72372437622E+02 -0.55420798415E+03  0.75931122047E+03  0.40000000000E+03 0. -1.
<mgrwt>
<rscale>  2 0.51904435E+03</rscale>
<asrwt>0</asrwt>
<pdfrwt beam="1">  1       21 0.29546996E-01 0.51904435E+03</pdfrwt>
<pdfrwt beam="2">  1       21 0.21680936E+00 0.51904435E+03</pdfrwt>
<totfact> 0.92988767E+02</totfact>
</mgrwt>
</event>
<event>
 4    1  0.1147209E-002  0.4314236E+03  0.7818608E-02  0.1033411E+00
         21   -1    0    0  503  502  0.00000000000E+00  0.00000000000E+00  0.20216109608E+03  0.20216109608E+03  0.00000000000E+00 0.  1.
         21   -1    0    0  501  503 -0.00000000000E+00 -0.00000000000E+00 -0.92233953483E+03  0.92233953483E+03  0.00000000000E+00 0.  1.
    9000007    1    1    2  501    0 -0.83676644208E+02 -0.13829151059E+03 -0.33626274579E+03  0.54699081975E+03  0.40000000000E+03 0.  1.
   -9000007    1    1    2    0  502  0.83676644208E+02  0.13829151059E+03 -0.38391569296E+03  0.57750981116E+03  0.40000000000E+03 0.  1.
<mgrwt>
<rscale>  2 0.43142360E+03</rscale>
<asrwt>0</asrwt>
<pdfrwt beam="1">  1       21 0.31101707E-01 0.43142360E+03</pdfrwt>
<pdfrwt beam="2">  1       21 0.14189839E+00 0.43142360E+03</pdfrwt>
<totfact> 0.29864164E+03</totfact>
</mgrwt>
</event>
<event>
 4    1  0.1147209E-002  0.6849970E+03  0.7818608E-02  0.9743239E-01
         21   -1    0    0  503  502  0.00000000000E+00  0.00000000000E+00  0.81463093234E+03  0.81463093234E+03  0.00000000000E+00 0. -1.
         21   -1    0    0  501  503 -0.00000000000E+00 -0.00000000000E+00 -0.57622826032E+03  0.57622826032E+03  0.00000000000E+00 0. -1.
    9000007    1    1    2  501    0  0.73499302002E+02  0.55119750546E+03  0.10511747098E+03  0.69301552661E+03  0.40000000000E+03 0. -1.
   -9000007    1    1    2    0  502 -0.73499302002E+02 -0.55119750546E+03  0.13328520104E+03  0.69784366604E+03  0.40000000000E+03 0. -1.
<mgrwt>
<rscale>  2 0.68499696E+03</rscale>
<asrwt>0</asrwt>
<pdfrwt beam="1">  1       21 0.12532784E+00 0.68499696E+03</pdfrwt>
<pdfrwt beam="2">  1       21 0.88650501E-01 0.68499696E+03</pdfrwt>
<totfact> 0.39393271E+02</totfact>
</mgrwt>
</event>
<event>
 4    1  0.1147209E-002  0.4197475E+03  0.7818608E-02  0.1037149E+00
         21   -1    0    0  503  502  0.00000000000E+00  0.00000000000E+00  0.90798009673E+03  0.90798009673E+03  0.00000000000E+00 0. -1.
         21   -1    0    0  501  503 -0.00000000000E+00 -0.00000000000E+00 -0.20049740441E+03  0.20049740441E+03  0.00000000000E+00 0. -1.
    9000007    1    1    2  501    0  0.12576951530E+03  0.19235069969E+02  0.25430576768E+03  0.49077426825E+03  0.40000000000E+03 0. -1.
   -9000007    1    1    2    0  502 -0.12576951530E+03 -0.19235069969E+02  0.45317692464E+03  0.61770323289E+03  0.40000000000E+03 0. -1.
<mgrwt>
<rscale>  2 0.41974749E+03</rscale>
<asrwt>0</asrwt>
<pdfrwt beam="1">  1       21 0.13968924E+00 0.41974749E+03</pdfrwt>
<pdfrwt beam="2">  1       21 0.30845755E-01 0.41974749E+03</pdfrwt>
<totfact> 0.31799578E+03</totfact>
</mgrwt>
</event>
<event>
 4    1  0.1147209E-002  0.4069083E+03  0.7818608E-02  0.1041413E+00
         21   -1    0    0  503  502  0.00000000000E+00  0.00000000000E+00  0.25583123491E+03  0.25583123491E+03  0.00000000000E+00 0.  1.
         21   -1    0    0  501  503 -0.00000000000E+00 -0.00000000000E+00 -0.69370577215E+03  0.69370577215E+03  0.00000000000E+00 0.  1.
    9000007    1    1    2  501    0  0.19091382037E+02 -0.72179469250E+02 -0.34186240934E+03  0.53145485563E+03  0.40000000000E+03 0.  1.
   -9000007    1    1    2    0  502 -0.19091382037E+02  0.72179469250E+02 -0.96012127903E+02  0.41808215144E+03  0.40000000000E+03 0.  1.
<mgrwt>
<rscale>  2 0.40690829E+03</rscale>
<asrwt>0</asrwt>
<pdfrwt beam="1">  1       21 0.39358652E-01 0.40690829E+03</pdfrwt>
<pdfrwt beam="2">  1       21 0.10672396E+00 0.40690829E+03</pdfrwt>
<totfact> 0.38771993E+03</totfact>
</mgrwt>
</event>
<event>
 4    1  0.1147209E-002  0.4412714E+03  0.7818608E-02  0.1030357E+00
         21   -1    0    0  501  502  0.00000000000E+00  0.00000000000E+00  0.48352012509E+03  0.48352012509E+03  0.00000000000E+00 0. -1.
         21   -1    0    0  502  503 -0.00000000000E+00 -0.00000000000E+00 -0.40631688013E+03  0.40631688013E+03  0.00000000000E+00 0. -1.
    9000007    1    1    2  501    0  0.18532298306E+03 -0.19386528093E+02  0.80496193750E+02  0.44855332206E+03  0.40000000000E+03 0. -1.
   -9000007    1    1    2    0  503 -0.18532298306E+03  0.19386528093E+02 -0.32929487906E+01  0.44128368317E+03  0.40000000000E+03 0. -1.
<mgrwt>
<rscale>  2 0.44127140E+03</rscale>
<asrwt>0</asrwt>
<pdfrwt beam="1">  1       21 0.74387712E-01 0.44127140E+03</pdfrwt>
<pdfrwt beam="2">  1       21 0.62510289E-01 0.44127140E+03</pdfrwt>
<totfact> 0.33631554E+03</totfact>
</mgrwt>
</event>
<event>
 4    1  0.1147209E-002  0.6534787E+03  0.7818608E-02  0.9800274E-01
         21   -1    0    0  503  502  0.00000000000E+00  0.00000000000E+00  0.13033710175E+04  0.13033710175E+04  0.00000000000E+00 0.  1.
         21   -1    0    0  501  503 -0.00000000000E+00 -0.00000000000E+00 -0.33079096394E+03  0.33079096394E+03  0.00000000000E+00 0. -1.
    9000007    1    1    2  501    0 -0.50666272392E+03 -0.10162299091E+03  0.56605692542E+03  0.86455467780E+03  0.40000000000E+03 0.  1.
   -9000007    1    1    2    0  502  0.50666272392E+03  0.10162299091E+03  0.40652312814E+03  0.76960730364E+03  0.40000000000E+03 0. -1.
<mgrwt>
<rscale>  2 0.65347865E+03</rscale>
<asrwt>0</asrwt>
<pdfrwt beam="1">  1       21 0.20051862E+00 0.65347865E+03</pdfrwt>
<pdfrwt beam="2">  1       21 0.50890918E-01 0.65347865E+03</pdfrwt>
<totfact> 0.36903065E+02</totfact>
</mgrwt>
</event>
<event>
 4    1  0.1147209E-002  0.5457530E+03  0.7818608E-02  0.1002482E+00
         21   -1    0    0  503  502  0.00000000000E+00  0.00000000000E+00  0.73949578027E+03  0.73949578027E+03  0.00000000000E+00 0.  1.
         21   -1    0    0  501  503 -0.00000000000E+00 -0.00000000000E+00 -0.40277223185E+03  0.40277223185E+03  0.00000000000E+00 0. -1.
    9000007    1    1    2  501    0 -0.18257293129E+03  0.32328546401E+03  0.16984152360E+03  0.57157021408E+03  0.40000000000E+03 0.  1.
   -9000007    1    1    2    0  502  0.18257293129E+03 -0.32328546401E+03  0.16688202483E+03  0.57069779804E+03  0.40000000000E+03 0. -1.
<mgrwt>
<rscale>  2 0.54575303E+03</rscale>
<asrwt>0</asrwt>
<pdfrwt beam="1">  1       21 0.11376858E+00 0.54575303E+03</pdfrwt>
<pdfrwt beam="2">  1       21 0.61964959E-01 0.54575303E+03</pdfrwt>
<totfact> 0.11985078E+03</totfact>
</mgrwt>
</event>
<event>
 4    1  0.1147209E-002  0.4462101E+03  0.7818608E-02  0.1028858E+00
         21   -1    0    0  501  502  0.00000000000E+00  0.00000000000E+00  0.51490275669E+03  0.51490275669E+03  0.00000000000E+00 0. -1.
         21   -1    0    0  502  503 -0.00000000000E+00 -0.00000000000E+00 -0.50976824090E+03  0.50976824090E+03  0.00000000000E+00 0.  1.
    9000007    1    1    2  501    0 -0.17818794938E+03 -0.85746719234E+02  0.25431955429E+03  0.51359700239E+03  0.40000000000E+03 0. -1.
   -9000007    1    1    2    0  503  0.17818794938E+03  0.85746719234E+02 -0.24918503850E+03  0.51107399521E+03  0.40000000000E+03 0.  1.
<mgrwt>
<rscale>  2 0.44621009E+03</rscale>
<asrwt>0</asrwt>
<pdfrwt beam="1">  1       21 0.79215808E-01 0.44621009E+03</pdfrwt>
<pdfrwt beam="2">  1       21 0.78425884E-01 0.44621009E+03</pdfrwt>
<totfact> 0.17440272E+03</totfact>
</mgrwt>
</event>
<event>
 4    1  0.1147209E-002  0.4556152E+03  0.7818608E-02  0.1026061E+00
         21   -1    0    0  503  502  0.00000000000E+00  0.00000000000E+00  0.22078141635E+03  0.22078141635E+03  0.00000000000E+00 0. -1.
         21   -1    0    0  501  503 -0.00000000000E+00 -0.00000000000E+00 -0.97259860424E+03  0.97259860424E+03  0.00000000000E+00 0. -1.
    9000007    1    1    2  501    0 -0.21797302022E+03  0.85398978100E+01 -0.48476357303E+03  0.66526753200E+03  0.40000000000E+03 0. -1.
   -9000007    1    1    2    0  502  0.21797302022E+03 -0.85398978100E+01 -0.26705361485E+03  0.52811248859E+03  0.40000000000E+03 0. -1.
<mgrwt>
<rscale>  2 0.45561515E+03</rscale>
<asrwt>0</asrwt>
<pdfrwt beam="1">  1       21 0.33966372E-01 0.45561515E+03</pdfrwt>
<pdfrwt beam="2">  1       21 0.14963055E+00 0.45561515E+03</pdfrwt>
<totfact> 0.21494625E+03</totfact>
</mgrwt>
</event>
<event>
 4    1  0.1147209E-002  0.5662038E+03  0.7818608E-02  0.9978114E-01
         21   -1    0    0  503  502  0.00000000000E+00  0.00000000000E+00  0.17366954432E+04  0.17366954432E+04  0.00000000000E+00 0. -1.
         21   -1    0    0  501  503 -0.00000000000E+00 -0.00000000000E+00 -0.24792648137E+03  0.24792648137E+03  0.00000000000E+00 0. -1.
    9000007    1    1    2  501    0  0.92365127464E+02  0.38994286855E+03  0.24285869487E+03  0.61609017455E+03  0.40000000000E+03 0. -1.
   -9000007    1    1    2    0  502 -0.92365127464E+02 -0.38994286855E+03  0.12459102669E+04  0.13685317500E+04  0.40000000000E+03 0. -1.
<mgrwt>
<rscale>  2 0.56620381E+03</rscale>
<asrwt>0</asrwt>
<pdfrwt beam="1">  1       21 0.26718391E+00 0.56620381E+03</pdfrwt>
<pdfrwt beam="2">  1       21 0.38142537E-01 0.56620381E+03</pdfrwt>
<totfact> 0.26301115E+02</totfact>
</mgrwt>
</event>
<event>
 4    1  0.1147209E-002  0.4134752E+03  0.7818608E-02  0.1039211E+00
         21   -1    0    0  501  502  0.00000000000E+00  0.00000000000E+00  0.53449234706E+03  0.53449234706E+03  0.00000000000E+00 0. -1.
         21   -1    0    0  502  503 -0.00000000000E+00 -0.00000000000E+00 -0.31989554830E+03  0.31989554830E+03  0.00000000000E+00 0. -1.
    9000007    1    1    2  501    0 -0.46764040801E+02  0.93674259154E+02  0.10268045244E+03  0.42603405692E+03  0.40000000000E+03 0. -1.
   -9000007    1    1    2    0  503  0.46764040801E+02 -0.93674259154E+02  0.11191634632E+03  0.42835383845E+03  0.40000000000E+03 0. -1.
<mgrwt>
<rscale>  2 0.41347520E+03</rscale>
<asrwt>0</asrwt>
<pdfrwt beam="1">  1       21 0.82229592E-01 0.41347520E+03</pdfrwt>
<pdfrwt beam="2">  1       21 0.49214700E-01 0.41347520E+03</pdfrwt>
<totfact> 0.45235210E+03</totfact>
</mgrwt>
</event>
<event>
 4    1  0.1147209E-002  0.5001011E+03  0.7818608E-02  0.1013753E+00
         21   -1    0    0  501  502  0.00000000000E+00  0.00000000000E+00  0.24248920945E+03  0.24248920945E+03  0.00000000000E+00 0.  1.
         21   -1    0    0  502  503 -0.00000000000E+00 -0.00000000000E+00 -0.11709118533E+04  0.11709118533E+04  0.00000000000E+00 0.  1.
    9000007    1    1    2  501    0 -0.12184267840E+03 -0.27432736200E+03 -0.22026560965E+03  0.54645958553E+03  0.40000000000E+03 0.  1.
   -9000007    1    1    2    0  503  0.12184267840E+03  0.27432736200E+03 -0.70815703415E+03  0.86694147718E+03  0.40000000000E+03 0.  1.
<mgrwt>
<rscale>  2 0.50010113E+03</rscale>
<asrwt>0</asrwt>
<pdfrwt beam="1">  1       21 0.37306032E-01 0.50010113E+03</pdfrwt>
<pdfrwt beam="2">  1       21 0.18014028E+00 0.50010113E+03</pdfrwt>
<totfact> 0.10345793E+03</totfact>
</mgrwt>
</event>
<event>
 4    1  0.1147209E-002  0.4861368E+03  0.7818608E-02  0.1017462E+00
         21   -1    0    0  501  502  0.00000000000E+00  0.00000000000E+00  0.68623743476E+03  0.68623743476E+03  0.00000000000E+00 0.  1.
         21   -1    0    0  502  503 -0.00000000000E+00 -0.00000000000E+00 -0.34553610354E+03  0.34553610354E+03  0.00000000000E+00 0. -1.
    9000007    1    1    2  501    0 -0.19051807665E+03 -0.20007960824E+03  0.20014336697E+03  0.52572459949E+03  0.40000000000E+03 0. -1.
   -9000007    1    1    2    0  503  0.19051807665E+03  0.20007960824E+03  0.14055796426E+03  0.50604893882E+03  0.40000000000E+03 0. -1.
<mgrwt>
<rscale>  2 0.48613680E+03</rscale>
<asrwt>0</asrwt>
<pdfrwt beam="1">  1       21 0.10557499E+00 0.48613680E+03</pdfrwt>
<pdfrwt beam="2">  1       21 0.53159401E-01 0.48613680E+03</pdfrwt>
<totfact> 0.20576935E+03</totfact>
</mgrwt>
</event>
<event>
 4    1  0.1147209E-002  0.4065741E+03  0.7818608E-02  0.1041527E+00
         21   -1    0    0  501  502  0.00000000000E+00  0.00000000000E+00  0.80262393093E+03  0.80262393093E+03  0.00000000000E+00 0.  1.
         21   -1    0    0  502  503 -0.00000000000E+00 -0.00000000000E+00 -0.24238183817E+03  0.24238183817E+03  0.00000000000E+00 0.  1.
    9000007    1    1    2  501    0 -0.70393627115E+02 -0.18633646418E+02  0.48268575001E+03  0.63110063285E+03  0.40000000000E+03 0.  1.
   -9000007    1    1    2    0  503  0.70393627115E+02  0.18633646418E+02  0.77556342744E+02  0.41390513625E+03  0.40000000000E+03 0.  1.
<mgrwt>
<rscale>  2 0.40657407E+03</rscale>
<asrwt>0</asrwt>
<pdfrwt beam="1">  1       21 0.12348060E+00 0.40657407E+03</pdfrwt>
<pdfrwt beam="2">  1       21 0.37289514E-01 0.40657407E+03</pdfrwt>
<totfact> 0.30063774E+03</totfact>
</mgrwt>
</event>
<event>
 4    1  0.1147209E-002  0.4349560E+03  0.7818608E-02  0.1032306E+00
         21   -1    0    0  503  502  0.00000000000E+00  0.00000000000E+00  0.10545077914E+04  0.10545077914E+04  0.00000000000E+00 0.  1.
         21   -1    0    0  501  503 -0.00000000000E+00 -0.00000000000E+00 -0.17941960848E+03  0.17941960848E+03  0.00000000000E+00 0.  1.
    9000007    1    1    2  501    0  0.12190847569E+03 -0.11968730584E+03  0.43249978588E+03  0.61338633210E+03  0.40000000000E+03 0.  1.
   -9000007    1    1    2    0  502 -0.12190847569E+03  0.11968730584E+03  0.44258839709E+03  0.62054106783E+03  0.40000000000E+03 0.  1.
<mgrwt>
<rscale>  2 0.43495601E+03</rscale>
<asrwt>0</asrwt>
<pdfrwt beam="1">  1       21 0.16223196E+00 0.43495601E+03</pdfrwt>
<pdfrwt beam="2">  1       21 0.27603017E-01 0.43495601E+03</pdfrwt>
<totfact> 0.26215076E+03</totfact>
</mgrwt>
</event>
<event>
 4    1  0.1147209E-002  0.4359604E+03  0.7818608E-02  0.1031993E+00
         21   -1    0    0  503  502  0.00000000000E+00  0.00000000000E+00  0.11311652505E+03  0.11311652505E+03  0.00000000000E+00 0. -1.
         21   -1    0    0  501  503 -0.00000000000E+00 -0.00000000000E+00 -0.17829560872E+04  0.17829560872E+04  0.00000000000E+00 0. -1.
    9000007    1    1    2  501    0 -0.96636050585E+02  0.14395468432E+03 -0.10624822582E+04  0.11484467886E+04  0.40000000000E+03 0. -1.
   -9000007    1    1    2    0  502  0.96636050585E+02 -0.14395468432E+03 -0.60735730396E+03  0.74762582358E+03  0.40000000000E+03 0. -1.
<mgrwt>
<rscale>  2 0.43596041E+03</rscale>
<asrwt>0</asrwt>
<pdfrwt beam="1">  1       21 0.17402543E-01 0.43596041E+03</pdfrwt>
<pdfrwt beam="2">  1       21 0.27430093E+00 0.43596041E+03</pdfrwt>
<totfact> 0.11804689E+03</totfact>
</mgrwt>
</event>
<event>
 4    1  0.1147209E-002  0.4757370E+03  0.7818608E-02  0.1020313E+00
         21   -1    0    0  503  502  0.00000000000E+00  0.00000000000E+00  0.27388092157E+03  0.27388092157E+03  0.00000000000E+00 0. -1.
         21   -1    0    0  501  503 -0.00000000000E+00 -0.00000000000E+00 -0.82898852839E+03  0.82898852839E+03  0.00000000000E+00 0. -1.
    9000007    1    1    2  501    0  0.93047535562E+02 -0.24014138560E+03 -0.24653492392E+03  0.53582198318E+03  0.40000000000E+03 0. -1.
   -9000007    1    1    2    0  502 -0.93047535562E+02  0.24014138560E+03 -0.30857268290E+03  0.56704746678E+03  0.40000000000E+03 0. -1.
<mgrwt>
<rscale>  2 0.47573704E+03</rscale>
<asrwt>0</asrwt>
<pdfrwt beam="1">  1       21 0.42135527E-01 0.47573704E+03</pdfrwt>
<pdfrwt beam="2">  1       21 0.12753670E+00 0.47573704E+03</pdfrwt>
<totfact> 0.20956200E+03</totfact>
</mgrwt>
</event>
<event>
 4    1  0.1147209E-002  0.4607601E+03  0.7818608E-02  0.1024561E+00
         21   -1    0    0  501  502  0.00000000000E+00  0.00000000000E+00  0.21078704342E+03  0.21078704342E+03  0.00000000000E+00 0. -1.
         21   -1    0    0  502  503 -0.00000000000E+00 -0.00000000000E+00 -0.10539902664E+04  0.10539902664E+04  0.00000000000E+00 0.  1.
    9000007    1    1    2  501    0 -0.60654608841E+02 -0.22050138653E+03 -0.28832600713E+03  0.54353631840E+03  0.40000000000E+03 0. -1.
   -9000007    1    1    2    0  503  0.60654608841E+02  0.22050138653E+03 -0.55487721586E+03  0.72124099143E+03  0.40000000000E+03 0. -1.
<mgrwt>
<rscale>  2 0.46076007E+03</rscale>
<asrwt>0</asrwt>
<pdfrwt beam="1">  1       21 0.32428775E-01 0.46076007E+03</pdfrwt>
<pdfrwt beam="2">  1       21 0.16215235E+00 0.46076007E+03</pdfrwt>
<totfact> 0.18865917E+03</totfact>
</mgrwt>
</event>
<event>
 4    1  0.1147209E-002  0.4852982E+03  0.7818608E-02  0.1017689E+00
         21   -1    0    0  503  502  0.00000000000E+00  0.00000000000E+00  0.33912363552E+03  0.33912363552E+03  0.00000000000E+00 0.  1.
         21   -1    0    0  501  503 -0.00000000000E+00 -0.00000000000E+00 -0.69448149688E+03  0.69448149688E+03  0.00000000000E+00 0.  1.
    9000007    1    1    2  501    0  0.21526322378E+03 -0.17081022319E+03 -0.17857127881E+03  0.51710935930E+03  0.40000000000E+03 0.  1.
   -9000007    1    1    2    0  502 -0.21526322378E+03  0.17081022319E+03 -0.17678658255E+03  0.51649577310E+03  0.40000000000E+03 0.  1.
<mgrwt>
<rscale>  2 0.48529825E+03</rscale>
<asrwt>0</asrwt>
<pdfrwt beam="1">  1       21 0.52172867E-01 0.48529825E+03</pdfrwt>
<pdfrwt beam="2">  1       21 0.10684331E+00 0.48529825E+03</pdfrwt>
<totfact> 0.20804799E+03</totfact>
</mgrwt>
</event>
<event>
 4    1  0.1147209E-002  0.4110020E+03  0.7818608E-02  0.1040035E+00
         21   -1    0    0  501  502  0.00000000000E+00  0.00000000000E+00  0.30141245422E+03  0.30141245422E+03  0.00000000000E+00 0.  1.
         21   -1    0    0  502  503 -0.00000000000E+00 -0.00000000000E+00 -0.59574125860E+03  0.59574125860E+03  0.00000000000E+00 0. -1.
    9000007    1    1    2  501    0  0.13268969089E+02 -0.93523321576E+02 -0.37964596596E+02  0.41275172660E+03  0.40000000000E+03 0.  1.
   -9000007    1    1    2    0  503 -0.13268969089E+02  0.93523321576E+02 -0.25636420779E+03  0.48440198622E+03  0.40000000000E+03 0. -1.
<mgrwt>
<rscale>  2 0.41100204E+03</rscale>
<asrwt>0</asrwt>
<pdfrwt beam="1">  1       21 0.46371147E-01 0.41100204E+03</pdfrwt>
<pdfrwt beam="2">  1       21 0.91652501E-01 0.41100204E+03</pdfrwt>
<totfact> 0.39799514E+03</totfact>
</mgrwt>
</event>
<event>
 4    1  0.1147209E-002  0.4226072E+03  0.7818608E-02  0.1036221E+00
         21   -1    0    0  503  502  0.00000000000E+00  0.00000000000E+00  0.12200242404E+04  0.12200242404E+04  0.00000000000E+00 0.  1.
         21   -1    0    0  501  503 -0.00000000000E+00 -0.00000000000E+00 -0.24643054514E+03  0.24643054514E+03  0.00000000000E+00 0.  1.
    9000007    1    1    2  501    0 -0.86551781505E+02  0.10538337375E+03  0.19617265844E+02  0.42306229265E+03  0.40000000000E+03 0.  1.
   -9000007    1    1    2    0  502  0.86551781505E+02 -0.10538337375E+03  0.95397642938E+03  0.10433924929E+04  0.40000000000E+03 0.  1.
<mgrwt>
<rscale>  2 0.42260722E+03</rscale>
<asrwt>0</asrwt>
<pdfrwt beam="1">  1       21 0.18769603E+00 0.42260722E+03</pdfrwt>
<pdfrwt beam="2">  1       21 0.37912392E-01 0.42260722E+03</pdfrwt>
<totfact> 0.91750500E+02</totfact>
</mgrwt>
</event>
<event>
 4    1  0.1147209E-002  0.4471661E+03  0.7818608E-02  0.1028571E+00
         21   -1    0    0  501  502  0.00000000000E+00  0.00000000000E+00  0.33137159287E+03  0.33137159287E+03  0.00000000000E+00 0.  1.
         21   -1    0    0  502  503 -0.00000000000E+00 -0.00000000000E+00 -0.60363116113E+03  0.60363116113E+03  0.00000000000E+00 0.  1.
    9000007    1    1    2  501    0 -0.16671891192E+03 -0.11028307096E+03 -0.12746781288E+03  0.46497913357E+03  0.40000000000E+03 0.  1.
   -9000007    1    1    2    0  503  0.16671891192E+03  0.11028307096E+03 -0.14479175538E+03  0.47002362043E+03  0.40000000000E+03 0.  1.
<mgrwt>
<rscale>  2 0.44716613E+03</rscale>
<asrwt>0</asrwt>
<pdfrwt beam="1">  1       21 0.50980246E-01 0.44716613E+03</pdfrwt>
<pdfrwt beam="2">  1       21 0.92866330E-01 0.44716613E+03</pdfrwt>
<totfact> 0.31150836E+03</totfact>
</mgrwt>
</event>
<event>
 4    1  0.1147209E-002  0.9438766E+03  0.7818608E-02  0.9372337E-01
         21   -1    0    0  503  502  0.00000000000E+00  0.00000000000E+00  0.13806732791E+04  0.13806732791E+04  0.00000000000E+00 0. -1.
         21   -1    0    0  501  503 -0.00000000000E+00 -0.00000000000E+00 -0.64529115641E+03  0.64529115641E+03  0.00000000000E+00 0.  1.
    9000007    1    1    2  501    0  0.85451401363E+03  0.26625087673E+02  0.37387121610E+03  0.10152254828E+04  0.40000000000E+03 0. -1.
   -9000007    1    1    2    0  502 -0.85451401363E+03 -0.26625087673E+02  0.36151090655E+03  0.10107389526E+04  0.40000000000E+03 0.  1.
<mgrwt>
<rscale>  2 0.94387663E+03</rscale>
<asrwt>0</asrwt>
<pdfrwt beam="1">  1       21 0.21241127E+00 0.94387663E+03</pdfrwt>
<pdfrwt beam="2">  1       21 0.99275563E-01 0.94387663E+03</pdfrwt>
<totfact> 0.60797400E+01</totfact>
</mgrwt>
</event>
<event>
 4    1  0.1147209E-002  0.5561728E+03  0.7818608E-02  0.1000075E+00
         21   -1    0    0  501  502  0.00000000000E+00  0.00000000000E+00  0.55837113142E+03  0.55837113142E+03  0.00000000000E+00 0.  1.
         21   -1    0    0  502  503 -0.00000000000E+00 -0.00000000000E+00 -0.92831961762E+03  0.92831961762E+03  0.00000000000E+00 0.  1.
    9000007    1    1    2  501    0  0.29652825216E+03 -0.24778850314E+03  0.28705945300E+03  0.62588439521E+03  0.40000000000E+03 0.  1.
   -9000007    1    1    2    0  503 -0.29652825216E+03  0.24778850314E+03 -0.65700793920E+03  0.86080635383E+03  0.40000000000E+03 0.  1.
<mgrwt>
<rscale>  2 0.55617277E+03</rscale>
<asrwt>0</asrwt>
<pdfrwt beam="1">  1       21 0.85903251E-01 0.55617277E+03</pdfrwt>
<pdfrwt beam="2">  1       21 0.14281840E+00 0.55617277E+03</pdfrwt>
<totfact> 0.31376907E+02</totfact>
</mgrwt>
</event>
<event>
 4    1  0.1147209E-002  0.4000077E+03  0.7818608E-02  0.1043777E+00
         21   -1    0    0  503  502  0.00000000000E+00  0.00000000000E+00  0.22247604473E+03  0.22247604473E+03  0.00000000000E+00 0. -1.
         21   -1    0    0  501  503 -0.00000000000E+00 -0.00000000000E+00 -0.72966298837E+03  0.72966298837E+03  0.00000000000E+00 0. -1.
    9000007    1    1    2  501    0 -0.26039675216E+00  0.24754236601E+01 -0.31058419816E+03  0.50642742784E+03  0.40000000000E+03 0. -1.
   -9000007    1    1    2    0  502  0.26039675216E+00 -0.24754236601E+01 -0.19660274548E+03  0.44571160526E+03  0.40000000000E+03 0. -1.
<mgrwt>
<rscale>  2 0.40000774E+03</rscale>
<asrwt>0</asrwt>
<pdfrwt beam="1">  1       21 0.34227084E-01 0.40000774E+03</pdfrwt>
<pdfrwt beam="2">  1       21 0.11225584E+00 0.40000774E+03</pdfrwt>
<totfact> 0.45569916E+03</totfact>
</mgrwt>
</event>
<event>
 4    1  0.1147209E-002  0.4681592E+03  0.7818608E-02  0.1022441E+00
         21   -1    0    0  503  502  0.00000000000E+00  0.00000000000E+00  0.43484632862E+03  0.43484632862E+03  0.00000000000E+00 0.  1.
         21   -1    0    0  501  503 -0.00000000000E+00 -0.00000000000E+00 -0.69626357207E+03  0.69626357207E+03  0.00000000000E+00 0.  1.
    9000007    1    1    2  501    0 -0.18948126744E+03  0.15254458833E+03 -0.42788160538E+03  0.63423628906E+03  0.40000000000E+03 0.  1.
   -9000007    1    1    2    0  502  0.18948126744E+03 -0.15254458833E+03  0.16646436193E+03  0.49687361163E+03  0.40000000000E+03 0.  1.
<mgrwt>
<rscale>  2 0.46815916E+03</rscale>
<asrwt>0</asrwt>
<pdfrwt beam="1">  1       21 0.66899436E-01 0.46815916E+03</pdfrwt>
<pdfrwt beam="2">  1       21 0.10711747E+00 0.46815916E+03</pdfrwt>
<totfact> 0.12073002E+03</totfact>
</mgrwt>
</event>
<event>
 4    1  0.1147209E-002  0.4268132E+03  0.7818608E-02  0.1034871E+00
         21   -1    0    0  503  502  0.00000000000E+00  0.00000000000E+00  0.34560978717E+03  0.34560978717E+03  0.00000000000E+00 0.  1.
         21   -1    0    0  501  503 -0.00000000000E+00 -0.00000000000E+00 -0.55833071717E+03  0.55833071717E+03  0.00000000000E+00 0.  1.
    9000007    1    1    2  501    0 -0.33726172352E+01  0.14885597238E+03 -0.21326204219E+03  0.47712699955E+03  0.40000000000E+03 0.  1.
   -9000007    1    1    2    0  502  0.33726172352E+01 -0.14885597238E+03  0.54111219026E+00  0.42681350478E+03  0.40000000000E+03 0.  1.
<mgrwt>
<rscale>  2 0.42681316E+03</rscale>
<asrwt>0</asrwt>
<pdfrwt beam="1">  1       21 0.53170737E-01 0.42681316E+03</pdfrwt>
<pdfrwt beam="2">  1       21 0.85897032E-01 0.42681316E+03</pdfrwt>
<totfact> 0.34485702E+03</totfact>
</mgrwt>
</event>
<event>
 4    1  0.1147209E-002  0.4990074E+03  0.7818608E-02  0.1014038E+00
         21   -1    0    0  503  502  0.00000000000E+00  0.00000000000E+00  0.19506047834E+04  0.19506047834E+04  0.00000000000E+00 0.  1.
         21   -1    0    0  501  503 -0.00000000000E+00 -0.00000000000E+00 -0.13602195173E+03  0.13602195173E+03  0.00000000000E+00 0.  1.
    9000007    1    1    2  501    0  0.11119849096E+03  0.27684528342E+03  0.64856475403E+03  0.81831818721E+03  0.40000000000E+03 0.  1.
   -9000007    1    1    2    0  502 -0.11119849096E+03 -0.27684528342E+03  0.11660180776E+04  0.12683085479E+04  0.40000000000E+03 0.  1.
<mgrwt>
<rscale>  2 0.49900743E+03</rscale>
<asrwt>0</asrwt>
<pdfrwt beam="1">  1       21 0.30009302E+00 0.49900743E+03</pdfrwt>
<pdfrwt beam="2">  1       21 0.20926456E-01 0.49900743E+03</pdfrwt>
<totfact> 0.56290531E+02</totfact>
</mgrwt>
</event>
<event>
 4    1  0.1147209E-002  0.4161066E+03  0.7818608E-02  0.1038341E+00
         21   -1    0    0  503  502  0.00000000000E+00  0.00000000000E+00  0.10749202455E+04  0.10749202455E+04  0.00000000000E+00 0. -1.
         21   -1    0    0  501  503 -0.00000000000E+00 -0.00000000000E+00 -0.16704518147E+03  0.16704518147E+03  0.00000000000E+00 0. -1.
    9000007    1    1    2  501    0 -0.97468111965E+02 -0.60371298994E+02  0.57131652370E+03  0.70678659923E+03  0.40000000000E+03 0. -1.
   -9000007    1    1    2    0  502  0.97468111965E+02  0.60371298994E+02  0.33655854032E+03  0.53517882773E+03  0.40000000000E+03 0. -1.
<mgrwt>
<rscale>  2 0.41610663E+03</rscale>
<asrwt>0</asrwt>
<pdfrwt beam="1">  1       21 0.16537234E+00 0.41610663E+03</pdfrwt>
<pdfrwt beam="2">  1       21 0.25699259E-01 0.41610663E+03</pdfrwt>
<totfact> 0.28793662E+03</totfact>
</mgrwt>
</event>
<event>
 4    1  0.1147209E-002  0.4536594E+03  0.7818608E-02  0.1026636E+00
         21   -1    0    0  501  502  0.00000000000E+00  0.00000000000E+00  0.25582964606E+04  0.25582964606E+04  0.00000000000E+00 0. -1.
         21   -1    0    0  502  503 -0.00000000000E+00 -0.00000000000E+00 -0.83009602902E+02  0.83009602902E+02  0.00000000000E+00 0. -1.
    9000007    1    1    2  501    0 -0.21308890229E+03  0.19998226924E+02  0.10055939187E+04  0.11031889859E+04  0.40000000000E+03 0. -1.
   -9000007    1    1    2    0  503  0.21308890229E+03 -0.19998226924E+02  0.14696929390E+04  0.15381170775E+04  0.40000000000E+03 0. -1.
<mgrwt>
<rscale>  2 0.45365935E+03</rscale>
<asrwt>0</asrwt>
<pdfrwt beam="1">  1       21 0.39358401E+00 0.45365935E+03</pdfrwt>
<pdfrwt beam="2">  1       21 0.12770710E-01 0.45365935E+03</pdfrwt>
<totfact> 0.38657691E+02</totfact>
</mgrwt>
</event>
<event>
 4    1  0.1147209E-002  0.5639787E+03  0.7818608E-02  0.9983092E-01
         21   -1    0    0  501  502  0.00000000000E+00  0.00000000000E+00  0.14414832014E+03  0.14414832014E+03  0.00000000000E+00 0.  1.
         21   -1    0    0  502  503 -0.00000000000E+00 -0.00000000000E+00 -0.27151550819E+04  0.27151550819E+04  0.00000000000E+00 0. -1.
    9000007    1    1    2  501    0 -0.34100541013E+03  0.20441943473E+03 -0.66674830729E+03  0.87328420363E+03  0.40000000000E+03 0.  1.
   -9000007    1    1    2    0  503  0.34100541013E+03 -0.20441943473E+03 -0.19042584544E+04  0.19860191984E+04  0.40000000000E+03 0. -1.
<mgrwt>
<rscale>  2 0.56397872E+03</rscale>
<asrwt>0</asrwt>
<pdfrwt beam="1">  1       21 0.22176664E-01 0.56397872E+03</pdfrwt>
<pdfrwt beam="2">  1       21 0.41771618E+00 0.56397872E+03</pdfrwt>
<totfact> 0.89586265E+01</totfact>
</mgrwt>
</event>
<event>
 4    1  0.1147209E-002  0.4385482E+03  0.7818608E-02  0.1031193E+00
         21   -1    0    0  501  502  0.00000000000E+00  0.00000000000E+00  0.17590271124E+04  0.17590271124E+04  0.00000000000E+00 0. -1.
         21   -1    0    0  502  503 -0.00000000000E+00 -0.00000000000E+00 -0.11138347025E+03  0.11138347025E+03  0.00000000000E+00 0. -1.
    9000007    1    1    2  501    0  0.11556497248E+03 -0.13772878518E+03  0.95062669966E+03  0.10469076383E+04  0.40000000000E+03 0. -1.
   -9000007    1    1    2    0  503 -0.11556497248E+03  0.13772878518E+03  0.69701694246E+03  0.82350294426E+03  0.40000000000E+03 0. -1.
<mgrwt>
<rscale>  2 0.43854815E+03</rscale>
<asrwt>0</asrwt>
<pdfrwt beam="1">  1       21 0.27061954E+00 0.43854815E+03</pdfrwt>
<pdfrwt beam="2">  1       21 0.17135920E-01 0.43854815E+03</pdfrwt>
<totfact> 0.12772627E+03</totfact>
</mgrwt>
</event>
<event>
 4    1  0.1147209E-002  0.5907006E+03  0.7818608E-02  0.9924889E-01
         21   -1    0    0  503  502  0.00000000000E+00  0.00000000000E+00  0.33842649316E+03  0.33842649316E+03  0.00000000000E+00 0. -1.
         21   -1    0    0  501  503 -0.00000000000E+00 -0.00000000000E+00 -0.11077960154E+04  0.11077960154E+04  0.00000000000E+00 0.  1.
    9000007    1    1    2  501    0 -0.24666859953E+03 -0.35788516387E+03 -0.57504024548E+03  0.82437762733E+03  0.40000000000E+03 0.  1.
   -9000007    1    1    2    0  502  0.24666859953E+03  0.35788516387E+03 -0.19432927677E+03  0.62184488124E+03  0.40000000000E+03 0. -1.
<mgrwt>
<rscale>  2 0.59070059E+03</rscale>
<asrwt>0</asrwt>
<pdfrwt beam="1">  1       21 0.52065615E-01 0.59070059E+03</pdfrwt>
<pdfrwt beam="2">  1       21 0.17043015E+00 0.59070059E+03</pdfrwt>
<totfact> 0.58413651E+02</totfact>
</mgrwt>
</event>
<event>
 4    1  0.1147209E-002  0.4818417E+03  0.7818608E-02  0.1018630E+00
         21   -1    0    0  503  502  0.00000000000E+00  0.00000000000E+00  0.11098473975E+04  0.11098473975E+04  0.00000000000E+00 0. -1.
         21   -1    0    0  501  503 -0.00000000000E+00 -0.00000000000E+00 -0.22585515543E+03  0.22585515543E+03  0.00000000000E+00 0. -1.
    9000007    1    1    2  501    0 -0.18928821239E+03 -0.19063415119E+03  0.26059460550E+03  0.54779645432E+03  0.40000000000E+03 0.  1.
   -9000007    1    1    2    0  502  0.18928821239E+03  0.19063415119E+03  0.62339763655E+03  0.78790609860E+03  0.40000000000E+03 0.  1.
<mgrwt>
<rscale>  2 0.48184168E+03</rscale>
<asrwt>0</asrwt>
<pdfrwt beam="1">  1       21 0.17074575E+00 0.48184168E+03</pdfrwt>
<pdfrwt beam="2">  1       21 0.34746948E-01 0.48184168E+03</pdfrwt>
<totfact> 0.14064801E+03</totfact>
</mgrwt>
</event>
<event>
 4    1  0.1147209E-002  0.4750761E+03  0.7818608E-02  0.1020497E+00
         21   -1    0    0  501  502  0.00000000000E+00  0.00000000000E+00  0.19224585907E+04  0.19224585907E+04  0.00000000000E+00 0.  1.
         21   -1    0    0  502  503 -0.00000000000E+00 -0.00000000000E+00 -0.13180716497E+03  0.13180716497E+03  0.00000000000E+00 0. -1.
    9000007    1    1    2  501    0 -0.45303577095E+02 -0.25227939168E+03  0.12349049721E+04  0.13231355167E+04  0.40000000000E+03 0.  1.
   -9000007    1    1    2    0  503  0.45303577095E+02  0.25227939168E+03  0.55574645370E+03  0.73113023899E+03  0.40000000000E+03 0. -1.
<mgrwt>
<rscale>  2 0.47507611E+03</rscale>
<asrwt>0</asrwt>
<pdfrwt beam="1">  1       21 0.29576284E+00 0.47507611E+03</pdfrwt>
<pdfrwt beam="2">  1       21 0.20278027E-01 0.47507611E+03</pdfrwt>
<totfact> 0.64282631E+02</totfact>
</mgrwt>
</event>
<event>
 4    1  0.1147209E-002  0.7311620E+03  0.7818608E-02  0.9665377E-01
         21   -1    0    0  503  502  0.00000000000E+00  0.00000000000E+00  0.29914480318E+03  0.29914480318E+03  0.00000000000E+00 0. -1.
         21   -1    0    0  501  503 -0.00000000000E+00 -0.00000000000E+00 -0.18997545336E+04  0.18997545336E+04  0.00000000000E+00 0. -1.
    9000007    1    1    2  501    0 -0.21377133517E+03 -0.57349772494E+03 -0.10680525805E+04  0.12943469932E+04  0.40000000000E+03 0. -1.
   -9000007    1    1    2    0  502  0.21377133517E+03  0.57349772494E+03 -0.53255714996E+03  0.90455234355E+03  0.40000000000E+03 0. -1.
<mgrwt>
<rscale>  2 0.73116197E+03</rscale>
<asrwt>0</asrwt>
<pdfrwt beam="1">  1       21 0.46022278E-01 0.73116197E+03</pdfrwt>
<pdfrwt beam="2">  1       21 0.29226993E+00 0.73116197E+03</pdfrwt>
<totfact> 0.11663933E+02</totfact>
</mgrwt>
</event>
<event>
 4    1  0.1147209E-002  0.4330882E+03  0.7818608E-02  0.1032889E+00
         21   -1    0    0  503  502  0.00000000000E+00  0.00000000000E+00  0.24542257611E+03  0.24542257611E+03  0.00000000000E+00 0.  1.
         21   -1    0    0  501  503 -0.00000000000E+00 -0.00000000000E+00 -0.77126035670E+03  0.77126035670E+03  0.00000000000E+00 0. -1.
    9000007    1    1    2  501    0  0.65474465736E+02 -0.15257298479E+03 -0.21447139084E+03  0.48328397329E+03  0.40000000000E+03 0.  1.
   -9000007    1    1    2    0  502 -0.65474465736E+02  0.15257298479E+03 -0.31136638975E+03  0.53339895952E+03  0.40000000000E+03 0. -1.
<mgrwt>
<rscale>  2 0.43308824E+03</rscale>
<asrwt>0</asrwt>
<pdfrwt beam="1">  1       21 0.37757320E-01 0.43308824E+03</pdfrwt>
<pdfrwt beam="2">  1       21 0.11865544E+00 0.43308824E+03</pdfrwt>
<totfact> 0.32109462E+03</totfact>
</mgrwt>
</event>
<event>
 4    1  0.1147209E-002  0.4027417E+03  0.7818608E-02  0.1042834E+00
         21   -1    0    0  501  502  0.00000000000E+00  0.00000000000E+00  0.12416273298E+04  0.12416273298E+04  0.00000000000E+00 0. -1.
         21   -1    0    0  502  503 -0.00000000000E+00 -0.00000000000E+00 -0.18965478413E+03  0.18965478413E+03  0.00000000000E+00 0. -1.
    9000007    1    1    2  501    0  0.37846249064E+02  0.27723170501E+02  0.92520362523E+03  0.10090602861E+04  0.40000000000E+03 0. -1.
   -9000007    1    1    2    0  503 -0.37846249064E+02 -0.27723170501E+02  0.12676892046E+03  0.42222182789E+03  0.40000000000E+03 0. -1.
<mgrwt>
<rscale>  2 0.40274174E+03</rscale>
<asrwt>0</asrwt>
<pdfrwt beam="1">  1       21 0.19101958E+00 0.40274174E+03</pdfrwt>
<pdfrwt beam="2">  1       21 0.29177660E-01 0.40274174E+03</pdfrwt>
<totfact> 0.14876361E+03</totfact>
</mgrwt>
</event>
<event>
 4    1  0.1147209E-002  0.4019208E+03  0.7818608E-02  0.1043117E+00
         21   -1    0    0  501  502  0.00000000000E+00  0.00000000000E+00  0.12703143978E+04  0.12703143978E+04  0.00000000000E+00 0.  1.
         21   -1    0    0  502  503 -0.00000000000E+00 -0.00000000000E+00 -0.13260745286E+03  0.13260745286E+03  0.00000000000E+00 0.  1.
    9000007    1    1    2  501    0  0.21660726156E+02  0.32728476104E+02  0.71095260237E+03  0.81669697135E+03  0.40000000000E+03 0.  1.
   -9000007    1    1    2    0  503 -0.21660726156E+02 -0.32728476104E+02  0.42675434253E+03  0.58622487927E+03  0.40000000000E+03 0.  1.
<mgrwt>
<rscale>  2 0.40192081E+03</rscale>
<asrwt>0</asrwt>
<pdfrwt beam="1">  1       21 0.19543298E+00 0.40192081E+03</pdfrwt>
<pdfrwt beam="2">  1       21 0.20401147E-01 0.40192081E+03</pdfrwt>
<totfact> 0.27791665E+03</totfact>
</mgrwt>
</event>
<event>
 4    1  0.1147209E-002  0.4130593E+03  0.7818608E-02  0.1039349E+00
         21   -1    0    0  503  502  0.00000000000E+00  0.00000000000E+00  0.15625232061E+04  0.15625232061E+04  0.00000000000E+00 0.  1.
         21   -1    0    0  501  503 -0.00000000000E+00 -0.00000000000E+00 -0.10974141172E+03  0.10974141172E+03  0.00000000000E+00 0.  1.
    9000007    1    1    2  501    0 -0.84169210337E+02 -0.59443597689E+02  0.78545013337E+03  0.88744008771E+03  0.40000000000E+03 0.  1.
   -9000007    1    1    2    0  502  0.84169210337E+02  0.59443597689E+02  0.66733166105E+03  0.78482453014E+03  0.40000000000E+03 0.  1.
<mgrwt>
<rscale>  2 0.41305931E+03</rscale>
<asrwt>0</asrwt>
<pdfrwt beam="1">  1       21 0.24038817E+00 0.41305931E+03</pdfrwt>
<pdfrwt beam="2">  1       21 0.16883295E-01 0.41305931E+03</pdfrwt>
<totfact> 0.20341739E+03</totfact>
</mgrwt>
</event>
<event>
 4    1  0.1147209E-002  0.5437896E+03  0.7818608E-02  0.1002942E+00
         21   -1    0    0  503  502  0.00000000000E+00  0.00000000000E+00  0.64556143073E+03  0.64556143073E+03  0.00000000000E+00 0. -1.
         21   -1    0    0  501  503 -0.00000000000E+00 -0.00000000000E+00 -0.64336222098E+03  0.64336222098E+03  0.00000000000E+00 0. -1.
    9000007    1    1    2  501    0  0.88801157303E+02 -0.35752124738E+03 -0.34476611508E+03  0.64387169682E+03  0.40000000000E+03 0. -1.
   -9000007    1    1    2    0  502 -0.88801157303E+02  0.35752124738E+03  0.34696532483E+03  0.64505195488E+03  0.40000000000E+03 0. -1.
<mgrwt>
<rscale>  2 0.54378956E+03</rscale>
<asrwt>0</asrwt>
<pdfrwt beam="1">  1       21 0.99317144E-01 0.54378956E+03</pdfrwt>
<pdfrwt beam="2">  1       21 0.98978803E-01 0.54378956E+03</pdfrwt>
<totfact> 0.56791960E+02</totfact>
</mgrwt>
</event>
<event>
 4    1  0.1147209E-002  0.5459022E+03  0.7818608E-02  0.1002447E+00
         21   -1    0    0  503  502  0.00000000000E+00  0.00000000000E+00  0.46883270332E+03  0.46883270332E+03  0.00000000000E+00 0. -1.
         21   -1    0    0  501  503 -0.00000000000E+00 -0.00000000000E+00 -0.64472656796E+03  0.64472656796E+03  0.00000000000E+00 0. -1.
    9000007    1    1    2  501    0  0.37041600228E+03  0.28305478461E+02 -0.21850906534E+02  0.54633934233E+03  0.40000000000E+03 0. -1.
   -9000007    1    1    2    0  502 -0.37041600228E+03 -0.28305478461E+02 -0.15404295811E+03  0.56721992895E+03  0.40000000000E+03 0. -1.
<mgrwt>
<rscale>  2 0.54590220E+03</rscale>
<asrwt>0</asrwt>
<pdfrwt beam="1">  1       21 0.72128109E-01 0.54590220E+03</pdfrwt>
<pdfrwt beam="2">  1       21 0.99188702E-01 0.54590220E+03</pdfrwt>
<totfact> 0.11973574E+03</totfact>
</mgrwt>
</event>
<event>
 4    1  0.1147209E-002  0.4962150E+03  0.7818608E-02  0.1014772E+00
         21   -1    0    0  503  502  0.00000000000E+00  0.00000000000E+00  0.19048813936E+04  0.19048813936E+04  0.00000000000E+00 0.  1.
         21   -1    0    0  501  503 -0.00000000000E+00 -0.00000000000E+00 -0.20289215699E+03  0.20289215699E+03  0.00000000000E+00 0.  1.
    9000007    1    1    2  501    0  0.17933140881E+03 -0.23252862086E+03  0.21611942202E+03  0.54123647168E+03  0.40000000000E+03 0.  1.
   -9000007    1    1    2    0  502 -0.17933140881E+03  0.23252862086E+03  0.14858698146E+04  0.15665370789E+04  0.40000000000E+03 0.  1.
<mgrwt>
<rscale>  2 0.49621499E+03</rscale>
<asrwt>0</asrwt>
<pdfrwt beam="1">  1       21 0.29305866E+00 0.49621499E+03</pdfrwt>
<pdfrwt beam="2">  1       21 0.31214179E-01 0.49621499E+03</pdfrwt>
<totfact> 0.28435850E+02</totfact>
</mgrwt>
</event>
<event>
 4    1  0.1147209E-002  0.4736905E+03  0.7818608E-02  0.1020884E+00
         21   -1    0    0  503  502  0.00000000000E+00  0.00000000000E+00  0.42065479972E+03  0.42065479972E+03  0.00000000000E+00 0. -1.
         21   -1    0    0  501  503 -0.00000000000E+00 -0.00000000000E+00 -0.66630821042E+03  0.66630821042E+03  0.00000000000E+00 0.  1.
    9000007    1    1    2  501    0  0.13067307001E+03  0.21750238027E+03 -0.36554463529E+03  0.59833570597E+03  0.40000000000E+03 0.  1.
   -9000007    1    1    2    0  502 -0.13067307001E+03 -0.21750238027E+03  0.11989122459E+03  0.48862730417E+03  0.40000000000E+03 0. -1.
<mgrwt>
<rscale>  2 0.47369055E+03</rscale>
<asrwt>0</asrwt>
<pdfrwt beam="1">  1       21 0.64716123E-01 0.47369055E+03</pdfrwt>
<pdfrwt beam="2">  1       21 0.10250896E+00 0.47369055E+03</pdfrwt>
<totfact> 0.14456422E+03</totfact>
</mgrwt>
</event>
<event>
 4    1  0.1147209E-002  0.5184220E+03  0.7818608E-02  0.1009079E+00
         21   -1    0    0  501  502  0.00000000000E+00  0.00000000000E+00  0.70907452621E+03  0.70907452621E+03  0.00000000000E+00 0.  1.
         21   -1    0    0  502  503 -0.00000000000E+00 -0.00000000000E+00 -0.49075066832E+03  0.49075066832E+03  0.00000000000E+00 0. -1.
    9000007    1    1    2  501    0 -0.25081521726E+03  0.21413333507E+03  0.39539643641E+03  0.65199670270E+03  0.40000000000E+03 0.  1.
   -9000007    1    1    2    0  503  0.25081521726E+03 -0.21413333507E+03 -0.17707257852E+03  0.54782849183E+03  0.40000000000E+03 0. -1.
<mgrwt>
<rscale>  2 0.51842199E+03</rscale>
<asrwt>0</asrwt>
<pdfrwt beam="1">  1       21 0.10908839E+00 0.51842199E+03</pdfrwt>
<pdfrwt beam="2">  1       21 0.75500103E-01 0.51842199E+03</pdfrwt>
<totfact> 0.86123287E+02</totfact>
</mgrwt>
</event>
<event>
 4    1  0.1147209E-002  0.4707743E+03  0.7818608E-02  0.1021702E+00
         21   -1    0    0  501  502  0.00000000000E+00  0.00000000000E+00  0.24282431039E+04  0.24282431039E+04  0.00000000000E+00 0.  1.
         21   -1    0    0  502  503 -0.00000000000E+00 -0.00000000000E+00 -0.92364335797E+02  0.92364335797E+02  0.00000000000E+00 0. -1.
    9000007    1    1    2  501    0  0.40706503449E+02  0.24489063667E+03  0.10308265823E+04  0.11332395537E+04  0.40000000000E+03 0.  1.
   -9000007    1    1    2    0  503 -0.40706503449E+02 -0.24489063667E+03  0.13050521858E+04  0.13873678859E+04  0.40000000000E+03 0.  1.
<mgrwt>
<rscale>  2 0.47077430E+03</rscale>
<asrwt>0</asrwt>
<pdfrwt beam="1">  1       21 0.37357581E+00 0.47077430E+03</pdfrwt>
<pdfrwt beam="2">  1       21 0.14209900E-01 0.47077430E+03</pdfrwt>
<totfact> 0.42043765E+02</totfact>
</mgrwt>
</event>
<event>
 4    1  0.1147209E-002  0.4919261E+03  0.7818608E-02  0.1015908E+00
         21   -1    0    0  503  502  0.00000000000E+00  0.00000000000E+00  0.69217689473E+03  0.69217689473E+03  0.00000000000E+00 0. -1.
         21   -1    0    0  501  503 -0.00000000000E+00 -0.00000000000E+00 -0.35346352339E+03  0.35346352339E+03  0.00000000000E+00 0. -1.
    9000007    1    1    2  501    0  0.96935499970E+02 -0.26943428144E+03  0.11476063319E+03  0.50513495830E+03  0.40000000000E+03 0. -1.
   -9000007    1    1    2    0  502 -0.96935499970E+02  0.26943428144E+03  0.22395273815E+03  0.54050545982E+03  0.40000000000E+03 0. -1.
<mgrwt>
<rscale>  2 0.49192614E+03</rscale>
<asrwt>0</asrwt>
<pdfrwt beam="1">  1       21 0.10648875E+00 0.49192614E+03</pdfrwt>
<pdfrwt beam="2">  1       21 0.54379004E-01 0.49192614E+03</pdfrwt>
<totfact> 0.19143417E+03</totfact>
</mgrwt>
</event>
<event>
 4    1  0.1147209E-002  0.4080150E+03  0.7818608E-02  0.1041039E+00
         21   -1    0    0  501  502  0.00000000000E+00  0.00000000000E+00  0.59749368439E+03  0.59749368439E+03  0.00000000000E+00 0.  1.
         21   -1    0    0  502  503 -0.00000000000E+00 -0.00000000000E+00 -0.27874087241E+03  0.27874087241E+03  0.00000000000E+00 0.  1.
    9000007    1    1    2  501    0  0.72556494629E+02  0.34811221967E+02  0.16833557283E+03  0.44137640531E+03  0.40000000000E+03 0. -1.
   -9000007    1    1    2    0  503 -0.72556494629E+02 -0.34811221967E+02  0.15041723915E+03  0.43485815149E+03  0.40000000000E+03 0. -1.
<mgrwt>
<rscale>  2 0.40801503E+03</rscale>
<asrwt>0</asrwt>
<pdfrwt beam="1">  1       21 0.91922105E-01 0.40801503E+03</pdfrwt>
<pdfrwt beam="2">  1       21 0.42883211E-01 0.40801503E+03</pdfrwt>
<totfact> 0.46584583E+03</totfact>
</mgrwt>
</event>
<event>
 4    1  0.1147209E-002  0.4119671E+03  0.7818608E-02  0.1039713E+00
         21   -1    0    0  501  502  0.00000000000E+00  0.00000000000E+00  0.10762360018E+04  0.10762360018E+04  0.00000000000E+00 0.  1.
         21   -1    0    0  502  503 -0.00000000000E+00 -0.00000000000E+00 -0.16483264388E+03  0.16483264388E+03  0.00000000000E+00 0. -1.
    9000007    1    1    2  501    0  0.96591736762E+02  0.19670521505E+02  0.58483124267E+03  0.71536317729E+03  0.40000000000E+03 0. -1.
   -9000007    1    1    2    0  503 -0.96591736762E+02 -0.19670521505E+02  0.32657211522E+03  0.52570546836E+03  0.40000000000E+03 0. -1.
<mgrwt>
<rscale>  2 0.41196710E+03</rscale>
<asrwt>0</asrwt>
<pdfrwt beam="1">  1       21 0.16557477E+00 0.41196710E+03</pdfrwt>
<pdfrwt beam="2">  1       21 0.25358869E-01 0.41196710E+03</pdfrwt>
<totfact> 0.29500381E+03</totfact>
</mgrwt>
</event>
<event>
 4    1  0.1147209E-002  0.4373884E+03  0.7818608E-02  0.1031551E+00
         21   -1    0    0  503  502  0.00000000000E+00  0.00000000000E+00  0.10181783994E+03  0.10181783994E+03  0.00000000000E+00 0. -1.
         21   -1    0    0  501  503 -0.00000000000E+00 -0.00000000000E+00 -0.29012570644E+04  0.29012570644E+04  0.00000000000E+00 0.  1.
    9000007    1    1    2  501    0  0.15977997916E+03 -0.76019672596E+02 -0.22910483574E+04  0.23324260349E+04  0.40000000000E+03 0.  1.
   -9000007    1    1    2    0  502 -0.15977997916E+03  0.76019672596E+02 -0.50839086704E+03  0.67064886942E+03  0.40000000000E+03 0. -1.
<mgrwt>
<rscale>  2 0.43738842E+03</rscale>
<asrwt>0</asrwt>
<pdfrwt beam="1">  1       21 0.15664282E-01 0.43738842E+03</pdfrwt>
<pdfrwt beam="2">  1       21 0.44634729E+00 0.43738842E+03</pdfrwt>
<totfact> 0.12095038E+02</totfact>
</mgrwt>
</event>
<event>
 4    1  0.1147209E-002  0.4781074E+03  0.7818608E-02  0.1019657E+00
         21   -1    0    0  501  502  0.00000000000E+00  0.00000000000E+00  0.45950627393E+03  0.45950627393E+03  0.00000000000E+00 0.  1.
         21   -1    0    0  502  503 -0.00000000000E+00 -0.00000000000E+00 -0.55769733537E+03  0.55769733537E+03  0.00000000000E+00 0.  1.
    9000007    1    1    2  501    0 -0.15244290047E+03 -0.21295039866E+03 -0.21624532495E+03  0.52473683953E+03  0.40000000000E+03 0.  1.
   -9000007    1    1    2    0  503  0.15244290047E+03  0.21295039866E+03  0.11805426350E+03  0.49246676977E+03  0.40000000000E+03 0.  1.
<mgrwt>
<rscale>  2 0.47810743E+03</rscale>
<asrwt>0</asrwt>
<pdfrwt beam="1">  1       21 0.70693273E-01 0.47810743E+03</pdfrwt>
<pdfrwt beam="2">  1       21 0.85799590E-01 0.47810743E+03</pdfrwt>
<totfact> 0.18134587E+03</totfact>
</mgrwt>
</event>
<event>
 4    1  0.1147209E-002  0.4548980E+03  0.7818608E-02  0.1026271E+00
         21   -1    0    0  503  502  0.00000000000E+00  0.00000000000E+00  0.70040372938E+03  0.70040372938E+03  0.00000000000E+00 0.  1.
         21   -1    0    0  501  503 -0.00000000000E+00 -0.00000000000E+00 -0.30486401102E+03  0.30486401102E+03  0.00000000000E+00 0.  1.
    9000007    1    1    2  501    0  0.18407097681E+03 -0.11423704135E+03  0.10943060820E+03  0.46787528694E+03  0.40000000000E+03 0.  1.
   -9000007    1    1    2    0  502 -0.18407097681E+03  0.11423704135E+03  0.28610911015E+03  0.53739245346E+03  0.40000000000E+03 0.  1.
<mgrwt>
<rscale>  2 0.45489804E+03</rscale>
<asrwt>0</asrwt>
<pdfrwt beam="1">  1       21 0.10775442E+00 0.45489804E+03</pdfrwt>
<pdfrwt beam="2">  1       21 0.46902156E-01 0.45489804E+03</pdfrwt>
<totfact> 0.25828180E+03</totfact>
</mgrwt>
</event>
<event>
 4    1  0.1147209E-002  0.4465556E+03  0.7818608E-02  0.1028754E+00
         21   -1    0    0  501  502  0.00000000000E+00  0.00000000000E+00  0.22411958137E+04  0.22411958137E+04  0.00000000000E+00 0.  1.
         21   -1    0    0  502  503 -0.00000000000E+00 -0.00000000000E+00 -0.98855779589E+02  0.98855779589E+02  0.00000000000E+00 0.  1.
    9000007    1    1    2  501    0  0.95107117216E+02  0.17426007539E+03  0.14410619909E+04  0.15086655028E+04  0.40000000000E+03 0.  1.
   -9000007    1    1    2    0  503 -0.95107117216E+02 -0.17426007539E+03  0.70127804320E+03  0.83138609051E+03  0.40000000000E+03 0.  1.
<mgrwt>
<rscale>  2 0.44655564E+03</rscale>
<asrwt>0</asrwt>
<pdfrwt beam="1">  1       21 0.34479932E+00 0.44655564E+03</pdfrwt>
<pdfrwt beam="2">  1       21 0.15208583E-01 0.44655564E+03</pdfrwt>
<totfact> 0.56674173E+02</totfact>
</mgrwt>
</event>
<event>
 4    1  0.1147209E-002  0.5927094E+03  0.7818608E-02  0.9920648E-01
         21   -1    0    0  503  502  0.00000000000E+00  0.00000000000E+00  0.13758562994E+04  0.13758562994E+04  0.00000000000E+00 0.  1.
         21   -1    0    0  501  503 -0.00000000000E+00 -0.00000000000E+00 -0.26288221826E+03  0.26288221826E+03  0.00000000000E+00 0.  1.
    9000007    1    1    2  501    0  0.36794498406E+03 -0.23647600029E+03  0.41765505021E+03  0.72507941012E+03  0.40000000000E+03 0.  1.
   -9000007    1    1    2    0  502 -0.36794498406E+03  0.23647600029E+03  0.69531903090E+03  0.91365910752E+03  0.40000000000E+03 0.  1.
<mgrwt>
<rscale>  2 0.59270938E+03</rscale>
<asrwt>0</asrwt>
<pdfrwt beam="1">  1       21 0.21167019E+00 0.59270938E+03</pdfrwt>
<pdfrwt beam="2">  1       21 0.40443419E-01 0.59270938E+03</pdfrwt>
<totfact> 0.51611021E+02</totfact>
</mgrwt>
</event>
<event>
 4    1  0.1147209E-002  0.4610030E+03  0.7818608E-02  0.1024491E+00
         21   -1    0    0  501  502  0.00000000000E+00  0.00000000000E+00  0.14808377284E+04  0.14808377284E+04  0.00000000000E+00 0. -1.
         21   -1    0    0  502  503 -0.00000000000E+00 -0.00000000000E+00 -0.20899921713E+03  0.20899921713E+03  0.00000000000E+00 0. -1.
    9000007    1    1    2  501    0 -0.22309150860E+03 -0.52477693246E+02  0.11088612495E+04  0.12008734322E+04  0.40000000000E+03 0. -1.
   -9000007    1    1    2    0  503  0.22309150860E+03  0.52477693246E+02  0.16297726174E+03  0.48896351330E+03  0.40000000000E+03 0. -1.
<mgrwt>
<rscale>  2 0.46100296E+03</rscale>
<asrwt>0</asrwt>
<pdfrwt beam="1">  1       21 0.22782118E+00 0.46100296E+03</pdfrwt>
<pdfrwt beam="2">  1       21 0.32153727E-01 0.46100296E+03</pdfrwt>
<totfact> 0.68538261E+02</totfact>
</mgrwt>
</event>
<event>
 4    1  0.1147209E-002  0.4522687E+03  0.7818608E-02  0.1027048E+00
         21   -1    0    0  501  502  0.00000000000E+00  0.00000000000E+00  0.32181203600E+03  0.32181203600E+03  0.00000000000E+00 0.  1.
         21   -1    0    0  502  503 -0.00000000000E+00 -0.00000000000E+00 -0.74125377470E+03  0.74125377470E+03  0.00000000000E+00 0. -1.
    9000007    1    1    2  501    0 -0.68927347194E+02 -0.19948938471E+03 -0.90573798349E+01  0.45235940350E+03  0.40000000000E+03 0.  1.
   -9000007    1    1    2    0  503  0.68927347194E+02  0.19948938471E+03 -0.41038435886E+03  0.61070640720E+03  0.40000000000E+03 0. -1.
<mgrwt>
<rscale>  2 0.45226872E+03</rscale>
<asrwt>0</asrwt>
<pdfrwt beam="1">  1       21 0.49509544E-01 0.45226872E+03</pdfrwt>
<pdfrwt beam="2">  1       21 0.11403904E+00 0.45226872E+03</pdfrwt>
<totfact> 0.20026986E+03</totfact>
</mgrwt>
</event>
<event>
 4    1  0.1147209E-002  0.4014688E+03  0.7818608E-02  0.1043272E+00
         21   -1    0    0  503  502  0.00000000000E+00  0.00000000000E+00  0.73806484820E+03  0.73806484820E+03  0.00000000000E+00 0.  1.
         21   -1    0    0  501  503 -0.00000000000E+00 -0.00000000000E+00 -0.43200523466E+03  0.43200523466E+03  0.00000000000E+00 0.  1.
    9000007    1    1    2  501    0 -0.32789468922E+02 -0.10101351025E+02 -0.25837143669E+03  0.47742327746E+03  0.40000000000E+03 0.  1.
   -9000007    1    1    2    0  502  0.32789468922E+02  0.10101351025E+02  0.56443105023E+03  0.69264680540E+03  0.40000000000E+03 0.  1.
<mgrwt>
<rscale>  2 0.40146879E+03</rscale>
<asrwt>0</asrwt>
<pdfrwt beam="1">  1       21 0.11354844E+00 0.40146879E+03</pdfrwt>
<pdfrwt beam="2">  1       21 0.66462344E-01 0.40146879E+03</pdfrwt>
<totfact> 0.10905538E+03</totfact>
</mgrwt>
</event>
<event>
 4    1  0.1147209E-002  0.4278145E+03  0.7818608E-02  0.1034553E+00
         21   -1    0    0  503  502  0.00000000000E+00  0.00000000000E+00  0.33643832412E+03  0.33643832412E+03  0.00000000000E+00 0. -1.
         21   -1    0    0  501  503 -0.00000000000E+00 -0.00000000000E+00 -0.60418426447E+03  0.60418426447E+03  0.00000000000E+00 0. -1.
    9000007    1    1    2  501    0  0.15121709268E+03 -0.12596330327E+02 -0.28229960735E+03  0.51256057687E+03  0.40000000000E+03 0. -1.
   -9000007    1    1    2    0  502 -0.15121709268E+03  0.12596330327E+02  0.14553666999E+02  0.42806201172E+03  0.40000000000E+03 0. -1.
<mgrwt>
<rscale>  2 0.42781454E+03</rscale>
<asrwt>0</asrwt>
<pdfrwt beam="1">  1       21 0.51759743E-01 0.42781454E+03</pdfrwt>
<pdfrwt beam="2">  1       21 0.92951424E-01 0.42781454E+03</pdfrwt>
<totfact> 0.30305395E+03</totfact>
</mgrwt>
</event>
<event>
 4    1  0.1147209E-002  0.4071972E+03  0.7818608E-02  0.1041316E+00
         21   -1    0    0  503  502  0.00000000000E+00  0.00000000000E+00  0.15000326174E+04  0.15000326174E+04  0.00000000000E+00 0. -1.
         21   -1    0    0  501  503 -0.00000000000E+00 -0.00000000000E+00 -0.11060556170E+03  0.11060556170E+03  0.00000000000E+00 0.  1.
    9000007    1    1    2  501    0 -0.59802425235E+02  0.47257224618E+02  0.67470911363E+03  0.78806215704E+03  0.40000000000E+03 0.  1.
   -9000007    1    1    2    0  502  0.59802425235E+02 -0.47257224618E+02  0.71471794204E+03  0.82257602203E+03  0.40000000000E+03 0. -1.
<mgrwt>
<rscale>  2 0.40719722E+03</rscale>
<asrwt>0</asrwt>
<pdfrwt beam="1">  1       21 0.23077423E+00 0.40719722E+03</pdfrwt>
<pdfrwt beam="2">  1       21 0.17016241E-01 0.40719722E+03</pdfrwt>
<totfact> 0.23071543E+03</totfact>
</mgrwt>
</event>
<event>
 4    1  0.1147209E-002  0.4038467E+03  0.7818608E-02  0.1042456E+00
         21   -1    0    0  503  502  0.00000000000E+00  0.00000000000E+00  0.19653253250E+03  0.19653253250E+03  0.00000000000E+00 0. -1.
         21   -1    0    0  501  503 -0.00000000000E+00 -0.00000000000E+00 -0.12871257433E+04  0.12871257433E+04  0.00000000000E+00 0. -1.
    9000007    1    1    2  501    0 -0.49681207518E+02 -0.24978158226E+02 -0.98746065307E+03  0.10668508200E+04  0.40000000000E+03 0. -1.
   -9000007    1    1    2    0  502  0.49681207518E+02  0.24978158226E+02 -0.10313255777E+03  0.41680745584E+03  0.40000000000E+03 0. -1.
<mgrwt>
<rscale>  2 0.40384667E+03</rscale>
<asrwt>0</asrwt>
<pdfrwt beam="1">  1       21 0.30235773E-01 0.40384667E+03</pdfrwt>
<pdfrwt beam="2">  1       21 0.19801935E+00 0.40384667E+03</pdfrwt>
<totfact> 0.12429923E+03</totfact>
</mgrwt>
</event>
<event>
 4    1  0.1147209E-002  0.5302805E+03  0.7818608E-02  0.1006164E+00
         21   -1    0    0  503  502  0.00000000000E+00  0.00000000000E+00  0.37578785170E+03  0.37578785170E+03  0.00000000000E+00 0. -1.
         21   -1    0    0  501  503 -0.00000000000E+00 -0.00000000000E+00 -0.74834107916E+03  0.74834107916E+03  0.00000000000E+00 0. -1.
    9000007    1    1    2  501    0 -0.23365772947E+03  0.25807270112E+03 -0.19102052532E+03  0.56363666905E+03  0.40000000000E+03 0. -1.
   -9000007    1    1    2    0  502  0.23365772947E+03 -0.25807270112E+03 -0.18153270214E+03  0.56049226181E+03  0.40000000000E+03 0. -1.
<mgrwt>
<rscale>  2 0.53028054E+03</rscale>
<asrwt>0</asrwt>
<pdfrwt beam="1">  1       21 0.57813515E-01 0.53028054E+03</pdfrwt>
<pdfrwt beam="2">  1       21 0.11512940E+00 0.53028054E+03</pdfrwt>
<totfact> 0.13619244E+03</totfact>
</mgrwt>
</event>
<event>
 4    1  0.1147209E-002  0.5201442E+03  0.7818608E-02  0.1008651E+00
         21   -1    0    0  503  502  0.00000000000E+00  0.00000000000E+00  0.24866068538E+03  0.24866068538E+03  0.00000000000E+00 0. -1.
         21   -1    0    0  501  503 -0.00000000000E+00 -0.00000000000E+00 -0.10929262977E+04  0.10929262977E+04  0.00000000000E+00 0.  1.
    9000007    1    1    2  501    0  0.26680217368E+03  0.19841011436E+03 -0.37722901865E+03  0.64253537325E+03  0.40000000000E+03 0.  1.
   -9000007    1    1    2    0  502 -0.26680217368E+03 -0.19841011436E+03 -0.46703659365E+03  0.69905160980E+03  0.40000000000E+03 0. -1.
<mgrwt>
<rscale>  2 0.52014419E+03</rscale>
<asrwt>0</asrwt>
<pdfrwt beam="1">  1       21 0.38255491E-01 0.52014419E+03</pdfrwt>
<pdfrwt beam="2">  1       21 0.16814251E+00 0.52014419E+03</pdfrwt>
<totfact> 0.11904017E+03</totfact>
</mgrwt>
</event>
<event>
 4    1  0.1147209E-002  0.4868652E+03  0.7818608E-02  0.1017265E+00
         21   -1    0    0  503  502  0.00000000000E+00  0.00000000000E+00  0.16427718471E+04  0.16427718471E+04  0.00000000000E+00 0. -1.
         21   -1    0    0  501  503 -0.00000000000E+00 -0.00000000000E+00 -0.16661110508E+03  0.16661110508E+03  0.00000000000E+00 0. -1.
    9000007    1    1    2  501    0 -0.19634021686E+03  0.19618421338E+03  0.40695421880E+03  0.63454665907E+03  0.40000000000E+03 0. -1.
   -9000007    1    1    2    0  502  0.19634021686E+03 -0.19618421338E+03  0.10692065233E+04  0.11748362931E+04  0.40000000000E+03 0. -1.
<mgrwt>
<rscale>  2 0.48686520E+03</rscale>
<asrwt>0</asrwt>
<pdfrwt beam="1">  1       21 0.25273412E+00 0.48686520E+03</pdfrwt>
<pdfrwt beam="2">  1       21 0.25632479E-01 0.48686520E+03</pdfrwt>
<totfact> 0.74163329E+02</totfact>
</mgrwt>
</event>
<event>
 4    1  0.1147209E-002  0.4527524E+03  0.7818608E-02  0.1026904E+00
         21   -1    0    0  501  502  0.00000000000E+00  0.00000000000E+00  0.35893347257E+03  0.35893347257E+03  0.00000000000E+00 0.  1.
         21   -1    0    0  502  503 -0.00000000000E+00 -0.00000000000E+00 -0.74071198801E+03  0.74071198801E+03  0.00000000000E+00 0. -1.
    9000007    1    1    2  501    0 -0.19847451341E+03  0.74783775029E+02  0.72218699272E+02  0.45847604736E+03  0.40000000000E+03 0.  1.
   -9000007    1    1    2    0  503  0.19847451341E+03 -0.74783775029E+02 -0.45399721471E+03  0.64116941321E+03  0.40000000000E+03 0.  1.
<mgrwt>
<rscale>  2 0.45275241E+03</rscale>
<asrwt>0</asrwt>
<pdfrwt beam="1">  1       21 0.55220535E-01 0.45275241E+03</pdfrwt>
<pdfrwt beam="2">  1       21 0.11395569E+00 0.45275241E+03</pdfrwt>
<totfact> 0.15876959E+03</totfact>
</mgrwt>
</event>
<event>
 4    1  0.1147209E-002  0.4659018E+03  0.7818608E-02  0.1023083E+00
         21   -1    0    0  501  502  0.00000000000E+00  0.00000000000E+00  0.60982166608E+03  0.60982166608E+03  0.00000000000E+00 0.  1.
         21   -1    0    0  502  503 -0.00000000000E+00 -0.00000000000E+00 -0.42037677020E+03  0.42037677020E+03  0.00000000000E+00 0.  1.
    9000007    1    1    2  501    0  0.20336789862E+03  0.12532360824E+03  0.29637934423E+03  0.55218223863E+03  0.40000000000E+03 0.  1.
   -9000007    1    1    2    0  503 -0.20336789862E+03 -0.12532360824E+03 -0.10693444835E+03  0.47801619765E+03  0.40000000000E+03 0.  1.
<mgrwt>
<rscale>  2 0.46590182E+03</rscale>
<asrwt>0</asrwt>
<pdfrwt beam="1">  1       21 0.93818718E-01 0.46590182E+03</pdfrwt>
<pdfrwt beam="2">  1       21 0.64673349E-01 0.46590182E+03</pdfrwt>
<totfact> 0.17991786E+03</totfact>
</mgrwt>
</event>
<event>
 4    1  0.1147209E-002  0.5493447E+03  0.7818608E-02  0.1001646E+00
         21   -1    0    0  503  502  0.00000000000E+00  0.00000000000E+00  0.62732871119E+03  0.62732871119E+03  0.00000000000E+00 0.  1.
         21   -1    0    0  501  503 -0.00000000000E+00 -0.00000000000E+00 -0.48538357980E+03  0.48538357980E+03  0.00000000000E+00 0.  1.
    9000007    1    1    2  501    0  0.25657192424E+03  0.27559108301E+03  0.12351187131E+03  0.56305841589E+03  0.40000000000E+03 0.  1.
   -9000007    1    1    2    0  502 -0.25657192424E+03 -0.27559108301E+03  0.18433260078E+02  0.54965387511E+03  0.40000000000E+03 0.  1.
<mgrwt>
<rscale>  2 0.54934470E+03</rscale>
<asrwt>0</asrwt>
<pdfrwt beam="1">  1       21 0.96512109E-01 0.54934470E+03</pdfrwt>
<pdfrwt beam="2">  1       21 0.74674397E-01 0.54934470E+03</pdfrwt>
<totfact> 0.11807660E+03</totfact>
</mgrwt>
</event>
<event>
 4    1  0.1147209E-002  0.5928986E+03  0.7818608E-02  0.9920250E-01
         21   -1    0    0  503  502  0.00000000000E+00  0.00000000000E+00  0.14958680371E+04  0.14958680371E+04  0.00000000000E+00 0.  1.
         21   -1    0    0  501  503 -0.00000000000E+00 -0.00000000000E+00 -0.72642944879E+03  0.72642944879E+03  0.00000000000E+00 0. -1.
    9000007    1    1    2  501    0  0.10187371704E+03 -0.42561777233E+03 -0.52919641019E+03  0.79471855578E+03  0.40000000000E+03 0. -1.
   -9000007    1    1    2    0  502 -0.10187371704E+03  0.42561777233E+03  0.12986349985E+04  0.14275789301E+04  0.40000000000E+03 0.  1.
<mgrwt>
<rscale>  2 0.59289859E+03</rscale>
<asrwt>0</asrwt>
<pdfrwt beam="1">  1       21 0.23013354E+00 0.59289859E+03</pdfrwt>
<pdfrwt beam="2">  1       21 0.11175838E+00 0.59289859E+03</pdfrwt>
<totfact> 0.39251802E+01</totfact>
</mgrwt>
</event>
<event>
 4    1  0.1147209E-002  0.7064943E+03  0.7818608E-02  0.9706190E-01
         21   -1    0    0  503  502  0.00000000000E+00  0.00000000000E+00  0.95227106983E+03  0.95227106983E+03  0.00000000000E+00 0.  1.
         21   -1    0    0  501  503 -0.00000000000E+00 -0.00000000000E+00 -0.56919880479E+03  0.56919880479E+03  0.00000000000E+00 0. -1.
    9000007    1    1    2  501    0 -0.57593186261E+03 -0.86236619182E+02  0.40554708752E+03  0.81461813450E+03  0.40000000000E+03 0. -1.
   -9000007    1    1    2    0  502  0.57593186261E+03  0.86236619182E+02 -0.22474822486E+02  0.70685174012E+03  0.40000000000E+03 0.  1.
<mgrwt>
<rscale>  2 0.70649435E+03</rscale>
<asrwt>0</asrwt>
<pdfrwt beam="1">  1       21 0.14650324E+00 0.70649435E+03</pdfrwt>
<pdfrwt beam="2">  1       21 0.87569047E-01 0.70649435E+03</pdfrwt>
<totfact> 0.26580377E+02</totfact>
</mgrwt>
</event>
<event>
 4    1  0.1147209E-002  0.5106129E+03  0.7818608E-02  0.1011045E+00
         21   -1    0    0  501  502  0.00000000000E+00  0.00000000000E+00  0.17440586728E+03  0.17440586728E+03  0.00000000000E+00 0. -1.
         21   -1    0    0  502  503 -0.00000000000E+00 -0.00000000000E+00 -0.15849347701E+04  0.15849347701E+04  0.00000000000E+00 0. -1.
    9000007    1    1    2  501    0 -0.24683725697E+03 -0.19949169665E+03 -0.49564426707E+03  0.71161001113E+03  0.40000000000E+03 0. -1.
   -9000007    1    1    2    0  503  0.24683725697E+03  0.19949169665E+03 -0.91488463574E+03  0.10477306262E+04  0.40000000000E+03 0. -1.
<mgrwt>
<rscale>  2 0.51061293E+03</rscale>
<asrwt>0</asrwt>
<pdfrwt beam="1">  1       21 0.26831671E-01 0.51061293E+03</pdfrwt>
<pdfrwt beam="2">  1       21 0.24383612E+00 0.51061293E+03</pdfrwt>
<totfact> 0.76141210E+02</totfact>
</mgrwt>
</event>
<event>
 4    1  0.1147209E-002  0.5188977E+03  0.7818608E-02  0.1008961E+00
         21   -1    0    0  503  502  0.00000000000E+00  0.00000000000E+00  0.10062468997E+04  0.10062468997E+04  0.00000000000E+00 0.  1.
         21   -1    0    0  501  503 -0.00000000000E+00 -0.00000000000E+00 -0.32309345517E+03  0.32309345517E+03  0.00000000000E+00 0.  1.
    9000007    1    1    2  501    0 -0.23093549509E+03  0.23648182925E+03  0.66072434086E+02  0.52308739710E+03  0.40000000000E+03 0.  1.
   -9000007    1    1    2    0  502  0.23093549509E+03 -0.23648182925E+03  0.61708101044E+03  0.80625295776E+03  0.40000000000E+03 0.  1.
<mgrwt>
<rscale>  2 0.51889773E+03</rscale>
<asrwt>0</asrwt>
<pdfrwt beam="1">  1       21 0.15480721E+00 0.51889773E+03</pdfrwt>
<pdfrwt beam="2">  1       21 0.49706686E-01 0.51889773E+03</pdfrwt>
<totfact> 0.86849357E+02</totfact>
</mgrwt>
</event>
<event>
 4    1  0.1147209E-002  0.4268492E+03  0.7818608E-02  0.1034860E+00
         21   -1    0    0  501  502  0.00000000000E+00  0.00000000000E+00  0.43236099337E+03  0.43236099337E+03  0.00000000000E+00 0.  1.
         21   -1    0    0  502  503 -0.00000000000E+00 -0.00000000000E+00 -0.43578839149E+03  0.43578839149E+03  0.00000000000E+00 0.  1.
    9000007    1    1    2  501    0 -0.13997479100E+03  0.51061718439E+02  0.77139059630E+02  0.43376338680E+03  0.40000000000E+03 0.  1.
   -9000007    1    1    2    0  503  0.13997479100E+03 -0.51061718439E+02 -0.80566457753E+02  0.43438599807E+03  0.40000000000E+03 0.  1.
<mgrwt>
<rscale>  2 0.42684920E+03</rscale>
<asrwt>0</asrwt>
<pdfrwt beam="1">  1       21 0.66517077E-01 0.42684920E+03</pdfrwt>
<pdfrwt beam="2">  1       21 0.67044367E-01 0.42684920E+03</pdfrwt>
<totfact> 0.37230028E+03</totfact>
</mgrwt>
</event>
<event>
 4    1  0.1147209E-002  0.5101796E+03  0.7818608E-02  0.1011156E+00
         21   -1    0    0  503  502  0.00000000000E+00  0.00000000000E+00  0.16524561864E+03  0.16524561864E+03  0.00000000000E+00 0.  1.
         21   -1    0    0  501  503 -0.00000000000E+00 -0.00000000000E+00 -0.17799170188E+04  0.17799170188E+04  0.00000000000E+00 0. -1.
    9000007    1    1    2  501    0  0.14859986163E+03 -0.27964494837E+03 -0.11372324197E+04  0.12464272111E+04  0.40000000000E+03 0.  1.
   -9000007    1    1    2    0  502 -0.14859986163E+03  0.27964494837E+03 -0.47743898046E+03  0.69873542639E+03  0.40000000000E+03 0.  1.
<mgrwt>
<rscale>  2 0.51017959E+03</rscale>
<asrwt>0</asrwt>
<pdfrwt beam="1">  1       21 0.25422403E-01 0.51017959E+03</pdfrwt>
<pdfrwt beam="2">  1       21 0.27383339E+00 0.51017959E+03</pdfrwt>
<totfact> 0.55403161E+02</totfact>
</mgrwt>
</event>
<event>
 4    1  0.1147209E-002  0.4580986E+03  0.7818608E-02  0.1025334E+00
         21   -1    0    0  503  502  0.00000000000E+00  0.00000000000E+00  0.16338126767E+04  0.16338126767E+04  0.00000000000E+00 0.  1.
         21   -1    0    0  501  503 -0.00000000000E+00 -0.00000000000E+00 -0.13081273704E+03  0.13081273704E+03  0.00000000000E+00 0.  1.
    9000007    1    1    2  501    0  0.19018402293E+03 -0.11698034484E+03  0.87021449382E+03  0.98342647356E+03  0.40000000000E+03 0.  1.
   -9000007    1    1    2    0  502 -0.19018402293E+03  0.11698034484E+03  0.63278544585E+03  0.78119894018E+03  0.40000000000E+03 0.  1.
<mgrwt>
<rscale>  2 0.45809864E+03</rscale>
<asrwt>0</asrwt>
<pdfrwt beam="1">  1       21 0.25135578E+00 0.45809864E+03</pdfrwt>
<pdfrwt beam="2">  1       21 0.20125038E-01 0.45809864E+03</pdfrwt>
<totfact> 0.12227918E+03</totfact>
</mgrwt>
</event>
<event>
 4    1  0.1147209E-002  0.4034854E+03  0.7818608E-02  0.1042579E+00
         21   -1    0    0  501  502  0.00000000000E+00  0.00000000000E+00  0.13997179198E+04  0.13997179198E+04  0.00000000000E+00 0. -1.
         21   -1    0    0  502  503 -0.00000000000E+00 -0.00000000000E+00 -0.15520515085E+03  0.15520515085E+03  0.00000000000E+00 0. -1.
    9000007    1    1    2  501    0  0.16225497768E+02 -0.50370651270E+02  0.23305313624E+03  0.46595518411E+03  0.40000000000E+03 0.  1.
   -9000007    1    1    2    0  503 -0.16225497768E+02  0.50370651270E+02  0.10114596327E+04  0.10889678865E+04  0.40000000000E+03 0.  1.
<mgrwt>
<rscale>  2 0.40348540E+03</rscale>
<asrwt>0</asrwt>
<pdfrwt beam="1">  1       21 0.21534121E+00 0.40348540E+03</pdfrwt>
<pdfrwt beam="2">  1       21 0.23877716E-01 0.40348540E+03</pdfrwt>
<totfact> 0.15204317E+03</totfact>
</mgrwt>
</event>
<event>
 4    1  0.1147209E-002  0.4093093E+03  0.7818608E-02  0.1040603E+00
         21   -1    0    0  501  502  0.00000000000E+00  0.00000000000E+00  0.21302488533E+03  0.21302488533E+03  0.00000000000E+00 0. -1.
         21   -1    0    0  502  503 -0.00000000000E+00 -0.00000000000E+00 -0.90332739696E+03  0.90332739696E+03  0.00000000000E+00 0. -1.
    9000007    1    1    2  501    0 -0.73227602214E+02 -0.46602531276E+02 -0.14437691129E+03  0.43402623211E+03  0.40000000000E+03 0. -1.
   -9000007    1    1    2    0  503  0.73227602214E+02  0.46602531276E+02 -0.54592560033E+03  0.68232605017E+03  0.40000000000E+03 0. -1.
<mgrwt>
<rscale>  2 0.40930927E+03</rscale>
<asrwt>0</asrwt>
<pdfrwt beam="1">  1       21 0.32773059E-01 0.40930927E+03</pdfrwt>
<pdfrwt beam="2">  1       21 0.13897345E+00 0.40930927E+03</pdfrwt>
<totfact> 0.28680875E+03</totfact>
</mgrwt>
</event>
<event>
 4    1  0.1147209E-002  0.4569208E+03  0.7818608E-02  0.1025678E+00
         21   -1    0    0  503  502  0.00000000000E+00  0.00000000000E+00  0.12733394737E+04  0.12733394737E+04  0.00000000000E+00 0. -1.
         21   -1    0    0  501  503 -0.00000000000E+00 -0.00000000000E+00 -0.17823403395E+03  0.17823403395E+03  0.00000000000E+00 0. -1.
    9000007    1    1    2  501    0  0.15780286364E+03  0.15451510449E+03  0.34215859166E+03  0.57083199204E+03  0.40000000000E+03 0. -1.
   -9000007    1    1    2    0  502 -0.15780286364E+03 -0.15451510449E+03  0.75294684811E+03  0.88074151564E+03  0.40000000000E+03 0. -1.
<mgrwt>
<rscale>  2 0.45692085E+03</rscale>
<asrwt>0</asrwt>
<pdfrwt beam="1">  1       21 0.19589837E+00 0.45692085E+03</pdfrwt>
<pdfrwt beam="2">  1       21 0.27420621E-01 0.45692085E+03</pdfrwt>
<totfact> 0.15201543E+03</totfact>
</mgrwt>
</event>
<event>
 4    1  0.1147209E-002  0.5506121E+03  0.7818608E-02  0.1001352E+00
         21   -1    0    0  503  502  0.00000000000E+00  0.00000000000E+00  0.30003586625E+03  0.30003586625E+03  0.00000000000E+00 0.  1.
         21   -1    0    0  501  503 -0.00000000000E+00 -0.00000000000E+00 -0.10124899311E+04  0.10124899311E+04  0.00000000000E+00 0. -1.
    9000007    1    1    2  501    0 -0.47842327143E+02  0.37534621373E+03 -0.38562567913E+03  0.67222082148E+03  0.40000000000E+03 0.  1.
   -9000007    1    1    2    0  502  0.47842327143E+02 -0.37534621373E+03 -0.32682838573E+03  0.64030497589E+03  0.40000000000E+03 0. -1.
<mgrwt>
<rscale>  2 0.55061209E+03</rscale>
<asrwt>0</asrwt>
<pdfrwt beam="1">  1       21 0.46159364E-01 0.55061209E+03</pdfrwt>
<pdfrwt beam="2">  1       21 0.15576768E+00 0.55061209E+03</pdfrwt>
<totfact> 0.98761017E+02</totfact>
</mgrwt>
</event>
<event>
 4    1  0.1147209E-002  0.4005646E+03  0.7818608E-02  0.1043584E+00
         21   -1    0    0  501  502  0.00000000000E+00  0.00000000000E+00  0.21855301552E+04  0.21855301552E+04  0.00000000000E+00 0. -1.
         21   -1    0    0  502  503 -0.00000000000E+00 -0.00000000000E+00 -0.73495586928E+02  0.73495586928E+02  0.00000000000E+00 0. -1.
    9000007    1    1    2  501    0 -0.15804037469E+02  0.14220720032E+02  0.10187537580E+04  0.10946740227E+04  0.40000000000E+03 0. -1.
   -9000007    1    1    2    0  503  0.15804037469E+02 -0.14220720032E+02  0.10932808102E+04  0.11643517194E+04  0.40000000000E+03 0. -1.
<mgrwt>
<rscale>  2 0.40056460E+03</rscale>
<asrwt>0</asrwt>
<pdfrwt beam="1">  1       21 0.33623536E+00 0.40056460E+03</pdfrwt>
<pdfrwt beam="2">  1       21 0.11307015E-01 0.40056460E+03</pdfrwt>
<totfact> 0.11317357E+03</totfact>
</mgrwt>
</event>
<event>
 4    1  0.1147209E-002  0.4897025E+03  0.7818608E-02  0.1016502E+00
         21   -1    0    0  503  502  0.00000000000E+00  0.00000000000E+00  0.28445692128E+03  0.28445692128E+03  0.00000000000E+00 0.  1.
         21   -1    0    0  501  503 -0.00000000000E+00 -0.00000000000E+00 -0.87627843647E+03  0.87627843647E+03  0.00000000000E+00 0.  1.
    9000007    1    1    2  501    0 -0.12817632638E+03 -0.25175268718E+03 -0.40894288864E+03  0.63799911623E+03  0.40000000000E+03 0.  1.
   -9000007    1    1    2    0  502  0.12817632638E+03  0.25175268718E+03 -0.18287862654E+03  0.52273624151E+03  0.40000000000E+03 0.  1.
<mgrwt>
<rscale>  2 0.48970255E+03</rscale>
<asrwt>0</asrwt>
<pdfrwt beam="1">  1       21 0.43762604E-01 0.48970255E+03</pdfrwt>
<pdfrwt beam="2">  1       21 0.13481207E+00 0.48970255E+03</pdfrwt>
<totfact> 0.16673318E+03</totfact>
</mgrwt>
</event>
<event>
 4    1  0.1147209E-002  0.4698935E+03  0.7818608E-02  0.1021950E+00
         21   -1    0    0  503  502  0.00000000000E+00  0.00000000000E+00  0.55958901037E+03  0.55958901037E+03  0.00000000000E+00 0. -1.
         21   -1    0    0  501  503 -0.00000000000E+00 -0.00000000000E+00 -0.39475975431E+03  0.39475975431E+03  0.00000000000E+00 0. -1.
    9000007    1    1    2  501    0 -0.19410258594E+03 -0.15206594263E+03  0.72093127508E+02  0.47539171618E+03  0.40000000000E+03 0. -1.
   -9000007    1    1    2    0  502  0.19410258594E+03  0.15206594263E+03  0.92736128550E+02  0.47895704851E+03  0.40000000000E+03 0. -1.
<mgrwt>
<rscale>  2 0.46989346E+03</rscale>
<asrwt>0</asrwt>
<pdfrwt beam="1">  1       21 0.86090616E-01 0.46989346E+03</pdfrwt>
<pdfrwt beam="2">  1       21 0.60732270E-01 0.46989346E+03</pdfrwt>
<totfact> 0.25310049E+03</totfact>
</mgrwt>
</event>
<event>
 4    1  0.1147209E-002  0.4280233E+03  0.7818608E-02  0.1034486E+00
         21   -1    0    0  503  502  0.00000000000E+00  0.00000000000E+00  0.20575397211E+03  0.20575397211E+03  0.00000000000E+00 0. -1.
         21   -1    0    0  501  503 -0.00000000000E+00 -0.00000000000E+00 -0.92191530499E+03  0.92191530499E+03  0.00000000000E+00 0. -1.
    9000007    1    1    2  501    0 -0.10871467725E+03 -0.10670097509E+03 -0.25383800637E+03  0.49763210569E+03  0.40000000000E+03 0. -1.
   -9000007    1    1    2    0  502  0.10871467725E+03  0.10670097509E+03 -0.46232332651E+03  0.63003717142E+03  0.40000000000E+03 0. -1.
<mgrwt>
<rscale>  2 0.42802334E+03</rscale>
<asrwt>0</asrwt>
<pdfrwt beam="1">  1       21 0.31654458E-01 0.42802334E+03</pdfrwt>
<pdfrwt beam="2">  1       21 0.14183312E+00 0.42802334E+03</pdfrwt>
<totfact> 0.28906420E+03</totfact>
</mgrwt>
</event>
<event>
 4    1  0.1147209E-002  0.6798473E+03  0.7818608E-02  0.9752331E-01
         21   -1    0    0  503  502  0.00000000000E+00  0.00000000000E+00  0.10759144640E+04  0.10759144640E+04  0.00000000000E+00 0.  1.
         21   -1    0    0  501  503 -0.00000000000E+00 -0.00000000000E+00 -0.42958380699E+03  0.42958380699E+03  0.00000000000E+00 0.  1.
    9000007    1    1    2  501    0 -0.54006352774E+03 -0.10258508437E+03  0.32121022353E+03  0.75190978264E+03  0.40000000000E+03 0.  1.
   -9000007    1    1    2    0  502  0.54006352774E+03  0.10258508437E+03  0.32512043351E+03  0.75358848838E+03  0.40000000000E+03 0.  1.
<mgrwt>
<rscale>  2 0.67984727E+03</rscale>
<asrwt>0</asrwt>
<pdfrwt beam="1">  1       21 0.16552530E+00 0.67984727E+03</pdfrwt>
<pdfrwt beam="2">  1       21 0.66089817E-01 0.67984727E+03</pdfrwt>
<totfact> 0.36510865E+02</totfact>
</mgrwt>
</event>
<event>
 4    1  0.1147209E-002  0.4315479E+03  0.7818608E-02  0.1033372E+00
         21   -1    0    0  503  502  0.00000000000E+00  0.00000000000E+00  0.38645940187E+03  0.38645940187E+03  0.00000000000E+00 0. -1.
         21   -1    0    0  501  503 -0.00000000000E+00 -0.00000000000E+00 -0.49447170319E+03  0.49447170319E+03  0.00000000000E+00 0. -1.
    9000007    1    1    2  501    0  0.96672081535E+02 -0.12995421404E+03 -0.12424732522E+03  0.44907792967E+03  0.40000000000E+03 0. -1.
   -9000007    1    1    2    0  502 -0.96672081535E+02  0.12995421404E+03  0.16235023898E+02  0.43185317539E+03  0.40000000000E+03 0. -1.
<mgrwt>
<rscale>  2 0.43154790E+03</rscale>
<asrwt>0</asrwt>
<pdfrwt beam="1">  1       21 0.59455293E-01 0.43154790E+03</pdfrwt>
<pdfrwt beam="2">  1       21 0.76072570E-01 0.43154790E+03</pdfrwt>
<totfact> 0.35798178E+03</totfact>
</mgrwt>
</event>
<event>
 4    1  0.1147209E-002  0.4483235E+03  0.7818608E-02  0.1028223E+00
         21   -1    0    0  503  502  0.00000000000E+00  0.00000000000E+00  0.21341844198E+03  0.21341844198E+03  0.00000000000E+00 0. -1.
         21   -1    0    0  501  503 -0.00000000000E+00 -0.00000000000E+00 -0.10676232154E+04  0.10676232154E+04  0.00000000000E+00 0.  1.
    9000007    1    1    2  501    0  0.17536009243E+02  0.20170878037E+03 -0.64700647653E+03  0.78715393944E+03  0.40000000000E+03 0.  1.
   -9000007    1    1    2    0  502 -0.17536009243E+02 -0.20170878037E+03 -0.20719829688E+03  0.49388771794E+03  0.40000000000E+03 0. -1.
<mgrwt>
<rscale>  2 0.44832348E+03</rscale>
<asrwt>0</asrwt>
<pdfrwt beam="1">  1       21 0.32833606E-01 0.44832348E+03</pdfrwt>
<pdfrwt beam="2">  1       21 0.16424973E+00 0.44832348E+03</pdfrwt>
<totfact> 0.17839447E+03</totfact>
</mgrwt>
</event>
<event>
 4    1  0.1147209E-002  0.6264554E+03  0.7818608E-02  0.9851990E-01
         21   -1    0    0  501  502  0.00000000000E+00  0.00000000000E+00  0.62801012331E+03  0.62801012331E+03  0.00000000000E+00 0.  1.
         21   -1    0    0  502  503 -0.00000000000E+00 -0.00000000000E+00 -0.63787860823E+03  0.63787860823E+03  0.00000000000E+00 0. -1.
    9000007    1    1    2  501    0  0.64601485359E+02 -0.47777920937E+03  0.85334211627E+02  0.63224066026E+03  0.40000000000E+03 0.  1.
   -9000007    1    1    2    0  503 -0.64601485359E+02  0.47777920937E+03 -0.95202696549E+02  0.63364807128E+03  0.40000000000E+03 0. -1.
<mgrwt>
<rscale>  2 0.62645537E+03</rscale>
<asrwt>0</asrwt>
<pdfrwt beam="1">  1       21 0.96616942E-01 0.62645537E+03</pdfrwt>
<pdfrwt beam="2">  1       21 0.98135170E-01 0.62645537E+03</pdfrwt>
<totfact> 0.60319675E+02</totfact>
</mgrwt>
</event>
<event>
 4    1  0.1147209E-002  0.4057745E+03  0.7818608E-02  0.1041798E+00
         21   -1    0    0  501  502  0.00000000000E+00  0.00000000000E+00  0.61139458352E+03  0.61139458352E+03  0.00000000000E+00 0. -1.
         21   -1    0    0  502  503 -0.00000000000E+00 -0.00000000000E+00 -0.27081920561E+03  0.27081920561E+03  0.00000000000E+00 0. -1.
    9000007    1    1    2  501    0  0.63649564018E+02 -0.24529586988E+02  0.20324712850E+03  0.45383076458E+03  0.40000000000E+03 0.  1.
   -9000007    1    1    2    0  503 -0.63649564018E+02  0.24529586988E+02  0.13732824940E+03  0.42838302455E+03  0.40000000000E+03 0.  1.
<mgrwt>
<rscale>  2 0.40577453E+03</rscale>
<asrwt>0</asrwt>
<pdfrwt beam="1">  1       21 0.94060705E-01 0.40577453E+03</pdfrwt>
<pdfrwt beam="2">  1       21 0.41664493E-01 0.40577453E+03</pdfrwt>
<totfact> 0.46858465E+03</totfact>
</mgrwt>
</event>
<event>
 4    1  0.1147209E-002  0.4042628E+03  0.7818608E-02  0.1042314E+00
         21   -1    0    0  503  502  0.00000000000E+00  0.00000000000E+00  0.60102011132E+03  0.60102011132E+03  0.00000000000E+00 0.  1.
         21   -1    0    0  501  503 -0.00000000000E+00 -0.00000000000E+00 -0.29517926075E+03  0.29517926075E+03  0.00000000000E+00 0.  1.
    9000007    1    1    2  501    0 -0.65264220574E+01 -0.58187980628E+02  0.27130898874E+02  0.40517221147E+03  0.40000000000E+03 0.  1.
   -9000007    1    1    2    0  502  0.65264220574E+01  0.58187980628E+02  0.27870995169E+03  0.49102716060E+03  0.40000000000E+03 0.  1.
<mgrwt>
<rscale>  2 0.40426283E+03</rscale>
<asrwt>0</asrwt>
<pdfrwt beam="1">  1       21 0.92464632E-01 0.40426283E+03</pdfrwt>
<pdfrwt beam="2">  1       21 0.45412194E-01 0.40426283E+03</pdfrwt>
<totfact> 0.40824894E+03</totfact>
</mgrwt>
</event>
<event>
 4    1  0.1147209E-002  0.4073227E+03  0.7818608E-02  0.1041273E+00
         21   -1    0    0  503  502  0.00000000000E+00  0.00000000000E+00  0.14747343410E+04  0.14747343410E+04  0.00000000000E+00 0. -1.
         21   -1    0    0  501  503 -0.00000000000E+00 -0.00000000000E+00 -0.12722792578E+03  0.12722792578E+03  0.00000000000E+00 0. -1.
    9000007    1    1    2  501    0 -0.75801324438E+02  0.12881899298E+02  0.40125719299E+03  0.57176841382E+03  0.40000000000E+03 0. -1.
   -9000007    1    1    2    0  502  0.75801324438E+02 -0.12881899298E+02  0.94624922224E+03  0.10301938530E+04  0.40000000000E+03 0. -1.
<mgrwt>
<rscale>  2 0.40732270E+03</rscale>
<asrwt>0</asrwt>
<pdfrwt beam="1">  1       21 0.22688219E+00 0.40732270E+03</pdfrwt>
<pdfrwt beam="2">  1       21 0.19573528E-01 0.40732270E+03</pdfrwt>
<totfact> 0.18749273E+03</totfact>
</mgrwt>
</event>
<event>
 4    1  0.1147209E-002  0.4763491E+03  0.7818608E-02  0.1020143E+00
         21   -1    0    0  503  502  0.00000000000E+00  0.00000000000E+00  0.62774444073E+03  0.62774444073E+03  0.00000000000E+00 0. -1.
         21   -1    0    0  501  503 -0.00000000000E+00 -0.00000000000E+00 -0.37692056055E+03  0.37692056055E+03  0.00000000000E+00 0.  1.
    9000007    1    1    2  501    0  0.25221697680E+03 -0.57402340166E+02  0.23695509456E+02  0.47693805595E+03  0.40000000000E+03 0.  1.
   -9000007    1    1    2    0  502 -0.25221697680E+03  0.57402340166E+02  0.22712837073E+03  0.52772694533E+03  0.40000000000E+03 0. -1.
<mgrwt>
<rscale>  2 0.47634907E+03</rscale>
<asrwt>0</asrwt>
<pdfrwt beam="1">  1       21 0.96576067E-01 0.47634907E+03</pdfrwt>
<pdfrwt beam="2">  1       21 0.57987779E-01 0.47634907E+03</pdfrwt>
<totfact> 0.21260481E+03</totfact>
</mgrwt>
</event>
<event>
 4    1  0.1147209E-002  0.4225884E+03  0.7818608E-02  0.1036227E+00
         21   -1    0    0  503  502  0.00000000000E+00  0.00000000000E+00  0.14773886686E+03  0.14773886686E+03  0.00000000000E+00 0. -1.
         21   -1    0    0  501  503 -0.00000000000E+00 -0.00000000000E+00 -0.12160096063E+04  0.12160096063E+04  0.00000000000E+00 0. -1.
    9000007    1    1    2  501    0  0.10806852817E+03  0.83079387418E+02 -0.58678081602E+03  0.72311321206E+03  0.40000000000E+03 0. -1.
   -9000007    1    1    2    0  502 -0.10806852817E+03 -0.83079387418E+02 -0.48148992338E+03  0.64063526106E+03  0.40000000000E+03 0. -1.
<mgrwt>
<rscale>  2 0.42258844E+03</rscale>
<asrwt>0</asrwt>
<pdfrwt beam="1">  1       21 0.22729056E-01 0.42258844E+03</pdfrwt>
<pdfrwt beam="2">  1       21 0.18707840E+00 0.42258844E+03</pdfrwt>
<totfact> 0.25519478E+03</totfact>
</mgrwt>
</event>
<event>
 4    1  0.1147209E-002  0.6436277E+03  0.7818608E-02  0.9818810E-01
         21   -1    0    0  503  502  0.00000000000E+00  0.00000000000E+00  0.78252163712E+03  0.78252163712E+03  0.00000000000E+00 0.  1.
         21   -1    0    0  501  503 -0.00000000000E+00 -0.00000000000E+00 -0.52980555183E+03  0.52980555183E+03  0.00000000000E+00 0.  1.
    9000007    1    1    2  501    0  0.50382251921E+03  0.20481060844E+02  0.14480590090E+03  0.65971611595E+03  0.40000000000E+03 0.  1.
   -9000007    1    1    2    0  502 -0.50382251921E+03 -0.20481060844E+02  0.10791018439E+03  0.65261107300E+03  0.40000000000E+03 0.  1.
<mgrwt>
<rscale>  2 0.64362769E+03</rscale>
<asrwt>0</asrwt>
<pdfrwt beam="1">  1       21 0.12038794E+00 0.64362769E+03</pdfrwt>
<pdfrwt beam="2">  1       21 0.81508547E-01 0.64362769E+03</pdfrwt>
<totfact> 0.53977806E+02</totfact>
</mgrwt>
</event>
<event>
 4    1  0.1147209E-002  0.4054103E+03  0.7818608E-02  0.1041922E+00
         21   -1    0    0  501  502  0.00000000000E+00  0.00000000000E+00  0.23785954803E+03  0.23785954803E+03  0.00000000000E+00 0. -1.
         21   -1    0    0  502  503 -0.00000000000E+00 -0.00000000000E+00 -0.69686980493E+03  0.69686980493E+03  0.00000000000E+00 0. -1.
    9000007    1    1    2  501    0  0.54904821490E+02  0.36646516673E+02 -0.18655876221E+03  0.44627533919E+03  0.40000000000E+03 0.  1.
   -9000007    1    1    2    0  503 -0.54904821490E+02 -0.36646516673E+02 -0.27245149469E+03  0.48845401377E+03  0.40000000000E+03 0.  1.
<mgrwt>
<rscale>  2 0.40541029E+03</rscale>
<asrwt>0</asrwt>
<pdfrwt beam="1">  1       21 0.36593778E-01 0.40541029E+03</pdfrwt>
<pdfrwt beam="2">  1       21 0.10721074E+00 0.40541029E+03</pdfrwt>
<totfact> 0.44508230E+03</totfact>
</mgrwt>
</event>
<event>
 4    1  0.1147209E-002  0.8463350E+03  0.7818608E-02  0.9495269E-01
         21   -1    0    0  501  502  0.00000000000E+00  0.00000000000E+00  0.13033132229E+04  0.13033132229E+04  0.00000000000E+00 0.  1.
         21   -1    0    0  502  503 -0.00000000000E+00 -0.00000000000E+00 -0.61767159555E+03  0.61767159555E+03  0.00000000000E+00 0. -1.
    9000007    1    1    2  501    0  0.46746237871E+03 -0.58117278885E+03  0.66171183333E+03  0.10743116105E+04  0.40000000000E+03 0.  1.
   -9000007    1    1    2    0  503 -0.46746237871E+03  0.58117278885E+03  0.23929793981E+02  0.84667320795E+03  0.40000000000E+03 0. -1.
<mgrwt>
<rscale>  2 0.84633497E+03</rscale>
<asrwt>0</asrwt>
<pdfrwt beam="1">  1       21 0.20050973E+00 0.84633497E+03</pdfrwt>
<pdfrwt beam="2">  1       21 0.95026399E-01 0.84633497E+03</pdfrwt>
<totfact> 0.83664648E+01</totfact>
</mgrwt>
</event>
<event>
 4    1  0.1147209E-002  0.4033094E+03  0.7818608E-02  0.1042640E+00
         21   -1    0    0  503  502  0.00000000000E+00  0.00000000000E+00  0.35794657798E+03  0.35794657798E+03  0.00000000000E+00 0. -1.
         21   -1    0    0  501  503 -0.00000000000E+00 -0.00000000000E+00 -0.67019562891E+03  0.67019562891E+03  0.00000000000E+00 0. -1.
    9000007    1    1    2  501    0  0.44866104351E+02 -0.25406935549E+02 -0.44781515637E+03  0.60265818999E+03  0.40000000000E+03 0. -1.
   -9000007    1    1    2    0  502 -0.44866104351E+02  0.25406935549E+02  0.13556610543E+03  0.42548401690E+03  0.40000000000E+03 0. -1.
<mgrwt>
<rscale>  2 0.40330941E+03</rscale>
<asrwt>0</asrwt>
<pdfrwt beam="1">  1       21 0.55068705E-01 0.40330941E+03</pdfrwt>
<pdfrwt beam="2">  1       21 0.10310702E+00 0.40330941E+03</pdfrwt>
<totfact> 0.20865266E+03</totfact>
</mgrwt>
</event>
<event>
 4    1  0.1147209E-002  0.5236412E+03  0.7818608E-02  0.1007786E+00
         21   -1    0    0  503  502  0.00000000000E+00  0.00000000000E+00  0.45493299966E+03  0.45493299966E+03  0.00000000000E+00 0.  1.
         21   -1    0    0  501  503 -0.00000000000E+00 -0.00000000000E+00 -0.87676046112E+03  0.87676046112E+03  0.00000000000E+00 0.  1.
    9000007    1    1    2  501    0  0.16812108759E+03 -0.29314736627E+03 -0.58316497239E+03  0.78376110101E+03  0.40000000000E+03 0.  1.
   -9000007    1    1    2    0  502 -0.16812108759E+03  0.29314736627E+03  0.16133751092E+03  0.54793235976E+03  0.40000000000E+03 0.  1.
<mgrwt>
<rscale>  2 0.52364117E+03</rscale>
<asrwt>0</asrwt>
<pdfrwt beam="1">  1       21 0.69989692E-01 0.52364117E+03</pdfrwt>
<pdfrwt beam="2">  1       21 0.13488622E+00 0.52364117E+03</pdfrwt>
<totfact> 0.59351416E+02</totfact>
</mgrwt>
</event>
<event>
 4    1  0.1147209E-002  0.4672622E+03  0.7818608E-02  0.1022696E+00
         21   -1    0    0  503  502  0.00000000000E+00  0.00000000000E+00  0.24019636037E+03  0.24019636037E+03  0.00000000000E+00 0.  1.
         21   -1    0    0  501  503 -0.00000000000E+00 -0.00000000000E+00 -0.92311157849E+03  0.92311157849E+03  0.00000000000E+00 0.  1.
    9000007    1    1    2  501    0  0.14297512900E+03 -0.19465878037E+03 -0.26949323706E+03  0.53940757606E+03  0.40000000000E+03 0.  1.
   -9000007    1    1    2    0  502 -0.14297512900E+03  0.19465878037E+03 -0.41342198106E+03  0.62390036281E+03  0.40000000000E+03 0.  1.
<mgrwt>
<rscale>  2 0.46726216E+03</rscale>
<asrwt>0</asrwt>
<pdfrwt beam="1">  1       21 0.36953286E-01 0.46726216E+03</pdfrwt>
<pdfrwt beam="2">  1       21 0.14201717E+00 0.46726216E+03</pdfrwt>
<totfact> 0.20762843E+03</totfact>
</mgrwt>
</event>
<event>
 4    1  0.1147209E-002  0.4630388E+03  0.7818608E-02  0.1023904E+00
         21   -1    0    0  501  502  0.00000000000E+00  0.00000000000E+00  0.22047172899E+03  0.22047172899E+03  0.00000000000E+00 0.  1.
         21   -1    0    0  502  503 -0.00000000000E+00 -0.00000000000E+00 -0.10869517007E+04  0.10869517007E+04  0.00000000000E+00 0.  1.
    9000007    1    1    2  501    0  0.80342643576E+02  0.21897482912E+03 -0.22109864227E+03  0.51311745807E+03  0.40000000000E+03 0.  1.
   -9000007    1    1    2    0  503 -0.80342643576E+02 -0.21897482912E+03 -0.64538132945E+03  0.79430597163E+03  0.40000000000E+03 0.  1.
<mgrwt>
<rscale>  2 0.46303878E+03</rscale>
<asrwt>0</asrwt>
<pdfrwt beam="1">  1       21 0.33918728E-01 0.46303878E+03</pdfrwt>
<pdfrwt beam="2">  1       21 0.16722334E+00 0.46303878E+03</pdfrwt>
<totfact> 0.15789149E+03</totfact>
</mgrwt>
</event>
<event>
 4    1  0.1147209E-002  0.4258780E+03  0.7818608E-02  0.1035170E+00
         21   -1    0    0  503  502  0.00000000000E+00  0.00000000000E+00  0.82054336167E+03  0.82054336167E+03  0.00000000000E+00 0.  1.
         21   -1    0    0  501  503 -0.00000000000E+00 -0.00000000000E+00 -0.63210059317E+03  0.63210059317E+03  0.00000000000E+00 0.  1.
    9000007    1    1    2  501    0  0.60717203504E+02 -0.13298676424E+03 -0.49149794146E+03  0.65034013003E+03  0.40000000000E+03 0.  1.
   -9000007    1    1    2    0  502 -0.60717203504E+02  0.13298676424E+03  0.67994070996E+03  0.80230382482E+03  0.40000000000E+03 0.  1.
<mgrwt>
<rscale>  2 0.42587799E+03</rscale>
<asrwt>0</asrwt>
<pdfrwt beam="1">  1       21 0.12623744E+00 0.42587799E+03</pdfrwt>
<pdfrwt beam="2">  1       21 0.97246245E-01 0.42587799E+03</pdfrwt>
<totfact> 0.34207126E+02</totfact>
</mgrwt>
</event>
<event>
 4    1  0.1147209E-002  0.4282993E+03  0.7818608E-02  0.1034399E+00
         21   -1    0    0  501  502  0.00000000000E+00  0.00000000000E+00  0.30483020124E+03  0.30483020124E+03  0.00000000000E+00 0.  1.
         21   -1    0    0  502  503 -0.00000000000E+00 -0.00000000000E+00 -0.67384364203E+03  0.67384364203E+03  0.00000000000E+00 0.  1.
    9000007    1    1    2  501    0 -0.15068673410E+03  0.27088759458E+02 -0.24480653799E+02  0.42899836262E+03  0.40000000000E+03 0.  1.
   -9000007    1    1    2    0  503  0.15068673410E+03 -0.27088759458E+02 -0.34453278699E+03  0.54967548065E+03  0.40000000000E+03 0.  1.
<mgrwt>
<rscale>  2 0.42829930E+03</rscale>
<asrwt>0</asrwt>
<pdfrwt beam="1">  1       21 0.46896955E-01 0.42829930E+03</pdfrwt>
<pdfrwt beam="2">  1       21 0.10366825E+00 0.42829930E+03</pdfrwt>
<totfact> 0.28696360E+03</totfact>
</mgrwt>
</event>
<event>
 4    1  0.1147209E-002  0.4465821E+03  0.7818608E-02  0.1028746E+00
         21   -1    0    0  503  502  0.00000000000E+00  0.00000000000E+00  0.53940123212E+03  0.53940123212E+03  0.00000000000E+00 0.  1.
         21   -1    0    0  501  503 -0.00000000000E+00 -0.00000000000E+00 -0.41832798435E+03  0.41832798435E+03  0.00000000000E+00 0. -1.
    9000007    1    1    2  501    0  0.17118395704E+03 -0.10065613444E+03 -0.10267095494E+03  0.45823239686E+03  0.40000000000E+03 0. -1.
   -9000007    1    1    2    0  502 -0.17118395704E+03  0.10065613444E+03  0.22374420271E+03  0.49949681960E+03  0.40000000000E+03 0.  1.
<mgrwt>
<rscale>  2 0.44658214E+03</rscale>
<asrwt>0</asrwt>
<pdfrwt beam="1">  1       21 0.82984805E-01 0.44658214E+03</pdfrwt>
<pdfrwt beam="2">  1       21 0.64358151E-01 0.44658214E+03</pdfrwt>
<totfact> 0.24469175E+03</totfact>
</mgrwt>
</event>
<event>
 4    1  0.1147209E-002  0.4007879E+03  0.7818608E-02  0.1043507E+00
         21   -1    0    0  503  502  0.00000000000E+00  0.00000000000E+00  0.14899843244E+03  0.14899843244E+03  0.00000000000E+00 0.  1.
         21   -1    0    0  501  503 -0.00000000000E+00 -0.00000000000E+00 -0.11071872521E+04  0.11071872521E+04  0.00000000000E+00 0.  1.
    9000007    1    1    2  501    0 -0.10555729179E+00  0.25118097475E+02 -0.37724019762E+03  0.55040085089E+03  0.40000000000E+03 0.  1.
   -9000007    1    1    2    0  502  0.10555729179E+00 -0.25118097475E+02 -0.58094862208E+03  0.70578483369E+03  0.40000000000E+03 0.  1.
<mgrwt>
<rscale>  2 0.40078789E+03</rscale>
<asrwt>0</asrwt>
<pdfrwt beam="1">  1       21 0.22922835E-01 0.40078789E+03</pdfrwt>
<pdfrwt beam="2">  1       21 0.17033650E+00 0.40078789E+03</pdfrwt>
<totfact> 0.33267517E+03</totfact>
</mgrwt>
</event>
<event>
 4    1  0.1147209E-002  0.5863397E+03  0.7818608E-02  0.9934159E-01
         21   -1    0    0  503  502  0.00000000000E+00  0.00000000000E+00  0.40463787509E+03  0.40463787509E+03  0.00000000000E+00 0.  1.
         21   -1    0    0  501  503 -0.00000000000E+00 -0.00000000000E+00 -0.11374552716E+04  0.11374552716E+04  0.00000000000E+00 0. -1.
    9000007    1    1    2  501    0 -0.42589241197E+03  0.49090884868E+02 -0.75426833226E+03  0.95536117704E+03  0.40000000000E+03 0. -1.
   -9000007    1    1    2    0  502  0.42589241197E+03 -0.49090884868E+02  0.21450935757E+02  0.58673196964E+03  0.40000000000E+03 0.  1.
<mgrwt>
<rscale>  2 0.58633972E+03</rscale>
<asrwt>0</asrwt>
<pdfrwt beam="1">  1       21 0.62251981E-01 0.58633972E+03</pdfrwt>
<pdfrwt beam="2">  1       21 0.17499312E+00 0.58633972E+03</pdfrwt>
<totfact> 0.36679438E+02</totfact>
</mgrwt>
</event>
<event>
 4    1  0.1147209E-002  0.6423662E+03  0.7818608E-02  0.9821210E-01
         21   -1    0    0  501  502  0.00000000000E+00  0.00000000000E+00  0.93216975532E+03  0.93216975532E+03  0.00000000000E+00 0. -1.
         21   -1    0    0  502  503 -0.00000000000E+00 -0.00000000000E+00 -0.51570799884E+03  0.51570799884E+03  0.00000000000E+00 0. -1.
    9000007    1    1    2  501    0  0.21406599118E+03 -0.45476376837E+03  0.48069160152E+03  0.80230838795E+03  0.40000000000E+03 0. -1.
   -9000007    1    1    2    0  503 -0.21406599118E+03  0.45476376837E+03 -0.64229845039E+02  0.64556936621E+03  0.40000000000E+03 0. -1.
<mgrwt>
<rscale>  2 0.64236620E+03</rscale>
<asrwt>0</asrwt>
<pdfrwt beam="1">  1       21 0.14341073E+00 0.64236620E+03</pdfrwt>
<pdfrwt beam="2">  1       21 0.79339692E-01 0.64236620E+03</pdfrwt>
<totfact> 0.36256003E+02</totfact>
</mgrwt>
</event>
<event>
 4    1  0.1147209E-002  0.5047056E+03  0.7818608E-02  0.1012558E+00
         21   -1    0    0  501  502  0.00000000000E+00  0.00000000000E+00  0.25843772258E+03  0.25843772258E+03  0.00000000000E+00 0. -1.
         21   -1    0    0  502  503 -0.00000000000E+00 -0.00000000000E+00 -0.10789406044E+04  0.10789406044E+04  0.00000000000E+00 0.  1.
    9000007    1    1    2  501    0  0.26231557665E+03  0.16099150511E+03 -0.21361807567E+03  0.54805146540E+03  0.40000000000E+03 0.  1.
   -9000007    1    1    2    0  503 -0.26231557665E+03 -0.16099150511E+03 -0.60688480611E+03  0.78932686155E+03  0.40000000000E+03 0. -1.
<mgrwt>
<rscale>  2 0.50470558E+03</rscale>
<asrwt>0</asrwt>
<pdfrwt beam="1">  1       21 0.39759650E-01 0.50470558E+03</pdfrwt>
<pdfrwt beam="2">  1       21 0.16599086E+00 0.50470558E+03</pdfrwt>
<totfact> 0.11471128E+03</totfact>
</mgrwt>
</event>
<event>
 4    1  0.1147209E-002  0.4784960E+03  0.7818608E-02  0.1019549E+00
         21   -1    0    0  501  502  0.00000000000E+00  0.00000000000E+00  0.22381626283E+03  0.22381626283E+03  0.00000000000E+00 0.  1.
         21   -1    0    0  502  503 -0.00000000000E+00 -0.00000000000E+00 -0.11119611432E+04  0.11119611432E+04  0.00000000000E+00 0.  1.
    9000007    1    1    2  501    0 -0.17947576702E+03 -0.19169462776E+03 -0.25513364550E+03  0.54226521032E+03  0.40000000000E+03 0.  1.
   -9000007    1    1    2    0  503  0.17947576702E+03  0.19169462776E+03 -0.63301123486E+03  0.79351219570E+03  0.40000000000E+03 0.  1.
<mgrwt>
<rscale>  2 0.47849596E+03</rscale>
<asrwt>0</asrwt>
<pdfrwt beam="1">  1       21 0.34433271E-01 0.47849596E+03</pdfrwt>
<pdfrwt beam="2">  1       21 0.17107094E+00 0.47849596E+03</pdfrwt>
<totfact> 0.14266663E+03</totfact>
</mgrwt>
</event>
<event>
 4    1  0.1147209E-002  0.4593789E+03  0.7818608E-02  0.1024962E+00
         21   -1    0    0  503  502  0.00000000000E+00  0.00000000000E+00  0.25908141207E+03  0.25908141207E+03  0.00000000000E+00 0.  1.
         21   -1    0    0  501  503 -0.00000000000E+00 -0.00000000000E+00 -0.97821367391E+03  0.97821367391E+03  0.00000000000E+00 0.  1.
    9000007    1    1    2  501    0 -0.16293736537E+03  0.15646202932E+03 -0.10650098171E+03  0.47156273258E+03  0.40000000000E+03 0.  1.
   -9000007    1    1    2    0  502  0.16293736537E+03 -0.15646202932E+03 -0.61263128012E+03  0.76573235340E+03  0.40000000000E+03 0.  1.
<mgrwt>
<rscale>  2 0.45937888E+03</rscale>
<asrwt>0</asrwt>
<pdfrwt beam="1">  1       21 0.39858679E-01 0.45937888E+03</pdfrwt>
<pdfrwt beam="2">  1       21 0.15049441E+00 0.45937888E+03</pdfrwt>
<totfact> 0.15252436E+03</totfact>
</mgrwt>
</event>
<event>
 4    1  0.1147209E-002  0.4595535E+03  0.7818608E-02  0.1024911E+00
         21   -1    0    0  501  502  0.00000000000E+00  0.00000000000E+00  0.23528610828E+03  0.23528610828E+03  0.00000000000E+00 0. -1.
         21   -1    0    0  502  503 -0.00000000000E+00 -0.00000000000E+00 -0.96840371782E+03  0.96840371782E+03  0.00000000000E+00 0.  1.
    9000007    1    1    2  501    0  0.87399346816E+02 -0.20868817308E+03 -0.20380585696E+03  0.50271883468E+03  0.40000000000E+03 0. -1.
   -9000007    1    1    2    0  503 -0.87399346816E+02  0.20868817308E+03 -0.52931175258E+03  0.70097099143E+03  0.40000000000E+03 0.  1.
<mgrwt>
<rscale>  2 0.45955348E+03</rscale>
<asrwt>0</asrwt>
<pdfrwt beam="1">  1       21 0.36197863E-01 0.45955348E+03</pdfrwt>
<pdfrwt beam="2">  1       21 0.14898519E+00 0.45955348E+03</pdfrwt>
<totfact> 0.19089702E+03</totfact>
</mgrwt>
</event>
<event>
 4    1  0.1147209E-002  0.6816965E+03  0.7818608E-02  0.9749056E-01
         21   -1    0    0  503  502  0.00000000000E+00  0.00000000000E+00  0.20105168958E+04  0.20105168958E+04  0.00000000000E+00 0.  1.
         21   -1    0    0  501  503 -0.00000000000E+00 -0.00000000000E+00 -0.23131866376E+03  0.23131866376E+03  0.00000000000E+00 0. -1.
    9000007    1    1    2  501    0  0.25054888423E+03  0.49186921394E+03  0.85841203411E+03  0.10961666330E+04  0.40000000000E+03 0. -1.
   -9000007    1    1    2    0  502 -0.25054888423E+03 -0.49186921394E+03  0.92078619797E+03  0.11456689266E+04  0.40000000000E+03 0.  1.
<mgrwt>
<rscale>  2 0.68169646E+03</rscale>
<asrwt>0</asrwt>
<pdfrwt beam="1">  1       21 0.30931028E+00 0.68169646E+03</pdfrwt>
<pdfrwt beam="2">  1       21 0.35587488E-01 0.68169646E+03</pdfrwt>
<totfact> 0.15967205E+02</totfact>
</mgrwt>
</event>
<event>
 4    1  0.1147209E-002  0.4878239E+03  0.7818608E-02  0.1017007E+00
         21   -1    0    0  501  502  0.00000000000E+00  0.00000000000E+00  0.39570967877E+03  0.39570967877E+03  0.00000000000E+00 0.  1.
         21   -1    0    0  502  503 -0.00000000000E+00 -0.00000000000E+00 -0.60147115751E+03  0.60147115751E+03  0.00000000000E+00 0. -1.
    9000007    1    1    2  501    0 -0.27484838989E+03 -0.49299853706E+02 -0.10899953097E+03  0.49985298914E+03  0.40000000000E+03 0. -1.
   -9000007    1    1    2    0  503  0.27484838989E+03  0.49299853706E+02 -0.96761947778E+02  0.49732784714E+03  0.40000000000E+03 0. -1.
<mgrwt>
<rscale>  2 0.48782385E+03</rscale>
<asrwt>0</asrwt>
<pdfrwt beam="1">  1       21 0.60878412E-01 0.48782385E+03</pdfrwt>
<pdfrwt beam="2">  1       21 0.92534025E-01 0.48782385E+03</pdfrwt>
<totfact> 0.21089180E+03</totfact>
</mgrwt>
</event>
<event>
 4    1  0.1147209E-002  0.7024254E+03  0.7818608E-02  0.9713093E-01
         21   -1    0    0  503  502  0.00000000000E+00  0.00000000000E+00  0.35948427083E+03  0.35948427083E+03  0.00000000000E+00 0.  1.
         21   -1    0    0  501  503 -0.00000000000E+00 -0.00000000000E+00 -0.22400533016E+04  0.22400533016E+04  0.00000000000E+00 0.  1.
    9000007    1    1    2  501    0 -0.98247767615E+02 -0.56898935349E+03 -0.17491540953E+04  0.18849248147E+04  0.40000000000E+03 0.  1.
   -9000007    1    1    2    0  502  0.98247767615E+02  0.56898935349E+03 -0.13141493554E+03  0.71461275773E+03  0.40000000000E+03 0.  1.
<mgrwt>
<rscale>  2 0.70242545E+03</rscale>
<asrwt>0</asrwt>
<pdfrwt beam="1">  1       21 0.55305273E-01 0.70242545E+03</pdfrwt>
<pdfrwt beam="2">  1       21 0.34462358E+00 0.70242545E+03</pdfrwt>
<totfact> 0.37808258E+01</totfact>
</mgrwt>
</event>
<event>
 4    1  0.1147209E-002  0.4431674E+03  0.7818608E-02  0.1029779E+00
         21   -1    0    0  503  502  0.00000000000E+00  0.00000000000E+00  0.23104203788E+03  0.23104203788E+03  0.00000000000E+00 0.  1.
         21   -1    0    0  501  503 -0.00000000000E+00 -0.00000000000E+00 -0.91258370472E+03  0.91258370472E+03  0.00000000000E+00 0.  1.
    9000007    1    1    2  501    0  0.31103201945E+02  0.18822832518E+03 -0.49045444096E+03  0.66101654308E+03  0.40000000000E+03 0.  1.
   -9000007    1    1    2    0  502 -0.31103201945E+02 -0.18822832518E+03 -0.19108722588E+03  0.48260919952E+03  0.40000000000E+03 0.  1.
<mgrwt>
<rscale>  2 0.44316736E+03</rscale>
<asrwt>0</asrwt>
<pdfrwt beam="1">  1       21 0.35544930E-01 0.44316736E+03</pdfrwt>
<pdfrwt beam="2">  1       21 0.14039749E+00 0.44316736E+03</pdfrwt>
<totfact> 0.23383504E+03</totfact>
</mgrwt>
</event>
<event>
 4    1  0.1147209E-002  0.4322290E+03  0.7818608E-02  0.1033158E+00
         21   -1    0    0  501  502  0.00000000000E+00  0.00000000000E+00  0.18550434206E+04  0.18550434206E+04  0.00000000000E+00 0. -1.
         21   -1    0    0  502  503 -0.00000000000E+00 -0.00000000000E+00 -0.11424104593E+03  0.11424104593E+03  0.00000000000E+00 0. -1.
    9000007    1    1    2  501    0  0.14119896058E+03 -0.82974552230E+02  0.12092677628E+04  0.12841925264E+04  0.40000000000E+03 0. -1.
   -9000007    1    1    2    0  503 -0.14119896058E+03  0.82974552230E+02  0.53153461189E+03  0.68509194013E+03  0.40000000000E+03 0. -1.
<mgrwt>
<rscale>  2 0.43222902E+03</rscale>
<asrwt>0</asrwt>
<pdfrwt beam="1">  1       21 0.28539127E+00 0.43222902E+03</pdfrwt>
<pdfrwt beam="2">  1       21 0.17575547E-01 0.43222902E+03</pdfrwt>
<totfact> 0.99567024E+02</totfact>
</mgrwt>
</event>
<event>
 4    1  0.1147209E-002  0.4874745E+03  0.7818608E-02  0.1017101E+00
         21   -1    0    0  501  502  0.00000000000E+00  0.00000000000E+00  0.30238832683E+03  0.30238832683E+03  0.00000000000E+00 0. -1.
         21   -1    0    0  502  503 -0.00000000000E+00 -0.00000000000E+00 -0.79038657680E+03  0.79038657680E+03  0.00000000000E+00 0.  1.
    9000007    1    1    2  501    0  0.21543914819E+03 -0.17668427488E+03 -0.28540150655E+03  0.56487642853E+03  0.40000000000E+03 0.  1.
   -9000007    1    1    2    0  503 -0.21543914819E+03  0.17668427488E+03 -0.20259674342E+03  0.52789847510E+03  0.40000000000E+03 0. -1.
<mgrwt>
<rscale>  2 0.48747447E+03</rscale>
<asrwt>0</asrwt>
<pdfrwt beam="1">  1       21 0.46521281E-01 0.48747447E+03</pdfrwt>
<pdfrwt beam="2">  1       21 0.12159793E+00 0.48747447E+03</pdfrwt>
<totfact> 0.19176965E+03</totfact>
</mgrwt>
</event>
<event>
 4    1  0.1147209E-002  0.6784660E+03  0.7818608E-02  0.9754784E-01
         21   -1    0    0  503  502  0.00000000000E+00  0.00000000000E+00  0.21130263752E+03  0.21130263752E+03  0.00000000000E+00 0.  1.
         21   -1    0    0  501  503 -0.00000000000E+00 -0.00000000000E+00 -0.23076844409E+04  0.23076844409E+04  0.00000000000E+00 0. -1.
    9000007    1    1    2  501    0 -0.53790911643E+03 -0.10473716639E+03 -0.13462251435E+04  0.15075271900E+04  0.40000000000E+03 0.  1.
   -9000007    1    1    2    0  502  0.53790911643E+03  0.10473716639E+03 -0.75015665994E+03  0.10114598885E+04  0.40000000000E+03 0. -1.
<mgrwt>
<rscale>  2 0.67846598E+03</rscale>
<asrwt>0</asrwt>
<pdfrwt beam="1">  1       21 0.32508096E-01 0.67846598E+03</pdfrwt>
<pdfrwt beam="2">  1       21 0.35502840E+00 0.67846598E+03</pdfrwt>
<totfact> 0.10030186E+02</totfact>
</mgrwt>
</event>
<event>
 4    1  0.1147209E-002  0.4293863E+03  0.7818608E-02  0.1034054E+00
         21   -1    0    0  501  502  0.00000000000E+00  0.00000000000E+00  0.44672847561E+03  0.44672847561E+03  0.00000000000E+00 0. -1.
         21   -1    0    0  502  503 -0.00000000000E+00 -0.00000000000E+00 -0.42247424633E+03  0.42247424633E+03  0.00000000000E+00 0. -1.
    9000007    1    1    2  501    0  0.14585834828E+03  0.55659449067E+02  0.78172859711E+02  0.43644430117E+03  0.40000000000E+03 0. -1.
   -9000007    1    1    2    0  503 -0.14585834828E+03 -0.55659449067E+02 -0.53918630433E+02  0.43275842076E+03  0.40000000000E+03 0. -1.
<mgrwt>
<rscale>  2 0.42938634E+03</rscale>
<asrwt>0</asrwt>
<pdfrwt beam="1">  1       21 0.68727458E-01 0.42938634E+03</pdfrwt>
<pdfrwt beam="2">  1       21 0.64996037E-01 0.42938634E+03</pdfrwt>
<totfact> 0.37047255E+03</totfact>
</mgrwt>
</event>
<event>
 4    1  0.1147209E-002  0.6009669E+03  0.7818608E-02  0.9903402E-01
         21   -1    0    0  503  502  0.00000000000E+00  0.00000000000E+00  0.54488263083E+03  0.54488263083E+03  0.00000000000E+00 0.  1.
         21   -1    0    0  501  503 -0.00000000000E+00 -0.00000000000E+00 -0.90140741985E+03  0.90140741985E+03  0.00000000000E+00 0. -1.
    9000007    1    1    2  501    0  0.35918198340E+03 -0.26860655848E+03 -0.55029854569E+03  0.81485561288E+03  0.40000000000E+03 0. -1.
   -9000007    1    1    2    0  502 -0.35918198340E+03  0.26860655848E+03  0.19377375667E+03  0.63143443779E+03  0.40000000000E+03 0.  1.
<mgrwt>
<rscale>  2 0.60096687E+03</rscale>
<asrwt>0</asrwt>
<pdfrwt beam="1">  1       21 0.83828098E-01 0.60096687E+03</pdfrwt>
<pdfrwt beam="2">  1       21 0.13867806E+00 0.60096687E+03</pdfrwt>
<totfact> 0.35381127E+02</totfact>
</mgrwt>
</event>
<event>
 4    1  0.1147209E-002  0.4033541E+03  0.7818608E-02  0.1042624E+00
         21   -1    0    0  501  502  0.00000000000E+00  0.00000000000E+00  0.32558274666E+03  0.32558274666E+03  0.00000000000E+00 0. -1.
         21   -1    0    0  502  503 -0.00000000000E+00 -0.00000000000E+00 -0.52889874698E+03  0.52889874698E+03  0.00000000000E+00 0. -1.
    9000007    1    1    2  501    0  0.41547011367E+02 -0.31118210724E+02 -0.12772909615E+01  0.40335608172E+03  0.40000000000E+03 0.  1.
   -9000007    1    1    2    0  503 -0.41547011367E+02  0.31118210724E+02 -0.20203870936E+03  0.45112541191E+03  0.40000000000E+03 0.  1.
<mgrwt>
<rscale>  2 0.40335406E+03</rscale>
<asrwt>0</asrwt>
<pdfrwt beam="1">  1       21 0.50089653E-01 0.40335406E+03</pdfrwt>
<pdfrwt beam="2">  1       21 0.81369038E-01 0.40335406E+03</pdfrwt>
<totfact> 0.44818926E+03</totfact>
</mgrwt>
</event>
<event>
 4    1  0.1147209E-002  0.7009738E+03  0.7818608E-02  0.9715568E-01
         21   -1    0    0  501  502  0.00000000000E+00  0.00000000000E+00  0.13303945028E+04  0.13303945028E+04  0.00000000000E+00 0.  1.
         21   -1    0    0  502  503 -0.00000000000E+00 -0.00000000000E+00 -0.37004496459E+03  0.37004496459E+03  0.00000000000E+00 0. -1.
    9000007    1    1    2  501    0  0.13356407150E+03  0.55993290332E+03  0.51735737694E+03  0.87121918763E+03  0.40000000000E+03 0.  1.
   -9000007    1    1    2    0  503 -0.13356407150E+03 -0.55993290332E+03  0.44299216126E+03  0.82922027975E+03  0.40000000000E+03 0. -1.
<mgrwt>
<rscale>  2 0.70097376E+03</rscale>
<asrwt>0</asrwt>
<pdfrwt beam="1">  1       21 0.20467607E+00 0.70097376E+03</pdfrwt>
<pdfrwt beam="2">  1       21 0.56929995E-01 0.70097376E+03</pdfrwt>
<totfact> 0.26700291E+02</totfact>
</mgrwt>
</event>
<event>
 4    1  0.1147209E-002  0.4265762E+03  0.7818608E-02  0.1034947E+00
         21   -1    0    0  503  502  0.00000000000E+00  0.00000000000E+00  0.13520778895E+04  0.13520778895E+04  0.00000000000E+00 0. -1.
         21   -1    0    0  501  503 -0.00000000000E+00 -0.00000000000E+00 -0.20094153680E+03  0.20094153680E+03  0.00000000000E+00 0. -1.
    9000007    1    1    2  501    0 -0.13138438086E+03 -0.68596121884E+02  0.12933791588E+03  0.44575282383E+03  0.40000000000E+03 0. -1.
   -9000007    1    1    2    0  502  0.13138438086E+03  0.68596121884E+02  0.10217984368E+04  0.11072666025E+04  0.40000000000E+03 0. -1.
<mgrwt>
<rscale>  2 0.42657623E+03</rscale>
<asrwt>0</asrwt>
<pdfrwt beam="1">  1       21 0.20801198E+00 0.42657623E+03</pdfrwt>
<pdfrwt beam="2">  1       21 0.30914083E-01 0.42657623E+03</pdfrwt>
<totfact> 0.10103793E+03</totfact>
</mgrwt>
</event>
<event>
 4    1  0.1147209E-002  0.4227339E+03  0.7818608E-02  0.1036180E+00
         21   -1    0    0  503  502  0.00000000000E+00  0.00000000000E+00  0.57114872634E+03  0.57114872634E+03  0.00000000000E+00 0. -1.
         21   -1    0    0  501  503 -0.00000000000E+00 -0.00000000000E+00 -0.47561032989E+03  0.47561032989E+03  0.00000000000E+00 0.  1.
    9000007    1    1    2  501    0 -0.11979231503E+03  0.65983245799E+02 -0.25836961628E+03  0.49543803456E+03  0.40000000000E+03 0.  1.
   -9000007    1    1    2    0  502  0.11979231503E+03 -0.65983245799E+02  0.35390801273E+03  0.55132102168E+03  0.40000000000E+03 0. -1.
<mgrwt>
<rscale>  2 0.42273394E+03</rscale>
<asrwt>0</asrwt>
<pdfrwt beam="1">  1       21 0.87869034E-01 0.42273394E+03</pdfrwt>
<pdfrwt beam="2">  1       21 0.73170820E-01 0.42273394E+03</pdfrwt>
<totfact> 0.16201185E+03</totfact>
</mgrwt>
</event>
<event>
 4    1  0.1147209E-002  0.6458112E+03  0.7818608E-02  0.9814671E-01
         21   -1    0    0  501  502  0.00000000000E+00  0.00000000000E+00  0.80350902499E+03  0.80350902499E+03  0.00000000000E+00 0.  1.
         21   -1    0    0  502  503 -0.00000000000E+00 -0.00000000000E+00 -0.69051577434E+03  0.69051577434E+03  0.00000000000E+00 0. -1.
    9000007    1    1    2  501    0  0.41470118729E+03  0.29171053331E+03  0.42872783739E+03  0.77516428487E+03  0.40000000000E+03 0.  1.
   -9000007    1    1    2    0  503 -0.41470118729E+03 -0.29171053331E+03 -0.31573458674E+03  0.71886051446E+03  0.40000000000E+03 0. -1.
<mgrwt>
<rscale>  2 0.64581120E+03</rscale>
<asrwt>0</asrwt>
<pdfrwt beam="1">  1       21 0.12361677E+00 0.64581120E+03</pdfrwt>
<pdfrwt beam="2">  1       21 0.10623320E+00 0.64581120E+03</pdfrwt>
<totfact> 0.26595165E+02</totfact>
</mgrwt>
</event>
<event>
 4    1  0.1147209E-002  0.5716445E+03  0.7818608E-02  0.9966046E-01
         21   -1    0    0  501  502  0.00000000000E+00  0.00000000000E+00  0.93459664811E+03  0.93459664811E+03  0.00000000000E+00 0. -1.
         21   -1    0    0  502  503 -0.00000000000E+00 -0.00000000000E+00 -0.44993782750E+03  0.44993782750E+03  0.00000000000E+00 0.  1.
    9000007    1    1    2  501    0  0.24072999560E+03  0.32988855457E+03  0.56916674895E+03  0.80667724483E+03  0.40000000000E+03 0. -1.
   -9000007    1    1    2    0  503 -0.24072999560E+03 -0.32988855457E+03 -0.84507928333E+02  0.57785723078E+03  0.40000000000E+03 0.  1.
<mgrwt>
<rscale>  2 0.57164446E+03</rscale>
<asrwt>0</asrwt>
<pdfrwt beam="1">  1       21 0.14378410E+00 0.57164446E+03</pdfrwt>
<pdfrwt beam="2">  1       21 0.69221204E-01 0.57164446E+03</pdfrwt>
<totfact> 0.50407744E+02</totfact>
</mgrwt>
</event>
<event>
 4    1  0.1147209E-002  0.4537213E+03  0.7818608E-02  0.1026618E+00
         21   -1    0    0  503  502  0.00000000000E+00  0.00000000000E+00  0.18507442876E+03  0.18507442876E+03  0.00000000000E+00 0. -1.
         21   -1    0    0  501  503 -0.00000000000E+00 -0.00000000000E+00 -0.11737475271E+04  0.11737475271E+04  0.00000000000E+00 0.  1.
    9000007    1    1    2  501    0 -0.20848379154E+03 -0.48964154354E+02 -0.64975686899E+03  0.79249414418E+03  0.40000000000E+03 0. -1.
   -9000007    1    1    2    0  502  0.20848379154E+03  0.48964154354E+02 -0.33891622931E+03  0.56632781164E+03  0.40000000000E+03 0. -1.
<mgrwt>
<rscale>  2 0.45372126E+03</rscale>
<asrwt>0</asrwt>
<pdfrwt beam="1">  1       21 0.28472989E-01 0.45372126E+03</pdfrwt>
<pdfrwt beam="2">  1       21 0.18057654E+00 0.45372126E+03</pdfrwt>
<totfact> 0.18016977E+03</totfact>
</mgrwt>
</event>
<event>
 4    1  0.1147209E-002  0.4052808E+03  0.7818608E-02  0.1041966E+00
         21   -1    0    0  501  502  0.00000000000E+00  0.00000000000E+00  0.12776842636E+04  0.12776842636E+04  0.00000000000E+00 0. -1.
         21   -1    0    0  502  503 -0.00000000000E+00 -0.00000000000E+00 -0.13603954069E+03  0.13603954069E+03  0.00000000000E+00 0. -1.
    9000007    1    1    2  501    0 -0.65605311557E+01  0.64880656573E+02  0.73662376954E+03  0.84075389861E+03  0.40000000000E+03 0. -1.
   -9000007    1    1    2    0  503  0.65605311557E+01 -0.64880656573E+02  0.40502095341E+03  0.57296990573E+03  0.40000000000E+03 0. -1.
<mgrwt>
<rscale>  2 0.40528082E+03</rscale>
<asrwt>0</asrwt>
<pdfrwt beam="1">  1       21 0.19656680E+00 0.40528082E+03</pdfrwt>
<pdfrwt beam="2">  1       21 0.20929161E-01 0.40528082E+03</pdfrwt>
<totfact> 0.25970266E+03</totfact>
</mgrwt>
</event>
<event>
 4    1  0.1147209E-002  0.4543888E+03  0.7818608E-02  0.1026421E+00
         21   -1    0    0  503  502  0.00000000000E+00  0.00000000000E+00  0.11429474831E+04  0.11429474831E+04  0.00000000000E+00 0.  1.
         21   -1    0    0  501  503 -0.00000000000E+00 -0.00000000000E+00 -0.29817617338E+03  0.29817617338E+03  0.00000000000E+00 0.  1.
    9000007    1    1    2  501    0  0.21468065361E+03  0.19529828098E+02  0.87477146764E+03  0.98574556444E+03  0.40000000000E+03 0.  1.
   -9000007    1    1    2    0  502 -0.21468065361E+03 -0.19529828098E+02 -0.30000157922E+02  0.45537809203E+03  0.40000000000E+03 0.  1.
<mgrwt>
<rscale>  2 0.45438882E+03</rscale>
<asrwt>0</asrwt>
<pdfrwt beam="1">  1       21 0.17583807E+00 0.45438882E+03</pdfrwt>
<pdfrwt beam="2">  1       21 0.45873258E-01 0.45438882E+03</pdfrwt>
<totfact> 0.73750261E+02</totfact>
</mgrwt>
</event>
<event>
 4    1  0.1147209E-002  0.1022976E+04  0.7818608E-02  0.9283698E-01
         21   -1    0    0  501  502  0.00000000000E+00  0.00000000000E+00  0.99495660814E+03  0.99495660814E+03  0.00000000000E+00 0.  1.
         21   -1    0    0  502  503 -0.00000000000E+00 -0.00000000000E+00 -0.11760263801E+04  0.11760263801E+04  0.00000000000E+00 0. -1.
    9000007    1    1    2  501    0  0.17766374147E+03 -0.92461631120E+03  0.26228436222E+03  0.10560647777E+04  0.40000000000E+03 0. -1.
   -9000007    1    1    2    0  503 -0.17766374147E+03  0.92461631120E+03 -0.44335413418E+03  0.11149182106E+04  0.40000000000E+03 0.  1.
<mgrwt>
<rscale>  2 0.10229759E+04</rscale>
<asrwt>0</asrwt>
<pdfrwt beam="1">  1       21 0.15307025E+00 0.10229759E+04</pdfrwt>
<pdfrwt beam="2">  1       21 0.18092714E+00 0.10229759E+04</pdfrwt>
<totfact> 0.31624750E+01</totfact>
</mgrwt>
</event>
<event>
 4    1  0.1147209E-002  0.4572755E+03  0.7818608E-02  0.1025574E+00
         21   -1    0    0  503  502  0.00000000000E+00  0.00000000000E+00  0.30424243609E+03  0.30424243609E+03  0.00000000000E+00 0.  1.
         21   -1    0    0  501  503 -0.00000000000E+00 -0.00000000000E+00 -0.73070153525E+03  0.73070153525E+03  0.00000000000E+00 0. -1.
    9000007    1    1    2  501    0 -0.16473916009E+03  0.14819558394E+03 -0.87090365938E+02  0.46549506314E+03  0.40000000000E+03 0.  1.
   -9000007    1    1    2    0  502  0.16473916009E+03 -0.14819558394E+03 -0.33936873322E+03  0.56944890820E+03  0.40000000000E+03 0.  1.
<mgrwt>
<rscale>  2 0.45727554E+03</rscale>
<asrwt>0</asrwt>
<pdfrwt beam="1">  1       21 0.46806528E-01 0.45727554E+03</pdfrwt>
<pdfrwt beam="2">  1       21 0.11241562E+00 0.45727554E+03</pdfrwt>
<totfact> 0.23330537E+03</totfact>
</mgrwt>
</event>
<event>
 4    1  0.1147209E-002  0.4543386E+03  0.7818608E-02  0.1026436E+00
         21   -1    0    0  503  502  0.00000000000E+00  0.00000000000E+00  0.54684520747E+03  0.54684520747E+03  0.00000000000E+00 0. -1.
         21   -1    0    0  501  503 -0.00000000000E+00 -0.00000000000E+00 -0.57561646135E+03  0.57561646135E+03  0.00000000000E+00 0. -1.
    9000007    1    1    2  501    0  0.73758354350E+02  0.20244331288E+03 -0.34365868597E+03  0.56967085427E+03  0.40000000000E+03 0. -1.
   -9000007    1    1    2    0  502 -0.73758354350E+02 -0.20244331288E+03  0.31488743209E+03  0.55279081455E+03  0.40000000000E+03 0. -1.
<mgrwt>
<rscale>  2 0.45433863E+03</rscale>
<asrwt>0</asrwt>
<pdfrwt beam="1">  1       21 0.84130032E-01 0.45433863E+03</pdfrwt>
<pdfrwt beam="2">  1       21 0.88556379E-01 0.45433863E+03</pdfrwt>
<totfact> 0.11391448E+03</totfact>
</mgrwt>
</event>
<event>
 4    1  0.1147209E-002  0.5824725E+03  0.7818608E-02  0.9942452E-01
         21   -1    0    0  501  502  0.00000000000E+00  0.00000000000E+00  0.10334239835E+04  0.10334239835E+04  0.00000000000E+00 0.  1.
         21   -1    0    0  502  503 -0.00000000000E+00 -0.00000000000E+00 -0.34292672251E+03  0.34292672251E+03  0.00000000000E+00 0.  1.
    9000007    1    1    2  501    0 -0.40594354976E+03  0.12034983857E+03  0.48736868373E+03  0.75947513661E+03  0.40000000000E+03 0.  1.
   -9000007    1    1    2    0  503  0.40594354976E+03 -0.12034983857E+03  0.20312857725E+03  0.61687556941E+03  0.40000000000E+03 0.  1.
<mgrwt>
<rscale>  2 0.58247253E+03</rscale>
<asrwt>0</asrwt>
<pdfrwt beam="1">  1       21 0.15898830E+00 0.58247253E+03</pdfrwt>
<pdfrwt beam="2">  1       21 0.52757958E-01 0.58247253E+03</pdfrwt>
<totfact> 0.69365988E+02</totfact>
</mgrwt>
</event>
<event>
 4    1  0.1147209E-002  0.4271327E+03  0.7818608E-02  0.1034770E+00
         21   -1    0    0  501  502  0.00000000000E+00  0.00000000000E+00  0.23542765002E+03  0.23542765002E+03  0.00000000000E+00 0. -1.
         21   -1    0    0  502  503 -0.00000000000E+00 -0.00000000000E+00 -0.84585647690E+03  0.84585647690E+03  0.00000000000E+00 0. -1.
    9000007    1    1    2  501    0 -0.97812117467E+02 -0.11346868101E+03 -0.14867113176E+03  0.45226701993E+03  0.40000000000E+03 0. -1.
   -9000007    1    1    2    0  503  0.97812117467E+02  0.11346868101E+03 -0.46175769512E+03  0.62901710700E+03  0.40000000000E+03 0. -1.
<mgrwt>
<rscale>  2 0.42713271E+03</rscale>
<asrwt>0</asrwt>
<pdfrwt beam="1">  1       21 0.36219639E-01 0.42713271E+03</pdfrwt>
<pdfrwt beam="2">  1       21 0.13013176E+00 0.42713271E+03</pdfrwt>
<totfact> 0.27640699E+03</totfact>
</mgrwt>
</event>
<event>
 4    1  0.1147209E-002  0.4530475E+03  0.7818608E-02  0.1026817E+00
         21   -1    0    0  503  502  0.00000000000E+00  0.00000000000E+00  0.21148596372E+03  0.21148596372E+03  0.00000000000E+00 0.  1.
         21   -1    0    0  501  503 -0.00000000000E+00 -0.00000000000E+00 -0.10996059798E+04  0.10996059798E+04  0.00000000000E+00 0.  1.
    9000007    1    1    2  501    0 -0.19277248933E+03 -0.89948763679E+02 -0.66866475598E+03  0.80769088680E+03  0.40000000000E+03 0.  1.
   -9000007    1    1    2    0  502  0.19277248933E+03  0.89948763679E+02 -0.21945526012E+03  0.50340105674E+03  0.40000000000E+03 0.  1.
<mgrwt>
<rscale>  2 0.45304747E+03</rscale>
<asrwt>0</asrwt>
<pdfrwt beam="1">  1       21 0.32536302E-01 0.45304747E+03</pdfrwt>
<pdfrwt beam="2">  1       21 0.16917015E+00 0.45304747E+03</pdfrwt>
<totfact> 0.16681222E+03</totfact>
</mgrwt>
</event>
<event>
 4    1  0.1147209E-002  0.4068540E+03  0.7818608E-02  0.1041432E+00
         21   -1    0    0  501  502  0.00000000000E+00  0.00000000000E+00  0.53500054359E+03  0.53500054359E+03  0.00000000000E+00 0.  1.
         21   -1    0    0  502  503 -0.00000000000E+00 -0.00000000000E+00 -0.42707646161E+03  0.42707646161E+03  0.00000000000E+00 0.  1.
    9000007    1    1    2  501    0 -0.10472768717E+02 -0.73624097216E+02  0.30646606814E+03  0.50936395387E+03  0.40000000000E+03 0.  1.
   -9000007    1    1    2    0  503  0.10472768717E+02  0.73624097216E+02 -0.19854198617E+03  0.45271305133E+03  0.40000000000E+03 0.  1.
<mgrwt>
<rscale>  2 0.40685401E+03</rscale>
<asrwt>0</asrwt>
<pdfrwt beam="1">  1       21 0.82307776E-01 0.40685401E+03</pdfrwt>
<pdfrwt beam="2">  1       21 0.65704071E-01 0.40685401E+03</pdfrwt>
<totfact> 0.24186207E+03</totfact>
</mgrwt>
</event>
<event>
 4    1  0.1147209E-002  0.5567528E+03  0.7818608E-02  0.9999429E-01
         21   -1    0    0  501  502  0.00000000000E+00  0.00000000000E+00  0.88222357666E+03  0.88222357666E+03  0.00000000000E+00 0. -1.
         21   -1    0    0  502  503 -0.00000000000E+00 -0.00000000000E+00 -0.35149536165E+03  0.35149536165E+03  0.00000000000E+00 0.  1.
    9000007    1    1    2  501    0 -0.99513666252E+02  0.37426026461E+03  0.25303982033E+03  0.61155773735E+03  0.40000000000E+03 0.  1.
   -9000007    1    1    2    0  503  0.99513666252E+02 -0.37426026461E+03  0.27768839469E+03  0.62216120096E+03  0.40000000000E+03 0.  1.
<mgrwt>
<rscale>  2 0.55675283E+03</rscale>
<asrwt>0</asrwt>
<pdfrwt beam="1">  1       21 0.13572670E+00 0.55675283E+03</pdfrwt>
<pdfrwt beam="2">  1       21 0.54076210E-01 0.55675283E+03</pdfrwt>
<totfact> 0.10205277E+03</totfact>
</mgrwt>
</event>
<event>
 4    1  0.1147209E-002  0.4368865E+03  0.7818608E-02  0.1031706E+00
         21   -1    0    0  501  502  0.00000000000E+00  0.00000000000E+00  0.31018325703E+03  0.31018325703E+03  0.00000000000E+00 0. -1.
         21   -1    0    0  502  503 -0.00000000000E+00 -0.00000000000E+00 -0.65721234267E+03  0.65721234267E+03  0.00000000000E+00 0. -1.
    9000007    1    1    2  501    0 -0.17147424790E+03  0.38293784267E+02 -0.29559805836E+03  0.52749222147E+03  0.40000000000E+03 0. -1.
   -9000007    1    1    2    0  503  0.17147424790E+03 -0.38293784267E+02 -0.51431027279E+02  0.43990337822E+03  0.40000000000E+03 0. -1.
<mgrwt>
<rscale>  2 0.43688652E+03</rscale>
<asrwt>0</asrwt>
<pdfrwt beam="1">  1       21 0.47720501E-01 0.43688652E+03</pdfrwt>
<pdfrwt beam="2">  1       21 0.10110959E+00 0.43688652E+03</pdfrwt>
<totfact> 0.29312003E+03</totfact>
</mgrwt>
</event>
<event>
 4    1  0.1147209E-002  0.4373577E+03  0.7818608E-02  0.1031561E+00
         21   -1    0    0  503  502  0.00000000000E+00  0.00000000000E+00  0.50427006679E+03  0.50427006679E+03  0.00000000000E+00 0.  1.
         21   -1    0    0  501  503 -0.00000000000E+00 -0.00000000000E+00 -0.46443828936E+03  0.46443828936E+03  0.00000000000E+00 0.  1.
    9000007    1    1    2  501    0 -0.10233765724E+03 -0.14425239770E+03 -0.18743228877E+03  0.47582834426E+03  0.40000000000E+03 0.  1.
   -9000007    1    1    2    0  502  0.10233765724E+03  0.14425239770E+03  0.22726406620E+03  0.49288001189E+03  0.40000000000E+03 0.  1.
<mgrwt>
<rscale>  2 0.43735769E+03</rscale>
<asrwt>0</asrwt>
<pdfrwt beam="1">  1       21 0.77580010E-01 0.43735769E+03</pdfrwt>
<pdfrwt beam="2">  1       21 0.71452045E-01 0.43735769E+03</pdfrwt>
<totfact> 0.22701555E+03</totfact>
</mgrwt>
</event>
<event>
 4    1  0.1147209E-002  0.4187924E+03  0.7818608E-02  0.1037460E+00
         21   -1    0    0  501  502  0.00000000000E+00  0.00000000000E+00  0.15659587917E+04  0.15659587917E+04  0.00000000000E+00 0.  1.
         21   -1    0    0  502  503 -0.00000000000E+00 -0.00000000000E+00 -0.26658702935E+03  0.26658702935E+03  0.00000000000E+00 0.  1.
    9000007    1    1    2  501    0 -0.11225599817E+03  0.52779372747E+02  0.13474235119E+04  0.14110057377E+04  0.40000000000E+03 0.  1.
   -9000007    1    1    2    0  503  0.11225599817E+03 -0.52779372747E+02 -0.48051749496E+02  0.42154008344E+03  0.40000000000E+03 0.  1.
<mgrwt>
<rscale>  2 0.41879240E+03</rscale>
<asrwt>0</asrwt>
<pdfrwt beam="1">  1       21 0.24091673E+00 0.41879240E+03</pdfrwt>
<pdfrwt beam="2">  1       21 0.41013390E-01 0.41879240E+03</pdfrwt>
<totfact> 0.35394683E+02</totfact>
</mgrwt>
</event>
<event>
 4    1  0.1147209E-002  0.5804642E+03  0.7818608E-02  0.9946786E-01
         21   -1    0    0  501  502  0.00000000000E+00  0.00000000000E+00  0.11119110865E+04  0.11119110865E+04  0.00000000000E+00 0. -1.
         21   -1    0    0  502  503 -0.00000000000E+00 -0.00000000000E+00 -0.33630745058E+03  0.33630745058E+03  0.00000000000E+00 0.  1.
    9000007    1    1    2  501    0 -0.37313459527E+02 -0.41898259589E+03  0.16001287608E+03  0.60211529662E+03  0.40000000000E+03 0.  1.
   -9000007    1    1    2    0  503  0.37313459527E+02  0.41898259589E+03  0.61559075987E+03  0.84610324048E+03  0.40000000000E+03 0. -1.
<mgrwt>
<rscale>  2 0.58046422E+03</rscale>
<asrwt>0</asrwt>
<pdfrwt beam="1">  1       21 0.17106324E+00 0.58046422E+03</pdfrwt>
<pdfrwt beam="2">  1       21 0.51739608E-01 0.58046422E+03</pdfrwt>
<totfact> 0.58792873E+02</totfact>
</mgrwt>
</event>
<event>
 4    1  0.1147209E-002  0.4967731E+03  0.7818608E-02  0.1014625E+00
         21   -1    0    0  501  502  0.00000000000E+00  0.00000000000E+00  0.35661670525E+03  0.35661670525E+03  0.00000000000E+00 0.  1.
         21   -1    0    0  502  503 -0.00000000000E+00 -0.00000000000E+00 -0.69340540273E+03  0.69340540273E+03  0.00000000000E+00 0.  1.
    9000007    1    1    2  501    0  0.25355780434E+03 -0.14997333053E+03 -0.19191696132E+03  0.53255579994E+03  0.40000000000E+03 0.  1.
   -9000007    1    1    2    0  503 -0.25355780434E+03  0.14997333053E+03 -0.14487173617E+03  0.51746630804E+03  0.40000000000E+03 0.  1.
<mgrwt>
<rscale>  2 0.49677315E+03</rscale>
<asrwt>0</asrwt>
<pdfrwt beam="1">  1       21 0.54864108E-01 0.49677315E+03</pdfrwt>
<pdfrwt beam="2">  1       21 0.10667775E+00 0.49677315E+03</pdfrwt>
<totfact> 0.18666097E+03</totfact>
</mgrwt>
</event>
<event>
 4    1  0.1147209E-002  0.4122382E+03  0.7818608E-02  0.1039623E+00
         21   -1    0    0  503  502  0.00000000000E+00  0.00000000000E+00  0.63114565327E+03  0.63114565327E+03  0.00000000000E+00 0.  1.
         21   -1    0    0  501  503 -0.00000000000E+00 -0.00000000000E+00 -0.29156319518E+03  0.29156319518E+03  0.00000000000E+00 0.  1.
    9000007    1    1    2  501    0 -0.49307376664E+02  0.86655150690E+02  0.29740040376E+03  0.50831814122E+03  0.40000000000E+03 0.  1.
   -9000007    1    1    2    0  502  0.49307376664E+02 -0.86655150690E+02  0.42182054341E+02  0.41439070724E+03  0.40000000000E+03 0.  1.
<mgrwt>
<rscale>  2 0.41223820E+03</rscale>
<asrwt>0</asrwt>
<pdfrwt beam="1">  1       21 0.97099331E-01 0.41223820E+03</pdfrwt>
<pdfrwt beam="2">  1       21 0.44855876E-01 0.41223820E+03</pdfrwt>
<totfact> 0.37156630E+03</totfact>
</mgrwt>
</event>
<event>
 4    1  0.1147209E-002  0.8027592E+03  0.7818608E-02  0.9556032E-01
         21   -1    0    0  501  502  0.00000000000E+00  0.00000000000E+00  0.67259355434E+03  0.67259355434E+03  0.00000000000E+00 0. -1.
         21   -1    0    0  502  503 -0.00000000000E+00 -0.00000000000E+00 -0.95840588171E+03  0.95840588171E+03  0.00000000000E+00 0. -1.
    9000007    1    1    2  501    0  0.51377599858E+03 -0.46952800321E+03 -0.15710063962E+03  0.81798712306E+03  0.40000000000E+03 0. -1.
   -9000007    1    1    2    0  503 -0.51377599858E+03  0.46952800321E+03 -0.12871168775E+03  0.81301231299E+03  0.40000000000E+03 0. -1.
<mgrwt>
<rscale>  2 0.80275919E+03</rscale>
<asrwt>0</asrwt>
<pdfrwt beam="1">  1       21 0.10347593E+00 0.80275919E+03</pdfrwt>
<pdfrwt beam="2">  1       21 0.14744706E+00 0.80275919E+03</pdfrwt>
<totfact> 0.16928214E+02</totfact>
</mgrwt>
</event>
<event>
 4    1  0.1147209E-002  0.4466737E+03  0.7818608E-02  0.1028719E+00
         21   -1    0    0  503  502  0.00000000000E+00  0.00000000000E+00  0.46437553373E+03  0.46437553373E+03  0.00000000000E+00 0.  1.
         21   -1    0    0  501  503 -0.00000000000E+00 -0.00000000000E+00 -0.57530977925E+03  0.57530977925E+03  0.00000000000E+00 0.  1.
    9000007    1    1    2  501    0  0.97056788826E+01 -0.19855285220E+03 -0.31704181029E+03  0.54775263102E+03  0.40000000000E+03 0.  1.
   -9000007    1    1    2    0  502 -0.97056788826E+01  0.19855285220E+03  0.20610756477E+03  0.49193268196E+03  0.40000000000E+03 0.  1.
<mgrwt>
<rscale>  2 0.44667375E+03</rscale>
<asrwt>0</asrwt>
<pdfrwt beam="1">  1       21 0.71442390E-01 0.44667375E+03</pdfrwt>
<pdfrwt beam="2">  1       21 0.88509197E-01 0.44667375E+03</pdfrwt>
<totfact> 0.16652344E+03</totfact>
</mgrwt>
</event>
<event>
 4    1  0.1147209E-002  0.4981147E+03  0.7818608E-02  0.1014272E+00
         21   -1    0    0  501  502  0.00000000000E+00  0.00000000000E+00  0.30940821125E+03  0.30940821125E+03  0.00000000000E+00 0. -1.
         21   -1    0    0  502  503 -0.00000000000E+00 -0.00000000000E+00 -0.90656375059E+03  0.90656375059E+03  0.00000000000E+00 0. -1.
    9000007    1    1    2  501    0  0.20247231927E+03  0.21707877140E+03 -0.92007825314E+02  0.50654088974E+03  0.40000000000E+03 0. -1.
   -9000007    1    1    2    0  503 -0.20247231927E+03 -0.21707877140E+03 -0.50514771403E+03  0.70943107210E+03  0.40000000000E+03 0. -1.
<mgrwt>
<rscale>  2 0.49811468E+03</rscale>
<asrwt>0</asrwt>
<pdfrwt beam="1">  1       21 0.47601264E-01 0.49811468E+03</pdfrwt>
<pdfrwt beam="2">  1       21 0.13947135E+00 0.49811468E+03</pdfrwt>
<totfact> 0.12729682E+03</totfact>
</mgrwt>
</event>
<event>
 4    1  0.1147209E-002  0.4513249E+03  0.7818608E-02  0.1027328E+00
         21   -1    0    0  501  502  0.00000000000E+00  0.00000000000E+00  0.23030578815E+03  0.23030578815E+03  0.00000000000E+00 0.  1.
         21   -1    0    0  502  503 -0.00000000000E+00 -0.00000000000E+00 -0.89203301606E+03  0.89203301606E+03  0.00000000000E+00 0. -1.
    9000007    1    1    2  501    0  0.20855436212E+03  0.14116896395E+02 -0.27912761097E+03  0.53066602673E+03  0.40000000000E+03 0. -1.
   -9000007    1    1    2    0  503 -0.20855436212E+03 -0.14116896395E+02 -0.38259961694E+03  0.59167277747E+03  0.40000000000E+03 0.  1.
<mgrwt>
<rscale>  2 0.45132495E+03</rscale>
<asrwt>0</asrwt>
<pdfrwt beam="1">  1       21 0.35431659E-01 0.45132495E+03</pdfrwt>
<pdfrwt beam="2">  1       21 0.13723585E+00 0.45132495E+03</pdfrwt>
<totfact> 0.24924211E+03</totfact>
</mgrwt>
</event>
<event>
 4    1  0.1147209E-002  0.4209390E+03  0.7818608E-02  0.1036761E+00
         21   -1    0    0  501  502  0.00000000000E+00  0.00000000000E+00  0.14152634023E+04  0.14152634023E+04  0.00000000000E+00 0. -1.
         21   -1    0    0  502  503 -0.00000000000E+00 -0.00000000000E+00 -0.14708798463E+03  0.14708798463E+03  0.00000000000E+00 0. -1.
    9000007    1    1    2  501    0 -0.10723748494E+03  0.75430700801E+02  0.93543839682E+03  0.10257849010E+04  0.40000000000E+03 0.  1.
   -9000007    1    1    2    0  503  0.10723748494E+03 -0.75430700801E+02  0.33273702081E+03  0.53656648592E+03  0.40000000000E+03 0.  1.
<mgrwt>
<rscale>  2 0.42093903E+03</rscale>
<asrwt>0</asrwt>
<pdfrwt beam="1">  1       21 0.21773282E+00 0.42093903E+03</pdfrwt>
<pdfrwt beam="2">  1       21 0.22628922E-01 0.42093903E+03</pdfrwt>
<totfact> 0.16138268E+03</totfact>
</mgrwt>
</event>
<event>
 4    1  0.1147209E-002  0.6129805E+03  0.7818608E-02  0.9878836E-01
         21   -1    0    0  501  502  0.00000000000E+00  0.00000000000E+00  0.70745229820E+03  0.70745229820E+03  0.00000000000E+00 0. -1.
         21   -1    0    0  502  503 -0.00000000000E+00 -0.00000000000E+00 -0.58193738087E+03  0.58193738087E+03  0.00000000000E+00 0. -1.
    9000007    1    1    2  501    0 -0.42610405249E+03 -0.18487956981E+03  0.25326130839E+03  0.66323933026E+03  0.40000000000E+03 0. -1.
   -9000007    1    1    2    0  503  0.42610405249E+03  0.18487956981E+03 -0.12774639105E+03  0.62615034881E+03  0.40000000000E+03 0. -1.
<mgrwt>
<rscale>  2 0.61298052E+03</rscale>
<asrwt>0</asrwt>
<pdfrwt beam="1">  1       21 0.10883882E+00 0.61298052E+03</pdfrwt>
<pdfrwt beam="2">  1       21 0.89528827E-01 0.61298052E+03</pdfrwt>
<totfact> 0.56328524E+02</totfact>
</mgrwt>
</event>
<event>
 4    1  0.1147209E-002  0.4143563E+03  0.7818608E-02  0.1038919E+00
         21   -1    0    0  503  502  0.00000000000E+00  0.00000000000E+00  0.69334525123E+03  0.69334525123E+03  0.00000000000E+00 0. -1.
         21   -1    0    0  501  503 -0.00000000000E+00 -0.00000000000E+00 -0.41043325516E+03  0.41043325516E+03  0.00000000000E+00 0. -1.
    9000007    1    1    2  501    0  0.96680961389E+01 -0.10769232603E+03 -0.20613298939E+03  0.46279792402E+03  0.40000000000E+03 0. -1.
   -9000007    1    1    2    0  502 -0.96680961389E+01  0.10769232603E+03  0.48904498545E+03  0.64098058236E+03  0.40000000000E+03 0. -1.
<mgrwt>
<rscale>  2 0.41435626E+03</rscale>
<asrwt>0</asrwt>
<pdfrwt beam="1">  1       21 0.10666850E+00 0.41435626E+03</pdfrwt>
<pdfrwt beam="2">  1       21 0.63143578E-01 0.41435626E+03</pdfrwt>
<totfact> 0.14177539E+03</totfact>
</mgrwt>
</event>
<event>
 4    1  0.1147209E-002  0.6229627E+03  0.7818608E-02  0.9858879E-01
         21   -1    0    0  503  502  0.00000000000E+00  0.00000000000E+00  0.93538622684E+03  0.93538622684E+03  0.00000000000E+00 0.  1.
         21   -1    0    0  501  503 -0.00000000000E+00 -0.00000000000E+00 -0.43000405003E+03  0.43000405003E+03  0.00000000000E+00 0.  1.
    9000007    1    1    2  501    0  0.47601663040E+03 -0.38608994647E+02  0.38068210903E+03  0.73006941795E+03  0.40000000000E+03 0.  1.
   -9000007    1    1    2    0  502 -0.47601663040E+03  0.38608994647E+02  0.12470006779E+03  0.63532085893E+03  0.40000000000E+03 0.  1.
<mgrwt>
<rscale>  2 0.62296267E+03</rscale>
<asrwt>0</asrwt>
<pdfrwt beam="1">  1       21 0.14390557E+00 0.62296267E+03</pdfrwt>
<pdfrwt beam="2">  1       21 0.66154469E-01 0.62296267E+03</pdfrwt>
<totfact> 0.54743322E+02</totfact>
</mgrwt>
</event>
<event>
 4    1  0.1147209E-002  0.4071970E+03  0.7818608E-02  0.1041316E+00
         21   -1    0    0  503  502  0.00000000000E+00  0.00000000000E+00  0.75585301818E+02  0.75585301818E+02  0.00000000000E+00 0.  1.
         21   -1    0    0  501  503 -0.00000000000E+00 -0.00000000000E+00 -0.28287759837E+04  0.28287759837E+04  0.00000000000E+00 0.  1.
    9000007    1    1    2  501    0  0.62771335142E+02 -0.43234108866E+02 -0.20646825330E+04  0.21044532285E+04  0.40000000000E+03 0.  1.
   -9000007    1    1    2    0  502 -0.62771335142E+02  0.43234108866E+02 -0.68850814893E+03  0.79990805711E+03  0.40000000000E+03 0.  1.
<mgrwt>
<rscale>  2 0.40719704E+03</rscale>
<asrwt>0</asrwt>
<pdfrwt beam="1">  1       21 0.11628510E-01 0.40719704E+03</pdfrwt>
<pdfrwt beam="2">  1       21 0.43519623E+00 0.40719704E+03</pdfrwt>
<totfact> 0.25376768E+02</totfact>
</mgrwt>
</event>
<event>
 4    1  0.1147209E-002  0.4432268E+03  0.7818608E-02  0.1029761E+00
         21   -1    0    0  503  502  0.00000000000E+00  0.00000000000E+00  0.33607057591E+03  0.33607057591E+03  0.00000000000E+00 0.  1.
         21   -1    0    0  501  503 -0.00000000000E+00 -0.00000000000E+00 -0.58468242799E+03  0.58468242799E+03  0.00000000000E+00 0.  1.
    9000007    1    1    2  501    0 -0.18808785446E+03 -0.32756249532E+02 -0.11737407587E+03  0.45850483810E+03  0.40000000000E+03 0.  1.
   -9000007    1    1    2    0  502  0.18808785446E+03  0.32756249532E+02 -0.13123777621E+03  0.46224816580E+03  0.40000000000E+03 0.  1.
<mgrwt>
<rscale>  2 0.44322682E+03</rscale>
<asrwt>0</asrwt>
<pdfrwt beam="1">  1       21 0.51703166E-01 0.44322682E+03</pdfrwt>
<pdfrwt beam="2">  1       21 0.89951143E-01 0.44322682E+03</pdfrwt>
<totfact> 0.32653598E+03</totfact>
</mgrwt>
</event>
<event>
 4    1  0.1147209E-002  0.8761595E+03  0.7818608E-02  0.9455884E-01
         21   -1    0    0  501  502  0.00000000000E+00  0.00000000000E+00  0.18593073211E+04  0.18593073211E+04  0.00000000000E+00 0. -1.
         21   -1    0    0  502  503 -0.00000000000E+00 -0.00000000000E+00 -0.41319130049E+03  0.41319130049E+03  0.00000000000E+00 0. -1.
    9000007    1    1    2  501    0  0.24138981612E+03  0.74120611916E+03  0.75465429444E+03  0.11563557664E+04  0.40000000000E+03 0. -1.
   -9000007    1    1    2    0  503 -0.24138981612E+03 -0.74120611916E+03  0.69146172616E+03  0.11161428552E+04  0.40000000000E+03 0. -1.
<mgrwt>
<rscale>  2 0.87615955E+03</rscale>
<asrwt>0</asrwt>
<pdfrwt beam="1">  1       21 0.28604727E+00 0.87615955E+03</pdfrwt>
<pdfrwt beam="2">  1       21 0.63567894E-01 0.87615955E+03</pdfrwt>
<totfact> 0.59970931E+01</totfact>
</mgrwt>
</event>
<event>
 4    1  0.1147209E-002  0.5398446E+03  0.7818608E-02  0.1003872E+00
         21   -1    0    0  501  502  0.00000000000E+00  0.00000000000E+00  0.22681544816E+03  0.22681544816E+03  0.00000000000E+00 0. -1.
         21   -1    0    0  502  503 -0.00000000000E+00 -0.00000000000E+00 -0.12867089299E+04  0.12867089299E+04  0.00000000000E+00 0. -1.
    9000007    1    1    2  501    0 -0.28702018347E+03  0.22147602656E+03 -0.50147017849E+03  0.73682057244E+03  0.40000000000E+03 0. -1.
   -9000007    1    1    2    0  503  0.28702018347E+03 -0.22147602656E+03 -0.55842330325E+03  0.77670380563E+03  0.40000000000E+03 0. -1.
<mgrwt>
<rscale>  2 0.53984462E+03</rscale>
<asrwt>0</asrwt>
<pdfrwt beam="1">  1       21 0.34894685E-01 0.53984462E+03</pdfrwt>
<pdfrwt beam="2">  1       21 0.19795521E+00 0.53984462E+03</pdfrwt>
<totfact> 0.87952036E+02</totfact>
</mgrwt>
</event>
<event>
 4    1  0.1147209E-002  0.4234689E+03  0.7818608E-02  0.1035943E+00
         21   -1    0    0  503  502  0.00000000000E+00  0.00000000000E+00  0.14636101402E+04  0.14636101402E+04  0.00000000000E+00 0. -1.
         21   -1    0    0  501  503 -0.00000000000E+00 -0.00000000000E+00 -0.12293730539E+03  0.12293730539E+03  0.00000000000E+00 0.  1.
    9000007    1    1    2  501    0  0.13850098918E+03  0.11974205722E+02  0.71638766192E+03  0.83218819251E+03  0.40000000000E+03 0.  1.
   -9000007    1    1    2    0  502 -0.13850098918E+03 -0.11974205722E+02  0.62428517286E+03  0.75435925305E+03  0.40000000000E+03 0.  1.
<mgrwt>
<rscale>  2 0.42346890E+03</rscale>
<asrwt>0</asrwt>
<pdfrwt beam="1">  1       21 0.22517078E+00 0.42346890E+03</pdfrwt>
<pdfrwt beam="2">  1       21 0.18913433E-01 0.42346890E+03</pdfrwt>
<totfact> 0.20351419E+03</totfact>
</mgrwt>
</event>
<event>
 4    1  0.1147209E-002  0.4157816E+03  0.7818608E-02  0.1038448E+00
         21   -1    0    0  501  502  0.00000000000E+00  0.00000000000E+00  0.10274780173E+04  0.10274780173E+04  0.00000000000E+00 0. -1.
         21   -1    0    0  502  503 -0.00000000000E+00 -0.00000000000E+00 -0.18597547911E+03  0.18597547911E+03  0.00000000000E+00 0. -1.
    9000007    1    1    2  501    0  0.55747560878E+02 -0.98825828948E+02  0.60805674557E+03  0.73661885724E+03  0.40000000000E+03 0. -1.
   -9000007    1    1    2    0  503 -0.55747560878E+02  0.98825828948E+02  0.23344579259E+03  0.47683463915E+03  0.40000000000E+03 0. -1.
<mgrwt>
<rscale>  2 0.41578160E+03</rscale>
<asrwt>0</asrwt>
<pdfrwt beam="1">  1       21 0.15807354E+00 0.41578160E+03</pdfrwt>
<pdfrwt beam="2">  1       21 0.28611613E-01 0.41578160E+03</pdfrwt>
<totfact> 0.26462601E+03</totfact>
</mgrwt>
</event>
<event>
 4    1  0.1147209E-002  0.4953011E+03  0.7818608E-02  0.1015013E+00
         21   -1    0    0  503  502  0.00000000000E+00  0.00000000000E+00  0.25140540617E+03  0.25140540617E+03  0.00000000000E+00 0. -1.
         21   -1    0    0  501  503 -0.00000000000E+00 -0.00000000000E+00 -0.99095363988E+03  0.99095363988E+03  0.00000000000E+00 0. -1.
    9000007    1    1    2  501    0 -0.59188406264E+02 -0.28604185538E+03 -0.44657132985E+03  0.66689516650E+03  0.40000000000E+03 0. -1.
   -9000007    1    1    2    0  502  0.59188406264E+02  0.28604185538E+03 -0.29297690387E+03  0.57546387955E+03  0.40000000000E+03 0. -1.
<mgrwt>
<rscale>  2 0.49530113E+03</rscale>
<asrwt>0</asrwt>
<pdfrwt beam="1">  1       21 0.38677756E-01 0.49530113E+03</pdfrwt>
<pdfrwt beam="2">  1       21 0.15245440E+00 0.49530113E+03</pdfrwt>
<totfact> 0.15446080E+03</totfact>
</mgrwt>
</event>
<event>
 4    1  0.1147209E-002  0.4132142E+03  0.7818608E-02  0.1039298E+00
         21   -1    0    0  501  502  0.00000000000E+00  0.00000000000E+00  0.12615516679E+04  0.12615516679E+04  0.00000000000E+00 0.  1.
         21   -1    0    0  502  503 -0.00000000000E+00 -0.00000000000E+00 -0.13670293237E+03  0.13670293237E+03  0.00000000000E+00 0.  1.
    9000007    1    1    2  501    0  0.72751093271E+02 -0.73846129810E+02  0.63207842104E+03  0.75516164018E+03  0.40000000000E+03 0. -1.
   -9000007    1    1    2    0  503 -0.72751093271E+02  0.73846129810E+02  0.49277031444E+03  0.64309296004E+03  0.40000000000E+03 0. -1.
<mgrwt>
<rscale>  2 0.41321420E+03</rscale>
<asrwt>0</asrwt>
<pdfrwt beam="1">  1       21 0.19408486E+00 0.41321420E+03</pdfrwt>
<pdfrwt beam="2">  1       21 0.21031221E-01 0.41321420E+03</pdfrwt>
<totfact> 0.26642005E+03</totfact>
</mgrwt>
</event>
<event>
 4    1  0.1147209E-002  0.5026901E+03  0.7818608E-02  0.1013079E+00
         21   -1    0    0  501  502  0.00000000000E+00  0.00000000000E+00  0.43908306366E+03  0.43908306366E+03  0.00000000000E+00 0. -1.
         21   -1    0    0  502  503 -0.00000000000E+00 -0.00000000000E+00 -0.75643978670E+03  0.75643978670E+03  0.00000000000E+00 0. -1.
    9000007    1    1    2  501    0  0.65864157638E+02  0.29725284302E+03 -0.45102221942E+03  0.67536536953E+03  0.40000000000E+03 0. -1.
   -9000007    1    1    2    0  503 -0.65864157638E+02 -0.29725284302E+03  0.13366549639E+03  0.52015748083E+03  0.40000000000E+03 0. -1.
<mgrwt>
<rscale>  2 0.50269010E+03</rscale>
<asrwt>0</asrwt>
<pdfrwt beam="1">  1       21 0.67551242E-01 0.50269010E+03</pdfrwt>
<pdfrwt beam="2">  1       21 0.11637535E+00 0.50269010E+03</pdfrwt>
<totfact> 0.94821881E+02</totfact>
</mgrwt>
</event>
<event>
 4    1  0.1147209E-002  0.5552027E+03  0.7818608E-02  0.1000297E+00
         21   -1    0    0  501  502  0.00000000000E+00  0.00000000000E+00  0.18879112997E+03  0.18879112997E+03  0.00000000000E+00 0. -1.
         21   -1    0    0  502  503 -0.00000000000E+00 -0.00000000000E+00 -0.17916278063E+04  0.17916278063E+04  0.00000000000E+00 0. -1.
    9000007    1    1    2  501    0 -0.22903737629E+02  0.38435066000E+03 -0.50655184160E+03  0.75156156053E+03  0.40000000000E+03 0. -1.
   -9000007    1    1    2    0  503  0.22903737629E+02 -0.38435066000E+03 -0.10962848347E+04  0.12288573757E+04  0.40000000000E+03 0. -1.
<mgrwt>
<rscale>  2 0.55520268E+03</rscale>
<asrwt>0</asrwt>
<pdfrwt beam="1">  1       21 0.29044789E-01 0.55520268E+03</pdfrwt>
<pdfrwt beam="2">  1       21 0.27563505E+00 0.55520268E+03</pdfrwt>
<totfact> 0.40703768E+02</totfact>
</mgrwt>
</event>
<event>
 4    1  0.1147209E-002  0.4017243E+03  0.7818608E-02  0.1043184E+00
         21   -1    0    0  503  502  0.00000000000E+00  0.00000000000E+00  0.16954251957E+03  0.16954251957E+03  0.00000000000E+00 0. -1.
         21   -1    0    0  501  503 -0.00000000000E+00 -0.00000000000E+00 -0.11522293604E+04  0.11522293604E+04  0.00000000000E+00 0. -1.
    9000007    1    1    2  501    0  0.26037053716E+02  0.26541396884E+02 -0.76693267013E+03  0.86577600708E+03  0.40000000000E+03 0. -1.
   -9000007    1    1    2    0  502 -0.26037053716E+02 -0.26541396884E+02 -0.21575417070E+03  0.45599587289E+03  0.40000000000E+03 0. -1.
<mgrwt>
<rscale>  2 0.40172425E+03</rscale>
<asrwt>0</asrwt>
<pdfrwt beam="1">  1       21 0.26083466E-01 0.40172425E+03</pdfrwt>
<pdfrwt beam="2">  1       21 0.17726605E+00 0.40172425E+03</pdfrwt>
<totfact> 0.23098639E+03</totfact>
</mgrwt>
</event>
<event>
 4    1  0.1147209E-002  0.4488684E+03  0.7818608E-02  0.1028060E+00
         21   -1    0    0  501  502  0.00000000000E+00  0.00000000000E+00  0.31932432692E+03  0.31932432692E+03  0.00000000000E+00 0.  1.
         21   -1    0    0  502  503 -0.00000000000E+00 -0.00000000000E+00 -0.11010997034E+04  0.11010997034E+04  0.00000000000E+00 0.  1.
    9000007    1    1    2  501    0 -0.15087935898E+03 -0.13681468916E+03  0.73184260492E+02  0.45479531233E+03  0.40000000000E+03 0.  1.
   -9000007    1    1    2    0  503  0.15087935898E+03  0.13681468916E+03 -0.85495963697E+03  0.96562871798E+03  0.40000000000E+03 0.  1.
<mgrwt>
<rscale>  2 0.44886840E+03</rscale>
<asrwt>0</asrwt>
<pdfrwt beam="1">  1       21 0.49126819E-01 0.44886840E+03</pdfrwt>
<pdfrwt beam="2">  1       21 0.16939996E+00 0.44886840E+03</pdfrwt>
<totfact> 0.71199881E+02</totfact>
</mgrwt>
</event>
<event>
 4    1  0.1147209E-002  0.8202412E+03  0.7818608E-02  0.9531172E-01
         21   -1    0    0  501  502  0.00000000000E+00  0.00000000000E+00  0.48852853436E+03  0.48852853436E+03  0.00000000000E+00 0.  1.
         21   -1    0    0  502  503 -0.00000000000E+00 -0.00000000000E+00 -0.16167286747E+04  0.16167286747E+04  0.00000000000E+00 0. -1.
    9000007    1    1    2  501    0  0.37660425456E+03 -0.60906881870E+03 -0.15892164308E+03  0.83549487078E+03  0.40000000000E+03 0.  1.
   -9000007    1    1    2    0  503 -0.37660425456E+03  0.60906881870E+03 -0.96927849723E+03  0.12697623383E+04  0.40000000000E+03 0. -1.
<mgrwt>
<rscale>  2 0.82024118E+03</rscale>
<asrwt>0</asrwt>
<pdfrwt beam="1">  1       21 0.75158236E-01 0.82024118E+03</pdfrwt>
<pdfrwt beam="2">  1       21 0.24872749E+00 0.82024118E+03</pdfrwt>
<totfact> 0.71249232E+01</totfact>
</mgrwt>
</event>
<event>
 4    1  0.1147209E-002  0.4118046E+03  0.7818608E-02  0.1039767E+00
         21   -1    0    0  503  502  0.00000000000E+00  0.00000000000E+00  0.19365054158E+03  0.19365054158E+03  0.00000000000E+00 0.  1.
         21   -1    0    0  501  503 -0.00000000000E+00 -0.00000000000E+00 -0.15159323779E+04  0.15159323779E+04  0.00000000000E+00 0. -1.
    9000007    1    1    2  501    0 -0.51526907782E+02  0.83234535360E+02 -0.12166400929E+04  0.12844438974E+04  0.40000000000E+03 0. -1.
   -9000007    1    1    2    0  502  0.51526907782E+02 -0.83234535360E+02 -0.10564174346E+03  0.42513902204E+03  0.40000000000E+03 0.  1.
<mgrwt>
<rscale>  2 0.41180458E+03</rscale>
<asrwt>0</asrwt>
<pdfrwt beam="1">  1       21 0.29792390E-01 0.41180458E+03</pdfrwt>
<pdfrwt beam="2">  1       21 0.23322037E+00 0.41180458E+03</pdfrwt>
<totfact> 0.75677298E+02</totfact>
</mgrwt>
</event>
<event>
 4    1  0.1147209E-002  0.4266911E+03  0.7818608E-02  0.1034910E+00
         21   -1    0    0  501  502  0.00000000000E+00  0.00000000000E+00  0.29096017117E+03  0.29096017117E+03  0.00000000000E+00 0.  1.
         21   -1    0    0  502  503 -0.00000000000E+00 -0.00000000000E+00 -0.75030319618E+03  0.75030319618E+03  0.00000000000E+00 0.  1.
    9000007    1    1    2  501    0 -0.85212995610E+02 -0.12167177136E+03 -0.17538663867E+02  0.42705137782E+03  0.40000000000E+03 0. -1.
   -9000007    1    1    2    0  503  0.85212995610E+02  0.12167177136E+03 -0.44180436114E+03  0.61421198954E+03  0.40000000000E+03 0. -1.
<mgrwt>
<rscale>  2 0.42669108E+03</rscale>
<asrwt>0</asrwt>
<pdfrwt beam="1">  1       21 0.44763104E-01 0.42669108E+03</pdfrwt>
<pdfrwt beam="2">  1       21 0.11543126E+00 0.42669108E+03</pdfrwt>
<totfact> 0.24264580E+03</totfact>
</mgrwt>
</event>
<event>
 4    1  0.1147209E-002  0.5615329E+03  0.7818608E-02  0.9988592E-01
         21   -1    0    0  503  502  0.00000000000E+00  0.00000000000E+00  0.15002316316E+04  0.15002316316E+04  0.00000000000E+00 0. -1.
         21   -1    0    0  501  503 -0.00000000000E+00 -0.00000000000E+00 -0.21562445318E+03  0.21562445318E+03  0.00000000000E+00 0. -1.
    9000007    1    1    2  501    0 -0.10459825709E+03 -0.37997164576E+03  0.50598219056E+03  0.75586852305E+03  0.40000000000E+03 0. -1.
   -9000007    1    1    2    0  502  0.10459825709E+03  0.37997164576E+03  0.77862498785E+03  0.95998756173E+03  0.40000000000E+03 0. -1.
<mgrwt>
<rscale>  2 0.56153294E+03</rscale>
<asrwt>0</asrwt>
<pdfrwt beam="1">  1       21 0.23080486E+00 0.56153294E+03</pdfrwt>
<pdfrwt beam="2">  1       21 0.33172994E-01 0.56153294E+03</pdfrwt>
<totfact> 0.58968032E+02</totfact>
</mgrwt>
</event>
<event>
 4    1  0.1147209E-002  0.4264989E+03  0.7818608E-02  0.1034972E+00
         21   -1    0    0  503  502  0.00000000000E+00  0.00000000000E+00  0.23248887328E+04  0.23248887328E+04  0.00000000000E+00 0.  1.
         21   -1    0    0  501  503 -0.00000000000E+00 -0.00000000000E+00 -0.78271823016E+02  0.78271823016E+02  0.00000000000E+00 0.  1.
    9000007    1    1    2  501    0  0.14529821356E+03 -0.28102053938E+02  0.11472066078E+04  0.12239216876E+04  0.40000000000E+03 0.  1.
   -9000007    1    1    2    0  502 -0.14529821356E+03  0.28102053938E+02  0.10994103019E+04  0.11792388682E+04  0.40000000000E+03 0.  1.
<mgrwt>
<rscale>  2 0.42649888E+03</rscale>
<asrwt>0</asrwt>
<pdfrwt beam="1">  1       21 0.35767514E+00 0.42649888E+03</pdfrwt>
<pdfrwt beam="2">  1       21 0.12041821E-01 0.42649888E+03</pdfrwt>
<totfact> 0.73476496E+02</totfact>
</mgrwt>
</event>
<event>
 4    1  0.1147209E-002  0.4226724E+03  0.7818608E-02  0.1036200E+00
         21   -1    0    0  503  502  0.00000000000E+00  0.00000000000E+00  0.23933396197E+03  0.23933396197E+03  0.00000000000E+00 0. -1.
         21   -1    0    0  501  503 -0.00000000000E+00 -0.00000000000E+00 -0.78652697925E+03  0.78652697925E+03  0.00000000000E+00 0.  1.
    9000007    1    1    2  501    0  0.11733872343E+03  0.69882883475E+02 -0.38937368955E+03  0.57468588249E+03  0.40000000000E+03 0.  1.
   -9000007    1    1    2    0  502 -0.11733872343E+03 -0.69882883475E+02 -0.15781932773E+03  0.45117505873E+03  0.40000000000E+03 0. -1.
<mgrwt>
<rscale>  2 0.42267244E+03</rscale>
<asrwt>0</asrwt>
<pdfrwt beam="1">  1       21 0.36820610E-01 0.42267244E+03</pdfrwt>
<pdfrwt beam="2">  1       21 0.12100415E+00 0.42267244E+03</pdfrwt>
<totfact> 0.32279677E+03</totfact>
</mgrwt>
</event>
<event>
 4    1  0.1147209E-002  0.4980627E+03  0.7818608E-02  0.1014286E+00
         21   -1    0    0  501  502  0.00000000000E+00  0.00000000000E+00  0.56371482611E+03  0.56371482611E+03  0.00000000000E+00 0.  1.
         21   -1    0    0  502  503 -0.00000000000E+00 -0.00000000000E+00 -0.44541443375E+03  0.44541443375E+03  0.00000000000E+00 0.  1.
    9000007    1    1    2  501    0 -0.28039400929E+03  0.97188501291E+02  0.11448916208E+03  0.51105202618E+03  0.40000000000E+03 0.  1.
   -9000007    1    1    2    0  503  0.28039400929E+03 -0.97188501291E+02  0.38112302849E+01  0.49807723367E+03  0.40000000000E+03 0.  1.
<mgrwt>
<rscale>  2 0.49806265E+03</rscale>
<asrwt>0</asrwt>
<pdfrwt beam="1">  1       21 0.86725359E-01 0.49806265E+03</pdfrwt>
<pdfrwt beam="2">  1       21 0.68525297E-01 0.49806265E+03</pdfrwt>
<totfact> 0.18836554E+03</totfact>
</mgrwt>
</event>
<event>
 4    1  0.1147209E-002  0.5859914E+03  0.7818608E-02  0.9934903E-01
         21   -1    0    0  501  502  0.00000000000E+00  0.00000000000E+00  0.65729074106E+03  0.65729074106E+03  0.00000000000E+00 0.  1.
         21   -1    0    0  502  503 -0.00000000000E+00 -0.00000000000E+00 -0.53025984531E+03  0.53025984531E+03  0.00000000000E+00 0. -1.
    9000007    1    1    2  501    0 -0.41452558245E+03 -0.10749184651E+03  0.13568558585E+03  0.60149524834E+03  0.40000000000E+03 0.  1.
   -9000007    1    1    2    0  503  0.41452558245E+03  0.10749184651E+03 -0.86546900968E+01  0.58605533803E+03  0.40000000000E+03 0. -1.
<mgrwt>
<rscale>  2 0.58599143E+03</rscale>
<asrwt>0</asrwt>
<pdfrwt beam="1">  1       21 0.10112165E+00 0.58599143E+03</pdfrwt>
<pdfrwt beam="2">  1       21 0.81578438E-01 0.58599143E+03</pdfrwt>
<totfact> 0.84898062E+02</totfact>
</mgrwt>
</event>
<event>
 4    1  0.1147209E-002  0.6605875E+03  0.7818608E-02  0.9787113E-01
         21   -1    0    0  503  502  0.00000000000E+00  0.00000000000E+00  0.79706686534E+03  0.79706686534E+03  0.00000000000E+00 0. -1.
         21   -1    0    0  501  503 -0.00000000000E+00 -0.00000000000E+00 -0.56458197713E+03  0.56458197713E+03  0.00000000000E+00 0.  1.
    9000007    1    1    2  501    0  0.51960541536E+03 -0.79912831566E+02  0.23474609249E+03  0.70105747002E+03  0.40000000000E+03 0. -1.
   -9000007    1    1    2    0  502 -0.51960541536E+03  0.79912831566E+02 -0.22612042863E+01  0.66059137246E+03  0.40000000000E+03 0.  1.
<mgrwt>
<rscale>  2 0.66058750E+03</rscale>
<asrwt>0</asrwt>
<pdfrwt beam="1">  1       21 0.12262567E+00 0.66058750E+03</pdfrwt>
<pdfrwt beam="2">  1       21 0.86858765E-01 0.66058750E+03</pdfrwt>
<totfact> 0.44084412E+02</totfact>
</mgrwt>
</event>
<event>
 4    1  0.1147209E-002  0.8065966E+03  0.7818608E-02  0.9550518E-01
         21   -1    0    0  501  502  0.00000000000E+00  0.00000000000E+00  0.91755905958E+03  0.91755905958E+03  0.00000000000E+00 0. -1.
         21   -1    0    0  502  503 -0.00000000000E+00 -0.00000000000E+00 -0.92932491799E+03  0.92932491799E+03  0.00000000000E+00 0.  1.
    9000007    1    1    2  501    0 -0.64232325277E+03  0.27931868940E+03  0.44369532829E+03  0.92057788136E+03  0.40000000000E+03 0. -1.
   -9000007    1    1    2    0  503  0.64232325277E+03 -0.27931868940E+03 -0.45546118670E+03  0.92630609622E+03  0.40000000000E+03 0.  1.
<mgrwt>
<rscale>  2 0.80659661E+03</rscale>
<asrwt>0</asrwt>
<pdfrwt beam="1">  1       21 0.14116293E+00 0.80659661E+03</pdfrwt>
<pdfrwt beam="2">  1       21 0.14297306E+00 0.80659661E+03</pdfrwt>
<totfact> 0.82327459E+01</totfact>
</mgrwt>
</event>
<event>
 4    1  0.1147209E-002  0.4671101E+03  0.7818608E-02  0.1022739E+00
         21   -1    0    0  501  502  0.00000000000E+00  0.00000000000E+00  0.52486337132E+03  0.52486337132E+03  0.00000000000E+00 0.  1.
         21   -1    0    0  502  503 -0.00000000000E+00 -0.00000000000E+00 -0.41629140004E+03  0.41629140004E+03  0.00000000000E+00 0.  1.
    9000007    1    1    2  501    0  0.23595247914E+03  0.50182285376E+02  0.71846662951E+02  0.47260319207E+03  0.40000000000E+03 0.  1.
   -9000007    1    1    2    0  503 -0.23595247914E+03 -0.50182285376E+02  0.36725308325E+02  0.46855157928E+03  0.40000000000E+03 0.  1.
<mgrwt>
<rscale>  2 0.46711009E+03</rscale>
<asrwt>0</asrwt>
<pdfrwt beam="1">  1       21 0.80748210E-01 0.46711009E+03</pdfrwt>
<pdfrwt beam="2">  1       21 0.64044831E-01 0.46711009E+03</pdfrwt>
<totfact> 0.26162493E+03</totfact>
</mgrwt>
</event>
<event>
 4    1  0.1147209E-002  0.5231688E+03  0.7818608E-02  0.1007902E+00
         21   -1    0    0  503  502  0.00000000000E+00  0.00000000000E+00  0.78876661342E+03  0.78876661342E+03  0.00000000000E+00 0.  1.
         21   -1    0    0  501  503 -0.00000000000E+00 -0.00000000000E+00 -0.46699942393E+03  0.46699942393E+03  0.00000000000E+00 0.  1.
    9000007    1    1    2  501    0 -0.23530982955E+03 -0.24152618889E+03 -0.15739093445E+03  0.54633096384E+03  0.40000000000E+03 0.  1.
   -9000007    1    1    2    0  502  0.23530982955E+03  0.24152618889E+03  0.47915812393E+03  0.70943507352E+03  0.40000000000E+03 0.  1.
<mgrwt>
<rscale>  2 0.52316882E+03</rscale>
<asrwt>0</asrwt>
<pdfrwt beam="1">  1       21 0.12134871E+00 0.52316882E+03</pdfrwt>
<pdfrwt beam="2">  1       21 0.71846065E-01 0.52316882E+03</pdfrwt>
<totfact> 0.73628568E+02</totfact>
</mgrwt>
</event>
<event>
 4    1  0.1147209E-002  0.4077843E+03  0.7818608E-02  0.1041117E+00
         21   -1    0    0  503  502  0.00000000000E+00  0.00000000000E+00  0.42150645822E+03  0.42150645822E+03  0.00000000000E+00 0.  1.
         21   -1    0    0  501  503 -0.00000000000E+00 -0.00000000000E+00 -0.43855966678E+03  0.43855966678E+03  0.00000000000E+00 0.  1.
    9000007    1    1    2  501    0  0.11172494277E+02  0.78506037840E+02 -0.14481677948E+03  0.43273539516E+03  0.40000000000E+03 0. -1.
   -9000007    1    1    2    0  502 -0.11172494277E+02 -0.78506037840E+02  0.12776357092E+03  0.42733072983E+03  0.40000000000E+03 0. -1.
<mgrwt>
<rscale>  2 0.40778428E+03</rscale>
<asrwt>0</asrwt>
<pdfrwt beam="1">  1       21 0.64847148E-01 0.40778428E+03</pdfrwt>
<pdfrwt beam="2">  1       21 0.67470718E-01 0.40778428E+03</pdfrwt>
<totfact> 0.39114080E+03</totfact>
</mgrwt>
</event>
<event>
 4    1  0.1147209E-002  0.4441093E+03  0.7818608E-02  0.1029493E+00
         21   -1    0    0  501  502  0.00000000000E+00  0.00000000000E+00  0.60612430141E+03  0.60612430141E+03  0.00000000000E+00 0.  1.
         21   -1    0    0  502  503 -0.00000000000E+00 -0.00000000000E+00 -0.33038828664E+03  0.33038828664E+03  0.00000000000E+00 0. -1.
    9000007    1    1    2  501    0  0.19139789087E+03 -0.24493588784E+02  0.19540268788E+03  0.48519614482E+03  0.40000000000E+03 0. -1.
   -9000007    1    1    2    0  503 -0.19139789087E+03  0.24493588784E+02  0.80333326893E+02  0.45131644323E+03  0.40000000000E+03 0.  1.
<mgrwt>
<rscale>  2 0.44410932E+03</rscale>
<asrwt>0</asrwt>
<pdfrwt beam="1">  1       21 0.93249893E-01 0.44410932E+03</pdfrwt>
<pdfrwt beam="2">  1       21 0.50828967E-01 0.44410932E+03</pdfrwt>
<totfact> 0.31076162E+03</totfact>
</mgrwt>
</event>
<event>
 4    1  0.1147209E-002  0.4419706E+03  0.7818608E-02  0.1030144E+00
         21   -1    0    0  503  502  0.00000000000E+00  0.00000000000E+00  0.70045709376E+03  0.70045709376E+03  0.00000000000E+00 0. -1.
         21   -1    0    0  501  503 -0.00000000000E+00 -0.00000000000E+00 -0.47821914206E+03  0.47821914206E+03  0.00000000000E+00 0. -1.
    9000007    1    1    2  501    0 -0.97804586064E+01  0.18772946757E+03 -0.26938206004E+03  0.51759511651E+03  0.40000000000E+03 0. -1.
   -9000007    1    1    2    0  502  0.97804586064E+01 -0.18772946757E+03  0.49162001174E+03  0.66108111931E+03  0.40000000000E+03 0. -1.
<mgrwt>
<rscale>  2 0.44197060E+03</rscale>
<asrwt>0</asrwt>
<pdfrwt beam="1">  1       21 0.10776263E+00 0.44197060E+03</pdfrwt>
<pdfrwt beam="2">  1       21 0.73572176E-01 0.44197060E+03</pdfrwt>
<totfact> 0.97037679E+02</totfact>
</mgrwt>
</event>
<event>
 4    1  0.1147209E-002  0.4272863E+03  0.7818608E-02  0.1034721E+00
         21   -1    0    0  501  502  0.00000000000E+00  0.00000000000E+00  0.34604224632E+03  0.34604224632E+03  0.00000000000E+00 0.  1.
         21   -1    0    0  502  503 -0.00000000000E+00 -0.00000000000E+00 -0.90476994776E+03  0.90476994776E+03  0.00000000000E+00 0. -1.
    9000007    1    1    2  501    0  0.63617023609E+02 -0.13611201386E+03  0.12442908033E+03  0.44503505709E+03  0.40000000000E+03 0.  1.
   -9000007    1    1    2    0  503 -0.63617023609E+02  0.13611201386E+03 -0.68315678177E+03  0.80577713699E+03  0.40000000000E+03 0. -1.
<mgrwt>
<rscale>  2 0.42728633E+03</rscale>
<asrwt>0</asrwt>
<pdfrwt beam="1">  1       21 0.53237269E-01 0.42728633E+03</pdfrwt>
<pdfrwt beam="2">  1       21 0.13919538E+00 0.42728633E+03</pdfrwt>
<totfact> 0.10377581E+03</totfact>
</mgrwt>
</event>
<event>
 4    1  0.1147209E-002  0.5656797E+03  0.7818608E-02  0.9979285E-01
         21   -1    0    0  501  502  0.00000000000E+00  0.00000000000E+00  0.51339560326E+03  0.51339560326E+03  0.00000000000E+00 0.  1.
         21   -1    0    0  502  503 -0.00000000000E+00 -0.00000000000E+00 -0.62487046707E+03  0.62487046707E+03  0.00000000000E+00 0. -1.
    9000007    1    1    2  501    0 -0.34217854799E+03 -0.20714089330E+03 -0.84374954755E+02  0.57193762018E+03  0.40000000000E+03 0.  1.
   -9000007    1    1    2    0  503  0.34217854799E+03  0.20714089330E+03 -0.27099909060E+02  0.56632845015E+03  0.40000000000E+03 0. -1.
<mgrwt>
<rscale>  2 0.56567969E+03</rscale>
<asrwt>0</asrwt>
<pdfrwt beam="1">  1       21 0.78983939E-01 0.56567969E+03</pdfrwt>
<pdfrwt beam="2">  1       21 0.96133918E-01 0.56567969E+03</pdfrwt>
<totfact> 0.10420008E+03</totfact>
</mgrwt>
</event>
<event>
 4    1  0.1147209E-002  0.4253375E+03  0.7818608E-02  0.1035343E+00
         21   -1    0    0  503  502  0.00000000000E+00  0.00000000000E+00  0.87731305082E+03  0.87731305082E+03  0.00000000000E+00 0. -1.
         21   -1    0    0  501  503 -0.00000000000E+00 -0.00000000000E+00 -0.62450784143E+03  0.62450784143E+03  0.00000000000E+00 0. -1.
    9000007    1    1    2  501    0  0.14330096665E+03 -0.19412044268E+02 -0.48815310524E+03  0.64746076998E+03  0.40000000000E+03 0. -1.
   -9000007    1    1    2    0  502 -0.14330096665E+03  0.19412044268E+02  0.74095831463E+03  0.85436012227E+03  0.40000000000E+03 0. -1.
<mgrwt>
<rscale>  2 0.42533751E+03</rscale>
<asrwt>0</asrwt>
<pdfrwt beam="1">  1       21 0.13497124E+00 0.42533751E+03</pdfrwt>
<pdfrwt beam="2">  1       21 0.96078129E-01 0.42533751E+03</pdfrwt>
<totfact> 0.29615743E+02</totfact>
</mgrwt>
</event>
<event>
 4    1  0.1147209E-002  0.4083239E+03  0.7818608E-02  0.1040935E+00
         21   -1    0    0  503  502  0.00000000000E+00  0.00000000000E+00  0.14187852472E+04  0.14187852472E+04  0.00000000000E+00 0.  1.
         21   -1    0    0  501  503 -0.00000000000E+00 -0.00000000000E+00 -0.11760441767E+03  0.11760441767E+03  0.00000000000E+00 0.  1.
    9000007    1    1    2  501    0 -0.62925643272E+02 -0.52619256257E+02  0.62939772165E+03  0.75024656929E+03  0.40000000000E+03 0.  1.
   -9000007    1    1    2    0  502  0.62925643272E+02  0.52619256257E+02  0.67178310792E+03  0.78614309562E+03  0.40000000000E+03 0.  1.
<mgrwt>
<rscale>  2 0.40832392E+03</rscale>
<asrwt>0</asrwt>
<pdfrwt beam="1">  1       21 0.21827464E+00 0.40832392E+03</pdfrwt>
<pdfrwt beam="2">  1       21 0.18092988E-01 0.40832392E+03</pdfrwt>
<totfact> 0.24650219E+03</totfact>
</mgrwt>
</event>
<event>
 4    1  0.1147209E-002  0.4578178E+03  0.7818608E-02  0.1025416E+00
         21   -1    0    0  501  502  0.00000000000E+00  0.00000000000E+00  0.34910721060E+03  0.34910721060E+03  0.00000000000E+00 0.  1.
         21   -1    0    0  502  503 -0.00000000000E+00 -0.00000000000E+00 -0.78548110462E+03  0.78548110462E+03  0.00000000000E+00 0. -1.
    9000007    1    1    2  501    0 -0.21565384478E+03  0.55592574245E+02  0.57200737846E+02  0.46137732875E+03  0.40000000000E+03 0.  1.
   -9000007    1    1    2    0  503  0.21565384478E+03 -0.55592574245E+02 -0.49357463187E+03  0.67321098647E+03  0.40000000000E+03 0.  1.
<mgrwt>
<rscale>  2 0.45781777E+03</rscale>
<asrwt>0</asrwt>
<pdfrwt beam="1">  1       21 0.53708802E-01 0.45781777E+03</pdfrwt>
<pdfrwt beam="2">  1       21 0.12084325E+00 0.45781777E+03</pdfrwt>
<totfact> 0.14509629E+03</totfact>
</mgrwt>
</event>
<event>
 4    1  0.1147209E-002  0.4170650E+03  0.7818608E-02  0.1038026E+00
         21   -1    0    0  503  502  0.00000000000E+00  0.00000000000E+00  0.85879985728E+03  0.85879985728E+03  0.00000000000E+00 0.  1.
         21   -1    0    0  501  503 -0.00000000000E+00 -0.00000000000E+00 -0.27282085718E+03  0.27282085718E+03  0.00000000000E+00 0.  1.
    9000007    1    1    2  501    0  0.64691005776E+02  0.98784137426E+02  0.58163940715E+01  0.41710557713E+03  0.40000000000E+03 0.  1.
   -9000007    1    1    2    0  502 -0.64691005776E+02 -0.98784137426E+02  0.58016260602E+03  0.71451513732E+03  0.40000000000E+03 0.  1.
<mgrwt>
<rscale>  2 0.41706502E+03</rscale>
<asrwt>0</asrwt>
<pdfrwt beam="1">  1       21 0.13212305E+00 0.41706502E+03</pdfrwt>
<pdfrwt beam="2">  1       21 0.41972440E-01 0.41706502E+03</pdfrwt>
<totfact> 0.19722328E+03</totfact>
</mgrwt>
</event>
<event>
 4    1  0.1147209E-002  0.4870369E+03  0.7818608E-02  0.1017219E+00
         21   -1    0    0  501  502  0.00000000000E+00  0.00000000000E+00  0.29757757382E+03  0.29757757382E+03  0.00000000000E+00 0. -1.
         21   -1    0    0  502  503 -0.00000000000E+00 -0.00000000000E+00 -0.83499105397E+03  0.83499105397E+03  0.00000000000E+00 0. -1.
    9000007    1    1    2  501    0  0.25103824404E+03 -0.11909955853E+03 -0.14810603760E+03  0.50905825127E+03  0.40000000000E+03 0. -1.
   -9000007    1    1    2    0  503 -0.25103824404E+03  0.11909955853E+03 -0.38930744254E+03  0.62351037652E+03  0.40000000000E+03 0. -1.
<mgrwt>
<rscale>  2 0.48703686E+03</rscale>
<asrwt>0</asrwt>
<pdfrwt beam="1">  1       21 0.45781165E-01 0.48703686E+03</pdfrwt>
<pdfrwt beam="2">  1       21 0.12846016E+00 0.48703686E+03</pdfrwt>
<totfact> 0.17220859E+03</totfact>
</mgrwt>
</event>
<event>
 4    1  0.1147209E-002  0.4576921E+03  0.7818608E-02  0.1025453E+00
         21   -1    0    0  501  502  0.00000000000E+00  0.00000000000E+00  0.48040747248E+03  0.48040747248E+03  0.00000000000E+00 0.  1.
         21   -1    0    0  502  503 -0.00000000000E+00 -0.00000000000E+00 -0.51215679365E+03  0.51215679365E+03  0.00000000000E+00 0. -1.
    9000007    1    1    2  501    0 -0.23129274251E+02 -0.22123986755E+03  0.17543492131E+03  0.49016268109E+03  0.40000000000E+03 0.  1.
   -9000007    1    1    2    0  503  0.23129274251E+02  0.22123986755E+03 -0.20718424248E+03  0.50240158504E+03  0.40000000000E+03 0. -1.
<mgrwt>
<rscale>  2 0.45769208E+03</rscale>
<asrwt>0</asrwt>
<pdfrwt beam="1">  1       21 0.73908841E-01 0.45769208E+03</pdfrwt>
<pdfrwt beam="2">  1       21 0.78793353E-01 0.45769208E+03</pdfrwt>
<totfact> 0.20136009E+03</totfact>
</mgrwt>
</event>
<event>
 4    1  0.1147209E-002  0.7669094E+03  0.7818608E-02  0.9609189E-01
         21   -1    0    0  503  502  0.00000000000E+00  0.00000000000E+00  0.24235587112E+04  0.24235587112E+04  0.00000000000E+00 0.  1.
         21   -1    0    0  501  503 -0.00000000000E+00 -0.00000000000E+00 -0.24269986096E+03  0.24269986096E+03  0.00000000000E+00 0.  1.
    9000007    1    1    2  501    0 -0.14323855136E+03  0.63846125096E+03  0.10784733065E+04  0.13233498118E+04  0.40000000000E+03 0.  1.
   -9000007    1    1    2    0  502  0.14323855136E+03 -0.63846125096E+03  0.11023855438E+04  0.13429087604E+04  0.40000000000E+03 0.  1.
<mgrwt>
<rscale>  2 0.76690942E+03</rscale>
<asrwt>0</asrwt>
<pdfrwt beam="1">  1       21 0.37285517E+00 0.76690942E+03</pdfrwt>
<pdfrwt beam="2">  1       21 0.37338442E-01 0.76690942E+03</pdfrwt>
<totfact> 0.56263215E+01</totfact>
</mgrwt>
</event>
<event>
 4    1  0.1147209E-002  0.4557280E+03  0.7818608E-02  0.1026028E+00
         21   -1    0    0  503  502  0.00000000000E+00  0.00000000000E+00  0.14188993200E+03  0.14188993200E+03  0.00000000000E+00 0. -1.
         21   -1    0    0  501  503 -0.00000000000E+00 -0.00000000000E+00 -0.14645158089E+04  0.14645158089E+04  0.00000000000E+00 0. -1.
    9000007    1    1    2  501    0 -0.20237506305E+03 -0.82050696194E+02 -0.64266036877E+03  0.78784537345E+03  0.40000000000E+03 0. -1.
   -9000007    1    1    2    0  502  0.20237506305E+03  0.82050696194E+02 -0.67996550811E+03  0.81856036742E+03  0.40000000000E+03 0. -1.
<mgrwt>
<rscale>  2 0.45572797E+03</rscale>
<asrwt>0</asrwt>
<pdfrwt beam="1">  1       21 0.21829221E-01 0.45572797E+03</pdfrwt>
<pdfrwt beam="2">  1       21 0.22531012E+00 0.45572797E+03</pdfrwt>
<totfact> 0.15226117E+03</totfact>
</mgrwt>
</event>
<event>
 4    1  0.1147209E-002  0.4071966E+03  0.7818608E-02  0.1041316E+00
         21   -1    0    0  503  502  0.00000000000E+00  0.00000000000E+00  0.62879159656E+03  0.62879159656E+03  0.00000000000E+00 0. -1.
         21   -1    0    0  501  503 -0.00000000000E+00 -0.00000000000E+00 -0.29843374147E+03  0.29843374147E+03  0.00000000000E+00 0. -1.
    9000007    1    1    2  501    0 -0.25622807484E+02  0.71780947151E+02  0.70031281263E+01  0.40725676967E+03  0.40000000000E+03 0. -1.
   -9000007    1    1    2    0  502  0.25622807484E+02 -0.71780947151E+02  0.32335472696E+03  0.51996856836E+03  0.40000000000E+03 0. -1.
<mgrwt>
<rscale>  2 0.40719655E+03</rscale>
<asrwt>0</asrwt>
<pdfrwt beam="1">  1       21 0.96737168E-01 0.40719655E+03</pdfrwt>
<pdfrwt beam="2">  1       21 0.45912884E-01 0.40719655E+03</pdfrwt>
<totfact> 0.35777033E+03</totfact>
</mgrwt>
</event>
<event>
 4    1  0.1147209E-002  0.5987828E+03  0.7818608E-02  0.9907934E-01
         21   -1    0    0  503  502  0.00000000000E+00  0.00000000000E+00  0.70988721511E+03  0.70988721511E+03  0.00000000000E+00 0. -1.
         21   -1    0    0  501  503 -0.00000000000E+00 -0.00000000000E+00 -0.51458524154E+03  0.51458524154E+03  0.00000000000E+00 0.  1.
    9000007    1    1    2  501    0  0.10549655023E+03 -0.43291034951E+03  0.14386558038E+02  0.59895564600E+03  0.40000000000E+03 0.  1.
   -9000007    1    1    2    0  502 -0.10549655023E+03  0.43291034951E+03  0.18091541554E+03  0.62551681065E+03  0.40000000000E+03 0. -1.
<mgrwt>
<rscale>  2 0.59878284E+03</rscale>
<asrwt>0</asrwt>
<pdfrwt beam="1">  1       21 0.10921342E+00 0.59878284E+03</pdfrwt>
<pdfrwt beam="2">  1       21 0.79166960E-01 0.59878284E+03</pdfrwt>
<totfact> 0.74915201E+02</totfact>
</mgrwt>
</event>
<event>
 4    1  0.1147209E-002  0.4170634E+03  0.7818608E-02  0.1038026E+00
         21   -1    0    0  503  502  0.00000000000E+00  0.00000000000E+00  0.10575322869E+04  0.10575322869E+04  0.00000000000E+00 0.  1.
         21   -1    0    0  501  503 -0.00000000000E+00 -0.00000000000E+00 -0.17756016602E+03  0.17756016602E+03  0.00000000000E+00 0.  1.
    9000007    1    1    2  501    0  0.11807569521E+03 -0.22028438084E-01  0.27236844465E+03  0.49812291649E+03  0.40000000000E+03 0.  1.
   -9000007    1    1    2    0  502 -0.11807569521E+03  0.22028438084E-01  0.60760367625E+03  0.73696953647E+03  0.40000000000E+03 0.  1.
<mgrwt>
<rscale>  2 0.41706339E+03</rscale>
<asrwt>0</asrwt>
<pdfrwt beam="1">  1       21 0.16269727E+00 0.41706339E+03</pdfrwt>
<pdfrwt beam="2">  1       21 0.27316949E-01 0.41706339E+03</pdfrwt>
<totfact> 0.26739344E+03</totfact>
</mgrwt>
</event>
<event>
 4    1  0.1147209E-002  0.5096593E+03  0.7818608E-02  0.1011288E+00
         21   -1    0    0  501  502  0.00000000000E+00  0.00000000000E+00  0.19216956278E+03  0.19216956278E+03  0.00000000000E+00 0. -1.
         21   -1    0    0  502  503 -0.00000000000E+00 -0.00000000000E+00 -0.13903006618E+04  0.13903006618E+04  0.00000000000E+00 0.  1.
    9000007    1    1    2  501    0 -0.31227391665E+03 -0.47302883543E+02 -0.46719815535E+03  0.69139473398E+03  0.40000000000E+03 0. -1.
   -9000007    1    1    2    0  503  0.31227391665E+03  0.47302883543E+02 -0.73093294369E+03  0.89107549062E+03  0.40000000000E+03 0.  1.
<mgrwt>
<rscale>  2 0.50965926E+03</rscale>
<asrwt>0</asrwt>
<pdfrwt beam="1">  1       21 0.29564549E-01 0.50965926E+03</pdfrwt>
<pdfrwt beam="2">  1       21 0.21389241E+00 0.50965926E+03</pdfrwt>
<totfact> 0.97386723E+02</totfact>
</mgrwt>
</event>
<event>
 4    1  0.1147209E-002  0.5304590E+03  0.7818608E-02  0.1006121E+00
         21   -1    0    0  503  502  0.00000000000E+00  0.00000000000E+00  0.13195417847E+04  0.13195417847E+04  0.00000000000E+00 0. -1.
         21   -1    0    0  501  503 -0.00000000000E+00 -0.00000000000E+00 -0.27385463959E+03  0.27385463959E+03  0.00000000000E+00 0. -1.
    9000007    1    1    2  501    0 -0.27018823105E+03  0.21996597806E+03  0.14804160507E+03  0.55072954209E+03  0.40000000000E+03 0. -1.
   -9000007    1    1    2    0  502  0.27018823105E+03 -0.21996597806E+03  0.89764554005E+03  0.10426668822E+04  0.40000000000E+03 0. -1.
<mgrwt>
<rscale>  2 0.53045896E+03</rscale>
<asrwt>0</asrwt>
<pdfrwt beam="1">  1       21 0.20300643E+00 0.53045896E+03</pdfrwt>
<pdfrwt beam="2">  1       21 0.42131484E-01 0.53045896E+03</pdfrwt>
<totfact> 0.55423193E+02</totfact>
</mgrwt>
</event>
<event>
 4    1  0.1147209E-002  0.5003774E+03  0.7818608E-02  0.1013680E+00
         21   -1    0    0  501  502  0.00000000000E+00  0.00000000000E+00  0.64816022610E+03  0.64816022610E+03  0.00000000000E+00 0. -1.
         21   -1    0    0  502  503 -0.00000000000E+00 -0.00000000000E+00 -0.41512236192E+03  0.41512236192E+03  0.00000000000E+00 0. -1.
    9000007    1    1    2  501    0  0.27666715890E+03  0.11761287927E+03 -0.23592743264E+02  0.50093325276E+03  0.40000000000E+03 0. -1.
   -9000007    1    1    2    0  503 -0.27666715890E+03 -0.11761287927E+03  0.25663060744E+03  0.56234933525E+03  0.40000000000E+03 0. -1.
<mgrwt>
<rscale>  2 0.50037736E+03</rscale>
<asrwt>0</asrwt>
<pdfrwt beam="1">  1       21 0.99716958E-01 0.50037736E+03</pdfrwt>
<pdfrwt beam="2">  1       21 0.63864979E-01 0.50037736E+03</pdfrwt>
<totfact> 0.15775438E+03</totfact>
</mgrwt>
</event>
<event>
 4    1  0.1147209E-002  0.4219729E+03  0.7818608E-02  0.1036426E+00
         21   -1    0    0  503  502  0.00000000000E+00  0.00000000000E+00  0.17908390955E+04  0.17908390955E+04  0.00000000000E+00 0.  1.
         21   -1    0    0  501  503 -0.00000000000E+00 -0.00000000000E+00 -0.11961557477E+03  0.11961557477E+03  0.00000000000E+00 0.  1.
    9000007    1    1    2  501    0  0.13291980102E+03  0.19836579205E+02  0.12280264505E+04  0.12985030329E+04  0.40000000000E+03 0.  1.
   -9000007    1    1    2    0  502 -0.13291980102E+03 -0.19836579205E+02  0.44319707021E+03  0.61195163732E+03  0.40000000000E+03 0.  1.
<mgrwt>
<rscale>  2 0.42197294E+03</rscale>
<asrwt>0</asrwt>
<pdfrwt beam="1">  1       21 0.27551369E+00 0.42197294E+03</pdfrwt>
<pdfrwt beam="2">  1       21 0.18402397E-01 0.42197294E+03</pdfrwt>
<totfact> 0.10528229E+03</totfact>
</mgrwt>
</event>
