<event>
 4    1  0.4918322E-002  0.5083980E+03  0.7818608E-02  0.1011610E+00
         21   -1    0    0  501  502  0.00000000000E+00  0.00000000000E+00  0.38739259394E+03  0.38739259394E+03  0.00000000000E+00 0.  1.
         21   -1    0    0  502  503 -0.00000000000E+00 -0.00000000000E+00 -0.95221668809E+03  0.95221668809E+03  0.00000000000E+00 0. -1.
    9000007    1    1    2  501    0  0.19205944549E+03  0.24815663741E+03  0.84038177799E+02  0.51529696547E+03  0.40000000000E+03 0.  1.
   -9000007    1    1    2    0  503 -0.19205944549E+03 -0.24815663741E+03 -0.64886227195E+03  0.82431231657E+03  0.40000000000E+03 0. -1.
<mgrwt>
<rscale>  2 0.50839802E+03</rscale>
<asrwt>0</asrwt>
<pdfrwt beam="1">  1       21 0.59598861E-01 0.50839802E+03</pdfrwt>
<pdfrwt beam="2">  1       21 0.14649487E+00 0.50839802E+03</pdfrwt>
<totfact> 0.68471380E+02</totfact>
</mgrwt>
</event>
<event>
 4    1  0.4918322E-002  0.4299743E+03  0.7818608E-02  0.1033868E+00
         21   -1    0    0  503  502  0.00000000000E+00  0.00000000000E+00  0.23585145071E+03  0.23585145071E+03  0.00000000000E+00 0.  1.
         21   -1    0    0  501  503 -0.00000000000E+00 -0.00000000000E+00 -0.10732479639E+04  0.10732479639E+04  0.00000000000E+00 0.  1.
    9000007    1    1    2  501    0 -0.14004282935E+03 -0.72566578972E+02 -0.75857547945E+03  0.87196024018E+03  0.40000000000E+03 0.  1.
   -9000007    1    1    2    0  502  0.14004282935E+03  0.72566578972E+02 -0.78821033712E+02  0.43713917440E+03  0.40000000000E+03 0.  1.
<mgrwt>
<rscale>  2 0.42997430E+03</rscale>
<asrwt>0</asrwt>
<pdfrwt beam="1">  1       21 0.36284839E-01 0.42997430E+03</pdfrwt>
<pdfrwt beam="2">  1       21 0.16511507E+00 0.42997430E+03</pdfrwt>
<totfact> 0.14477536E+03</totfact>
</mgrwt>
</event>
<event>
 4    1  0.4918322E-002  0.4062912E+03  0.7818608E-02  0.1041623E+00
         21   -1    0    0  503  502  0.00000000000E+00  0.00000000000E+00  0.36493074807E+03  0.36493074807E+03  0.00000000000E+00 0. -1.
         21   -1    0    0  501  503 -0.00000000000E+00 -0.00000000000E+00 -0.45588469197E+03  0.45588469197E+03  0.00000000000E+00 0.  1.
    9000007    1    1    2  501    0  0.67993225893E+02 -0.21200607276E+02 -0.81669247042E+02  0.41441815890E+03  0.40000000000E+03 0. -1.
   -9000007    1    1    2    0  502 -0.67993225893E+02  0.21200607276E+02 -0.92846968533E+01  0.40639728113E+03  0.40000000000E+03 0. -1.
<mgrwt>
<rscale>  2 0.40629121E+03</rscale>
<asrwt>0</asrwt>
<pdfrwt beam="1">  1       21 0.56143192E-01 0.40629121E+03</pdfrwt>
<pdfrwt beam="2">  1       21 0.70136107E-01 0.40629121E+03</pdfrwt>
<totfact> 0.49193287E+03</totfact>
</mgrwt>
</event>
<event>
 4    1  0.4918322E-002  0.4435887E+03  0.7818608E-02  0.1029651E+00
         21   -1    0    0  503  502  0.00000000000E+00  0.00000000000E+00  0.78062668300E+03  0.78062668300E+03  0.00000000000E+00 0.  1.
         21   -1    0    0  501  503 -0.00000000000E+00 -0.00000000000E+00 -0.16761946677E+04  0.16761946677E+04  0.00000000000E+00 0.  1.
    9000007    1    1    2  501    0  0.18728231198E+03 -0.41185363135E+02 -0.15800688130E+04  0.16411545791E+04  0.40000000000E+03 0.  1.
   -9000007    1    1    2    0  502 -0.18728231198E+03  0.41185363135E+02  0.68450082827E+03  0.81566677168E+03  0.40000000000E+03 0.  1.
<mgrwt>
<rscale>  2 0.44358866E+03</rscale>
<asrwt>0</asrwt>
<pdfrwt beam="1">  1       21 0.12009641E+00 0.44358866E+03</pdfrwt>
<pdfrwt beam="2">  1       21 0.25787610E+00 0.44358866E+03</pdfrwt>
<totfact> 0.23995679E+01</totfact>
</mgrwt>
</event>
<event>
 4    1  0.4918322E-002  0.5144531E+03  0.7818608E-02  0.1010074E+00
         21   -1    0    0  501  502  0.00000000000E+00  0.00000000000E+00  0.50777284375E+03  0.50777284375E+03  0.00000000000E+00 0. -1.
         21   -1    0    0  502  503 -0.00000000000E+00 -0.00000000000E+00 -0.52405826797E+03  0.52405826797E+03  0.00000000000E+00 0. -1.
    9000007    1    1    2  501    0 -0.31817811315E+02  0.32194666248E+03 -0.46101760444E+02  0.51651466476E+03  0.40000000000E+03 0.  1.
   -9000007    1    1    2    0  503  0.31817811315E+02 -0.32194666248E+03  0.29816336229E+02  0.51531644696E+03  0.40000000000E+03 0.  1.
<mgrwt>
<rscale>  2 0.51445313E+03</rscale>
<asrwt>0</asrwt>
<pdfrwt beam="1">  1       21 0.78118899E-01 0.51445313E+03</pdfrwt>
<pdfrwt beam="2">  1       21 0.80624349E-01 0.51445313E+03</pdfrwt>
<totfact> 0.16487147E+03</totfact>
</mgrwt>
</event>
<event>
 4    1  0.4918322E-002  0.4859606E+03  0.7818608E-02  0.1017510E+00
         21   -1    0    0  503  502  0.00000000000E+00  0.00000000000E+00  0.24857706887E+03  0.24857706887E+03  0.00000000000E+00 0. -1.
         21   -1    0    0  501  503 -0.00000000000E+00 -0.00000000000E+00 -0.10437203212E+04  0.10437203212E+04  0.00000000000E+00 0.  1.
    9000007    1    1    2  501    0 -0.19344771620E+03 -0.19681383947E+03 -0.59115533405E+03  0.76525965220E+03  0.40000000000E+03 0.  1.
   -9000007    1    1    2    0  502  0.19344771620E+03  0.19681383947E+03 -0.20398791825E+03  0.52703773783E+03  0.40000000000E+03 0. -1.
<mgrwt>
<rscale>  2 0.48596060E+03</rscale>
<asrwt>0</asrwt>
<pdfrwt beam="1">  1       21 0.38242626E-01 0.48596060E+03</pdfrwt>
<pdfrwt beam="2">  1       21 0.16057236E+00 0.48596060E+03</pdfrwt>
<totfact> 0.13742123E+03</totfact>
</mgrwt>
</event>
<event>
 4    1  0.4918322E-002  0.5264073E+03  0.7818608E-02  0.1007107E+00
         21   -1    0    0  501  502  0.00000000000E+00  0.00000000000E+00  0.52695527881E+03  0.52695527881E+03  0.00000000000E+00 0.  1.
         21   -1    0    0  502  503 -0.00000000000E+00 -0.00000000000E+00 -0.53201855631E+03  0.53201855631E+03  0.00000000000E+00 0. -1.
    9000007    1    1    2  501    0 -0.31548254431E+03 -0.13257216231E+03 -0.59500462511E+02  0.52975930291E+03  0.40000000000E+03 0. -1.
   -9000007    1    1    2    0  503  0.31548254431E+03  0.13257216231E+03  0.54437185011E+02  0.52921453220E+03  0.40000000000E+03 0.  1.
<mgrwt>
<rscale>  2 0.52640727E+03</rscale>
<asrwt>0</asrwt>
<pdfrwt beam="1">  1       21 0.81070043E-01 0.52640727E+03</pdfrwt>
<pdfrwt beam="2">  1       21 0.81849009E-01 0.52640727E+03</pdfrwt>
<totfact> 0.14551812E+03</totfact>
</mgrwt>
</event>
<event>
 4    1  0.4918322E-002  0.5207888E+03  0.7818608E-02  0.1008491E+00
         21   -1    0    0  503  502  0.00000000000E+00  0.00000000000E+00  0.39671645013E+03  0.39671645013E+03  0.00000000000E+00 0.  1.
         21   -1    0    0  501  503 -0.00000000000E+00 -0.00000000000E+00 -0.70864263496E+03  0.70864263496E+03  0.00000000000E+00 0.  1.
    9000007    1    1    2  501    0  0.28392023405E+03  0.17495785198E+03 -0.52200730824E+02  0.52339838132E+03  0.40000000000E+03 0.  1.
   -9000007    1    1    2    0  502 -0.28392023405E+03 -0.17495785198E+03 -0.25972545401E+03  0.58196070377E+03  0.40000000000E+03 0.  1.
<mgrwt>
<rscale>  2 0.52078878E+03</rscale>
<asrwt>0</asrwt>
<pdfrwt beam="1">  1       21 0.61033300E-01 0.52078878E+03</pdfrwt>
<pdfrwt beam="2">  1       21 0.10902194E+00 0.52078878E+03</pdfrwt>
<totfact> 0.13900621E+03</totfact>
</mgrwt>
</event>
<event>
 4    1  0.4918322E-002  0.6301458E+03  0.7818608E-02  0.9844764E-01
         21   -1    0    0  501  502  0.00000000000E+00  0.00000000000E+00  0.28772567676E+03  0.28772567676E+03  0.00000000000E+00 0.  1.
         21   -1    0    0  502  503 -0.00000000000E+00 -0.00000000000E+00 -0.15336466231E+04  0.15336466231E+04  0.00000000000E+00 0. -1.
    9000007    1    1    2  501    0  0.40819829687E+03 -0.26543894369E+03 -0.33478416083E+03  0.71355736752E+03  0.40000000000E+03 0. -1.
   -9000007    1    1    2    0  503 -0.40819829687E+03  0.26543894369E+03 -0.91113678546E+03  0.11078149323E+04  0.40000000000E+03 0.  1.
<mgrwt>
<rscale>  2 0.63014576E+03</rscale>
<asrwt>0</asrwt>
<pdfrwt beam="1">  1       21 0.44265489E-01 0.63014576E+03</pdfrwt>
<pdfrwt beam="2">  1       21 0.23594564E+00 0.63014576E+03</pdfrwt>
<totfact> 0.29399818E+02</totfact>
</mgrwt>
</event>
<event>
 4    1  0.4918322E-002  0.4105604E+03  0.7818608E-02  0.1040183E+00
         21   -1    0    0  503  502  0.00000000000E+00  0.00000000000E+00  0.66671985443E+03  0.66671985443E+03  0.00000000000E+00 0.  1.
         21   -1    0    0  501  503 -0.00000000000E+00 -0.00000000000E+00 -0.26227419389E+03  0.26227419389E+03  0.00000000000E+00 0.  1.
    9000007    1    1    2  501    0 -0.62255517877E+02  0.68440419306E+02  0.11403131269E+03  0.42610207788E+03  0.40000000000E+03 0.  1.
   -9000007    1    1    2    0  502  0.62255517877E+02 -0.68440419306E+02  0.29041434785E+03  0.50289197044E+03  0.40000000000E+03 0.  1.
<mgrwt>
<rscale>  2 0.41056040E+03</rscale>
<asrwt>0</asrwt>
<pdfrwt beam="1">  1       21 0.10257228E+00 0.41056040E+03</pdfrwt>
<pdfrwt beam="2">  1       21 0.40349876E-01 0.41056040E+03</pdfrwt>
<totfact> 0.40548336E+03</totfact>
</mgrwt>
</event>
<event>
 4    1  0.4918322E-002  0.4308854E+03  0.7818608E-02  0.1033581E+00
         21   -1    0    0  503  502  0.00000000000E+00  0.00000000000E+00  0.73987275182E+03  0.73987275182E+03  0.00000000000E+00 0.  1.
         21   -1    0    0  501  503 -0.00000000000E+00 -0.00000000000E+00 -0.32752519223E+03  0.32752519223E+03  0.00000000000E+00 0.  1.
    9000007    1    1    2  501    0  0.15980307147E+03  0.11187944053E+02  0.46425242678E+03  0.63339759039E+03  0.40000000000E+03 0.  1.
   -9000007    1    1    2    0  502 -0.15980307147E+03 -0.11187944053E+02 -0.51904867188E+02  0.43400035367E+03  0.40000000000E+03 0.  1.
<mgrwt>
<rscale>  2 0.43088536E+03</rscale>
<asrwt>0</asrwt>
<pdfrwt beam="1">  1       21 0.11382658E+00 0.43088536E+03</pdfrwt>
<pdfrwt beam="2">  1       21 0.50388491E-01 0.43088536E+03</pdfrwt>
<totfact> 0.19543451E+03</totfact>
</mgrwt>
</event>
<event>
 4    1  0.4918322E-002  0.5578187E+03  0.7818608E-02  0.9997002E-01
         21   -1    0    0  501  502  0.00000000000E+00  0.00000000000E+00  0.68285474266E+03  0.68285474266E+03  0.00000000000E+00 0.  1.
         21   -1    0    0  502  503 -0.00000000000E+00 -0.00000000000E+00 -0.15895618159E+04  0.15895618159E+04  0.00000000000E+00 0.  1.
    9000007    1    1    2  501    0 -0.38859896538E+03 -0.12351457852E+02  0.50627590645E+03  0.75331069809E+03  0.40000000000E+03 0.  1.
   -9000007    1    1    2    0  503  0.38859896538E+03  0.12351457852E+02 -0.14129829797E+04  0.15191058604E+04  0.40000000000E+03 0.  1.
<mgrwt>
<rscale>  2 0.55781871E+03</rscale>
<asrwt>0</asrwt>
<pdfrwt beam="1">  1       21 0.10505458E+00 0.55781871E+03</pdfrwt>
<pdfrwt beam="2">  1       21 0.24454797E+00 0.55781871E+03</pdfrwt>
<totfact> 0.37814257E+01</totfact>
</mgrwt>
</event>
<event>
 4    1  0.4918322E-002  0.5007067E+03  0.7818608E-02  0.1013595E+00
         21   -1    0    0  503  502  0.00000000000E+00  0.00000000000E+00  0.49080059485E+03  0.49080059485E+03  0.00000000000E+00 0.  1.
         21   -1    0    0  501  503 -0.00000000000E+00 -0.00000000000E+00 -0.53757978590E+03  0.53757978590E+03  0.00000000000E+00 0.  1.
    9000007    1    1    2  501    0 -0.28886989072E+03  0.85214027068E+02  0.91346946892E+02  0.50897102951E+03  0.40000000000E+03 0.  1.
   -9000007    1    1    2    0  502  0.28886989072E+03 -0.85214027068E+02 -0.13812613794E+03  0.51940935124E+03  0.40000000000E+03 0.  1.
<mgrwt>
<rscale>  2 0.50070674E+03</rscale>
<asrwt>0</asrwt>
<pdfrwt beam="1">  1       21 0.75507784E-01 0.50070674E+03</pdfrwt>
<pdfrwt beam="2">  1       21 0.82704582E-01 0.50070674E+03</pdfrwt>
<totfact> 0.16878389E+03</totfact>
</mgrwt>
</event>
<event>
 4    1  0.4918322E-002  0.4045946E+03  0.7818608E-02  0.1042200E+00
         21   -1    0    0  503  502  0.00000000000E+00  0.00000000000E+00  0.86148506540E+03  0.86148506540E+03  0.00000000000E+00 0. -1.
         21   -1    0    0  501  503 -0.00000000000E+00 -0.00000000000E+00 -0.24190152028E+03  0.24190152028E+03  0.00000000000E+00 0. -1.
    9000007    1    1    2  501    0 -0.31130182460E+02 -0.52227585191E+02  0.54288008803E+02  0.40822052473E+03  0.40000000000E+03 0. -1.
   -9000007    1    1    2    0  502  0.31130182460E+02  0.52227585191E+02  0.56529553631E+03  0.69516606094E+03  0.40000000000E+03 0. -1.
<mgrwt>
<rscale>  2 0.40459462E+03</rscale>
<asrwt>0</asrwt>
<pdfrwt beam="1">  1       21 0.13253616E+00 0.40459462E+03</pdfrwt>
<pdfrwt beam="2">  1       21 0.37215619E-01 0.40459462E+03</pdfrwt>
<totfact> 0.25173919E+03</totfact>
</mgrwt>
</event>
<event>
 4    1  0.4918322E-002  0.4061270E+03  0.7818608E-02  0.1041679E+00
         21   -1    0    0  501  502  0.00000000000E+00  0.00000000000E+00  0.37560382123E+03  0.37560382123E+03  0.00000000000E+00 0. -1.
         21   -1    0    0  502  503 -0.00000000000E+00 -0.00000000000E+00 -0.72890662148E+03  0.72890662148E+03  0.00000000000E+00 0. -1.
    9000007    1    1    2  501    0 -0.49162102677E+02  0.50222011077E+02  0.17155363200E+03  0.44087391779E+03  0.40000000000E+03 0. -1.
   -9000007    1    1    2    0  503  0.49162102677E+02 -0.50222011077E+02 -0.52485643225E+03  0.66363652492E+03  0.40000000000E+03 0. -1.
<mgrwt>
<rscale>  2 0.40612703E+03</rscale>
<asrwt>0</asrwt>
<pdfrwt beam="1">  1       21 0.57785204E-01 0.40612703E+03</pdfrwt>
<pdfrwt beam="2">  1       21 0.11213948E+00 0.40612703E+03</pdfrwt>
<totfact> 0.15268085E+03</totfact>
</mgrwt>
</event>
<event>
 4    1  0.4918322E-002  0.4772082E+03  0.7818608E-02  0.1019905E+00
         21   -1    0    0  503  502  0.00000000000E+00  0.00000000000E+00  0.26896018187E+03  0.26896018187E+03  0.00000000000E+00 0.  1.
         21   -1    0    0  501  503 -0.00000000000E+00 -0.00000000000E+00 -0.11392773706E+04  0.11392773706E+04  0.00000000000E+00 0. -1.
    9000007    1    1    2  501    0 -0.21722538449E+03  0.14332062553E+03 -0.78334571158E+02  0.48359484531E+03  0.40000000000E+03 0.  1.
   -9000007    1    1    2    0  502  0.21722538449E+03 -0.14332062553E+03 -0.79198261754E+03  0.92464270714E+03  0.40000000000E+03 0. -1.
<mgrwt>
<rscale>  2 0.47720820E+03</rscale>
<asrwt>0</asrwt>
<pdfrwt beam="1">  1       21 0.41378489E-01 0.47720820E+03</pdfrwt>
<pdfrwt beam="2">  1       21 0.17527344E+00 0.47720820E+03</pdfrwt>
<totfact> 0.91393462E+02</totfact>
</mgrwt>
</event>
<event>
 4    1  0.4918322E-002  0.7724353E+03  0.7818608E-02  0.9600796E-01
         21   -1    0    0  503  502  0.00000000000E+00  0.00000000000E+00  0.35897911208E+03  0.35897911208E+03  0.00000000000E+00 0.  1.
         21   -1    0    0  501  503 -0.00000000000E+00 -0.00000000000E+00 -0.26826247249E+04  0.26826247249E+04  0.00000000000E+00 0.  1.
    9000007    1    1    2  501    0 -0.52447642882E+02  0.65871506449E+03 -0.20998300005E+04  0.22373963266E+04  0.40000000000E+03 0.  1.
   -9000007    1    1    2    0  502  0.52447642882E+02 -0.65871506449E+03 -0.22381561236E+03  0.80420751039E+03  0.40000000000E+03 0.  1.
<mgrwt>
<rscale>  2 0.77243530E+03</rscale>
<asrwt>0</asrwt>
<pdfrwt beam="1">  1       21 0.55227555E-01 0.77243530E+03</pdfrwt>
<pdfrwt beam="2">  1       21 0.41271150E+00 0.77243530E+03</pdfrwt>
<totfact> 0.13503308E+01</totfact>
</mgrwt>
</event>
<event>
 4    1  0.4918322E-002  0.4191224E+03  0.7818608E-02  0.1037352E+00
         21   -1    0    0  503  502  0.00000000000E+00  0.00000000000E+00  0.99983942263E+03  0.99983942263E+03  0.00000000000E+00 0. -1.
         21   -1    0    0  501  503 -0.00000000000E+00 -0.00000000000E+00 -0.18191797239E+03  0.18191797239E+03  0.00000000000E+00 0. -1.
    9000007    1    1    2  501    0  0.11166730498E+03  0.56515702730E+02  0.29964811346E+03  0.51522092694E+03  0.40000000000E+03 0. -1.
   -9000007    1    1    2    0  502 -0.11166730498E+03 -0.56515702730E+02  0.51827333678E+03  0.66653646808E+03  0.40000000000E+03 0. -1.
<mgrwt>
<rscale>  2 0.41912243E+03</rscale>
<asrwt>0</asrwt>
<pdfrwt beam="1">  1       21 0.15382145E+00 0.41912243E+03</pdfrwt>
<pdfrwt beam="2">  1       21 0.27987381E-01 0.41912243E+03</pdfrwt>
<totfact> 0.29750275E+03</totfact>
</mgrwt>
</event>
<event>
 4    1  0.4918322E-002  0.4005462E+03  0.7818608E-02  0.1043591E+00
         21   -1    0    0  503  502  0.00000000000E+00  0.00000000000E+00  0.40969695000E+03  0.40969695000E+03  0.00000000000E+00 0.  1.
         21   -1    0    0  501  503 -0.00000000000E+00 -0.00000000000E+00 -0.17549596908E+04  0.17549596908E+04  0.00000000000E+00 0.  1.
    9000007    1    1    2  501    0 -0.20808385755E+02  0.20707543235E+01 -0.16265925309E+04  0.16751837327E+04  0.40000000000E+03 0.  1.
   -9000007    1    1    2    0  502  0.20808385755E+02 -0.20707543235E+01  0.28132979007E+03  0.48947290806E+03  0.40000000000E+03 0.  1.
<mgrwt>
<rscale>  2 0.40054622E+03</rscale>
<asrwt>0</asrwt>
<pdfrwt beam="1">  1       21 0.63030301E-01 0.40054622E+03</pdfrwt>
<pdfrwt beam="2">  1       21 0.26999379E+00 0.40054622E+03</pdfrwt>
<totfact> 0.95364612E+01</totfact>
</mgrwt>
</event>
<event>
 4    1  0.4918322E-002  0.4603902E+03  0.7818608E-02  0.1024668E+00
         21   -1    0    0  503  502  0.00000000000E+00  0.00000000000E+00  0.26533102398E+03  0.26533102398E+03  0.00000000000E+00 0. -1.
         21   -1    0    0  501  503 -0.00000000000E+00 -0.00000000000E+00 -0.79975493790E+03  0.79975493790E+03  0.00000000000E+00 0. -1.
    9000007    1    1    2  501    0 -0.22432453113E+03 -0.40468134587E+02 -0.28514518033E+03  0.54154126255E+03  0.40000000000E+03 0.  1.
   -9000007    1    1    2    0  502  0.22432453113E+03  0.40468134587E+02 -0.24927873359E+03  0.52354469933E+03  0.40000000000E+03 0.  1.
<mgrwt>
<rscale>  2 0.46039023E+03</rscale>
<asrwt>0</asrwt>
<pdfrwt beam="1">  1       21 0.40820158E-01 0.46039023E+03</pdfrwt>
<pdfrwt beam="2">  1       21 0.12303922E+00 0.46039023E+03</pdfrwt>
<totfact> 0.24686861E+03</totfact>
</mgrwt>
</event>
<event>
 4    1  0.4918322E-002  0.5873956E+03  0.7818608E-02  0.9931907E-01
         21   -1    0    0  501  502  0.00000000000E+00  0.00000000000E+00  0.88638256189E+03  0.88638256189E+03  0.00000000000E+00 0. -1.
         21   -1    0    0  502  503 -0.00000000000E+00 -0.00000000000E+00 -0.83646747294E+03  0.83646747294E+03  0.00000000000E+00 0.  1.
    9000007    1    1    2  501    0  0.29837063857E+03 -0.30985253010E+03  0.65482226635E+03  0.87967370591E+03  0.40000000000E+03 0. -1.
   -9000007    1    1    2    0  503 -0.29837063857E+03  0.30985253010E+03 -0.60490717740E+03  0.84317632891E+03  0.40000000000E+03 0.  1.
<mgrwt>
<rscale>  2 0.58739563E+03</rscale>
<asrwt>0</asrwt>
<pdfrwt beam="1">  1       21 0.13636655E+00 0.58739563E+03</pdfrwt>
<pdfrwt beam="2">  1       21 0.12868730E+00 0.58739563E+03</pdfrwt>
<totfact> 0.12895676E+02</totfact>
</mgrwt>
</event>
<event>
 4    1  0.4918322E-002  0.4358525E+03  0.7818608E-02  0.1032027E+00
         21   -1    0    0  501  502  0.00000000000E+00  0.00000000000E+00  0.40735346508E+03  0.40735346508E+03  0.00000000000E+00 0.  1.
         21   -1    0    0  502  503 -0.00000000000E+00 -0.00000000000E+00 -0.65404149585E+03  0.65404149585E+03  0.00000000000E+00 0.  1.
    9000007    1    1    2  501    0  0.16671890856E+03  0.46607399978E+02  0.16095274430E+03  0.46462159883E+03  0.40000000000E+03 0.  1.
   -9000007    1    1    2    0  503 -0.16671890856E+03 -0.46607399978E+02 -0.40764077508E+03  0.59677336210E+03  0.40000000000E+03 0.  1.
<mgrwt>
<rscale>  2 0.43585255E+03</rscale>
<asrwt>0</asrwt>
<pdfrwt beam="1">  1       21 0.62669764E-01 0.43585255E+03</pdfrwt>
<pdfrwt beam="2">  1       21 0.10062177E+00 0.43585255E+03</pdfrwt>
<totfact> 0.16484318E+03</totfact>
</mgrwt>
</event>
<event>
 4    1  0.4918322E-002  0.5124120E+03  0.7818608E-02  0.1010589E+00
         21   -1    0    0  501  502  0.00000000000E+00  0.00000000000E+00  0.61073488692E+03  0.61073488692E+03  0.00000000000E+00 0.  1.
         21   -1    0    0  502  503 -0.00000000000E+00 -0.00000000000E+00 -0.12467518305E+04  0.12467518305E+04  0.00000000000E+00 0.  1.
    9000007    1    1    2  501    0 -0.26502596757E+03 -0.17979795320E+03  0.43373992136E+03  0.67133924870E+03  0.40000000000E+03 0.  1.
   -9000007    1    1    2    0  503  0.26502596757E+03  0.17979795320E+03 -0.10697568650E+04  0.11861474687E+04  0.40000000000E+03 0.  1.
<mgrwt>
<rscale>  2 0.51241201E+03</rscale>
<asrwt>0</asrwt>
<pdfrwt beam="1">  1       21 0.93959213E-01 0.51241201E+03</pdfrwt>
<pdfrwt beam="2">  1       21 0.19180797E+00 0.51241201E+03</pdfrwt>
<totfact> 0.11169275E+02</totfact>
</mgrwt>
</event>
<event>
 4    1  0.4918322E-002  0.4348874E+03  0.7818608E-02  0.1032327E+00
         21   -1    0    0  503  502  0.00000000000E+00  0.00000000000E+00  0.18653394626E+03  0.18653394626E+03  0.00000000000E+00 0.  1.
         21   -1    0    0  501  503 -0.00000000000E+00 -0.00000000000E+00 -0.12056024207E+04  0.12056024207E+04  0.00000000000E+00 0.  1.
    9000007    1    1    2  501    0  0.15593531577E+03  0.69362944575E+02 -0.78709742715E+03  0.89924935396E+03  0.40000000000E+03 0.  1.
   -9000007    1    1    2    0  502 -0.15593531577E+03 -0.69362944575E+02 -0.23197104725E+03  0.49288701297E+03  0.40000000000E+03 0.  1.
<mgrwt>
<rscale>  2 0.43488739E+03</rscale>
<asrwt>0</asrwt>
<pdfrwt beam="1">  1       21 0.28697530E-01 0.43488739E+03</pdfrwt>
<pdfrwt beam="2">  1       21 0.18547730E+00 0.43488739E+03</pdfrwt>
<totfact> 0.16528644E+03</totfact>
</mgrwt>
</event>
<event>
 4    1  0.4918322E-002  0.4645791E+03  0.7818608E-02  0.1023461E+00
         21   -1    0    0  503  502  0.00000000000E+00  0.00000000000E+00  0.70476402598E+03  0.70476402598E+03  0.00000000000E+00 0.  1.
         21   -1    0    0  501  503 -0.00000000000E+00 -0.00000000000E+00 -0.43597656025E+03  0.43597656025E+03  0.00000000000E+00 0.  1.
    9000007    1    1    2  501    0 -0.10634174589E+03 -0.21100986208E+03 -0.17673518792E+03  0.49706041430E+03  0.40000000000E+03 0.  1.
   -9000007    1    1    2    0  502  0.10634174589E+03  0.21100986208E+03  0.44552265365E+03  0.64368017192E+03  0.40000000000E+03 0.  1.
<mgrwt>
<rscale>  2 0.46457909E+03</rscale>
<asrwt>0</asrwt>
<pdfrwt beam="1">  1       21 0.10842523E+00 0.46457909E+03</pdfrwt>
<pdfrwt beam="2">  1       21 0.67073317E-01 0.46457909E+03</pdfrwt>
<totfact> 0.11664366E+03</totfact>
</mgrwt>
</event>
<event>
 4    1  0.4918322E-002  0.4165220E+03  0.7818608E-02  0.1038204E+00
         21   -1    0    0  501  502  0.00000000000E+00  0.00000000000E+00  0.29924810486E+03  0.29924810486E+03  0.00000000000E+00 0. -1.
         21   -1    0    0  502  503 -0.00000000000E+00 -0.00000000000E+00 -0.64488642208E+03  0.64488642208E+03  0.00000000000E+00 0. -1.
    9000007    1    1    2  501    0  0.10113205215E+03  0.57121359896E+02 -0.22796094755E+02  0.41714530282E+03  0.40000000000E+03 0. -1.
   -9000007    1    1    2    0  503 -0.10113205215E+03 -0.57121359896E+02 -0.32284222247E+03  0.52698922412E+03  0.40000000000E+03 0. -1.
<mgrwt>
<rscale>  2 0.41652196E+03</rscale>
<asrwt>0</asrwt>
<pdfrwt beam="1">  1       21 0.46038171E-01 0.41652196E+03</pdfrwt>
<pdfrwt beam="2">  1       21 0.99213295E-01 0.41652196E+03</pdfrwt>
<totfact> 0.33353060E+03</totfact>
</mgrwt>
</event>
<event>
 4    1  0.4918322E-002  0.4181943E+03  0.7818608E-02  0.1037656E+00
         21   -1    0    0  501  502  0.00000000000E+00  0.00000000000E+00  0.76585348003E+03  0.76585348003E+03  0.00000000000E+00 0.  1.
         21   -1    0    0  502  503 -0.00000000000E+00 -0.00000000000E+00 -0.27788151557E+03  0.27788151557E+03  0.00000000000E+00 0.  1.
    9000007    1    1    2  501    0  0.91972105504E+02  0.80172339021E+02  0.46430363869E+03  0.62487145961E+03  0.40000000000E+03 0.  1.
   -9000007    1    1    2    0  503 -0.91972105504E+02 -0.80172339021E+02  0.23668325774E+02  0.41886353599E+03  0.40000000000E+03 0.  1.
<mgrwt>
<rscale>  2 0.41819430E+03</rscale>
<asrwt>0</asrwt>
<pdfrwt beam="1">  1       21 0.11782361E+00 0.41819430E+03</pdfrwt>
<pdfrwt beam="2">  1       21 0.42751003E-01 0.41819430E+03</pdfrwt>
<totfact> 0.25453402E+03</totfact>
</mgrwt>
</event>
<event>
 4    1  0.4918322E-002  0.4864412E+03  0.7818608E-02  0.1017380E+00
         21   -1    0    0  501  502  0.00000000000E+00  0.00000000000E+00  0.14743476297E+03  0.14743476297E+03  0.00000000000E+00 0.  1.
         21   -1    0    0  502  503 -0.00000000000E+00 -0.00000000000E+00 -0.16054789260E+04  0.16054789260E+04  0.00000000000E+00 0. -1.
    9000007    1    1    2  501    0  0.27605065341E+03 -0.20520566264E+02 -0.74496773375E+03  0.88972017018E+03  0.40000000000E+03 0.  1.
   -9000007    1    1    2    0  503 -0.27605065341E+03  0.20520566264E+02 -0.71307642930E+03  0.86319351881E+03  0.40000000000E+03 0. -1.
<mgrwt>
<rscale>  2 0.48644122E+03</rscale>
<asrwt>0</asrwt>
<pdfrwt beam="1">  1       21 0.22682271E-01 0.48644122E+03</pdfrwt>
<pdfrwt beam="2">  1       21 0.24699676E+00 0.48644122E+03</pdfrwt>
<totfact> 0.10204419E+03</totfact>
</mgrwt>
</event>
<event>
 4    1  0.4918322E-002  0.4064588E+03  0.7818608E-02  0.1041566E+00
         21   -1    0    0  501  502  0.00000000000E+00  0.00000000000E+00  0.14198748568E+04  0.14198748568E+04  0.00000000000E+00 0. -1.
         21   -1    0    0  502  503 -0.00000000000E+00 -0.00000000000E+00 -0.11676822852E+03  0.11676822852E+03  0.00000000000E+00 0. -1.
    9000007    1    1    2  501    0  0.50721516438E+02  0.51343156759E+02  0.69728867245E+03  0.80710611737E+03  0.40000000000E+03 0. -1.
   -9000007    1    1    2    0  503 -0.50721516438E+02 -0.51343156759E+02  0.60581795581E+03  0.72953696792E+03  0.40000000000E+03 0. -1.
<mgrwt>
<rscale>  2 0.40645884E+03</rscale>
<asrwt>0</asrwt>
<pdfrwt beam="1">  1       21 0.21844227E+00 0.40645884E+03</pdfrwt>
<pdfrwt beam="2">  1       21 0.17964344E-01 0.40645884E+03</pdfrwt>
<totfact> 0.24944479E+03</totfact>
</mgrwt>
</event>
<event>
 4    1  0.4918322E-002  0.4453568E+03  0.7818608E-02  0.1029116E+00
         21   -1    0    0  501  502  0.00000000000E+00  0.00000000000E+00  0.18430392153E+04  0.18430392153E+04  0.00000000000E+00 0. -1.
         21   -1    0    0  502  503 -0.00000000000E+00 -0.00000000000E+00 -0.21375258114E+03  0.21375258114E+03  0.00000000000E+00 0. -1.
    9000007    1    1    2  501    0 -0.16889686378E+02 -0.19508309610E+03  0.15393041563E+04  0.16024356341E+04  0.40000000000E+03 0. -1.
   -9000007    1    1    2    0  503  0.16889686378E+02  0.19508309610E+03  0.89982477806E+02  0.45435616228E+03  0.40000000000E+03 0. -1.
<mgrwt>
<rscale>  2 0.44535680E+03</rscale>
<asrwt>0</asrwt>
<pdfrwt beam="1">  1       21 0.28354448E+00 0.44535680E+03</pdfrwt>
<pdfrwt beam="2">  1       21 0.32885014E-01 0.44535680E+03</pdfrwt>
<totfact> 0.30082233E+02</totfact>
</mgrwt>
</event>
<event>
 4    1  0.4918322E-002  0.4141592E+03  0.7818608E-02  0.1038984E+00
         21   -1    0    0  501  502  0.00000000000E+00  0.00000000000E+00  0.39850555318E+03  0.39850555318E+03  0.00000000000E+00 0.  1.
         21   -1    0    0  502  503 -0.00000000000E+00 -0.00000000000E+00 -0.49372526488E+03  0.49372526488E+03  0.00000000000E+00 0.  1.
    9000007    1    1    2  501    0  0.10493881135E+03 -0.22708368162E+02  0.11212440971E+03  0.42906841804E+03  0.40000000000E+03 0.  1.
   -9000007    1    1    2    0  503 -0.10493881135E+03  0.22708368162E+02 -0.20734412141E+03  0.46316240002E+03  0.40000000000E+03 0.  1.
<mgrwt>
<rscale>  2 0.41415918E+03</rscale>
<asrwt>0</asrwt>
<pdfrwt beam="1">  1       21 0.61308547E-01 0.41415918E+03</pdfrwt>
<pdfrwt beam="2">  1       21 0.75957733E-01 0.41415918E+03</pdfrwt>
<totfact> 0.33800708E+03</totfact>
</mgrwt>
</event>
<event>
 4    1  0.4918322E-002  0.4528763E+03  0.7818608E-02  0.1026868E+00
         21   -1    0    0  503  502  0.00000000000E+00  0.00000000000E+00  0.76272188307E+03  0.76272188307E+03  0.00000000000E+00 0. -1.
         21   -1    0    0  501  503 -0.00000000000E+00 -0.00000000000E+00 -0.38874217956E+03  0.38874217956E+03  0.00000000000E+00 0. -1.
    9000007    1    1    2  501    0  0.15286887627E+03  0.14740427311E+03 -0.13267290222E+03  0.47190996180E+03  0.40000000000E+03 0. -1.
   -9000007    1    1    2    0  502 -0.15286887627E+03 -0.14740427311E+03  0.50665260573E+03  0.67955410083E+03  0.40000000000E+03 0. -1.
<mgrwt>
<rscale>  2 0.45287627E+03</rscale>
<asrwt>0</asrwt>
<pdfrwt beam="1">  1       21 0.11734183E+00 0.45287627E+03</pdfrwt>
<pdfrwt beam="2">  1       21 0.59806489E-01 0.45287627E+03</pdfrwt>
<totfact> 0.12402939E+03</totfact>
</mgrwt>
</event>
<event>
 4    1  0.4918322E-002  0.4108029E+03  0.7818608E-02  0.1040102E+00
         21   -1    0    0  503  502  0.00000000000E+00  0.00000000000E+00  0.65642312894E+03  0.65642312894E+03  0.00000000000E+00 0.  1.
         21   -1    0    0  501  503 -0.00000000000E+00 -0.00000000000E+00 -0.58047700308E+03  0.58047700308E+03  0.00000000000E+00 0.  1.
    9000007    1    1    2  501    0  0.76152722221E+02 -0.54404225638E+02 -0.42363585930E+03  0.59010710735E+03  0.40000000000E+03 0.  1.
   -9000007    1    1    2    0  502 -0.76152722221E+02  0.54404225638E+02  0.49958198515E+03  0.64679302467E+03  0.40000000000E+03 0.  1.
<mgrwt>
<rscale>  2 0.41080294E+03</rscale>
<asrwt>0</asrwt>
<pdfrwt beam="1">  1       21 0.10098817E+00 0.41080294E+03</pdfrwt>
<pdfrwt beam="2">  1       21 0.89304155E-01 0.41080294E+03</pdfrwt>
<totfact> 0.73689709E+02</totfact>
</mgrwt>
</event>
<event>
 4    1  0.4918322E-002  0.4726132E+03  0.7818608E-02  0.1021185E+00
         21   -1    0    0  501  502  0.00000000000E+00  0.00000000000E+00  0.21611486467E+03  0.21611486467E+03  0.00000000000E+00 0. -1.
         21   -1    0    0  502  503 -0.00000000000E+00 -0.00000000000E+00 -0.11094987667E+04  0.11094987667E+04  0.00000000000E+00 0. -1.
    9000007    1    1    2  501    0 -0.96894548763E+01  0.25153404847E+03 -0.27326613298E+03  0.54592823934E+03  0.40000000000E+03 0. -1.
   -9000007    1    1    2    0  503  0.96894548763E+01 -0.25153404847E+03 -0.62011776907E+03  0.77968539206E+03  0.40000000000E+03 0. -1.
<mgrwt>
<rscale>  2 0.47261323E+03</rscale>
<asrwt>0</asrwt>
<pdfrwt beam="1">  1       21 0.33248440E-01 0.47261323E+03</pdfrwt>
<pdfrwt beam="2">  1       21 0.17069212E+00 0.47261323E+03</pdfrwt>
<totfact> 0.15444870E+03</totfact>
</mgrwt>
</event>
<event>
 4    1  0.4918322E-002  0.5950960E+03  0.7818608E-02  0.9915633E-01
         21   -1    0    0  501  502  0.00000000000E+00  0.00000000000E+00  0.23363973460E+04  0.23363973460E+04  0.00000000000E+00 0. -1.
         21   -1    0    0  502  503 -0.00000000000E+00 -0.00000000000E+00 -0.17744613364E+03  0.17744613364E+03  0.00000000000E+00 0.  1.
    9000007    1    1    2  501    0 -0.36909300773E+03 -0.24064403009E+03  0.15594118232E+04  0.16691028823E+04  0.40000000000E+03 0. -1.
   -9000007    1    1    2    0  503  0.36909300773E+03  0.24064403009E+03  0.59953938923E+03  0.84474059735E+03  0.40000000000E+03 0.  1.
<mgrwt>
<rscale>  2 0.59509596E+03</rscale>
<asrwt>0</asrwt>
<pdfrwt beam="1">  1       21 0.35944572E+00 0.59509596E+03</pdfrwt>
<pdfrwt beam="2">  1       21 0.27299407E-01 0.59509596E+03</pdfrwt>
<totfact> 0.13859273E+02</totfact>
</mgrwt>
</event>
<event>
 4    1  0.4918322E-002  0.4022518E+03  0.7818608E-02  0.1043003E+00
         21   -1    0    0  501  502  0.00000000000E+00  0.00000000000E+00  0.41725634232E+03  0.41725634232E+03  0.00000000000E+00 0. -1.
         21   -1    0    0  502  503 -0.00000000000E+00 -0.00000000000E+00 -0.65177183714E+03  0.65177183714E+03  0.00000000000E+00 0. -1.
    9000007    1    1    2  501    0 -0.42293479367E+02 -0.42137176852E+01  0.22291618748E+03  0.45988924803E+03  0.40000000000E+03 0. -1.
   -9000007    1    1    2    0  503  0.42293479367E+02  0.42137176852E+01 -0.45743168230E+03  0.60913893143E+03  0.40000000000E+03 0. -1.
<mgrwt>
<rscale>  2 0.40225178E+03</rscale>
<asrwt>0</asrwt>
<pdfrwt beam="1">  1       21 0.64193284E-01 0.40225178E+03</pdfrwt>
<pdfrwt beam="2">  1       21 0.10027259E+00 0.40225178E+03</pdfrwt>
<totfact> 0.15988282E+03</totfact>
</mgrwt>
</event>
<event>
 4    1  0.4918322E-002  0.5771071E+03  0.7818608E-02  0.9954074E-01
         21   -1    0    0  503  502  0.00000000000E+00  0.00000000000E+00  0.20639203007E+03  0.20639203007E+03  0.00000000000E+00 0. -1.
         21   -1    0    0  501  503 -0.00000000000E+00 -0.00000000000E+00 -0.16142764437E+04  0.16142764437E+04  0.00000000000E+00 0. -1.
    9000007    1    1    2  501    0 -0.36413954646E+03  0.20113416313E+03 -0.72130713808E+03  0.92376217086E+03  0.40000000000E+03 0. -1.
   -9000007    1    1    2    0  502  0.36413954646E+03 -0.20113416313E+03 -0.68657727554E+03  0.89690630289E+03  0.40000000000E+03 0. -1.
<mgrwt>
<rscale>  2 0.57710706E+03</rscale>
<asrwt>0</asrwt>
<pdfrwt beam="1">  1       21 0.31752620E-01 0.57710706E+03</pdfrwt>
<pdfrwt beam="2">  1       21 0.24835022E+00 0.57710706E+03</pdfrwt>
<totfact> 0.49659529E+02</totfact>
</mgrwt>
</event>
<event>
 4    1  0.4918322E-002  0.4613404E+03  0.7818608E-02  0.1024393E+00
         21   -1    0    0  503  502  0.00000000000E+00  0.00000000000E+00  0.25825892301E+03  0.25825892301E+03  0.00000000000E+00 0. -1.
         21   -1    0    0  501  503 -0.00000000000E+00 -0.00000000000E+00 -0.11348256759E+04  0.11348256759E+04  0.00000000000E+00 0. -1.
    9000007    1    1    2  501    0 -0.19776693520E+03  0.11714593153E+03 -0.73813753323E+02  0.46720809080E+03  0.40000000000E+03 0. -1.
   -9000007    1    1    2    0  502  0.19776693520E+03 -0.11714593153E+03 -0.80275299952E+03  0.92587650806E+03  0.40000000000E+03 0. -1.
<mgrwt>
<rscale>  2 0.46134036E+03</rscale>
<asrwt>0</asrwt>
<pdfrwt beam="1">  1       21 0.39732142E-01 0.46134036E+03</pdfrwt>
<pdfrwt beam="2">  1       21 0.17458857E+00 0.46134036E+03</pdfrwt>
<totfact> 0.10121106E+03</totfact>
</mgrwt>
</event>
<event>
 4    1  0.4918322E-002  0.4502434E+03  0.7818608E-02  0.1027649E+00
         21   -1    0    0  503  502  0.00000000000E+00  0.00000000000E+00  0.54995557652E+03  0.54995557652E+03  0.00000000000E+00 0. -1.
         21   -1    0    0  501  503 -0.00000000000E+00 -0.00000000000E+00 -0.41517839686E+03  0.41517839686E+03  0.00000000000E+00 0.  1.
    9000007    1    1    2  501    0 -0.18531063219E+03 -0.91537431965E+02 -0.94227955791E+02  0.45999786902E+03  0.40000000000E+03 0.  1.
   -9000007    1    1    2    0  502  0.18531063219E+03  0.91537431965E+02  0.22900513545E+03  0.50513610435E+03  0.40000000000E+03 0. -1.
<mgrwt>
<rscale>  2 0.45024341E+03</rscale>
<asrwt>0</asrwt>
<pdfrwt beam="1">  1       21 0.84608551E-01 0.45024341E+03</pdfrwt>
<pdfrwt beam="2">  1       21 0.63873599E-01 0.45024341E+03</pdfrwt>
<totfact> 0.23750863E+03</totfact>
</mgrwt>
</event>
<event>
 4    1  0.4918322E-002  0.5537354E+03  0.7818608E-02  0.1000633E+00
         21   -1    0    0  501  502  0.00000000000E+00  0.00000000000E+00  0.15119304873E+04  0.15119304873E+04  0.00000000000E+00 0. -1.
         21   -1    0    0  502  503 -0.00000000000E+00 -0.00000000000E+00 -0.26553879989E+03  0.26553879989E+03  0.00000000000E+00 0. -1.
    9000007    1    1    2  501    0  0.31223684345E+03 -0.22165522021E+03  0.10551806587E+04  0.11916497411E+04  0.40000000000E+03 0. -1.
   -9000007    1    1    2    0  503 -0.31223684345E+03  0.22165522021E+03  0.19121102874E+03  0.58581954608E+03  0.40000000000E+03 0. -1.
<mgrwt>
<rscale>  2 0.55373539E+03</rscale>
<asrwt>0</asrwt>
<pdfrwt beam="1">  1       21 0.23260468E+00 0.55373539E+03</pdfrwt>
<pdfrwt beam="2">  1       21 0.40852124E-01 0.55373539E+03</pdfrwt>
<totfact> 0.37630745E+02</totfact>
</mgrwt>
</event>
<event>
 4    1  0.4918322E-002  0.5054754E+03  0.7818608E-02  0.1012360E+00
         21   -1    0    0  503  502  0.00000000000E+00  0.00000000000E+00  0.16820634849E+03  0.16820634849E+03  0.00000000000E+00 0. -1.
         21   -1    0    0  501  503 -0.00000000000E+00 -0.00000000000E+00 -0.15998823377E+04  0.15998823377E+04  0.00000000000E+00 0. -1.
    9000007    1    1    2  501    0 -0.92148302916E+02 -0.29498150430E+03 -0.51706489725E+03  0.72309163014E+03  0.40000000000E+03 0. -1.
   -9000007    1    1    2    0  502  0.92148302916E+02  0.29498150430E+03 -0.91461109194E+03  0.10449970560E+04  0.40000000000E+03 0. -1.
<mgrwt>
<rscale>  2 0.50547542E+03</rscale>
<asrwt>0</asrwt>
<pdfrwt beam="1">  1       21 0.25877901E-01 0.50547542E+03</pdfrwt>
<pdfrwt beam="2">  1       21 0.24613574E+00 0.50547542E+03</pdfrwt>
<totfact> 0.79279060E+02</totfact>
</mgrwt>
</event>
<event>
 4    1  0.4918322E-002  0.4124761E+03  0.7818608E-02  0.1039543E+00
         21   -1    0    0  501  502  0.00000000000E+00  0.00000000000E+00  0.12640327649E+04  0.12640327649E+04  0.00000000000E+00 0. -1.
         21   -1    0    0  502  503 -0.00000000000E+00 -0.00000000000E+00 -0.15721301670E+03  0.15721301670E+03  0.00000000000E+00 0. -1.
    9000007    1    1    2  501    0 -0.75166958365E+02 -0.66980777898E+02  0.82293035449E+03  0.92051662917E+03  0.40000000000E+03 0. -1.
   -9000007    1    1    2    0  503  0.75166958365E+02  0.66980777898E+02  0.28388939372E+03  0.50072915244E+03  0.40000000000E+03 0. -1.
<mgrwt>
<rscale>  2 0.41247606E+03</rscale>
<asrwt>0</asrwt>
<pdfrwt beam="1">  1       21 0.19446657E+00 0.41247606E+03</pdfrwt>
<pdfrwt beam="2">  1       21 0.24186619E-01 0.41247606E+03</pdfrwt>
<totfact> 0.20250151E+03</totfact>
</mgrwt>
</event>
<event>
 4    1  0.4918322E-002  0.4633587E+03  0.7818608E-02  0.1023812E+00
         21   -1    0    0  501  502  0.00000000000E+00  0.00000000000E+00  0.87748125082E+03  0.87748125082E+03  0.00000000000E+00 0.  1.
         21   -1    0    0  502  503 -0.00000000000E+00 -0.00000000000E+00 -0.62567693946E+03  0.62567693946E+03  0.00000000000E+00 0.  1.
    9000007    1    1    2  501    0  0.24339416541E+02 -0.23261316802E+03  0.71239253618E+03  0.84982611088E+03  0.40000000000E+03 0.  1.
   -9000007    1    1    2    0  503 -0.24339416541E+02  0.23261316802E+03 -0.46058822482E+03  0.65333207940E+03  0.40000000000E+03 0.  1.
<mgrwt>
<rscale>  2 0.46335871E+03</rscale>
<asrwt>0</asrwt>
<pdfrwt beam="1">  1       21 0.13499711E+00 0.46335871E+03</pdfrwt>
<pdfrwt beam="2">  1       21 0.96257991E-01 0.46335871E+03</pdfrwt>
<totfact> 0.28920010E+02</totfact>
</mgrwt>
</event>
<event>
 4    1  0.4918322E-002  0.4568261E+03  0.7818608E-02  0.1025706E+00
         21   -1    0    0  501  502  0.00000000000E+00  0.00000000000E+00  0.45328886018E+03  0.45328886018E+03  0.00000000000E+00 0. -1.
         21   -1    0    0  502  503 -0.00000000000E+00 -0.00000000000E+00 -0.48677209551E+03  0.48677209551E+03  0.00000000000E+00 0. -1.
    9000007    1    1    2  501    0  0.19179810281E+03  0.10910333800E+03  0.92681907977E+02  0.46613301392E+03  0.40000000000E+03 0. -1.
   -9000007    1    1    2    0  503 -0.19179810281E+03 -0.10910333800E+03 -0.12616514331E+03  0.47392794177E+03  0.40000000000E+03 0. -1.
<mgrwt>
<rscale>  2 0.45682606E+03</rscale>
<asrwt>0</asrwt>
<pdfrwt beam="1">  1       21 0.69736747E-01 0.45682606E+03</pdfrwt>
<pdfrwt beam="2">  1       21 0.74888015E-01 0.45682606E+03</pdfrwt>
<totfact> 0.25813079E+03</totfact>
</mgrwt>
</event>
<event>
 4    1  0.4918322E-002  0.4938232E+03  0.7818608E-02  0.1015404E+00
         21   -1    0    0  503  502  0.00000000000E+00  0.00000000000E+00  0.13288174421E+04  0.13288174421E+04  0.00000000000E+00 0. -1.
         21   -1    0    0  501  503 -0.00000000000E+00 -0.00000000000E+00 -0.18421058780E+03  0.18421058780E+03  0.00000000000E+00 0.  1.
    9000007    1    1    2  501    0  0.16878857713E+03 -0.23531202951E+03  0.52590161643E+03  0.72141100988E+03  0.40000000000E+03 0. -1.
   -9000007    1    1    2    0  502 -0.16878857713E+03  0.23531202951E+03  0.61870523782E+03  0.79161701997E+03  0.40000000000E+03 0.  1.
<mgrwt>
<rscale>  2 0.49382318E+03</rscale>
<asrwt>0</asrwt>
<pdfrwt beam="1">  1       21 0.20443345E+00 0.49382318E+03</pdfrwt>
<pdfrwt beam="2">  1       21 0.28340091E-01 0.49382318E+03</pdfrwt>
<totfact> 0.12296455E+03</totfact>
</mgrwt>
</event>
<event>
 4    1  0.4918322E-002  0.4387334E+03  0.7818608E-02  0.1031136E+00
         21   -1    0    0  503  502  0.00000000000E+00  0.00000000000E+00  0.86163866588E+03  0.86163866588E+03  0.00000000000E+00 0.  1.
         21   -1    0    0  501  503 -0.00000000000E+00 -0.00000000000E+00 -0.22390014678E+03  0.22390014678E+03  0.00000000000E+00 0.  1.
    9000007    1    1    2  501    0 -0.14839320864E+03  0.10230563960E+03  0.34461398136E+03  0.55789406200E+03  0.40000000000E+03 0.  1.
   -9000007    1    1    2    0  502  0.14839320864E+03 -0.10230563960E+03  0.29312453775E+03  0.52764475066E+03  0.40000000000E+03 0.  1.
<mgrwt>
<rscale>  2 0.43873339E+03</rscale>
<asrwt>0</asrwt>
<pdfrwt beam="1">  1       21 0.13255979E+00 0.43873339E+03</pdfrwt>
<pdfrwt beam="2">  1       21 0.34446177E-01 0.43873339E+03</pdfrwt>
<totfact> 0.29033162E+03</totfact>
</mgrwt>
</event>
<event>
 4    1  0.4918322E-002  0.4952342E+03  0.7818608E-02  0.1015030E+00
         21   -1    0    0  503  502  0.00000000000E+00  0.00000000000E+00  0.14838975146E+03  0.14838975146E+03  0.00000000000E+00 0. -1.
         21   -1    0    0  501  503 -0.00000000000E+00 -0.00000000000E+00 -0.17558034736E+04  0.17558034736E+04  0.00000000000E+00 0.  1.
    9000007    1    1    2  501    0  0.27089167598E+03  0.10897067386E+03 -0.10343246347E+04  0.11467712752E+04  0.40000000000E+03 0.  1.
   -9000007    1    1    2    0  502 -0.27089167598E+03 -0.10897067386E+03 -0.57308908754E+03  0.75742194986E+03  0.40000000000E+03 0. -1.
<mgrwt>
<rscale>  2 0.49523419E+03</rscale>
<asrwt>0</asrwt>
<pdfrwt beam="1">  1       21 0.22829192E-01 0.49523419E+03</pdfrwt>
<pdfrwt beam="2">  1       21 0.27012361E+00 0.49523419E+03</pdfrwt>
<totfact> 0.72425622E+02</totfact>
</mgrwt>
</event>
<event>
 4    1  0.4918322E-002  0.4434057E+03  0.7818608E-02  0.1029707E+00
         21   -1    0    0  503  502  0.00000000000E+00  0.00000000000E+00  0.54322671144E+03  0.54322671144E+03  0.00000000000E+00 0.  1.
         21   -1    0    0  501  503 -0.00000000000E+00 -0.00000000000E+00 -0.42091125422E+03  0.42091125422E+03  0.00000000000E+00 0.  1.
    9000007    1    1    2  501    0  0.71114307177E+02 -0.17762710197E+03  0.24161753569E+03  0.50496303388E+03  0.40000000000E+03 0. -1.
   -9000007    1    1    2    0  502 -0.71114307177E+02  0.17762710197E+03 -0.11930207847E+03  0.45917493177E+03  0.40000000000E+03 0. -1.
<mgrwt>
<rscale>  2 0.44340572E+03</rscale>
<asrwt>0</asrwt>
<pdfrwt beam="1">  1       21 0.83573340E-01 0.44340572E+03</pdfrwt>
<pdfrwt beam="2">  1       21 0.64755577E-01 0.44340572E+03</pdfrwt>
<totfact> 0.23770966E+03</totfact>
</mgrwt>
</event>
<event>
 4    1  0.4918322E-002  0.4651919E+03  0.7818608E-02  0.1023286E+00
         21   -1    0    0  503  502  0.00000000000E+00  0.00000000000E+00  0.13649652136E+04  0.13649652136E+04  0.00000000000E+00 0. -1.
         21   -1    0    0  501  503 -0.00000000000E+00 -0.00000000000E+00 -0.16127195825E+03  0.16127195825E+03  0.00000000000E+00 0. -1.
    9000007    1    1    2  501    0  0.18145834911E+03  0.15321990282E+03  0.50254879476E+03  0.68480563826E+03  0.40000000000E+03 0. -1.
   -9000007    1    1    2    0  502 -0.18145834911E+03 -0.15321990282E+03  0.70114446058E+03  0.84143153357E+03  0.40000000000E+03 0. -1.
<mgrwt>
<rscale>  2 0.46519186E+03</rscale>
<asrwt>0</asrwt>
<pdfrwt beam="1">  1       21 0.20999464E+00 0.46519186E+03</pdfrwt>
<pdfrwt beam="2">  1       21 0.24811071E-01 0.46519186E+03</pdfrwt>
<totfact> 0.14852822E+03</totfact>
</mgrwt>
</event>
<event>
 4    1  0.4918322E-002  0.4857825E+03  0.7818608E-02  0.1017558E+00
         21   -1    0    0  503  502  0.00000000000E+00  0.00000000000E+00  0.99522985409E+03  0.99522985409E+03  0.00000000000E+00 0. -1.
         21   -1    0    0  501  503 -0.00000000000E+00 -0.00000000000E+00 -0.32272344862E+03  0.32272344862E+03  0.00000000000E+00 0. -1.
    9000007    1    1    2  501    0  0.15533179081E+03 -0.22772051373E+03 -0.31464316384E+01  0.48579264881E+03  0.40000000000E+03 0. -1.
   -9000007    1    1    2    0  502 -0.15533179081E+03  0.22772051373E+03  0.67565283710E+03  0.83216065390E+03  0.40000000000E+03 0. -1.
<mgrwt>
<rscale>  2 0.48578246E+03</rscale>
<asrwt>0</asrwt>
<pdfrwt beam="1">  1       21 0.15311228E+00 0.48578246E+03</pdfrwt>
<pdfrwt beam="2">  1       21 0.49649762E-01 0.48578246E+03</pdfrwt>
<totfact> 0.90889026E+02</totfact>
</mgrwt>
</event>
<event>
 4    1  0.4918322E-002  0.4012699E+03  0.7818608E-02  0.1043341E+00
         21   -1    0    0  501  502  0.00000000000E+00  0.00000000000E+00  0.16849895381E+03  0.16849895381E+03  0.00000000000E+00 0. -1.
         21   -1    0    0  502  503 -0.00000000000E+00 -0.00000000000E+00 -0.99644594523E+03  0.99644594523E+03  0.00000000000E+00 0. -1.
    9000007    1    1    2  501    0  0.27664420700E+02 -0.15880072997E+02 -0.29604296500E+03  0.49865713072E+03  0.40000000000E+03 0.  1.
   -9000007    1    1    2    0  503 -0.27664420700E+02  0.15880072997E+02 -0.53190402643E+03  0.66628776832E+03  0.40000000000E+03 0.  1.
<mgrwt>
<rscale>  2 0.40126986E+03</rscale>
<asrwt>0</asrwt>
<pdfrwt beam="1">  1       21 0.25922916E-01 0.40126986E+03</pdfrwt>
<pdfrwt beam="2">  1       21 0.15329938E+00 0.40126986E+03</pdfrwt>
<totfact> 0.35148021E+03</totfact>
</mgrwt>
</event>
<event>
 4    1  0.4918322E-002  0.4167944E+03  0.7818608E-02  0.1038115E+00
         21   -1    0    0  501  502  0.00000000000E+00  0.00000000000E+00  0.40432542482E+03  0.40432542482E+03  0.00000000000E+00 0. -1.
         21   -1    0    0  502  503 -0.00000000000E+00 -0.00000000000E+00 -0.63152792219E+03  0.63152792219E+03  0.00000000000E+00 0. -1.
    9000007    1    1    2  501    0  0.11671749218E+03  0.97243508794E+01  0.17923090461E+03  0.45369731446E+03  0.40000000000E+03 0. -1.
   -9000007    1    1    2    0  503 -0.11671749218E+03 -0.97243508794E+01 -0.40643340198E+03  0.58215603254E+03  0.40000000000E+03 0. -1.
<mgrwt>
<rscale>  2 0.41679436E+03</rscale>
<asrwt>0</asrwt>
<pdfrwt beam="1">  1       21 0.62203911E-01 0.41679436E+03</pdfrwt>
<pdfrwt beam="2">  1       21 0.97158142E-01 0.41679436E+03</pdfrwt>
<totfact> 0.18379650E+03</totfact>
</mgrwt>
</event>
<event>
 4    1  0.4918322E-002  0.4856156E+03  0.7818608E-02  0.1017603E+00
         21   -1    0    0  503  502  0.00000000000E+00  0.00000000000E+00  0.76035018507E+03  0.76035018507E+03  0.00000000000E+00 0.  1.
         21   -1    0    0  501  503 -0.00000000000E+00 -0.00000000000E+00 -0.82694602834E+03  0.82694602834E+03  0.00000000000E+00 0.  1.
    9000007    1    1    2  501    0  0.13045623971E+03  0.24249473941E+03 -0.66070444519E+03  0.81997127572E+03  0.40000000000E+03 0.  1.
   -9000007    1    1    2    0  502 -0.13045623971E+03 -0.24249473941E+03  0.59410860193E+03  0.76732493769E+03  0.40000000000E+03 0.  1.
<mgrwt>
<rscale>  2 0.48561562E+03</rscale>
<asrwt>0</asrwt>
<pdfrwt beam="1">  1       21 0.11697695E+00 0.48561562E+03</pdfrwt>
<pdfrwt beam="2">  1       21 0.12722247E+00 0.48561562E+03</pdfrwt>
<totfact> 0.20650290E+02</totfact>
</mgrwt>
</event>
<event>
 4    1  0.4918322E-002  0.5686503E+03  0.7818608E-02  0.9972670E-01
         21   -1    0    0  503  502  0.00000000000E+00  0.00000000000E+00  0.17108274757E+04  0.17108274757E+04  0.00000000000E+00 0.  1.
         21   -1    0    0  501  503 -0.00000000000E+00 -0.00000000000E+00 -0.43947333245E+03  0.43947333245E+03  0.00000000000E+00 0.  1.
    9000007    1    1    2  501    0 -0.35306670440E+03 -0.19674122944E+03 -0.17598487323E+03  0.59525951040E+03  0.40000000000E+03 0.  1.
   -9000007    1    1    2    0  502  0.35306670440E+03  0.19674122944E+03  0.14473390165E+04  0.15550412978E+04  0.40000000000E+03 0.  1.
<mgrwt>
<rscale>  2 0.56865034E+03</rscale>
<asrwt>0</asrwt>
<pdfrwt beam="1">  1       21 0.26320422E+00 0.56865034E+03</pdfrwt>
<pdfrwt beam="2">  1       21 0.67611283E-01 0.56865034E+03</pdfrwt>
<totfact> 0.81321300E+01</totfact>
</mgrwt>
</event>
<event>
 4    1  0.4918322E-002  0.5660976E+03  0.7818608E-02  0.9978351E-01
         21   -1    0    0  503  502  0.00000000000E+00  0.00000000000E+00  0.66318037132E+03  0.66318037132E+03  0.00000000000E+00 0.  1.
         21   -1    0    0  501  503 -0.00000000000E+00 -0.00000000000E+00 -0.63186701666E+03  0.63186701666E+03  0.00000000000E+00 0. -1.
    9000007    1    1    2  501    0  0.25880876422E+03  0.30575237820E+03 -0.29840219329E+03  0.63992996662E+03  0.40000000000E+03 0. -1.
   -9000007    1    1    2    0  502 -0.25880876422E+03 -0.30575237820E+03  0.32971554795E+03  0.65511742137E+03  0.40000000000E+03 0.  1.
<mgrwt>
<rscale>  2 0.56609760E+03</rscale>
<asrwt>0</asrwt>
<pdfrwt beam="1">  1       21 0.10202775E+00 0.56609760E+03</pdfrwt>
<pdfrwt beam="2">  1       21 0.97210310E-01 0.56609760E+03</pdfrwt>
<totfact> 0.55104922E+02</totfact>
</mgrwt>
</event>
<event>
 4    1  0.4918322E-002  0.4036289E+03  0.7818608E-02  0.1042530E+00
         21   -1    0    0  501  502  0.00000000000E+00  0.00000000000E+00  0.66984155341E+03  0.66984155341E+03  0.00000000000E+00 0. -1.
         21   -1    0    0  502  503 -0.00000000000E+00 -0.00000000000E+00 -0.25434786198E+03  0.25434786198E+03  0.00000000000E+00 0. -1.
    9000007    1    1    2  501    0 -0.15775429419E+02  0.51646980490E+02  0.11107540513E+03  0.41863351561E+03  0.40000000000E+03 0. -1.
   -9000007    1    1    2    0  503  0.15775429419E+02 -0.51646980490E+02  0.30441828630E+03  0.50555589978E+03  0.40000000000E+03 0. -1.
<mgrwt>
<rscale>  2 0.40362888E+03</rscale>
<asrwt>0</asrwt>
<pdfrwt beam="1">  1       21 0.10305255E+00 0.40362888E+03</pdfrwt>
<pdfrwt beam="2">  1       21 0.39130441E-01 0.40362888E+03</pdfrwt>
<totfact> 0.42810399E+03</totfact>
</mgrwt>
</event>
<event>
 4    1  0.4918322E-002  0.4775842E+03  0.7818608E-02  0.1019801E+00
         21   -1    0    0  503  502  0.00000000000E+00  0.00000000000E+00  0.20516839735E+03  0.20516839735E+03  0.00000000000E+00 0.  1.
         21   -1    0    0  501  503 -0.00000000000E+00 -0.00000000000E+00 -0.11824512139E+04  0.11824512139E+04  0.00000000000E+00 0. -1.
    9000007    1    1    2  501    0 -0.23535822535E+03 -0.11266386970E+03 -0.31893361496E+03  0.57428676855E+03  0.40000000000E+03 0.  1.
   -9000007    1    1    2    0  502  0.23535822535E+03  0.11266386970E+03 -0.65834920155E+03  0.81333284267E+03  0.40000000000E+03 0. -1.
<mgrwt>
<rscale>  2 0.47758417E+03</rscale>
<asrwt>0</asrwt>
<pdfrwt beam="1">  1       21 0.31564368E-01 0.47758417E+03</pdfrwt>
<pdfrwt beam="2">  1       21 0.18191557E+00 0.47758417E+03</pdfrwt>
<totfact> 0.14222895E+03</totfact>
</mgrwt>
</event>
<event>
 4    1  0.4918322E-002  0.4112118E+03  0.7818608E-02  0.1039965E+00
         21   -1    0    0  501  502  0.00000000000E+00  0.00000000000E+00  0.16363602093E+03  0.16363602093E+03  0.00000000000E+00 0. -1.
         21   -1    0    0  502  503 -0.00000000000E+00 -0.00000000000E+00 -0.17446248891E+04  0.17446248891E+04  0.00000000000E+00 0. -1.
    9000007    1    1    2  501    0 -0.73110197006E+02 -0.61237638306E+02 -0.18127747933E+03  0.44939589869E+03  0.40000000000E+03 0. -1.
   -9000007    1    1    2    0  503  0.73110197006E+02  0.61237638306E+02 -0.13997113888E+04  0.14588650113E+04  0.40000000000E+03 0. -1.
<mgrwt>
<rscale>  2 0.41121181E+03</rscale>
<asrwt>0</asrwt>
<pdfrwt beam="1">  1       21 0.25174770E-01 0.41121181E+03</pdfrwt>
<pdfrwt beam="2">  1       21 0.26840386E+00 0.41121181E+03</pdfrwt>
<totfact> 0.64168347E+02</totfact>
</mgrwt>
</event>
<event>
 4    1  0.4918322E-002  0.5014206E+03  0.7818608E-02  0.1013409E+00
         21   -1    0    0  501  502  0.00000000000E+00  0.00000000000E+00  0.35566068937E+03  0.35566068937E+03  0.00000000000E+00 0.  1.
         21   -1    0    0  502  503 -0.00000000000E+00 -0.00000000000E+00 -0.76505077871E+03  0.76505077871E+03  0.00000000000E+00 0. -1.
    9000007    1    1    2  501    0 -0.37447433317E+02  0.30003383514E+03 -0.50229114438E+02  0.50393013050E+03  0.40000000000E+03 0.  1.
   -9000007    1    1    2    0  503  0.37447433317E+02 -0.30003383514E+03 -0.35916097491E+03  0.61678133758E+03  0.40000000000E+03 0.  1.
<mgrwt>
<rscale>  2 0.50142059E+03</rscale>
<asrwt>0</asrwt>
<pdfrwt beam="1">  1       21 0.54717029E-01 0.50142059E+03</pdfrwt>
<pdfrwt beam="2">  1       21 0.11770012E+00 0.50142059E+03</pdfrwt>
<totfact> 0.14664178E+03</totfact>
</mgrwt>
</event>
<event>
 4    1  0.4918322E-002  0.4334144E+03  0.7818608E-02  0.1032787E+00
         21   -1    0    0  501  502  0.00000000000E+00  0.00000000000E+00  0.10269436723E+04  0.10269436723E+04  0.00000000000E+00 0. -1.
         21   -1    0    0  502  503 -0.00000000000E+00 -0.00000000000E+00 -0.21013597661E+03  0.21013597661E+03  0.00000000000E+00 0. -1.
    9000007    1    1    2  501    0  0.14639368571E+03 -0.80106003131E+02  0.63100783855E+03  0.76551876219E+03  0.40000000000E+03 0. -1.
   -9000007    1    1    2    0  503 -0.14639368571E+03  0.80106003131E+02  0.18579985710E+03  0.47156088669E+03  0.40000000000E+03 0. -1.
<mgrwt>
<rscale>  2 0.43341445E+03</rscale>
<asrwt>0</asrwt>
<pdfrwt beam="1">  1       21 0.15799133E+00 0.43341445E+03</pdfrwt>
<pdfrwt beam="2">  1       21 0.32328612E-01 0.43341445E+03</pdfrwt>
<totfact> 0.20636754E+03</totfact>
</mgrwt>
</event>
<event>
 4    1  0.4918322E-002  0.4570352E+03  0.7818608E-02  0.1025645E+00
         21   -1    0    0  501  502  0.00000000000E+00  0.00000000000E+00  0.59830884250E+03  0.59830884250E+03  0.00000000000E+00 0.  1.
         21   -1    0    0  502  503 -0.00000000000E+00 -0.00000000000E+00 -0.39180875870E+03  0.39180875870E+03  0.00000000000E+00 0. -1.
    9000007    1    1    2  501    0 -0.48335219693E+02 -0.21574256332E+03  0.26666062712E+03  0.52913990319E+03  0.40000000000E+03 0. -1.
   -9000007    1    1    2    0  503  0.48335219693E+02  0.21574256332E+03 -0.60160543314E+02  0.46097769801E+03  0.40000000000E+03 0. -1.
<mgrwt>
<rscale>  2 0.45703517E+03</rscale>
<asrwt>0</asrwt>
<pdfrwt beam="1">  1       21 0.92047514E-01 0.45703517E+03</pdfrwt>
<pdfrwt beam="2">  1       21 0.60278271E-01 0.45703517E+03</pdfrwt>
<totfact> 0.22066590E+03</totfact>
</mgrwt>
</event>
<event>
 4    1  0.4918322E-002  0.4393888E+03  0.7818608E-02  0.1030934E+00
         21   -1    0    0  503  502  0.00000000000E+00  0.00000000000E+00  0.33884933854E+03  0.33884933854E+03  0.00000000000E+00 0.  1.
         21   -1    0    0  501  503 -0.00000000000E+00 -0.00000000000E+00 -0.60860098817E+03  0.60860098817E+03  0.00000000000E+00 0.  1.
    9000007    1    1    2  501    0  0.15515281133E+03 -0.94816291608E+02 -0.15199070664E+02  0.43965160726E+03  0.40000000000E+03 0.  1.
   -9000007    1    1    2    0  502 -0.15515281133E+03  0.94816291608E+02 -0.25455257896E+03  0.50779871945E+03  0.40000000000E+03 0.  1.
<mgrwt>
<rscale>  2 0.43938881E+03</rscale>
<asrwt>0</asrwt>
<pdfrwt beam="1">  1       21 0.52130668E-01 0.43938881E+03</pdfrwt>
<pdfrwt beam="2">  1       21 0.93630920E-01 0.43938881E+03</pdfrwt>
<totfact> 0.29207124E+03</totfact>
</mgrwt>
</event>
<event>
 4    1  0.4918322E-002  0.4237534E+03  0.7818608E-02  0.1035852E+00
         21   -1    0    0  501  502  0.00000000000E+00  0.00000000000E+00  0.16973632501E+03  0.16973632501E+03  0.00000000000E+00 0.  1.
         21   -1    0    0  502  503 -0.00000000000E+00 -0.00000000000E+00 -0.11381989430E+04  0.11381989430E+04  0.00000000000E+00 0.  1.
    9000007    1    1    2  501    0 -0.27612206480E+02 -0.13712952360E+03 -0.31054876971E+03  0.52536413901E+03  0.40000000000E+03 0.  1.
   -9000007    1    1    2    0  503  0.27612206480E+02  0.13712952360E+03 -0.65791384826E+03  0.78257112899E+03  0.40000000000E+03 0.  1.
<mgrwt>
<rscale>  2 0.42375340E+03</rscale>
<asrwt>0</asrwt>
<pdfrwt beam="1">  1       21 0.26113281E-01 0.42375340E+03</pdfrwt>
<pdfrwt beam="2">  1       21 0.17510753E+00 0.42375340E+03</pdfrwt>
<totfact> 0.23645425E+03</totfact>
</mgrwt>
</event>
<event>
 4    1  0.4918322E-002  0.4161956E+03  0.7818608E-02  0.1038312E+00
         21   -1    0    0  503  502  0.00000000000E+00  0.00000000000E+00  0.28747165526E+03  0.28747165526E+03  0.00000000000E+00 0.  1.
         21   -1    0    0  501  503 -0.00000000000E+00 -0.00000000000E+00 -0.70655679681E+03  0.70655679681E+03  0.00000000000E+00 0.  1.
    9000007    1    1    2  501    0 -0.84329882738E+02  0.78148750850E+02 -0.40022314654E+03  0.57740568356E+03  0.40000000000E+03 0.  1.
   -9000007    1    1    2    0  502  0.84329882738E+02 -0.78148750850E+02 -0.18861995007E+02  0.41662276851E+03  0.40000000000E+03 0.  1.
<mgrwt>
<rscale>  2 0.41619557E+03</rscale>
<asrwt>0</asrwt>
<pdfrwt beam="1">  1       21 0.44226409E-01 0.41619557E+03</pdfrwt>
<pdfrwt beam="2">  1       21 0.10870105E+00 0.41619557E+03</pdfrwt>
<totfact> 0.29008227E+03</totfact>
</mgrwt>
</event>
<event>
 4    1  0.4918322E-002  0.4909313E+03  0.7818608E-02  0.1016173E+00
         21   -1    0    0  501  502  0.00000000000E+00  0.00000000000E+00  0.18989795194E+04  0.18989795194E+04  0.00000000000E+00 0. -1.
         21   -1    0    0  502  503 -0.00000000000E+00 -0.00000000000E+00 -0.13982816844E+03  0.13982816844E+03  0.00000000000E+00 0. -1.
    9000007    1    1    2  501    0 -0.27467274906E+03 -0.74622071566E+02  0.56981611598E+03  0.75213295279E+03  0.40000000000E+03 0. -1.
   -9000007    1    1    2    0  503  0.27467274906E+03  0.74622071566E+02  0.11893352350E+04  0.12866747351E+04  0.40000000000E+03 0. -1.
<mgrwt>
<rscale>  2 0.49093133E+03</rscale>
<asrwt>0</asrwt>
<pdfrwt beam="1">  1       21 0.29215068E+00 0.49093133E+03</pdfrwt>
<pdfrwt beam="2">  1       21 0.21512027E-01 0.49093133E+03</pdfrwt>
<totfact> 0.59863642E+02</totfact>
</mgrwt>
</event>
<event>
 4    1  0.4918322E-002  0.4129949E+03  0.7818608E-02  0.1039371E+00
         21   -1    0    0  503  502  0.00000000000E+00  0.00000000000E+00  0.20039727261E+03  0.20039727261E+03  0.00000000000E+00 0. -1.
         21   -1    0    0  501  503 -0.00000000000E+00 -0.00000000000E+00 -0.23743568908E+04  0.23743568908E+04  0.00000000000E+00 0. -1.
    9000007    1    1    2  501    0 -0.85612278625E+02  0.56879622894E+02 -0.21181126757E+04  0.21580004775E+04  0.40000000000E+03 0. -1.
   -9000007    1    1    2    0  502  0.85612278625E+02 -0.56879622894E+02 -0.55846942474E+02  0.41675368593E+03  0.40000000000E+03 0. -1.
<mgrwt>
<rscale>  2 0.41299486E+03</rscale>
<asrwt>0</asrwt>
<pdfrwt beam="1">  1       21 0.30830350E-01 0.41299486E+03</pdfrwt>
<pdfrwt beam="2">  1       21 0.36528567E+00 0.41299486E+03</pdfrwt>
<totfact> 0.11178419E+02</totfact>
</mgrwt>
</event>
<event>
 4    1  0.4918322E-002  0.4237369E+03  0.7818608E-02  0.1035857E+00
         21   -1    0    0  501  502  0.00000000000E+00  0.00000000000E+00  0.35828451083E+03  0.35828451083E+03  0.00000000000E+00 0.  1.
         21   -1    0    0  502  503 -0.00000000000E+00 -0.00000000000E+00 -0.52366972305E+03  0.52366972305E+03  0.00000000000E+00 0.  1.
    9000007    1    1    2  501    0  0.13600965599E+03 -0.32470882050E+02  0.87616184202E+01  0.42382750107E+03  0.40000000000E+03 0.  1.
   -9000007    1    1    2    0  503 -0.13600965599E+03  0.32470882050E+02 -0.17414683064E+03  0.45812673282E+03  0.40000000000E+03 0.  1.
<mgrwt>
<rscale>  2 0.42373693E+03</rscale>
<asrwt>0</asrwt>
<pdfrwt beam="1">  1       21 0.55120694E-01 0.42373693E+03</pdfrwt>
<pdfrwt beam="2">  1       21 0.80564573E-01 0.42373693E+03</pdfrwt>
<totfact> 0.37087424E+03</totfact>
</mgrwt>
</event>
<event>
 4    1  0.4918322E-002  0.4306509E+03  0.7818608E-02  0.1033655E+00
         21   -1    0    0  503  502  0.00000000000E+00  0.00000000000E+00  0.39445157401E+03  0.39445157401E+03  0.00000000000E+00 0. -1.
         21   -1    0    0  501  503 -0.00000000000E+00 -0.00000000000E+00 -0.68740879628E+03  0.68740879628E+03  0.00000000000E+00 0.  1.
    9000007    1    1    2  501    0 -0.15949978457E+03 -0.44718766666E+01 -0.45056720604E+03  0.62327440676E+03  0.40000000000E+03 0.  1.
   -9000007    1    1    2    0  502  0.15949978457E+03  0.44718766666E+01  0.15760998378E+03  0.45858596353E+03  0.40000000000E+03 0. -1.
<mgrwt>
<rscale>  2 0.43065088E+03</rscale>
<asrwt>0</asrwt>
<pdfrwt beam="1">  1       21 0.60684859E-01 0.43065088E+03</pdfrwt>
<pdfrwt beam="2">  1       21 0.10575520E+00 0.43065088E+03</pdfrwt>
<totfact> 0.15696113E+03</totfact>
</mgrwt>
</event>
<event>
 4    1  0.4918322E-002  0.5111661E+03  0.7818608E-02  0.1010905E+00
         21   -1    0    0  501  502  0.00000000000E+00  0.00000000000E+00  0.17563365569E+04  0.17563365569E+04  0.00000000000E+00 0. -1.
         21   -1    0    0  502  503 -0.00000000000E+00 -0.00000000000E+00 -0.15017444115E+03  0.15017444115E+03  0.00000000000E+00 0.  1.
    9000007    1    1    2  501    0 -0.24652822830E+03  0.20128252638E+03  0.89525482354E+03  0.10309083479E+04  0.40000000000E+03 0. -1.
   -9000007    1    1    2    0  503  0.24652822830E+03 -0.20128252638E+03  0.71090729226E+03  0.87560265015E+03  0.40000000000E+03 0. -1.
<mgrwt>
<rscale>  2 0.51116614E+03</rscale>
<asrwt>0</asrwt>
<pdfrwt beam="1">  1       21 0.27020561E+00 0.51116614E+03</pdfrwt>
<pdfrwt beam="2">  1       21 0.23103761E-01 0.51116614E+03</pdfrwt>
<totfact> 0.70174549E+02</totfact>
</mgrwt>
</event>
<event>
 4    1  0.4918322E-002  0.4704776E+03  0.7818608E-02  0.1021785E+00
         21   -1    0    0  501  502  0.00000000000E+00  0.00000000000E+00  0.30723617959E+03  0.30723617959E+03  0.00000000000E+00 0.  1.
         21   -1    0    0  502  503 -0.00000000000E+00 -0.00000000000E+00 -0.72686123852E+03  0.72686123852E+03  0.00000000000E+00 0. -1.
    9000007    1    1    2  501    0  0.22829250606E+03 -0.96081982054E+02 -0.25836108657E+03  0.53674916549E+03  0.40000000000E+03 0.  1.
   -9000007    1    1    2    0  503 -0.22829250606E+03  0.96081982054E+02 -0.16126397236E+03  0.49734825262E+03  0.40000000000E+03 0. -1.
<mgrwt>
<rscale>  2 0.47047765E+03</rscale>
<asrwt>0</asrwt>
<pdfrwt beam="1">  1       21 0.47267105E-01 0.47047765E+03</pdfrwt>
<pdfrwt beam="2">  1       21 0.11182480E+00 0.47047765E+03</pdfrwt>
<totfact> 0.23044733E+03</totfact>
</mgrwt>
</event>
<event>
 4    1  0.4918322E-002  0.4424984E+03  0.7818608E-02  0.1029983E+00
         21   -1    0    0  501  502  0.00000000000E+00  0.00000000000E+00  0.13935096173E+03  0.13935096173E+03  0.00000000000E+00 0. -1.
         21   -1    0    0  502  503 -0.00000000000E+00 -0.00000000000E+00 -0.20229319298E+04  0.20229319298E+04  0.00000000000E+00 0. -1.
    9000007    1    1    2  501    0 -0.87085666483E+02  0.16799093610E+03 -0.34431524118E+03  0.56067624636E+03  0.40000000000E+03 0. -1.
   -9000007    1    1    2    0  503  0.87085666483E+02 -0.16799093610E+03 -0.15392657269E+04  0.16016066452E+04  0.40000000000E+03 0. -1.
<mgrwt>
<rscale>  2 0.44249844E+03</rscale>
<asrwt>0</asrwt>
<pdfrwt beam="1">  1       21 0.21438609E-01 0.44249844E+03</pdfrwt>
<pdfrwt beam="2">  1       21 0.31122031E+00 0.44249844E+03</pdfrwt>
<totfact> 0.47505370E+02</totfact>
</mgrwt>
</event>
<event>
 4    1  0.4918322E-002  0.4136798E+03  0.7818608E-02  0.1039143E+00
         21   -1    0    0  503  502  0.00000000000E+00  0.00000000000E+00  0.40681738284E+03  0.40681738284E+03  0.00000000000E+00 0. -1.
         21   -1    0    0  501  503 -0.00000000000E+00 -0.00000000000E+00 -0.71875102163E+03  0.71875102163E+03  0.00000000000E+00 0. -1.
    9000007    1    1    2  501    0  0.97988568369E+02  0.39105344035E+02 -0.51840051184E+03  0.66322701855E+03  0.40000000000E+03 0. -1.
   -9000007    1    1    2    0  502 -0.97988568369E+02 -0.39105344035E+02  0.20646687305E+03  0.46234138592E+03  0.40000000000E+03 0. -1.
<mgrwt>
<rscale>  2 0.41367981E+03</rscale>
<asrwt>0</asrwt>
<pdfrwt beam="1">  1       21 0.62587291E-01 0.41367981E+03</pdfrwt>
<pdfrwt beam="2">  1       21 0.11057708E+00 0.41367981E+03</pdfrwt>
<totfact> 0.13231005E+03</totfact>
</mgrwt>
</event>
<event>
 4    1  0.4918322E-002  0.5849936E+03  0.7818608E-02  0.9937038E-01
         21   -1    0    0  503  502  0.00000000000E+00  0.00000000000E+00  0.27927642861E+03  0.27927642861E+03  0.00000000000E+00 0.  1.
         21   -1    0    0  501  503 -0.00000000000E+00 -0.00000000000E+00 -0.17152246479E+04  0.17152246479E+04  0.00000000000E+00 0.  1.
    9000007    1    1    2  501    0 -0.11634702383E+03  0.41070771352E+03 -0.12509120021E+04  0.13809410896E+04  0.40000000000E+03 0.  1.
   -9000007    1    1    2    0  502  0.11634702383E+03 -0.41070771352E+03 -0.18503621720E+03  0.61355998694E+03  0.40000000000E+03 0.  1.
<mgrwt>
<rscale>  2 0.58499355E+03</rscale>
<asrwt>0</asrwt>
<pdfrwt beam="1">  1       21 0.42965604E-01 0.58499355E+03</pdfrwt>
<pdfrwt beam="2">  1       21 0.26388072E+00 0.58499355E+03</pdfrwt>
<totfact> 0.21346772E+02</totfact>
</mgrwt>
</event>
<event>
 4    1  0.4918322E-002  0.4080363E+03  0.7818608E-02  0.1041032E+00
         21   -1    0    0  503  502  0.00000000000E+00  0.00000000000E+00  0.50590163336E+03  0.50590163336E+03  0.00000000000E+00 0.  1.
         21   -1    0    0  501  503 -0.00000000000E+00 -0.00000000000E+00 -0.33681162248E+03  0.33681162248E+03  0.00000000000E+00 0. -1.
    9000007    1    1    2  501    0  0.60519297177E+02  0.53207665395E+02  0.20799364999E+02  0.40856609572E+03  0.40000000000E+03 0. -1.
   -9000007    1    1    2    0  502 -0.60519297177E+02 -0.53207665395E+02  0.14829064587E+03  0.43414716012E+03  0.40000000000E+03 0.  1.
<mgrwt>
<rscale>  2 0.40803632E+03</rscale>
<asrwt>0</asrwt>
<pdfrwt beam="1">  1       21 0.77831020E-01 0.40803632E+03</pdfrwt>
<pdfrwt beam="2">  1       21 0.51817173E-01 0.40803632E+03</pdfrwt>
<totfact> 0.46110114E+03</totfact>
</mgrwt>
</event>
<event>
 4    1  0.4918322E-002  0.5578942E+03  0.7818608E-02  0.9996831E-01
         21   -1    0    0  501  502  0.00000000000E+00  0.00000000000E+00  0.31291374865E+03  0.31291374865E+03  0.00000000000E+00 0. -1.
         21   -1    0    0  502  503 -0.00000000000E+00 -0.00000000000E+00 -0.12962942124E+04  0.12962942124E+04  0.00000000000E+00 0. -1.
    9000007    1    1    2  501    0 -0.15886925124E+03  0.35497399535E+03 -0.10357261794E+03  0.56742687948E+03  0.40000000000E+03 0. -1.
   -9000007    1    1    2    0  503  0.15886925124E+03 -0.35497399535E+03 -0.87980784579E+03  0.10417810816E+04  0.40000000000E+03 0. -1.
<mgrwt>
<rscale>  2 0.55789423E+03</rscale>
<asrwt>0</asrwt>
<pdfrwt beam="1">  1       21 0.48140577E-01 0.55789423E+03</pdfrwt>
<pdfrwt beam="2">  1       21 0.19942988E+00 0.55789423E+03</pdfrwt>
<totfact> 0.43759341E+02</totfact>
</mgrwt>
</event>
<event>
 4    1  0.4918322E-002  0.4129995E+03  0.7818608E-02  0.1039369E+00
         21   -1    0    0  503  502  0.00000000000E+00  0.00000000000E+00  0.23573113560E+03  0.23573113560E+03  0.00000000000E+00 0.  1.
         21   -1    0    0  501  503 -0.00000000000E+00 -0.00000000000E+00 -0.74063992165E+03  0.74063992165E+03  0.00000000000E+00 0.  1.
    9000007    1    1    2  501    0  0.74853371448E+02 -0.70466970523E+02 -0.32656193095E+03  0.52650860952E+03  0.40000000000E+03 0.  1.
   -9000007    1    1    2    0  502 -0.74853371448E+02  0.70466970523E+02 -0.17834685510E+03  0.44986244773E+03  0.40000000000E+03 0.  1.
<mgrwt>
<rscale>  2 0.41299954E+03</rscale>
<asrwt>0</asrwt>
<pdfrwt beam="1">  1       21 0.36266329E-01 0.41299954E+03</pdfrwt>
<pdfrwt beam="2">  1       21 0.11394460E+00 0.41299954E+03</pdfrwt>
<totfact> 0.38866020E+03</totfact>
</mgrwt>
</event>
<event>
 4    1  0.4918322E-002  0.4593390E+03  0.7818608E-02  0.1024973E+00
         21   -1    0    0  501  502  0.00000000000E+00  0.00000000000E+00  0.14746498185E+04  0.14746498185E+04  0.00000000000E+00 0.  1.
         21   -1    0    0  502  503 -0.00000000000E+00 -0.00000000000E+00 -0.14521143035E+03  0.14521143035E+03  0.00000000000E+00 0.  1.
    9000007    1    1    2  501    0  0.21727660211E+03  0.61507746672E+02  0.76285386194E+03  0.89047085264E+03  0.40000000000E+03 0.  1.
   -9000007    1    1    2    0  503 -0.21727660211E+03 -0.61507746672E+02  0.56658452617E+03  0.72939039617E+03  0.40000000000E+03 0.  1.
<mgrwt>
<rscale>  2 0.45933901E+03</rscale>
<asrwt>0</asrwt>
<pdfrwt beam="1">  1       21 0.22686919E+00 0.45933901E+03</pdfrwt>
<pdfrwt beam="2">  1       21 0.22340221E-01 0.45933901E+03</pdfrwt>
<totfact> 0.14213137E+03</totfact>
</mgrwt>
</event>
<event>
 4    1  0.4918322E-002  0.4053999E+03  0.7818608E-02  0.1041926E+00
         21   -1    0    0  501  502  0.00000000000E+00  0.00000000000E+00  0.84295465515E+03  0.84295465515E+03  0.00000000000E+00 0. -1.
         21   -1    0    0  502  503 -0.00000000000E+00 -0.00000000000E+00 -0.65753444517E+03  0.65753444517E+03  0.00000000000E+00 0. -1.
    9000007    1    1    2  501    0  0.65677846366E+02  0.59600864556E+01  0.72197094124E+03  0.82800431287E+03  0.40000000000E+03 0. -1.
   -9000007    1    1    2    0  503 -0.65677846366E+02 -0.59600864556E+01 -0.53655073126E+03  0.67248478745E+03  0.40000000000E+03 0. -1.
<mgrwt>
<rscale>  2 0.40539993E+03</rscale>
<asrwt>0</asrwt>
<pdfrwt beam="1">  1       21 0.12968533E+00 0.40539993E+03</pdfrwt>
<pdfrwt beam="2">  1       21 0.10115915E+00 0.40539993E+03</pdfrwt>
<totfact> 0.29318353E+02</totfact>
</mgrwt>
</event>
<event>
 4    1  0.4918322E-002  0.4342895E+03  0.7818608E-02  0.1032513E+00
         21   -1    0    0  503  502  0.00000000000E+00  0.00000000000E+00  0.28280800490E+03  0.28280800490E+03  0.00000000000E+00 0. -1.
         21   -1    0    0  501  503 -0.00000000000E+00 -0.00000000000E+00 -0.99819502857E+03  0.99819502857E+03  0.00000000000E+00 0. -1.
    9000007    1    1    2  501    0  0.13074875016E+03 -0.10729481553E+03 -0.72668261104E+03  0.84656661303E+03  0.40000000000E+03 0. -1.
   -9000007    1    1    2    0  502 -0.13074875016E+03  0.10729481553E+03  0.11295587374E+02  0.43443642044E+03  0.40000000000E+03 0. -1.
<mgrwt>
<rscale>  2 0.43428955E+03</rscale>
<asrwt>0</asrwt>
<pdfrwt beam="1">  1       21 0.43508923E-01 0.43428955E+03</pdfrwt>
<pdfrwt beam="2">  1       21 0.15356847E+00 0.43428955E+03</pdfrwt>
<totfact> 0.12165254E+03</totfact>
</mgrwt>
</event>
<event>
 4    1  0.4918322E-002  0.4187787E+03  0.7818608E-02  0.1037465E+00
         21   -1    0    0  503  502  0.00000000000E+00  0.00000000000E+00  0.96080726578E+02  0.96080726578E+02  0.00000000000E+00 0. -1.
         21   -1    0    0  501  503 -0.00000000000E+00 -0.00000000000E+00 -0.18686844096E+04  0.18686844096E+04  0.00000000000E+00 0. -1.
    9000007    1    1    2  501    0  0.11447726876E+03 -0.47650056148E+02 -0.73660605230E+03  0.84732759261E+03  0.40000000000E+03 0. -1.
   -9000007    1    1    2    0  502 -0.11447726876E+03  0.47650056148E+02 -0.10359976307E+04  0.11174375436E+04  0.40000000000E+03 0. -1.
<mgrwt>
<rscale>  2 0.41877867E+03</rscale>
<asrwt>0</asrwt>
<pdfrwt beam="1">  1       21 0.14781652E-01 0.41877867E+03</pdfrwt>
<pdfrwt beam="2">  1       21 0.28748988E+00 0.41877867E+03</pdfrwt>
<totfact> 0.13454009E+03</totfact>
</mgrwt>
</event>
<event>
 4    1  0.4918322E-002  0.5269661E+03  0.7818608E-02  0.1006971E+00
         21   -1    0    0  501  502  0.00000000000E+00  0.00000000000E+00  0.22490798839E+03  0.22490798839E+03  0.00000000000E+00 0. -1.
         21   -1    0    0  502  503 -0.00000000000E+00 -0.00000000000E+00 -0.13632396717E+04  0.13632396717E+04  0.00000000000E+00 0.  1.
    9000007    1    1    2  501    0 -0.33702020514E+03  0.64114279273E+02 -0.81300201221E+03  0.96884752739E+03  0.40000000000E+03 0. -1.
   -9000007    1    1    2    0  503  0.33702020514E+03 -0.64114279273E+02 -0.32532967113E+03  0.61930013273E+03  0.40000000000E+03 0. -1.
<mgrwt>
<rscale>  2 0.52696609E+03</rscale>
<asrwt>0</asrwt>
<pdfrwt beam="1">  1       21 0.34601229E-01 0.52696609E+03</pdfrwt>
<pdfrwt beam="2">  1       21 0.20972918E+00 0.52696609E+03</pdfrwt>
<totfact> 0.75078818E+02</totfact>
</mgrwt>
</event>
<event>
 4    1  0.4918322E-002  0.4543925E+03  0.7818608E-02  0.1026420E+00
         21   -1    0    0  501  502  0.00000000000E+00  0.00000000000E+00  0.22428501063E+03  0.22428501063E+03  0.00000000000E+00 0.  1.
         21   -1    0    0  502  503 -0.00000000000E+00 -0.00000000000E+00 -0.93024063965E+03  0.93024063965E+03  0.00000000000E+00 0.  1.
    9000007    1    1    2  501    0 -0.10749313190E+03  0.18686301069E+03 -0.29415409119E+03  0.54129399363E+03  0.40000000000E+03 0.  1.
   -9000007    1    1    2    0  503  0.10749313190E+03 -0.18686301069E+03 -0.41180153783E+03  0.61323165666E+03  0.40000000000E+03 0.  1.
<mgrwt>
<rscale>  2 0.45439252E+03</rscale>
<asrwt>0</asrwt>
<pdfrwt beam="1">  1       21 0.34505387E-01 0.45439252E+03</pdfrwt>
<pdfrwt beam="2">  1       21 0.14311394E+00 0.45439252E+03</pdfrwt>
<totfact> 0.23489971E+03</totfact>
</mgrwt>
</event>
<event>
 4    1  0.4918322E-002  0.5391113E+03  0.7818608E-02  0.1004046E+00
         21   -1    0    0  503  502  0.00000000000E+00  0.00000000000E+00  0.98602614757E+03  0.98602614757E+03  0.00000000000E+00 0.  1.
         21   -1    0    0  501  503 -0.00000000000E+00 -0.00000000000E+00 -0.46264664926E+03  0.46264664926E+03  0.00000000000E+00 0.  1.
    9000007    1    1    2  501    0  0.29052557199E+03 -0.21502538991E+03 -0.17464895069E+03  0.56669505227E+03  0.40000000000E+03 0.  1.
   -9000007    1    1    2    0  502 -0.29052557199E+03  0.21502538991E+03  0.69802844900E+03  0.88197774456E+03  0.40000000000E+03 0.  1.
<mgrwt>
<rscale>  2 0.53911133E+03</rscale>
<asrwt>0</asrwt>
<pdfrwt beam="1">  1       21 0.15169633E+00 0.53911133E+03</pdfrwt>
<pdfrwt beam="2">  1       21 0.71176408E-01 0.53911133E+03</pdfrwt>
<totfact> 0.41405723E+02</totfact>
</mgrwt>
</event>
<event>
 4    1  0.4918322E-002  0.4172300E+03  0.7818608E-02  0.1037972E+00
         21   -1    0    0  501  502  0.00000000000E+00  0.00000000000E+00  0.57204149444E+03  0.57204149444E+03  0.00000000000E+00 0. -1.
         21   -1    0    0  502  503 -0.00000000000E+00 -0.00000000000E+00 -0.35448289600E+03  0.35448289600E+03  0.00000000000E+00 0. -1.
    9000007    1    1    2  501    0 -0.88114997944E+02  0.79476977920E+02  0.28305702874E+03  0.50418461341E+03  0.40000000000E+03 0. -1.
   -9000007    1    1    2    0  503  0.88114997944E+02 -0.79476977920E+02 -0.65498430305E+02  0.42233977702E+03  0.40000000000E+03 0. -1.
<mgrwt>
<rscale>  2 0.41722996E+03</rscale>
<asrwt>0</asrwt>
<pdfrwt beam="1">  1       21 0.88006383E-01 0.41722996E+03</pdfrwt>
<pdfrwt beam="2">  1       21 0.54535830E-01 0.41722996E+03</pdfrwt>
<totfact> 0.30960370E+03</totfact>
</mgrwt>
</event>
<event>
 4    1  0.4918322E-002  0.4898425E+03  0.7818608E-02  0.1016465E+00
         21   -1    0    0  501  502  0.00000000000E+00  0.00000000000E+00  0.10330197000E+04  0.10330197000E+04  0.00000000000E+00 0.  1.
         21   -1    0    0  502  503 -0.00000000000E+00 -0.00000000000E+00 -0.23262888762E+03  0.23262888762E+03  0.00000000000E+00 0.  1.
    9000007    1    1    2  501    0 -0.13574632285E+03  0.24802955028E+03  0.37554938547E+03  0.61723825457E+03  0.40000000000E+03 0.  1.
   -9000007    1    1    2    0  503  0.13574632285E+03 -0.24802955028E+03  0.42484142689E+03  0.64841033303E+03  0.40000000000E+03 0.  1.
<mgrwt>
<rscale>  2 0.48984255E+03</rscale>
<asrwt>0</asrwt>
<pdfrwt beam="1">  1       21 0.15892611E+00 0.48984255E+03</pdfrwt>
<pdfrwt beam="2">  1       21 0.35789060E-01 0.48984255E+03</pdfrwt>
<totfact> 0.16169299E+03</totfact>
</mgrwt>
</event>
<event>
 4    1  0.4918322E-002  0.4151579E+03  0.7818608E-02  0.1038654E+00
         21   -1    0    0  503  502  0.00000000000E+00  0.00000000000E+00  0.89336147481E+03  0.89336147481E+03  0.00000000000E+00 0.  1.
         21   -1    0    0  501  503 -0.00000000000E+00 -0.00000000000E+00 -0.44703624057E+03  0.44703624057E+03  0.00000000000E+00 0.  1.
    9000007    1    1    2  501    0  0.69046620183E+02  0.87112703346E+02 -0.28212673412E+03  0.50194775918E+03  0.40000000000E+03 0.  1.
   -9000007    1    1    2    0  502 -0.69046620183E+02 -0.87112703346E+02  0.72845196836E+03  0.83844995620E+03  0.40000000000E+03 0.  1.
<mgrwt>
<rscale>  2 0.41515787E+03</rscale>
<asrwt>0</asrwt>
<pdfrwt beam="1">  1       21 0.13744023E+00 0.41515787E+03</pdfrwt>
<pdfrwt beam="2">  1       21 0.68774806E-01 0.41515787E+03</pdfrwt>
<totfact> 0.61568637E+02</totfact>
</mgrwt>
</event>
<event>
 4    1  0.4918322E-002  0.6215101E+03  0.7818608E-02  0.9861758E-01
         21   -1    0    0  501  502  0.00000000000E+00  0.00000000000E+00  0.62522023319E+03  0.62522023319E+03  0.00000000000E+00 0.  1.
         21   -1    0    0  502  503 -0.00000000000E+00 -0.00000000000E+00 -0.90853240157E+03  0.90853240157E+03  0.00000000000E+00 0. -1.
    9000007    1    1    2  501    0 -0.41153401739E+03  0.23856784113E+03  0.29213971774E+03  0.68674629739E+03  0.40000000000E+03 0.  1.
   -9000007    1    1    2    0  503  0.41153401739E+03 -0.23856784113E+03 -0.57545188612E+03  0.84700633737E+03  0.40000000000E+03 0. -1.
<mgrwt>
<rscale>  2 0.62151015E+03</rscale>
<asrwt>0</asrwt>
<pdfrwt beam="1">  1       21 0.96187729E-01 0.62151015E+03</pdfrwt>
<pdfrwt beam="2">  1       21 0.13977421E+00 0.62151015E+03</pdfrwt>
<totfact> 0.24775475E+02</totfact>
</mgrwt>
</event>
<event>
 4    1  0.4918322E-002  0.5287143E+03  0.7818608E-02  0.1006544E+00
         21   -1    0    0  501  502  0.00000000000E+00  0.00000000000E+00  0.24995339813E+03  0.24995339813E+03  0.00000000000E+00 0. -1.
         21   -1    0    0  502  503 -0.00000000000E+00 -0.00000000000E+00 -0.12745620390E+04  0.12745620390E+04  0.00000000000E+00 0. -1.
    9000007    1    1    2  501    0 -0.10691460003E+03 -0.32879797215E+03 -0.24545913338E+03  0.58291425128E+03  0.40000000000E+03 0. -1.
   -9000007    1    1    2    0  503  0.10691460003E+03  0.32879797215E+03 -0.77914950752E+03  0.94160118588E+03  0.40000000000E+03 0. -1.
<mgrwt>
<rscale>  2 0.52871433E+03</rscale>
<asrwt>0</asrwt>
<pdfrwt beam="1">  1       21 0.38454370E-01 0.52871433E+03</pdfrwt>
<pdfrwt beam="2">  1       21 0.19608646E+00 0.52871433E+03</pdfrwt>
<totfact> 0.74574515E+02</totfact>
</mgrwt>
</event>
<event>
 4    1  0.4918322E-002  0.4639169E+03  0.7818608E-02  0.1023651E+00
         21   -1    0    0  503  502  0.00000000000E+00  0.00000000000E+00  0.20894412239E+03  0.20894412239E+03  0.00000000000E+00 0. -1.
         21   -1    0    0  501  503 -0.00000000000E+00 -0.00000000000E+00 -0.10697985604E+04  0.10697985604E+04  0.00000000000E+00 0. -1.
    9000007    1    1    2  501    0 -0.23495458883E+03  0.39014155695E+01 -0.30715427370E+03  0.55638352573E+03  0.40000000000E+03 0. -1.
   -9000007    1    1    2    0  502  0.23495458883E+03 -0.39014155695E+01 -0.55370016434E+03  0.72235915710E+03  0.40000000000E+03 0. -1.
<mgrwt>
<rscale>  2 0.46391689E+03</rscale>
<asrwt>0</asrwt>
<pdfrwt beam="1">  1       21 0.32145249E-01 0.46391689E+03</pdfrwt>
<pdfrwt beam="2">  1       21 0.16458440E+00 0.46391689E+03</pdfrwt>
<totfact> 0.18391442E+03</totfact>
</mgrwt>
</event>
<event>
 4    1  0.4918322E-002  0.4153206E+03  0.7818608E-02  0.1038600E+00
         21   -1    0    0  501  502  0.00000000000E+00  0.00000000000E+00  0.22061506675E+03  0.22061506675E+03  0.00000000000E+00 0. -1.
         21   -1    0    0  502  503 -0.00000000000E+00 -0.00000000000E+00 -0.10873045676E+04  0.10873045676E+04  0.00000000000E+00 0. -1.
    9000007    1    1    2  501    0  0.88770343475E+02 -0.67904484432E+02 -0.86737114763E+02  0.42428118031E+03  0.40000000000E+03 0. -1.
   -9000007    1    1    2    0  503 -0.88770343475E+02  0.67904484432E+02 -0.77995238606E+03  0.88363845401E+03  0.40000000000E+03 0. -1.
<mgrwt>
<rscale>  2 0.41532059E+03</rscale>
<asrwt>0</asrwt>
<pdfrwt beam="1">  1       21 0.33940780E-01 0.41532059E+03</pdfrwt>
<pdfrwt beam="2">  1       21 0.16727762E+00 0.41532059E+03</pdfrwt>
<totfact> 0.16077903E+03</totfact>
</mgrwt>
</event>
<event>
 4    1  0.4918322E-002  0.4851820E+03  0.7818608E-02  0.1017721E+00
         21   -1    0    0  503  502  0.00000000000E+00  0.00000000000E+00  0.29723159299E+03  0.29723159299E+03  0.00000000000E+00 0.  1.
         21   -1    0    0  501  503 -0.00000000000E+00 -0.00000000000E+00 -0.79788728785E+03  0.79788728785E+03  0.00000000000E+00 0.  1.
    9000007    1    1    2  501    0 -0.27401251458E+03 -0.17853332215E+02 -0.20321499468E+03  0.52602084909E+03  0.40000000000E+03 0.  1.
   -9000007    1    1    2    0  502  0.27401251458E+03  0.17853332215E+02 -0.29744070019E+03  0.56909803175E+03  0.40000000000E+03 0.  1.
<mgrwt>
<rscale>  2 0.48518203E+03</rscale>
<asrwt>0</asrwt>
<pdfrwt beam="1">  1       21 0.45727938E-01 0.48518203E+03</pdfrwt>
<pdfrwt beam="2">  1       21 0.12275189E+00 0.48518203E+03</pdfrwt>
<totfact> 0.19424454E+03</totfact>
</mgrwt>
</event>
<event>
 4    1  0.4918322E-002  0.4425728E+03  0.7818608E-02  0.1029960E+00
         21   -1    0    0  501  502  0.00000000000E+00  0.00000000000E+00  0.10612735254E+03  0.10612735254E+03  0.00000000000E+00 0. -1.
         21   -1    0    0  502  503 -0.00000000000E+00 -0.00000000000E+00 -0.19845693223E+04  0.19845693223E+04  0.00000000000E+00 0. -1.
    9000007    1    1    2  501    0  0.20448885111E+01  0.18938463416E+03 -0.12158238971E+04  0.12938695722E+04  0.40000000000E+03 0. -1.
   -9000007    1    1    2    0  503 -0.20448885111E+01 -0.18938463416E+03 -0.66261807269E+03  0.79682710263E+03  0.40000000000E+03 0. -1.
<mgrwt>
<rscale>  2 0.44257284E+03</rscale>
<asrwt>0</asrwt>
<pdfrwt beam="1">  1       21 0.16327286E-01 0.44257284E+03</pdfrwt>
<pdfrwt beam="2">  1       21 0.30531834E+00 0.44257284E+03</pdfrwt>
<totfact> 0.86272454E+02</totfact>
</mgrwt>
</event>
<event>
 4    1  0.4918322E-002  0.4393676E+03  0.7818608E-02  0.1030941E+00
         21   -1    0    0  501  502  0.00000000000E+00  0.00000000000E+00  0.12653003451E+03  0.12653003451E+03  0.00000000000E+00 0.  1.
         21   -1    0    0  502  503 -0.00000000000E+00 -0.00000000000E+00 -0.18099197983E+04  0.18099197983E+04  0.00000000000E+00 0.  1.
    9000007    1    1    2  501    0  0.12611763385E+03 -0.13091306264E+03 -0.45799489648E+03  0.63466779715E+03  0.40000000000E+03 0. -1.
   -9000007    1    1    2    0  503 -0.12611763385E+03  0.13091306264E+03 -0.12253948673E+04  0.13017820356E+04  0.40000000000E+03 0. -1.
<mgrwt>
<rscale>  2 0.43936760E+03</rscale>
<asrwt>0</asrwt>
<pdfrwt beam="1">  1       21 0.19466160E-01 0.43936760E+03</pdfrwt>
<pdfrwt beam="2">  1       21 0.27844919E+00 0.43936760E+03</pdfrwt>
<totfact> 0.90038604E+02</totfact>
</mgrwt>
</event>
<event>
 4    1  0.4918322E-002  0.5070560E+03  0.7818608E-02  0.1011953E+00
         21   -1    0    0  503  502  0.00000000000E+00  0.00000000000E+00  0.66587164441E+03  0.66587164441E+03  0.00000000000E+00 0. -1.
         21   -1    0    0  501  503 -0.00000000000E+00 -0.00000000000E+00 -0.39784705343E+03  0.39784705343E+03  0.00000000000E+00 0. -1.
    9000007    1    1    2  501    0 -0.26625527182E+03 -0.16190717910E+03  0.22532865883E+03  0.55486828069E+03  0.40000000000E+03 0. -1.
   -9000007    1    1    2    0  502  0.26625527182E+03  0.16190717910E+03  0.42695932143E+02  0.50885041716E+03  0.40000000000E+03 0. -1.
<mgrwt>
<rscale>  2 0.50705602E+03</rscale>
<asrwt>0</asrwt>
<pdfrwt beam="1">  1       21 0.10244179E+00 0.50705602E+03</pdfrwt>
<pdfrwt beam="2">  1       21 0.61207239E-01 0.50705602E+03</pdfrwt>
<totfact> 0.16187404E+03</totfact>
</mgrwt>
</event>
<event>
 4    1  0.4918322E-002  0.4126017E+03  0.7818608E-02  0.1039501E+00
         21   -1    0    0  503  502  0.00000000000E+00  0.00000000000E+00  0.62949495603E+03  0.62949495603E+03  0.00000000000E+00 0. -1.
         21   -1    0    0  501  503 -0.00000000000E+00 -0.00000000000E+00 -0.46575402992E+03  0.46575402992E+03  0.00000000000E+00 0. -1.
    9000007    1    1    2  501    0  0.81193923422E+02  0.60396234671E+02 -0.27275676876E+03  0.49460733240E+03  0.40000000000E+03 0. -1.
   -9000007    1    1    2    0  502 -0.81193923422E+02 -0.60396234671E+02  0.43649769487E+03  0.60064165356E+03  0.40000000000E+03 0. -1.
<mgrwt>
<rscale>  2 0.41260169E+03</rscale>
<asrwt>0</asrwt>
<pdfrwt beam="1">  1       21 0.96845378E-01 0.41260169E+03</pdfrwt>
<pdfrwt beam="2">  1       21 0.71654466E-01 0.41260169E+03</pdfrwt>
<totfact> 0.13538162E+03</totfact>
</mgrwt>
</event>
<event>
 4    1  0.4918322E-002  0.5183651E+03  0.7818608E-02  0.1009093E+00
         21   -1    0    0  501  502  0.00000000000E+00  0.00000000000E+00  0.83105659521E+03  0.83105659521E+03  0.00000000000E+00 0.  1.
         21   -1    0    0  502  503 -0.00000000000E+00 -0.00000000000E+00 -0.59927237856E+03  0.59927237856E+03  0.00000000000E+00 0. -1.
    9000007    1    1    2  501    0  0.32095343127E+03  0.75440715585E+02  0.60118727761E+03  0.79380636768E+03  0.40000000000E+03 0.  1.
   -9000007    1    1    2    0  503 -0.32095343127E+03 -0.75440715585E+02 -0.36940306096E+03  0.63652260609E+03  0.40000000000E+03 0. -1.
<mgrwt>
<rscale>  2 0.51836513E+03</rscale>
<asrwt>0</asrwt>
<pdfrwt beam="1">  1       21 0.12785486E+00 0.51836513E+03</pdfrwt>
<pdfrwt beam="2">  1       21 0.92195751E-01 0.51836513E+03</pdfrwt>
<totfact> 0.36072931E+02</totfact>
</mgrwt>
</event>
<event>
 4    1  0.4918322E-002  0.4996766E+03  0.7818608E-02  0.1013863E+00
         21   -1    0    0  501  502  0.00000000000E+00  0.00000000000E+00  0.40487199169E+03  0.40487199169E+03  0.00000000000E+00 0. -1.
         21   -1    0    0  502  503 -0.00000000000E+00 -0.00000000000E+00 -0.71422946775E+03  0.71422946775E+03  0.00000000000E+00 0.  1.
    9000007    1    1    2  501    0  0.28196048099E+03  0.10087101360E+03  0.52112368721E+02  0.50238667697E+03  0.40000000000E+03 0. -1.
   -9000007    1    1    2    0  503 -0.28196048099E+03 -0.10087101360E+03 -0.36146984479E+03  0.61671478247E+03  0.40000000000E+03 0.  1.
<mgrwt>
<rscale>  2 0.49967657E+03</rscale>
<asrwt>0</asrwt>
<pdfrwt beam="1">  1       21 0.62287999E-01 0.49967657E+03</pdfrwt>
<pdfrwt beam="2">  1       21 0.10988146E+00 0.49967657E+03</pdfrwt>
<totfact> 0.13128019E+03</totfact>
</mgrwt>
</event>
<event>
 4    1  0.4918322E-002  0.4153657E+03  0.7818608E-02  0.1038585E+00
         21   -1    0    0  503  502  0.00000000000E+00  0.00000000000E+00  0.15557736485E+03  0.15557736485E+03  0.00000000000E+00 0.  1.
         21   -1    0    0  501  503 -0.00000000000E+00 -0.00000000000E+00 -0.12546350513E+04  0.12546350513E+04  0.00000000000E+00 0.  1.
    9000007    1    1    2  501    0  0.54445236970E+02 -0.97797817505E+02 -0.78979468810E+03  0.89235886631E+03  0.40000000000E+03 0.  1.
   -9000007    1    1    2    0  502 -0.54445236970E+02  0.97797817505E+02 -0.30926299838E+03  0.51785354986E+03  0.40000000000E+03 0.  1.
<mgrwt>
<rscale>  2 0.41536574E+03</rscale>
<asrwt>0</asrwt>
<pdfrwt beam="1">  1       21 0.23934978E-01 0.41536574E+03</pdfrwt>
<pdfrwt beam="2">  1       21 0.19302079E+00 0.41536574E+03</pdfrwt>
<totfact> 0.21106670E+03</totfact>
</mgrwt>
</event>
<event>
 4    1  0.4918322E-002  0.5432567E+03  0.7818608E-02  0.1003067E+00
         21   -1    0    0  503  502  0.00000000000E+00  0.00000000000E+00  0.33656594010E+03  0.33656594010E+03  0.00000000000E+00 0. -1.
         21   -1    0    0  501  503 -0.00000000000E+00 -0.00000000000E+00 -0.93824145413E+03  0.93824145413E+03  0.00000000000E+00 0. -1.
    9000007    1    1    2  501    0 -0.31093076887E+03 -0.19608659034E+03 -0.13783100592E+03  0.56046880389E+03  0.40000000000E+03 0. -1.
   -9000007    1    1    2    0  502  0.31093076887E+03  0.19608659034E+03 -0.46384450811E+03  0.71433859034E+03  0.40000000000E+03 0. -1.
<mgrwt>
<rscale>  2 0.54325675E+03</rscale>
<asrwt>0</asrwt>
<pdfrwt beam="1">  1       21 0.51779376E-01 0.54325675E+03</pdfrwt>
<pdfrwt beam="2">  1       21 0.14434484E+00 0.54325675E+03</pdfrwt>
<totfact> 0.95473413E+02</totfact>
</mgrwt>
</event>
<event>
 4    1  0.4918322E-002  0.4368320E+03  0.7818608E-02  0.1031723E+00
         21   -1    0    0  503  502  0.00000000000E+00  0.00000000000E+00  0.53259031081E+03  0.53259031081E+03  0.00000000000E+00 0. -1.
         21   -1    0    0  501  503 -0.00000000000E+00 -0.00000000000E+00 -0.56935382702E+03  0.56935382702E+03  0.00000000000E+00 0. -1.
    9000007    1    1    2  501    0 -0.70015138237E+02  0.16099712117E+03 -0.35384471683E+03  0.56216392292E+03  0.40000000000E+03 0. -1.
   -9000007    1    1    2    0  502  0.70015138237E+02 -0.16099712117E+03  0.31708120062E+03  0.53978021490E+03  0.40000000000E+03 0. -1.
<mgrwt>
<rscale>  2 0.43683200E+03</rscale>
<asrwt>0</asrwt>
<pdfrwt beam="1">  1       21 0.81936971E-01 0.43683200E+03</pdfrwt>
<pdfrwt beam="2">  1       21 0.87592896E-01 0.43683200E+03</pdfrwt>
<totfact> 0.12518927E+03</totfact>
</mgrwt>
</event>
<event>
 4    1  0.4918322E-002  0.4644357E+03  0.7818608E-02  0.1023503E+00
         21   -1    0    0  503  502  0.00000000000E+00  0.00000000000E+00  0.33718327729E+03  0.33718327729E+03  0.00000000000E+00 0. -1.
         21   -1    0    0  501  503 -0.00000000000E+00 -0.00000000000E+00 -0.82808843645E+03  0.82808843645E+03  0.00000000000E+00 0. -1.
    9000007    1    1    2  501    0 -0.22079074616E+03 -0.83378645307E+02 -0.52334128449E+03  0.69970468923E+03  0.40000000000E+03 0. -1.
   -9000007    1    1    2    0  502  0.22079074616E+03  0.83378645307E+02  0.32436125325E+02  0.46556702451E+03  0.40000000000E+03 0. -1.
<mgrwt>
<rscale>  2 0.46443574E+03</rscale>
<asrwt>0</asrwt>
<pdfrwt beam="1">  1       21 0.51874351E-01 0.46443574E+03</pdfrwt>
<pdfrwt beam="2">  1       21 0.12739822E+00 0.46443574E+03</pdfrwt>
<totfact> 0.13613597E+03</totfact>
</mgrwt>
</event>
<event>
 4    1  0.4918322E-002  0.4293635E+03  0.7818608E-02  0.1034061E+00
         21   -1    0    0  503  502  0.00000000000E+00  0.00000000000E+00  0.18108487989E+03  0.18108487989E+03  0.00000000000E+00 0. -1.
         21   -1    0    0  501  503 -0.00000000000E+00 -0.00000000000E+00 -0.16026791796E+04  0.16026791796E+04  0.00000000000E+00 0.  1.
    9000007    1    1    2  501    0  0.82088300656E+02  0.13271966630E+03 -0.12494702761E+04  0.13211846842E+04  0.40000000000E+03 0.  1.
   -9000007    1    1    2    0  502 -0.82088300656E+02 -0.13271966630E+03 -0.17212402361E+03  0.46257937528E+03  0.40000000000E+03 0. -1.
<mgrwt>
<rscale>  2 0.42936348E+03</rscale>
<asrwt>0</asrwt>
<pdfrwt beam="1">  1       21 0.27859213E-01 0.42936348E+03</pdfrwt>
<pdfrwt beam="2">  1       21 0.24656603E+00 0.42936348E+03</pdfrwt>
<totfact> 0.70765424E+02</totfact>
</mgrwt>
</event>
<event>
 4    1  0.4918322E-002  0.4786363E+03  0.7818608E-02  0.1019511E+00
         21   -1    0    0  503  502  0.00000000000E+00  0.00000000000E+00  0.45190099364E+03  0.45190099364E+03  0.00000000000E+00 0. -1.
         21   -1    0    0  501  503 -0.00000000000E+00 -0.00000000000E+00 -0.57304985444E+03  0.57304985444E+03  0.00000000000E+00 0.  1.
    9000007    1    1    2  501    0  0.26182841228E+03  0.23207049549E+02 -0.23462135843E+03  0.53304771499E+03  0.40000000000E+03 0. -1.
   -9000007    1    1    2    0  502 -0.26182841228E+03 -0.23207049549E+02  0.11347249762E+03  0.49190313309E+03  0.40000000000E+03 0. -1.
<mgrwt>
<rscale>  2 0.47863628E+03</rscale>
<asrwt>0</asrwt>
<pdfrwt beam="1">  1       21 0.69523230E-01 0.47863628E+03</pdfrwt>
<pdfrwt beam="2">  1       21 0.88161516E-01 0.47863628E+03</pdfrwt>
<totfact> 0.17660456E+03</totfact>
</mgrwt>
</event>
<event>
 4    1  0.4918322E-002  0.4181674E+03  0.7818608E-02  0.1037664E+00
         21   -1    0    0  503  502  0.00000000000E+00  0.00000000000E+00  0.17388879328E+03  0.17388879328E+03  0.00000000000E+00 0.  1.
         21   -1    0    0  501  503 -0.00000000000E+00 -0.00000000000E+00 -0.11812649842E+04  0.11812649842E+04  0.00000000000E+00 0.  1.
    9000007    1    1    2  501    0  0.10474202264E+03 -0.62394906705E+02 -0.76497476051E+03  0.87180869456E+03  0.40000000000E+03 0.  1.
   -9000007    1    1    2    0  502 -0.10474202264E+03  0.62394906705E+02 -0.24240143036E+03  0.48334508287E+03  0.40000000000E+03 0.  1.
<mgrwt>
<rscale>  2 0.41816745E+03</rscale>
<asrwt>0</asrwt>
<pdfrwt beam="1">  1       21 0.26752122E-01 0.41816745E+03</pdfrwt>
<pdfrwt beam="2">  1       21 0.18173307E+00 0.41816745E+03</pdfrwt>
<totfact> 0.20297162E+03</totfact>
</mgrwt>
</event>
<event>
 4    1  0.4918322E-002  0.4856952E+03  0.7818608E-02  0.1017582E+00
         21   -1    0    0  501  502  0.00000000000E+00  0.00000000000E+00  0.15186862467E+04  0.15186862467E+04  0.00000000000E+00 0. -1.
         21   -1    0    0  502  503 -0.00000000000E+00 -0.00000000000E+00 -0.27707575082E+03  0.27707575082E+03  0.00000000000E+00 0. -1.
    9000007    1    1    2  501    0 -0.27341579051E+03 -0.33817644697E+02  0.12159789519E+04  0.13093909420E+04  0.40000000000E+03 0. -1.
   -9000007    1    1    2    0  503  0.27341579051E+03  0.33817644697E+02  0.25631543995E+02  0.48637105551E+03  0.40000000000E+03 0. -1.
<mgrwt>
<rscale>  2 0.48569520E+03</rscale>
<asrwt>0</asrwt>
<pdfrwt beam="1">  1       21 0.23364403E+00 0.48569520E+03</pdfrwt>
<pdfrwt beam="2">  1       21 0.42627039E-01 0.48569520E+03</pdfrwt>
<totfact> 0.34990402E+02</totfact>
</mgrwt>
</event>
<event>
 4    1  0.4918322E-002  0.4210776E+03  0.7818608E-02  0.1036716E+00
         21   -1    0    0  501  502  0.00000000000E+00  0.00000000000E+00  0.22179640226E+04  0.22179640226E+04  0.00000000000E+00 0. -1.
         21   -1    0    0  502  503 -0.00000000000E+00 -0.00000000000E+00 -0.16941348043E+03  0.16941348043E+03  0.00000000000E+00 0.  1.
    9000007    1    1    2  501    0  0.40954557132E+01  0.13148989976E+03  0.18917598103E+04  0.19380561257E+04  0.40000000000E+03 0. -1.
   -9000007    1    1    2    0  503 -0.40954557132E+01 -0.13148989976E+03  0.15679073182E+03  0.44932137728E+03  0.40000000000E+03 0.  1.
<mgrwt>
<rscale>  2 0.42107763E+03</rscale>
<asrwt>0</asrwt>
<pdfrwt beam="1">  1       21 0.34122521E+00 0.42107763E+03</pdfrwt>
<pdfrwt beam="2">  1       21 0.26063614E-01 0.42107763E+03</pdfrwt>
<totfact> 0.21740216E+02</totfact>
</mgrwt>
</event>
<event>
 4    1  0.4918322E-002  0.4773999E+03  0.7818608E-02  0.1019852E+00
         21   -1    0    0  501  502  0.00000000000E+00  0.00000000000E+00  0.22828178733E+03  0.22828178733E+03  0.00000000000E+00 0.  1.
         21   -1    0    0  502  503 -0.00000000000E+00 -0.00000000000E+00 -0.30801537933E+04  0.30801537933E+04  0.00000000000E+00 0. -1.
    9000007    1    1    2  501    0 -0.22628024401E+03  0.12925910104E+03 -0.65983151360E+02  0.48193821211E+03  0.40000000000E+03 0.  1.
   -9000007    1    1    2    0  503  0.22628024401E+03 -0.12925910104E+03 -0.27858888546E+04  0.28264973685E+04  0.40000000000E+03 0. -1.
<mgrwt>
<rscale>  2 0.47739990E+03</rscale>
<asrwt>0</asrwt>
<pdfrwt beam="1">  1       21 0.35120275E-01 0.47739990E+03</pdfrwt>
<pdfrwt beam="2">  1       21 0.47386981E+00 0.47739990E+03</pdfrwt>
<totfact> 0.15921057E+01</totfact>
</mgrwt>
</event>
<event>
 4    1  0.4918322E-002  0.4340221E+03  0.7818608E-02  0.1032597E+00
         21   -1    0    0  503  502  0.00000000000E+00  0.00000000000E+00  0.12242682997E+04  0.12242682997E+04  0.00000000000E+00 0.  1.
         21   -1    0    0  501  503 -0.00000000000E+00 -0.00000000000E+00 -0.15853571635E+03  0.15853571635E+03  0.00000000000E+00 0.  1.
    9000007    1    1    2  501    0 -0.48758682587E+02 -0.16123812641E+03  0.65150899877E+03  0.78284041670E+03  0.40000000000E+03 0.  1.
   -9000007    1    1    2    0  502  0.48758682587E+02  0.16123812641E+03  0.41422358458E+03  0.59996359936E+03  0.40000000000E+03 0.  1.
<mgrwt>
<rscale>  2 0.43402205E+03</rscale>
<asrwt>0</asrwt>
<pdfrwt beam="1">  1       21 0.18834896E+00 0.43402205E+03</pdfrwt>
<pdfrwt beam="2">  1       21 0.24390111E-01 0.43402205E+03</pdfrwt>
<totfact> 0.21718480E+03</totfact>
</mgrwt>
</event>
<event>
 4    1  0.4918322E-002  0.4395174E+03  0.7818608E-02  0.1030895E+00
         21   -1    0    0  501  502  0.00000000000E+00  0.00000000000E+00  0.17171316841E+03  0.17171316841E+03  0.00000000000E+00 0.  1.
         21   -1    0    0  502  503 -0.00000000000E+00 -0.00000000000E+00 -0.22129684401E+04  0.22129684401E+04  0.00000000000E+00 0.  1.
    9000007    1    1    2  501    0 -0.27175967934E+02  0.18010270010E+03 -0.18459537600E+03  0.47670847345E+03  0.40000000000E+03 0.  1.
   -9000007    1    1    2    0  503  0.27175967934E+02 -0.18010270010E+03 -0.18566598957E+04  0.19079731351E+04  0.40000000000E+03 0.  1.
<mgrwt>
<rscale>  2 0.43951737E+03</rscale>
<asrwt>0</asrwt>
<pdfrwt beam="1">  1       21 0.26417412E-01 0.43951737E+03</pdfrwt>
<pdfrwt beam="2">  1       21 0.34045666E+00 0.43951737E+03</pdfrwt>
<totfact> 0.21144693E+02</totfact>
</mgrwt>
</event>
<event>
 4    1  0.4918322E-002  0.4963272E+03  0.7818608E-02  0.1014742E+00
         21   -1    0    0  503  502  0.00000000000E+00  0.00000000000E+00  0.47270864115E+03  0.47270864115E+03  0.00000000000E+00 0.  1.
         21   -1    0    0  501  503 -0.00000000000E+00 -0.00000000000E+00 -0.53109874219E+03  0.53109874219E+03  0.00000000000E+00 0.  1.
    9000007    1    1    2  501    0 -0.26261847361E+03  0.13180360814E+03  0.39582245070E+02  0.49790301056E+03  0.40000000000E+03 0.  1.
   -9000007    1    1    2    0  502  0.26261847361E+03 -0.13180360814E+03 -0.97972346106E+02  0.50590437278E+03  0.40000000000E+03 0.  1.
<mgrwt>
<rscale>  2 0.49632716E+03</rscale>
<asrwt>0</asrwt>
<pdfrwt beam="1">  1       21 0.72724407E-01 0.49632716E+03</pdfrwt>
<pdfrwt beam="2">  1       21 0.81707498E-01 0.49632716E+03</pdfrwt>
<totfact> 0.18943143E+03</totfact>
</mgrwt>
</event>
<event>
 4    1  0.4918322E-002  0.4863798E+03  0.7818608E-02  0.1017396E+00
         21   -1    0    0  503  502  0.00000000000E+00  0.00000000000E+00  0.16766484853E+04  0.16766484853E+04  0.00000000000E+00 0. -1.
         21   -1    0    0  501  503 -0.00000000000E+00 -0.00000000000E+00 -0.14306003361E+03  0.14306003361E+03  0.00000000000E+00 0. -1.
    9000007    1    1    2  501    0  0.20877265957E+02  0.27591572976E+03  0.87345084146E+03  0.99974082772E+03  0.40000000000E+03 0. -1.
   -9000007    1    1    2    0  502 -0.20877265957E+02 -0.27591572976E+03  0.66013761026E+03  0.81996769122E+03  0.40000000000E+03 0. -1.
<mgrwt>
<rscale>  2 0.48637984E+03</rscale>
<asrwt>0</asrwt>
<pdfrwt beam="1">  1       21 0.25794591E+00 0.48637984E+03</pdfrwt>
<pdfrwt beam="2">  1       21 0.22009237E-01 0.48637984E+03</pdfrwt>
<totfact> 0.92605436E+02</totfact>
</mgrwt>
</event>
<event>
 4    1  0.4918322E-002  0.5823850E+03  0.7818608E-02  0.9942641E-01
         21   -1    0    0  501  502  0.00000000000E+00  0.00000000000E+00  0.24947109854E+03  0.24947109854E+03  0.00000000000E+00 0.  1.
         21   -1    0    0  502  503 -0.00000000000E+00 -0.00000000000E+00 -0.19310833909E+04  0.19310833909E+04  0.00000000000E+00 0.  1.
    9000007    1    1    2  501    0  0.28982442289E+02 -0.42229412435E+03 -0.24767417703E+03  0.63286239214E+03  0.40000000000E+03 0.  1.
   -9000007    1    1    2    0  503 -0.28982442289E+02  0.42229412435E+03 -0.14339381153E+04  0.15476920973E+04  0.40000000000E+03 0.  1.
<mgrwt>
<rscale>  2 0.58238502E+03</rscale>
<asrwt>0</asrwt>
<pdfrwt beam="1">  1       21 0.38380167E-01 0.58238502E+03</pdfrwt>
<pdfrwt beam="2">  1       21 0.29708977E+00 0.58238502E+03</pdfrwt>
<totfact> 0.16938676E+02</totfact>
</mgrwt>
</event>
<event>
 4    1  0.4918322E-002  0.4989510E+03  0.7818608E-02  0.1014053E+00
         21   -1    0    0  503  502  0.00000000000E+00  0.00000000000E+00  0.92872591996E+03  0.92872591996E+03  0.00000000000E+00 0. -1.
         21   -1    0    0  501  503 -0.00000000000E+00 -0.00000000000E+00 -0.76869286167E+03  0.76869286167E+03  0.00000000000E+00 0. -1.
    9000007    1    1    2  501    0  0.95413872154E+02 -0.28257439011E+03 -0.60490887879E+03  0.78413445568E+03  0.40000000000E+03 0. -1.
   -9000007    1    1    2    0  502 -0.95413872154E+02  0.28257439011E+03  0.76494193708E+03  0.91328432596E+03  0.40000000000E+03 0. -1.
<mgrwt>
<rscale>  2 0.49895099E+03</rscale>
<asrwt>0</asrwt>
<pdfrwt beam="1">  1       21 0.14288091E+00 0.49895099E+03</pdfrwt>
<pdfrwt beam="2">  1       21 0.11826044E+00 0.49895099E+03</pdfrwt>
<totfact> 0.14707569E+02</totfact>
</mgrwt>
</event>
<event>
 4    1  0.4918322E-002  0.4039087E+03  0.7818608E-02  0.1042435E+00
         21   -1    0    0  503  502  0.00000000000E+00  0.00000000000E+00  0.12761475372E+04  0.12761475372E+04  0.00000000000E+00 0. -1.
         21   -1    0    0  501  503 -0.00000000000E+00 -0.00000000000E+00 -0.19033812361E+03  0.19033812361E+03  0.00000000000E+00 0. -1.
    9000007    1    1    2  501    0  0.40724261173E+02  0.38520290141E+02  0.12273999543E+03  0.42214616507E+03  0.40000000000E+03 0. -1.
   -9000007    1    1    2    0  502 -0.40724261173E+02 -0.38520290141E+02  0.96306941820E+03  0.10443394958E+04  0.40000000000E+03 0. -1.
<mgrwt>
<rscale>  2 0.40390875E+03</rscale>
<asrwt>0</asrwt>
<pdfrwt beam="1">  1       21 0.19633038E+00 0.40390875E+03</pdfrwt>
<pdfrwt beam="2">  1       21 0.29282789E-01 0.40390875E+03</pdfrwt>
<totfact> 0.13592580E+03</totfact>
</mgrwt>
</event>
<event>
 4    1  0.4918322E-002  0.4177101E+03  0.7818608E-02  0.1037814E+00
         21   -1    0    0  501  502  0.00000000000E+00  0.00000000000E+00  0.45773244569E+03  0.45773244569E+03  0.00000000000E+00 0. -1.
         21   -1    0    0  502  503 -0.00000000000E+00 -0.00000000000E+00 -0.42785309479E+03  0.42785309479E+03  0.00000000000E+00 0. -1.
    9000007    1    1    2  501    0 -0.79933943216E+02 -0.89957349880E+02  0.16117519481E+03  0.44772670626E+03  0.40000000000E+03 0. -1.
   -9000007    1    1    2    0  503  0.79933943216E+02  0.89957349880E+02 -0.13129584392E+03  0.43785883422E+03  0.40000000000E+03 0. -1.
<mgrwt>
<rscale>  2 0.41771014E+03</rscale>
<asrwt>0</asrwt>
<pdfrwt beam="1">  1       21 0.70420376E-01 0.41771014E+03</pdfrwt>
<pdfrwt beam="2">  1       21 0.65823553E-01 0.41771014E+03</pdfrwt>
<totfact> 0.34250218E+03</totfact>
</mgrwt>
</event>
<event>
 4    1  0.4918322E-002  0.4895460E+03  0.7818608E-02  0.1016544E+00
         21   -1    0    0  501  502  0.00000000000E+00  0.00000000000E+00  0.11838184730E+04  0.11838184730E+04  0.00000000000E+00 0. -1.
         21   -1    0    0  502  503 -0.00000000000E+00 -0.00000000000E+00 -0.70153723014E+03  0.70153723014E+03  0.00000000000E+00 0.  1.
    9000007    1    1    2  501    0 -0.27864188223E+03  0.44877536980E+02  0.10362546011E+04  0.11460710668E+04  0.40000000000E+03 0. -1.
   -9000007    1    1    2    0  503  0.27864188223E+03 -0.44877536980E+02 -0.55397335825E+03  0.73928463633E+03  0.40000000000E+03 0.  1.
<mgrwt>
<rscale>  2 0.48954601E+03</rscale>
<asrwt>0</asrwt>
<pdfrwt beam="1">  1       21 0.18212592E+00 0.48954601E+03</pdfrwt>
<pdfrwt beam="2">  1       21 0.10792880E+00 0.48954601E+03</pdfrwt>
<totfact> 0.93995067E+01</totfact>
</mgrwt>
</event>
<event>
 4    1  0.4918322E-002  0.5440818E+03  0.7818608E-02  0.1002873E+00
         21   -1    0    0  501  502  0.00000000000E+00  0.00000000000E+00  0.19358367197E+04  0.19358367197E+04  0.00000000000E+00 0. -1.
         21   -1    0    0  502  503 -0.00000000000E+00 -0.00000000000E+00 -0.17185349855E+03  0.17185349855E+03  0.00000000000E+00 0. -1.
    9000007    1    1    2  501    0  0.27979806696E+03 -0.24028737096E+03  0.12318012913E+04  0.13466103372E+04  0.40000000000E+03 0. -1.
   -9000007    1    1    2    0  503 -0.27979806696E+03  0.24028737096E+03  0.53218192979E+03  0.76107988104E+03  0.40000000000E+03 0. -1.
<mgrwt>
<rscale>  2 0.54408178E+03</rscale>
<asrwt>0</asrwt>
<pdfrwt beam="1">  1       21 0.29782102E+00 0.54408178E+03</pdfrwt>
<pdfrwt beam="2">  1       21 0.26439001E-01 0.54408178E+03</pdfrwt>
<totfact> 0.36122215E+02</totfact>
</mgrwt>
</event>
<event>
 4    1  0.4918322E-002  0.4982540E+03  0.7818608E-02  0.1014236E+00
         21   -1    0    0  503  502  0.00000000000E+00  0.00000000000E+00  0.38074231004E+03  0.38074231004E+03  0.00000000000E+00 0. -1.
         21   -1    0    0  501  503 -0.00000000000E+00 -0.00000000000E+00 -0.10108341473E+04  0.10108341473E+04  0.00000000000E+00 0.  1.
    9000007    1    1    2  501    0  0.27352584861E+03 -0.11593370802E+03 -0.72958291764E+03  0.88348641655E+03  0.40000000000E+03 0.  1.
   -9000007    1    1    2    0  502 -0.27352584861E+03  0.11593370802E+03  0.99491080345E+02  0.50809004082E+03  0.40000000000E+03 0. -1.
<mgrwt>
<rscale>  2 0.49825397E+03</rscale>
<asrwt>0</asrwt>
<pdfrwt beam="1">  1       21 0.58575741E-01 0.49825397E+03</pdfrwt>
<pdfrwt beam="2">  1       21 0.15551294E+00 0.49825397E+03</pdfrwt>
<totfact> 0.60654845E+02</totfact>
</mgrwt>
</event>
<event>
 4    1  0.4918322E-002  0.4695727E+03  0.7818608E-02  0.1022041E+00
         21   -1    0    0  503  502  0.00000000000E+00  0.00000000000E+00  0.29719437957E+03  0.29719437957E+03  0.00000000000E+00 0.  1.
         21   -1    0    0  501  503 -0.00000000000E+00 -0.00000000000E+00 -0.75318278049E+03  0.75318278049E+03  0.00000000000E+00 0.  1.
    9000007    1    1    2  501    0  0.18652587617E+03 -0.16033275161E+03 -0.29217803636E+03  0.55305198549E+03  0.40000000000E+03 0.  1.
   -9000007    1    1    2    0  502 -0.18652587617E+03  0.16033275161E+03 -0.16381036455E+03  0.49732517457E+03  0.40000000000E+03 0.  1.
<mgrwt>
<rscale>  2 0.46957267E+03</rscale>
<asrwt>0</asrwt>
<pdfrwt beam="1">  1       21 0.45722213E-01 0.46957267E+03</pdfrwt>
<pdfrwt beam="2">  1       21 0.11587427E+00 0.46957267E+03</pdfrwt>
<totfact> 0.22620549E+03</totfact>
</mgrwt>
</event>
<event>
 4    1  0.4918322E-002  0.4470723E+03  0.7818608E-02  0.1028599E+00
         21   -1    0    0  501  502  0.00000000000E+00  0.00000000000E+00  0.14184410770E+04  0.14184410770E+04  0.00000000000E+00 0.  1.
         21   -1    0    0  502  503 -0.00000000000E+00 -0.00000000000E+00 -0.14548551954E+03  0.14548551954E+03  0.00000000000E+00 0. -1.
    9000007    1    1    2  501    0  0.16874976090E+03  0.10675728412E+03  0.77514090183E+03  0.89482792603E+03  0.40000000000E+03 0. -1.
   -9000007    1    1    2    0  503 -0.16874976090E+03 -0.10675728412E+03  0.49781465565E+03  0.66909867052E+03  0.40000000000E+03 0. -1.
<mgrwt>
<rscale>  2 0.44707225E+03</rscale>
<asrwt>0</asrwt>
<pdfrwt beam="1">  1       21 0.21822170E+00 0.44707225E+03</pdfrwt>
<pdfrwt beam="2">  1       21 0.22382389E-01 0.44707225E+03</pdfrwt>
<totfact> 0.16165734E+03</totfact>
</mgrwt>
</event>
<event>
 4    1  0.4918322E-002  0.4989877E+03  0.7818608E-02  0.1014043E+00
         21   -1    0    0  501  502  0.00000000000E+00  0.00000000000E+00  0.19760860394E+04  0.19760860394E+04  0.00000000000E+00 0.  1.
         21   -1    0    0  502  503 -0.00000000000E+00 -0.00000000000E+00 -0.30983471609E+03  0.30983471609E+03  0.00000000000E+00 0.  1.
    9000007    1    1    2  501    0  0.22278124889E+02  0.29747668842E+03  0.17135231452E+04  0.17846989282E+04  0.40000000000E+03 0.  1.
   -9000007    1    1    2    0  503 -0.22278124889E+02 -0.29747668842E+03 -0.47271821942E+02  0.50122182729E+03  0.40000000000E+03 0.  1.
<mgrwt>
<rscale>  2 0.49898767E+03</rscale>
<asrwt>0</asrwt>
<pdfrwt beam="1">  1       21 0.30401323E+00 0.49898767E+03</pdfrwt>
<pdfrwt beam="2">  1       21 0.47666881E-01 0.49898767E+03</pdfrwt>
<totfact> 0.10211226E+02</totfact>
</mgrwt>
</event>
<event>
 4    1  0.4918322E-002  0.5224148E+03  0.7818608E-02  0.1008088E+00
         21   -1    0    0  503  502  0.00000000000E+00  0.00000000000E+00  0.58240830965E+03  0.58240830965E+03  0.00000000000E+00 0. -1.
         21   -1    0    0  501  503 -0.00000000000E+00 -0.00000000000E+00 -0.48207973541E+03  0.48207973541E+03  0.00000000000E+00 0. -1.
    9000007    1    1    2  501    0  0.33571098735E+03 -0.14674173396E+02  0.13916093689E+03  0.54063200492E+03  0.40000000000E+03 0. -1.
   -9000007    1    1    2    0  502 -0.33571098735E+03  0.14674173396E+02 -0.38832362648E+02  0.52385604013E+03  0.40000000000E+03 0. -1.
<mgrwt>
<rscale>  2 0.52241478E+03</rscale>
<asrwt>0</asrwt>
<pdfrwt beam="1">  1       21 0.89601278E-01 0.52241478E+03</pdfrwt>
<pdfrwt beam="2">  1       21 0.74166113E-01 0.52241478E+03</pdfrwt>
<totfact> 0.14458078E+03</totfact>
</mgrwt>
</event>
<event>
 4    1  0.4918322E-002  0.6618987E+03  0.7818608E-02  0.9784705E-01
         21   -1    0    0  503  502  0.00000000000E+00  0.00000000000E+00  0.46771775844E+03  0.46771775844E+03  0.00000000000E+00 0. -1.
         21   -1    0    0  501  503 -0.00000000000E+00 -0.00000000000E+00 -0.15291278710E+04  0.15291278710E+04  0.00000000000E+00 0.  1.
    9000007    1    1    2  501    0  0.13331658396E+03 -0.51023187647E+03 -0.11521624929E+04  0.13287544127E+04  0.40000000000E+03 0.  1.
   -9000007    1    1    2    0  502 -0.13331658396E+03  0.51023187647E+03  0.90752380321E+02  0.66809121672E+03  0.40000000000E+03 0. -1.
<mgrwt>
<rscale>  2 0.66189869E+03</rscale>
<asrwt>0</asrwt>
<pdfrwt beam="1">  1       21 0.71956579E-01 0.66189869E+03</pdfrwt>
<pdfrwt beam="2">  1       21 0.23525044E+00 0.66189869E+03</pdfrwt>
<totfact> 0.10132756E+02</totfact>
</mgrwt>
</event>
<event>
 4    1  0.4918322E-002  0.4004212E+03  0.7818608E-02  0.1043634E+00
         21   -1    0    0  503  502  0.00000000000E+00  0.00000000000E+00  0.17521472910E+03  0.17521472910E+03  0.00000000000E+00 0.  1.
         21   -1    0    0  501  503 -0.00000000000E+00 -0.00000000000E+00 -0.96587122448E+03  0.96587122448E+03  0.00000000000E+00 0.  1.
    9000007    1    1    2  501    0 -0.13819191753E+02 -0.12088400273E+02 -0.52615119258E+03  0.66118997038E+03  0.40000000000E+03 0.  1.
   -9000007    1    1    2    0  502  0.13819191753E+02  0.12088400273E+02 -0.26450530280E+03  0.47989598320E+03  0.40000000000E+03 0.  1.
<mgrwt>
<rscale>  2 0.40042115E+03</rscale>
<asrwt>0</asrwt>
<pdfrwt beam="1">  1       21 0.26956112E-01 0.40042115E+03</pdfrwt>
<pdfrwt beam="2">  1       21 0.14859557E+00 0.40042115E+03</pdfrwt>
<totfact> 0.35447413E+03</totfact>
</mgrwt>
</event>
<event>
 4    1  0.4918322E-002  0.4108556E+03  0.7818608E-02  0.1040084E+00
         21   -1    0    0  503  502  0.00000000000E+00  0.00000000000E+00  0.76585904829E+03  0.76585904829E+03  0.00000000000E+00 0.  1.
         21   -1    0    0  501  503 -0.00000000000E+00 -0.00000000000E+00 -0.24145200282E+03  0.24145200282E+03  0.00000000000E+00 0.  1.
    9000007    1    1    2  501    0  0.56425064597E+02 -0.74957165519E+02  0.41088956429E+03  0.58106161345E+03  0.40000000000E+03 0.  1.
   -9000007    1    1    2    0  502 -0.56425064597E+02  0.74957165519E+02  0.11351748118E+03  0.42624943767E+03  0.40000000000E+03 0.  1.
<mgrwt>
<rscale>  2 0.41085565E+03</rscale>
<asrwt>0</asrwt>
<pdfrwt beam="1">  1       21 0.11782447E+00 0.41085565E+03</pdfrwt>
<pdfrwt beam="2">  1       21 0.37146462E-01 0.41085565E+03</pdfrwt>
<totfact> 0.34075040E+03</totfact>
</mgrwt>
</event>
<event>
 4    1  0.4918322E-002  0.4880856E+03  0.7818608E-02  0.1016936E+00
         21   -1    0    0  501  502  0.00000000000E+00  0.00000000000E+00  0.59355195675E+03  0.59355195675E+03  0.00000000000E+00 0. -1.
         21   -1    0    0  502  503 -0.00000000000E+00 -0.00000000000E+00 -0.42659900541E+03  0.42659900541E+03  0.00000000000E+00 0. -1.
    9000007    1    1    2  501    0  0.27486497798E+03 -0.51737913889E+02  0.20754656774E+03  0.53038018971E+03  0.40000000000E+03 0. -1.
   -9000007    1    1    2    0  503 -0.27486497798E+03  0.51737913889E+02 -0.40593616405E+02  0.48977077245E+03  0.40000000000E+03 0. -1.
<mgrwt>
<rscale>  2 0.48808562E+03</rscale>
<asrwt>0</asrwt>
<pdfrwt beam="1">  1       21 0.91315686E-01 0.48808562E+03</pdfrwt>
<pdfrwt beam="2">  1       21 0.65630616E-01 0.48808562E+03</pdfrwt>
<totfact> 0.18425546E+03</totfact>
</mgrwt>
</event>
<event>
 4    1  0.4918322E-002  0.4069092E+03  0.7818608E-02  0.1041413E+00
         21   -1    0    0  501  502  0.00000000000E+00  0.00000000000E+00  0.13918013157E+03  0.13918013157E+03  0.00000000000E+00 0.  1.
         21   -1    0    0  502  503 -0.00000000000E+00 -0.00000000000E+00 -0.12425221731E+04  0.12425221731E+04  0.00000000000E+00 0.  1.
    9000007    1    1    2  501    0  0.82289291267E+01 -0.74211780782E+02 -0.69418646212E+03  0.80465517327E+03  0.40000000000E+03 0.  1.
   -9000007    1    1    2    0  503 -0.82289291267E+01  0.74211780782E+02 -0.40915557937E+03  0.57704713136E+03  0.40000000000E+03 0.  1.
<mgrwt>
<rscale>  2 0.40690921E+03</rscale>
<asrwt>0</asrwt>
<pdfrwt beam="1">  1       21 0.21412328E-01 0.40690921E+03</pdfrwt>
<pdfrwt beam="2">  1       21 0.19115725E+00 0.40690921E+03</pdfrwt>
<totfact> 0.27022798E+03</totfact>
</mgrwt>
</event>
<event>
 4    1  0.4918322E-002  0.6934474E+03  0.7818608E-02  0.9728504E-01
         21   -1    0    0  501  502  0.00000000000E+00  0.00000000000E+00  0.20096387591E+04  0.20096387591E+04  0.00000000000E+00 0.  1.
         21   -1    0    0  502  503 -0.00000000000E+00 -0.00000000000E+00 -0.38055655788E+03  0.38055655788E+03  0.00000000000E+00 0. -1.
    9000007    1    1    2  501    0 -0.55737750298E+03 -0.10099342308E+03  0.86381540191E+02  0.69880692815E+03  0.40000000000E+03 0. -1.
   -9000007    1    1    2    0  503  0.55737750298E+03  0.10099342308E+03  0.15427006610E+04  0.16913883888E+04  0.40000000000E+03 0. -1.
<mgrwt>
<rscale>  2 0.69344744E+03</rscale>
<asrwt>0</asrwt>
<pdfrwt beam="1">  1       21 0.30917519E+00 0.69344744E+03</pdfrwt>
<pdfrwt beam="2">  1       21 0.58547164E-01 0.69344744E+03</pdfrwt>
<totfact> 0.55424381E+01</totfact>
</mgrwt>
</event>
<event>
 4    1  0.4918322E-002  0.5055046E+03  0.7818608E-02  0.1012352E+00
         21   -1    0    0  501  502  0.00000000000E+00  0.00000000000E+00  0.95763175704E+03  0.95763175704E+03  0.00000000000E+00 0.  1.
         21   -1    0    0  502  503 -0.00000000000E+00 -0.00000000000E+00 -0.27537275475E+03  0.27537275475E+03  0.00000000000E+00 0.  1.
    9000007    1    1    2  501    0 -0.58444886855E+02  0.30351125622E+03  0.44964890658E+03  0.67654935270E+03  0.40000000000E+03 0. -1.
   -9000007    1    1    2    0  503  0.58444886855E+02 -0.30351125622E+03  0.23261009571E+03  0.55645515909E+03  0.40000000000E+03 0. -1.
<mgrwt>
<rscale>  2 0.50550459E+03</rscale>
<asrwt>0</asrwt>
<pdfrwt beam="1">  1       21 0.14732796E+00 0.50550459E+03</pdfrwt>
<pdfrwt beam="2">  1       21 0.42365040E-01 0.50550459E+03</pdfrwt>
<totfact> 0.13992099E+03</totfact>
</mgrwt>
</event>
<event>
 4    1  0.4918322E-002  0.4506840E+03  0.7818608E-02  0.1027518E+00
         21   -1    0    0  503  502  0.00000000000E+00  0.00000000000E+00  0.15336046843E+03  0.15336046843E+03  0.00000000000E+00 0. -1.
         21   -1    0    0  501  503 -0.00000000000E+00 -0.00000000000E+00 -0.13991161962E+04  0.13991161962E+04  0.00000000000E+00 0. -1.
    9000007    1    1    2  501    0  0.20682319333E+03  0.18445620494E+02 -0.44354004306E+03  0.63233206784E+03  0.40000000000E+03 0. -1.
   -9000007    1    1    2    0  502 -0.20682319333E+03 -0.18445620494E+02 -0.80221568474E+03  0.92014459682E+03  0.40000000000E+03 0. -1.
<mgrwt>
<rscale>  2 0.45068401E+03</rscale>
<asrwt>0</asrwt>
<pdfrwt beam="1">  1       21 0.23593918E-01 0.45068401E+03</pdfrwt>
<pdfrwt beam="2">  1       21 0.21524865E+00 0.45068401E+03</pdfrwt>
<totfact> 0.15235416E+03</totfact>
</mgrwt>
</event>
<event>
 4    1  0.4918322E-002  0.5581818E+03  0.7818608E-02  0.9996177E-01
         21   -1    0    0  503  502  0.00000000000E+00  0.00000000000E+00  0.40179471326E+03  0.40179471326E+03  0.00000000000E+00 0. -1.
         21   -1    0    0  501  503 -0.00000000000E+00 -0.00000000000E+00 -0.10844065602E+04  0.10844065602E+04  0.00000000000E+00 0. -1.
    9000007    1    1    2  501    0 -0.23766986628E+03 -0.30835031022E+03 -0.73795708174E+03  0.92528240751E+03  0.40000000000E+03 0. -1.
   -9000007    1    1    2    0  502  0.23766986628E+03  0.30835031022E+03  0.55345234806E+02  0.56091886594E+03  0.40000000000E+03 0. -1.
<mgrwt>
<rscale>  2 0.55818176E+03</rscale>
<asrwt>0</asrwt>
<pdfrwt beam="1">  1       21 0.61814572E-01 0.55818176E+03</pdfrwt>
<pdfrwt beam="2">  1       21 0.16683178E+00 0.55818176E+03</pdfrwt>
<totfact> 0.43205868E+02</totfact>
</mgrwt>
</event>
<event>
 4    1  0.4918322E-002  0.5519686E+03  0.7818608E-02  0.1001039E+00
         21   -1    0    0  503  502  0.00000000000E+00  0.00000000000E+00  0.11890824819E+04  0.11890824819E+04  0.00000000000E+00 0.  1.
         21   -1    0    0  501  503 -0.00000000000E+00 -0.00000000000E+00 -0.25886952876E+03  0.25886952876E+03  0.00000000000E+00 0.  1.
    9000007    1    1    2  501    0  0.19442257939E+03 -0.32690861540E+03  0.53831876963E+03  0.77101003880E+03  0.40000000000E+03 0.  1.
   -9000007    1    1    2    0  502 -0.19442257939E+03  0.32690861540E+03  0.39189418352E+03  0.67694197187E+03  0.40000000000E+03 0.  1.
<mgrwt>
<rscale>  2 0.55196864E+03</rscale>
<asrwt>0</asrwt>
<pdfrwt beam="1">  1       21 0.18293576E+00 0.55196864E+03</pdfrwt>
<pdfrwt beam="2">  1       21 0.39826082E-01 0.55196864E+03</pdfrwt>
<totfact> 0.84755364E+02</totfact>
</mgrwt>
</event>
<event>
 4    1  0.4918322E-002  0.5253439E+03  0.7818608E-02  0.1007368E+00
         21   -1    0    0  501  502  0.00000000000E+00  0.00000000000E+00  0.74837438698E+03  0.74837438698E+03  0.00000000000E+00 0.  1.
         21   -1    0    0  502  503 -0.00000000000E+00 -0.00000000000E+00 -0.91401996075E+03  0.91401996075E+03  0.00000000000E+00 0.  1.
    9000007    1    1    2  501    0  0.25196022943E+03 -0.22913370985E+03  0.55915452527E+03  0.76722877770E+03  0.40000000000E+03 0.  1.
   -9000007    1    1    2    0  503 -0.25196022943E+03  0.22913370985E+03 -0.72480009904E+03  0.89516557003E+03  0.40000000000E+03 0.  1.
<mgrwt>
<rscale>  2 0.52534390E+03</rscale>
<asrwt>0</asrwt>
<pdfrwt beam="1">  1       21 0.11513452E+00 0.52534390E+03</pdfrwt>
<pdfrwt beam="2">  1       21 0.14061846E+00 0.52534390E+03</pdfrwt>
<totfact> 0.16226990E+02</totfact>
</mgrwt>
</event>
<event>
 4    1  0.4918322E-002  0.4374009E+03  0.7818608E-02  0.1031547E+00
         21   -1    0    0  503  502  0.00000000000E+00  0.00000000000E+00  0.74771224254E+03  0.74771224254E+03  0.00000000000E+00 0. -1.
         21   -1    0    0  501  503 -0.00000000000E+00 -0.00000000000E+00 -0.27203514256E+03  0.27203514256E+03  0.00000000000E+00 0. -1.
    9000007    1    1    2  501    0  0.16036241978E+03 -0.74856277261E+02  0.11356002436E+03  0.45190203259E+03  0.40000000000E+03 0. -1.
   -9000007    1    1    2    0  502 -0.16036241978E+03  0.74856277261E+02  0.36211707562E+03  0.56784535252E+03  0.40000000000E+03 0. -1.
<mgrwt>
<rscale>  2 0.43740092E+03</rscale>
<asrwt>0</asrwt>
<pdfrwt beam="1">  1       21 0.11503265E+00 0.43740092E+03</pdfrwt>
<pdfrwt beam="2">  1       21 0.41851561E-01 0.43740092E+03</pdfrwt>
<totfact> 0.28037651E+03</totfact>
</mgrwt>
</event>
<event>
 4    1  0.4918322E-002  0.4163861E+03  0.7818608E-02  0.1038249E+00
         21   -1    0    0  503  502  0.00000000000E+00  0.00000000000E+00  0.18157339329E+04  0.18157339329E+04  0.00000000000E+00 0.  1.
         21   -1    0    0  501  503 -0.00000000000E+00 -0.00000000000E+00 -0.46839010244E+03  0.46839010244E+03  0.00000000000E+00 0.  1.
    9000007    1    1    2  501    0  0.83118844141E+02 -0.80427919880E+02 -0.34535192091E+03  0.54096704319E+03  0.40000000000E+03 0.  1.
   -9000007    1    1    2    0  502 -0.83118844141E+02  0.80427919880E+02  0.16926957514E+04  0.17431569922E+04  0.40000000000E+03 0.  1.
<mgrwt>
<rscale>  2 0.41638611E+03</rscale>
<asrwt>0</asrwt>
<pdfrwt beam="1">  1       21 0.27934368E+00 0.41638611E+03</pdfrwt>
<pdfrwt beam="2">  1       21 0.72060017E-01 0.41638611E+03</pdfrwt>
<totfact> 0.61442802E+01</totfact>
</mgrwt>
</event>
<event>
 4    1  0.4918322E-002  0.4598034E+03  0.7818608E-02  0.1024838E+00
         21   -1    0    0  501  502  0.00000000000E+00  0.00000000000E+00  0.62361822824E+03  0.62361822824E+03  0.00000000000E+00 0. -1.
         21   -1    0    0  502  503 -0.00000000000E+00 -0.00000000000E+00 -0.37498837620E+03  0.37498837620E+03  0.00000000000E+00 0.  1.
    9000007    1    1    2  501    0  0.14856077855E+03  0.17131508781E+03 -0.30322589095E+02  0.46080215239E+03  0.40000000000E+03 0.  1.
   -9000007    1    1    2    0  503 -0.14856077855E+03 -0.17131508781E+03  0.27895244114E+03  0.53780445206E+03  0.40000000000E+03 0. -1.
<mgrwt>
<rscale>  2 0.45980340E+03</rscale>
<asrwt>0</asrwt>
<pdfrwt beam="1">  1       21 0.95941266E-01 0.45980340E+03</pdfrwt>
<pdfrwt beam="2">  1       21 0.57690519E-01 0.45980340E+03</pdfrwt>
<totfact> 0.21974382E+03</totfact>
</mgrwt>
</event>
<event>
 4    1  0.4918322E-002  0.4938409E+03  0.7818608E-02  0.1015399E+00
         21   -1    0    0  503  502  0.00000000000E+00  0.00000000000E+00  0.26015293128E+03  0.26015293128E+03  0.00000000000E+00 0. -1.
         21   -1    0    0  501  503 -0.00000000000E+00 -0.00000000000E+00 -0.11873639277E+04  0.11873639277E+04  0.00000000000E+00 0. -1.
    9000007    1    1    2  501    0 -0.53858214711E+02  0.28456652170E+03 -0.79565445943E+03  0.93645332579E+03  0.40000000000E+03 0. -1.
   -9000007    1    1    2    0  502  0.53858214711E+02 -0.28456652170E+03 -0.13155653702E+03  0.51106353323E+03  0.40000000000E+03 0. -1.
<mgrwt>
<rscale>  2 0.49384088E+03</rscale>
<asrwt>0</asrwt>
<pdfrwt beam="1">  1       21 0.40023527E-01 0.49384088E+03</pdfrwt>
<pdfrwt beam="2">  1       21 0.18267138E+00 0.49384088E+03</pdfrwt>
<totfact> 0.86155475E+02</totfact>
</mgrwt>
</event>
<event>
 4    1  0.4918322E-002  0.4013644E+03  0.7818608E-02  0.1043308E+00
         21   -1    0    0  503  502  0.00000000000E+00  0.00000000000E+00  0.15313496131E+03  0.15313496131E+03  0.00000000000E+00 0.  1.
         21   -1    0    0  501  503 -0.00000000000E+00 -0.00000000000E+00 -0.13025723715E+04  0.13025723715E+04  0.00000000000E+00 0.  1.
    9000007    1    1    2  501    0  0.13207727275E+02 -0.30313841133E+02 -0.89397230297E+03  0.97993869783E+03  0.40000000000E+03 0.  1.
   -9000007    1    1    2    0  502 -0.13207727275E+02  0.30313841133E+02 -0.25546510723E+03  0.47576863498E+03  0.40000000000E+03 0.  1.
<mgrwt>
<rscale>  2 0.40136439E+03</rscale>
<asrwt>0</asrwt>
<pdfrwt beam="1">  1       21 0.23559225E-01 0.40136439E+03</pdfrwt>
<pdfrwt beam="2">  1       21 0.20039575E+00 0.40136439E+03</pdfrwt>
<totfact> 0.19549862E+03</totfact>
</mgrwt>
</event>
<event>
 4    1  0.4918322E-002  0.4586766E+03  0.7818608E-02  0.1025166E+00
         21   -1    0    0  501  502  0.00000000000E+00  0.00000000000E+00  0.73039093673E+03  0.73039093673E+03  0.00000000000E+00 0.  1.
         21   -1    0    0  502  503 -0.00000000000E+00 -0.00000000000E+00 -0.48900183942E+03  0.48900183942E+03  0.00000000000E+00 0. -1.
    9000007    1    1    2  501    0  0.19034355802E+03 -0.11896862921E+03  0.51154590621E+03  0.68706871488E+03  0.40000000000E+03 0.  1.
   -9000007    1    1    2    0  503 -0.19034355802E+03  0.11896862921E+03 -0.27015680889E+03  0.53232406127E+03  0.40000000000E+03 0. -1.
<mgrwt>
<rscale>  2 0.45867658E+03</rscale>
<asrwt>0</asrwt>
<pdfrwt beam="1">  1       21 0.11236784E+00 0.45867658E+03</pdfrwt>
<pdfrwt beam="2">  1       21 0.75231052E-01 0.45867658E+03</pdfrwt>
<totfact> 0.82552415E+02</totfact>
</mgrwt>
</event>
<event>
 4    1  0.4918322E-002  0.5258146E+03  0.7818608E-02  0.1007252E+00
         21   -1    0    0  501  502  0.00000000000E+00  0.00000000000E+00  0.11779350522E+04  0.11779350522E+04  0.00000000000E+00 0. -1.
         21   -1    0    0  502  503 -0.00000000000E+00 -0.00000000000E+00 -0.39525990717E+03  0.39525990717E+03  0.00000000000E+00 0.  1.
    9000007    1    1    2  501    0  0.81669319082E+02  0.33137761486E+03  0.89264849459E+03  0.10360030580E+04  0.40000000000E+03 0. -1.
   -9000007    1    1    2    0  503 -0.81669319082E+02 -0.33137761486E+03 -0.10997334953E+03  0.53719190139E+03  0.40000000000E+03 0.  1.
<mgrwt>
<rscale>  2 0.52581461E+03</rscale>
<asrwt>0</asrwt>
<pdfrwt beam="1">  1       21 0.18122078E+00 0.52581461E+03</pdfrwt>
<pdfrwt beam="2">  1       21 0.60809217E-01 0.52581461E+03</pdfrwt>
<totfact> 0.35707433E+02</totfact>
</mgrwt>
</event>
<event>
 4    1  0.4918322E-002  0.6463074E+03  0.7818608E-02  0.9813733E-01
         21   -1    0    0  503  502  0.00000000000E+00  0.00000000000E+00  0.57765652196E+03  0.57765652196E+03  0.00000000000E+00 0.  1.
         21   -1    0    0  501  503 -0.00000000000E+00 -0.00000000000E+00 -0.12860820529E+04  0.12860820529E+04  0.00000000000E+00 0. -1.
    9000007    1    1    2  501    0  0.45297348075E+03 -0.22919055283E+03 -0.97075290428E+03  0.11662223137E+04  0.40000000000E+03 0. -1.
   -9000007    1    1    2    0  502 -0.45297348075E+03  0.22919055283E+03  0.26232737335E+03  0.69751626116E+03  0.40000000000E+03 0.  1.
<mgrwt>
<rscale>  2 0.64630742E+03</rscale>
<asrwt>0</asrwt>
<pdfrwt beam="1">  1       21 0.88870235E-01 0.64630742E+03</pdfrwt>
<pdfrwt beam="2">  1       21 0.19785877E+00 0.64630742E+03</pdfrwt>
<totfact> 0.10952787E+02</totfact>
</mgrwt>
</event>
<event>
 4    1  0.4918322E-002  0.4236117E+03  0.7818608E-02  0.1035897E+00
         21   -1    0    0  503  502  0.00000000000E+00  0.00000000000E+00  0.18862185194E+03  0.18862185194E+03  0.00000000000E+00 0. -1.
         21   -1    0    0  501  503 -0.00000000000E+00 -0.00000000000E+00 -0.98400949647E+03  0.98400949647E+03  0.00000000000E+00 0. -1.
    9000007    1    1    2  501    0 -0.13945174889E+03 -0.26080073689E+00 -0.50449724022E+03  0.65875968583E+03  0.40000000000E+03 0. -1.
   -9000007    1    1    2    0  502  0.13945174889E+03  0.26080073689E+00 -0.29089040431E+03  0.51387166259E+03  0.40000000000E+03 0. -1.
<mgrwt>
<rscale>  2 0.42361168E+03</rscale>
<asrwt>0</asrwt>
<pdfrwt beam="1">  1       21 0.29018746E-01 0.42361168E+03</pdfrwt>
<pdfrwt beam="2">  1       21 0.15138608E+00 0.42361168E+03</pdfrwt>
<totfact> 0.28878429E+03</totfact>
</mgrwt>
</event>
<event>
 4    1  0.4918322E-002  0.5917152E+03  0.7818608E-02  0.9922745E-01
         21   -1    0    0  503  502  0.00000000000E+00  0.00000000000E+00  0.21225020497E+03  0.21225020497E+03  0.00000000000E+00 0. -1.
         21   -1    0    0  501  503 -0.00000000000E+00 -0.00000000000E+00 -0.17525652868E+04  0.17525652868E+04  0.00000000000E+00 0.  1.
    9000007    1    1    2  501    0 -0.33367177029E+03 -0.28069569836E+03 -0.10082853710E+04  0.11690878131E+04  0.40000000000E+03 0. -1.
   -9000007    1    1    2    0  502  0.33367177029E+03  0.28069569836E+03 -0.53202971079E+03  0.79572767862E+03  0.40000000000E+03 0.  1.
<mgrwt>
<rscale>  2 0.59171524E+03</rscale>
<asrwt>0</asrwt>
<pdfrwt beam="1">  1       21 0.32653875E-01 0.59171524E+03</pdfrwt>
<pdfrwt beam="2">  1       21 0.26962545E+00 0.59171524E+03</pdfrwt>
<totfact> 0.34481169E+02</totfact>
</mgrwt>
</event>
<event>
 4    1  0.4918322E-002  0.4158992E+03  0.7818608E-02  0.1038409E+00
         21   -1    0    0  501  502  0.00000000000E+00  0.00000000000E+00  0.22679425397E+03  0.22679425397E+03  0.00000000000E+00 0. -1.
         21   -1    0    0  502  503 -0.00000000000E+00 -0.00000000000E+00 -0.84484136926E+03  0.84484136926E+03  0.00000000000E+00 0. -1.
    9000007    1    1    2  501    0 -0.11204678922E+03  0.20437220450E+02 -0.14193181500E+03  0.43945056953E+03  0.40000000000E+03 0. -1.
   -9000007    1    1    2    0  503  0.11204678922E+03 -0.20437220450E+02 -0.47611530029E+03  0.63218505370E+03  0.40000000000E+03 0. -1.
<mgrwt>
<rscale>  2 0.41589922E+03</rscale>
<asrwt>0</asrwt>
<pdfrwt beam="1">  1       21 0.34891424E-01 0.41589922E+03</pdfrwt>
<pdfrwt beam="2">  1       21 0.12997560E+00 0.41589922E+03</pdfrwt>
<totfact> 0.30038026E+03</totfact>
</mgrwt>
</event>
<event>
 4    1  0.4918322E-002  0.4227231E+03  0.7818608E-02  0.1036184E+00
         21   -1    0    0  503  502  0.00000000000E+00  0.00000000000E+00  0.23158923213E+03  0.23158923213E+03  0.00000000000E+00 0.  1.
         21   -1    0    0  501  503 -0.00000000000E+00 -0.00000000000E+00 -0.18316001952E+04  0.18316001952E+04  0.00000000000E+00 0. -1.
    9000007    1    1    2  501    0  0.12138627104E+03  0.62930307690E+02 -0.15847823801E+04  0.16401920749E+04  0.40000000000E+03 0. -1.
   -9000007    1    1    2    0  502 -0.12138627104E+03 -0.62930307690E+02 -0.15228583004E+02  0.42299735243E+03  0.40000000000E+03 0.  1.
<mgrwt>
<rscale>  2 0.42272314E+03</rscale>
<asrwt>0</asrwt>
<pdfrwt beam="1">  1       21 0.35629113E-01 0.42272314E+03</pdfrwt>
<pdfrwt beam="2">  1       21 0.28178464E+00 0.42272314E+03</pdfrwt>
<totfact> 0.26582713E+02</totfact>
</mgrwt>
</event>
<event>
 4    1  0.4918322E-002  0.4818100E+03  0.7818608E-02  0.1018639E+00
         21   -1    0    0  501  502  0.00000000000E+00  0.00000000000E+00  0.21225592129E+03  0.21225592129E+03  0.00000000000E+00 0.  1.
         21   -1    0    0  502  503 -0.00000000000E+00 -0.00000000000E+00 -0.11111505827E+04  0.11111505827E+04  0.00000000000E+00 0. -1.
    9000007    1    1    2  501    0  0.25939179972E+03 -0.69690379604E+02 -0.36648446869E+03  0.60535255890E+03  0.40000000000E+03 0. -1.
   -9000007    1    1    2    0  503 -0.25939179972E+03  0.69690379604E+02 -0.53241019277E+03  0.71805394515E+03  0.40000000000E+03 0.  1.
<mgrwt>
<rscale>  2 0.48180998E+03</rscale>
<asrwt>0</asrwt>
<pdfrwt beam="1">  1       21 0.32654756E-01 0.48180998E+03</pdfrwt>
<pdfrwt beam="2">  1       21 0.17094625E+00 0.48180998E+03</pdfrwt>
<totfact> 0.15888639E+03</totfact>
</mgrwt>
</event>
<event>
 4    1  0.4918322E-002  0.5255742E+03  0.7818608E-02  0.1007311E+00
         21   -1    0    0  503  502  0.00000000000E+00  0.00000000000E+00  0.46988268442E+03  0.46988268442E+03  0.00000000000E+00 0. -1.
         21   -1    0    0  501  503 -0.00000000000E+00 -0.00000000000E+00 -0.59961047652E+03  0.59961047652E+03  0.00000000000E+00 0.  1.
    9000007    1    1    2  501    0 -0.27483412822E+03  0.20172873823E+03  0.99739503955E+01  0.52566887063E+03  0.40000000000E+03 0.  1.
   -9000007    1    1    2    0  502  0.27483412822E+03 -0.20172873823E+03 -0.13970174250E+03  0.54382429030E+03  0.40000000000E+03 0. -1.
<mgrwt>
<rscale>  2 0.52557424E+03</rscale>
<asrwt>0</asrwt>
<pdfrwt beam="1">  1       21 0.72289644E-01 0.52557424E+03</pdfrwt>
<pdfrwt beam="2">  1       21 0.92247765E-01 0.52557424E+03</pdfrwt>
<totfact> 0.14285497E+03</totfact>
</mgrwt>
</event>
<event>
 4    1  0.4918322E-002  0.4075871E+03  0.7818608E-02  0.1041184E+00
         21   -1    0    0  501  502  0.00000000000E+00  0.00000000000E+00  0.22310527701E+03  0.22310527701E+03  0.00000000000E+00 0. -1.
         21   -1    0    0  502  503 -0.00000000000E+00 -0.00000000000E+00 -0.99196706412E+03  0.99196706412E+03  0.00000000000E+00 0. -1.
    9000007    1    1    2  501    0  0.52096114423E+02  0.58422652125E+02 -0.81053958804E+02  0.41556823225E+03  0.40000000000E+03 0. -1.
   -9000007    1    1    2    0  503 -0.52096114423E+02 -0.58422652125E+02 -0.68780782831E+03  0.79950410887E+03  0.40000000000E+03 0. -1.
<mgrwt>
<rscale>  2 0.40758706E+03</rscale>
<asrwt>0</asrwt>
<pdfrwt beam="1">  1       21 0.34323889E-01 0.40758706E+03</pdfrwt>
<pdfrwt beam="2">  1       21 0.15261032E+00 0.40758706E+03</pdfrwt>
<totfact> 0.20345931E+03</totfact>
</mgrwt>
</event>
<event>
 4    1  0.4918322E-002  0.4103021E+03  0.7818608E-02  0.1040270E+00
         21   -1    0    0  503  502  0.00000000000E+00  0.00000000000E+00  0.14076320353E+03  0.14076320353E+03  0.00000000000E+00 0.  1.
         21   -1    0    0  501  503 -0.00000000000E+00 -0.00000000000E+00 -0.14207086467E+04  0.14207086467E+04  0.00000000000E+00 0.  1.
    9000007    1    1    2  501    0  0.98384997965E+01  0.90834908512E+02 -0.95049729062E+03  0.10352743000E+04  0.40000000000E+03 0.  1.
   -9000007    1    1    2    0  502 -0.98384997965E+01 -0.90834908512E+02 -0.32944815251E+03  0.52619755023E+03  0.40000000000E+03 0.  1.
<mgrwt>
<rscale>  2 0.41030206E+03</rscale>
<asrwt>0</asrwt>
<pdfrwt beam="1">  1       21 0.21655878E-01 0.41030206E+03</pdfrwt>
<pdfrwt beam="2">  1       21 0.21857055E+00 0.41030206E+03</pdfrwt>
<totfact> 0.17432198E+03</totfact>
</mgrwt>
</event>
<event>
 4    1  0.4918322E-002  0.4097855E+03  0.7818608E-02  0.1040443E+00
         21   -1    0    0  501  502  0.00000000000E+00  0.00000000000E+00  0.48029973396E+03  0.48029973396E+03  0.00000000000E+00 0.  1.
         21   -1    0    0  502  503 -0.00000000000E+00 -0.00000000000E+00 -0.57348498297E+03  0.57348498297E+03  0.00000000000E+00 0.  1.
    9000007    1    1    2  501    0 -0.13934181032E+02 -0.87920184398E+02  0.28260028312E+03  0.49778212126E+03  0.40000000000E+03 0.  1.
   -9000007    1    1    2    0  503  0.13934181032E+02  0.87920184398E+02 -0.37578553213E+03  0.55600259566E+03  0.40000000000E+03 0.  1.
<mgrwt>
<rscale>  2 0.40978546E+03</rscale>
<asrwt>0</asrwt>
<pdfrwt beam="1">  1       21 0.73892267E-01 0.40978546E+03</pdfrwt>
<pdfrwt beam="2">  1       21 0.88228459E-01 0.40978546E+03</pdfrwt>
<totfact> 0.15777999E+03</totfact>
</mgrwt>
</event>
<event>
 4    1  0.4918322E-002  0.4514511E+03  0.7818608E-02  0.1027290E+00
         21   -1    0    0  503  502  0.00000000000E+00  0.00000000000E+00  0.11427532553E+04  0.11427532553E+04  0.00000000000E+00 0.  1.
         21   -1    0    0  501  503 -0.00000000000E+00 -0.00000000000E+00 -0.17991845175E+03  0.17991845175E+03  0.00000000000E+00 0.  1.
    9000007    1    1    2  501    0 -0.20614694019E+03  0.36214584983E+02  0.54319916067E+03  0.70630969501E+03  0.40000000000E+03 0.  1.
   -9000007    1    1    2    0  502  0.20614694019E+03 -0.36214584983E+02  0.41963564290E+03  0.61636201205E+03  0.40000000000E+03 0.  1.
<mgrwt>
<rscale>  2 0.45145106E+03</rscale>
<asrwt>0</asrwt>
<pdfrwt beam="1">  1       21 0.17580819E+00 0.45145106E+03</pdfrwt>
<pdfrwt beam="2">  1       21 0.27679763E-01 0.45145106E+03</pdfrwt>
<totfact> 0.20612187E+03</totfact>
</mgrwt>
</event>
<event>
 4    1  0.4918322E-002  0.4221665E+03  0.7818608E-02  0.1036363E+00
         21   -1    0    0  503  502  0.00000000000E+00  0.00000000000E+00  0.97011858122E+03  0.97011858122E+03  0.00000000000E+00 0.  1.
         21   -1    0    0  501  503 -0.00000000000E+00 -0.00000000000E+00 -0.24231065139E+03  0.24231065139E+03  0.00000000000E+00 0. -1.
    9000007    1    1    2  501    0 -0.17114788599E+02  0.13390920465E+03  0.65794553954E+02  0.42726281655E+03  0.40000000000E+03 0. -1.
   -9000007    1    1    2    0  502  0.17114788599E+02 -0.13390920465E+03  0.66201337588E+03  0.78516641607E+03  0.40000000000E+03 0.  1.
<mgrwt>
<rscale>  2 0.42216654E+03</rscale>
<asrwt>0</asrwt>
<pdfrwt beam="1">  1       21 0.14924901E+00 0.42216654E+03</pdfrwt>
<pdfrwt beam="2">  1       21 0.37278562E-01 0.42216654E+03</pdfrwt>
<totfact> 0.18168982E+03</totfact>
</mgrwt>
</event>
<event>
 4    1  0.4918322E-002  0.5005767E+03  0.7818608E-02  0.1013628E+00
         21   -1    0    0  501  502  0.00000000000E+00  0.00000000000E+00  0.28834088603E+03  0.28834088603E+03  0.00000000000E+00 0.  1.
         21   -1    0    0  502  503 -0.00000000000E+00 -0.00000000000E+00 -0.11560603550E+04  0.11560603550E+04  0.00000000000E+00 0. -1.
    9000007    1    1    2  501    0 -0.84135562746E+00 -0.30095902221E+03 -0.74001789513E+02  0.50601710028E+03  0.40000000000E+03 0.  1.
   -9000007    1    1    2    0  503  0.84135562746E+00  0.30095902221E+03 -0.79371767945E+03  0.93838414074E+03  0.40000000000E+03 0. -1.
<mgrwt>
<rscale>  2 0.50057671E+03</rscale>
<asrwt>0</asrwt>
<pdfrwt beam="1">  1       21 0.44360136E-01 0.50057671E+03</pdfrwt>
<pdfrwt beam="2">  1       21 0.17785544E+00 0.50057671E+03</pdfrwt>
<totfact> 0.75029459E+02</totfact>
</mgrwt>
</event>
<event>
 4    1  0.4918322E-002  0.4903938E+03  0.7818608E-02  0.1016317E+00
         21   -1    0    0  501  502  0.00000000000E+00  0.00000000000E+00  0.39720120223E+03  0.39720120223E+03  0.00000000000E+00 0.  1.
         21   -1    0    0  502  503 -0.00000000000E+00 -0.00000000000E+00 -0.62291364240E+03  0.62291364240E+03  0.00000000000E+00 0. -1.
    9000007    1    1    2  501    0  0.14385896311E+03  0.24452130823E+03 -0.19825539417E+03  0.52895299674E+03  0.40000000000E+03 0. -1.
   -9000007    1    1    2    0  503 -0.14385896311E+03 -0.24452130823E+03 -0.27457045991E+02  0.49116184789E+03  0.40000000000E+03 0.  1.
<mgrwt>
<rscale>  2 0.49039379E+03</rscale>
<asrwt>0</asrwt>
<pdfrwt beam="1">  1       21 0.61107877E-01 0.49039379E+03</pdfrwt>
<pdfrwt beam="2">  1       21 0.95832868E-01 0.49039379E+03</pdfrwt>
<totfact> 0.19213285E+03</totfact>
</mgrwt>
</event>
<event>
 4    1  0.4918322E-002  0.7098305E+03  0.7818608E-02  0.9700567E-01
         21   -1    0    0  503  502  0.00000000000E+00  0.00000000000E+00  0.91462810815E+03  0.91462810815E+03  0.00000000000E+00 0. -1.
         21   -1    0    0  501  503 -0.00000000000E+00 -0.00000000000E+00 -0.71176714425E+03  0.71176714425E+03  0.00000000000E+00 0. -1.
    9000007    1    1    2  501    0 -0.55954695451E+03 -0.17540412179E+03 -0.28518071120E+03  0.76497544947E+03  0.40000000000E+03 0. -1.
   -9000007    1    1    2    0  502  0.55954695451E+03  0.17540412179E+03  0.48804167510E+03  0.86141980293E+03  0.40000000000E+03 0. -1.
<mgrwt>
<rscale>  2 0.70983054E+03</rscale>
<asrwt>0</asrwt>
<pdfrwt beam="1">  1       21 0.14071202E+00 0.70983054E+03</pdfrwt>
<pdfrwt beam="2">  1       21 0.10950264E+00 0.70983054E+03</pdfrwt>
<totfact> 0.17153076E+02</totfact>
</mgrwt>
</event>
<event>
 4    1  0.4918322E-002  0.4207977E+03  0.7818608E-02  0.1036807E+00
         21   -1    0    0  501  502  0.00000000000E+00  0.00000000000E+00  0.39858185406E+03  0.39858185406E+03  0.00000000000E+00 0. -1.
         21   -1    0    0  502  503 -0.00000000000E+00 -0.00000000000E+00 -0.44827668000E+03  0.44827668000E+03  0.00000000000E+00 0. -1.
    9000007    1    1    2  501    0  0.10598468998E+03 -0.76406300117E+02 -0.64969930930E+02  0.42578371168E+03  0.40000000000E+03 0.  1.
   -9000007    1    1    2    0  503 -0.10598468998E+03  0.76406300117E+02  0.15275104994E+02  0.42107482238E+03  0.40000000000E+03 0.  1.
<mgrwt>
<rscale>  2 0.42079767E+03</rscale>
<asrwt>0</asrwt>
<pdfrwt beam="1">  1       21 0.61320285E-01 0.42079767E+03</pdfrwt>
<pdfrwt beam="2">  1       21 0.68965643E-01 0.42079767E+03</pdfrwt>
<totfact> 0.41932699E+03</totfact>
</mgrwt>
</event>
<event>
 4    1  0.4918322E-002  0.4415034E+03  0.7818608E-02  0.1030287E+00
         21   -1    0    0  503  502  0.00000000000E+00  0.00000000000E+00  0.12205647562E+04  0.12205647562E+04  0.00000000000E+00 0.  1.
         21   -1    0    0  501  503 -0.00000000000E+00 -0.00000000000E+00 -0.16319300623E+03  0.16319300623E+03  0.00000000000E+00 0. -1.
    9000007    1    1    2  501    0 -0.12179377900E+03  0.14174444706E+03  0.62989669855E+03  0.76921717592E+03  0.40000000000E+03 0.  1.
   -9000007    1    1    2    0  502  0.12179377900E+03 -0.14174444706E+03  0.42747505138E+03  0.61454058648E+03  0.40000000000E+03 0. -1.
<mgrwt>
<rscale>  2 0.44150336E+03</rscale>
<asrwt>0</asrwt>
<pdfrwt beam="1">  1       21 0.18777919E+00 0.44150336E+03</pdfrwt>
<pdfrwt beam="2">  1       21 0.25106617E-01 0.44150336E+03</pdfrwt>
<totfact> 0.20650322E+03</totfact>
</mgrwt>
</event>
<event>
 4    1  0.4918322E-002  0.4398253E+03  0.7818608E-02  0.1030800E+00
         21   -1    0    0  503  502  0.00000000000E+00  0.00000000000E+00  0.20879917127E+03  0.20879917127E+03  0.00000000000E+00 0.  1.
         21   -1    0    0  501  503 -0.00000000000E+00 -0.00000000000E+00 -0.94309092231E+03  0.94309092231E+03  0.00000000000E+00 0.  1.
    9000007    1    1    2  501    0 -0.67736321878E+02  0.16987669857E+03 -0.44360396680E+03  0.62468454550E+03  0.40000000000E+03 0.  1.
   -9000007    1    1    2    0  502  0.67736321878E+02 -0.16987669857E+03 -0.29068778424E+03  0.52720554808E+03  0.40000000000E+03 0.  1.
<mgrwt>
<rscale>  2 0.43982531E+03</rscale>
<asrwt>0</asrwt>
<pdfrwt beam="1">  1       21 0.32122950E-01 0.43982531E+03</pdfrwt>
<pdfrwt beam="2">  1       21 0.14509091E+00 0.43982531E+03</pdfrwt>
<totfact> 0.26292057E+03</totfact>
</mgrwt>
</event>
<event>
 4    1  0.4918322E-002  0.4165660E+03  0.7818608E-02  0.1038190E+00
         21   -1    0    0  501  502  0.00000000000E+00  0.00000000000E+00  0.42561258342E+03  0.42561258342E+03  0.00000000000E+00 0. -1.
         21   -1    0    0  502  503 -0.00000000000E+00 -0.00000000000E+00 -0.54526095416E+03  0.54526095416E+03  0.00000000000E+00 0.  1.
    9000007    1    1    2  501    0 -0.98632512628E+02 -0.61634736290E+02  0.18399038216E+03  0.45538958485E+03  0.40000000000E+03 0. -1.
   -9000007    1    1    2    0  503  0.98632512628E+02  0.61634736290E+02 -0.30363875290E+03  0.51548395273E+03  0.40000000000E+03 0.  1.
<mgrwt>
<rscale>  2 0.41656598E+03</rscale>
<asrwt>0</asrwt>
<pdfrwt beam="1">  1       21 0.65478859E-01 0.41656598E+03</pdfrwt>
<pdfrwt beam="2">  1       21 0.83886300E-01 0.41656598E+03</pdfrwt>
<totfact> 0.23228308E+03</totfact>
</mgrwt>
</event>
<event>
 4    1  0.4918322E-002  0.5247799E+03  0.7818608E-02  0.1007506E+00
         21   -1    0    0  503  502  0.00000000000E+00  0.00000000000E+00  0.81407844718E+03  0.81407844718E+03  0.00000000000E+00 0.  1.
         21   -1    0    0  501  503 -0.00000000000E+00 -0.00000000000E+00 -0.63735128018E+03  0.63735128018E+03  0.00000000000E+00 0. -1.
    9000007    1    1    2  501    0  0.32602018899E+03  0.95419194772E+02 -0.40875182697E+03  0.66518572024E+03  0.40000000000E+03 0. -1.
   -9000007    1    1    2    0  502 -0.32602018899E+03 -0.95419194772E+02  0.58547899397E+03  0.78624400712E+03  0.40000000000E+03 0.  1.
<mgrwt>
<rscale>  2 0.52477994E+03</rscale>
<asrwt>0</asrwt>
<pdfrwt beam="1">  1       21 0.12524284E+00 0.52477994E+03</pdfrwt>
<pdfrwt beam="2">  1       21 0.98054043E-01 0.52477994E+03</pdfrwt>
<totfact> 0.32726175E+02</totfact>
</mgrwt>
</event>
<event>
 4    1  0.4918322E-002  0.5209518E+03  0.7818608E-02  0.1008450E+00
         21   -1    0    0  503  502  0.00000000000E+00  0.00000000000E+00  0.37470201068E+03  0.37470201068E+03  0.00000000000E+00 0.  1.
         21   -1    0    0  501  503 -0.00000000000E+00 -0.00000000000E+00 -0.90937232020E+03  0.90937232020E+03  0.00000000000E+00 0.  1.
    9000007    1    1    2  501    0 -0.33056740727E+03 -0.45999253341E+02 -0.55698852635E+03  0.76264471449E+03  0.40000000000E+03 0.  1.
   -9000007    1    1    2    0  502  0.33056740727E+03  0.45999253341E+02  0.22318216829E+02  0.52142961640E+03  0.40000000000E+03 0.  1.
<mgrwt>
<rscale>  2 0.52095177E+03</rscale>
<asrwt>0</asrwt>
<pdfrwt beam="1">  1       21 0.57646463E-01 0.52095177E+03</pdfrwt>
<pdfrwt beam="2">  1       21 0.13990343E+00 0.52095177E+03</pdfrwt>
<totfact> 0.82972751E+02</totfact>
</mgrwt>
</event>
<event>
 4    1  0.4918322E-002  0.4183054E+03  0.7818608E-02  0.1037619E+00
         21   -1    0    0  503  502  0.00000000000E+00  0.00000000000E+00  0.73217923201E+03  0.73217923201E+03  0.00000000000E+00 0. -1.
         21   -1    0    0  501  503 -0.00000000000E+00 -0.00000000000E+00 -0.23927655896E+03  0.23927655896E+03  0.00000000000E+00 0. -1.
    9000007    1    1    2  501    0 -0.20742289509E+02 -0.12061988424E+03  0.26342471183E+03  0.49433994159E+03  0.40000000000E+03 0. -1.
   -9000007    1    1    2    0  502  0.20742289509E+02  0.12061988424E+03  0.22947796122E+03  0.47711584938E+03  0.40000000000E+03 0. -1.
<mgrwt>
<rscale>  2 0.41830539E+03</rscale>
<asrwt>0</asrwt>
<pdfrwt beam="1">  1       21 0.11264296E+00 0.41830539E+03</pdfrwt>
<pdfrwt beam="2">  1       21 0.36811779E-01 0.41830539E+03</pdfrwt>
<totfact> 0.38721410E+03</totfact>
</mgrwt>
</event>
<event>
 4    1  0.4918322E-002  0.4006383E+03  0.7818608E-02  0.1043559E+00
         21   -1    0    0  503  502  0.00000000000E+00  0.00000000000E+00  0.33648994831E+03  0.33648994831E+03  0.00000000000E+00 0. -1.
         21   -1    0    0  501  503 -0.00000000000E+00 -0.00000000000E+00 -0.51665351980E+03  0.51665351980E+03  0.00000000000E+00 0. -1.
    9000007    1    1    2  501    0  0.21862011664E+02 -0.57538031794E+01  0.28071605182E+02  0.40162055329E+03  0.40000000000E+03 0. -1.
   -9000007    1    1    2    0  502 -0.21862011664E+02  0.57538031794E+01 -0.20823517667E+03  0.45152291482E+03  0.40000000000E+03 0. -1.
<mgrwt>
<rscale>  2 0.40063831E+03</rscale>
<asrwt>0</asrwt>
<pdfrwt beam="1">  1       21 0.51767684E-01 0.40063831E+03</pdfrwt>
<pdfrwt beam="2">  1       21 0.79485157E-01 0.40063831E+03</pdfrwt>
<totfact> 0.44149283E+03</totfact>
</mgrwt>
</event>
<event>
 4    1  0.4918322E-002  0.4118407E+03  0.7818608E-02  0.1039755E+00
         21   -1    0    0  503  502  0.00000000000E+00  0.00000000000E+00  0.23332204585E+03  0.23332204585E+03  0.00000000000E+00 0.  1.
         21   -1    0    0  501  503 -0.00000000000E+00 -0.00000000000E+00 -0.75120144171E+03  0.75120144171E+03  0.00000000000E+00 0.  1.
    9000007    1    1    2  501    0 -0.66210245796E+02  0.72311570131E+02 -0.17048649245E+03  0.44573355711E+03  0.40000000000E+03 0. -1.
   -9000007    1    1    2    0  502  0.66210245796E+02 -0.72311570131E+02 -0.34739290341E+03  0.53878993046E+03  0.40000000000E+03 0. -1.
<mgrwt>
<rscale>  2 0.41184070E+03</rscale>
<asrwt>0</asrwt>
<pdfrwt beam="1">  1       21 0.35895699E-01 0.41184070E+03</pdfrwt>
<pdfrwt beam="2">  1       21 0.11556945E+00 0.41184070E+03</pdfrwt>
<totfact> 0.38324090E+03</totfact>
</mgrwt>
</event>
<event>
 4    1  0.4918322E-002  0.6352562E+03  0.7818608E-02  0.9834845E-01
         21   -1    0    0  503  502  0.00000000000E+00  0.00000000000E+00  0.91262302013E+03  0.91262302013E+03  0.00000000000E+00 0.  1.
         21   -1    0    0  501  503 -0.00000000000E+00 -0.00000000000E+00 -0.93311262164E+03  0.93311262164E+03  0.00000000000E+00 0. -1.
    9000007    1    1    2  501    0 -0.31010859997E+03 -0.38390500533E+03 -0.67963622657E+03  0.93029876780E+03  0.40000000000E+03 0. -1.
   -9000007    1    1    2    0  502  0.31010859997E+03  0.38390500533E+03  0.65914662507E+03  0.91543687397E+03  0.40000000000E+03 0.  1.
<mgrwt>
<rscale>  2 0.63525617E+03</rscale>
<asrwt>0</asrwt>
<pdfrwt beam="1">  1       21 0.14040354E+00 0.63525617E+03</pdfrwt>
<pdfrwt beam="2">  1       21 0.14355579E+00 0.63525617E+03</pdfrwt>
<totfact> 0.87547874E+01</totfact>
</mgrwt>
</event>
<event>
 4    1  0.4918322E-002  0.4035712E+03  0.7818608E-02  0.1042550E+00
         21   -1    0    0  503  502  0.00000000000E+00  0.00000000000E+00  0.44641192502E+03  0.44641192502E+03  0.00000000000E+00 0. -1.
         21   -1    0    0  501  503 -0.00000000000E+00 -0.00000000000E+00 -0.36488938487E+03  0.36488938487E+03  0.00000000000E+00 0. -1.
    9000007    1    1    2  501    0  0.33322449494E+02 -0.41944589129E+02  0.45393241007E+02  0.40611609243E+03  0.40000000000E+03 0. -1.
   -9000007    1    1    2    0  502 -0.33322449494E+02  0.41944589129E+02  0.36129299147E+02  0.40518521747E+03  0.40000000000E+03 0. -1.
<mgrwt>
<rscale>  2 0.40357123E+03</rscale>
<asrwt>0</asrwt>
<pdfrwt beam="1">  1       21 0.68678758E-01 0.40357123E+03</pdfrwt>
<pdfrwt beam="2">  1       21 0.56136828E-01 0.40357123E+03</pdfrwt>
<totfact> 0.51630223E+03</totfact>
</mgrwt>
</event>
<event>
 4    1  0.4918322E-002  0.4283778E+03  0.7818608E-02  0.1034374E+00
         21   -1    0    0  503  502  0.00000000000E+00  0.00000000000E+00  0.24649717198E+03  0.24649717198E+03  0.00000000000E+00 0. -1.
         21   -1    0    0  501  503 -0.00000000000E+00 -0.00000000000E+00 -0.11822483546E+04  0.11822483546E+04  0.00000000000E+00 0. -1.
    9000007    1    1    2  501    0 -0.91426122090E+02  0.12308032289E+03 -0.90258815760E+03  0.99908602429E+03  0.40000000000E+03 0. -1.
   -9000007    1    1    2    0  502  0.91426122090E+02 -0.12308032289E+03 -0.33163025025E+02  0.42965950230E+03  0.40000000000E+03 0. -1.
<mgrwt>
<rscale>  2 0.42837776E+03</rscale>
<asrwt>0</asrwt>
<pdfrwt beam="1">  1       21 0.37922641E-01 0.42837776E+03</pdfrwt>
<pdfrwt beam="2">  1       21 0.18188437E+00 0.42837776E+03</pdfrwt>
<totfact> 0.10033378E+03</totfact>
</mgrwt>
</event>
<event>
 4    1  0.4918322E-002  0.5095982E+03  0.7818608E-02  0.1011304E+00
         21   -1    0    0  501  502  0.00000000000E+00  0.00000000000E+00  0.65564057246E+03  0.65564057246E+03  0.00000000000E+00 0. -1.
         21   -1    0    0  502  503 -0.00000000000E+00 -0.00000000000E+00 -0.40041995507E+03  0.40041995507E+03  0.00000000000E+00 0.  1.
    9000007    1    1    2  501    0 -0.27809467893E+02  0.31451060151E+03  0.72678317686E+02  0.51475472103E+03  0.40000000000E+03 0.  1.
   -9000007    1    1    2    0  503  0.27809467893E+02 -0.31451060151E+03  0.18254229970E+03  0.54130580649E+03  0.40000000000E+03 0.  1.
<mgrwt>
<rscale>  2 0.50959816E+03</rscale>
<asrwt>0</asrwt>
<pdfrwt beam="1">  1       21 0.10086778E+00 0.50959816E+03</pdfrwt>
<pdfrwt beam="2">  1       21 0.61603070E-01 0.50959816E+03</pdfrwt>
<totfact> 0.16562521E+03</totfact>
</mgrwt>
</event>
<event>
 4    1  0.4918322E-002  0.4893304E+03  0.7818608E-02  0.1016602E+00
         21   -1    0    0  503  502  0.00000000000E+00  0.00000000000E+00  0.12983094511E+04  0.12983094511E+04  0.00000000000E+00 0. -1.
         21   -1    0    0  501  503 -0.00000000000E+00 -0.00000000000E+00 -0.25107169274E+03  0.25107169274E+03  0.00000000000E+00 0. -1.
    9000007    1    1    2  501    0  0.91552061885E+02 -0.26657545069E+03  0.12449304728E+03  0.50491857737E+03  0.40000000000E+03 0. -1.
   -9000007    1    1    2    0  502 -0.91552061885E+02  0.26657545069E+03  0.92274471108E+03  0.10444625665E+04  0.40000000000E+03 0. -1.
<mgrwt>
<rscale>  2 0.48933041E+03</rscale>
<asrwt>0</asrwt>
<pdfrwt beam="1">  1       21 0.19973991E+00 0.48933041E+03</pdfrwt>
<pdfrwt beam="2">  1       21 0.38626415E-01 0.48933041E+03</pdfrwt>
<totfact> 0.70956736E+02</totfact>
</mgrwt>
</event>
<event>
 4    1  0.4918322E-002  0.4564577E+03  0.7818608E-02  0.1025814E+00
         21   -1    0    0  503  502  0.00000000000E+00  0.00000000000E+00  0.11966861197E+03  0.11966861197E+03  0.00000000000E+00 0.  1.
         21   -1    0    0  501  503 -0.00000000000E+00 -0.00000000000E+00 -0.18510533209E+04  0.18510533209E+04  0.00000000000E+00 0. -1.
    9000007    1    1    2  501    0 -0.21297161046E+03 -0.54742732131E+02 -0.11058587771E+04  0.11963600246E+04  0.40000000000E+03 0.  1.
   -9000007    1    1    2    0  502  0.21297161046E+03  0.54742732131E+02 -0.62552593179E+03  0.77436190824E+03  0.40000000000E+03 0.  1.
<mgrwt>
<rscale>  2 0.45645775E+03</rscale>
<asrwt>0</asrwt>
<pdfrwt beam="1">  1       21 0.18410556E-01 0.45645775E+03</pdfrwt>
<pdfrwt beam="2">  1       21 0.28477742E+00 0.45645775E+03</pdfrwt>
<totfact> 0.90828733E+02</totfact>
</mgrwt>
</event>
<event>
 4    1  0.4918322E-002  0.4134917E+03  0.7818608E-02  0.1039206E+00
         21   -1    0    0  501  502  0.00000000000E+00  0.00000000000E+00  0.17092126014E+03  0.17092126014E+03  0.00000000000E+00 0. -1.
         21   -1    0    0  502  503 -0.00000000000E+00 -0.00000000000E+00 -0.13481457499E+04  0.13481457499E+04  0.00000000000E+00 0. -1.
    9000007    1    1    2  501    0  0.31889507636E+02  0.99792037499E+02 -0.20281294403E+03  0.46055236587E+03  0.40000000000E+03 0. -1.
   -9000007    1    1    2    0  503 -0.31889507636E+02 -0.99792037499E+02 -0.97441154570E+03  0.10585146441E+04  0.40000000000E+03 0. -1.
<mgrwt>
<rscale>  2 0.41349171E+03</rscale>
<asrwt>0</asrwt>
<pdfrwt beam="1">  1       21 0.26295578E-01 0.41349171E+03</pdfrwt>
<pdfrwt beam="2">  1       21 0.20740705E+00 0.41349171E+03</pdfrwt>
<totfact> 0.14118857E+03</totfact>
</mgrwt>
</event>
<event>
 4    1  0.4918322E-002  0.6722234E+03  0.7818608E-02  0.9765950E-01
         21   -1    0    0  501  502  0.00000000000E+00  0.00000000000E+00  0.32522846974E+03  0.32522846974E+03  0.00000000000E+00 0. -1.
         21   -1    0    0  502  503 -0.00000000000E+00 -0.00000000000E+00 -0.31948284197E+04  0.31948284197E+04  0.00000000000E+00 0. -1.
    9000007    1    1    2  501    0 -0.53983631011E+03 -0.21471916293E+02 -0.11173347744E+03  0.68144600291E+03  0.40000000000E+03 0. -1.
   -9000007    1    1    2    0  503  0.53983631011E+03  0.21471916293E+02 -0.27578664725E+04  0.28386108865E+04  0.40000000000E+03 0. -1.
<mgrwt>
<rscale>  2 0.67222339E+03</rscale>
<asrwt>0</asrwt>
<pdfrwt beam="1">  1       21 0.50035152E-01 0.67222339E+03</pdfrwt>
<pdfrwt beam="2">  1       21 0.49151203E+00 0.67222339E+03</pdfrwt>
<totfact> 0.50651816E+00</totfact>
</mgrwt>
</event>
<event>
 4    1  0.4918322E-002  0.5213309E+03  0.7818608E-02  0.1008356E+00
         21   -1    0    0  503  502  0.00000000000E+00  0.00000000000E+00  0.83391975385E+03  0.83391975385E+03  0.00000000000E+00 0. -1.
         21   -1    0    0  501  503 -0.00000000000E+00 -0.00000000000E+00 -0.37530851135E+03  0.37530851135E+03  0.00000000000E+00 0.  1.
    9000007    1    1    2  501    0 -0.15873236773E+03  0.29426177910E+03  0.99623601947E+01  0.52142612883E+03  0.40000000000E+03 0.  1.
   -9000007    1    1    2    0  502  0.15873236773E+03 -0.29426177910E+03  0.44864888230E+03  0.68780213637E+03  0.40000000000E+03 0. -1.
<mgrwt>
<rscale>  2 0.52133095E+03</rscale>
<asrwt>0</asrwt>
<pdfrwt beam="1">  1       21 0.12829535E+00 0.52133095E+03</pdfrwt>
<pdfrwt beam="2">  1       21 0.57739771E-01 0.52133095E+03</pdfrwt>
<totfact> 0.10382110E+03</totfact>
</mgrwt>
</event>
<event>
 4    1  0.4918322E-002  0.4323343E+03  0.7818608E-02  0.1033125E+00
         21   -1    0    0  501  502  0.00000000000E+00  0.00000000000E+00  0.51212868618E+03  0.51212868618E+03  0.00000000000E+00 0.  1.
         21   -1    0    0  502  503 -0.00000000000E+00 -0.00000000000E+00 -0.11661180516E+04  0.11661180516E+04  0.00000000000E+00 0.  1.
    9000007    1    1    2  501    0 -0.16316391216E+03 -0.17042411566E+02  0.36852633694E+03  0.56808852042E+03  0.40000000000E+03 0.  1.
   -9000007    1    1    2    0  503  0.16316391216E+03  0.17042411566E+02 -0.10225157024E+04  0.11101582174E+04  0.40000000000E+03 0.  1.
<mgrwt>
<rscale>  2 0.43233425E+03</rscale>
<asrwt>0</asrwt>
<pdfrwt beam="1">  1       21 0.78789029E-01 0.43233425E+03</pdfrwt>
<pdfrwt beam="2">  1       21 0.17940278E+00 0.43233425E+03</pdfrwt>
<totfact> 0.21465059E+02</totfact>
</mgrwt>
</event>
<event>
 4    1  0.4918322E-002  0.5208198E+03  0.7818608E-02  0.1008483E+00
         21   -1    0    0  503  502  0.00000000000E+00  0.00000000000E+00  0.35235726390E+03  0.35235726390E+03  0.00000000000E+00 0. -1.
         21   -1    0    0  501  503 -0.00000000000E+00 -0.00000000000E+00 -0.77096623612E+03  0.77096623612E+03  0.00000000000E+00 0. -1.
    9000007    1    1    2  501    0  0.65141389298E+02  0.32712367866E+03 -0.23091746055E+03  0.56971587246E+03  0.40000000000E+03 0. -1.
   -9000007    1    1    2    0  502 -0.65141389298E+02 -0.32712367866E+03 -0.18769151167E+03  0.55360762756E+03  0.40000000000E+03 0. -1.
<mgrwt>
<rscale>  2 0.52081984E+03</rscale>
<asrwt>0</asrwt>
<pdfrwt beam="1">  1       21 0.54208811E-01 0.52081984E+03</pdfrwt>
<pdfrwt beam="2">  1       21 0.11861019E+00 0.52081984E+03</pdfrwt>
<totfact> 0.14576808E+03</totfact>
</mgrwt>
</event>
<event>
 4    1  0.4918322E-002  0.6071630E+03  0.7818608E-02  0.9890656E-01
         21   -1    0    0  501  502  0.00000000000E+00  0.00000000000E+00  0.20778845197E+03  0.20778845197E+03  0.00000000000E+00 0. -1.
         21   -1    0    0  502  503 -0.00000000000E+00 -0.00000000000E+00 -0.17741480187E+04  0.17741480187E+04  0.00000000000E+00 0.  1.
    9000007    1    1    2  501    0  0.19540757617E+03  0.41287132543E+03 -0.78189652300E+03  0.98995405189E+03  0.40000000000E+03 0.  1.
   -9000007    1    1    2    0  503 -0.19540757617E+03 -0.41287132543E+03 -0.78446304373E+03  0.99198241878E+03  0.40000000000E+03 0. -1.
<mgrwt>
<rscale>  2 0.60716295E+03</rscale>
<asrwt>0</asrwt>
<pdfrwt beam="1">  1       21 0.31967454E-01 0.60716295E+03</pdfrwt>
<pdfrwt beam="2">  1       21 0.27294585E+00 0.60716295E+03</pdfrwt>
<totfact> 0.34126947E+02</totfact>
</mgrwt>
</event>
<event>
 4    1  0.4918322E-002  0.6101870E+03  0.7818608E-02  0.9884494E-01
         21   -1    0    0  503  502  0.00000000000E+00  0.00000000000E+00  0.16866267149E+03  0.16866267149E+03  0.00000000000E+00 0.  1.
         21   -1    0    0  501  503 -0.00000000000E+00 -0.00000000000E+00 -0.22219106513E+04  0.22219106513E+04  0.00000000000E+00 0. -1.
    9000007    1    1    2  501    0 -0.24567036410E+03 -0.38983872544E+03 -0.11227797826E+04  0.12778742504E+04  0.40000000000E+03 0. -1.
   -9000007    1    1    2    0  502  0.24567036410E+03  0.38983872544E+03 -0.93046819727E+03  0.11126990724E+04  0.40000000000E+03 0.  1.
<mgrwt>
<rscale>  2 0.61018699E+03</rscale>
<asrwt>0</asrwt>
<pdfrwt beam="1">  1       21 0.25948106E-01 0.61018699E+03</pdfrwt>
<pdfrwt beam="2">  1       21 0.34183237E+00 0.61018699E+03</pdfrwt>
<totfact> 0.19567977E+02</totfact>
</mgrwt>
</event>
<event>
 4    1  0.4918322E-002  0.5478728E+03  0.7818608E-02  0.1001987E+00
         21   -1    0    0  503  502  0.00000000000E+00  0.00000000000E+00  0.40812606612E+03  0.40812606612E+03  0.00000000000E+00 0.  1.
         21   -1    0    0  501  503 -0.00000000000E+00 -0.00000000000E+00 -0.85642639472E+03  0.85642639472E+03  0.00000000000E+00 0.  1.
    9000007    1    1    2  501    0  0.31189267514E+03 -0.20709306526E+03 -0.46176623376E+03  0.71651422395E+03  0.40000000000E+03 0.  1.
   -9000007    1    1    2    0  502 -0.31189267514E+03  0.20709306526E+03  0.13465905154E+02  0.54803823688E+03  0.40000000000E+03 0.  1.
<mgrwt>
<rscale>  2 0.54787278E+03</rscale>
<asrwt>0</asrwt>
<pdfrwt beam="1">  1       21 0.62788626E-01 0.54787278E+03</pdfrwt>
<pdfrwt beam="2">  1       21 0.13175791E+00 0.54787278E+03</pdfrwt>
<totfact> 0.79783480E+02</totfact>
</mgrwt>
</event>
<event>
 4    1  0.4918322E-002  0.4104562E+03  0.7818608E-02  0.1040218E+00
         21   -1    0    0  503  502  0.00000000000E+00  0.00000000000E+00  0.51598690281E+03  0.51598690281E+03  0.00000000000E+00 0.  1.
         21   -1    0    0  501  503 -0.00000000000E+00 -0.00000000000E+00 -0.56362494259E+03  0.56362494259E+03  0.00000000000E+00 0.  1.
    9000007    1    1    2  501    0  0.53833164965E+02 -0.74674257847E+02 -0.37394401974E+03  0.55525524251E+03  0.40000000000E+03 0.  1.
   -9000007    1    1    2    0  502 -0.53833164965E+02  0.74674257847E+02  0.32630597996E+03  0.52435660289E+03  0.40000000000E+03 0.  1.
<mgrwt>
<rscale>  2 0.41045615E+03</rscale>
<asrwt>0</asrwt>
<pdfrwt beam="1">  1       21 0.79382600E-01 0.41045615E+03</pdfrwt>
<pdfrwt beam="2">  1       21 0.86711530E-01 0.41045615E+03</pdfrwt>
<totfact> 0.13946931E+03</totfact>
</mgrwt>
</event>
<event>
 4    1  0.4918322E-002  0.5505109E+03  0.7818608E-02  0.1001376E+00
         21   -1    0    0  503  502  0.00000000000E+00  0.00000000000E+00  0.36481962105E+03  0.36481962105E+03  0.00000000000E+00 0. -1.
         21   -1    0    0  501  503 -0.00000000000E+00 -0.00000000000E+00 -0.95333743752E+03  0.95333743752E+03  0.00000000000E+00 0.  1.
    9000007    1    1    2  501    0  0.10209274518E+02 -0.37809785081E+03 -0.53062956252E+03  0.76461097736E+03  0.40000000000E+03 0.  1.
   -9000007    1    1    2    0  502 -0.10209274518E+02  0.37809785081E+03 -0.57888253948E+02  0.55354608121E+03  0.40000000000E+03 0. -1.
<mgrwt>
<rscale>  2 0.55051087E+03</rscale>
<asrwt>0</asrwt>
<pdfrwt beam="1">  1       21 0.56126097E-01 0.55051087E+03</pdfrwt>
<pdfrwt beam="2">  1       21 0.14666729E+00 0.55051087E+03</pdfrwt>
<totfact> 0.76620014E+02</totfact>
</mgrwt>
</event>
<event>
 4    1  0.4918322E-002  0.4882528E+03  0.7818608E-02  0.1016891E+00
         21   -1    0    0  503  502  0.00000000000E+00  0.00000000000E+00  0.32787664401E+03  0.32787664401E+03  0.00000000000E+00 0.  1.
         21   -1    0    0  501  503 -0.00000000000E+00 -0.00000000000E+00 -0.99943402271E+03  0.99943402271E+03  0.00000000000E+00 0.  1.
    9000007    1    1    2  501    0  0.82644397824E+02 -0.26750828147E+03 -0.68222563192E+03  0.83894135075E+03  0.40000000000E+03 0.  1.
   -9000007    1    1    2    0  502 -0.82644397824E+02  0.26750828147E+03  0.10668253222E+02  0.48836931596E+03  0.40000000000E+03 0.  1.
<mgrwt>
<rscale>  2 0.48825278E+03</rscale>
<asrwt>0</asrwt>
<pdfrwt beam="1">  1       21 0.50442562E-01 0.48825278E+03</pdfrwt>
<pdfrwt beam="2">  1       21 0.15375908E+00 0.48825278E+03</pdfrwt>
<totfact> 0.86774865E+02</totfact>
</mgrwt>
</event>
<event>
 4    1  0.4918322E-002  0.7791137E+03  0.7818608E-02  0.9590751E-01
         21   -1    0    0  501  502  0.00000000000E+00  0.00000000000E+00  0.29572876367E+03  0.29572876367E+03  0.00000000000E+00 0. -1.
         21   -1    0    0  502  503 -0.00000000000E+00 -0.00000000000E+00 -0.21366412694E+04  0.21366412694E+04  0.00000000000E+00 0.  1.
    9000007    1    1    2  501    0  0.55391604572E+03 -0.37442638126E+03 -0.11616324003E+04  0.13987165310E+04  0.40000000000E+03 0.  1.
   -9000007    1    1    2    0  503 -0.55391604572E+03  0.37442638126E+03 -0.67928010542E+03  0.10336535021E+04  0.40000000000E+03 0. -1.
<mgrwt>
<rscale>  2 0.77911366E+03</rscale>
<asrwt>0</asrwt>
<pdfrwt beam="1">  1       21 0.45496731E-01 0.77911366E+03</pdfrwt>
<pdfrwt beam="2">  1       21 0.32871405E+00 0.77911366E+03</pdfrwt>
<totfact> 0.70054302E+01</totfact>
</mgrwt>
</event>
<event>
 4    1  0.4918322E-002  0.4640018E+03  0.7818608E-02  0.1023627E+00
         21   -1    0    0  503  502  0.00000000000E+00  0.00000000000E+00  0.57638785457E+03  0.57638785457E+03  0.00000000000E+00 0.  1.
         21   -1    0    0  501  503 -0.00000000000E+00 -0.00000000000E+00 -0.37571432906E+03  0.37571432906E+03  0.00000000000E+00 0. -1.
    9000007    1    1    2  501    0 -0.23498332578E+03  0.89716783619E+01  0.13664206817E+03  0.48370312094E+03  0.40000000000E+03 0.  1.
   -9000007    1    1    2    0  502  0.23498332578E+03 -0.89716783619E+01  0.64031457335E+02  0.46839906270E+03  0.40000000000E+03 0.  1.
<mgrwt>
<rscale>  2 0.46400178E+03</rscale>
<asrwt>0</asrwt>
<pdfrwt beam="1">  1       21 0.88675054E-01 0.46400178E+03</pdfrwt>
<pdfrwt beam="2">  1       21 0.57802205E-01 0.46400178E+03</pdfrwt>
<totfact> 0.26359597E+03</totfact>
</mgrwt>
</event>
<event>
 4    1  0.4918322E-002  0.4243508E+03  0.7818608E-02  0.1035660E+00
         21   -1    0    0  503  502  0.00000000000E+00  0.00000000000E+00  0.33376095760E+03  0.33376095760E+03  0.00000000000E+00 0.  1.
         21   -1    0    0  501  503 -0.00000000000E+00 -0.00000000000E+00 -0.10233847874E+04  0.10233847874E+04  0.00000000000E+00 0.  1.
    9000007    1    1    2  501    0  0.48907791867E+02 -0.13297238433E+03 -0.81140156865E+03  0.91566704249E+03  0.40000000000E+03 0.  1.
   -9000007    1    1    2    0  502 -0.48907791867E+02  0.13297238433E+03  0.12177773884E+03  0.44147870252E+03  0.40000000000E+03 0.  1.
<mgrwt>
<rscale>  2 0.42435083E+03</rscale>
<asrwt>0</asrwt>
<pdfrwt beam="1">  1       21 0.51347839E-01 0.42435083E+03</pdfrwt>
<pdfrwt beam="2">  1       21 0.15744381E+00 0.42435083E+03</pdfrwt>
<totfact> 0.80477848E+02</totfact>
</mgrwt>
</event>
<event>
 4    1  0.4918322E-002  0.4507246E+03  0.7818608E-02  0.1027506E+00
         21   -1    0    0  503  502  0.00000000000E+00  0.00000000000E+00  0.45160922670E+03  0.45160922670E+03  0.00000000000E+00 0.  1.
         21   -1    0    0  501  503 -0.00000000000E+00 -0.00000000000E+00 -0.46083741024E+03  0.46083741024E+03  0.00000000000E+00 0.  1.
    9000007    1    1    2  501    0  0.12534864110E+03  0.16565143182E+03  0.65857574623E+02  0.45551059134E+03  0.40000000000E+03 0.  1.
   -9000007    1    1    2    0  502 -0.12534864110E+03 -0.16565143182E+03 -0.75085758167E+02  0.45693604560E+03  0.40000000000E+03 0.  1.
<mgrwt>
<rscale>  2 0.45072462E+03</rscale>
<asrwt>0</asrwt>
<pdfrwt beam="1">  1       21 0.69478343E-01 0.45072462E+03</pdfrwt>
<pdfrwt beam="2">  1       21 0.70898063E-01 0.45072462E+03</pdfrwt>
<totfact> 0.29536981E+03</totfact>
</mgrwt>
</event>
<event>
 4    1  0.4918322E-002  0.4913100E+03  0.7818608E-02  0.1016072E+00
         21   -1    0    0  501  502  0.00000000000E+00  0.00000000000E+00  0.29984609643E+03  0.29984609643E+03  0.00000000000E+00 0. -1.
         21   -1    0    0  502  503 -0.00000000000E+00 -0.00000000000E+00 -0.10432777653E+04  0.10432777653E+04  0.00000000000E+00 0. -1.
    9000007    1    1    2  501    0 -0.27336170961E+03  0.81602278105E+02 -0.50794097545E+02  0.49392873617E+03  0.40000000000E+03 0. -1.
   -9000007    1    1    2    0  503  0.27336170961E+03 -0.81602278105E+02 -0.69263757135E+03  0.84919512558E+03  0.40000000000E+03 0. -1.
<mgrwt>
<rscale>  2 0.49131004E+03</rscale>
<asrwt>0</asrwt>
<pdfrwt beam="1">  1       21 0.46130169E-01 0.49131004E+03</pdfrwt>
<pdfrwt beam="2">  1       21 0.16050427E+00 0.49131004E+03</pdfrwt>
<totfact> 0.92981383E+02</totfact>
</mgrwt>
</event>
<event>
 4    1  0.4918322E-002  0.4378648E+03  0.7818608E-02  0.1031404E+00
         21   -1    0    0  501  502  0.00000000000E+00  0.00000000000E+00  0.13874958863E+04  0.13874958863E+04  0.00000000000E+00 0.  1.
         21   -1    0    0  502  503 -0.00000000000E+00 -0.00000000000E+00 -0.42221044663E+03  0.42221044663E+03  0.00000000000E+00 0. -1.
    9000007    1    1    2  501    0 -0.17738180447E+03  0.16164868909E+02  0.12247988616E+04  0.13007143648E+04  0.40000000000E+03 0.  1.
   -9000007    1    1    2    0  503  0.17738180447E+03 -0.16164868909E+02 -0.25951342184E+03  0.50899196817E+03  0.40000000000E+03 0. -1.
<mgrwt>
<rscale>  2 0.43786483E+03</rscale>
<asrwt>0</asrwt>
<pdfrwt beam="1">  1       21 0.21346090E+00 0.43786483E+03</pdfrwt>
<pdfrwt beam="2">  1       21 0.64955454E-01 0.43786483E+03</pdfrwt>
<totfact> 0.19526248E+02</totfact>
</mgrwt>
</event>
<event>
 4    1  0.4918322E-002  0.4673795E+03  0.7818608E-02  0.1022662E+00
         21   -1    0    0  501  502  0.00000000000E+00  0.00000000000E+00  0.54232016157E+03  0.54232016157E+03  0.00000000000E+00 0. -1.
         21   -1    0    0  502  503 -0.00000000000E+00 -0.00000000000E+00 -0.44967237721E+03  0.44967237721E+03  0.00000000000E+00 0. -1.
    9000007    1    1    2  501    0 -0.16380151316E+03 -0.17779942019E+03  0.20646924791E+03  0.51095314840E+03  0.40000000000E+03 0. -1.
   -9000007    1    1    2    0  503  0.16380151316E+03  0.17779942019E+03 -0.11382146355E+03  0.48103939038E+03  0.40000000000E+03 0. -1.
<mgrwt>
<rscale>  2 0.46737947E+03</rscale>
<asrwt>0</asrwt>
<pdfrwt beam="1">  1       21 0.83433871E-01 0.46737947E+03</pdfrwt>
<pdfrwt beam="2">  1       21 0.69180366E-01 0.46737947E+03</pdfrwt>
<totfact> 0.20407304E+03</totfact>
</mgrwt>
</event>
<event>
 4    1  0.4918322E-002  0.4890146E+03  0.7818608E-02  0.1016687E+00
         21   -1    0    0  501  502  0.00000000000E+00  0.00000000000E+00  0.14561730374E+04  0.14561730374E+04  0.00000000000E+00 0. -1.
         21   -1    0    0  502  503 -0.00000000000E+00 -0.00000000000E+00 -0.24182165169E+03  0.24182165169E+03  0.00000000000E+00 0. -1.
    9000007    1    1    2  501    0 -0.68034425414E+02 -0.27295901915E+03  0.10881138982E+04  0.11929489363E+04  0.40000000000E+03 0. -1.
   -9000007    1    1    2    0  503  0.68034425414E+02  0.27295901915E+03  0.12623748754E+03  0.50504575281E+03  0.40000000000E+03 0. -1.
<mgrwt>
<rscale>  2 0.48901463E+03</rscale>
<asrwt>0</asrwt>
<pdfrwt beam="1">  1       21 0.22402662E+00 0.48901463E+03</pdfrwt>
<pdfrwt beam="2">  1       21 0.37203332E-01 0.48901463E+03</pdfrwt>
<totfact> 0.53209726E+02</totfact>
</mgrwt>
</event>
<event>
 4    1  0.4918322E-002  0.6140211E+03  0.7818608E-02  0.9876736E-01
         21   -1    0    0  501  502  0.00000000000E+00  0.00000000000E+00  0.86589314137E+03  0.86589314137E+03  0.00000000000E+00 0.  1.
         21   -1    0    0  502  503 -0.00000000000E+00 -0.00000000000E+00 -0.44317489732E+03  0.44317489732E+03  0.00000000000E+00 0. -1.
    9000007    1    1    2  501    0 -0.32145084771E+03  0.33718144236E+03  0.29797577180E+03  0.68250387043E+03  0.40000000000E+03 0. -1.
   -9000007    1    1    2    0  503  0.32145084771E+03 -0.33718144236E+03  0.12474247225E+03  0.62656416826E+03  0.40000000000E+03 0.  1.
<mgrwt>
<rscale>  2 0.61402115E+03</rscale>
<asrwt>0</asrwt>
<pdfrwt beam="1">  1       21 0.13321433E+00 0.61402115E+03</pdfrwt>
<pdfrwt beam="2">  1       21 0.68180753E-01 0.61402115E+03</pdfrwt>
<totfact> 0.63056620E+02</totfact>
</mgrwt>
</event>
<event>
 4    1  0.4918322E-002  0.4038327E+03  0.7818608E-02  0.1042461E+00
         21   -1    0    0  501  502  0.00000000000E+00  0.00000000000E+00  0.41141217610E+03  0.41141217610E+03  0.00000000000E+00 0. -1.
         21   -1    0    0  502  503 -0.00000000000E+00 -0.00000000000E+00 -0.61074418859E+03  0.61074418859E+03  0.00000000000E+00 0. -1.
    9000007    1    1    2  501    0  0.24575396906E+02 -0.49768377531E+02  0.20310952756E+03  0.45203354048E+03  0.40000000000E+03 0. -1.
   -9000007    1    1    2    0  503 -0.24575396906E+02  0.49768377531E+02 -0.40244154004E+03  0.57012282421E+03  0.40000000000E+03 0. -1.
<mgrwt>
<rscale>  2 0.40383269E+03</rscale>
<asrwt>0</asrwt>
<pdfrwt beam="1">  1       21 0.63294181E-01 0.40383269E+03</pdfrwt>
<pdfrwt beam="2">  1       21 0.93960645E-01 0.40383269E+03</pdfrwt>
<totfact> 0.19269195E+03</totfact>
</mgrwt>
</event>
<event>
 4    1  0.4918322E-002  0.4376423E+03  0.7818608E-02  0.1031473E+00
         21   -1    0    0  501  502  0.00000000000E+00  0.00000000000E+00  0.69052065890E+03  0.69052065890E+03  0.00000000000E+00 0. -1.
         21   -1    0    0  502  503 -0.00000000000E+00 -0.00000000000E+00 -0.59223574649E+03  0.59223574649E+03  0.00000000000E+00 0. -1.
    9000007    1    1    2  501    0  0.88888275577E+02  0.15371940253E+03  0.51680063343E+03  0.67721021475E+03  0.40000000000E+03 0. -1.
   -9000007    1    1    2    0  503 -0.88888275577E+02 -0.15371940253E+03 -0.41851572102E+03  0.60554619063E+03  0.40000000000E+03 0. -1.
<mgrwt>
<rscale>  2 0.43764230E+03</rscale>
<asrwt>0</asrwt>
<pdfrwt beam="1">  1       21 0.10623395E+00 0.43764230E+03</pdfrwt>
<pdfrwt beam="2">  1       21 0.91113192E-01 0.43764230E+03</pdfrwt>
<totfact> 0.61311198E+02</totfact>
</mgrwt>
</event>
<event>
 4    1  0.4918322E-002  0.4732957E+03  0.7818608E-02  0.1020994E+00
         21   -1    0    0  503  502  0.00000000000E+00  0.00000000000E+00  0.54269083789E+03  0.54269083789E+03  0.00000000000E+00 0. -1.
         21   -1    0    0  501  503 -0.00000000000E+00 -0.00000000000E+00 -0.72367166113E+03  0.72367166113E+03  0.00000000000E+00 0.  1.
    9000007    1    1    2  501    0 -0.34690058788E+02 -0.25061002179E+03 -0.50550736849E+03  0.69249294783E+03  0.40000000000E+03 0.  1.
   -9000007    1    1    2    0  502  0.34690058788E+02  0.25061002179E+03  0.32452654526E+03  0.57386955119E+03  0.40000000000E+03 0. -1.
<mgrwt>
<rscale>  2 0.47329566E+03</rscale>
<asrwt>0</asrwt>
<pdfrwt beam="1">  1       21 0.83490898E-01 0.47329566E+03</pdfrwt>
<pdfrwt beam="2">  1       21 0.11133410E+00 0.47329566E+03</pdfrwt>
<totfact> 0.66016904E+02</totfact>
</mgrwt>
</event>
<event>
 4    1  0.4918322E-002  0.5309375E+03  0.7818608E-02  0.1006005E+00
         21   -1    0    0  503  502  0.00000000000E+00  0.00000000000E+00  0.36369050752E+03  0.36369050752E+03  0.00000000000E+00 0. -1.
         21   -1    0    0  501  503 -0.00000000000E+00 -0.00000000000E+00 -0.83055363103E+03  0.83055363103E+03  0.00000000000E+00 0.  1.
    9000007    1    1    2  501    0 -0.34860992508E+03  0.19124135954E+02 -0.38773113749E+03  0.65744204871E+03  0.40000000000E+03 0. -1.
   -9000007    1    1    2    0  502  0.34860992508E+03 -0.19124135954E+02 -0.79131986020E+02  0.53680208983E+03  0.40000000000E+03 0. -1.
<mgrwt>
<rscale>  2 0.53093748E+03</rscale>
<asrwt>0</asrwt>
<pdfrwt beam="1">  1       21 0.55952386E-01 0.53093748E+03</pdfrwt>
<pdfrwt beam="2">  1       21 0.12777748E+00 0.53093748E+03</pdfrwt>
<totfact> 0.11197915E+03</totfact>
</mgrwt>
</event>
<event>
 4    1  0.4918322E-002  0.4403277E+03  0.7818608E-02  0.1030646E+00
         21   -1    0    0  503  502  0.00000000000E+00  0.00000000000E+00  0.30736184355E+03  0.30736184355E+03  0.00000000000E+00 0.  1.
         21   -1    0    0  501  503 -0.00000000000E+00 -0.00000000000E+00 -0.14191842204E+04  0.14191842204E+04  0.00000000000E+00 0.  1.
    9000007    1    1    2  501    0  0.18408474174E+03 -0.11266665116E+01 -0.11993297970E+04  0.12776073041E+04  0.40000000000E+03 0.  1.
   -9000007    1    1    2    0  502 -0.18408474174E+03  0.11266665116E+01  0.87507420143E+02  0.44893875985E+03  0.40000000000E+03 0.  1.
<mgrwt>
<rscale>  2 0.44032768E+03</rscale>
<asrwt>0</asrwt>
<pdfrwt beam="1">  1       21 0.47286438E-01 0.44032768E+03</pdfrwt>
<pdfrwt beam="2">  1       21 0.21833603E+00 0.44032768E+03</pdfrwt>
<totfact> 0.36037690E+02</totfact>
</mgrwt>
</event>
<event>
 4    1  0.4918322E-002  0.4207222E+03  0.7818608E-02  0.1036832E+00
         21   -1    0    0  503  502  0.00000000000E+00  0.00000000000E+00  0.20073932152E+03  0.20073932152E+03  0.00000000000E+00 0. -1.
         21   -1    0    0  501  503 -0.00000000000E+00 -0.00000000000E+00 -0.88842438750E+03  0.88842438750E+03  0.00000000000E+00 0. -1.
    9000007    1    1    2  501    0 -0.13030690388E+03  0.52208952231E+01 -0.39095176812E+03  0.57432606761E+03  0.40000000000E+03 0. -1.
   -9000007    1    1    2    0  502  0.13030690388E+03 -0.52208952231E+01 -0.29673329787E+03  0.51483764141E+03  0.40000000000E+03 0. -1.
<mgrwt>
<rscale>  2 0.42072217E+03</rscale>
<asrwt>0</asrwt>
<pdfrwt beam="1">  1       21 0.30882972E-01 0.42072217E+03</pdfrwt>
<pdfrwt beam="2">  1       21 0.13668068E+00 0.42072217E+03</pdfrwt>
<totfact> 0.33591827E+03</totfact>
</mgrwt>
</event>
<event>
 4    1  0.4918322E-002  0.4446042E+03  0.7818608E-02  0.1029343E+00
         21   -1    0    0  501  502  0.00000000000E+00  0.00000000000E+00  0.25605887300E+03  0.25605887300E+03  0.00000000000E+00 0. -1.
         21   -1    0    0  502  503 -0.00000000000E+00 -0.00000000000E+00 -0.12439503089E+04  0.12439503089E+04  0.00000000000E+00 0. -1.
    9000007    1    1    2  501    0 -0.99283101870E+02 -0.16678063240E+03 -0.31970484059E+02  0.44575220191E+03  0.40000000000E+03 0. -1.
   -9000007    1    1    2    0  503  0.99283101870E+02  0.16678063240E+03 -0.95592095181E+03  0.10542569799E+04  0.40000000000E+03 0. -1.
<mgrwt>
<rscale>  2 0.44460422E+03</rscale>
<asrwt>0</asrwt>
<pdfrwt beam="1">  1       21 0.39393673E-01 0.44460422E+03</pdfrwt>
<pdfrwt beam="2">  1       21 0.19137697E+00 0.44460422E+03</pdfrwt>
<totfact> 0.79217760E+02</totfact>
</mgrwt>
</event>
<event>
 4    1  0.4918322E-002  0.5147591E+03  0.7818608E-02  0.1009997E+00
         21   -1    0    0  503  502  0.00000000000E+00  0.00000000000E+00  0.43839754841E+03  0.43839754841E+03  0.00000000000E+00 0.  1.
         21   -1    0    0  501  503 -0.00000000000E+00 -0.00000000000E+00 -0.60868509214E+03  0.60868509214E+03  0.00000000000E+00 0.  1.
    9000007    1    1    2  501    0  0.32736776439E+02 -0.32234341463E+03 -0.12895993681E+03  0.53066716385E+03  0.40000000000E+03 0.  1.
   -9000007    1    1    2    0  502 -0.32736776439E+02  0.32234341463E+03 -0.41327606924E+02  0.51641547670E+03  0.40000000000E+03 0.  1.
<mgrwt>
<rscale>  2 0.51475914E+03</rscale>
<asrwt>0</asrwt>
<pdfrwt beam="1">  1       21 0.67445777E-01 0.51475914E+03</pdfrwt>
<pdfrwt beam="2">  1       21 0.93643860E-01 0.51475914E+03</pdfrwt>
<totfact> 0.16175653E+03</totfact>
</mgrwt>
</event>
<event>
 4    1  0.4918322E-002  0.4235518E+03  0.7818608E-02  0.1035916E+00
         21   -1    0    0  503  502  0.00000000000E+00  0.00000000000E+00  0.21869305047E+04  0.21869305047E+04  0.00000000000E+00 0. -1.
         21   -1    0    0  501  503 -0.00000000000E+00 -0.00000000000E+00 -0.16146778610E+03  0.16146778610E+03  0.00000000000E+00 0. -1.
    9000007    1    1    2  501    0 -0.13839853779E+03  0.15555922509E+02  0.18914415630E+03  0.46386598695E+03  0.40000000000E+03 0. -1.
   -9000007    1    1    2    0  502  0.13839853779E+03 -0.15555922509E+02  0.18363185623E+04  0.18845323039E+04  0.40000000000E+03 0. -1.
<mgrwt>
<rscale>  2 0.42355182E+03</rscale>
<asrwt>0</asrwt>
<pdfrwt beam="1">  1       21 0.33645083E+00 0.42355182E+03</pdfrwt>
<pdfrwt beam="2">  1       21 0.24841199E-01 0.42355182E+03</pdfrwt>
<totfact> 0.25478204E+02</totfact>
</mgrwt>
</event>
<event>
 4    1  0.4918322E-002  0.4702592E+03  0.7818608E-02  0.1021847E+00
         21   -1    0    0  501  502  0.00000000000E+00  0.00000000000E+00  0.14999397491E+04  0.14999397491E+04  0.00000000000E+00 0.  1.
         21   -1    0    0  502  503 -0.00000000000E+00 -0.00000000000E+00 -0.16910480819E+03  0.16910480819E+03  0.00000000000E+00 0. -1.
    9000007    1    1    2  501    0  0.17997348376E+03 -0.16956790658E+03  0.96415290300E+03  0.10727229606E+04  0.40000000000E+03 0.  1.
   -9000007    1    1    2    0  503 -0.17997348376E+03  0.16956790658E+03  0.36668203795E+03  0.59632159675E+03  0.40000000000E+03 0. -1.
<mgrwt>
<rscale>  2 0.47025922E+03</rscale>
<asrwt>0</asrwt>
<pdfrwt beam="1">  1       21 0.23075995E+00 0.47025922E+03</pdfrwt>
<pdfrwt beam="2">  1       21 0.26016125E-01 0.47025922E+03</pdfrwt>
<totfact> 0.99450420E+02</totfact>
</mgrwt>
</event>
<event>
 4    1  0.4918322E-002  0.4493519E+03  0.7818608E-02  0.1027916E+00
         21   -1    0    0  501  502  0.00000000000E+00  0.00000000000E+00  0.18138075998E+03  0.18138075998E+03  0.00000000000E+00 0.  1.
         21   -1    0    0  502  503 -0.00000000000E+00 -0.00000000000E+00 -0.12826007202E+04  0.12826007202E+04  0.00000000000E+00 0. -1.
    9000007    1    1    2  501    0  0.19857648578E+03 -0.49844423993E+02 -0.28460545534E+03  0.53189975796E+03  0.40000000000E+03 0.  1.
   -9000007    1    1    2    0  503 -0.19857648578E+03  0.49844423993E+02 -0.81661450489E+03  0.93208172223E+03  0.40000000000E+03 0. -1.
<mgrwt>
<rscale>  2 0.44935185E+03</rscale>
<asrwt>0</asrwt>
<pdfrwt beam="1">  1       21 0.27904732E-01 0.44935185E+03</pdfrwt>
<pdfrwt beam="2">  1       21 0.19732319E+00 0.44935185E+03</pdfrwt>
<totfact> 0.14413310E+03</totfact>
</mgrwt>
</event>
<event>
 4    1  0.4918322E-002  0.6637533E+03  0.7818608E-02  0.9781309E-01
         21   -1    0    0  503  502  0.00000000000E+00  0.00000000000E+00  0.16150838817E+03  0.16150838817E+03  0.00000000000E+00 0.  1.
         21   -1    0    0  501  503 -0.00000000000E+00 -0.00000000000E+00 -0.30086038219E+04  0.30086038219E+04  0.00000000000E+00 0.  1.
    9000007    1    1    2  501    0 -0.26474926460E+03 -0.45877689157E+03 -0.19077599288E+04  0.20199297897E+04  0.40000000000E+03 0.  1.
   -9000007    1    1    2    0  502  0.26474926460E+03  0.45877689157E+03 -0.93933550492E+03  0.11501824204E+04  0.40000000000E+03 0.  1.
<mgrwt>
<rscale>  2 0.66375327E+03</rscale>
<asrwt>0</asrwt>
<pdfrwt beam="1">  1       21 0.24847446E-01 0.66375327E+03</pdfrwt>
<pdfrwt beam="2">  1       21 0.46286209E+00 0.66375327E+03</pdfrwt>
<totfact> 0.33829973E+01</totfact>
</mgrwt>
</event>
<event>
 4    1  0.4918322E-002  0.4619472E+03  0.7818608E-02  0.1024218E+00
         21   -1    0    0  503  502  0.00000000000E+00  0.00000000000E+00  0.46458974119E+03  0.46458974119E+03  0.00000000000E+00 0.  1.
         21   -1    0    0  501  503 -0.00000000000E+00 -0.00000000000E+00 -0.82304141000E+03  0.82304141000E+03  0.00000000000E+00 0. -1.
    9000007    1    1    2  501    0 -0.22121770255E+03  0.66767892761E+02 -0.60721743334E+03  0.76296017903E+03  0.40000000000E+03 0. -1.
   -9000007    1    1    2    0  502  0.22121770255E+03 -0.66767892761E+02  0.24876576454E+03  0.52467097216E+03  0.40000000000E+03 0.  1.
<mgrwt>
<rscale>  2 0.46194721E+03</rscale>
<asrwt>0</asrwt>
<pdfrwt beam="1">  1       21 0.71475345E-01 0.46194721E+03</pdfrwt>
<pdfrwt beam="2">  1       21 0.12662176E+00 0.46194721E+03</pdfrwt>
<totfact> 0.68411442E+02</totfact>
</mgrwt>
</event>
<event>
 4    1  0.4918322E-002  0.4286811E+03  0.7818608E-02  0.1034277E+00
         21   -1    0    0  503  502  0.00000000000E+00  0.00000000000E+00  0.31409310732E+03  0.31409310732E+03  0.00000000000E+00 0. -1.
         21   -1    0    0  501  503 -0.00000000000E+00 -0.00000000000E+00 -0.67052729550E+03  0.67052729550E+03  0.00000000000E+00 0. -1.
    9000007    1    1    2  501    0  0.55562991357E+02 -0.14380620441E+03 -0.35396775055E+03  0.55593222507E+03  0.40000000000E+03 0. -1.
   -9000007    1    1    2    0  502 -0.55562991357E+02  0.14380620441E+03 -0.24664376310E+01  0.42868817776E+03  0.40000000000E+03 0. -1.
<mgrwt>
<rscale>  2 0.42868108E+03</rscale>
<asrwt>0</asrwt>
<pdfrwt beam="1">  1       21 0.48322017E-01 0.42868108E+03</pdfrwt>
<pdfrwt beam="2">  1       21 0.10315805E+00 0.42868108E+03</pdfrwt>
<totfact> 0.27263976E+03</totfact>
</mgrwt>
</event>
<event>
 4    1  0.4918322E-002  0.5991327E+03  0.7818608E-02  0.9907207E-01
         21   -1    0    0  503  502  0.00000000000E+00  0.00000000000E+00  0.58860891537E+03  0.58860891537E+03  0.00000000000E+00 0. -1.
         21   -1    0    0  501  503 -0.00000000000E+00 -0.00000000000E+00 -0.90111131559E+03  0.90111131559E+03  0.00000000000E+00 0.  1.
    9000007    1    1    2  501    0  0.29975492606E+03 -0.33031338232E+03  0.26722689994E+03  0.65602603781E+03  0.40000000000E+03 0. -1.
   -9000007    1    1    2    0  502 -0.29975492606E+03  0.33031338232E+03 -0.57972930015E+03  0.83369419315E+03  0.40000000000E+03 0.  1.
<mgrwt>
<rscale>  2 0.59913266E+03</rscale>
<asrwt>0</asrwt>
<pdfrwt beam="1">  1       21 0.90555218E-01 0.59913266E+03</pdfrwt>
<pdfrwt beam="2">  1       21 0.13863251E+00 0.59913266E+03</pdfrwt>
<totfact> 0.29512869E+02</totfact>
</mgrwt>
</event>
<event>
 4    1  0.4918322E-002  0.5367121E+03  0.7818608E-02  0.1004617E+00
         21   -1    0    0  503  502  0.00000000000E+00  0.00000000000E+00  0.23109340149E+03  0.23109340149E+03  0.00000000000E+00 0. -1.
         21   -1    0    0  501  503 -0.00000000000E+00 -0.00000000000E+00 -0.14436291287E+04  0.14436291287E+04  0.00000000000E+00 0.  1.
    9000007    1    1    2  501    0  0.14326687640E+03 -0.32792450596E+03 -0.91568982412E+03  0.10613895296E+04  0.40000000000E+03 0.  1.
   -9000007    1    1    2    0  502 -0.14326687640E+03  0.32792450596E+03 -0.29684590311E+03  0.61333300064E+03  0.40000000000E+03 0. -1.
<mgrwt>
<rscale>  2 0.53671210E+03</rscale>
<asrwt>0</asrwt>
<pdfrwt beam="1">  1       21 0.35552831E-01 0.53671210E+03</pdfrwt>
<pdfrwt beam="2">  1       21 0.22209679E+00 0.53671210E+03</pdfrwt>
<totfact> 0.58823020E+02</totfact>
</mgrwt>
</event>
<event>
 4    1  0.4918322E-002  0.4426637E+03  0.7818608E-02  0.1029933E+00
         21   -1    0    0  501  502  0.00000000000E+00  0.00000000000E+00  0.75226496610E+03  0.75226496610E+03  0.00000000000E+00 0. -1.
         21   -1    0    0  502  503 -0.00000000000E+00 -0.00000000000E+00 -0.41686057904E+03  0.41686057904E+03  0.00000000000E+00 0.  1.
    9000007    1    1    2  501    0  0.14669907285E+03  0.12012702822E+03  0.52573682786E+03  0.68727747894E+03  0.40000000000E+03 0. -1.
   -9000007    1    1    2    0  503 -0.14669907285E+03 -0.12012702822E+03 -0.19033244080E+03  0.48184806621E+03  0.40000000000E+03 0.  1.
<mgrwt>
<rscale>  2 0.44266367E+03</rscale>
<asrwt>0</asrwt>
<pdfrwt beam="1">  1       21 0.11573307E+00 0.44266367E+03</pdfrwt>
<pdfrwt beam="2">  1       21 0.64132397E-01 0.44266367E+03</pdfrwt>
<totfact> 0.11054665E+03</totfact>
</mgrwt>
</event>
<event>
 4    1  0.4918322E-002  0.4878476E+03  0.7818608E-02  0.1017000E+00
         21   -1    0    0  501  502  0.00000000000E+00  0.00000000000E+00  0.27305697047E+03  0.27305697047E+03  0.00000000000E+00 0. -1.
         21   -1    0    0  502  503 -0.00000000000E+00 -0.00000000000E+00 -0.14484867673E+04  0.14484867673E+04  0.00000000000E+00 0.  1.
    9000007    1    1    2  501    0  0.16283069955E+03  0.22689519065E+03 -0.44492423436E+02  0.48987226907E+03  0.40000000000E+03 0. -1.
   -9000007    1    1    2    0  503 -0.16283069955E+03 -0.22689519065E+03 -0.11309373734E+04  0.12316714687E+04  0.40000000000E+03 0. -1.
<mgrwt>
<rscale>  2 0.48784758E+03</rscale>
<asrwt>0</asrwt>
<pdfrwt beam="1">  1       21 0.42008765E-01 0.48784758E+03</pdfrwt>
<pdfrwt beam="2">  1       21 0.22284412E+00 0.48784758E+03</pdfrwt>
<totfact> 0.42176692E+02</totfact>
</mgrwt>
</event>
<event>
 4    1  0.4918322E-002  0.4510191E+03  0.7818608E-02  0.1027419E+00
         21   -1    0    0  501  502  0.00000000000E+00  0.00000000000E+00  0.50632665093E+03  0.50632665093E+03  0.00000000000E+00 0.  1.
         21   -1    0    0  502  503 -0.00000000000E+00 -0.00000000000E+00 -0.47542951266E+03  0.47542951266E+03  0.00000000000E+00 0.  1.
    9000007    1    1    2  501    0  0.20741777490E+03  0.19901761515E+02  0.20868780933E+03  0.49695957101E+03  0.40000000000E+03 0.  1.
   -9000007    1    1    2    0  503 -0.20741777490E+03 -0.19901761515E+02 -0.17779067107E+03  0.48479659258E+03  0.40000000000E+03 0.  1.
<mgrwt>
<rscale>  2 0.45101908E+03</rscale>
<asrwt>0</asrwt>
<pdfrwt beam="1">  1       21 0.77896408E-01 0.45101908E+03</pdfrwt>
<pdfrwt beam="2">  1       21 0.73143002E-01 0.45101908E+03</pdfrwt>
<totfact> 0.21221160E+03</totfact>
</mgrwt>
</event>
<event>
 4    1  0.4918322E-002  0.4543268E+03  0.7818608E-02  0.1026440E+00
         21   -1    0    0  501  502  0.00000000000E+00  0.00000000000E+00  0.68696217474E+03  0.68696217474E+03  0.00000000000E+00 0.  1.
         21   -1    0    0  502  503 -0.00000000000E+00 -0.00000000000E+00 -0.30561173990E+03  0.30561173990E+03  0.00000000000E+00 0. -1.
    9000007    1    1    2  501    0 -0.14060252920E+03 -0.16322921383E+03  0.25503603596E+03  0.52101461314E+03  0.40000000000E+03 0.  1.
   -9000007    1    1    2    0  503  0.14060252920E+03  0.16322921383E+03  0.12631439889E+03  0.47155930150E+03  0.40000000000E+03 0.  1.
<mgrwt>
<rscale>  2 0.45432681E+03</rscale>
<asrwt>0</asrwt>
<pdfrwt beam="1">  1       21 0.10568649E+00 0.45432681E+03</pdfrwt>
<pdfrwt beam="2">  1       21 0.47017191E-01 0.45432681E+03</pdfrwt>
<totfact> 0.26959990E+03</totfact>
</mgrwt>
</event>
<event>
 4    1  0.4918322E-002  0.4126043E+03  0.7818608E-02  0.1039501E+00
         21   -1    0    0  503  502  0.00000000000E+00  0.00000000000E+00  0.37782460773E+03  0.37782460773E+03  0.00000000000E+00 0.  1.
         21   -1    0    0  501  503 -0.00000000000E+00 -0.00000000000E+00 -0.55072476044E+03  0.55072476044E+03  0.00000000000E+00 0.  1.
    9000007    1    1    2  501    0  0.66218567054E+02 -0.76533779667E+02 -0.28442479271E+03  0.50113848461E+03  0.40000000000E+03 0.  1.
   -9000007    1    1    2    0  502 -0.66218567054E+02  0.76533779667E+02  0.11152463999E+03  0.42741088355E+03  0.40000000000E+03 0.  1.
<mgrwt>
<rscale>  2 0.41260431E+03</rscale>
<asrwt>0</asrwt>
<pdfrwt beam="1">  1       21 0.58126863E-01 0.41260431E+03</pdfrwt>
<pdfrwt beam="2">  1       21 0.84726886E-01 0.41260431E+03</pdfrwt>
<totfact> 0.29532531E+03</totfact>
</mgrwt>
</event>
<event>
 4    1  0.4918322E-002  0.4208653E+03  0.7818608E-02  0.1036785E+00
         21   -1    0    0  501  502  0.00000000000E+00  0.00000000000E+00  0.41485698527E+03  0.41485698527E+03  0.00000000000E+00 0.  1.
         21   -1    0    0  502  503 -0.00000000000E+00 -0.00000000000E+00 -0.13084303256E+04  0.13084303256E+04  0.00000000000E+00 0.  1.
    9000007    1    1    2  501    0 -0.94213673171E+02  0.90837167230E+02  0.26043585170E+03  0.49492872215E+03  0.40000000000E+03 0.  1.
   -9000007    1    1    2    0  503  0.94213673171E+02 -0.90837167230E+02 -0.11540091920E+04  0.12283585887E+04  0.40000000000E+03 0.  1.
<mgrwt>
<rscale>  2 0.42086531E+03</rscale>
<asrwt>0</asrwt>
<pdfrwt beam="1">  1       21 0.63824153E-01 0.42086531E+03</pdfrwt>
<pdfrwt beam="2">  1       21 0.20129697E+00 0.42086531E+03</pdfrwt>
<totfact> 0.24619049E+02</totfact>
</mgrwt>
</event>
<event>
 4    1  0.4918322E-002  0.5003841E+03  0.7818608E-02  0.1013679E+00
         21   -1    0    0  503  502  0.00000000000E+00  0.00000000000E+00  0.34292112586E+03  0.34292112586E+03  0.00000000000E+00 0.  1.
         21   -1    0    0  501  503 -0.00000000000E+00 -0.00000000000E+00 -0.11432848595E+04  0.11432848595E+04  0.00000000000E+00 0. -1.
    9000007    1    1    2  501    0 -0.28818707664E+03  0.85629791261E+02 -0.84688305097E+03  0.98366414711E+03  0.40000000000E+03 0. -1.
   -9000007    1    1    2    0  502  0.28818707664E+03 -0.85629791261E+02  0.46519317337E+02  0.50254183824E+03  0.40000000000E+03 0. -1.
<mgrwt>
<rscale>  2 0.50038410E+03</rscale>
<asrwt>0</asrwt>
<pdfrwt beam="1">  1       21 0.52757096E-01 0.50038410E+03</pdfrwt>
<pdfrwt beam="2">  1       21 0.17588998E+00 0.50038410E+03</pdfrwt>
<totfact> 0.53649562E+02</totfact>
</mgrwt>
</event>
<event>
 4    1  0.4918322E-002  0.5687149E+03  0.7818608E-02  0.9972526E-01
         21   -1    0    0  501  502  0.00000000000E+00  0.00000000000E+00  0.81176441572E+03  0.81176441572E+03  0.00000000000E+00 0.  1.
         21   -1    0    0  502  503 -0.00000000000E+00 -0.00000000000E+00 -0.57927275266E+03  0.57927275266E+03  0.00000000000E+00 0.  1.
    9000007    1    1    2  501    0  0.32096465504E+03 -0.24580135621E+03  0.50485216359E+03  0.76046848953E+03  0.40000000000E+03 0.  1.
   -9000007    1    1    2    0  503 -0.32096465504E+03  0.24580135621E+03 -0.27236050052E+03  0.63056867885E+03  0.40000000000E+03 0.  1.
<mgrwt>
<rscale>  2 0.56871488E+03</rscale>
<asrwt>0</asrwt>
<pdfrwt beam="1">  1       21 0.12488683E+00 0.56871488E+03</pdfrwt>
<pdfrwt beam="2">  1       21 0.89118885E-01 0.56871488E+03</pdfrwt>
<totfact> 0.40775445E+02</totfact>
</mgrwt>
</event>
<event>
 4    1  0.4918322E-002  0.7905955E+03  0.7818608E-02  0.9573730E-01
         21   -1    0    0  501  502  0.00000000000E+00  0.00000000000E+00  0.15282070110E+04  0.15282070110E+04  0.00000000000E+00 0.  1.
         21   -1    0    0  502  503 -0.00000000000E+00 -0.00000000000E+00 -0.41539872298E+03  0.41539872298E+03  0.00000000000E+00 0.  1.
    9000007    1    1    2  501    0  0.64996021906E+03  0.20638074429E+03  0.43582022325E+03  0.90276274013E+03  0.40000000000E+03 0.  1.
   -9000007    1    1    2    0  503 -0.64996021906E+03 -0.20638074429E+03  0.67698806473E+03  0.10408429938E+04  0.40000000000E+03 0.  1.
<mgrwt>
<rscale>  2 0.79059553E+03</rscale>
<asrwt>0</asrwt>
<pdfrwt beam="1">  1       21 0.23510877E+00 0.79059553E+03</pdfrwt>
<pdfrwt beam="2">  1       21 0.63907497E-01 0.79059553E+03</pdfrwt>
<totfact> 0.12698740E+02</totfact>
</mgrwt>
</event>
<event>
 4    1  0.4918322E-002  0.4437383E+03  0.7818608E-02  0.1029606E+00
         21   -1    0    0  501  502  0.00000000000E+00  0.00000000000E+00  0.25054721298E+03  0.25054721298E+03  0.00000000000E+00 0.  1.
         21   -1    0    0  502  503 -0.00000000000E+00 -0.00000000000E+00 -0.16835175502E+04  0.16835175502E+04  0.00000000000E+00 0.  1.
    9000007    1    1    2  501    0  0.65518373292E+02 -0.18058525220E+03 -0.10364087258E+02  0.44385933003E+03  0.40000000000E+03 0.  1.
   -9000007    1    1    2    0  503 -0.65518373292E+02  0.18058525220E+03 -0.14226062499E+04  0.14902054331E+04  0.40000000000E+03 0.  1.
<mgrwt>
<rscale>  2 0.44373831E+03</rscale>
<asrwt>0</asrwt>
<pdfrwt beam="1">  1       21 0.38545726E-01 0.44373831E+03</pdfrwt>
<pdfrwt beam="2">  1       21 0.25900269E+00 0.44373831E+03</pdfrwt>
<totfact> 0.30709915E+02</totfact>
</mgrwt>
</event>
<event>
 4    1  0.4918322E-002  0.4901679E+03  0.7818608E-02  0.1016378E+00
         21   -1    0    0  501  502  0.00000000000E+00  0.00000000000E+00  0.24749095701E+04  0.24749095701E+04  0.00000000000E+00 0. -1.
         21   -1    0    0  502  503 -0.00000000000E+00 -0.00000000000E+00 -0.16383756517E+03  0.16383756517E+03  0.00000000000E+00 0. -1.
    9000007    1    1    2  501    0  0.12859079913E+03  0.25244592147E+03  0.19977275254E+04  0.20569831799E+04  0.40000000000E+03 0. -1.
   -9000007    1    1    2    0  503 -0.12859079913E+03 -0.25244592147E+03  0.31334447961E+03  0.58176395539E+03  0.40000000000E+03 0. -1.
<mgrwt>
<rscale>  2 0.49016787E+03</rscale>
<asrwt>0</asrwt>
<pdfrwt beam="1">  1       21 0.38075529E+00 0.49016787E+03</pdfrwt>
<pdfrwt beam="2">  1       21 0.25205781E-01 0.49016787E+03</pdfrwt>
<totfact> 0.12620386E+02</totfact>
</mgrwt>
</event>
<event>
 4    1  0.4918322E-002  0.4180489E+03  0.7818608E-02  0.1037703E+00
         21   -1    0    0  503  502  0.00000000000E+00  0.00000000000E+00  0.26338495332E+03  0.26338495332E+03  0.00000000000E+00 0.  1.
         21   -1    0    0  501  503 -0.00000000000E+00 -0.00000000000E+00 -0.71876384939E+03  0.71876384939E+03  0.00000000000E+00 0.  1.
    9000007    1    1    2  501    0  0.85340717272E+02  0.86497570481E+02 -0.36381547541E+03  0.55419001062E+03  0.40000000000E+03 0.  1.
   -9000007    1    1    2    0  502 -0.85340717272E+02 -0.86497570481E+02 -0.91563420666E+02  0.42795879209E+03  0.40000000000E+03 0.  1.
<mgrwt>
<rscale>  2 0.41804888E+03</rscale>
<asrwt>0</asrwt>
<pdfrwt beam="1">  1       21 0.40520763E-01 0.41804888E+03</pdfrwt>
<pdfrwt beam="2">  1       21 0.11057905E+00 0.41804888E+03</pdfrwt>
<totfact> 0.33312232E+03</totfact>
</mgrwt>
</event>
<event>
 4    1  0.4918322E-002  0.4006824E+03  0.7818608E-02  0.1043544E+00
         21   -1    0    0  501  502  0.00000000000E+00  0.00000000000E+00  0.11407975138E+04  0.11407975138E+04  0.00000000000E+00 0.  1.
         21   -1    0    0  502  503 -0.00000000000E+00 -0.00000000000E+00 -0.16388281647E+03  0.16388281647E+03  0.00000000000E+00 0.  1.
    9000007    1    1    2  501    0  0.13913160888E+02 -0.18783250700E+02  0.73364199564E+03  0.83592880338E+03  0.40000000000E+03 0.  1.
   -9000007    1    1    2    0  503 -0.13913160888E+02  0.18783250700E+02  0.24327270166E+03  0.46875152685E+03  0.40000000000E+03 0.  1.
<mgrwt>
<rscale>  2 0.40068240E+03</rscale>
<asrwt>0</asrwt>
<pdfrwt beam="1">  1       21 0.17550730E+00 0.40068240E+03</pdfrwt>
<pdfrwt beam="2">  1       21 0.25212742E-01 0.40068240E+03</pdfrwt>
<totfact> 0.25409241E+03</totfact>
</mgrwt>
</event>
<event>
 4    1  0.4918322E-002  0.4722511E+03  0.7818608E-02  0.1021287E+00
         21   -1    0    0  503  502  0.00000000000E+00  0.00000000000E+00  0.47115282024E+03  0.47115282024E+03  0.00000000000E+00 0.  1.
         21   -1    0    0  501  503 -0.00000000000E+00 -0.00000000000E+00 -0.47487825349E+03  0.47487825349E+03  0.00000000000E+00 0.  1.
    9000007    1    1    2  501    0  0.22610033778E+03  0.10908601322E+03 -0.28679102102E+02  0.47312113874E+03  0.40000000000E+03 0.  1.
   -9000007    1    1    2    0  502 -0.22610033778E+03 -0.10908601322E+03  0.24953668858E+02  0.47290993499E+03  0.40000000000E+03 0.  1.
<mgrwt>
<rscale>  2 0.47225112E+03</rscale>
<asrwt>0</asrwt>
<pdfrwt beam="1">  1       21 0.72485049E-01 0.47225112E+03</pdfrwt>
<pdfrwt beam="2">  1       21 0.73058193E-01 0.47225112E+03</pdfrwt>
<totfact> 0.24888869E+03</totfact>
</mgrwt>
</event>
<event>
 4    1  0.4918322E-002  0.4411332E+03  0.7818608E-02  0.1030400E+00
         21   -1    0    0  501  502  0.00000000000E+00  0.00000000000E+00  0.99126062663E+03  0.99126062663E+03  0.00000000000E+00 0. -1.
         21   -1    0    0  502  503 -0.00000000000E+00 -0.00000000000E+00 -0.22413792405E+03  0.22413792405E+03  0.00000000000E+00 0.  1.
    9000007    1    1    2  501    0  0.15114072105E+03 -0.10842032700E+03  0.59767240281E+03  0.74283967715E+03  0.40000000000E+03 0. -1.
   -9000007    1    1    2    0  503 -0.15114072105E+03  0.10842032700E+03  0.16945029977E+03  0.47255887354E+03  0.40000000000E+03 0.  1.
<mgrwt>
<rscale>  2 0.44113318E+03</rscale>
<asrwt>0</asrwt>
<pdfrwt beam="1">  1       21 0.15250163E+00 0.44113318E+03</pdfrwt>
<pdfrwt beam="2">  1       21 0.34482758E-01 0.44113318E+03</pdfrwt>
<totfact> 0.19913559E+03</totfact>
</mgrwt>
</event>
<event>
 4    1  0.4918322E-002  0.4919747E+03  0.7818608E-02  0.1015895E+00
         21   -1    0    0  501  502  0.00000000000E+00  0.00000000000E+00  0.32462769315E+03  0.32462769315E+03  0.00000000000E+00 0. -1.
         21   -1    0    0  502  503 -0.00000000000E+00 -0.00000000000E+00 -0.76818546198E+03  0.76818546198E+03  0.00000000000E+00 0.  1.
    9000007    1    1    2  501    0 -0.20080751643E+03 -0.20424357470E+03 -0.12806683805E+03  0.50837015203E+03  0.40000000000E+03 0. -1.
   -9000007    1    1    2    0  503  0.20080751643E+03  0.20424357470E+03 -0.31549093078E+03  0.58444300310E+03  0.40000000000E+03 0.  1.
<mgrwt>
<rscale>  2 0.49197469E+03</rscale>
<asrwt>0</asrwt>
<pdfrwt beam="1">  1       21 0.49942723E-01 0.49197469E+03</pdfrwt>
<pdfrwt beam="2">  1       21 0.11818238E+00 0.49197469E+03</pdfrwt>
<totfact> 0.17714370E+03</totfact>
</mgrwt>
</event>
<event>
 4    1  0.4918322E-002  0.5107705E+03  0.7818608E-02  0.1011005E+00
         21   -1    0    0  503  502  0.00000000000E+00  0.00000000000E+00  0.11709580153E+04  0.11709580153E+04  0.00000000000E+00 0. -1.
         21   -1    0    0  501  503 -0.00000000000E+00 -0.00000000000E+00 -0.65817616451E+03  0.65817616451E+03  0.00000000000E+00 0. -1.
    9000007    1    1    2  501    0  0.31722918369E+03 -0.15879674491E+02 -0.48744656816E+03  0.70603872122E+03  0.40000000000E+03 0. -1.
   -9000007    1    1    2    0  502 -0.31722918369E+03  0.15879674491E+02  0.10002284189E+04  0.11230954586E+04  0.40000000000E+03 0. -1.
<mgrwt>
<rscale>  2 0.51077052E+03</rscale>
<asrwt>0</asrwt>
<pdfrwt beam="1">  1       21 0.18014739E+00 0.51077052E+03</pdfrwt>
<pdfrwt beam="2">  1       21 0.10125787E+00 0.51077052E+03</pdfrwt>
<totfact> 0.11240736E+02</totfact>
</mgrwt>
</event>
<event>
 4    1  0.4918322E-002  0.4068888E+03  0.7818608E-02  0.1041420E+00
         21   -1    0    0  503  502  0.00000000000E+00  0.00000000000E+00  0.11657750236E+04  0.11657750236E+04  0.00000000000E+00 0. -1.
         21   -1    0    0  501  503 -0.00000000000E+00 -0.00000000000E+00 -0.23265130172E+03  0.23265130172E+03  0.00000000000E+00 0. -1.
    9000007    1    1    2  501    0 -0.48096405750E+02 -0.56966782212E+02  0.30140487952E+02  0.40800358765E+03  0.40000000000E+03 0. -1.
   -9000007    1    1    2    0  502  0.48096405750E+02  0.56966782212E+02  0.90298323395E+03  0.99042273768E+03  0.40000000000E+03 0. -1.
<mgrwt>
<rscale>  2 0.40688878E+03</rscale>
<asrwt>0</asrwt>
<pdfrwt beam="1">  1       21 0.17935000E+00 0.40688878E+03</pdfrwt>
<pdfrwt beam="2">  1       21 0.35792509E-01 0.40688878E+03</pdfrwt>
<totfact> 0.11877534E+03</totfact>
</mgrwt>
</event>
<event>
 4    1  0.4918322E-002  0.4981813E+03  0.7818608E-02  0.1014255E+00
         21   -1    0    0  503  502  0.00000000000E+00  0.00000000000E+00  0.51910837744E+03  0.51910837744E+03  0.00000000000E+00 0.  1.
         21   -1    0    0  501  503 -0.00000000000E+00 -0.00000000000E+00 -0.83510425689E+03  0.83510425689E+03  0.00000000000E+00 0. -1.
    9000007    1    1    2  501    0 -0.26719691644E+03  0.12957798023E+03 -0.60071317539E+03  0.78041076633E+03  0.40000000000E+03 0. -1.
   -9000007    1    1    2    0  502  0.26719691644E+03 -0.12957798023E+03  0.28471729594E+03  0.57380186800E+03  0.40000000000E+03 0.  1.
<mgrwt>
<rscale>  2 0.49818134E+03</rscale>
<asrwt>0</asrwt>
<pdfrwt beam="1">  1       21 0.79862828E-01 0.49818134E+03</pdfrwt>
<pdfrwt beam="2">  1       21 0.12847758E+00 0.49818134E+03</pdfrwt>
<totfact> 0.50338312E+02</totfact>
</mgrwt>
</event>
<event>
 4    1  0.4918322E-002  0.6365806E+03  0.7818608E-02  0.9832291E-01
         21   -1    0    0  503  502  0.00000000000E+00  0.00000000000E+00  0.89458330488E+03  0.89458330488E+03  0.00000000000E+00 0.  1.
         21   -1    0    0  501  503 -0.00000000000E+00 -0.00000000000E+00 -0.54374909382E+03  0.54374909382E+03  0.00000000000E+00 0.  1.
    9000007    1    1    2  501    0 -0.28283130146E+03  0.40649892498E+03 -0.11840293130E+03  0.64749839787E+03  0.40000000000E+03 0.  1.
   -9000007    1    1    2    0  502  0.28283130146E+03 -0.40649892498E+03  0.46923714236E+03  0.79083400083E+03  0.40000000000E+03 0.  1.
<mgrwt>
<rscale>  2 0.63658065E+03</rscale>
<asrwt>0</asrwt>
<pdfrwt beam="1">  1       21 0.13762820E+00 0.63658065E+03</pdfrwt>
<pdfrwt beam="2">  1       21 0.83653707E-01 0.63658065E+03</pdfrwt>
<totfact> 0.35858448E+02</totfact>
</mgrwt>
</event>
<event>
 4    1  0.4918322E-002  0.4644110E+03  0.7818608E-02  0.1023510E+00
         21   -1    0    0  503  502  0.00000000000E+00  0.00000000000E+00  0.17014862510E+03  0.17014862510E+03  0.00000000000E+00 0. -1.
         21   -1    0    0  501  503 -0.00000000000E+00 -0.00000000000E+00 -0.24826324211E+04  0.24826324211E+04  0.00000000000E+00 0. -1.
    9000007    1    1    2  501    0  0.28281610588E+02 -0.23425992554E+03 -0.20841652621E+04  0.21352804035E+04  0.40000000000E+03 0. -1.
   -9000007    1    1    2    0  502 -0.28281610588E+02  0.23425992554E+03 -0.22831853394E+03  0.51750064266E+03  0.40000000000E+03 0. -1.
<mgrwt>
<rscale>  2 0.46441098E+03</rscale>
<asrwt>0</asrwt>
<pdfrwt beam="1">  1       21 0.26176715E-01 0.46441098E+03</pdfrwt>
<pdfrwt beam="2">  1       21 0.38194340E+00 0.46441098E+03</pdfrwt>
<totfact> 0.11718034E+02</totfact>
</mgrwt>
</event>
<event>
 4    1  0.4918322E-002  0.4119471E+03  0.7818608E-02  0.1039720E+00
         21   -1    0    0  503  502  0.00000000000E+00  0.00000000000E+00  0.64624181831E+03  0.64624181831E+03  0.00000000000E+00 0. -1.
         21   -1    0    0  501  503 -0.00000000000E+00 -0.00000000000E+00 -0.29743743975E+03  0.29743743975E+03  0.00000000000E+00 0. -1.
    9000007    1    1    2  501    0  0.32348035153E+02 -0.93027184794E+02  0.12912328279E+02  0.41214946404E+03  0.40000000000E+03 0. -1.
   -9000007    1    1    2    0  502 -0.32348035153E+02  0.93027184794E+02  0.33589205028E+03  0.53152979402E+03  0.40000000000E+03 0. -1.
<mgrwt>
<rscale>  2 0.41194715E+03</rscale>
<asrwt>0</asrwt>
<pdfrwt beam="1">  1       21 0.99421818E-01 0.41194715E+03</pdfrwt>
<pdfrwt beam="2">  1       21 0.45759606E-01 0.41194715E+03</pdfrwt>
<totfact> 0.33667942E+03</totfact>
</mgrwt>
</event>
<event>
 4    1  0.4918322E-002  0.4065490E+03  0.7818608E-02  0.1041535E+00
         21   -1    0    0  503  502  0.00000000000E+00  0.00000000000E+00  0.44712213826E+03  0.44712213826E+03  0.00000000000E+00 0.  1.
         21   -1    0    0  501  503 -0.00000000000E+00 -0.00000000000E+00 -0.63553580741E+03  0.63553580741E+03  0.00000000000E+00 0.  1.
    9000007    1    1    2  501    0 -0.58917216134E+02  0.42553763151E+02 -0.44433955271E+03  0.60226215157E+03  0.40000000000E+03 0.  1.
   -9000007    1    1    2    0  502  0.58917216134E+02 -0.42553763151E+02  0.25592588355E+03  0.48039579410E+03  0.40000000000E+03 0.  1.
<mgrwt>
<rscale>  2 0.40654897E+03</rscale>
<asrwt>0</asrwt>
<pdfrwt beam="1">  1       21 0.68788021E-01 0.40654897E+03</pdfrwt>
<pdfrwt beam="2">  1       21 0.97774739E-01 0.40654897E+03</pdfrwt>
<totfact> 0.14541259E+03</totfact>
</mgrwt>
</event>
<event>
 4    1  0.4918322E-002  0.4233513E+03  0.7818608E-02  0.1035981E+00
         21   -1    0    0  501  502  0.00000000000E+00  0.00000000000E+00  0.11359709310E+03  0.11359709310E+03  0.00000000000E+00 0.  1.
         21   -1    0    0  502  503 -0.00000000000E+00 -0.00000000000E+00 -0.17503038874E+04  0.17503038874E+04  0.00000000000E+00 0.  1.
    9000007    1    1    2  501    0  0.13368011480E+03  0.36823475499E+02 -0.11109806666E+04  0.11889089044E+04  0.40000000000E+03 0.  1.
   -9000007    1    1    2    0  503 -0.13368011480E+03 -0.36823475499E+02 -0.52572612777E+03  0.67499207615E+03  0.40000000000E+03 0.  1.
<mgrwt>
<rscale>  2 0.42335132E+03</rscale>
<asrwt>0</asrwt>
<pdfrwt beam="1">  1       21 0.17476478E-01 0.42335132E+03</pdfrwt>
<pdfrwt beam="2">  1       21 0.26927749E+00 0.42335132E+03</pdfrwt>
<totfact> 0.12641661E+03</totfact>
</mgrwt>
</event>
<event>
 4    1  0.4918322E-002  0.5002164E+03  0.7818608E-02  0.1013722E+00
         21   -1    0    0  503  502  0.00000000000E+00  0.00000000000E+00  0.49353039638E+03  0.49353039638E+03  0.00000000000E+00 0.  1.
         21   -1    0    0  501  503 -0.00000000000E+00 -0.00000000000E+00 -0.10349094259E+04  0.10349094259E+04  0.00000000000E+00 0. -1.
    9000007    1    1    2  501    0  0.30034670602E+03 -0.28879355528E+01 -0.81650988771E+03  0.95755150291E+03  0.40000000000E+03 0. -1.
   -9000007    1    1    2    0  502 -0.30034670602E+03  0.28879355528E+01  0.27513085824E+03  0.57088831933E+03  0.40000000000E+03 0.  1.
<mgrwt>
<rscale>  2 0.50021644E+03</rscale>
<asrwt>0</asrwt>
<pdfrwt beam="1">  1       21 0.75927754E-01 0.50021644E+03</pdfrwt>
<pdfrwt beam="2">  1       21 0.15921683E+00 0.50021644E+03</pdfrwt>
<totfact> 0.31757179E+02</totfact>
</mgrwt>
</event>
<event>
 4    1  0.4918322E-002  0.4255632E+03  0.7818608E-02  0.1035271E+00
         21   -1    0    0  501  502  0.00000000000E+00  0.00000000000E+00  0.71901344015E+03  0.71901344015E+03  0.00000000000E+00 0. -1.
         21   -1    0    0  502  503 -0.00000000000E+00 -0.00000000000E+00 -0.71714352940E+03  0.71714352940E+03  0.00000000000E+00 0. -1.
    9000007    1    1    2  501    0  0.14388090605E+03 -0.20058420656E+02  0.57932266955E+03  0.71883155942E+03  0.40000000000E+03 0. -1.
   -9000007    1    1    2    0  503 -0.14388090605E+03  0.20058420656E+02 -0.57745275880E+03  0.71732541013E+03  0.40000000000E+03 0. -1.
<mgrwt>
<rscale>  2 0.42556322E+03</rscale>
<asrwt>0</asrwt>
<pdfrwt beam="1">  1       21 0.11061745E+00 0.42556322E+03</pdfrwt>
<pdfrwt beam="2">  1       21 0.11032977E+00 0.42556322E+03</pdfrwt>
<totfact> 0.35058874E+02</totfact>
</mgrwt>
</event>
<event>
 4    1  0.4918322E-002  0.5075551E+03  0.7818608E-02  0.1011826E+00
         21   -1    0    0  503  502  0.00000000000E+00  0.00000000000E+00  0.41929211647E+03  0.41929211647E+03  0.00000000000E+00 0.  1.
         21   -1    0    0  501  503 -0.00000000000E+00 -0.00000000000E+00 -0.70241710557E+03  0.70241710557E+03  0.00000000000E+00 0.  1.
    9000007    1    1    2  501    0  0.29937984407E+03  0.89352781879E+02 -0.34009946484E+03  0.61096633021E+03  0.40000000000E+03 0.  1.
   -9000007    1    1    2    0  502 -0.29937984407E+03 -0.89352781879E+02  0.56974475742E+02  0.51074289183E+03  0.40000000000E+03 0.  1.
<mgrwt>
<rscale>  2 0.50755513E+03</rscale>
<asrwt>0</asrwt>
<pdfrwt beam="1">  1       21 0.64506481E-01 0.50755513E+03</pdfrwt>
<pdfrwt beam="2">  1       21 0.10806417E+00 0.50755513E+03</pdfrwt>
<totfact> 0.12626463E+03</totfact>
</mgrwt>
</event>
<event>
 4    1  0.4918322E-002  0.4484433E+03  0.7818608E-02  0.1028187E+00
         21   -1    0    0  503  502  0.00000000000E+00  0.00000000000E+00  0.12222527691E+04  0.12222527691E+04  0.00000000000E+00 0. -1.
         21   -1    0    0  501  503 -0.00000000000E+00 -0.00000000000E+00 -0.26086408417E+03  0.26086408417E+03  0.00000000000E+00 0. -1.
    9000007    1    1    2  501    0  0.20273148450E+03  0.11447363351E+01  0.30063800600E+02  0.44944988301E+03  0.40000000000E+03 0. -1.
   -9000007    1    1    2    0  502 -0.20273148450E+03 -0.11447363351E+01  0.93132488428E+03  0.10336669702E+04  0.40000000000E+03 0. -1.
<mgrwt>
<rscale>  2 0.44844327E+03</rscale>
<asrwt>0</asrwt>
<pdfrwt beam="1">  1       21 0.18803888E+00 0.44844327E+03</pdfrwt>
<pdfrwt beam="2">  1       21 0.40132937E-01 0.44844327E+03</pdfrwt>
<totfact> 0.80213851E+02</totfact>
</mgrwt>
</event>
<event>
 4    1  0.4918322E-002  0.4325313E+03  0.7818608E-02  0.1033063E+00
         21   -1    0    0  503  502  0.00000000000E+00  0.00000000000E+00  0.20388646901E+03  0.20388646901E+03  0.00000000000E+00 0. -1.
         21   -1    0    0  501  503 -0.00000000000E+00 -0.00000000000E+00 -0.11501042778E+04  0.11501042778E+04  0.00000000000E+00 0. -1.
    9000007    1    1    2  501    0 -0.11011496966E+03  0.12230297477E+03 -0.77750974531E+03  0.88972171393E+03  0.40000000000E+03 0. -1.
   -9000007    1    1    2    0  502  0.11011496966E+03 -0.12230297477E+03 -0.16870806343E+03  0.46426903283E+03  0.40000000000E+03 0. -1.
<mgrwt>
<rscale>  2 0.43253130E+03</rscale>
<asrwt>0</asrwt>
<pdfrwt beam="1">  1       21 0.31367148E-01 0.43253130E+03</pdfrwt>
<pdfrwt beam="2">  1       21 0.17693912E+00 0.43253130E+03</pdfrwt>
<totfact> 0.15917571E+03</totfact>
</mgrwt>
</event>
<event>
 4    1  0.4918322E-002  0.4673071E+03  0.7818608E-02  0.1022683E+00
         21   -1    0    0  503  502  0.00000000000E+00  0.00000000000E+00  0.59448533753E+03  0.59448533753E+03  0.00000000000E+00 0. -1.
         21   -1    0    0  501  503 -0.00000000000E+00 -0.00000000000E+00 -0.36838146911E+03  0.36838146911E+03  0.00000000000E+00 0. -1.
    9000007    1    1    2  501    0  0.20803508139E+03 -0.12287131638E+03  0.87406405791E+02  0.47541122752E+03  0.40000000000E+03 0. -1.
   -9000007    1    1    2    0  502 -0.20803508139E+03  0.12287131638E+03  0.13869746264E+03  0.48745557912E+03  0.40000000000E+03 0. -1.
<mgrwt>
<rscale>  2 0.46730713E+03</rscale>
<asrwt>0</asrwt>
<pdfrwt beam="1">  1       21 0.91459282E-01 0.46730713E+03</pdfrwt>
<pdfrwt beam="2">  1       21 0.56674072E-01 0.46730713E+03</pdfrwt>
<totfact> 0.25540092E+03</totfact>
</mgrwt>
</event>
<event>
 4    1  0.4918322E-002  0.4380948E+03  0.7818608E-02  0.1031333E+00
         21   -1    0    0  501  502  0.00000000000E+00  0.00000000000E+00  0.19487478241E+03  0.19487478241E+03  0.00000000000E+00 0. -1.
         21   -1    0    0  502  503 -0.00000000000E+00 -0.00000000000E+00 -0.15448923767E+04  0.15448923767E+04  0.00000000000E+00 0. -1.
    9000007    1    1    2  501    0  0.14480610716E+03 -0.10468157728E+03 -0.15127176040E+03  0.46347619873E+03  0.40000000000E+03 0. -1.
   -9000007    1    1    2    0  503 -0.14480610716E+03  0.10468157728E+03 -0.11987458338E+04  0.12762909603E+04  0.40000000000E+03 0. -1.
<mgrwt>
<rscale>  2 0.43809479E+03</rscale>
<asrwt>0</asrwt>
<pdfrwt beam="1">  1       21 0.29980736E-01 0.43809479E+03</pdfrwt>
<pdfrwt beam="2">  1       21 0.23767575E+00 0.43809479E+03</pdfrwt>
<totfact> 0.69145078E+02</totfact>
</mgrwt>
</event>
<event>
 4    1  0.4918322E-002  0.4417509E+03  0.7818608E-02  0.1030211E+00
         21   -1    0    0  503  502  0.00000000000E+00  0.00000000000E+00  0.96855912259E+03  0.96855912259E+03  0.00000000000E+00 0. -1.
         21   -1    0    0  501  503 -0.00000000000E+00 -0.00000000000E+00 -0.22584415066E+04  0.22584415066E+04  0.00000000000E+00 0. -1.
    9000007    1    1    2  501    0 -0.12707450592E+02  0.18703584255E+03 -0.21847892389E+04  0.22290015487E+04  0.40000000000E+03 0. -1.
   -9000007    1    1    2    0  502  0.12707450592E+02 -0.18703584255E+03  0.89490685490E+03  0.99799908048E+03  0.40000000000E+03 0. -1.
<mgrwt>
<rscale>  2 0.44175093E+03</rscale>
<asrwt>0</asrwt>
<pdfrwt beam="1">  1       21 0.14900910E+00 0.44175093E+03</pdfrwt>
<pdfrwt beam="2">  1       21 0.34745254E+00 0.44175093E+03</pdfrwt>
<totfact> 0.39264706E+00</totfact>
</mgrwt>
</event>
<event>
 4    1  0.4918322E-002  0.4195633E+03  0.7818608E-02  0.1037209E+00
         21   -1    0    0  501  502  0.00000000000E+00  0.00000000000E+00  0.73388644369E+03  0.73388644369E+03  0.00000000000E+00 0. -1.
         21   -1    0    0  502  503 -0.00000000000E+00 -0.00000000000E+00 -0.29326063050E+03  0.29326063050E+03  0.00000000000E+00 0. -1.
    9000007    1    1    2  501    0  0.12584197010E+03  0.14040035601E+02  0.43945738998E+03  0.60758219333E+03  0.40000000000E+03 0. -1.
   -9000007    1    1    2    0  503 -0.12584197010E+03 -0.14040035601E+02  0.11684232060E+01  0.41956488086E+03  0.40000000000E+03 0. -1.
<mgrwt>
<rscale>  2 0.41956325E+03</rscale>
<asrwt>0</asrwt>
<pdfrwt beam="1">  1       21 0.11290561E+00 0.41956325E+03</pdfrwt>
<pdfrwt beam="2">  1       21 0.45117020E-01 0.41956325E+03</pdfrwt>
<totfact> 0.25292490E+03</totfact>
</mgrwt>
</event>
<event>
 4    1  0.4918322E-002  0.4398706E+03  0.7818608E-02  0.1030787E+00
         21   -1    0    0  501  502  0.00000000000E+00  0.00000000000E+00  0.97331971833E+03  0.97331971833E+03  0.00000000000E+00 0. -1.
         21   -1    0    0  502  503 -0.00000000000E+00 -0.00000000000E+00 -0.23182495563E+03  0.23182495563E+03  0.00000000000E+00 0. -1.
    9000007    1    1    2  501    0  0.18184810229E+03 -0.20431484420E+02  0.59821327730E+03  0.74252629785E+03  0.40000000000E+03 0. -1.
   -9000007    1    1    2    0  503 -0.18184810229E+03  0.20431484420E+02  0.14328148540E+03  0.46261837612E+03  0.40000000000E+03 0. -1.
<mgrwt>
<rscale>  2 0.43987064E+03</rscale>
<asrwt>0</asrwt>
<pdfrwt beam="1">  1       21 0.14974149E+00 0.43987064E+03</pdfrwt>
<pdfrwt beam="2">  1       21 0.35665378E-01 0.43987064E+03</pdfrwt>
<totfact> 0.19557247E+03</totfact>
</mgrwt>
</event>
<event>
 4    1  0.4918322E-002  0.4248400E+03  0.7818608E-02  0.1035502E+00
         21   -1    0    0  501  502  0.00000000000E+00  0.00000000000E+00  0.47232606055E+03  0.47232606055E+03  0.00000000000E+00 0. -1.
         21   -1    0    0  502  503 -0.00000000000E+00 -0.00000000000E+00 -0.11291978668E+04  0.11291978668E+04  0.00000000000E+00 0. -1.
    9000007    1    1    2  501    0  0.14118967074E+03  0.23548437022E+02  0.32289096982E+03  0.53361749447E+03  0.40000000000E+03 0. -1.
   -9000007    1    1    2    0  503 -0.14118967074E+03 -0.23548437022E+02 -0.97976277608E+03  0.10679064329E+04  0.40000000000E+03 0. -1.
<mgrwt>
<rscale>  2 0.42484003E+03</rscale>
<asrwt>0</asrwt>
<pdfrwt beam="1">  1       21 0.72665548E-01 0.42484003E+03</pdfrwt>
<pdfrwt beam="2">  1       21 0.17372275E+00 0.42484003E+03</pdfrwt>
<totfact> 0.28452457E+02</totfact>
</mgrwt>
</event>
<event>
 4    1  0.4918322E-002  0.5288438E+03  0.7818608E-02  0.1006513E+00
         21   -1    0    0  503  502  0.00000000000E+00  0.00000000000E+00  0.15916264097E+04  0.15916264097E+04  0.00000000000E+00 0.  1.
         21   -1    0    0  501  503 -0.00000000000E+00 -0.00000000000E+00 -0.17736975288E+03  0.17736975288E+03  0.00000000000E+00 0. -1.
    9000007    1    1    2  501    0 -0.33815487390E+03 -0.72986643629E+02  0.79251009109E+03  0.95275810853E+03  0.40000000000E+03 0. -1.
   -9000007    1    1    2    0  502  0.33815487390E+03  0.72986643629E+02  0.62174656570E+03  0.81623805403E+03  0.40000000000E+03 0. -1.
<mgrwt>
<rscale>  2 0.52884380E+03</rscale>
<asrwt>0</asrwt>
<pdfrwt beam="1">  1       21 0.24486559E+00 0.52884380E+03</pdfrwt>
<pdfrwt beam="2">  1       21 0.27287655E-01 0.52884380E+03</pdfrwt>
<totfact> 0.72015641E+02</totfact>
</mgrwt>
</event>
<event>
 4    1  0.4918322E-002  0.5249603E+03  0.7818608E-02  0.1007462E+00
         21   -1    0    0  503  502  0.00000000000E+00  0.00000000000E+00  0.51346199271E+03  0.51346199271E+03  0.00000000000E+00 0.  1.
         21   -1    0    0  501  503 -0.00000000000E+00 -0.00000000000E+00 -0.66467853535E+03  0.66467853535E+03  0.00000000000E+00 0. -1.
    9000007    1    1    2  501    0 -0.32953440639E+03  0.83608576299E+02 -0.33407373405E+03  0.62224479010E+03  0.40000000000E+03 0. -1.
   -9000007    1    1    2    0  502  0.32953440639E+03 -0.83608576299E+02  0.18285719141E+03  0.55589573796E+03  0.40000000000E+03 0.  1.
<mgrwt>
<rscale>  2 0.52496030E+03</rscale>
<asrwt>0</asrwt>
<pdfrwt beam="1">  1       21 0.78994152E-01 0.52496030E+03</pdfrwt>
<pdfrwt beam="2">  1       21 0.10225824E+00 0.52496030E+03</pdfrwt>
<totfact> 0.90851870E+02</totfact>
</mgrwt>
</event>
<event>
 4    1  0.4918322E-002  0.4273763E+03  0.7818608E-02  0.1034692E+00
         21   -1    0    0  503  502  0.00000000000E+00  0.00000000000E+00  0.16485207827E+03  0.16485207827E+03  0.00000000000E+00 0. -1.
         21   -1    0    0  501  503 -0.00000000000E+00 -0.00000000000E+00 -0.11414944472E+04  0.11414944472E+04  0.00000000000E+00 0. -1.
    9000007    1    1    2  501    0  0.75596692003E+01 -0.15031085822E+03 -0.60026446332E+03  0.73686357531E+03  0.40000000000E+03 0. -1.
   -9000007    1    1    2    0  502 -0.75596692003E+01  0.15031085822E+03 -0.37637790565E+03  0.56948295019E+03  0.40000000000E+03 0. -1.
<mgrwt>
<rscale>  2 0.42737630E+03</rscale>
<asrwt>0</asrwt>
<pdfrwt beam="1">  1       21 0.25361859E-01 0.42737630E+03</pdfrwt>
<pdfrwt beam="2">  1       21 0.17561453E+00 0.42737630E+03</pdfrwt>
<totfact> 0.24784402E+03</totfact>
</mgrwt>
</event>
<event>
 4    1  0.4918322E-002  0.4751421E+03  0.7818608E-02  0.1020479E+00
         21   -1    0    0  503  502  0.00000000000E+00  0.00000000000E+00  0.58450255966E+03  0.58450255966E+03  0.00000000000E+00 0.  1.
         21   -1    0    0  501  503 -0.00000000000E+00 -0.00000000000E+00 -0.50954783379E+03  0.50954783379E+03  0.00000000000E+00 0.  1.
    9000007    1    1    2  501    0  0.15042328223E+02  0.25599555554E+03  0.30657196169E+03  0.56546119565E+03  0.40000000000E+03 0.  1.
   -9000007    1    1    2    0  502 -0.15042328223E+02 -0.25599555554E+03 -0.23161723583E+03  0.52858919780E+03  0.40000000000E+03 0.  1.
<mgrwt>
<rscale>  2 0.47514208E+03</rscale>
<asrwt>0</asrwt>
<pdfrwt beam="1">  1       21 0.89923470E-01 0.47514208E+03</pdfrwt>
<pdfrwt beam="2">  1       21 0.78391975E-01 0.47514208E+03</pdfrwt>
<totfact> 0.12837014E+03</totfact>
</mgrwt>
</event>
<event>
 4    1  0.4918322E-002  0.8309339E+03  0.7818608E-02  0.9516290E-01
         21   -1    0    0  501  502  0.00000000000E+00  0.00000000000E+00  0.60838620091E+03  0.60838620091E+03  0.00000000000E+00 0.  1.
         21   -1    0    0  502  503 -0.00000000000E+00 -0.00000000000E+00 -0.21169443843E+04  0.21169443843E+04  0.00000000000E+00 0. -1.
    9000007    1    1    2  501    0  0.20741016695E+03  0.69816336944E+03  0.17383713571E+03  0.84892309282E+03  0.40000000000E+03 0.  1.
   -9000007    1    1    2    0  503 -0.20741016695E+03 -0.69816336944E+03 -0.16823953191E+04  0.18764074924E+04  0.40000000000E+03 0. -1.
<mgrwt>
<rscale>  2 0.83093385E+03</rscale>
<asrwt>0</asrwt>
<pdfrwt beam="1">  1       21 0.93597874E-01 0.83093385E+03</pdfrwt>
<pdfrwt beam="2">  1       21 0.32568376E+00 0.83093385E+03</pdfrwt>
<totfact> 0.14063769E+01</totfact>
</mgrwt>
</event>
<event>
 4    1  0.4918322E-002  0.6092099E+03  0.7818608E-02  0.9886481E-01
         21   -1    0    0  501  502  0.00000000000E+00  0.00000000000E+00  0.20202629148E+03  0.20202629148E+03  0.00000000000E+00 0.  1.
         21   -1    0    0  502  503 -0.00000000000E+00 -0.00000000000E+00 -0.18375040133E+04  0.18375040133E+04  0.00000000000E+00 0. -1.
    9000007    1    1    2  501    0  0.45921238548E+03 -0.16145067303E+02 -0.83338997073E+03  0.10323156114E+04  0.40000000000E+03 0. -1.
   -9000007    1    1    2    0  503 -0.45921238548E+03  0.16145067303E+02 -0.80208775109E+03  0.10072146934E+04  0.40000000000E+03 0.  1.
<mgrwt>
<rscale>  2 0.60920988E+03</rscale>
<asrwt>0</asrwt>
<pdfrwt beam="1">  1       21 0.31080967E-01 0.60920988E+03</pdfrwt>
<pdfrwt beam="2">  1       21 0.28269293E+00 0.60920988E+03</pdfrwt>
<totfact> 0.31455974E+02</totfact>
</mgrwt>
</event>
<event>
 4    1  0.4918322E-002  0.5700262E+03  0.7818608E-02  0.9969621E-01
         21   -1    0    0  503  502  0.00000000000E+00  0.00000000000E+00  0.84338094837E+03  0.84338094837E+03  0.00000000000E+00 0.  1.
         21   -1    0    0  501  503 -0.00000000000E+00 -0.00000000000E+00 -0.76989038723E+03  0.76989038723E+03  0.00000000000E+00 0.  1.
    9000007    1    1    2  501    0  0.18802456823E+03 -0.35996755852E+03 -0.53339114224E+03  0.78066381501E+03  0.40000000000E+03 0.  1.
   -9000007    1    1    2    0  502 -0.18802456823E+03  0.35996755852E+03  0.60688170339E+03  0.83260752059E+03  0.40000000000E+03 0.  1.
<mgrwt>
<rscale>  2 0.57002621E+03</rscale>
<asrwt>0</asrwt>
<pdfrwt beam="1">  1       21 0.12975091E+00 0.57002621E+03</pdfrwt>
<pdfrwt beam="2">  1       21 0.11844468E+00 0.57002621E+03</pdfrwt>
<totfact> 0.18336322E+02</totfact>
</mgrwt>
</event>
<event>
 4    1  0.4918322E-002  0.4044504E+03  0.7818608E-02  0.1042249E+00
         21   -1    0    0  501  502  0.00000000000E+00  0.00000000000E+00  0.35189604138E+03  0.35189604138E+03  0.00000000000E+00 0.  1.
         21   -1    0    0  502  503 -0.00000000000E+00 -0.00000000000E+00 -0.55671032630E+03  0.55671032630E+03  0.00000000000E+00 0.  1.
    9000007    1    1    2  501    0  0.45994713971E+02  0.38270076250E+02  0.82131286886E+02  0.41270529526E+03  0.40000000000E+03 0.  1.
   -9000007    1    1    2    0  503 -0.45994713971E+02 -0.38270076250E+02 -0.28694557181E+03  0.49590107242E+03  0.40000000000E+03 0.  1.
<mgrwt>
<rscale>  2 0.40445038E+03</rscale>
<asrwt>0</asrwt>
<pdfrwt beam="1">  1       21 0.54137853E-01 0.40445038E+03</pdfrwt>
<pdfrwt beam="2">  1       21 0.85647742E-01 0.40445038E+03</pdfrwt>
<totfact> 0.33686918E+03</totfact>
</mgrwt>
</event>
<event>
 4    1  0.4918322E-002  0.4138806E+03  0.7818608E-02  0.1039077E+00
         21   -1    0    0  501  502  0.00000000000E+00  0.00000000000E+00  0.14947857674E+04  0.14947857674E+04  0.00000000000E+00 0. -1.
         21   -1    0    0  502  503 -0.00000000000E+00 -0.00000000000E+00 -0.11749533205E+03  0.11749533205E+03  0.00000000000E+00 0. -1.
    9000007    1    1    2  501    0  0.34880108177E+02  0.10040200221E+03  0.56202191080E+03  0.69797264432E+03  0.40000000000E+03 0.  1.
   -9000007    1    1    2    0  503 -0.34880108177E+02 -0.10040200221E+03  0.81526852454E+03  0.91430845512E+03  0.40000000000E+03 0.  1.
<mgrwt>
<rscale>  2 0.41388064E+03</rscale>
<asrwt>0</asrwt>
<pdfrwt beam="1">  1       21 0.22996703E+00 0.41388064E+03</pdfrwt>
<pdfrwt beam="2">  1       21 0.18076206E-01 0.41388064E+03</pdfrwt>
<totfact> 0.20771951E+03</totfact>
</mgrwt>
</event>
<event>
 4    1  0.4918322E-002  0.4297264E+03  0.7818608E-02  0.1033946E+00
         21   -1    0    0  503  502  0.00000000000E+00  0.00000000000E+00  0.93206520637E+03  0.93206520637E+03  0.00000000000E+00 0.  1.
         21   -1    0    0  501  503 -0.00000000000E+00 -0.00000000000E+00 -0.20012705904E+03  0.20012705904E+03  0.00000000000E+00 0.  1.
    9000007    1    1    2  501    0 -0.11075716700E+03 -0.11134467475E+03  0.30933871706E+03  0.52948581521E+03  0.40000000000E+03 0.  1.
   -9000007    1    1    2    0  502  0.11075716700E+03  0.11134467475E+03  0.42259943028E+03  0.60270645019E+03  0.40000000000E+03 0.  1.
<mgrwt>
<rscale>  2 0.42972641E+03</rscale>
<asrwt>0</asrwt>
<pdfrwt beam="1">  1       21 0.14339464E+00 0.42972641E+03</pdfrwt>
<pdfrwt beam="2">  1       21 0.30788779E-01 0.42972641E+03</pdfrwt>
<totfact> 0.29649158E+03</totfact>
</mgrwt>
</event>
<event>
 4    1  0.4918322E-002  0.4099668E+03  0.7818608E-02  0.1040382E+00
         21   -1    0    0  501  502  0.00000000000E+00  0.00000000000E+00  0.28516980842E+03  0.28516980842E+03  0.00000000000E+00 0. -1.
         21   -1    0    0  502  503 -0.00000000000E+00 -0.00000000000E+00 -0.12702099048E+04  0.12702099048E+04  0.00000000000E+00 0. -1.
    9000007    1    1    2  501    0  0.89823853071E+02 -0.21162859556E+01  0.76842171183E+02  0.41710612860E+03  0.40000000000E+03 0. -1.
   -9000007    1    1    2    0  503 -0.89823853071E+02  0.21162859556E+01 -0.10618822676E+04  0.11382735846E+04  0.40000000000E+03 0. -1.
<mgrwt>
<rscale>  2 0.40996683E+03</rscale>
<asrwt>0</asrwt>
<pdfrwt beam="1">  1       21 0.43872279E-01 0.40996683E+03</pdfrwt>
<pdfrwt beam="2">  1       21 0.19541691E+00 0.40996683E+03</pdfrwt>
<totfact> 0.60553137E+02</totfact>
</mgrwt>
</event>
<event>
 4    1  0.4918322E-002  0.4669716E+03  0.7818608E-02  0.1022778E+00
         21   -1    0    0  503  502  0.00000000000E+00  0.00000000000E+00  0.16565000984E+04  0.16565000984E+04  0.00000000000E+00 0. -1.
         21   -1    0    0  501  503 -0.00000000000E+00 -0.00000000000E+00 -0.13781885445E+03  0.13781885445E+03  0.00000000000E+00 0.  1.
    9000007    1    1    2  501    0 -0.74506836294E+02 -0.22915333390E+03  0.56938534568E+03  0.73638454014E+03  0.40000000000E+03 0.  1.
   -9000007    1    1    2    0  502  0.74506836294E+02  0.22915333390E+03  0.94929589827E+03  0.10579344127E+04  0.40000000000E+03 0. -1.
<mgrwt>
<rscale>  2 0.46697165E+03</rscale>
<asrwt>0</asrwt>
<pdfrwt beam="1">  1       21 0.25484615E+00 0.46697165E+03</pdfrwt>
<pdfrwt beam="2">  1       21 0.21202902E-01 0.46697165E+03</pdfrwt>
<totfact> 0.10490317E+03</totfact>
</mgrwt>
</event>
<event>
 4    1  0.4918322E-002  0.5321629E+03  0.7818608E-02  0.1005709E+00
         21   -1    0    0  501  502  0.00000000000E+00  0.00000000000E+00  0.14048536630E+04  0.14048536630E+04  0.00000000000E+00 0.  1.
         21   -1    0    0  502  503 -0.00000000000E+00 -0.00000000000E+00 -0.98941360488E+03  0.98941360488E+03  0.00000000000E+00 0. -1.
    9000007    1    1    2  501    0  0.12689073342E+03  0.32725535862E+03  0.12759618728E+04  0.13824890700E+04  0.40000000000E+03 0.  1.
   -9000007    1    1    2    0  503 -0.12689073342E+03 -0.32725535862E+03 -0.86052181470E+03  0.10117781978E+04  0.40000000000E+03 0. -1.
<mgrwt>
<rscale>  2 0.53216288E+03</rscale>
<asrwt>0</asrwt>
<pdfrwt beam="1">  1       21 0.21613133E+00 0.53216288E+03</pdfrwt>
<pdfrwt beam="2">  1       21 0.15221748E+00 0.53216288E+03</pdfrwt>
<totfact> 0.22179945E+01</totfact>
</mgrwt>
</event>
<event>
 4    1  0.4918322E-002  0.4704657E+03  0.7818608E-02  0.1021789E+00
         21   -1    0    0  501  502  0.00000000000E+00  0.00000000000E+00  0.55954230298E+03  0.55954230298E+03  0.00000000000E+00 0. -1.
         21   -1    0    0  502  503 -0.00000000000E+00 -0.00000000000E+00 -0.41706359796E+03  0.41706359796E+03  0.00000000000E+00 0. -1.
    9000007    1    1    2  501    0 -0.11634842202E+03  0.21863434862E+03  0.18209214800E+03  0.50447545438E+03  0.40000000000E+03 0. -1.
   -9000007    1    1    2    0  503  0.11634842202E+03 -0.21863434862E+03 -0.39613442986E+02  0.47213044656E+03  0.40000000000E+03 0. -1.
<mgrwt>
<rscale>  2 0.47046566E+03</rscale>
<asrwt>0</asrwt>
<pdfrwt beam="1">  1       21 0.86083431E-01 0.47046566E+03</pdfrwt>
<pdfrwt beam="2">  1       21 0.64163630E-01 0.47046566E+03</pdfrwt>
<totfact> 0.22416362E+03</totfact>
</mgrwt>
</event>
<event>
 4    1  0.4918322E-002  0.4316462E+03  0.7818608E-02  0.1033341E+00
         21   -1    0    0  501  502  0.00000000000E+00  0.00000000000E+00  0.54054457730E+03  0.54054457730E+03  0.00000000000E+00 0.  1.
         21   -1    0    0  502  503 -0.00000000000E+00 -0.00000000000E+00 -0.42439899497E+03  0.42439899497E+03  0.00000000000E+00 0.  1.
    9000007    1    1    2  501    0 -0.15814153722E+03 -0.36189938245E+02  0.26716976779E+03  0.50763977607E+03  0.40000000000E+03 0.  1.
   -9000007    1    1    2    0  503  0.15814153722E+03  0.36189938245E+02 -0.15102418546E+03  0.45730379620E+03  0.40000000000E+03 0.  1.
<mgrwt>
<rscale>  2 0.43164622E+03</rscale>
<asrwt>0</asrwt>
<pdfrwt beam="1">  1       21 0.83160704E-01 0.43164622E+03</pdfrwt>
<pdfrwt beam="2">  1       21 0.65292153E-01 0.43164622E+03</pdfrwt>
<totfact> 0.23714554E+03</totfact>
</mgrwt>
</event>
<event>
 4    1  0.4918322E-002  0.4114150E+03  0.7818608E-02  0.1039897E+00
         21   -1    0    0  503  502  0.00000000000E+00  0.00000000000E+00  0.98912660252E+03  0.98912660252E+03  0.00000000000E+00 0. -1.
         21   -1    0    0  501  503 -0.00000000000E+00 -0.00000000000E+00 -0.17667732784E+03  0.17667732784E+03  0.00000000000E+00 0. -1.
    9000007    1    1    2  501    0 -0.11534898435E+01 -0.96233925749E+02  0.30287204804E+03  0.51087549999E+03  0.40000000000E+03 0. -1.
   -9000007    1    1    2    0  502  0.11534898435E+01  0.96233925749E+02  0.50957722664E+03  0.65492843037E+03  0.40000000000E+03 0. -1.
<mgrwt>
<rscale>  2 0.41141500E+03</rscale>
<asrwt>0</asrwt>
<pdfrwt beam="1">  1       21 0.15217332E+00 0.41141500E+03</pdfrwt>
<pdfrwt beam="2">  1       21 0.27181128E-01 0.41141500E+03</pdfrwt>
<totfact> 0.32548899E+03</totfact>
</mgrwt>
</event>
<event>
 4    1  0.4918322E-002  0.4883304E+03  0.7818608E-02  0.1016871E+00
         21   -1    0    0  501  502  0.00000000000E+00  0.00000000000E+00  0.32669415966E+03  0.32669415966E+03  0.00000000000E+00 0. -1.
         21   -1    0    0  502  503 -0.00000000000E+00 -0.00000000000E+00 -0.87322339212E+03  0.87322339212E+03  0.00000000000E+00 0. -1.
    9000007    1    1    2  501    0 -0.22698735781E+03  0.16414426232E+03 -0.30235033677E+02  0.48926552782E+03  0.40000000000E+03 0. -1.
   -9000007    1    1    2    0  503  0.22698735781E+03 -0.16414426232E+03 -0.51629419878E+03  0.71065202395E+03  0.40000000000E+03 0. -1.
<mgrwt>
<rscale>  2 0.48833042E+03</rscale>
<asrwt>0</asrwt>
<pdfrwt beam="1">  1       21 0.50260640E-01 0.48833042E+03</pdfrwt>
<pdfrwt beam="2">  1       21 0.13434206E+00 0.48833042E+03</pdfrwt>
<totfact> 0.12568538E+03</totfact>
</mgrwt>
</event>
<event>
 4    1  0.4918322E-002  0.5431976E+03  0.7818608E-02  0.1003081E+00
         21   -1    0    0  501  502  0.00000000000E+00  0.00000000000E+00  0.53753654619E+03  0.53753654619E+03  0.00000000000E+00 0.  1.
         21   -1    0    0  502  503 -0.00000000000E+00 -0.00000000000E+00 -0.63793228992E+03  0.63793228992E+03  0.00000000000E+00 0.  1.
    9000007    1    1    2  501    0 -0.15116420004E+03 -0.33498215216E+03  0.16934680811E+03  0.56898330297E+03  0.40000000000E+03 0.  1.
   -9000007    1    1    2    0  503  0.15116420004E+03  0.33498215216E+03 -0.26974255183E+03  0.60648553314E+03  0.40000000000E+03 0.  1.
<mgrwt>
<rscale>  2 0.54319762E+03</rscale>
<asrwt>0</asrwt>
<pdfrwt beam="1">  1       21 0.82697930E-01 0.54319762E+03</pdfrwt>
<pdfrwt beam="2">  1       21 0.98143429E-01 0.54319762E+03</pdfrwt>
<totfact> 0.89725525E+02</totfact>
</mgrwt>
</event>
<event>
 4    1  0.4918322E-002  0.4817261E+03  0.7818608E-02  0.1018662E+00
         21   -1    0    0  503  502  0.00000000000E+00  0.00000000000E+00  0.55015228943E+03  0.55015228943E+03  0.00000000000E+00 0. -1.
         21   -1    0    0  501  503 -0.00000000000E+00 -0.00000000000E+00 -0.50808201159E+03  0.50808201159E+03  0.00000000000E+00 0.  1.
    9000007    1    1    2  501    0 -0.59500144218E+02  0.26176272780E+03 -0.19699609965E+03  0.52044928293E+03  0.40000000000E+03 0.  1.
   -9000007    1    1    2    0  502  0.59500144218E+02 -0.26176272780E+03  0.23906637749E+03  0.53778501808E+03  0.40000000000E+03 0. -1.
<mgrwt>
<rscale>  2 0.48172606E+03</rscale>
<asrwt>0</asrwt>
<pdfrwt beam="1">  1       21 0.84638814E-01 0.48172606E+03</pdfrwt>
<pdfrwt beam="2">  1       21 0.78166463E-01 0.48172606E+03</pdfrwt>
<totfact> 0.14868388E+03</totfact>
</mgrwt>
</event>
<event>
 4    1  0.4918322E-002  0.4971888E+03  0.7818608E-02  0.1014515E+00
         21   -1    0    0  503  502  0.00000000000E+00  0.00000000000E+00  0.48786734062E+03  0.48786734062E+03  0.00000000000E+00 0.  1.
         21   -1    0    0  501  503 -0.00000000000E+00 -0.00000000000E+00 -0.54766786322E+03  0.54766786322E+03  0.00000000000E+00 0.  1.
    9000007    1    1    2  501    0 -0.69451560455E-01  0.29529095014E+03  0.11173098397E+03  0.50958862118E+03  0.40000000000E+03 0.  1.
   -9000007    1    1    2    0  502  0.69451560455E-01 -0.29529095014E+03 -0.17153150658E+03  0.52594658266E+03  0.40000000000E+03 0.  1.
<mgrwt>
<rscale>  2 0.49718885E+03</rscale>
<asrwt>0</asrwt>
<pdfrwt beam="1">  1       21 0.75056514E-01 0.49718885E+03</pdfrwt>
<pdfrwt beam="2">  1       21 0.84256595E-01 0.49718885E+03</pdfrwt>
<totfact> 0.16403531E+03</totfact>
</mgrwt>
</event>
<event>
 4    1  0.4918322E-002  0.7321140E+03  0.7818608E-02  0.9663836E-01
         21   -1    0    0  501  502  0.00000000000E+00  0.00000000000E+00  0.45302934874E+03  0.45302934874E+03  0.00000000000E+00 0. -1.
         21   -1    0    0  502  503 -0.00000000000E+00 -0.00000000000E+00 -0.13796298517E+04  0.13796298517E+04  0.00000000000E+00 0.  1.
    9000007    1    1    2  501    0  0.48347943016E+03  0.37714533027E+03 -0.11747589930E+03  0.74147929604E+03  0.40000000000E+03 0. -1.
   -9000007    1    1    2    0  503 -0.48347943016E+03 -0.37714533027E+03 -0.80912460370E+03  0.10911799044E+04  0.40000000000E+03 0.  1.
<mgrwt>
<rscale>  2 0.73211403E+03</rscale>
<asrwt>0</asrwt>
<pdfrwt beam="1">  1       21 0.69696823E-01 0.73211403E+03</pdfrwt>
<pdfrwt beam="2">  1       21 0.21225075E+00 0.73211403E+03</pdfrwt>
<totfact> 0.14975701E+02</totfact>
</mgrwt>
</event>
<event>
 4    1  0.4918322E-002  0.4658635E+03  0.7818608E-02  0.1023094E+00
         21   -1    0    0  503  502  0.00000000000E+00  0.00000000000E+00  0.24764899837E+03  0.24764899837E+03  0.00000000000E+00 0.  1.
         21   -1    0    0  501  503 -0.00000000000E+00 -0.00000000000E+00 -0.25727523953E+04  0.25727523953E+04  0.00000000000E+00 0. -1.
    9000007    1    1    2  501    0  0.22294200563E+03  0.85590100078E+02 -0.23076572999E+04  0.23542113365E+04  0.40000000000E+03 0. -1.
   -9000007    1    1    2    0  502 -0.22294200563E+03 -0.85590100078E+02 -0.17446097040E+02  0.46619005717E+03  0.40000000000E+03 0.  1.
<mgrwt>
<rscale>  2 0.46586350E+03</rscale>
<asrwt>0</asrwt>
<pdfrwt beam="1">  1       21 0.38099847E-01 0.46586350E+03</pdfrwt>
<pdfrwt beam="2">  1       21 0.39580805E+00 0.46586350E+03</pdfrwt>
<totfact> 0.45102130E+01</totfact>
</mgrwt>
</event>
<event>
 4    1  0.4918322E-002  0.5484073E+03  0.7818608E-02  0.1001863E+00
         21   -1    0    0  503  502  0.00000000000E+00  0.00000000000E+00  0.11080196221E+04  0.11080196221E+04  0.00000000000E+00 0. -1.
         21   -1    0    0  501  503 -0.00000000000E+00 -0.00000000000E+00 -0.59044443483E+03  0.59044443483E+03  0.00000000000E+00 0. -1.
    9000007    1    1    2  501    0 -0.31539458648E+03  0.20316705575E+03 -0.36543790453E+03  0.65901097092E+03  0.40000000000E+03 0. -1.
   -9000007    1    1    2    0  502  0.31539458648E+03 -0.20316705575E+03  0.88301309181E+03  0.10394530860E+04  0.40000000000E+03 0. -1.
<mgrwt>
<rscale>  2 0.54840733E+03</rscale>
<asrwt>0</asrwt>
<pdfrwt beam="1">  1       21 0.17046456E+00 0.54840733E+03</pdfrwt>
<pdfrwt beam="2">  1       21 0.90837606E-01 0.54840733E+03</pdfrwt>
<totfact> 0.16863122E+02</totfact>
</mgrwt>
</event>
<event>
 4    1  0.4918322E-002  0.4111323E+03  0.7818608E-02  0.1039992E+00
         21   -1    0    0  501  502  0.00000000000E+00  0.00000000000E+00  0.52931058689E+03  0.52931058689E+03  0.00000000000E+00 0. -1.
         21   -1    0    0  502  503 -0.00000000000E+00 -0.00000000000E+00 -0.47395421476E+03  0.47395421476E+03  0.00000000000E+00 0.  1.
    9000007    1    1    2  501    0  0.94749672850E+02  0.72318849568E+01  0.31419013402E+03  0.51744105073E+03  0.40000000000E+03 0. -1.
   -9000007    1    1    2    0  503 -0.94749672850E+02 -0.72318849568E+01 -0.25883376189E+03  0.48582375092E+03  0.40000000000E+03 0.  1.
<mgrwt>
<rscale>  2 0.41113234E+03</rscale>
<asrwt>0</asrwt>
<pdfrwt beam="1">  1       21 0.81432398E-01 0.41113234E+03</pdfrwt>
<pdfrwt beam="2">  1       21 0.72916033E-01 0.41113234E+03</pdfrwt>
<totfact> 0.19594039E+03</totfact>
</mgrwt>
</event>
<event>
 4    1  0.4918322E-002  0.4096421E+03  0.7818608E-02  0.1040491E+00
         21   -1    0    0  501  502  0.00000000000E+00  0.00000000000E+00  0.40664985806E+03  0.40664985806E+03  0.00000000000E+00 0. -1.
         21   -1    0    0  502  503 -0.00000000000E+00 -0.00000000000E+00 -0.42528249786E+03  0.42528249786E+03  0.00000000000E+00 0. -1.
    9000007    1    1    2  501    0 -0.83474868050E+02 -0.28958806759E+02  0.62356395315E+02  0.41436093701E+03  0.40000000000E+03 0. -1.
   -9000007    1    1    2    0  503  0.83474868050E+02  0.28958806759E+02 -0.80989035118E+02  0.41757141891E+03  0.40000000000E+03 0. -1.
<mgrwt>
<rscale>  2 0.40964212E+03</rscale>
<asrwt>0</asrwt>
<pdfrwt beam="1">  1       21 0.62561517E-01 0.40964212E+03</pdfrwt>
<pdfrwt beam="2">  1       21 0.65428076E-01 0.40964212E+03</pdfrwt>
<totfact> 0.45308647E+03</totfact>
</mgrwt>
</event>
<event>
 4    1  0.4918322E-002  0.4203981E+03  0.7818608E-02  0.1036937E+00
         21   -1    0    0  503  502  0.00000000000E+00  0.00000000000E+00  0.41811240546E+03  0.41811240546E+03  0.00000000000E+00 0.  1.
         21   -1    0    0  501  503 -0.00000000000E+00 -0.00000000000E+00 -0.45319031821E+03  0.45319031821E+03  0.00000000000E+00 0.  1.
    9000007    1    1    2  501    0 -0.10600670202E+03  0.74142759478E+02 -0.13054613776E+03  0.44020093564E+03  0.40000000000E+03 0.  1.
   -9000007    1    1    2    0  502  0.10600670202E+03 -0.74142759478E+02  0.95468225004E+02  0.43110178803E+03  0.40000000000E+03 0.  1.
<mgrwt>
<rscale>  2 0.42039811E+03</rscale>
<asrwt>0</asrwt>
<pdfrwt beam="1">  1       21 0.64324986E-01 0.42039811E+03</pdfrwt>
<pdfrwt beam="2">  1       21 0.69721587E-01 0.42039811E+03</pdfrwt>
<totfact> 0.36826936E+03</totfact>
</mgrwt>
</event>
<event>
 4    1  0.4918322E-002  0.4313521E+03  0.7818608E-02  0.1033434E+00
         21   -1    0    0  501  502  0.00000000000E+00  0.00000000000E+00  0.60904815772E+03  0.60904815772E+03  0.00000000000E+00 0. -1.
         21   -1    0    0  502  503 -0.00000000000E+00 -0.00000000000E+00 -0.34881339660E+03  0.34881339660E+03  0.00000000000E+00 0.  1.
    9000007    1    1    2  501    0 -0.71362649462E+00  0.16144396258E+03  0.29888284709E+03  0.52478149605E+03  0.40000000000E+03 0. -1.
   -9000007    1    1    2    0  503  0.71362649462E+00 -0.16144396258E+03 -0.38648085979E+02  0.43308005826E+03  0.40000000000E+03 0.  1.
<mgrwt>
<rscale>  2 0.43135213E+03</rscale>
<asrwt>0</asrwt>
<pdfrwt beam="1">  1       21 0.93699717E-01 0.43135213E+03</pdfrwt>
<pdfrwt beam="2">  1       21 0.53663599E-01 0.43135213E+03</pdfrwt>
<totfact> 0.27481212E+03</totfact>
</mgrwt>
</event>
<event>
 4    1  0.4918322E-002  0.4157946E+03  0.7818608E-02  0.1038444E+00
         21   -1    0    0  503  502  0.00000000000E+00  0.00000000000E+00  0.59491041662E+03  0.59491041662E+03  0.00000000000E+00 0.  1.
         21   -1    0    0  501  503 -0.00000000000E+00 -0.00000000000E+00 -0.33329079652E+03  0.33329079652E+03  0.00000000000E+00 0.  1.
    9000007    1    1    2  501    0 -0.11136424412E+03 -0.21980745264E+02 -0.35275741856E+02  0.41728830081E+03  0.40000000000E+03 0.  1.
   -9000007    1    1    2    0  502  0.11136424412E+03  0.21980745264E+02  0.29689536195E+03  0.51091291232E+03  0.40000000000E+03 0.  1.
<mgrwt>
<rscale>  2 0.41579460E+03</rscale>
<asrwt>0</asrwt>
<pdfrwt beam="1">  1       21 0.91524679E-01 0.41579460E+03</pdfrwt>
<pdfrwt beam="2">  1       21 0.51275507E-01 0.41579460E+03</pdfrwt>
<totfact> 0.32222977E+03</totfact>
</mgrwt>
</event>
<event>
 4    1  0.4918322E-002  0.6752420E+03  0.7818608E-02  0.9760534E-01
         21   -1    0    0  503  502  0.00000000000E+00  0.00000000000E+00  0.30103177711E+03  0.30103177711E+03  0.00000000000E+00 0. -1.
         21   -1    0    0  501  503 -0.00000000000E+00 -0.00000000000E+00 -0.15330217332E+04  0.15330217332E+04  0.00000000000E+00 0. -1.
    9000007    1    1    2  501    0  0.47728281776E+03 -0.26106101559E+03 -0.51555192429E+03  0.84955607739E+03  0.40000000000E+03 0. -1.
   -9000007    1    1    2    0  502 -0.47728281776E+03  0.26106101559E+03 -0.71643803177E+03  0.98449743289E+03  0.40000000000E+03 0. -1.
<mgrwt>
<rscale>  2 0.67524199E+03</rscale>
<asrwt>0</asrwt>
<pdfrwt beam="1">  1       21 0.46312581E-01 0.67524199E+03</pdfrwt>
<pdfrwt beam="2">  1       21 0.23584950E+00 0.67524199E+03</pdfrwt>
<totfact> 0.26325574E+02</totfact>
</mgrwt>
</event>
<event>
 4    1  0.4918322E-002  0.6195174E+03  0.7818608E-02  0.9865721E-01
         21   -1    0    0  501  502  0.00000000000E+00  0.00000000000E+00  0.37611682566E+03  0.37611682566E+03  0.00000000000E+00 0. -1.
         21   -1    0    0  502  503 -0.00000000000E+00 -0.00000000000E+00 -0.10206347185E+04  0.10206347185E+04  0.00000000000E+00 0. -1.
    9000007    1    1    2  501    0 -0.44149103903E+03 -0.16996330263E+03 -0.31243057830E+03  0.69384056385E+03  0.40000000000E+03 0. -1.
   -9000007    1    1    2    0  503  0.44149103903E+03  0.16996330263E+03 -0.33208731455E+03  0.70291098033E+03  0.40000000000E+03 0. -1.
<mgrwt>
<rscale>  2 0.61951744E+03</rscale>
<asrwt>0</asrwt>
<pdfrwt beam="1">  1       21 0.57864127E-01 0.61951744E+03</pdfrwt>
<pdfrwt beam="2">  1       21 0.15702072E+00 0.61951744E+03</pdfrwt>
<totfact> 0.58042201E+02</totfact>
</mgrwt>
</event>
<event>
 4    1  0.4918322E-002  0.4311872E+03  0.7818608E-02  0.1033486E+00
         21   -1    0    0  501  502  0.00000000000E+00  0.00000000000E+00  0.45126559661E+03  0.45126559661E+03  0.00000000000E+00 0.  1.
         21   -1    0    0  502  503 -0.00000000000E+00 -0.00000000000E+00 -0.41267934559E+03  0.41267934559E+03  0.00000000000E+00 0. -1.
    9000007    1    1    2  501    0 -0.16014082170E+03  0.16653048103E+02  0.36791556814E+02  0.43275400107E+03  0.40000000000E+03 0.  1.
   -9000007    1    1    2    0  503  0.16014082170E+03 -0.16653048103E+02  0.17946941993E+01  0.43119094113E+03  0.40000000000E+03 0.  1.
<mgrwt>
<rscale>  2 0.43118721E+03</rscale>
<asrwt>0</asrwt>
<pdfrwt beam="1">  1       21 0.69425476E-01 0.43118721E+03</pdfrwt>
<pdfrwt beam="2">  1       21 0.63489130E-01 0.43118721E+03</pdfrwt>
<totfact> 0.38123915E+03</totfact>
</mgrwt>
</event>
<event>
 4    1  0.4918322E-002  0.4135423E+03  0.7818608E-02  0.1039189E+00
         21   -1    0    0  503  502  0.00000000000E+00  0.00000000000E+00  0.11506241538E+04  0.11506241538E+04  0.00000000000E+00 0.  1.
         21   -1    0    0  501  503 -0.00000000000E+00 -0.00000000000E+00 -0.18917486392E+03  0.18917486392E+03  0.00000000000E+00 0.  1.
    9000007    1    1    2  501    0 -0.59840864114E+02 -0.86234028975E+02  0.17059304968E+03  0.44734687366E+03  0.40000000000E+03 0.  1.
   -9000007    1    1    2    0  502  0.59840864114E+02  0.86234028975E+02  0.79085624017E+03  0.89245214403E+03  0.40000000000E+03 0.  1.
<mgrwt>
<rscale>  2 0.41354230E+03</rscale>
<asrwt>0</asrwt>
<pdfrwt beam="1">  1       21 0.17701910E+00 0.41354230E+03</pdfrwt>
<pdfrwt beam="2">  1       21 0.29103826E-01 0.41354230E+03</pdfrwt>
<totfact> 0.18601917E+03</totfact>
</mgrwt>
</event>
<event>
 4    1  0.4918322E-002  0.4695523E+03  0.7818608E-02  0.1022047E+00
         21   -1    0    0  503  502  0.00000000000E+00  0.00000000000E+00  0.14710178883E+04  0.14710178883E+04  0.00000000000E+00 0.  1.
         21   -1    0    0  501  503 -0.00000000000E+00 -0.00000000000E+00 -0.15012327328E+03  0.15012327328E+03  0.00000000000E+00 0. -1.
    9000007    1    1    2  501    0  0.22260584528E+03  0.10452754806E+03  0.62796419030E+03  0.78410356137E+03  0.40000000000E+03 0.  1.
   -9000007    1    1    2    0  502 -0.22260584528E+03 -0.10452754806E+03  0.69293042474E+03  0.83703760022E+03  0.40000000000E+03 0.  1.
<mgrwt>
<rscale>  2 0.46955231E+03</rscale>
<asrwt>0</asrwt>
<pdfrwt beam="1">  1       21 0.22631043E+00 0.46955231E+03</pdfrwt>
<pdfrwt beam="2">  1       21 0.23095889E-01 0.46955231E+03</pdfrwt>
<totfact> 0.13377085E+03</totfact>
</mgrwt>
</event>
<event>
 4    1  0.4918322E-002  0.4349050E+03  0.7818608E-02  0.1032322E+00
         21   -1    0    0  501  502  0.00000000000E+00  0.00000000000E+00  0.60856881615E+03  0.60856881615E+03  0.00000000000E+00 0. -1.
         21   -1    0    0  502  503 -0.00000000000E+00 -0.00000000000E+00 -0.69851917645E+03  0.69851917645E+03  0.00000000000E+00 0. -1.
    9000007    1    1    2  501    0  0.16592065841E+03  0.40158759753E+02  0.44193072001E+03  0.62003641196E+03  0.40000000000E+03 0. -1.
   -9000007    1    1    2    0  503 -0.16592065841E+03 -0.40158759753E+02 -0.53188108031E+03  0.68705158064E+03  0.40000000000E+03 0. -1.
<mgrwt>
<rscale>  2 0.43490504E+03</rscale>
<asrwt>0</asrwt>
<pdfrwt beam="1">  1       21 0.93625973E-01 0.43490504E+03</pdfrwt>
<pdfrwt beam="2">  1       21 0.10746449E+00 0.43490504E+03</pdfrwt>
<totfact> 0.55927324E+02</totfact>
</mgrwt>
</event>
<event>
 4    1  0.4918322E-002  0.4876330E+03  0.7818608E-02  0.1017058E+00
         21   -1    0    0  501  502  0.00000000000E+00  0.00000000000E+00  0.80475686157E+03  0.80475686157E+03  0.00000000000E+00 0.  1.
         21   -1    0    0  502  503 -0.00000000000E+00 -0.00000000000E+00 -0.31640570022E+03  0.31640570022E+03  0.00000000000E+00 0. -1.
    9000007    1    1    2  501    0 -0.12574204798E+02  0.27861769105E+03  0.38835498677E+03  0.62338232582E+03  0.40000000000E+03 0.  1.
   -9000007    1    1    2    0  503  0.12574204798E+02 -0.27861769105E+03  0.99996174577E+02  0.49778023597E+03  0.40000000000E+03 0. -1.
<mgrwt>
<rscale>  2 0.48763299E+03</rscale>
<asrwt>0</asrwt>
<pdfrwt beam="1">  1       21 0.12380875E+00 0.48763299E+03</pdfrwt>
<pdfrwt beam="2">  1       21 0.48677800E-01 0.48763299E+03</pdfrwt>
<totfact> 0.16635529E+03</totfact>
</mgrwt>
</event>
<event>
 4    1  0.4918322E-002  0.6140564E+03  0.7818608E-02  0.9876665E-01
         21   -1    0    0  503  502  0.00000000000E+00  0.00000000000E+00  0.58568676034E+03  0.58568676034E+03  0.00000000000E+00 0. -1.
         21   -1    0    0  501  503 -0.00000000000E+00 -0.00000000000E+00 -0.64528297575E+03  0.64528297575E+03  0.00000000000E+00 0. -1.
    9000007    1    1    2  501    0 -0.37336629549E+03 -0.27868063307E+03 -0.29471836857E+00  0.61405648984E+03  0.40000000000E+03 0. -1.
   -9000007    1    1    2    0  502  0.37336629549E+03  0.27868063307E+03 -0.59301497039E+02  0.61691324625E+03  0.40000000000E+03 0. -1.
<mgrwt>
<rscale>  2 0.61405642E+03</rscale>
<asrwt>0</asrwt>
<pdfrwt beam="1">  1       21 0.90105656E-01 0.61405642E+03</pdfrwt>
<pdfrwt beam="2">  1       21 0.99274304E-01 0.61405642E+03</pdfrwt>
<totfact> 0.69631733E+02</totfact>
</mgrwt>
</event>
<event>
 4    1  0.4918322E-002  0.4543402E+03  0.7818608E-02  0.1026436E+00
         21   -1    0    0  503  502  0.00000000000E+00  0.00000000000E+00  0.76473912890E+03  0.76473912890E+03  0.00000000000E+00 0. -1.
         21   -1    0    0  501  503 -0.00000000000E+00 -0.00000000000E+00 -0.40952047084E+03  0.40952047084E+03  0.00000000000E+00 0. -1.
    9000007    1    1    2  501    0 -0.10891228888E+03 -0.18591155825E+03 -0.16517922734E+03  0.48343476427E+03  0.40000000000E+03 0. -1.
   -9000007    1    1    2    0  502  0.10891228888E+03  0.18591155825E+03  0.52039788540E+03  0.69082483546E+03  0.40000000000E+03 0. -1.
<mgrwt>
<rscale>  2 0.45434017E+03</rscale>
<asrwt>0</asrwt>
<pdfrwt beam="1">  1       21 0.11765217E+00 0.45434017E+03</pdfrwt>
<pdfrwt beam="2">  1       21 0.63003150E-01 0.45434017E+03</pdfrwt>
<totfact> 0.10980368E+03</totfact>
</mgrwt>
</event>
<event>
 4    1  0.4918322E-002  0.4471060E+03  0.7818608E-02  0.1028589E+00
         21   -1    0    0  501  502  0.00000000000E+00  0.00000000000E+00  0.20330884334E+04  0.20330884334E+04  0.00000000000E+00 0. -1.
         21   -1    0    0  502  503 -0.00000000000E+00 -0.00000000000E+00 -0.15421700317E+03  0.15421700317E+03  0.00000000000E+00 0. -1.
    9000007    1    1    2  501    0  0.12404070677E+03  0.15658127793E+03  0.15978320903E+04  0.16592079985E+04  0.40000000000E+03 0. -1.
   -9000007    1    1    2    0  503 -0.12404070677E+03 -0.15658127793E+03  0.28103934003E+03  0.52809743814E+03  0.40000000000E+03 0. -1.
<mgrwt>
<rscale>  2 0.44710602E+03</rscale>
<asrwt>0</asrwt>
<pdfrwt beam="1">  1       21 0.31278282E+00 0.44710602E+03</pdfrwt>
<pdfrwt beam="2">  1       21 0.23725694E-01 0.44710602E+03</pdfrwt>
<totfact> 0.38141558E+02</totfact>
</mgrwt>
</event>
<event>
 4    1  0.4918322E-002  0.4114328E+03  0.7818608E-02  0.1039891E+00
         21   -1    0    0  503  502  0.00000000000E+00  0.00000000000E+00  0.22108513247E+04  0.22108513247E+04  0.00000000000E+00 0.  1.
         21   -1    0    0  501  503 -0.00000000000E+00 -0.00000000000E+00 -0.77002128098E+02  0.77002128098E+02  0.00000000000E+00 0.  1.
    9000007    1    1    2  501    0 -0.20841597887E+02 -0.94034940534E+02  0.98087454165E+03  0.10636690316E+04  0.40000000000E+03 0. -1.
   -9000007    1    1    2    0  502  0.20841597887E+02  0.94034940534E+02  0.11529746550E+04  0.12241844213E+04  0.40000000000E+03 0. -1.
<mgrwt>
<rscale>  2 0.41143279E+03</rscale>
<asrwt>0</asrwt>
<pdfrwt beam="1">  1       21 0.34013092E+00 0.41143279E+03</pdfrwt>
<pdfrwt beam="2">  1       21 0.11846483E-01 0.41143279E+03</pdfrwt>
<totfact> 0.97806382E+02</totfact>
</mgrwt>
</event>
<event>
 4    1  0.4918322E-002  0.4221291E+03  0.7818608E-02  0.1036376E+00
         21   -1    0    0  503  502  0.00000000000E+00  0.00000000000E+00  0.72271710837E+03  0.72271710837E+03  0.00000000000E+00 0. -1.
         21   -1    0    0  501  503 -0.00000000000E+00 -0.00000000000E+00 -0.39849688901E+03  0.39849688901E+03  0.00000000000E+00 0.  1.
    9000007    1    1    2  501    0  0.52423417887E+02 -0.12427689195E+03 -0.18405077962E+03  0.46050803478E+03  0.40000000000E+03 0.  1.
   -9000007    1    1    2    0  502 -0.52423417887E+02  0.12427689195E+03  0.50827099898E+03  0.66070596261E+03  0.40000000000E+03 0. -1.
<mgrwt>
<rscale>  2 0.42212908E+03</rscale>
<asrwt>0</asrwt>
<pdfrwt beam="1">  1       21 0.11118725E+00 0.42212908E+03</pdfrwt>
<pdfrwt beam="2">  1       21 0.61307214E-01 0.42212908E+03</pdfrwt>
<totfact> 0.13609340E+03</totfact>
</mgrwt>
</event>
<event>
 4    1  0.4918322E-002  0.4291747E+03  0.7818608E-02  0.1034121E+00
         21   -1    0    0  501  502  0.00000000000E+00  0.00000000000E+00  0.11636645623E+03  0.11636645623E+03  0.00000000000E+00 0. -1.
         21   -1    0    0  502  503 -0.00000000000E+00 -0.00000000000E+00 -0.16883368444E+04  0.16883368444E+04  0.00000000000E+00 0. -1.
    9000007    1    1    2  501    0 -0.16971055119E+02  0.15460555572E+03 -0.10115342468E+04  0.10988141003E+04  0.40000000000E+03 0. -1.
   -9000007    1    1    2    0  503  0.16971055119E+02 -0.15460555572E+03 -0.56043614132E+03  0.70588920027E+03  0.40000000000E+03 0. -1.
<mgrwt>
<rscale>  2 0.42917467E+03</rscale>
<asrwt>0</asrwt>
<pdfrwt beam="1">  1       21 0.17902532E-01 0.42917467E+03</pdfrwt>
<pdfrwt beam="2">  1       21 0.25974413E+00 0.42917467E+03</pdfrwt>
<totfact> 0.13758575E+03</totfact>
</mgrwt>
</event>
<event>
 4    1  0.4918322E-002  0.4026041E+03  0.7818608E-02  0.1042882E+00
         21   -1    0    0  501  502  0.00000000000E+00  0.00000000000E+00  0.30547650736E+03  0.30547650736E+03  0.00000000000E+00 0.  1.
         21   -1    0    0  502  503 -0.00000000000E+00 -0.00000000000E+00 -0.81659580480E+03  0.81659580480E+03  0.00000000000E+00 0.  1.
    9000007    1    1    2  501    0  0.40019030066E+02  0.22103607449E+02  0.76454450918E+02  0.40979918899E+03  0.40000000000E+03 0.  1.
   -9000007    1    1    2    0  503 -0.40019030066E+02 -0.22103607449E+02 -0.58757374836E+03  0.71227312317E+03  0.40000000000E+03 0.  1.
<mgrwt>
<rscale>  2 0.40260414E+03</rscale>
<asrwt>0</asrwt>
<pdfrwt beam="1">  1       21 0.46996386E-01 0.40260414E+03</pdfrwt>
<pdfrwt beam="2">  1       21 0.12563012E+00 0.40260414E+03</pdfrwt>
<totfact> 0.17853091E+03</totfact>
</mgrwt>
</event>
<event>
 4    1  0.4918322E-002  0.4316123E+03  0.7818608E-02  0.1033352E+00
         21   -1    0    0  501  502  0.00000000000E+00  0.00000000000E+00  0.57045562149E+03  0.57045562149E+03  0.00000000000E+00 0. -1.
         21   -1    0    0  502  503 -0.00000000000E+00 -0.00000000000E+00 -0.32715799587E+03  0.32715799587E+03  0.00000000000E+00 0. -1.
    9000007    1    1    2  501    0  0.83317632379E+02 -0.13909482278E+03  0.14080275909E+03  0.45399847418E+03  0.40000000000E+03 0. -1.
   -9000007    1    1    2    0  503 -0.83317632379E+02  0.13909482278E+03  0.10249486653E+03  0.44361514317E+03  0.40000000000E+03 0. -1.
<mgrwt>
<rscale>  2 0.43161232E+03</rscale>
<asrwt>0</asrwt>
<pdfrwt beam="1">  1       21 0.87762403E-01 0.43161232E+03</pdfrwt>
<pdfrwt beam="2">  1       21 0.50331999E-01 0.43161232E+03</pdfrwt>
<totfact> 0.36802529E+03</totfact>
</mgrwt>
</event>
<event>
 4    1  0.4918322E-002  0.4431272E+03  0.7818608E-02  0.1029792E+00
         21   -1    0    0  501  502  0.00000000000E+00  0.00000000000E+00  0.22690656970E+03  0.22690656970E+03  0.00000000000E+00 0. -1.
         21   -1    0    0  502  503 -0.00000000000E+00 -0.00000000000E+00 -0.86742099151E+03  0.86742099151E+03  0.00000000000E+00 0.  1.
    9000007    1    1    2  501    0 -0.17792524791E+03 -0.68588165164E+02 -0.34676062212E+03  0.56267633618E+03  0.40000000000E+03 0. -1.
   -9000007    1    1    2    0  503  0.17792524791E+03  0.68588165164E+02 -0.29375379969E+03  0.53165122503E+03  0.40000000000E+03 0.  1.
<mgrwt>
<rscale>  2 0.44312722E+03</rscale>
<asrwt>0</asrwt>
<pdfrwt beam="1">  1       21 0.34908703E-01 0.44312722E+03</pdfrwt>
<pdfrwt beam="2">  1       21 0.13344939E+00 0.44312722E+03</pdfrwt>
<totfact> 0.27726516E+03</totfact>
</mgrwt>
</event>
<event>
 4    1  0.4918322E-002  0.4102785E+03  0.7818608E-02  0.1040278E+00
         21   -1    0    0  503  502  0.00000000000E+00  0.00000000000E+00  0.72284642133E+03  0.72284642133E+03  0.00000000000E+00 0.  1.
         21   -1    0    0  501  503 -0.00000000000E+00 -0.00000000000E+00 -0.48036556640E+03  0.48036556640E+03  0.00000000000E+00 0.  1.
    9000007    1    1    2  501    0 -0.82945279777E+02 -0.38059030202E+02 -0.31058772058E+03  0.51458054899E+03  0.40000000000E+03 0.  1.
   -9000007    1    1    2    0  502  0.82945279777E+02  0.38059030202E+02  0.55306857551E+03  0.68863143875E+03  0.40000000000E+03 0.  1.
<mgrwt>
<rscale>  2 0.41027845E+03</rscale>
<asrwt>0</asrwt>
<pdfrwt beam="1">  1       21 0.11120714E+00 0.41027845E+03</pdfrwt>
<pdfrwt beam="2">  1       21 0.73902395E-01 0.41027845E+03</pdfrwt>
<totfact> 0.90106961E+02</totfact>
</mgrwt>
</event>
<event>
 4    1  0.4918322E-002  0.5904648E+03  0.7818608E-02  0.9925388E-01
         21   -1    0    0  501  502  0.00000000000E+00  0.00000000000E+00  0.18986489749E+03  0.18986489749E+03  0.00000000000E+00 0.  1.
         21   -1    0    0  502  503 -0.00000000000E+00 -0.00000000000E+00 -0.19528606540E+04  0.19528606540E+04  0.00000000000E+00 0. -1.
    9000007    1    1    2  501    0  0.68449590607E+02 -0.42890950898E+03 -0.61975260072E+03  0.85600350434E+03  0.40000000000E+03 0. -1.
   -9000007    1    1    2    0  503 -0.68449590607E+02  0.42890950898E+03 -0.11432431558E+04  0.12867220472E+04  0.40000000000E+03 0.  1.
<mgrwt>
<rscale>  2 0.59046483E+03</rscale>
<asrwt>0</asrwt>
<pdfrwt beam="1">  1       21 0.29209984E-01 0.59046483E+03</pdfrwt>
<pdfrwt beam="2">  1       21 0.30044011E+00 0.59046483E+03</pdfrwt>
<totfact> 0.27984664E+02</totfact>
</mgrwt>
</event>
<event>
 4    1  0.4918322E-002  0.4454214E+03  0.7818608E-02  0.1029096E+00
         21   -1    0    0  503  502  0.00000000000E+00  0.00000000000E+00  0.12823971398E+04  0.12823971398E+04  0.00000000000E+00 0.  1.
         21   -1    0    0  501  503 -0.00000000000E+00 -0.00000000000E+00 -0.32838204173E+03  0.32838204173E+03  0.00000000000E+00 0.  1.
    9000007    1    1    2  501    0 -0.90665302235E+02 -0.17372393370E+03 -0.10869989097E+03  0.45849304081E+03  0.40000000000E+03 0.  1.
   -9000007    1    1    2    0  502  0.90665302235E+02  0.17372393370E+03  0.10627149891E+04  0.11522861408E+04  0.40000000000E+03 0.  1.
<mgrwt>
<rscale>  2 0.44542138E+03</rscale>
<asrwt>0</asrwt>
<pdfrwt beam="1">  1       21 0.19729186E+00 0.44542138E+03</pdfrwt>
<pdfrwt beam="2">  1       21 0.50520315E-01 0.44542138E+03</pdfrwt>
<totfact> 0.42912843E+02</totfact>
</mgrwt>
</event>
<event>
 4    1  0.4918322E-002  0.4074521E+03  0.7818608E-02  0.1041229E+00
         21   -1    0    0  503  502  0.00000000000E+00  0.00000000000E+00  0.32634935477E+03  0.32634935477E+03  0.00000000000E+00 0. -1.
         21   -1    0    0  501  503 -0.00000000000E+00 -0.00000000000E+00 -0.52091227529E+03  0.52091227529E+03  0.00000000000E+00 0. -1.
    9000007    1    1    2  501    0 -0.75968878464E+02 -0.15681862103E+02 -0.16211878027E+03  0.43851988576E+03  0.40000000000E+03 0. -1.
   -9000007    1    1    2    0  502  0.75968878464E+02  0.15681862103E+02 -0.32444140262E+02  0.40874174430E+03  0.40000000000E+03 0. -1.
<mgrwt>
<rscale>  2 0.40745207E+03</rscale>
<asrwt>0</asrwt>
<pdfrwt beam="1">  1       21 0.50207593E-01 0.40745207E+03</pdfrwt>
<pdfrwt beam="2">  1       21 0.80140350E-01 0.40745207E+03</pdfrwt>
<totfact> 0.46118631E+03</totfact>
</mgrwt>
</event>
<event>
 4    1  0.4918322E-002  0.6725954E+03  0.7818608E-02  0.9765281E-01
         21   -1    0    0  501  502  0.00000000000E+00  0.00000000000E+00  0.26596201522E+03  0.26596201522E+03  0.00000000000E+00 0. -1.
         21   -1    0    0  502  503 -0.00000000000E+00 -0.00000000000E+00 -0.20730274907E+04  0.20730274907E+04  0.00000000000E+00 0.  1.
    9000007    1    1    2  501    0  0.50915082879E+03  0.18207128414E+03 -0.40805940932E+03  0.78670007023E+03  0.40000000000E+03 0.  1.
   -9000007    1    1    2    0  503 -0.50915082879E+03 -0.18207128414E+03 -0.13990060661E+04  0.15522894357E+04  0.40000000000E+03 0.  1.
<mgrwt>
<rscale>  2 0.67259536E+03</rscale>
<asrwt>0</asrwt>
<pdfrwt beam="1">  1       21 0.40917234E-01 0.67259536E+03</pdfrwt>
<pdfrwt beam="2">  1       21 0.31892730E+00 0.67259536E+03</pdfrwt>
<totfact> 0.10490470E+02</totfact>
</mgrwt>
</event>
<event>
 4    1  0.4918322E-002  0.4444969E+03  0.7818608E-02  0.1029376E+00
         21   -1    0    0  503  502  0.00000000000E+00  0.00000000000E+00  0.51647386146E+03  0.51647386146E+03  0.00000000000E+00 0.  1.
         21   -1    0    0  501  503 -0.00000000000E+00 -0.00000000000E+00 -0.45490256634E+03  0.45490256634E+03  0.00000000000E+00 0.  1.
    9000007    1    1    2  501    0 -0.12329995141E+03  0.14958150513E+03 -0.16291133192E+03  0.47341061116E+03  0.40000000000E+03 0.  1.
   -9000007    1    1    2    0  502  0.12329995141E+03 -0.14958150513E+03  0.22448262704E+03  0.49796581663E+03  0.40000000000E+03 0.  1.
<mgrwt>
<rscale>  2 0.44449691E+03</rscale>
<asrwt>0</asrwt>
<pdfrwt beam="1">  1       21 0.79457517E-01 0.44449691E+03</pdfrwt>
<pdfrwt beam="2">  1       21 0.69985011E-01 0.44449691E+03</pdfrwt>
<totfact> 0.22455235E+03</totfact>
</mgrwt>
</event>
<event>
 4    1  0.4918322E-002  0.6952593E+03  0.7818608E-02  0.9725374E-01
         21   -1    0    0  501  502  0.00000000000E+00  0.00000000000E+00  0.20757182475E+04  0.20757182475E+04  0.00000000000E+00 0. -1.
         21   -1    0    0  502  503 -0.00000000000E+00 -0.00000000000E+00 -0.31391495331E+03  0.31391495331E+03  0.00000000000E+00 0.  1.
    9000007    1    1    2  501    0  0.47320616378E+03  0.31537494807E+03  0.14879755343E+04  0.16423935649E+04  0.40000000000E+03 0.  1.
   -9000007    1    1    2    0  503 -0.47320616378E+03 -0.31537494807E+03  0.27382775980E+03  0.74723963583E+03  0.40000000000E+03 0. -1.
<mgrwt>
<rscale>  2 0.69525925E+03</rscale>
<asrwt>0</asrwt>
<pdfrwt beam="1">  1       21 0.31934126E+00 0.69525925E+03</pdfrwt>
<pdfrwt beam="2">  1       21 0.48294610E-01 0.69525925E+03</pdfrwt>
<totfact> 0.72815463E+01</totfact>
</mgrwt>
</event>
<event>
 4    1  0.4918322E-002  0.4972599E+03  0.7818608E-02  0.1014497E+00
         21   -1    0    0  503  502  0.00000000000E+00  0.00000000000E+00  0.64814614988E+03  0.64814614988E+03  0.00000000000E+00 0. -1.
         21   -1    0    0  501  503 -0.00000000000E+00 -0.00000000000E+00 -0.64654690880E+03  0.64654690880E+03  0.00000000000E+00 0. -1.
    9000007    1    1    2  501    0 -0.24403380487E+03  0.16647809041E+03 -0.41367558893E+03  0.64683455797E+03  0.40000000000E+03 0. -1.
   -9000007    1    1    2    0  502  0.24403380487E+03 -0.16647809041E+03  0.41527483001E+03  0.64785850071E+03  0.40000000000E+03 0. -1.
<mgrwt>
<rscale>  2 0.49725994E+03</rscale>
<asrwt>0</asrwt>
<pdfrwt beam="1">  1       21 0.99714792E-01 0.49725994E+03</pdfrwt>
<pdfrwt beam="2">  1       21 0.99468755E-01 0.49725994E+03</pdfrwt>
<totfact> 0.56554759E+02</totfact>
</mgrwt>
</event>
<event>
 4    1  0.4918322E-002  0.4698510E+03  0.7818608E-02  0.1021962E+00
         21   -1    0    0  503  502  0.00000000000E+00  0.00000000000E+00  0.42561967633E+03  0.42561967633E+03  0.00000000000E+00 0.  1.
         21   -1    0    0  501  503 -0.00000000000E+00 -0.00000000000E+00 -0.53526566846E+03  0.53526566846E+03  0.00000000000E+00 0. -1.
    9000007    1    1    2  501    0 -0.23016208318E+03  0.88234827128E+02  0.29751036990E+02  0.47079198533E+03  0.40000000000E+03 0. -1.
   -9000007    1    1    2    0  502  0.23016208318E+03 -0.88234827128E+02 -0.13939702912E+03  0.49009335946E+03  0.40000000000E+03 0. -1.
<mgrwt>
<rscale>  2 0.46985101E+03</rscale>
<asrwt>0</asrwt>
<pdfrwt beam="1">  1       21 0.65479950E-01 0.46985101E+03</pdfrwt>
<pdfrwt beam="2">  1       21 0.82348564E-01 0.46985101E+03</pdfrwt>
<totfact> 0.23772994E+03</totfact>
</mgrwt>
</event>
<event>
 4    1  0.4918322E-002  0.4043742E+03  0.7818608E-02  0.1042275E+00
         21   -1    0    0  501  502  0.00000000000E+00  0.00000000000E+00  0.20746194659E+04  0.20746194659E+04  0.00000000000E+00 0.  1.
         21   -1    0    0  502  503 -0.00000000000E+00 -0.00000000000E+00 -0.89204827099E+02  0.89204827099E+02  0.00000000000E+00 0.  1.
    9000007    1    1    2  501    0  0.59302535523E+02 -0.12963707237E+01  0.13618787133E+04  0.14206449596E+04  0.40000000000E+03 0.  1.
   -9000007    1    1    2    0  503 -0.59302535523E+02  0.12963707237E+01  0.62353592545E+03  0.74317933342E+03  0.40000000000E+03 0.  1.
<mgrwt>
<rscale>  2 0.40437417E+03</rscale>
<asrwt>0</asrwt>
<pdfrwt beam="1">  1       21 0.31917219E+00 0.40437417E+03</pdfrwt>
<pdfrwt beam="2">  1       21 0.13723821E-01 0.40437417E+03</pdfrwt>
<totfact> 0.10048491E+03</totfact>
</mgrwt>
</event>
<event>
 4    1  0.4918322E-002  0.7388743E+03  0.7818608E-02  0.9652968E-01
         21   -1    0    0  503  502  0.00000000000E+00  0.00000000000E+00  0.42133154749E+03  0.42133154749E+03  0.00000000000E+00 0. -1.
         21   -1    0    0  501  503 -0.00000000000E+00 -0.00000000000E+00 -0.15018157297E+04  0.15018157297E+04  0.00000000000E+00 0.  1.
    9000007    1    1    2  501    0 -0.55391666519E+03  0.28126766387E+03 -0.18404524482E+03  0.76145112966E+03  0.40000000000E+03 0. -1.
   -9000007    1    1    2    0  502  0.55391666519E+03 -0.28126766387E+03 -0.89643893737E+03  0.11616961475E+04  0.40000000000E+03 0.  1.
<mgrwt>
<rscale>  2 0.73887426E+03</rscale>
<asrwt>0</asrwt>
<pdfrwt beam="1">  1       21 0.64820238E-01 0.73887426E+03</pdfrwt>
<pdfrwt beam="2">  1       21 0.23104857E+00 0.73887426E+03</pdfrwt>
<totfact> 0.13279328E+02</totfact>
</mgrwt>
</event>
<event>
 4    1  0.4918322E-002  0.4061809E+03  0.7818608E-02  0.1041660E+00
         21   -1    0    0  503  502  0.00000000000E+00  0.00000000000E+00  0.34265196537E+03  0.34265196537E+03  0.00000000000E+00 0.  1.
         21   -1    0    0  501  503 -0.00000000000E+00 -0.00000000000E+00 -0.48158121715E+03  0.48158121715E+03  0.00000000000E+00 0.  1.
    9000007    1    1    2  501    0 -0.54309272553E+02 -0.45093114337E+02 -0.75191428692E+02  0.41308187687E+03  0.40000000000E+03 0.  1.
   -9000007    1    1    2    0  502  0.54309272553E+02  0.45093114337E+02 -0.63737823094E+02  0.41115130565E+03  0.40000000000E+03 0.  1.
<mgrwt>
<rscale>  2 0.40618085E+03</rscale>
<asrwt>0</asrwt>
<pdfrwt beam="1">  1       21 0.52715687E-01 0.40618085E+03</pdfrwt>
<pdfrwt beam="2">  1       21 0.74089418E-01 0.40618085E+03</pdfrwt>
<totfact> 0.49768340E+03</totfact>
</mgrwt>
</event>
<event>
 4    1  0.4918322E-002  0.4046516E+03  0.7818608E-02  0.1042181E+00
         21   -1    0    0  503  502  0.00000000000E+00  0.00000000000E+00  0.81641172596E+02  0.81641172596E+02  0.00000000000E+00 0. -1.
         21   -1    0    0  501  503 -0.00000000000E+00 -0.00000000000E+00 -0.20787134498E+04  0.20787134498E+04  0.00000000000E+00 0. -1.
    9000007    1    1    2  501    0  0.57720068531E+02 -0.20279894945E+02 -0.12010592850E+04  0.12673935010E+04  0.40000000000E+03 0.  1.
   -9000007    1    1    2    0  502 -0.57720068531E+02  0.20279894945E+02 -0.79601299220E+03  0.89296112132E+03  0.40000000000E+03 0.  1.
<mgrwt>
<rscale>  2 0.40465155E+03</rscale>
<asrwt>0</asrwt>
<pdfrwt beam="1">  1       21 0.12560180E-01 0.40465155E+03</pdfrwt>
<pdfrwt beam="2">  1       21 0.31980207E+00 0.40465155E+03</pdfrwt>
<totfact> 0.11714216E+03</totfact>
</mgrwt>
</event>
<event>
 4    1  0.4918322E-002  0.4264526E+03  0.7818608E-02  0.1034986E+00
         21   -1    0    0  501  502  0.00000000000E+00  0.00000000000E+00  0.14111823738E+03  0.14111823738E+03  0.00000000000E+00 0.  1.
         21   -1    0    0  502  503 -0.00000000000E+00 -0.00000000000E+00 -0.14754689427E+04  0.14754689427E+04  0.00000000000E+00 0.  1.
    9000007    1    1    2  501    0 -0.14714520067E+03  0.14495629018E+02 -0.37961190523E+03  0.57093522569E+03  0.40000000000E+03 0.  1.
   -9000007    1    1    2    0  503  0.14714520067E+03 -0.14495629018E+02 -0.95473880005E+03  0.10456519544E+04  0.40000000000E+03 0.  1.
<mgrwt>
<rscale>  2 0.42645262E+03</rscale>
<asrwt>0</asrwt>
<pdfrwt beam="1">  1       21 0.21710499E-01 0.42645262E+03</pdfrwt>
<pdfrwt beam="2">  1       21 0.22699522E+00 0.42645262E+03</pdfrwt>
<totfact> 0.15220716E+03</totfact>
</mgrwt>
</event>
<event>
 4    1  0.4918322E-002  0.4127405E+03  0.7818608E-02  0.1039455E+00
         21   -1    0    0  503  502  0.00000000000E+00  0.00000000000E+00  0.11856809778E+03  0.11856809778E+03  0.00000000000E+00 0. -1.
         21   -1    0    0  501  503 -0.00000000000E+00 -0.00000000000E+00 -0.17711542640E+04  0.17711542640E+04  0.00000000000E+00 0. -1.
    9000007    1    1    2  501    0 -0.89643671476E+02  0.48152794396E+02 -0.12368420407E+04  0.13038914499E+04  0.40000000000E+03 0. -1.
   -9000007    1    1    2    0  502  0.89643671476E+02 -0.48152794396E+02 -0.41574412556E+03  0.58583091194E+03  0.40000000000E+03 0. -1.
<mgrwt>
<rscale>  2 0.41274045E+03</rscale>
<asrwt>0</asrwt>
<pdfrwt beam="1">  1       21 0.18241247E-01 0.41274045E+03</pdfrwt>
<pdfrwt beam="2">  1       21 0.27248525E+00 0.41274045E+03</pdfrwt>
<totfact> 0.11219634E+03</totfact>
</mgrwt>
</event>
<event>
 4    1  0.4918322E-002  0.4953862E+03  0.7818608E-02  0.1014990E+00
         21   -1    0    0  501  502  0.00000000000E+00  0.00000000000E+00  0.13816034955E+04  0.13816034955E+04  0.00000000000E+00 0. -1.
         21   -1    0    0  502  503 -0.00000000000E+00 -0.00000000000E+00 -0.18042097372E+03  0.18042097372E+03  0.00000000000E+00 0. -1.
    9000007    1    1    2  501    0  0.29057852089E+03  0.31169925050E+02  0.69781540180E+03  0.85577670920E+03  0.40000000000E+03 0. -1.
   -9000007    1    1    2    0  503 -0.29057852089E+03 -0.31169925050E+02  0.50336711997E+03  0.70624775999E+03  0.40000000000E+03 0. -1.
<mgrwt>
<rscale>  2 0.49538615E+03</rscale>
<asrwt>0</asrwt>
<pdfrwt beam="1">  1       21 0.21255438E+00 0.49538615E+03</pdfrwt>
<pdfrwt beam="2">  1       21 0.27757074E-01 0.49538615E+03</pdfrwt>
<totfact> 0.11324398E+03</totfact>
</mgrwt>
</event>
<event>
 4    1  0.4918322E-002  0.4675216E+03  0.7818608E-02  0.1022622E+00
         21   -1    0    0  503  502  0.00000000000E+00  0.00000000000E+00  0.17232482061E+04  0.17232482061E+04  0.00000000000E+00 0. -1.
         21   -1    0    0  501  503 -0.00000000000E+00 -0.00000000000E+00 -0.15500665047E+03  0.15500665047E+03  0.00000000000E+00 0.  1.
    9000007    1    1    2  501    0  0.15071695248E+03  0.18936971545E+03  0.38379056821E+03  0.60487328354E+03  0.40000000000E+03 0.  1.
   -9000007    1    1    2    0  502 -0.15071695248E+03 -0.18936971545E+03  0.11844509874E+04  0.12733815730E+04  0.40000000000E+03 0. -1.
<mgrwt>
<rscale>  2 0.46752165E+03</rscale>
<asrwt>0</asrwt>
<pdfrwt beam="1">  1       21 0.26511509E+00 0.46752165E+03</pdfrwt>
<pdfrwt beam="2">  1       21 0.23847178E-01 0.46752165E+03</pdfrwt>
<totfact> 0.72391476E+02</totfact>
</mgrwt>
</event>
<event>
 4    1  0.4918322E-002  0.5322601E+03  0.7818608E-02  0.1005685E+00
         21   -1    0    0  501  502  0.00000000000E+00  0.00000000000E+00  0.80967697166E+03  0.80967697166E+03  0.00000000000E+00 0. -1.
         21   -1    0    0  502  503 -0.00000000000E+00 -0.00000000000E+00 -0.78655815083E+03  0.78655815083E+03  0.00000000000E+00 0.  1.
    9000007    1    1    2  501    0 -0.24148313995E+03  0.25492500870E+03  0.60622850741E+03  0.80673035777E+03  0.40000000000E+03 0. -1.
   -9000007    1    1    2    0  503  0.24148313995E+03 -0.25492500870E+03 -0.58310968658E+03  0.78950476473E+03  0.40000000000E+03 0.  1.
<mgrwt>
<rscale>  2 0.53226015E+03</rscale>
<asrwt>0</asrwt>
<pdfrwt beam="1">  1       21 0.12456569E+00 0.53226015E+03</pdfrwt>
<pdfrwt beam="2">  1       21 0.12100895E+00 0.53226015E+03</pdfrwt>
<totfact> 0.19599144E+02</totfact>
</mgrwt>
</event>
<event>
 4    1  0.4918322E-002  0.5122606E+03  0.7818608E-02  0.1010627E+00
         21   -1    0    0  503  502  0.00000000000E+00  0.00000000000E+00  0.14480494340E+03  0.14480494340E+03  0.00000000000E+00 0. -1.
         21   -1    0    0  501  503 -0.00000000000E+00 -0.00000000000E+00 -0.18549201116E+04  0.18549201116E+04  0.00000000000E+00 0. -1.
    9000007    1    1    2  501    0  0.29604585932E+03 -0.12152264270E+03 -0.10068520057E+04  0.11296733443E+04  0.40000000000E+03 0. -1.
   -9000007    1    1    2    0  502 -0.29604585932E+03  0.12152264270E+03 -0.70326316255E+03  0.87005171071E+03  0.40000000000E+03 0. -1.
<mgrwt>
<rscale>  2 0.51226058E+03</rscale>
<asrwt>0</asrwt>
<pdfrwt beam="1">  1       21 0.22277684E-01 0.51226058E+03</pdfrwt>
<pdfrwt beam="2">  1       21 0.28537233E+00 0.51226058E+03</pdfrwt>
<totfact> 0.60877905E+02</totfact>
</mgrwt>
</event>
<event>
 4    1  0.4918322E-002  0.4447087E+03  0.7818608E-02  0.1029312E+00
         21   -1    0    0  501  502  0.00000000000E+00  0.00000000000E+00  0.41474322656E+03  0.41474322656E+03  0.00000000000E+00 0.  1.
         21   -1    0    0  502  503 -0.00000000000E+00 -0.00000000000E+00 -0.50359390350E+03  0.50359390350E+03  0.00000000000E+00 0.  1.
    9000007    1    1    2  501    0 -0.11866588939E+03 -0.15389686689E+03  0.61410262547E+02  0.44892879089E+03  0.40000000000E+03 0.  1.
   -9000007    1    1    2    0  503  0.11866588939E+03  0.15389686689E+03 -0.15026093950E+03  0.46940833917E+03  0.40000000000E+03 0.  1.
<mgrwt>
<rscale>  2 0.44470871E+03</rscale>
<asrwt>0</asrwt>
<pdfrwt beam="1">  1       21 0.63806650E-01 0.44470871E+03</pdfrwt>
<pdfrwt beam="2">  1       21 0.77475985E-01 0.44470871E+03</pdfrwt>
<totfact> 0.29250400E+03</totfact>
</mgrwt>
</event>
<event>
 4    1  0.4918322E-002  0.5168182E+03  0.7818608E-02  0.1009480E+00
         21   -1    0    0  501  502  0.00000000000E+00  0.00000000000E+00  0.58940180575E+03  0.58940180575E+03  0.00000000000E+00 0. -1.
         21   -1    0    0  502  503 -0.00000000000E+00 -0.00000000000E+00 -0.46955286634E+03  0.46955286634E+03  0.00000000000E+00 0. -1.
    9000007    1    1    2  501    0  0.29208137822E+03  0.14761274958E+03 -0.38966972592E+02  0.51828513416E+03  0.40000000000E+03 0. -1.
   -9000007    1    1    2    0  503 -0.29208137822E+03 -0.14761274958E+03  0.15881591200E+03  0.54066953793E+03  0.40000000000E+03 0. -1.
<mgrwt>
<rscale>  2 0.51681820E+03</rscale>
<asrwt>0</asrwt>
<pdfrwt beam="1">  1       21 0.90677201E-01 0.51681820E+03</pdfrwt>
<pdfrwt beam="2">  1       21 0.72238903E-01 0.51681820E+03</pdfrwt>
<totfact> 0.14950065E+03</totfact>
</mgrwt>
</event>
<event>
 4    1  0.4918322E-002  0.4001932E+03  0.7818608E-02  0.1043713E+00
         21   -1    0    0  503  502  0.00000000000E+00  0.00000000000E+00  0.75599890898E+03  0.75599890898E+03  0.00000000000E+00 0.  1.
         21   -1    0    0  501  503 -0.00000000000E+00 -0.00000000000E+00 -0.23091265792E+03  0.23091265792E+03  0.00000000000E+00 0.  1.
    9000007    1    1    2  501    0 -0.12147928927E+02 -0.26516145531E+01  0.12074423498E+03  0.41801169065E+03  0.40000000000E+03 0.  1.
   -9000007    1    1    2    0  502  0.12147928927E+02  0.26516145531E+01  0.40434201608E+03  0.56889987626E+03  0.40000000000E+03 0.  1.
<mgrwt>
<rscale>  2 0.40019321E+03</rscale>
<asrwt>0</asrwt>
<pdfrwt beam="1">  1       21 0.11630752E+00 0.40019321E+03</pdfrwt>
<pdfrwt beam="2">  1       21 0.35525025E-01 0.40019321E+03</pdfrwt>
<totfact> 0.38698150E+03</totfact>
</mgrwt>
</event>
<event>
 4    1  0.4918322E-002  0.5802847E+03  0.7818608E-02  0.9947175E-01
         21   -1    0    0  501  502  0.00000000000E+00  0.00000000000E+00  0.28006062074E+03  0.28006062074E+03  0.00000000000E+00 0.  1.
         21   -1    0    0  502  503 -0.00000000000E+00 -0.00000000000E+00 -0.13649702446E+04  0.13649702446E+04  0.00000000000E+00 0.  1.
    9000007    1    1    2  501    0  0.41900725905E+03 -0.34105707725E+02 -0.25855006616E+03  0.63527822184E+03  0.40000000000E+03 0.  1.
   -9000007    1    1    2    0  503 -0.41900725905E+03  0.34105707725E+02 -0.82635955766E+03  0.10097526435E+04  0.40000000000E+03 0.  1.
<mgrwt>
<rscale>  2 0.58028466E+03</rscale>
<asrwt>0</asrwt>
<pdfrwt beam="1">  1       21 0.43086249E-01 0.58028466E+03</pdfrwt>
<pdfrwt beam="2">  1       21 0.20999542E+00 0.58028466E+03</pdfrwt>
<totfact> 0.46614528E+02</totfact>
</mgrwt>
</event>
<event>
 4    1  0.4918322E-002  0.4978928E+03  0.7818608E-02  0.1014330E+00
         21   -1    0    0  503  502  0.00000000000E+00  0.00000000000E+00  0.39554490713E+03  0.39554490713E+03  0.00000000000E+00 0. -1.
         21   -1    0    0  501  503 -0.00000000000E+00 -0.00000000000E+00 -0.72243611507E+03  0.72243611507E+03  0.00000000000E+00 0. -1.
    9000007    1    1    2  501    0  0.19773396359E+03 -0.22090380054E+03  0.40019416568E+02  0.49949851167E+03  0.40000000000E+03 0. -1.
   -9000007    1    1    2    0  502 -0.19773396359E+03  0.22090380054E+03 -0.36691062451E+03  0.61848251053E+03  0.40000000000E+03 0. -1.
<mgrwt>
<rscale>  2 0.49789277E+03</rscale>
<asrwt>0</asrwt>
<pdfrwt beam="1">  1       21 0.60853063E-01 0.49789277E+03</pdfrwt>
<pdfrwt beam="2">  1       21 0.11114402E+00 0.49789277E+03</pdfrwt>
<totfact> 0.13441598E+03</totfact>
</mgrwt>
</event>
<event>
 4    1  0.4918322E-002  0.5111150E+03  0.7818608E-02  0.1010918E+00
         21   -1    0    0  503  502  0.00000000000E+00  0.00000000000E+00  0.21801660720E+04  0.21801660720E+04  0.00000000000E+00 0.  1.
         21   -1    0    0  501  503 -0.00000000000E+00 -0.00000000000E+00 -0.12084639405E+03  0.12084639405E+03  0.00000000000E+00 0.  1.
    9000007    1    1    2  501    0  0.26629854943E+03 -0.17413671104E+03  0.92389096750E+03  0.10558470682E+04  0.40000000000E+03 0.  1.
   -9000007    1    1    2    0  502 -0.26629854943E+03  0.17413671104E+03  0.11354287105E+04  0.12451653979E+04  0.40000000000E+03 0.  1.
<mgrwt>
<rscale>  2 0.51111497E+03</rscale>
<asrwt>0</asrwt>
<pdfrwt beam="1">  1       21 0.33541014E+00 0.51111497E+03</pdfrwt>
<pdfrwt beam="2">  1       21 0.18591754E-01 0.51111497E+03</pdfrwt>
<totfact> 0.42795867E+02</totfact>
</mgrwt>
</event>
<event>
 4    1  0.4918322E-002  0.4520438E+03  0.7818608E-02  0.1027114E+00
         21   -1    0    0  503  502  0.00000000000E+00  0.00000000000E+00  0.44037990920E+03  0.44037990920E+03  0.00000000000E+00 0.  1.
         21   -1    0    0  501  503 -0.00000000000E+00 -0.00000000000E+00 -0.79991496642E+03  0.79991496642E+03  0.00000000000E+00 0.  1.
    9000007    1    1    2  501    0 -0.21057839572E+03  0.57881931051E+00 -0.58162956177E+03  0.73663867867E+03  0.40000000000E+03 0.  1.
   -9000007    1    1    2    0  502  0.21057839572E+03 -0.57881931051E+00  0.22209450455E+03  0.50365619695E+03  0.40000000000E+03 0.  1.
<mgrwt>
<rscale>  2 0.45204380E+03</rscale>
<asrwt>0</asrwt>
<pdfrwt beam="1">  1       21 0.67750755E-01 0.45204380E+03</pdfrwt>
<pdfrwt beam="2">  1       21 0.12306384E+00 0.45204380E+03</pdfrwt>
<totfact> 0.83388908E+02</totfact>
</mgrwt>
</event>
<event>
 4    1  0.4918322E-002  0.4196476E+03  0.7818608E-02  0.1037181E+00
         21   -1    0    0  503  502  0.00000000000E+00  0.00000000000E+00  0.15293076532E+04  0.15293076532E+04  0.00000000000E+00 0. -1.
         21   -1    0    0  501  503 -0.00000000000E+00 -0.00000000000E+00 -0.12950489767E+03  0.12950489767E+03  0.00000000000E+00 0.  1.
    9000007    1    1    2  501    0  0.10677331589E+03  0.68582554525E+02  0.42379183173E+03  0.59640894059E+03  0.40000000000E+03 0.  1.
   -9000007    1    1    2    0  502 -0.10677331589E+03 -0.68582554525E+02  0.97601092379E+03  0.10624036103E+04  0.40000000000E+03 0. -1.
<mgrwt>
<rscale>  2 0.41964760E+03</rscale>
<asrwt>0</asrwt>
<pdfrwt beam="1">  1       21 0.23527809E+00 0.41964760E+03</pdfrwt>
<pdfrwt beam="2">  1       21 0.19923831E-01 0.41964760E+03</pdfrwt>
<totfact> 0.15963966E+03</totfact>
</mgrwt>
</event>
<event>
 4    1  0.4918322E-002  0.4238969E+03  0.7818608E-02  0.1035805E+00
         21   -1    0    0  503  502  0.00000000000E+00  0.00000000000E+00  0.24807906607E+03  0.24807906607E+03  0.00000000000E+00 0.  1.
         21   -1    0    0  501  503 -0.00000000000E+00 -0.00000000000E+00 -0.73197117650E+03  0.73197117650E+03  0.00000000000E+00 0.  1.
    9000007    1    1    2  501    0  0.80052605053E+02 -0.11523954939E+03 -0.29204653101E+03  0.51476183774E+03  0.40000000000E+03 0.  1.
   -9000007    1    1    2    0  502 -0.80052605053E+02  0.11523954939E+03 -0.19184557942E+03  0.46528840482E+03  0.40000000000E+03 0.  1.
<mgrwt>
<rscale>  2 0.42389689E+03</rscale>
<asrwt>0</asrwt>
<pdfrwt beam="1">  1       21 0.38166011E-01 0.42389689E+03</pdfrwt>
<pdfrwt beam="2">  1       21 0.11261095E+00 0.42389689E+03</pdfrwt>
<totfact> 0.35922609E+03</totfact>
</mgrwt>
</event>
<event>
 4    1  0.4918322E-002  0.4003129E+03  0.7818608E-02  0.1043671E+00
         21   -1    0    0  501  502  0.00000000000E+00  0.00000000000E+00  0.46774411602E+03  0.46774411602E+03  0.00000000000E+00 0. -1.
         21   -1    0    0  502  503 -0.00000000000E+00 -0.00000000000E+00 -0.40392478703E+03  0.40392478703E+03  0.00000000000E+00 0. -1.
    9000007    1    1    2  501    0 -0.63463916636E+01  0.14497290705E+02  0.20172596746E+03  0.44826756973E+03  0.40000000000E+03 0. -1.
   -9000007    1    1    2    0  503  0.63463916636E+01 -0.14497290705E+02 -0.13790663847E+03  0.42340133332E+03  0.40000000000E+03 0. -1.
<mgrwt>
<rscale>  2 0.40031294E+03</rscale>
<asrwt>0</asrwt>
<pdfrwt beam="1">  1       21 0.71960634E-01 0.40031294E+03</pdfrwt>
<pdfrwt beam="2">  1       21 0.62142275E-01 0.40031294E+03</pdfrwt>
<totfact> 0.37294207E+03</totfact>
</mgrwt>
</event>
<event>
 4    1  0.4918322E-002  0.5053495E+03  0.7818608E-02  0.1012392E+00
         21   -1    0    0  503  502  0.00000000000E+00  0.00000000000E+00  0.74396402545E+03  0.74396402545E+03  0.00000000000E+00 0.  1.
         21   -1    0    0  501  503 -0.00000000000E+00 -0.00000000000E+00 -0.56411206027E+03  0.56411206027E+03  0.00000000000E+00 0. -1.
    9000007    1    1    2  501    0 -0.24181990937E+02  0.30788530464E+03 -0.31930111830E+03  0.59777197462E+03  0.40000000000E+03 0. -1.
   -9000007    1    1    2    0  502  0.24181990937E+02 -0.30788530464E+03  0.49915308348E+03  0.71030411110E+03  0.40000000000E+03 0.  1.
<mgrwt>
<rscale>  2 0.50534951E+03</rscale>
<asrwt>0</asrwt>
<pdfrwt beam="1">  1       21 0.11445600E+00 0.50534951E+03</pdfrwt>
<pdfrwt beam="2">  1       21 0.86786471E-01 0.50534951E+03</pdfrwt>
<totfact> 0.55535800E+02</totfact>
</mgrwt>
</event>
<event>
 4    1  0.4918322E-002  0.4165672E+03  0.7818608E-02  0.1038189E+00
         21   -1    0    0  501  502  0.00000000000E+00  0.00000000000E+00  0.25754917473E+03  0.25754917473E+03  0.00000000000E+00 0.  1.
         21   -1    0    0  502  503 -0.00000000000E+00 -0.00000000000E+00 -0.86689237928E+03  0.86689237928E+03  0.00000000000E+00 0.  1.
    9000007    1    1    2  501    0  0.93672299794E+02 -0.68947281436E+02 -0.39306646464E+02  0.41841754244E+03  0.40000000000E+03 0.  1.
   -9000007    1    1    2    0  503 -0.93672299794E+02  0.68947281436E+02 -0.57003655808E+03  0.70602401157E+03  0.40000000000E+03 0.  1.
<mgrwt>
<rscale>  2 0.41656719E+03</rscale>
<asrwt>0</asrwt>
<pdfrwt beam="1">  1       21 0.39622950E-01 0.41656719E+03</pdfrwt>
<pdfrwt beam="2">  1       21 0.13336806E+00 0.41656719E+03</pdfrwt>
<totfact> 0.21680163E+03</totfact>
</mgrwt>
</event>
<event>
 4    1  0.4918322E-002  0.5266146E+03  0.7818608E-02  0.1007056E+00
         21   -1    0    0  501  502  0.00000000000E+00  0.00000000000E+00  0.16910383001E+03  0.16910383001E+03  0.00000000000E+00 0.  1.
         21   -1    0    0  502  503 -0.00000000000E+00 -0.00000000000E+00 -0.23095671037E+04  0.23095671037E+04  0.00000000000E+00 0.  1.
    9000007    1    1    2  501    0 -0.32162026722E+03  0.11782742576E+03 -0.40291062730E+03  0.66306852748E+03  0.40000000000E+03 0.  1.
   -9000007    1    1    2    0  503  0.32162026722E+03 -0.11782742576E+03 -0.17375526464E+04  0.18156024062E+04  0.40000000000E+03 0.  1.
<mgrwt>
<rscale>  2 0.52661456E+03</rscale>
<asrwt>0</asrwt>
<pdfrwt beam="1">  1       21 0.26015975E-01 0.52661456E+03</pdfrwt>
<pdfrwt beam="2">  1       21 0.35531800E+00 0.52661456E+03</pdfrwt>
<totfact> 0.16755720E+02</totfact>
</mgrwt>
</event>
<event>
 4    1  0.4918322E-002  0.4209509E+03  0.7818608E-02  0.1036757E+00
         21   -1    0    0  501  502  0.00000000000E+00  0.00000000000E+00  0.41267329271E+03  0.41267329271E+03  0.00000000000E+00 0.  1.
         21   -1    0    0  502  503 -0.00000000000E+00 -0.00000000000E+00 -0.54311468060E+03  0.54311468060E+03  0.00000000000E+00 0. -1.
    9000007    1    1    2  501    0 -0.95518462548E+02  0.89865723182E+02  0.15345708043E+03  0.44804988609E+03  0.40000000000E+03 0.  1.
   -9000007    1    1    2    0  503  0.95518462548E+02 -0.89865723182E+02 -0.28389846832E+03  0.50773808721E+03  0.40000000000E+03 0.  1.
<mgrwt>
<rscale>  2 0.42095086E+03</rscale>
<asrwt>0</asrwt>
<pdfrwt beam="1">  1       21 0.63488199E-01 0.42095086E+03</pdfrwt>
<pdfrwt beam="2">  1       21 0.83556105E-01 0.42095086E+03</pdfrwt>
<totfact> 0.25059143E+03</totfact>
</mgrwt>
</event>
<event>
 4    1  0.4918322E-002  0.4178774E+03  0.7818608E-02  0.1037759E+00
         21   -1    0    0  501  502  0.00000000000E+00  0.00000000000E+00  0.19861451907E+03  0.19861451907E+03  0.00000000000E+00 0. -1.
         21   -1    0    0  502  503 -0.00000000000E+00 -0.00000000000E+00 -0.10244017797E+04  0.10244017797E+04  0.00000000000E+00 0. -1.
    9000007    1    1    2  501    0 -0.84781573187E+02  0.86218457092E+02 -0.18266693774E+03  0.45605783366E+03  0.40000000000E+03 0. -1.
   -9000007    1    1    2    0  503  0.84781573187E+02 -0.86218457092E+02 -0.64312032294E+03  0.76695846516E+03  0.40000000000E+03 0. -1.
<mgrwt>
<rscale>  2 0.41787742E+03</rscale>
<asrwt>0</asrwt>
<pdfrwt beam="1">  1       21 0.30556079E-01 0.41787742E+03</pdfrwt>
<pdfrwt beam="2">  1       21 0.15760028E+00 0.41787742E+03</pdfrwt>
<totfact> 0.23404539E+03</totfact>
</mgrwt>
</event>
<event>
 4    1  0.4918322E-002  0.4016813E+03  0.7818608E-02  0.1043199E+00
         21   -1    0    0  503  502  0.00000000000E+00  0.00000000000E+00  0.68123953104E+03  0.68123953104E+03  0.00000000000E+00 0. -1.
         21   -1    0    0  501  503 -0.00000000000E+00 -0.00000000000E+00 -0.26320960517E+03  0.26320960517E+03  0.00000000000E+00 0. -1.
    9000007    1    1    2  501    0  0.11462812353E+02 -0.34878156708E+02  0.35847046638E+03  0.53837622268E+03  0.40000000000E+03 0. -1.
   -9000007    1    1    2    0  502 -0.11462812353E+02  0.34878156708E+02  0.59559459487E+02  0.40607291352E+03  0.40000000000E+03 0. -1.
<mgrwt>
<rscale>  2 0.40168132E+03</rscale>
<asrwt>0</asrwt>
<pdfrwt beam="1">  1       21 0.10480608E+00 0.40168132E+03</pdfrwt>
<pdfrwt beam="2">  1       21 0.40493786E-01 0.40168132E+03</pdfrwt>
<totfact> 0.38316415E+03</totfact>
</mgrwt>
</event>
<event>
 4    1  0.4918322E-002  0.4827072E+03  0.7818608E-02  0.1018394E+00
         21   -1    0    0  503  502  0.00000000000E+00  0.00000000000E+00  0.18275712325E+03  0.18275712325E+03  0.00000000000E+00 0.  1.
         21   -1    0    0  501  503 -0.00000000000E+00 -0.00000000000E+00 -0.14614517956E+04  0.14614517956E+04  0.00000000000E+00 0. -1.
    9000007    1    1    2  501    0 -0.22542833352E+02  0.26925463853E+03 -0.93302842105E+03  0.10504990596E+04  0.40000000000E+03 0. -1.
   -9000007    1    1    2    0  502  0.22542833352E+02 -0.26925463853E+03 -0.34566625129E+03  0.59370985926E+03  0.40000000000E+03 0.  1.
<mgrwt>
<rscale>  2 0.48270720E+03</rscale>
<asrwt>0</asrwt>
<pdfrwt beam="1">  1       21 0.28116481E-01 0.48270720E+03</pdfrwt>
<pdfrwt beam="2">  1       21 0.22483874E+00 0.48270720E+03</pdfrwt>
<totfact> 0.92539461E+02</totfact>
</mgrwt>
</event>
<event>
 4    1  0.4918322E-002  0.6345415E+03  0.7818608E-02  0.9836226E-01
         21   -1    0    0  501  502  0.00000000000E+00  0.00000000000E+00  0.58912845723E+03  0.58912845723E+03  0.00000000000E+00 0.  1.
         21   -1    0    0  502  503 -0.00000000000E+00 -0.00000000000E+00 -0.76766966713E+03  0.76766966713E+03  0.00000000000E+00 0. -1.
    9000007    1    1    2  501    0 -0.27360752020E+03 -0.40961176521E+03  0.13542343403E+03  0.64883154963E+03  0.40000000000E+03 0.  1.
   -9000007    1    1    2    0  503  0.27360752020E+03  0.40961176521E+03 -0.31396464393E+03  0.70796657474E+03  0.40000000000E+03 0. -1.
<mgrwt>
<rscale>  2 0.63454147E+03</rscale>
<asrwt>0</asrwt>
<pdfrwt beam="1">  1       21 0.90635148E-01 0.63454147E+03</pdfrwt>
<pdfrwt beam="2">  1       21 0.11810303E+00 0.63454147E+03</pdfrwt>
<totfact> 0.44233627E+02</totfact>
</mgrwt>
</event>
<event>
 4    1  0.4918322E-002  0.4294226E+03  0.7818608E-02  0.1034043E+00
         21   -1    0    0  501  502  0.00000000000E+00  0.00000000000E+00  0.76198671050E+03  0.76198671050E+03  0.00000000000E+00 0. -1.
         21   -1    0    0  502  503 -0.00000000000E+00 -0.00000000000E+00 -0.28635543211E+03  0.28635543211E+03  0.00000000000E+00 0. -1.
    9000007    1    1    2  501    0  0.13603165759E+03  0.76806247835E+02  0.44410379352E+03  0.61776370159E+03  0.40000000000E+03 0. -1.
   -9000007    1    1    2    0  503 -0.13603165759E+03 -0.76806247835E+02  0.31527484863E+02  0.43057844102E+03  0.40000000000E+03 0. -1.
<mgrwt>
<rscale>  2 0.42942265E+03</rscale>
<asrwt>0</asrwt>
<pdfrwt beam="1">  1       21 0.11722872E+00 0.42942265E+03</pdfrwt>
<pdfrwt beam="2">  1       21 0.44054682E-01 0.42942265E+03</pdfrwt>
<totfact> 0.24109254E+03</totfact>
</mgrwt>
</event>
<event>
 4    1  0.4918322E-002  0.4183334E+03  0.7818608E-02  0.1037610E+00
         21   -1    0    0  503  502  0.00000000000E+00  0.00000000000E+00  0.55832645632E+03  0.55832645632E+03  0.00000000000E+00 0. -1.
         21   -1    0    0  501  503 -0.00000000000E+00 -0.00000000000E+00 -0.68264220403E+03  0.68264220403E+03  0.00000000000E+00 0. -1.
    9000007    1    1    2  501    0 -0.12240627439E+03 -0.44198237386E+01 -0.51847351381E+03  0.66619637898E+03  0.40000000000E+03 0. -1.
   -9000007    1    1    2    0  502  0.12240627439E+03  0.44198237386E+01  0.39415776610E+03  0.57477228137E+03  0.40000000000E+03 0. -1.
<mgrwt>
<rscale>  2 0.41833340E+03</rscale>
<asrwt>0</asrwt>
<pdfrwt beam="1">  1       21 0.85896378E-01 0.41833340E+03</pdfrwt>
<pdfrwt beam="2">  1       21 0.10502188E+00 0.41833340E+03</pdfrwt>
<totfact> 0.73110968E+02</totfact>
</mgrwt>
</event>
<event>
 4    1  0.4918322E-002  0.4633566E+03  0.7818608E-02  0.1023812E+00
         21   -1    0    0  501  502  0.00000000000E+00  0.00000000000E+00  0.10412071303E+04  0.10412071303E+04  0.00000000000E+00 0.  1.
         21   -1    0    0  502  503 -0.00000000000E+00 -0.00000000000E+00 -0.20999822895E+03  0.20999822895E+03  0.00000000000E+00 0.  1.
    9000007    1    1    2  501    0 -0.43203552276E+02  0.22985374822E+03  0.33149389343E+03  0.56972580588E+03  0.40000000000E+03 0.  1.
   -9000007    1    1    2    0  503  0.43203552276E+02 -0.22985374822E+03  0.49971500787E+03  0.68147955332E+03  0.40000000000E+03 0.  1.
<mgrwt>
<rscale>  2 0.46335655E+03</rscale>
<asrwt>0</asrwt>
<pdfrwt beam="1">  1       21 0.16018571E+00 0.46335655E+03</pdfrwt>
<pdfrwt beam="2">  1       21 0.32307420E-01 0.46335655E+03</pdfrwt>
<totfact> 0.19647979E+03</totfact>
</mgrwt>
</event>
<event>
 4    1  0.4918322E-002  0.4074266E+03  0.7818608E-02  0.1041238E+00
         21   -1    0    0  503  502  0.00000000000E+00  0.00000000000E+00  0.66181024202E+03  0.66181024202E+03  0.00000000000E+00 0. -1.
         21   -1    0    0  501  503 -0.00000000000E+00 -0.00000000000E+00 -0.33262099377E+03  0.33262099377E+03  0.00000000000E+00 0. -1.
    9000007    1    1    2  501    0  0.35797794963E+02  0.68665771965E+02 -0.81977688058E+02  0.41559212180E+03  0.40000000000E+03 0. -1.
   -9000007    1    1    2    0  502 -0.35797794963E+02 -0.68665771965E+02  0.41116693631E+03  0.57883911399E+03  0.40000000000E+03 0. -1.
<mgrwt>
<rscale>  2 0.40742664E+03</rscale>
<asrwt>0</asrwt>
<pdfrwt beam="1">  1       21 0.10181696E+00 0.40742664E+03</pdfrwt>
<pdfrwt beam="2">  1       21 0.51172461E-01 0.40742664E+03</pdfrwt>
<totfact> 0.25135263E+03</totfact>
</mgrwt>
</event>
<event>
 4    1  0.4918322E-002  0.4210628E+03  0.7818608E-02  0.1036721E+00
         21   -1    0    0  501  502  0.00000000000E+00  0.00000000000E+00  0.28717540447E+03  0.28717540447E+03  0.00000000000E+00 0.  1.
         21   -1    0    0  502  503 -0.00000000000E+00 -0.00000000000E+00 -0.65360450690E+03  0.65360450690E+03  0.00000000000E+00 0.  1.
    9000007    1    1    2  501    0 -0.10068816349E+03  0.84591964281E+02 -0.29396685849E+03  0.51352742924E+03  0.40000000000E+03 0.  1.
   -9000007    1    1    2    0  503  0.10068816349E+03 -0.84591964281E+02 -0.72462243941E+02  0.42725248213E+03  0.40000000000E+03 0.  1.
<mgrwt>
<rscale>  2 0.42106283E+03</rscale>
<asrwt>0</asrwt>
<pdfrwt beam="1">  1       21 0.44180832E-01 0.42106283E+03</pdfrwt>
<pdfrwt beam="2">  1       21 0.10055454E+00 0.42106283E+03</pdfrwt>
<totfact> 0.35129434E+03</totfact>
</mgrwt>
</event>
<event>
 4    1  0.4918322E-002  0.4275914E+03  0.7818608E-02  0.1034624E+00
         21   -1    0    0  501  502  0.00000000000E+00  0.00000000000E+00  0.17152982543E+03  0.17152982543E+03  0.00000000000E+00 0.  1.
         21   -1    0    0  502  503 -0.00000000000E+00 -0.00000000000E+00 -0.13175856551E+04  0.13175856551E+04  0.00000000000E+00 0. -1.
    9000007    1    1    2  501    0  0.14824696252E+03  0.29278893511E+02 -0.24761537125E+03  0.49411313237E+03  0.40000000000E+03 0.  1.
   -9000007    1    1    2    0  503 -0.14824696252E+03 -0.29278893511E+02 -0.89844045841E+03  0.99500234814E+03  0.40000000000E+03 0. -1.
<mgrwt>
<rscale>  2 0.42759141E+03</rscale>
<asrwt>0</asrwt>
<pdfrwt beam="1">  1       21 0.26389204E-01 0.42759141E+03</pdfrwt>
<pdfrwt beam="2">  1       21 0.20270549E+00 0.42759141E+03</pdfrwt>
<totfact> 0.14954365E+03</totfact>
</mgrwt>
</event>
<event>
 4    1  0.4918322E-002  0.6722511E+03  0.7818608E-02  0.9765900E-01
         21   -1    0    0  501  502  0.00000000000E+00  0.00000000000E+00  0.92345000325E+03  0.92345000325E+03  0.00000000000E+00 0. -1.
         21   -1    0    0  502  503 -0.00000000000E+00 -0.00000000000E+00 -0.49106664397E+03  0.49106664397E+03  0.00000000000E+00 0.  1.
    9000007    1    1    2  501    0  0.69128457736E+02 -0.53585701489E+03  0.25759432070E+03  0.71991410469E+03  0.40000000000E+03 0.  1.
   -9000007    1    1    2    0  503 -0.69128457736E+02  0.53585701489E+03  0.17478903858E+03  0.69460254253E+03  0.40000000000E+03 0. -1.
<mgrwt>
<rscale>  2 0.67225106E+03</rscale>
<asrwt>0</asrwt>
<pdfrwt beam="1">  1       21 0.14206923E+00 0.67225106E+03</pdfrwt>
<pdfrwt beam="2">  1       21 0.75548715E-01 0.67225106E+03</pdfrwt>
<totfact> 0.41267776E+02</totfact>
</mgrwt>
</event>
<event>
 4    1  0.4918322E-002  0.5000581E+03  0.7818608E-02  0.1013764E+00
         21   -1    0    0  503  502  0.00000000000E+00  0.00000000000E+00  0.37282176977E+03  0.37282176977E+03  0.00000000000E+00 0. -1.
         21   -1    0    0  501  503 -0.00000000000E+00 -0.00000000000E+00 -0.11827823229E+04  0.11827823229E+04  0.00000000000E+00 0.  1.
    9000007    1    1    2  501    0 -0.50799464536E+02 -0.29576594299E+03 -0.91675537162E+03  0.10442693570E+04  0.40000000000E+03 0.  1.
   -9000007    1    1    2    0  502  0.50799464536E+02  0.29576594299E+03  0.10679481849E+03  0.51133473565E+03  0.40000000000E+03 0. -1.
<mgrwt>
<rscale>  2 0.50005808E+03</rscale>
<asrwt>0</asrwt>
<pdfrwt beam="1">  1       21 0.57357194E-01 0.50005808E+03</pdfrwt>
<pdfrwt beam="2">  1       21 0.18196651E+00 0.50005808E+03</pdfrwt>
<totfact> 0.40539772E+02</totfact>
</mgrwt>
</event>
<event>
 4    1  0.4918322E-002  0.4629024E+03  0.7818608E-02  0.1023943E+00
         21   -1    0    0  503  502  0.00000000000E+00  0.00000000000E+00  0.20235013255E+03  0.20235013255E+03  0.00000000000E+00 0.  1.
         21   -1    0    0  501  503 -0.00000000000E+00 -0.00000000000E+00 -0.17005787627E+04  0.17005787627E+04  0.00000000000E+00 0.  1.
    9000007    1    1    2  501    0 -0.10987221759E+03  0.20544276296E+03 -0.13335492499E+04  0.14116062606E+04  0.40000000000E+03 0.  1.
   -9000007    1    1    2    0  502  0.10987221759E+03 -0.20544276296E+03 -0.16467938026E+03  0.49132263467E+03  0.40000000000E+03 0.  1.
<mgrwt>
<rscale>  2 0.46290240E+03</rscale>
<asrwt>0</asrwt>
<pdfrwt beam="1">  1       21 0.31130791E-01 0.46290240E+03</pdfrwt>
<pdfrwt beam="2">  1       21 0.26162749E+00 0.46290240E+03</pdfrwt>
<totfact> 0.45114743E+02</totfact>
</mgrwt>
</event>
<event>
 4    1  0.4918322E-002  0.5104109E+03  0.7818608E-02  0.1011097E+00
         21   -1    0    0  501  502  0.00000000000E+00  0.00000000000E+00  0.21408409301E+04  0.21408409301E+04  0.00000000000E+00 0. -1.
         21   -1    0    0  502  503 -0.00000000000E+00 -0.00000000000E+00 -0.12259384988E+03  0.12259384988E+03  0.00000000000E+00 0. -1.
    9000007    1    1    2  501    0 -0.30265790805E+03 -0.94432421014E+02  0.11062889185E+04  0.12183572804E+04  0.40000000000E+03 0. -1.
   -9000007    1    1    2    0  503  0.30265790805E+03  0.94432421014E+02  0.91195816173E+03  0.10450774996E+04  0.40000000000E+03 0. -1.
<mgrwt>
<rscale>  2 0.51041090E+03</rscale>
<asrwt>0</asrwt>
<pdfrwt beam="1">  1       21 0.32936012E+00 0.51041090E+03</pdfrwt>
<pdfrwt beam="2">  1       21 0.18860594E-01 0.51041090E+03</pdfrwt>
<totfact> 0.45357621E+02</totfact>
</mgrwt>
</event>
<event>
 4    1  0.4918322E-002  0.6896462E+03  0.7818608E-02  0.9735104E-01
         21   -1    0    0  503  502  0.00000000000E+00  0.00000000000E+00  0.36813536241E+03  0.36813536241E+03  0.00000000000E+00 0.  1.
         21   -1    0    0  501  503 -0.00000000000E+00 -0.00000000000E+00 -0.13006544809E+04  0.13006544809E+04  0.00000000000E+00 0. -1.
    9000007    1    1    2  501    0 -0.38609951485E+03  0.40809190987E+03 -0.39799340609E+03  0.79624782170E+03  0.40000000000E+03 0.  1.
   -9000007    1    1    2    0  502  0.38609951485E+03 -0.40809190987E+03 -0.53452571245E+03  0.87254202165E+03  0.40000000000E+03 0. -1.
<mgrwt>
<rscale>  2 0.68964617E+03</rscale>
<asrwt>0</asrwt>
<pdfrwt beam="1">  1       21 0.56636210E-01 0.68964617E+03</pdfrwt>
<pdfrwt beam="2">  1       21 0.20010069E+00 0.68964617E+03</pdfrwt>
<totfact> 0.29101928E+02</totfact>
</mgrwt>
</event>
<event>
 4    1  0.4918322E-002  0.4729891E+03  0.7818608E-02  0.1021080E+00
         21   -1    0    0  503  502  0.00000000000E+00  0.00000000000E+00  0.27048481589E+03  0.27048481589E+03  0.00000000000E+00 0. -1.
         21   -1    0    0  501  503 -0.00000000000E+00 -0.00000000000E+00 -0.82740921980E+03  0.82740921980E+03  0.00000000000E+00 0. -1.
    9000007    1    1    2  501    0  0.24222732618E+03 -0.71025136516E+02 -0.28903264390E+03  0.55430904449E+03  0.40000000000E+03 0. -1.
   -9000007    1    1    2    0  502 -0.24222732618E+03  0.71025136516E+02 -0.26789176002E+03  0.54358499119E+03  0.40000000000E+03 0. -1.
<mgrwt>
<rscale>  2 0.47298906E+03</rscale>
<asrwt>0</asrwt>
<pdfrwt beam="1">  1       21 0.41613049E-01 0.47298906E+03</pdfrwt>
<pdfrwt beam="2">  1       21 0.12729372E+00 0.47298906E+03</pdfrwt>
<totfact> 0.21634213E+03</totfact>
</mgrwt>
</event>
<event>
 4    1  0.4918322E-002  0.5227083E+03  0.7818608E-02  0.1008016E+00
         21   -1    0    0  501  502  0.00000000000E+00  0.00000000000E+00  0.63781664209E+03  0.63781664209E+03  0.00000000000E+00 0. -1.
         21   -1    0    0  502  503 -0.00000000000E+00 -0.00000000000E+00 -0.45486651934E+03  0.45486651934E+03  0.00000000000E+00 0.  1.
    9000007    1    1    2  501    0 -0.33316422990E+03  0.47175429832E+02  0.22332675442E+03  0.56841777286E+03  0.40000000000E+03 0. -1.
   -9000007    1    1    2    0  503  0.33316422990E+03 -0.47175429832E+02 -0.40376631664E+02  0.52426538857E+03  0.40000000000E+03 0. -1.
<mgrwt>
<rscale>  2 0.52270826E+03</rscale>
<asrwt>0</asrwt>
<pdfrwt beam="1">  1       21 0.98125638E-01 0.52270826E+03</pdfrwt>
<pdfrwt beam="2">  1       21 0.69979464E-01 0.52270826E+03</pdfrwt>
<totfact> 0.13264896E+03</totfact>
</mgrwt>
</event>
<event>
 4    1  0.4918322E-002  0.5017498E+03  0.7818608E-02  0.1013323E+00
         21   -1    0    0  501  502  0.00000000000E+00  0.00000000000E+00  0.21390898442E+04  0.21390898442E+04  0.00000000000E+00 0. -1.
         21   -1    0    0  502  503 -0.00000000000E+00 -0.00000000000E+00 -0.11940867958E+03  0.11940867958E+03  0.00000000000E+00 0. -1.
    9000007    1    1    2  501    0 -0.14404261619E+03 -0.26646694992E+03  0.11452555971E+04  0.12503452697E+04  0.40000000000E+03 0. -1.
   -9000007    1    1    2    0  503  0.14404261619E+03  0.26646694992E+03  0.87442556750E+03  0.10081532541E+04  0.40000000000E+03 0. -1.
<mgrwt>
<rscale>  2 0.50174985E+03</rscale>
<asrwt>0</asrwt>
<pdfrwt beam="1">  1       21 0.32909072E+00 0.50174985E+03</pdfrwt>
<pdfrwt beam="2">  1       21 0.18370568E-01 0.50174985E+03</pdfrwt>
<totfact> 0.48069076E+02</totfact>
</mgrwt>
</event>
<event>
 4    1  0.4918322E-002  0.4816408E+03  0.7818608E-02  0.1018685E+00
         21   -1    0    0  503  502  0.00000000000E+00  0.00000000000E+00  0.55279812155E+03  0.55279812155E+03  0.00000000000E+00 0.  1.
         21   -1    0    0  501  503 -0.00000000000E+00 -0.00000000000E+00 -0.55431339845E+03  0.55431339845E+03  0.00000000000E+00 0.  1.
    9000007    1    1    2  501    0  0.68709190593E+02  0.25933945117E+03 -0.27360492370E+03  0.55392919952E+03  0.40000000000E+03 0.  1.
   -9000007    1    1    2    0  502 -0.68709190593E+02 -0.25933945117E+03  0.27208964679E+03  0.55318232049E+03  0.40000000000E+03 0.  1.
<mgrwt>
<rscale>  2 0.48164085E+03</rscale>
<asrwt>0</asrwt>
<pdfrwt beam="1">  1       21 0.85045865E-01 0.48164085E+03</pdfrwt>
<pdfrwt beam="2">  1       21 0.85278984E-01 0.48164085E+03</pdfrwt>
<totfact> 0.12008788E+03</totfact>
</mgrwt>
</event>
<event>
 4    1  0.4918322E-002  0.4146098E+03  0.7818608E-02  0.1038835E+00
         21   -1    0    0  501  502  0.00000000000E+00  0.00000000000E+00  0.74980457390E+03  0.74980457390E+03  0.00000000000E+00 0. -1.
         21   -1    0    0  502  503 -0.00000000000E+00 -0.00000000000E+00 -0.35749788875E+03  0.35749788875E+03  0.00000000000E+00 0.  1.
    9000007    1    1    2  501    0 -0.75287083458E+02  0.78950312354E+02  0.52774624385E+03  0.67113142875E+03  0.40000000000E+03 0. -1.
   -9000007    1    1    2    0  503  0.75287083458E+02 -0.78950312354E+02 -0.13543955870E+03  0.43617103391E+03  0.40000000000E+03 0.  1.
<mgrwt>
<rscale>  2 0.41460981E+03</rscale>
<asrwt>0</asrwt>
<pdfrwt beam="1">  1       21 0.11535455E+00 0.41460981E+03</pdfrwt>
<pdfrwt beam="2">  1       21 0.54999675E-01 0.41460981E+03</pdfrwt>
<totfact> 0.15777504E+03</totfact>
</mgrwt>
</event>
<event>
 4    1  0.4918322E-002  0.5317573E+03  0.7818608E-02  0.1005807E+00
         21   -1    0    0  501  502  0.00000000000E+00  0.00000000000E+00  0.76128697984E+03  0.76128697984E+03  0.00000000000E+00 0. -1.
         21   -1    0    0  502  503 -0.00000000000E+00 -0.00000000000E+00 -0.39637024222E+03  0.39637024222E+03  0.00000000000E+00 0. -1.
    9000007    1    1    2  501    0  0.20817235096E+03  0.28183337626E+03  0.32764908910E+03  0.62459563340E+03  0.40000000000E+03 0. -1.
   -9000007    1    1    2    0  503 -0.20817235096E+03 -0.28183337626E+03  0.37267648522E+02  0.53306158866E+03  0.40000000000E+03 0. -1.
<mgrwt>
<rscale>  2 0.53175726E+03</rscale>
<asrwt>0</asrwt>
<pdfrwt beam="1">  1       21 0.11712107E+00 0.53175726E+03</pdfrwt>
<pdfrwt beam="2">  1       21 0.60980037E-01 0.53175726E+03</pdfrwt>
<totfact> 0.11596593E+03</totfact>
</mgrwt>
</event>
<event>
 4    1  0.4918322E-002  0.4444661E+03  0.7818608E-02  0.1029385E+00
         21   -1    0    0  501  502  0.00000000000E+00  0.00000000000E+00  0.11331582183E+04  0.11331582183E+04  0.00000000000E+00 0.  1.
         21   -1    0    0  502  503 -0.00000000000E+00 -0.00000000000E+00 -0.18684444578E+03  0.18684444578E+03  0.00000000000E+00 0. -1.
    9000007    1    1    2  501    0 -0.71545538904E+02 -0.18008712750E+03  0.30238812164E+03  0.53757670498E+03  0.40000000000E+03 0. -1.
   -9000007    1    1    2    0  503  0.71545538904E+02  0.18008712750E+03  0.64392565092E+03  0.78242595915E+03  0.40000000000E+03 0.  1.
<mgrwt>
<rscale>  2 0.44446613E+03</rscale>
<asrwt>0</asrwt>
<pdfrwt beam="1">  1       21 0.17433203E+00 0.44446613E+03</pdfrwt>
<pdfrwt beam="2">  1       21 0.28745300E-01 0.44446613E+03</pdfrwt>
<totfact> 0.19660294E+03</totfact>
</mgrwt>
</event>
<event>
 4    1  0.4918322E-002  0.4549519E+03  0.7818608E-02  0.1026256E+00
         21   -1    0    0  503  502  0.00000000000E+00  0.00000000000E+00  0.31918741140E+03  0.31918741140E+03  0.00000000000E+00 0. -1.
         21   -1    0    0  501  503 -0.00000000000E+00 -0.00000000000E+00 -0.88924902831E+03  0.88924902831E+03  0.00000000000E+00 0. -1.
    9000007    1    1    2  501    0  0.21610908519E+03  0.16676548641E+02 -0.59944179205E+03  0.75253684696E+03  0.40000000000E+03 0. -1.
   -9000007    1    1    2    0  502 -0.21610908519E+03 -0.16676548641E+02  0.29380175137E+02  0.45589959275E+03  0.40000000000E+03 0. -1.
<mgrwt>
<rscale>  2 0.45495191E+03</rscale>
<asrwt>0</asrwt>
<pdfrwt beam="1">  1       21 0.49105756E-01 0.45495191E+03</pdfrwt>
<pdfrwt beam="2">  1       21 0.13680754E+00 0.45495191E+03</pdfrwt>
<totfact> 0.12756982E+03</totfact>
</mgrwt>
</event>
<event>
 4    1  0.4918322E-002  0.4948858E+03  0.7818608E-02  0.1015122E+00
         21   -1    0    0  501  502  0.00000000000E+00  0.00000000000E+00  0.34625394360E+03  0.34625394360E+03  0.00000000000E+00 0. -1.
         21   -1    0    0  502  503 -0.00000000000E+00 -0.00000000000E+00 -0.14615915907E+04  0.14615915907E+04  0.00000000000E+00 0. -1.
    9000007    1    1    2  501    0  0.10292344836E+03 -0.27261453960E+03  0.91686684060E+02  0.50330743235E+03  0.40000000000E+03 0. -1.
   -9000007    1    1    2    0  503 -0.10292344836E+03  0.27261453960E+03 -0.12070243312E+04  0.13045381019E+04  0.40000000000E+03 0. -1.
<mgrwt>
<rscale>  2 0.49488577E+03</rscale>
<asrwt>0</asrwt>
<pdfrwt beam="1">  1       21 0.53269839E-01 0.49488577E+03</pdfrwt>
<pdfrwt beam="2">  1       21 0.22486024E+00 0.49488577E+03</pdfrwt>
<totfact> 0.24696699E+02</totfact>
</mgrwt>
</event>
<event>
 4    1  0.4918322E-002  0.4114231E+03  0.7818608E-02  0.1039895E+00
         21   -1    0    0  503  502  0.00000000000E+00  0.00000000000E+00  0.15980129008E+04  0.15980129008E+04  0.00000000000E+00 0. -1.
         21   -1    0    0  501  503 -0.00000000000E+00 -0.00000000000E+00 -0.44339733231E+03  0.44339733231E+03  0.00000000000E+00 0. -1.
    9000007    1    1    2  501    0  0.78078668575E+02 -0.56326688161E+02 -0.31316993762E+03  0.51705356020E+03  0.40000000000E+03 0. -1.
   -9000007    1    1    2    0  502 -0.78078668575E+02  0.56326688161E+02  0.14677855061E+04  0.15243566729E+04  0.40000000000E+03 0. -1.
<mgrwt>
<rscale>  2 0.41142311E+03</rscale>
<asrwt>0</asrwt>
<pdfrwt beam="1">  1       21 0.24584814E+00 0.41142311E+03</pdfrwt>
<pdfrwt beam="2">  1       21 0.68214975E-01 0.41142311E+03</pdfrwt>
<totfact> 0.11131157E+02</totfact>
</mgrwt>
</event>
<event>
 4    1  0.4918322E-002  0.4137176E+03  0.7818608E-02  0.1039131E+00
         21   -1    0    0  501  502  0.00000000000E+00  0.00000000000E+00  0.51860195447E+03  0.51860195447E+03  0.00000000000E+00 0.  1.
         21   -1    0    0  502  503 -0.00000000000E+00 -0.00000000000E+00 -0.93645814437E+03  0.93645814437E+03  0.00000000000E+00 0.  1.
    9000007    1    1    2  501    0 -0.98627766675E+01 -0.10519022244E+03  0.37652332470E+03  0.55940331721E+03  0.40000000000E+03 0.  1.
   -9000007    1    1    2    0  503  0.98627766675E+01  0.10519022244E+03 -0.79437951460E+03  0.89565678163E+03  0.40000000000E+03 0.  1.
<mgrwt>
<rscale>  2 0.41371761E+03</rscale>
<asrwt>0</asrwt>
<pdfrwt beam="1">  1       21 0.79784917E-01 0.41371761E+03</pdfrwt>
<pdfrwt beam="2">  1       21 0.14407048E+00 0.41371761E+03</pdfrwt>
<totfact> 0.38793303E+02</totfact>
</mgrwt>
</event>
<event>
 4    1  0.4918322E-002  0.5272176E+03  0.7818608E-02  0.1006909E+00
         21   -1    0    0  501  502  0.00000000000E+00  0.00000000000E+00  0.61009030313E+03  0.61009030313E+03  0.00000000000E+00 0. -1.
         21   -1    0    0  502  503 -0.00000000000E+00 -0.00000000000E+00 -0.59829636504E+03  0.59829636504E+03  0.00000000000E+00 0.  1.
    9000007    1    1    2  501    0  0.33752224134E+03  0.63538357459E+02  0.30096428023E+03  0.60707321160E+03  0.40000000000E+03 0. -1.
   -9000007    1    1    2    0  503 -0.33752224134E+03 -0.63538357459E+02 -0.28917034215E+03  0.60131345657E+03  0.40000000000E+03 0.  1.
<mgrwt>
<rscale>  2 0.52721759E+03</rscale>
<asrwt>0</asrwt>
<pdfrwt beam="1">  1       21 0.93860046E-01 0.52721759E+03</pdfrwt>
<pdfrwt beam="2">  1       21 0.92045595E-01 0.52721759E+03</pdfrwt>
<totfact> 0.78019042E+02</totfact>
</mgrwt>
</event>
<event>
 4    1  0.4918322E-002  0.4876988E+03  0.7818608E-02  0.1017041E+00
         21   -1    0    0  501  502  0.00000000000E+00  0.00000000000E+00  0.61076208982E+03  0.61076208982E+03  0.00000000000E+00 0.  1.
         21   -1    0    0  502  503 -0.00000000000E+00 -0.00000000000E+00 -0.42733653086E+03  0.42733653086E+03  0.00000000000E+00 0.  1.
    9000007    1    1    2  501    0  0.26200719222E+03 -0.95929046624E+02  0.24629893310E+03  0.54636372062E+03  0.40000000000E+03 0.  1.
   -9000007    1    1    2    0  503 -0.26200719222E+03  0.95929046624E+02 -0.62873374139E+02  0.49173490006E+03  0.40000000000E+03 0.  1.
<mgrwt>
<rscale>  2 0.48769883E+03</rscale>
<asrwt>0</asrwt>
<pdfrwt beam="1">  1       21 0.93963398E-01 0.48769883E+03</pdfrwt>
<pdfrwt beam="2">  1       21 0.65744082E-01 0.48769883E+03</pdfrwt>
<totfact> 0.17145815E+03</totfact>
</mgrwt>
</event>
<event>
 4    1  0.4918322E-002  0.4278399E+03  0.7818608E-02  0.1034545E+00
         21   -1    0    0  503  502  0.00000000000E+00  0.00000000000E+00  0.28524855856E+03  0.28524855856E+03  0.00000000000E+00 0.  1.
         21   -1    0    0  501  503 -0.00000000000E+00 -0.00000000000E+00 -0.71345050821E+03  0.71345050821E+03  0.00000000000E+00 0.  1.
    9000007    1    1    2  501    0 -0.14079890537E+03  0.56768041596E+02 -0.37244584352E+03  0.56724143771E+03  0.40000000000E+03 0.  1.
   -9000007    1    1    2    0  502  0.14079890537E+03 -0.56768041596E+02 -0.55756106123E+02  0.43145762905E+03  0.40000000000E+03 0.  1.
<mgrwt>
<rscale>  2 0.42783986E+03</rscale>
<asrwt>0</asrwt>
<pdfrwt beam="1">  1       21 0.43884394E-01 0.42783986E+03</pdfrwt>
<pdfrwt beam="2">  1       21 0.10976162E+00 0.42783986E+03</pdfrwt>
<totfact> 0.28653214E+03</totfact>
</mgrwt>
</event>
<event>
 4    1  0.4918322E-002  0.5084637E+03  0.7818608E-02  0.1011593E+00
         21   -1    0    0  501  502  0.00000000000E+00  0.00000000000E+00  0.24465157594E+03  0.24465157594E+03  0.00000000000E+00 0.  1.
         21   -1    0    0  502  503 -0.00000000000E+00 -0.00000000000E+00 -0.23925790298E+04  0.23925790298E+04  0.00000000000E+00 0.  1.
    9000007    1    1    2  501    0 -0.24634473847E+03 -0.19454984912E+03 -0.88681785402E+02  0.51613935427E+03  0.40000000000E+03 0.  1.
   -9000007    1    1    2    0  503  0.24634473847E+03  0.19454984912E+03 -0.20592456684E+04  0.21210912514E+04  0.40000000000E+03 0.  1.
<mgrwt>
<rscale>  2 0.50846374E+03</rscale>
<asrwt>0</asrwt>
<pdfrwt beam="1">  1       21 0.37638705E-01 0.50846374E+03</pdfrwt>
<pdfrwt beam="2">  1       21 0.36808907E+00 0.50846374E+03</pdfrwt>
<totfact> 0.67282365E+01</totfact>
</mgrwt>
</event>
<event>
 4    1  0.4918322E-002  0.4812093E+03  0.7818608E-02  0.1018803E+00
         21   -1    0    0  501  502  0.00000000000E+00  0.00000000000E+00  0.26113480261E+03  0.26113480261E+03  0.00000000000E+00 0.  1.
         21   -1    0    0  502  503 -0.00000000000E+00 -0.00000000000E+00 -0.94567674035E+03  0.94567674035E+03  0.00000000000E+00 0. -1.
    9000007    1    1    2  501    0 -0.20374026848E+03 -0.17335589289E+03 -0.19165218906E+03  0.51797000316E+03  0.40000000000E+03 0.  1.
   -9000007    1    1    2    0  503  0.20374026848E+03  0.17335589289E+03 -0.49288974868E+03  0.68884153980E+03  0.40000000000E+03 0.  1.
<mgrwt>
<rscale>  2 0.48120927E+03</rscale>
<asrwt>0</asrwt>
<pdfrwt beam="1">  1       21 0.40174585E-01 0.48120927E+03</pdfrwt>
<pdfrwt beam="2">  1       21 0.14548873E+00 0.48120927E+03</pdfrwt>
<totfact> 0.16306064E+03</totfact>
</mgrwt>
</event>
<event>
 4    1  0.4918322E-002  0.4994307E+03  0.7818608E-02  0.1013928E+00
         21   -1    0    0  501  502  0.00000000000E+00  0.00000000000E+00  0.58470312955E+03  0.58470312955E+03  0.00000000000E+00 0. -1.
         21   -1    0    0  502  503 -0.00000000000E+00 -0.00000000000E+00 -0.61969305715E+03  0.61969305715E+03  0.00000000000E+00 0.  1.
    9000007    1    1    2  501    0  0.87386777094E+02  0.28599749219E+03  0.31866099599E+03  0.59243214355E+03  0.40000000000E+03 0. -1.
   -9000007    1    1    2    0  503 -0.87386777094E+02 -0.28599749219E+03 -0.35365092359E+03  0.61196404315E+03  0.40000000000E+03 0.  1.
<mgrwt>
<rscale>  2 0.49943069E+03</rscale>
<asrwt>0</asrwt>
<pdfrwt beam="1">  1       21 0.89954328E-01 0.49943069E+03</pdfrwt>
<pdfrwt beam="2">  1       21 0.95337393E-01 0.49943069E+03</pdfrwt>
<totfact> 0.80183909E+02</totfact>
</mgrwt>
</event>
<event>
 4    1  0.4918322E-002  0.4265517E+03  0.7818608E-02  0.1034955E+00
         21   -1    0    0  503  502  0.00000000000E+00  0.00000000000E+00  0.76589933371E+03  0.76589933371E+03  0.00000000000E+00 0.  1.
         21   -1    0    0  501  503 -0.00000000000E+00 -0.00000000000E+00 -0.35552209530E+03  0.35552209530E+03  0.00000000000E+00 0.  1.
    9000007    1    1    2  501    0 -0.14753518552E+03  0.13406188370E+02  0.52817071725E+03  0.67890401635E+03  0.40000000000E+03 0.  1.
   -9000007    1    1    2    0  502  0.14753518552E+03 -0.13406188370E+02 -0.11779347884E+03  0.44251741266E+03  0.40000000000E+03 0.  1.
<mgrwt>
<rscale>  2 0.42655170E+03</rscale>
<asrwt>0</asrwt>
<pdfrwt beam="1">  1       21 0.11783067E+00 0.42655170E+03</pdfrwt>
<pdfrwt beam="2">  1       21 0.54695707E-01 0.42655170E+03</pdfrwt>
<totfact> 0.15064621E+03</totfact>
</mgrwt>
</event>
<event>
 4    1  0.4918322E-002  0.5703852E+03  0.7818608E-02  0.9968827E-01
         21   -1    0    0  503  502  0.00000000000E+00  0.00000000000E+00  0.27563134523E+03  0.27563134523E+03  0.00000000000E+00 0.  1.
         21   -1    0    0  501  503 -0.00000000000E+00 -0.00000000000E+00 -0.11804170526E+04  0.11804170526E+04  0.00000000000E+00 0. -1.
    9000007    1    1    2  501    0  0.33400399245E+02  0.40524516820E+03 -0.45820081348E+03  0.73163325410E+03  0.40000000000E+03 0.  1.
   -9000007    1    1    2    0  502 -0.33400399245E+02 -0.40524516820E+03 -0.44658489389E+03  0.72441514373E+03  0.40000000000E+03 0. -1.
<mgrwt>
<rscale>  2 0.57038516E+03</rscale>
<asrwt>0</asrwt>
<pdfrwt beam="1">  1       21 0.42404822E-01 0.57038516E+03</pdfrwt>
<pdfrwt beam="2">  1       21 0.18160263E+00 0.57038516E+03</pdfrwt>
<totfact> 0.75518760E+02</totfact>
</mgrwt>
</event>
<event>
 4    1  0.4918322E-002  0.4829816E+03  0.7818608E-02  0.1018319E+00
         21   -1    0    0  501  502  0.00000000000E+00  0.00000000000E+00  0.60333011346E+03  0.60333011346E+03  0.00000000000E+00 0. -1.
         21   -1    0    0  502  503 -0.00000000000E+00 -0.00000000000E+00 -0.49598088313E+03  0.49598088313E+03  0.00000000000E+00 0. -1.
    9000007    1    1    2  501    0 -0.23671105181E+03 -0.13129770780E+03  0.31175234628E+03  0.57485714359E+03  0.40000000000E+03 0. -1.
   -9000007    1    1    2    0  503  0.23671105181E+03  0.13129770780E+03 -0.20440311595E+03  0.52445385301E+03  0.40000000000E+03 0. -1.
<mgrwt>
<rscale>  2 0.48298158E+03</rscale>
<asrwt>0</asrwt>
<pdfrwt beam="1">  1       21 0.92820018E-01 0.48298158E+03</pdfrwt>
<pdfrwt beam="2">  1       21 0.76304751E-01 0.48298158E+03</pdfrwt>
<totfact> 0.12628331E+03</totfact>
</mgrwt>
</event>
<event>
 4    1  0.4918322E-002  0.4565522E+03  0.7818608E-02  0.1025786E+00
         21   -1    0    0  501  502  0.00000000000E+00  0.00000000000E+00  0.14848074153E+04  0.14848074153E+04  0.00000000000E+00 0. -1.
         21   -1    0    0  502  503 -0.00000000000E+00 -0.00000000000E+00 -0.14144955760E+03  0.14144955760E+03  0.00000000000E+00 0. -1.
    9000007    1    1    2  501    0 -0.14743739281E+03 -0.16340772240E+03  0.60103022865E+03  0.75476963657E+03  0.40000000000E+03 0. -1.
   -9000007    1    1    2    0  503  0.14743739281E+03  0.16340772240E+03  0.74232762907E+03  0.87148733635E+03  0.40000000000E+03 0. -1.
<mgrwt>
<rscale>  2 0.45655215E+03</rscale>
<asrwt>0</asrwt>
<pdfrwt beam="1">  1       21 0.22843190E+00 0.45655215E+03</pdfrwt>
<pdfrwt beam="2">  1       21 0.21761471E-01 0.45655215E+03</pdfrwt>
<totfact> 0.14631461E+03</totfact>
</mgrwt>
</event>
<event>
 4    1  0.4918322E-002  0.4175876E+03  0.7818608E-02  0.1037854E+00
         21   -1    0    0  503  502  0.00000000000E+00  0.00000000000E+00  0.14057978747E+04  0.14057978747E+04  0.00000000000E+00 0.  1.
         21   -1    0    0  501  503 -0.00000000000E+00 -0.00000000000E+00 -0.12616818193E+03  0.12616818193E+03  0.00000000000E+00 0.  1.
    9000007    1    1    2  501    0 -0.95036232120E+02  0.73126711427E+02  0.54040231090E+03  0.68294513613E+03  0.40000000000E+03 0.  1.
   -9000007    1    1    2    0  502  0.95036232120E+02 -0.73126711427E+02  0.73922738189E+03  0.84902092052E+03  0.40000000000E+03 0.  1.
<mgrwt>
<rscale>  2 0.41758760E+03</rscale>
<asrwt>0</asrwt>
<pdfrwt beam="1">  1       21 0.21627659E+00 0.41758760E+03</pdfrwt>
<pdfrwt beam="2">  1       21 0.19410490E-01 0.41758760E+03</pdfrwt>
<totfact> 0.22135773E+03</totfact>
</mgrwt>
</event>
<event>
 4    1  0.4918322E-002  0.7446450E+03  0.7818608E-02  0.9643789E-01
         21   -1    0    0  503  502  0.00000000000E+00  0.00000000000E+00  0.11441962926E+04  0.11441962926E+04  0.00000000000E+00 0.  1.
         21   -1    0    0  501  503 -0.00000000000E+00 -0.00000000000E+00 -0.54418446333E+03  0.54418446333E+03  0.00000000000E+00 0.  1.
    9000007    1    1    2  501    0 -0.49723423054E+03  0.38373726498E+03  0.20703654445E+02  0.74493275526E+03  0.40000000000E+03 0.  1.
   -9000007    1    1    2    0  502  0.49723423054E+03 -0.38373726498E+03  0.57930817486E+03  0.94344800069E+03  0.40000000000E+03 0.  1.
<mgrwt>
<rscale>  2 0.74464499E+03</rscale>
<asrwt>0</asrwt>
<pdfrwt beam="1">  1       21 0.17603020E+00 0.74464499E+03</pdfrwt>
<pdfrwt beam="2">  1       21 0.83720687E-01 0.74464499E+03</pdfrwt>
<totfact> 0.17368848E+02</totfact>
</mgrwt>
</event>
<event>
 4    1  0.4918322E-002  0.4157680E+03  0.7818608E-02  0.1038453E+00
         21   -1    0    0  503  502  0.00000000000E+00  0.00000000000E+00  0.87729778558E+03  0.87729778558E+03  0.00000000000E+00 0. -1.
         21   -1    0    0  501  503 -0.00000000000E+00 -0.00000000000E+00 -0.58372868758E+03  0.58372868758E+03  0.00000000000E+00 0. -1.
    9000007    1    1    2  501    0  0.79262440256E+02 -0.81120250302E+02 -0.44778563831E+03  0.61104419424E+03  0.40000000000E+03 0. -1.
   -9000007    1    1    2    0  502 -0.79262440256E+02  0.81120250302E+02  0.74135473630E+03  0.84998227892E+03  0.40000000000E+03 0. -1.
<mgrwt>
<rscale>  2 0.41576800E+03</rscale>
<asrwt>0</asrwt>
<pdfrwt beam="1">  1       21 0.13496889E+00 0.41576800E+03</pdfrwt>
<pdfrwt beam="2">  1       21 0.89804413E-01 0.41576800E+03</pdfrwt>
<totfact> 0.34954182E+02</totfact>
</mgrwt>
</event>
<event>
 4    1  0.4918322E-002  0.4764167E+03  0.7818608E-02  0.1020125E+00
         21   -1    0    0  501  502  0.00000000000E+00  0.00000000000E+00  0.91767445430E+03  0.91767445430E+03  0.00000000000E+00 0. -1.
         21   -1    0    0  502  503 -0.00000000000E+00 -0.00000000000E+00 -0.28942229018E+03  0.28942229018E+03  0.00000000000E+00 0. -1.
    9000007    1    1    2  501    0  0.20648192780E+03 -0.15600653339E+03  0.54428225319E+03  0.72333671005E+03  0.40000000000E+03 0. -1.
   -9000007    1    1    2    0  503 -0.20648192780E+03  0.15600653339E+03  0.83969910934E+02  0.48376003443E+03  0.40000000000E+03 0. -1.
<mgrwt>
<rscale>  2 0.47641665E+03</rscale>
<asrwt>0</asrwt>
<pdfrwt beam="1">  1       21 0.14118068E+00 0.47641665E+03</pdfrwt>
<pdfrwt beam="2">  1       21 0.44526507E-01 0.47641665E+03</pdfrwt>
<totfact> 0.14299430E+03</totfact>
</mgrwt>
</event>
<event>
 4    1  0.4918322E-002  0.4891365E+03  0.7818608E-02  0.1016654E+00
         21   -1    0    0  501  502  0.00000000000E+00  0.00000000000E+00  0.15336948563E+04  0.15336948563E+04  0.00000000000E+00 0. -1.
         21   -1    0    0  502  503 -0.00000000000E+00 -0.00000000000E+00 -0.15623044763E+03  0.15623044763E+03  0.00000000000E+00 0. -1.
    9000007    1    1    2  501    0  0.24156088700E+03 -0.14457805763E+03  0.72127221337E+03  0.87148613452E+03  0.40000000000E+03 0. -1.
   -9000007    1    1    2    0  503 -0.24156088700E+03  0.14457805763E+03  0.65619219533E+03  0.81843916945E+03  0.40000000000E+03 0. -1.
<mgrwt>
<rscale>  2 0.48913646E+03</rscale>
<asrwt>0</asrwt>
<pdfrwt beam="1">  1       21 0.23595305E+00 0.48913646E+03</pdfrwt>
<pdfrwt beam="2">  1       21 0.24035454E-01 0.48913646E+03</pdfrwt>
<totfact> 0.10671606E+03</totfact>
</mgrwt>
</event>
<event>
 4    1  0.4918322E-002  0.4043670E+03  0.7818608E-02  0.1042278E+00
         21   -1    0    0  501  502  0.00000000000E+00  0.00000000000E+00  0.14869402760E+04  0.14869402760E+04  0.00000000000E+00 0.  1.
         21   -1    0    0  502  503 -0.00000000000E+00 -0.00000000000E+00 -0.12981838477E+03  0.12981838477E+03  0.00000000000E+00 0.  1.
    9000007    1    1    2  501    0 -0.59266684569E+02  0.37707044668E+00  0.99468304422E+03  0.10737350886E+04  0.40000000000E+03 0. -1.
   -9000007    1    1    2    0  503  0.59266684569E+02 -0.37707044668E+00  0.36243884699E+03  0.54302357213E+03  0.40000000000E+03 0. -1.
<mgrwt>
<rscale>  2 0.40436701E+03</rscale>
<asrwt>0</asrwt>
<pdfrwt beam="1">  1       21 0.22876003E+00 0.40436701E+03</pdfrwt>
<pdfrwt beam="2">  1       21 0.19972060E-01 0.40436701E+03</pdfrwt>
<totfact> 0.17589318E+03</totfact>
</mgrwt>
</event>
<event>
 4    1  0.4918322E-002  0.4894442E+03  0.7818608E-02  0.1016571E+00
         21   -1    0    0  503  502  0.00000000000E+00  0.00000000000E+00  0.43286731214E+03  0.43286731214E+03  0.00000000000E+00 0. -1.
         21   -1    0    0  501  503 -0.00000000000E+00 -0.00000000000E+00 -0.70086191508E+03  0.70086191508E+03  0.00000000000E+00 0. -1.
    9000007    1    1    2  501    0  0.12881342939E+03 -0.25092367247E+03 -0.39400119685E+03  0.62832518024E+03  0.40000000000E+03 0. -1.
   -9000007    1    1    2    0  502 -0.12881342939E+03  0.25092367247E+03  0.12600659391E+03  0.50540404698E+03  0.40000000000E+03 0. -1.
<mgrwt>
<rscale>  2 0.48944416E+03</rscale>
<asrwt>0</asrwt>
<pdfrwt beam="1">  1       21 0.66594972E-01 0.48944416E+03</pdfrwt>
<pdfrwt beam="2">  1       21 0.10782491E+00 0.48944416E+03</pdfrwt>
<totfact> 0.11902255E+03</totfact>
</mgrwt>
</event>
<event>
 4    1  0.4918322E-002  0.4395480E+03  0.7818608E-02  0.1030886E+00
         21   -1    0    0  503  502  0.00000000000E+00  0.00000000000E+00  0.22223368066E+03  0.22223368066E+03  0.00000000000E+00 0.  1.
         21   -1    0    0  501  503 -0.00000000000E+00 -0.00000000000E+00 -0.14591672141E+04  0.14591672141E+04  0.00000000000E+00 0.  1.
    9000007    1    1    2  501    0 -0.17994804315E+03 -0.28656175385E+02 -0.11529590808E+04  0.12339032039E+04  0.40000000000E+03 0.  1.
   -9000007    1    1    2    0  502  0.17994804315E+03  0.28656175385E+02 -0.83974452643E+02  0.44749769085E+03  0.40000000000E+03 0.  1.
<mgrwt>
<rscale>  2 0.43954803E+03</rscale>
<asrwt>0</asrwt>
<pdfrwt beam="1">  1       21 0.34189796E-01 0.43954803E+03</pdfrwt>
<pdfrwt beam="2">  1       21 0.22448727E+00 0.43954803E+03</pdfrwt>
<totfact> 0.64275939E+02</totfact>
</mgrwt>
</event>
<event>
 4    1  0.4918322E-002  0.4340389E+03  0.7818608E-02  0.1032592E+00
         21   -1    0    0  501  502  0.00000000000E+00  0.00000000000E+00  0.56318984167E+03  0.56318984167E+03  0.00000000000E+00 0.  1.
         21   -1    0    0  502  503 -0.00000000000E+00 -0.00000000000E+00 -0.38822317812E+03  0.38822317812E+03  0.00000000000E+00 0. -1.
    9000007    1    1    2  501    0 -0.16587809702E+03 -0.29567533688E+02  0.26443687342E+03  0.50824860270E+03  0.40000000000E+03 0.  1.
   -9000007    1    1    2    0  503  0.16587809702E+03  0.29567533688E+02 -0.89470209879E+02  0.44316441709E+03  0.40000000000E+03 0. -1.
<mgrwt>
<rscale>  2 0.43403892E+03</rscale>
<asrwt>0</asrwt>
<pdfrwt beam="1">  1       21 0.86644591E-01 0.43403892E+03</pdfrwt>
<pdfrwt beam="2">  1       21 0.59726643E-01 0.43403892E+03</pdfrwt>
<totfact> 0.26198983E+03</totfact>
</mgrwt>
</event>
<event>
 4    1  0.4918322E-002  0.4412840E+03  0.7818608E-02  0.1030354E+00
         21   -1    0    0  501  502  0.00000000000E+00  0.00000000000E+00  0.49099965411E+03  0.49099965411E+03  0.00000000000E+00 0. -1.
         21   -1    0    0  502  503 -0.00000000000E+00 -0.00000000000E+00 -0.71944010362E+03  0.71944010362E+03  0.00000000000E+00 0. -1.
    9000007    1    1    2  501    0  0.18611218935E+03 -0.96875041932E+01  0.29120246552E+03  0.52870641257E+03  0.40000000000E+03 0. -1.
   -9000007    1    1    2    0  503 -0.18611218935E+03  0.96875041932E+01 -0.51964291503E+03  0.68173334516E+03  0.40000000000E+03 0. -1.
<mgrwt>
<rscale>  2 0.44128403E+03</rscale>
<asrwt>0</asrwt>
<pdfrwt beam="1">  1       21 0.75538408E-01 0.44128403E+03</pdfrwt>
<pdfrwt beam="2">  1       21 0.11068309E+00 0.44128403E+03</pdfrwt>
<totfact> 0.85548637E+02</totfact>
</mgrwt>
</event>
<event>
 4    1  0.4918322E-002  0.4042494E+03  0.7818608E-02  0.1042318E+00
         21   -1    0    0  503  502  0.00000000000E+00  0.00000000000E+00  0.23886247570E+03  0.23886247570E+03  0.00000000000E+00 0. -1.
         21   -1    0    0  501  503 -0.00000000000E+00 -0.00000000000E+00 -0.92431616485E+03  0.92431616485E+03  0.00000000000E+00 0. -1.
    9000007    1    1    2  501    0  0.51492379419E+02 -0.27678007706E+02 -0.63918466678E+03  0.75629000753E+03  0.40000000000E+03 0. -1.
   -9000007    1    1    2    0  502 -0.51492379419E+02  0.27678007706E+02 -0.46269022376E+02  0.40688863302E+03  0.40000000000E+03 0. -1.
<mgrwt>
<rscale>  2 0.40424935E+03</rscale>
<asrwt>0</asrwt>
<pdfrwt beam="1">  1       21 0.36748073E-01 0.40424935E+03</pdfrwt>
<pdfrwt beam="2">  1       21 0.14220249E+00 0.40424935E+03</pdfrwt>
<totfact> 0.21465502E+03</totfact>
</mgrwt>
</event>
<event>
 4    1  0.4918322E-002  0.4265380E+03  0.7818608E-02  0.1034959E+00
         21   -1    0    0  501  502  0.00000000000E+00  0.00000000000E+00  0.76481893857E+03  0.76481893857E+03  0.00000000000E+00 0.  1.
         21   -1    0    0  502  503 -0.00000000000E+00 -0.00000000000E+00 -0.24271668712E+03  0.24271668712E+03  0.00000000000E+00 0.  1.
    9000007    1    1    2  501    0 -0.10525659177E+03  0.10419096016E+03  0.18993314562E+03  0.46691466682E+03  0.40000000000E+03 0.  1.
   -9000007    1    1    2    0  503  0.10525659177E+03 -0.10419096016E+03  0.33216910583E+03  0.54062095886E+03  0.40000000000E+03 0.  1.
<mgrwt>
<rscale>  2 0.42653805E+03</rscale>
<asrwt>0</asrwt>
<pdfrwt beam="1">  1       21 0.11766445E+00 0.42653805E+03</pdfrwt>
<pdfrwt beam="2">  1       21 0.37341029E-01 0.42653805E+03</pdfrwt>
<totfact> 0.33627247E+03</totfact>
</mgrwt>
</event>
<event>
 4    1  0.4918322E-002  0.4515481E+03  0.7818608E-02  0.1027261E+00
         21   -1    0    0  503  502  0.00000000000E+00  0.00000000000E+00  0.15711938551E+04  0.15711938551E+04  0.00000000000E+00 0.  1.
         21   -1    0    0  501  503 -0.00000000000E+00 -0.00000000000E+00 -0.14059892768E+03  0.14059892768E+03  0.00000000000E+00 0. -1.
    9000007    1    1    2  501    0  0.15980322454E+03  0.13549410512E+03  0.47777826914E+03  0.65739470454E+03  0.40000000000E+03 0.  1.
   -9000007    1    1    2    0  502 -0.15980322454E+03 -0.13549410512E+03  0.95281665833E+03  0.10543980783E+04  0.40000000000E+03 0.  1.
<mgrwt>
<rscale>  2 0.45154814E+03</rscale>
<asrwt>0</asrwt>
<pdfrwt beam="1">  1       21 0.24172212E+00 0.45154814E+03</pdfrwt>
<pdfrwt beam="2">  1       21 0.21630605E-01 0.45154814E+03</pdfrwt>
<totfact> 0.12252623E+03</totfact>
</mgrwt>
</event>
<event>
 4    1  0.4918322E-002  0.6404971E+03  0.7818608E-02  0.9824776E-01
         21   -1    0    0  501  502  0.00000000000E+00  0.00000000000E+00  0.15716647336E+04  0.15716647336E+04  0.00000000000E+00 0. -1.
         21   -1    0    0  502  503 -0.00000000000E+00 -0.00000000000E+00 -0.73116812260E+03  0.73116812260E+03  0.00000000000E+00 0.  1.
    9000007    1    1    2  501    0  0.64351275263E+02 -0.49608004176E+03  0.13435443691E+04  0.14884045036E+04  0.40000000000E+03 0. -1.
   -9000007    1    1    2    0  503 -0.64351275263E+02  0.49608004176E+03 -0.50304775818E+03  0.81442835257E+03  0.40000000000E+03 0.  1.
<mgrwt>
<rscale>  2 0.64049707E+03</rscale>
<asrwt>0</asrwt>
<pdfrwt beam="1">  1       21 0.24179457E+00 0.64049707E+03</pdfrwt>
<pdfrwt beam="2">  1       21 0.11248740E+00 0.64049707E+03</pdfrwt>
<totfact> 0.31879152E+01</totfact>
</mgrwt>
</event>
<event>
 4    1  0.4918322E-002  0.5616892E+03  0.7818608E-02  0.9988240E-01
         21   -1    0    0  503  502  0.00000000000E+00  0.00000000000E+00  0.23338977625E+03  0.23338977625E+03  0.00000000000E+00 0. -1.
         21   -1    0    0  501  503 -0.00000000000E+00 -0.00000000000E+00 -0.15227424303E+04  0.15227424303E+04  0.00000000000E+00 0.  1.
    9000007    1    1    2  501    0 -0.86063706285E+02 -0.38482171487E+03 -0.93887963745E+03  0.10940702388E+04  0.40000000000E+03 0.  1.
   -9000007    1    1    2    0  502  0.86063706285E+02  0.38482171487E+03 -0.35047301656E+03  0.66206196773E+03  0.40000000000E+03 0. -1.
<mgrwt>
<rscale>  2 0.56168916E+03</rscale>
<asrwt>0</asrwt>
<pdfrwt beam="1">  1       21 0.35906120E-01 0.56168916E+03</pdfrwt>
<pdfrwt beam="2">  1       21 0.23426806E+00 0.56168916E+03</pdfrwt>
<totfact> 0.47737953E+02</totfact>
</mgrwt>
</event>
<event>
 4    1  0.4918322E-002  0.4277173E+03  0.7818608E-02  0.1034583E+00
         21   -1    0    0  501  502  0.00000000000E+00  0.00000000000E+00  0.19083483012E+03  0.19083483012E+03  0.00000000000E+00 0. -1.
         21   -1    0    0  502  503 -0.00000000000E+00 -0.00000000000E+00 -0.10367847075E+04  0.10367847075E+04  0.00000000000E+00 0. -1.
    9000007    1    1    2  501    0  0.57071668131E+02 -0.14030287964E+03 -0.25446062802E+03  0.49768693428E+03  0.40000000000E+03 0. -1.
   -9000007    1    1    2    0  503 -0.57071668131E+02  0.14030287964E+03 -0.59148924940E+03  0.72993260339E+03  0.40000000000E+03 0. -1.
<mgrwt>
<rscale>  2 0.42771728E+03</rscale>
<asrwt>0</asrwt>
<pdfrwt beam="1">  1       21 0.29359204E-01 0.42771728E+03</pdfrwt>
<pdfrwt beam="2">  1       21 0.15950534E+00 0.42771728E+03</pdfrwt>
<totfact> 0.24405513E+03</totfact>
</mgrwt>
</event>
<event>
 4    1  0.4918322E-002  0.4211041E+03  0.7818608E-02  0.1036708E+00
         21   -1    0    0  503  502  0.00000000000E+00  0.00000000000E+00  0.20848049295E+03  0.20848049295E+03  0.00000000000E+00 0.  1.
         21   -1    0    0  501  503 -0.00000000000E+00 -0.00000000000E+00 -0.85554552023E+03  0.85554552023E+03  0.00000000000E+00 0.  1.
    9000007    1    1    2  501    0  0.78818808107E+02  0.10543377516E+03 -0.36407588303E+03  0.55666860345E+03  0.40000000000E+03 0. -1.
   -9000007    1    1    2    0  502 -0.78818808107E+02 -0.10543377516E+03 -0.28298914425E+03  0.50735740974E+03  0.40000000000E+03 0. -1.
<mgrwt>
<rscale>  2 0.42110413E+03</rscale>
<asrwt>0</asrwt>
<pdfrwt beam="1">  1       21 0.32073922E-01 0.42110413E+03</pdfrwt>
<pdfrwt beam="2">  1       21 0.13162239E+00 0.42110413E+03</pdfrwt>
<totfact> 0.34363485E+03</totfact>
</mgrwt>
</event>
<event>
 4    1  0.4918322E-002  0.4295909E+03  0.7818608E-02  0.1033989E+00
         21   -1    0    0  503  502  0.00000000000E+00  0.00000000000E+00  0.52083762036E+03  0.52083762036E+03  0.00000000000E+00 0. -1.
         21   -1    0    0  501  503 -0.00000000000E+00 -0.00000000000E+00 -0.45927677473E+03  0.45927677473E+03  0.00000000000E+00 0. -1.
    9000007    1    1    2  501    0  0.13437537336E+03  0.80570326690E+02  0.26503839427E+03  0.50477090739E+03  0.40000000000E+03 0. -1.
   -9000007    1    1    2    0  502 -0.13437537336E+03 -0.80570326690E+02 -0.20347754863E+03  0.47534348771E+03  0.40000000000E+03 0. -1.
<mgrwt>
<rscale>  2 0.42959087E+03</rscale>
<asrwt>0</asrwt>
<pdfrwt beam="1">  1       21 0.80128864E-01 0.42959087E+03</pdfrwt>
<pdfrwt beam="2">  1       21 0.70657966E-01 0.42959087E+03</pdfrwt>
<totfact> 0.21676385E+03</totfact>
</mgrwt>
</event>
<event>
 4    1  0.4918322E-002  0.4402623E+03  0.7818608E-02  0.1030666E+00
         21   -1    0    0  503  502  0.00000000000E+00  0.00000000000E+00  0.31626645362E+03  0.31626645362E+03  0.00000000000E+00 0. -1.
         21   -1    0    0  501  503 -0.00000000000E+00 -0.00000000000E+00 -0.64407725297E+03  0.64407725297E+03  0.00000000000E+00 0. -1.
    9000007    1    1    2  501    0 -0.13210933253E+03 -0.12797645916E+03 -0.26959728936E+03  0.51624950196E+03  0.40000000000E+03 0. -1.
   -9000007    1    1    2    0  502  0.13210933253E+03  0.12797645916E+03 -0.58213509984E+02  0.44409420463E+03  0.40000000000E+03 0. -1.
<mgrwt>
<rscale>  2 0.44026225E+03</rscale>
<asrwt>0</asrwt>
<pdfrwt beam="1">  1       21 0.48656378E-01 0.44026225E+03</pdfrwt>
<pdfrwt beam="2">  1       21 0.99088807E-01 0.44026225E+03</pdfrwt>
<totfact> 0.29510731E+03</totfact>
</mgrwt>
</event>
<event>
 4    1  0.4918322E-002  0.4390481E+03  0.7818608E-02  0.1031039E+00
         21   -1    0    0  503  502  0.00000000000E+00  0.00000000000E+00  0.23997678355E+03  0.23997678355E+03  0.00000000000E+00 0.  1.
         21   -1    0    0  501  503 -0.00000000000E+00 -0.00000000000E+00 -0.87078316003E+03  0.87078316003E+03  0.00000000000E+00 0.  1.
    9000007    1    1    2  501    0 -0.11318888384E+03  0.14124972293E+03 -0.16074644311E+03  0.46754959804E+03  0.40000000000E+03 0.  1.
   -9000007    1    1    2    0  502  0.11318888384E+03 -0.14124972293E+03 -0.47005993337E+03  0.64321034555E+03  0.40000000000E+03 0.  1.
<mgrwt>
<rscale>  2 0.43904807E+03</rscale>
<asrwt>0</asrwt>
<pdfrwt beam="1">  1       21 0.36919506E-01 0.43904807E+03</pdfrwt>
<pdfrwt beam="2">  1       21 0.13396664E+00 0.43904807E+03</pdfrwt>
<totfact> 0.24537638E+03</totfact>
</mgrwt>
</event>
<event>
 4    1  0.4918322E-002  0.4349272E+03  0.7818608E-02  0.1032315E+00
         21   -1    0    0  503  502  0.00000000000E+00  0.00000000000E+00  0.52300411385E+03  0.52300411385E+03  0.00000000000E+00 0. -1.
         21   -1    0    0  501  503 -0.00000000000E+00 -0.00000000000E+00 -0.39236457094E+03  0.39236457094E+03  0.00000000000E+00 0. -1.
    9000007    1    1    2  501    0  0.11265740636E+03 -0.12833557821E+03 -0.62665430088E+02  0.43941855670E+03  0.40000000000E+03 0. -1.
   -9000007    1    1    2    0  502 -0.11265740636E+03  0.12833557821E+03  0.19330497300E+03  0.47595012809E+03  0.40000000000E+03 0. -1.
<mgrwt>
<rscale>  2 0.43492725E+03</rscale>
<asrwt>0</asrwt>
<pdfrwt beam="1">  1       21 0.80462171E-01 0.43492725E+03</pdfrwt>
<pdfrwt beam="2">  1       21 0.60363781E-01 0.43492725E+03</pdfrwt>
<totfact> 0.30403553E+03</totfact>
</mgrwt>
</event>
<event>
 4    1  0.4918322E-002  0.7201560E+03  0.7818608E-02  0.9683370E-01
         21   -1    0    0  501  502  0.00000000000E+00  0.00000000000E+00  0.34935056225E+03  0.34935056225E+03  0.00000000000E+00 0.  1.
         21   -1    0    0  502  503 -0.00000000000E+00 -0.00000000000E+00 -0.15766612741E+04  0.15766612741E+04  0.00000000000E+00 0. -1.
    9000007    1    1    2  501    0  0.48749164841E+03 -0.34781678470E+03 -0.38087759697E+03  0.81467316567E+03  0.40000000000E+03 0.  1.
   -9000007    1    1    2    0  503 -0.48749164841E+03  0.34781678470E+03 -0.84643311490E+03  0.11113386707E+04  0.40000000000E+03 0. -1.
<mgrwt>
<rscale>  2 0.72015597E+03</rscale>
<asrwt>0</asrwt>
<pdfrwt beam="1">  1       21 0.53746241E-01 0.72015597E+03</pdfrwt>
<pdfrwt beam="2">  1       21 0.24256327E+00 0.72015597E+03</pdfrwt>
<totfact> 0.17069992E+02</totfact>
</mgrwt>
</event>
<event>
 4    1  0.4918322E-002  0.4589541E+03  0.7818608E-02  0.1025085E+00
         21   -1    0    0  501  502  0.00000000000E+00  0.00000000000E+00  0.36801498811E+03  0.36801498811E+03  0.00000000000E+00 0. -1.
         21   -1    0    0  502  503 -0.00000000000E+00 -0.00000000000E+00 -0.11075223293E+04  0.11075223293E+04  0.00000000000E+00 0.  1.
    9000007    1    1    2  501    0 -0.22465694898E+03 -0.12967833261E+02  0.14308962629E+03  0.48074270725E+03  0.40000000000E+03 0. -1.
   -9000007    1    1    2    0  503  0.22465694898E+03  0.12967833261E+02 -0.88259696749E+03  0.99479461018E+03  0.40000000000E+03 0.  1.
<mgrwt>
<rscale>  2 0.45895415E+03</rscale>
<asrwt>0</asrwt>
<pdfrwt beam="1">  1       21 0.56617691E-01 0.45895415E+03</pdfrwt>
<pdfrwt beam="2">  1       21 0.17038805E+00 0.45895415E+03</pdfrwt>
<totfact> 0.51410809E+02</totfact>
</mgrwt>
</event>
<event>
 4    1  0.4918322E-002  0.4493399E+03  0.7818608E-02  0.1027919E+00
         21   -1    0    0  501  502  0.00000000000E+00  0.00000000000E+00  0.77877995114E+03  0.77877995114E+03  0.00000000000E+00 0.  1.
         21   -1    0    0  502  503 -0.00000000000E+00 -0.00000000000E+00 -0.29093741327E+03  0.29093741327E+03  0.00000000000E+00 0.  1.
    9000007    1    1    2  501    0 -0.20463831856E+03  0.54348926657E+01  0.42040923277E+03  0.61534567722E+03  0.40000000000E+03 0.  1.
   -9000007    1    1    2    0  503  0.20463831856E+03 -0.54348926657E+01  0.67433305106E+02  0.45437168719E+03  0.40000000000E+03 0.  1.
<mgrwt>
<rscale>  2 0.44933994E+03</rscale>
<asrwt>0</asrwt>
<pdfrwt beam="1">  1       21 0.11981230E+00 0.44933994E+03</pdfrwt>
<pdfrwt beam="2">  1       21 0.44759602E-01 0.44933994E+03</pdfrwt>
<totfact> 0.21903727E+03</totfact>
</mgrwt>
</event>
<event>
 4    1  0.4918322E-002  0.5618966E+03  0.7818608E-02  0.9987772E-01
         21   -1    0    0  503  502  0.00000000000E+00  0.00000000000E+00  0.11776315543E+04  0.11776315543E+04  0.00000000000E+00 0.  1.
         21   -1    0    0  501  503 -0.00000000000E+00 -0.00000000000E+00 -0.28932743904E+03  0.28932743904E+03  0.00000000000E+00 0. -1.
    9000007    1    1    2  501    0 -0.22507681867E+03  0.32414230212E+03  0.64280746216E+03  0.85377352954E+03  0.40000000000E+03 0.  1.
   -9000007    1    1    2    0  502  0.22507681867E+03 -0.32414230212E+03  0.24549665310E+03  0.61318546380E+03  0.40000000000E+03 0. -1.
<mgrwt>
<rscale>  2 0.56189662E+03</rscale>
<asrwt>0</asrwt>
<pdfrwt beam="1">  1       21 0.18117408E+00 0.56189662E+03</pdfrwt>
<pdfrwt beam="2">  1       21 0.44511914E-01 0.56189662E+03</pdfrwt>
<totfact> 0.68914734E+02</totfact>
</mgrwt>
</event>
<event>
 4    1  0.4918322E-002  0.5783305E+03  0.7818608E-02  0.9951412E-01
         21   -1    0    0  501  502  0.00000000000E+00  0.00000000000E+00  0.59113470899E+03  0.59113470899E+03  0.00000000000E+00 0.  1.
         21   -1    0    0  502  503 -0.00000000000E+00 -0.00000000000E+00 -0.57384171950E+03  0.57384171950E+03  0.00000000000E+00 0. -1.
    9000007    1    1    2  501    0 -0.28222346714E+03 -0.30792215029E+03  0.77586099124E+02  0.58351155843E+03  0.40000000000E+03 0. -1.
   -9000007    1    1    2    0  503  0.28222346714E+03  0.30792215029E+03 -0.60293109631E+02  0.58146487006E+03  0.40000000000E+03 0.  1.
<mgrwt>
<rscale>  2 0.57833047E+03</rscale>
<asrwt>0</asrwt>
<pdfrwt beam="1">  1       21 0.90943802E-01 0.57833047E+03</pdfrwt>
<pdfrwt beam="2">  1       21 0.88283341E-01 0.57833047E+03</pdfrwt>
<totfact> 0.91344265E+02</totfact>
</mgrwt>
</event>
<event>
 4    1  0.4918322E-002  0.4267694E+03  0.7818608E-02  0.1034885E+00
         21   -1    0    0  503  502  0.00000000000E+00  0.00000000000E+00  0.73419211727E+03  0.73419211727E+03  0.00000000000E+00 0.  1.
         21   -1    0    0  501  503 -0.00000000000E+00 -0.00000000000E+00 -0.32510889524E+03  0.32510889524E+03  0.00000000000E+00 0.  1.
    9000007    1    1    2  501    0 -0.36774855568E+02  0.14415189864E+03 -0.53283779142E+02  0.43008292340E+03  0.40000000000E+03 0.  1.
   -9000007    1    1    2    0  502  0.36774855568E+02 -0.14415189864E+03  0.46236700117E+03  0.62921808910E+03  0.40000000000E+03 0.  1.
<mgrwt>
<rscale>  2 0.42676945E+03</rscale>
<asrwt>0</asrwt>
<pdfrwt beam="1">  1       21 0.11295263E+00 0.42676945E+03</pdfrwt>
<pdfrwt beam="2">  1       21 0.50016753E-01 0.42676945E+03</pdfrwt>
<totfact> 0.20271757E+03</totfact>
</mgrwt>
</event>
<event>
 4    1  0.4918322E-002  0.4208437E+03  0.7818608E-02  0.1036792E+00
         21   -1    0    0  503  502  0.00000000000E+00  0.00000000000E+00  0.51472615470E+03  0.51472615470E+03  0.00000000000E+00 0. -1.
         21   -1    0    0  501  503 -0.00000000000E+00 -0.00000000000E+00 -0.14606940670E+04  0.14606940670E+04  0.00000000000E+00 0. -1.
    9000007    1    1    2  501    0 -0.98017939818E+02 -0.86613460856E+02 -0.13365598188E+04  0.14012499982E+04  0.40000000000E+03 0. -1.
   -9000007    1    1    2    0  502  0.98017939818E+02  0.86613460856E+02  0.39059190652E+03  0.57417022351E+03  0.40000000000E+03 0. -1.
<mgrwt>
<rscale>  2 0.42084369E+03</rscale>
<asrwt>0</asrwt>
<pdfrwt beam="1">  1       21 0.79188638E-01 0.42084369E+03</pdfrwt>
<pdfrwt beam="2">  1       21 0.22472217E+00 0.42084369E+03</pdfrwt>
<totfact> 0.10678507E+02</totfact>
</mgrwt>
</event>
<event>
 4    1  0.4918322E-002  0.4310600E+03  0.7818608E-02  0.1033526E+00
         21   -1    0    0  501  502  0.00000000000E+00  0.00000000000E+00  0.13147046534E+04  0.13147046534E+04  0.00000000000E+00 0. -1.
         21   -1    0    0  502  503 -0.00000000000E+00 -0.00000000000E+00 -0.53455025663E+03  0.53455025663E+03  0.00000000000E+00 0. -1.
    9000007    1    1    2  501    0  0.48301984794E+02  0.15323064316E+03  0.11831045076E+04  0.12591858432E+04  0.40000000000E+03 0. -1.
   -9000007    1    1    2    0  503 -0.48301984794E+02 -0.15323064316E+03 -0.40295011089E+03  0.59006906681E+03  0.40000000000E+03 0. -1.
<mgrwt>
<rscale>  2 0.43105999E+03</rscale>
<asrwt>0</asrwt>
<pdfrwt beam="1">  1       21 0.20226225E+00 0.43105999E+03</pdfrwt>
<pdfrwt beam="2">  1       21 0.82238501E-01 0.43105999E+03</pdfrwt>
<totfact> 0.13585199E+02</totfact>
</mgrwt>
</event>
<event>
 4    1  0.4918322E-002  0.4806455E+03  0.7818608E-02  0.1018958E+00
         21   -1    0    0  501  502  0.00000000000E+00  0.00000000000E+00  0.62921635488E+03  0.62921635488E+03  0.00000000000E+00 0.  1.
         21   -1    0    0  502  503 -0.00000000000E+00 -0.00000000000E+00 -0.37024398860E+03  0.37024398860E+03  0.00000000000E+00 0. -1.
    9000007    1    1    2  501    0  0.19300719982E+03  0.18376155681E+03  0.83842356832E+02  0.48790329958E+03  0.40000000000E+03 0. -1.
   -9000007    1    1    2    0  503 -0.19300719982E+03 -0.18376155681E+03  0.17513000945E+03  0.51155704389E+03  0.40000000000E+03 0.  1.
<mgrwt>
<rscale>  2 0.48064549E+03</rscale>
<asrwt>0</asrwt>
<pdfrwt beam="1">  1       21 0.96802516E-01 0.48064549E+03</pdfrwt>
<pdfrwt beam="2">  1       21 0.56960614E-01 0.48064549E+03</pdfrwt>
<totfact> 0.21946935E+03</totfact>
</mgrwt>
</event>
<event>
 4    1  0.4918322E-002  0.4298313E+03  0.7818608E-02  0.1033913E+00
         21   -1    0    0  503  502  0.00000000000E+00  0.00000000000E+00  0.20324871161E+03  0.20324871161E+03  0.00000000000E+00 0. -1.
         21   -1    0    0  501  503 -0.00000000000E+00 -0.00000000000E+00 -0.92191500384E+03  0.92191500384E+03  0.00000000000E+00 0. -1.
    9000007    1    1    2  501    0  0.12477452742E+03  0.95844846847E+02 -0.29276975961E+03  0.52006638951E+03  0.40000000000E+03 0. -1.
   -9000007    1    1    2    0  502 -0.12477452742E+03 -0.95844846847E+02 -0.42589653262E+03  0.60509732594E+03  0.40000000000E+03 0. -1.
<mgrwt>
<rscale>  2 0.42983127E+03</rscale>
<asrwt>0</asrwt>
<pdfrwt beam="1">  1       21 0.31269032E-01 0.42983127E+03</pdfrwt>
<pdfrwt beam="2">  1       21 0.14183308E+00 0.42983127E+03</pdfrwt>
<totfact> 0.29601011E+03</totfact>
</mgrwt>
</event>
<event>
 4    1  0.4918322E-002  0.4035401E+03  0.7818608E-02  0.1042561E+00
         21   -1    0    0  503  502  0.00000000000E+00  0.00000000000E+00  0.11760279155E+04  0.11760279155E+04  0.00000000000E+00 0.  1.
         21   -1    0    0  501  503 -0.00000000000E+00 -0.00000000000E+00 -0.25746270878E+03  0.25746270878E+03  0.00000000000E+00 0.  1.
    9000007    1    1    2  501    0 -0.53269713096E+02  0.26383425047E+01 -0.27985306656E+02  0.40450933311E+03  0.40000000000E+03 0.  1.
   -9000007    1    1    2    0  502  0.53269713096E+02 -0.26383425047E+01  0.94655051333E+03  0.10289812911E+04  0.40000000000E+03 0.  1.
<mgrwt>
<rscale>  2 0.40354011E+03</rscale>
<asrwt>0</asrwt>
<pdfrwt beam="1">  1       21 0.18092737E+00 0.40354011E+03</pdfrwt>
<pdfrwt beam="2">  1       21 0.39609648E-01 0.40354011E+03</pdfrwt>
<totfact> 0.94339992E+02</totfact>
</mgrwt>
</event>
<event>
 4    1  0.4918322E-002  0.4980644E+03  0.7818608E-02  0.1014285E+00
         21   -1    0    0  501  502  0.00000000000E+00  0.00000000000E+00  0.52609985348E+03  0.52609985348E+03  0.00000000000E+00 0.  1.
         21   -1    0    0  502  503 -0.00000000000E+00 -0.00000000000E+00 -0.54115718663E+03  0.54115718663E+03  0.00000000000E+00 0. -1.
    9000007    1    1    2  501    0 -0.92687721088E+02 -0.28191681965E+03  0.18389208271E+03  0.53092787168E+03  0.40000000000E+03 0.  1.
   -9000007    1    1    2    0  503  0.92687721088E+02  0.28191681965E+03 -0.19894941585E+03  0.53632916843E+03  0.40000000000E+03 0. -1.
<mgrwt>
<rscale>  2 0.49806436E+03</rscale>
<asrwt>0</asrwt>
<pdfrwt beam="1">  1       21 0.80938439E-01 0.49806436E+03</pdfrwt>
<pdfrwt beam="2">  1       21 0.83254951E-01 0.49806436E+03</pdfrwt>
<totfact> 0.14173032E+03</totfact>
</mgrwt>
</event>
<event>
 4    1  0.4918322E-002  0.4995813E+03  0.7818608E-02  0.1013888E+00
         21   -1    0    0  501  502  0.00000000000E+00  0.00000000000E+00  0.98601251723E+03  0.98601251723E+03  0.00000000000E+00 0. -1.
         21   -1    0    0  502  503 -0.00000000000E+00 -0.00000000000E+00 -0.31520148189E+03  0.31520148189E+03  0.00000000000E+00 0. -1.
    9000007    1    1    2  501    0  0.24438363910E+03 -0.17279503351E+03  0.62413993465E+03  0.79945740642E+03  0.40000000000E+03 0. -1.
   -9000007    1    1    2    0  503 -0.24438363910E+03  0.17279503351E+03  0.46671100694E+02  0.50175659269E+03  0.40000000000E+03 0. -1.
<mgrwt>
<rscale>  2 0.49958131E+03</rscale>
<asrwt>0</asrwt>
<pdfrwt beam="1">  1       21 0.15169423E+00 0.49958131E+03</pdfrwt>
<pdfrwt beam="2">  1       21 0.48492536E-01 0.49958131E+03</pdfrwt>
<totfact> 0.97493579E+02</totfact>
</mgrwt>
</event>
<event>
 4    1  0.4918322E-002  0.4982513E+03  0.7818608E-02  0.1014236E+00
         21   -1    0    0  503  502  0.00000000000E+00  0.00000000000E+00  0.95436699139E+03  0.95436699139E+03  0.00000000000E+00 0. -1.
         21   -1    0    0  501  503 -0.00000000000E+00 -0.00000000000E+00 -0.84086223167E+03  0.84086223167E+03  0.00000000000E+00 0. -1.
    9000007    1    1    2  501    0  0.25547619117E+03 -0.15161214504E+03 -0.68921094678E+03  0.85045050175E+03  0.40000000000E+03 0. -1.
   -9000007    1    1    2    0  502 -0.25547619117E+03  0.15161214504E+03  0.80271570650E+03  0.94477872131E+03  0.40000000000E+03 0. -1.
<mgrwt>
<rscale>  2 0.49825127E+03</rscale>
<asrwt>0</asrwt>
<pdfrwt beam="1">  1       21 0.14682569E+00 0.49825127E+03</pdfrwt>
<pdfrwt beam="2">  1       21 0.12936342E+00 0.49825127E+03</pdfrwt>
<totfact> 0.10851904E+02</totfact>
</mgrwt>
</event>
<event>
 4    1  0.4918322E-002  0.4493088E+03  0.7818608E-02  0.1027928E+00
         21   -1    0    0  501  502  0.00000000000E+00  0.00000000000E+00  0.35517549392E+03  0.35517549392E+03  0.00000000000E+00 0.  1.
         21   -1    0    0  502  503 -0.00000000000E+00 -0.00000000000E+00 -0.78384565187E+03  0.78384565187E+03  0.00000000000E+00 0.  1.
    9000007    1    1    2  501    0  0.19359216845E+03  0.66336315001E+02  0.84247724847E+02  0.45713905271E+03  0.40000000000E+03 0.  1.
   -9000007    1    1    2    0  503 -0.19359216845E+03 -0.66336315001E+02 -0.51291788279E+03  0.68188209308E+03  0.40000000000E+03 0.  1.
<mgrwt>
<rscale>  2 0.44930884E+03</rscale>
<asrwt>0</asrwt>
<pdfrwt beam="1">  1       21 0.54642385E-01 0.44930884E+03</pdfrwt>
<pdfrwt beam="2">  1       21 0.12059164E+00 0.44930884E+03</pdfrwt>
<totfact> 0.14103071E+03</totfact>
</mgrwt>
</event>
<event>
 4    1  0.4918322E-002  0.4269998E+03  0.7818608E-02  0.1034812E+00
         21   -1    0    0  503  502  0.00000000000E+00  0.00000000000E+00  0.46155654817E+03  0.46155654817E+03  0.00000000000E+00 0. -1.
         21   -1    0    0  501  503 -0.00000000000E+00 -0.00000000000E+00 -0.39646440601E+03  0.39646440601E+03  0.00000000000E+00 0. -1.
    9000007    1    1    2  501    0 -0.20448785922E+02  0.14802261076E+03  0.67443662725E+01  0.42705307939E+03  0.40000000000E+03 0. -1.
   -9000007    1    1    2    0  502  0.20448785922E+02 -0.14802261076E+03  0.58347775888E+02  0.43096787478E+03  0.40000000000E+03 0. -1.
<mgrwt>
<rscale>  2 0.42699982E+03</rscale>
<asrwt>0</asrwt>
<pdfrwt beam="1">  1       21 0.71008700E-01 0.42699982E+03</pdfrwt>
<pdfrwt beam="2">  1       21 0.60994524E-01 0.42699982E+03</pdfrwt>
<totfact> 0.39642244E+03</totfact>
</mgrwt>
</event>
<event>
 4    1  0.4918322E-002  0.4327606E+03  0.7818608E-02  0.1032991E+00
         21   -1    0    0  501  502  0.00000000000E+00  0.00000000000E+00  0.44362532146E+03  0.44362532146E+03  0.00000000000E+00 0. -1.
         21   -1    0    0  502  503 -0.00000000000E+00 -0.00000000000E+00 -0.57659977779E+03  0.57659977779E+03  0.00000000000E+00 0. -1.
    9000007    1    1    2  501    0 -0.78700845450E+02  0.14521663519E+03 -0.33048832477E+03  0.54452201702E+03  0.40000000000E+03 0. -1.
   -9000007    1    1    2    0  503  0.78700845450E+02 -0.14521663519E+03  0.19751386845E+03  0.47570308223E+03  0.40000000000E+03 0. -1.
<mgrwt>
<rscale>  2 0.43276055E+03</rscale>
<asrwt>0</asrwt>
<pdfrwt beam="1">  1       21 0.68250049E-01 0.43276055E+03</pdfrwt>
<pdfrwt beam="2">  1       21 0.88707659E-01 0.43276055E+03</pdfrwt>
<totfact> 0.18458927E+03</totfact>
</mgrwt>
</event>
<event>
 4    1  0.4918322E-002  0.4203581E+03  0.7818608E-02  0.1036950E+00
         21   -1    0    0  503  502  0.00000000000E+00  0.00000000000E+00  0.19061407436E+04  0.19061407436E+04  0.00000000000E+00 0. -1.
         21   -1    0    0  501  503 -0.00000000000E+00 -0.00000000000E+00 -0.19803241013E+03  0.19803241013E+03  0.00000000000E+00 0. -1.
    9000007    1    1    2  501    0  0.33228261562E+02  0.12488723298E+03  0.86758890415E+02  0.42921794393E+03  0.40000000000E+03 0. -1.
   -9000007    1    1    2    0  502 -0.33228261562E+02 -0.12488723298E+03  0.16213494430E+04  0.16749552098E+04  0.40000000000E+03 0. -1.
<mgrwt>
<rscale>  2 0.42035811E+03</rscale>
<asrwt>0</asrwt>
<pdfrwt beam="1">  1       21 0.29325241E+00 0.42035811E+03</pdfrwt>
<pdfrwt beam="2">  1       21 0.30466526E-01 0.42035811E+03</pdfrwt>
<totfact> 0.31103799E+02</totfact>
</mgrwt>
</event>
<event>
 4    1  0.4918322E-002  0.4690210E+03  0.7818608E-02  0.1022197E+00
         21   -1    0    0  501  502  0.00000000000E+00  0.00000000000E+00  0.79972248214E+03  0.79972248214E+03  0.00000000000E+00 0. -1.
         21   -1    0    0  502  503 -0.00000000000E+00 -0.00000000000E+00 -0.36822600406E+03  0.36822600406E+03  0.00000000000E+00 0.  1.
    9000007    1    1    2  501    0  0.12192029131E+03 -0.21240565219E+03  0.50947182003E+03  0.69248989445E+03  0.40000000000E+03 0. -1.
   -9000007    1    1    2    0  503 -0.12192029131E+03  0.21240565219E+03 -0.77975341947E+02  0.47545859175E+03  0.40000000000E+03 0.  1.
<mgrwt>
<rscale>  2 0.46902102E+03</rscale>
<asrwt>0</asrwt>
<pdfrwt beam="1">  1       21 0.12303423E+00 0.46902102E+03</pdfrwt>
<pdfrwt beam="2">  1       21 0.56650155E-01 0.46902102E+03</pdfrwt>
<totfact> 0.12295023E+03</totfact>
</mgrwt>
</event>
<event>
 4    1  0.4918322E-002  0.4257981E+03  0.7818608E-02  0.1035196E+00
         21   -1    0    0  501  502  0.00000000000E+00  0.00000000000E+00  0.84510249766E+03  0.84510249766E+03  0.00000000000E+00 0. -1.
         21   -1    0    0  502  503 -0.00000000000E+00 -0.00000000000E+00 -0.25667572342E+03  0.25667572342E+03  0.00000000000E+00 0. -1.
    9000007    1    1    2  501    0 -0.96010249585E+02 -0.10993655815E+03  0.51742823795E+03  0.67010148207E+03  0.40000000000E+03 0. -1.
   -9000007    1    1    2    0  503  0.96010249585E+02  0.10993655815E+03  0.70998536288E+02  0.43167673900E+03  0.40000000000E+03 0. -1.
<mgrwt>
<rscale>  2 0.42579809E+03</rscale>
<asrwt>0</asrwt>
<pdfrwt beam="1">  1       21 0.13001577E+00 0.42579809E+03</pdfrwt>
<pdfrwt beam="2">  1       21 0.39488573E-01 0.42579809E+03</pdfrwt>
<totfact> 0.23236665E+03</totfact>
</mgrwt>
</event>
<event>
 4    1  0.4918322E-002  0.5178944E+03  0.7818608E-02  0.1009211E+00
         21   -1    0    0  501  502  0.00000000000E+00  0.00000000000E+00  0.12850302578E+04  0.12850302578E+04  0.00000000000E+00 0. -1.
         21   -1    0    0  502  503 -0.00000000000E+00 -0.00000000000E+00 -0.24267379806E+03  0.24267379806E+03  0.00000000000E+00 0. -1.
    9000007    1    1    2  501    0 -0.79922741493E+02 -0.31910335780E+03  0.80688901398E+03  0.95879324072E+03  0.40000000000E+03 0. -1.
   -9000007    1    1    2    0  503  0.79922741493E+02  0.31910335780E+03  0.23546744575E+03  0.56891081513E+03  0.40000000000E+03 0. -1.
<mgrwt>
<rscale>  2 0.51789439E+03</rscale>
<asrwt>0</asrwt>
<pdfrwt beam="1">  1       21 0.19769696E+00 0.51789439E+03</pdfrwt>
<pdfrwt beam="2">  1       21 0.37334431E-01 0.51789439E+03</pdfrwt>
<totfact> 0.77602027E+02</totfact>
</mgrwt>
</event>
<event>
 4    1  0.4918322E-002  0.4912334E+03  0.7818608E-02  0.1016093E+00
         21   -1    0    0  503  502  0.00000000000E+00  0.00000000000E+00  0.14351919675E+04  0.14351919675E+04  0.00000000000E+00 0.  1.
         21   -1    0    0  501  503 -0.00000000000E+00 -0.00000000000E+00 -0.16827540534E+03  0.16827540534E+03  0.00000000000E+00 0.  1.
    9000007    1    1    2  501    0 -0.26252996056E+03 -0.11130262812E+03  0.65637110737E+03  0.81983735327E+03  0.40000000000E+03 0.  1.
   -9000007    1    1    2    0  502  0.26252996056E+03  0.11130262812E+03  0.61054545476E+03  0.78363001956E+03  0.40000000000E+03 0.  1.
<mgrwt>
<rscale>  2 0.49123340E+03</rscale>
<asrwt>0</asrwt>
<pdfrwt beam="1">  1       21 0.22079876E+00 0.49123340E+03</pdfrwt>
<pdfrwt beam="2">  1       21 0.25888525E-01 0.49123340E+03</pdfrwt>
<totfact> 0.11506692E+03</totfact>
</mgrwt>
</event>
<event>
 4    1  0.4918322E-002  0.4386639E+03  0.7818608E-02  0.1031158E+00
         21   -1    0    0  503  502  0.00000000000E+00  0.00000000000E+00  0.74389491699E+03  0.74389491699E+03  0.00000000000E+00 0. -1.
         21   -1    0    0  501  503 -0.00000000000E+00 -0.00000000000E+00 -0.31584395771E+03  0.31584395771E+03  0.00000000000E+00 0.  1.
    9000007    1    1    2  501    0  0.15373629785E+03 -0.93761197096E+02 -0.11407711667E+02  0.43881220043E+03  0.40000000000E+03 0.  1.
   -9000007    1    1    2    0  502 -0.15373629785E+03  0.93761197096E+02  0.43945867094E+03  0.62092667427E+03  0.40000000000E+03 0. -1.
<mgrwt>
<rscale>  2 0.43866389E+03</rscale>
<asrwt>0</asrwt>
<pdfrwt beam="1">  1       21 0.11444537E+00 0.43866389E+03</pdfrwt>
<pdfrwt beam="2">  1       21 0.48591379E-01 0.43866389E+03</pdfrwt>
<totfact> 0.20762049E+03</totfact>
</mgrwt>
</event>
<event>
 4    1  0.4918322E-002  0.4335764E+03  0.7818608E-02  0.1032736E+00
         21   -1    0    0  503  502  0.00000000000E+00  0.00000000000E+00  0.16570670442E+03  0.16570670442E+03  0.00000000000E+00 0. -1.
         21   -1    0    0  501  503 -0.00000000000E+00 -0.00000000000E+00 -0.11428981855E+04  0.11428981855E+04  0.00000000000E+00 0.  1.
    9000007    1    1    2  501    0  0.16027723530E+03  0.47955600819E+02 -0.43239281976E+03  0.61233330988E+03  0.40000000000E+03 0. -1.
   -9000007    1    1    2    0  502 -0.16027723530E+03 -0.47955600819E+02 -0.54479866135E+03  0.69627158007E+03  0.40000000000E+03 0. -1.
<mgrwt>
<rscale>  2 0.43357644E+03</rscale>
<asrwt>0</asrwt>
<pdfrwt beam="1">  1       21 0.25493340E-01 0.43357644E+03</pdfrwt>
<pdfrwt beam="2">  1       21 0.17583049E+00 0.43357644E+03</pdfrwt>
<totfact> 0.24385824E+03</totfact>
</mgrwt>
</event>
<event>
 4    1  0.4918322E-002  0.5638036E+03  0.7818608E-02  0.9983485E-01
         21   -1    0    0  501  502  0.00000000000E+00  0.00000000000E+00  0.24782402840E+03  0.24782402840E+03  0.00000000000E+00 0.  1.
         21   -1    0    0  502  503 -0.00000000000E+00 -0.00000000000E+00 -0.20928165704E+04  0.20928165704E+04  0.00000000000E+00 0.  1.
    9000007    1    1    2  501    0 -0.17749327704E+03  0.35548645492E+03 -0.19434254214E+03  0.59635853873E+03  0.40000000000E+03 0.  1.
   -9000007    1    1    2    0  503  0.17749327704E+03 -0.35548645492E+03 -0.16506499998E+04  0.17442820600E+04  0.40000000000E+03 0.  1.
<mgrwt>
<rscale>  2 0.56380359E+03</rscale>
<asrwt>0</asrwt>
<pdfrwt beam="1">  1       21 0.38126776E-01 0.56380359E+03</pdfrwt>
<pdfrwt beam="2">  1       21 0.32197176E+00 0.56380359E+03</pdfrwt>
<totfact> 0.12227608E+02</totfact>
</mgrwt>
</event>
<event>
 4    1  0.4918322E-002  0.4706457E+03  0.7818608E-02  0.1021738E+00
         21   -1    0    0  503  502  0.00000000000E+00  0.00000000000E+00  0.25542319345E+03  0.25542319345E+03  0.00000000000E+00 0.  1.
         21   -1    0    0  501  503 -0.00000000000E+00 -0.00000000000E+00 -0.11842522447E+04  0.11842522447E+04  0.00000000000E+00 0. -1.
    9000007    1    1    2  501    0  0.22504227690E+03  0.10422748320E+03 -0.83686291934E+03  0.96012860619E+03  0.40000000000E+03 0. -1.
   -9000007    1    1    2    0  502 -0.22504227690E+03 -0.10422748320E+03 -0.91966131931E+02  0.47954683199E+03  0.40000000000E+03 0.  1.
<mgrwt>
<rscale>  2 0.47064572E+03</rscale>
<asrwt>0</asrwt>
<pdfrwt beam="1">  1       21 0.39295875E-01 0.47064572E+03</pdfrwt>
<pdfrwt beam="2">  1       21 0.18219266E+00 0.47064572E+03</pdfrwt>
<totfact> 0.91067201E+02</totfact>
</mgrwt>
</event>
<event>
 4    1  0.4918322E-002  0.4991139E+03  0.7818608E-02  0.1014010E+00
         21   -1    0    0  503  502  0.00000000000E+00  0.00000000000E+00  0.18080035160E+04  0.18080035160E+04  0.00000000000E+00 0. -1.
         21   -1    0    0  501  503 -0.00000000000E+00 -0.00000000000E+00 -0.40930658698E+03  0.40930658698E+03  0.00000000000E+00 0.  1.
    9000007    1    1    2  501    0  0.10554911405E+03 -0.27923842227E+03 -0.20362444381E+03  0.53905252626E+03  0.40000000000E+03 0.  1.
   -9000007    1    1    2    0  502 -0.10554911405E+03  0.27923842227E+03  0.16023213729E+04  0.16782575767E+04  0.40000000000E+03 0. -1.
<mgrwt>
<rscale>  2 0.49911393E+03</rscale>
<asrwt>0</asrwt>
<pdfrwt beam="1">  1       21 0.27815438E+00 0.49911393E+03</pdfrwt>
<pdfrwt beam="2">  1       21 0.62970245E-01 0.49911393E+03</pdfrwt>
<totfact> 0.80116758E+01</totfact>
</mgrwt>
</event>
<event>
 4    1  0.4918322E-002  0.4428872E+03  0.7818608E-02  0.1029865E+00
         21   -1    0    0  501  502  0.00000000000E+00  0.00000000000E+00  0.19401972279E+03  0.19401972279E+03  0.00000000000E+00 0.  1.
         21   -1    0    0  502  503 -0.00000000000E+00 -0.00000000000E+00 -0.13457433398E+04  0.13457433398E+04  0.00000000000E+00 0.  1.
    9000007    1    1    2  501    0  0.17020896982E+03  0.84722906494E+02 -0.19187610545E+03  0.48266500198E+03  0.40000000000E+03 0.  1.
   -9000007    1    1    2    0  503 -0.17020896982E+03 -0.84722906494E+02 -0.95984751158E+03  0.10570980606E+04  0.40000000000E+03 0.  1.
<mgrwt>
<rscale>  2 0.44288719E+03</rscale>
<asrwt>0</asrwt>
<pdfrwt beam="1">  1       21 0.29849188E-01 0.44288719E+03</pdfrwt>
<pdfrwt beam="2">  1       21 0.20703744E+00 0.44288719E+03</pdfrwt>
<totfact> 0.10908064E+03</totfact>
</mgrwt>
</event>
<event>
 4    1  0.4918322E-002  0.4650026E+03  0.7818608E-02  0.1023340E+00
         21   -1    0    0  503  502  0.00000000000E+00  0.00000000000E+00  0.28202189460E+03  0.28202189460E+03  0.00000000000E+00 0. -1.
         21   -1    0    0  501  503 -0.00000000000E+00 -0.00000000000E+00 -0.89630797927E+03  0.89630797927E+03  0.00000000000E+00 0.  1.
    9000007    1    1    2  501    0 -0.11843202096E+03  0.20542958161E+03 -0.53117841103E+03  0.70595889465E+03  0.40000000000E+03 0.  1.
   -9000007    1    1    2    0  502  0.11843202096E+03 -0.20542958161E+03 -0.83107673638E+02  0.47237097922E+03  0.40000000000E+03 0. -1.
<mgrwt>
<rscale>  2 0.46500264E+03</rscale>
<asrwt>0</asrwt>
<pdfrwt beam="1">  1       21 0.43387985E-01 0.46500264E+03</pdfrwt>
<pdfrwt beam="2">  1       21 0.13789353E+00 0.46500264E+03</pdfrwt>
<totfact> 0.16143745E+03</totfact>
</mgrwt>
</event>
<event>
 4    1  0.4918322E-002  0.4013101E+03  0.7818608E-02  0.1043327E+00
         21   -1    0    0  501  502  0.00000000000E+00  0.00000000000E+00  0.15754457615E+04  0.15754457615E+04  0.00000000000E+00 0. -1.
         21   -1    0    0  502  503 -0.00000000000E+00 -0.00000000000E+00 -0.15462842822E+03  0.15462842822E+03  0.00000000000E+00 0. -1.
    9000007    1    1    2  501    0 -0.12199882475E+02  0.30016212455E+02  0.20682659532E+03  0.45147209291E+03  0.40000000000E+03 0. -1.
   -9000007    1    1    2    0  503  0.12199882475E+02 -0.30016212455E+02  0.12139907380E+04  0.12786020968E+04  0.40000000000E+03 0. -1.
<mgrwt>
<rscale>  2 0.40131012E+03</rscale>
<asrwt>0</asrwt>
<pdfrwt beam="1">  1       21 0.24237626E+00 0.40131012E+03</pdfrwt>
<pdfrwt beam="2">  1       21 0.23788990E-01 0.40131012E+03</pdfrwt>
<totfact> 0.10372889E+03</totfact>
</mgrwt>
</event>
<event>
 4    1  0.4918322E-002  0.6460374E+03  0.7818608E-02  0.9814243E-01
         21   -1    0    0  501  502  0.00000000000E+00  0.00000000000E+00  0.60296549123E+03  0.60296549123E+03  0.00000000000E+00 0.  1.
         21   -1    0    0  502  503 -0.00000000000E+00 -0.00000000000E+00 -0.77065238928E+03  0.77065238928E+03  0.00000000000E+00 0. -1.
    9000007    1    1    2  501    0  0.40359266093E+03 -0.30737154112E+03  0.13531003411E+03  0.66005538069E+03  0.40000000000E+03 0.  1.
   -9000007    1    1    2    0  503 -0.40359266093E+03  0.30737154112E+03 -0.30299693217E+03  0.71356249982E+03  0.40000000000E+03 0. -1.
<mgrwt>
<rscale>  2 0.64603738E+03</rscale>
<asrwt>0</asrwt>
<pdfrwt beam="1">  1       21 0.92763922E-01 0.64603738E+03</pdfrwt>
<pdfrwt beam="2">  1       21 0.11856191E+00 0.64603738E+03</pdfrwt>
<totfact> 0.41276978E+02</totfact>
</mgrwt>
</event>
<event>
 4    1  0.4918322E-002  0.4848470E+03  0.7818608E-02  0.1017812E+00
         21   -1    0    0  503  502  0.00000000000E+00  0.00000000000E+00  0.26524405559E+03  0.26524405559E+03  0.00000000000E+00 0. -1.
         21   -1    0    0  501  503 -0.00000000000E+00 -0.00000000000E+00 -0.15510027911E+04  0.15510027911E+04  0.00000000000E+00 0.  1.
    9000007    1    1    2  501    0 -0.31709449031E+01  0.27398285715E+03 -0.12373954441E+04  0.13289936591E+04  0.40000000000E+03 0.  1.
   -9000007    1    1    2    0  502  0.31709449031E+01 -0.27398285715E+03 -0.48363291488E+02  0.48725318764E+03  0.40000000000E+03 0. -1.
<mgrwt>
<rscale>  2 0.48484705E+03</rscale>
<asrwt>0</asrwt>
<pdfrwt beam="1">  1       21 0.40806778E-01 0.48484705E+03</pdfrwt>
<pdfrwt beam="2">  1       21 0.23861581E+00 0.48484705E+03</pdfrwt>
<totfact> 0.35673580E+02</totfact>
</mgrwt>
</event>
<event>
 4    1  0.4918322E-002  0.4326910E+03  0.7818608E-02  0.1033013E+00
         21   -1    0    0  501  502  0.00000000000E+00  0.00000000000E+00  0.25051469886E+03  0.25051469886E+03  0.00000000000E+00 0. -1.
         21   -1    0    0  502  503 -0.00000000000E+00 -0.00000000000E+00 -0.12457883619E+04  0.12457883619E+04  0.00000000000E+00 0.  1.
    9000007    1    1    2  501    0  0.13985379391E+03 -0.87535199313E+02 -0.24404594895E+02  0.43337867857E+03  0.40000000000E+03 0. -1.
   -9000007    1    1    2    0  503 -0.13985379391E+03  0.87535199313E+02 -0.97086906816E+03  0.10629243822E+04  0.40000000000E+03 0.  1.
<mgrwt>
<rscale>  2 0.43269099E+03</rscale>
<asrwt>0</asrwt>
<pdfrwt beam="1">  1       21 0.38540723E-01 0.43269099E+03</pdfrwt>
<pdfrwt beam="2">  1       21 0.19165975E+00 0.43269099E+03</pdfrwt>
<totfact> 0.82956123E+02</totfact>
</mgrwt>
</event>
<event>
 4    1  0.4918322E-002  0.6609145E+03  0.7818608E-02  0.9786512E-01
         21   -1    0    0  503  502  0.00000000000E+00  0.00000000000E+00  0.11165328171E+04  0.11165328171E+04  0.00000000000E+00 0. -1.
         21   -1    0    0  501  503 -0.00000000000E+00 -0.00000000000E+00 -0.42010295552E+03  0.42010295552E+03  0.00000000000E+00 0.  1.
    9000007    1    1    2  501    0 -0.41541695230E+03  0.32285719539E+03  0.14675111282E+03  0.67701100581E+03  0.40000000000E+03 0.  1.
   -9000007    1    1    2    0  502  0.41541695230E+03 -0.32285719539E+03  0.54967874876E+03  0.85962476681E+03  0.40000000000E+03 0.  1.
<mgrwt>
<rscale>  2 0.66091453E+03</rscale>
<asrwt>0</asrwt>
<pdfrwt beam="1">  1       21 0.17177428E+00 0.66091453E+03</pdfrwt>
<pdfrwt beam="2">  1       21 0.64631224E-01 0.66091453E+03</pdfrwt>
<totfact> 0.34709883E+02</totfact>
</mgrwt>
</event>
<event>
 4    1  0.4918322E-002  0.4225281E+03  0.7818608E-02  0.1036247E+00
         21   -1    0    0  503  502  0.00000000000E+00  0.00000000000E+00  0.80004167076E+03  0.80004167076E+03  0.00000000000E+00 0.  1.
         21   -1    0    0  501  503 -0.00000000000E+00 -0.00000000000E+00 -0.23326594268E+03  0.23326594268E+03  0.00000000000E+00 0.  1.
    9000007    1    1    2  501    0  0.61220289487E+01  0.13598731033E+03  0.17580141198E+03  0.45764196078E+03  0.40000000000E+03 0.  1.
   -9000007    1    1    2    0  502 -0.61220289487E+01 -0.13598731033E+03  0.39097431610E+03  0.57566565267E+03  0.40000000000E+03 0.  1.
<mgrwt>
<rscale>  2 0.42252814E+03</rscale>
<asrwt>0</asrwt>
<pdfrwt beam="1">  1       21 0.12308333E+00 0.42252814E+03</pdfrwt>
<pdfrwt beam="2">  1       21 0.35887068E-01 0.42252814E+03</pdfrwt>
<totfact> 0.32562013E+03</totfact>
</mgrwt>
</event>
<event>
 4    1  0.4918322E-002  0.4314494E+03  0.7818608E-02  0.1033403E+00
         21   -1    0    0  503  502  0.00000000000E+00  0.00000000000E+00  0.14854262883E+03  0.14854262883E+03  0.00000000000E+00 0.  1.
         21   -1    0    0  501  503 -0.00000000000E+00 -0.00000000000E+00 -0.12718962529E+04  0.12718962529E+04  0.00000000000E+00 0.  1.
    9000007    1    1    2  501    0 -0.12103031517E+03  0.10723938503E+03 -0.64786238266E+03  0.77837927115E+03  0.40000000000E+03 0.  1.
   -9000007    1    1    2    0  502  0.12103031517E+03 -0.10723938503E+03 -0.47549124144E+03  0.64205961061E+03  0.40000000000E+03 0.  1.
<mgrwt>
<rscale>  2 0.43144944E+03</rscale>
<asrwt>0</asrwt>
<pdfrwt beam="1">  1       21 0.22852711E-01 0.43144944E+03</pdfrwt>
<pdfrwt beam="2">  1       21 0.19567636E+00 0.43144944E+03</pdfrwt>
<totfact> 0.21987345E+03</totfact>
</mgrwt>
</event>
<event>
 4    1  0.4918322E-002  0.4607862E+03  0.7818608E-02  0.1024553E+00
         21   -1    0    0  501  502  0.00000000000E+00  0.00000000000E+00  0.41548797348E+03  0.41548797348E+03  0.00000000000E+00 0. -1.
         21   -1    0    0  502  503 -0.00000000000E+00 -0.00000000000E+00 -0.61187675497E+03  0.61187675497E+03  0.00000000000E+00 0. -1.
    9000007    1    1    2  501    0  0.22701333216E+03  0.28087464327E+02  0.11035477939E+03  0.47381656363E+03  0.40000000000E+03 0.  1.
   -9000007    1    1    2    0  503 -0.22701333216E+03 -0.28087464327E+02 -0.30674356088E+03  0.55354816482E+03  0.40000000000E+03 0.  1.
<mgrwt>
<rscale>  2 0.46078624E+03</rscale>
<asrwt>0</asrwt>
<pdfrwt beam="1">  1       21 0.63921227E-01 0.46078624E+03</pdfrwt>
<pdfrwt beam="2">  1       21 0.94134885E-01 0.46078624E+03</pdfrwt>
<totfact> 0.18351779E+03</totfact>
</mgrwt>
</event>
<event>
 4    1  0.4918322E-002  0.4099583E+03  0.7818608E-02  0.1040385E+00
         21   -1    0    0  503  502  0.00000000000E+00  0.00000000000E+00  0.77918098662E+03  0.77918098662E+03  0.00000000000E+00 0.  1.
         21   -1    0    0  501  503 -0.00000000000E+00 -0.00000000000E+00 -0.54364593131E+03  0.54364593131E+03  0.00000000000E+00 0.  1.
    9000007    1    1    2  501    0  0.39344301803E+02 -0.80733093351E+02 -0.39594372908E+03  0.56994494738E+03  0.40000000000E+03 0.  1.
   -9000007    1    1    2    0  502 -0.39344301803E+02  0.80733093351E+02  0.63147878439E+03  0.75288197055E+03  0.40000000000E+03 0.  1.
<mgrwt>
<rscale>  2 0.40995830E+03</rscale>
<asrwt>0</asrwt>
<pdfrwt beam="1">  1       21 0.11987400E+00 0.40995830E+03</pdfrwt>
<pdfrwt beam="2">  1       21 0.83637836E-01 0.40995830E+03</pdfrwt>
<totfact> 0.56214052E+02</totfact>
</mgrwt>
</event>
<event>
 4    1  0.4918322E-002  0.4302810E+03  0.7818608E-02  0.1033771E+00
         21   -1    0    0  503  502  0.00000000000E+00  0.00000000000E+00  0.20537854527E+03  0.20537854527E+03  0.00000000000E+00 0.  1.
         21   -1    0    0  501  503 -0.00000000000E+00 -0.00000000000E+00 -0.10929619872E+04  0.10929619872E+04  0.00000000000E+00 0.  1.
    9000007    1    1    2  501    0  0.13424609126E+03  0.84378692205E+02 -0.71552067946E+03  0.83493210469E+03  0.40000000000E+03 0.  1.
   -9000007    1    1    2    0  502 -0.13424609126E+03 -0.84378692205E+02 -0.17206276248E+03  0.46340842779E+03  0.40000000000E+03 0.  1.
<mgrwt>
<rscale>  2 0.43028104E+03</rscale>
<asrwt>0</asrwt>
<pdfrwt beam="1">  1       21 0.31596699E-01 0.43028104E+03</pdfrwt>
<pdfrwt beam="2">  1       21 0.16814800E+00 0.43028104E+03</pdfrwt>
<totfact> 0.18168782E+03</totfact>
</mgrwt>
</event>
<event>
 4    1  0.4918322E-002  0.4024749E+03  0.7818608E-02  0.1042926E+00
         21   -1    0    0  503  502  0.00000000000E+00  0.00000000000E+00  0.25887019429E+03  0.25887019429E+03  0.00000000000E+00 0.  1.
         21   -1    0    0  501  503 -0.00000000000E+00 -0.00000000000E+00 -0.94224823506E+03  0.94224823506E+03  0.00000000000E+00 0.  1.
    9000007    1    1    2  501    0 -0.78825962879E+01  0.43862083495E+02 -0.68975704815E+03  0.79859301472E+03  0.40000000000E+03 0.  1.
   -9000007    1    1    2    0  502  0.78825962879E+01 -0.43862083495E+02  0.63790073760E+01  0.40252541464E+03  0.40000000000E+03 0.  1.
<mgrwt>
<rscale>  2 0.40247487E+03</rscale>
<asrwt>0</asrwt>
<pdfrwt beam="1">  1       21 0.39826184E-01 0.40247487E+03</pdfrwt>
<pdfrwt beam="2">  1       21 0.14496127E+00 0.40247487E+03</pdfrwt>
<totfact> 0.17316162E+03</totfact>
</mgrwt>
</event>
<event>
 4    1  0.4918322E-002  0.4079616E+03  0.7818608E-02  0.1041057E+00
         21   -1    0    0  503  502  0.00000000000E+00  0.00000000000E+00  0.55796620216E+03  0.55796620216E+03  0.00000000000E+00 0.  1.
         21   -1    0    0  501  503 -0.00000000000E+00 -0.00000000000E+00 -0.38706701636E+03  0.38706701636E+03  0.00000000000E+00 0.  1.
    9000007    1    1    2  501    0 -0.74749459652E+02  0.29071980695E+02 -0.14085207554E+03  0.43159236435E+03  0.40000000000E+03 0.  1.
   -9000007    1    1    2    0  502  0.74749459652E+02 -0.29071980695E+02  0.31175126134E+03  0.51344085417E+03  0.40000000000E+03 0.  1.
<mgrwt>
<rscale>  2 0.40796159E+03</rscale>
<asrwt>0</asrwt>
<pdfrwt beam="1">  1       21 0.85840954E-01 0.40796159E+03</pdfrwt>
<pdfrwt beam="2">  1       21 0.59548772E-01 0.40796159E+03</pdfrwt>
<totfact> 0.27224361E+03</totfact>
</mgrwt>
</event>
<event>
 4    1  0.4918322E-002  0.4025035E+03  0.7818608E-02  0.1042916E+00
         21   -1    0    0  503  502  0.00000000000E+00  0.00000000000E+00  0.36357109102E+03  0.36357109102E+03  0.00000000000E+00 0. -1.
         21   -1    0    0  501  503 -0.00000000000E+00 -0.00000000000E+00 -0.55400315651E+03  0.55400315651E+03  0.00000000000E+00 0. -1.
    9000007    1    1    2  501    0  0.36119244415E+02 -0.26542226993E+02 -0.29815529830E+03  0.50090485278E+03  0.40000000000E+03 0. -1.
   -9000007    1    1    2    0  502 -0.36119244415E+02  0.26542226993E+02  0.10772323281E+03  0.41666939475E+03  0.40000000000E+03 0. -1.
<mgrwt>
<rscale>  2 0.40250353E+03</rscale>
<asrwt>0</asrwt>
<pdfrwt beam="1">  1       21 0.55934014E-01 0.40250353E+03</pdfrwt>
<pdfrwt beam="2">  1       21 0.85231255E-01 0.40250353E+03</pdfrwt>
<totfact> 0.31784543E+03</totfact>
</mgrwt>
</event>
<event>
 4    1  0.4918322E-002  0.4185522E+03  0.7818608E-02  0.1037539E+00
         21   -1    0    0  503  502  0.00000000000E+00  0.00000000000E+00  0.16765910593E+03  0.16765910593E+03  0.00000000000E+00 0. -1.
         21   -1    0    0  501  503 -0.00000000000E+00 -0.00000000000E+00 -0.10449344181E+04  0.10449344181E+04  0.00000000000E+00 0. -1.
    9000007    1    1    2  501    0  0.33089612155E+02 -0.11870563958E+03 -0.43485508034E+03  0.60356018109E+03  0.40000000000E+03 0.  1.
   -9000007    1    1    2    0  502 -0.33089612155E+02  0.11870563958E+03 -0.44242023187E+03  0.60903334298E+03  0.40000000000E+03 0.  1.
<mgrwt>
<rscale>  2 0.41855221E+03</rscale>
<asrwt>0</asrwt>
<pdfrwt beam="1">  1       21 0.25793708E-01 0.41855221E+03</pdfrwt>
<pdfrwt beam="2">  1       21 0.16075914E+00 0.41855221E+03</pdfrwt>
<totfact> 0.30911934E+03</totfact>
</mgrwt>
</event>
<event>
 4    1  0.4918322E-002  0.4416256E+03  0.7818608E-02  0.1030249E+00
         21   -1    0    0  503  502  0.00000000000E+00  0.00000000000E+00  0.16006953315E+04  0.16006953315E+04  0.00000000000E+00 0.  1.
         21   -1    0    0  501  503 -0.00000000000E+00 -0.00000000000E+00 -0.12540166779E+03  0.12540166779E+03  0.00000000000E+00 0.  1.
    9000007    1    1    2  501    0 -0.10760501437E+03 -0.15314794987E+03  0.59225431824E+03  0.73878163969E+03  0.40000000000E+03 0.  1.
   -9000007    1    1    2    0  502  0.10760501437E+03  0.15314794987E+03  0.88303934551E+03  0.98731535964E+03  0.40000000000E+03 0.  1.
<mgrwt>
<rscale>  2 0.44162556E+03</rscale>
<asrwt>0</asrwt>
<pdfrwt beam="1">  1       21 0.24626081E+00 0.44162556E+03</pdfrwt>
<pdfrwt beam="2">  1       21 0.19292565E-01 0.44162556E+03</pdfrwt>
<totfact> 0.14356071E+03</totfact>
</mgrwt>
</event>
<event>
 4    1  0.4918322E-002  0.4349526E+03  0.7818608E-02  0.1032307E+00
         21   -1    0    0  501  502  0.00000000000E+00  0.00000000000E+00  0.43122863178E+03  0.43122863178E+03  0.00000000000E+00 0.  1.
         21   -1    0    0  502  503 -0.00000000000E+00 -0.00000000000E+00 -0.45362454652E+03  0.45362454652E+03  0.00000000000E+00 0.  1.
    9000007    1    1    2  501    0 -0.79091820592E+02 -0.15142075135E+03  0.69028320480E+02  0.44039603660E+03  0.40000000000E+03 0.  1.
   -9000007    1    1    2    0  503  0.79091820592E+02  0.15142075135E+03 -0.91424235229E+02  0.44445714170E+03  0.40000000000E+03 0.  1.
<mgrwt>
<rscale>  2 0.43495260E+03</rscale>
<asrwt>0</asrwt>
<pdfrwt beam="1">  1       21 0.66342866E-01 0.43495260E+03</pdfrwt>
<pdfrwt beam="2">  1       21 0.69788392E-01 0.43495260E+03</pdfrwt>
<totfact> 0.34130238E+03</totfact>
</mgrwt>
</event>
<event>
 4    1  0.4918322E-002  0.4605585E+03  0.7818608E-02  0.1024619E+00
         21   -1    0    0  503  502  0.00000000000E+00  0.00000000000E+00  0.14948019340E+04  0.14948019340E+04  0.00000000000E+00 0.  1.
         21   -1    0    0  501  503 -0.00000000000E+00 -0.00000000000E+00 -0.14190735767E+03  0.14190735767E+03  0.00000000000E+00 0.  1.
    9000007    1    1    2  501    0  0.22427187916E+03 -0.42617814550E+02  0.68184805060E+03  0.82281888530E+03  0.40000000000E+03 0.  1.
   -9000007    1    1    2    0  502 -0.22427187916E+03  0.42617814550E+02  0.67104652577E+03  0.81389040641E+03  0.40000000000E+03 0.  1.
<mgrwt>
<rscale>  2 0.46055852E+03</rscale>
<asrwt>0</asrwt>
<pdfrwt beam="1">  1       21 0.22996952E+00 0.46055852E+03</pdfrwt>
<pdfrwt beam="2">  1       21 0.21831902E-01 0.46055852E+03</pdfrwt>
<totfact> 0.14193734E+03</totfact>
</mgrwt>
</event>
<event>
 4    1  0.4918322E-002  0.4644525E+03  0.7818608E-02  0.1023498E+00
         21   -1    0    0  501  502  0.00000000000E+00  0.00000000000E+00  0.60483678564E+03  0.60483678564E+03  0.00000000000E+00 0.  1.
         21   -1    0    0  502  503 -0.00000000000E+00 -0.00000000000E+00 -0.62309874054E+03  0.62309874054E+03  0.00000000000E+00 0.  1.
    9000007    1    1    2  501    0  0.28473360052E+02  0.23431895192E+03  0.39235699034E+03  0.60799680207E+03  0.40000000000E+03 0.  1.
   -9000007    1    1    2    0  503 -0.28473360052E+02 -0.23431895192E+03 -0.41061894524E+03  0.61993872411E+03  0.40000000000E+03 0.  1.
<mgrwt>
<rscale>  2 0.46445248E+03</rscale>
<asrwt>0</asrwt>
<pdfrwt beam="1">  1       21 0.93051814E-01 0.46445248E+03</pdfrwt>
<pdfrwt beam="2">  1       21 0.95861344E-01 0.46445248E+03</pdfrwt>
<totfact> 0.74032269E+02</totfact>
</mgrwt>
</event>
<event>
 4    1  0.4918322E-002  0.4438864E+03  0.7818608E-02  0.1029561E+00
         21   -1    0    0  501  502  0.00000000000E+00  0.00000000000E+00  0.98414071273E+03  0.98414071273E+03  0.00000000000E+00 0.  1.
         21   -1    0    0  502  503 -0.00000000000E+00 -0.00000000000E+00 -0.35574130804E+03  0.35574130804E+03  0.00000000000E+00 0.  1.
    9000007    1    1    2  501    0  0.98913165813E+02  0.16507967825E+03  0.75717335745E+03  0.87769391463E+03  0.40000000000E+03 0.  1.
   -9000007    1    1    2    0  503 -0.98913165813E+02 -0.16507967825E+03 -0.12877395276E+03  0.46218810613E+03  0.40000000000E+03 0.  1.
<mgrwt>
<rscale>  2 0.44388638E+03</rscale>
<asrwt>0</asrwt>
<pdfrwt beam="1">  1       21 0.15140626E+00 0.44388638E+03</pdfrwt>
<pdfrwt beam="2">  1       21 0.54729432E-01 0.44388638E+03</pdfrwt>
<totfact> 0.77434906E+02</totfact>
</mgrwt>
</event>
<event>
 4    1  0.4918322E-002  0.5109618E+03  0.7818608E-02  0.1010957E+00
         21   -1    0    0  503  502  0.00000000000E+00  0.00000000000E+00  0.74604005334E+03  0.74604005334E+03  0.00000000000E+00 0.  1.
         21   -1    0    0  501  503 -0.00000000000E+00 -0.00000000000E+00 -0.37860733951E+03  0.37860733951E+03  0.00000000000E+00 0. -1.
    9000007    1    1    2  501    0 -0.11220414580E+03 -0.29747630513E+03  0.29028249918E+02  0.51178565996E+03  0.40000000000E+03 0. -1.
   -9000007    1    1    2    0  502  0.11220414580E+03  0.29747630513E+03  0.33840446391E+03  0.61286173289E+03  0.40000000000E+03 0. -1.
<mgrwt>
<rscale>  2 0.51096176E+03</rscale>
<asrwt>0</asrwt>
<pdfrwt beam="1">  1       21 0.11477539E+00 0.51096176E+03</pdfrwt>
<pdfrwt beam="2">  1       21 0.58247283E-01 0.51096176E+03</pdfrwt>
<totfact> 0.13591340E+03</totfact>
</mgrwt>
</event>
<event>
 4    1  0.4918322E-002  0.4544761E+03  0.7818608E-02  0.1026396E+00
         21   -1    0    0  503  502  0.00000000000E+00  0.00000000000E+00  0.90809518162E+03  0.90809518162E+03  0.00000000000E+00 0. -1.
         21   -1    0    0  501  503 -0.00000000000E+00 -0.00000000000E+00 -0.26532360350E+03  0.26532360350E+03  0.00000000000E+00 0. -1.
    9000007    1    1    2  501    0  0.88813625621E+02 -0.19662304525E+03  0.99724776574E+02  0.46528863417E+03  0.40000000000E+03 0. -1.
   -9000007    1    1    2    0  502 -0.88813625621E+02  0.19662304525E+03  0.54304680154E+03  0.70813015095E+03  0.40000000000E+03 0. -1.
<mgrwt>
<rscale>  2 0.45447605E+03</rscale>
<asrwt>0</asrwt>
<pdfrwt beam="1">  1       21 0.13970695E+00 0.45447605E+03</pdfrwt>
<pdfrwt beam="2">  1       21 0.40819016E-01 0.45447605E+03</pdfrwt>
<totfact> 0.17772473E+03</totfact>
</mgrwt>
</event>
<event>
 4    1  0.4918322E-002  0.4269099E+03  0.7818608E-02  0.1034841E+00
         21   -1    0    0  501  502  0.00000000000E+00  0.00000000000E+00  0.32357832663E+03  0.32357832663E+03  0.00000000000E+00 0. -1.
         21   -1    0    0  502  503 -0.00000000000E+00 -0.00000000000E+00 -0.61572622183E+03  0.61572622183E+03  0.00000000000E+00 0. -1.
    9000007    1    1    2  501    0 -0.13597248036E+03  0.61347922190E+02 -0.89518393196E+01  0.42700376860E+03  0.40000000000E+03 0. -1.
   -9000007    1    1    2    0  503  0.13597248036E+03 -0.61347922190E+02 -0.28319605589E+03  0.51230077986E+03  0.40000000000E+03 0. -1.
<mgrwt>
<rscale>  2 0.42690992E+03</rscale>
<asrwt>0</asrwt>
<pdfrwt beam="1">  1       21 0.49781282E-01 0.42690992E+03</pdfrwt>
<pdfrwt beam="2">  1       21 0.94727110E-01 0.42690992E+03</pdfrwt>
<totfact> 0.31484417E+03</totfact>
</mgrwt>
</event>
<event>
 4    1  0.4918322E-002  0.5475651E+03  0.7818608E-02  0.1002059E+00
         21   -1    0    0  503  502  0.00000000000E+00  0.00000000000E+00  0.20177676608E+04  0.20177676608E+04  0.00000000000E+00 0.  1.
         21   -1    0    0  501  503 -0.00000000000E+00 -0.00000000000E+00 -0.24366484376E+03  0.24366484376E+03  0.00000000000E+00 0.  1.
    9000007    1    1    2  501    0  0.36518153185E+03  0.80436331716E+02  0.18076383368E+03  0.57663083357E+03  0.40000000000E+03 0.  1.
   -9000007    1    1    2    0  502 -0.36518153185E+03 -0.80436331716E+02  0.15933389834E+04  0.16848016710E+04  0.40000000000E+03 0.  1.
<mgrwt>
<rscale>  2 0.54756511E+03</rscale>
<asrwt>0</asrwt>
<pdfrwt beam="1">  1       21 0.31042578E+00 0.54756511E+03</pdfrwt>
<pdfrwt beam="2">  1       21 0.37486900E-01 0.54756511E+03</pdfrwt>
<totfact> 0.15006484E+02</totfact>
</mgrwt>
</event>
<event>
 4    1  0.4918322E-002  0.4938896E+03  0.7818608E-02  0.1015386E+00
         21   -1    0    0  503  502  0.00000000000E+00  0.00000000000E+00  0.41404596427E+03  0.41404596427E+03  0.00000000000E+00 0.  1.
         21   -1    0    0  501  503 -0.00000000000E+00 -0.00000000000E+00 -0.59180350230E+03  0.59180350230E+03  0.00000000000E+00 0.  1.
    9000007    1    1    2  501    0  0.59792449183E+02 -0.28346388199E+03 -0.55075985705E+02  0.49695097703E+03  0.40000000000E+03 0.  1.
   -9000007    1    1    2    0  502 -0.59792449183E+02  0.28346388199E+03 -0.12268155232E+03  0.50889848954E+03  0.40000000000E+03 0.  1.
<mgrwt>
<rscale>  2 0.49388957E+03</rscale>
<asrwt>0</asrwt>
<pdfrwt beam="1">  1       21 0.63699379E-01 0.49388957E+03</pdfrwt>
<pdfrwt beam="2">  1       21 0.91046693E-01 0.49388957E+03</pdfrwt>
<totfact> 0.19790076E+03</totfact>
</mgrwt>
</event>
<event>
 4    1  0.4918322E-002  0.6109312E+03  0.7818608E-02  0.9882983E-01
         21   -1    0    0  503  502  0.00000000000E+00  0.00000000000E+00  0.57806444003E+03  0.57806444003E+03  0.00000000000E+00 0. -1.
         21   -1    0    0  501  503 -0.00000000000E+00 -0.00000000000E+00 -0.69360639269E+03  0.69360639269E+03  0.00000000000E+00 0.  1.
    9000007    1    1    2  501    0  0.46147120750E+03 -0.16769005847E+02 -0.22493255187E+03  0.65102344643E+03  0.40000000000E+03 0.  1.
   -9000007    1    1    2    0  502 -0.46147120750E+03  0.16769005847E+02  0.10939059921E+03  0.62064738629E+03  0.40000000000E+03 0. -1.
<mgrwt>
<rscale>  2 0.61093115E+03</rscale>
<asrwt>0</asrwt>
<pdfrwt beam="1">  1       21 0.88932991E-01 0.61093115E+03</pdfrwt>
<pdfrwt beam="2">  1       21 0.10670868E+00 0.61093115E+03</pdfrwt>
<totfact> 0.60161322E+02</totfact>
</mgrwt>
</event>
<event>
 4    1  0.4918322E-002  0.4737639E+03  0.7818608E-02  0.1020863E+00
         21   -1    0    0  503  502  0.00000000000E+00  0.00000000000E+00  0.13004693285E+04  0.13004693285E+04  0.00000000000E+00 0.  1.
         21   -1    0    0  501  503 -0.00000000000E+00 -0.00000000000E+00 -0.58478548507E+03  0.58478548507E+03  0.00000000000E+00 0.  1.
    9000007    1    1    2  501    0  0.25030300840E+02  0.25263756276E+03 -0.43355009137E+03  0.64219773886E+03  0.40000000000E+03 0.  1.
   -9000007    1    1    2    0  502 -0.25030300840E+02 -0.25263756276E+03  0.11492339348E+04  0.12430570747E+04  0.40000000000E+03 0.  1.
<mgrwt>
<rscale>  2 0.47376392E+03</rscale>
<asrwt>0</asrwt>
<pdfrwt beam="1">  1       21 0.20007220E+00 0.47376392E+03</pdfrwt>
<pdfrwt beam="2">  1       21 0.89966998E-01 0.47376392E+03</pdfrwt>
<totfact> 0.11109255E+02</totfact>
</mgrwt>
</event>
<event>
 4    1  0.4918322E-002  0.4053052E+03  0.7818608E-02  0.1041958E+00
         21   -1    0    0  501  502  0.00000000000E+00  0.00000000000E+00  0.46346242818E+03  0.46346242818E+03  0.00000000000E+00 0.  1.
         21   -1    0    0  502  503 -0.00000000000E+00 -0.00000000000E+00 -0.54189289535E+03  0.54189289535E+03  0.00000000000E+00 0.  1.
    9000007    1    1    2  501    0 -0.59453601028E+02  0.27157592300E+02  0.25643098547E+03  0.47961350670E+03  0.40000000000E+03 0.  1.
   -9000007    1    1    2    0  503  0.59453601028E+02 -0.27157592300E+02 -0.33486145265E+03  0.52574181683E+03  0.40000000000E+03 0.  1.
<mgrwt>
<rscale>  2 0.40530515E+03</rscale>
<asrwt>0</asrwt>
<pdfrwt beam="1">  1       21 0.71301911E-01 0.40530515E+03</pdfrwt>
<pdfrwt beam="2">  1       21 0.83368138E-01 0.40530515E+03</pdfrwt>
<totfact> 0.19565652E+03</totfact>
</mgrwt>
</event>
<event>
 4    1  0.4918322E-002  0.4476755E+03  0.7818608E-02  0.1028417E+00
         21   -1    0    0  503  502  0.00000000000E+00  0.00000000000E+00  0.19506673341E+03  0.19506673341E+03  0.00000000000E+00 0. -1.
         21   -1    0    0  501  503 -0.00000000000E+00 -0.00000000000E+00 -0.13099669698E+04  0.13099669698E+04  0.00000000000E+00 0. -1.
    9000007    1    1    2  501    0  0.93752127999E+02  0.17783111689E+03 -0.90694405073E+03  0.10114152850E+04  0.40000000000E+03 0. -1.
   -9000007    1    1    2    0  502 -0.93752127999E+02 -0.17783111689E+03 -0.20795618570E+03  0.49361841822E+03  0.40000000000E+03 0. -1.
<mgrwt>
<rscale>  2 0.44767552E+03</rscale>
<asrwt>0</asrwt>
<pdfrwt beam="1">  1       21 0.30010266E-01 0.44767552E+03</pdfrwt>
<pdfrwt beam="2">  1       21 0.20153339E+00 0.44767552E+03</pdfrwt>
<totfact> 0.11707262E+03</totfact>
</mgrwt>
</event>
<event>
 4    1  0.4918322E-002  0.4023925E+03  0.7818608E-02  0.1042954E+00
         21   -1    0    0  501  502  0.00000000000E+00  0.00000000000E+00  0.14613784808E+03  0.14613784808E+03  0.00000000000E+00 0. -1.
         21   -1    0    0  502  503 -0.00000000000E+00 -0.00000000000E+00 -0.13633356720E+04  0.13633356720E+04  0.00000000000E+00 0. -1.
    9000007    1    1    2  501    0 -0.25004492234E+02  0.35979686996E+02 -0.28196933113E+03  0.49135167264E+03  0.40000000000E+03 0. -1.
   -9000007    1    1    2    0  503  0.25004492234E+02 -0.35979686996E+02 -0.93522849281E+03  0.10181218475E+04  0.40000000000E+03 0. -1.
<mgrwt>
<rscale>  2 0.40239255E+03</rscale>
<asrwt>0</asrwt>
<pdfrwt beam="1">  1       21 0.22482747E-01 0.40239255E+03</pdfrwt>
<pdfrwt beam="2">  1       21 0.20974394E+00 0.40239255E+03</pdfrwt>
<totfact> 0.18566515E+03</totfact>
</mgrwt>
</event>
<event>
 4    1  0.4918322E-002  0.4289631E+03  0.7818608E-02  0.1034188E+00
         21   -1    0    0  503  502  0.00000000000E+00  0.00000000000E+00  0.18367345084E+03  0.18367345084E+03  0.00000000000E+00 0.  1.
         21   -1    0    0  501  503 -0.00000000000E+00 -0.00000000000E+00 -0.10885678426E+04  0.10885678426E+04  0.00000000000E+00 0. -1.
    9000007    1    1    2  501    0  0.63527528609E+01 -0.15481923725E+03 -0.63201110111E+03  0.76383727692E+03  0.40000000000E+03 0.  1.
   -9000007    1    1    2    0  502 -0.63527528609E+01  0.15481923725E+03 -0.27288329063E+03  0.50840401650E+03  0.40000000000E+03 0.  1.
<mgrwt>
<rscale>  2 0.42896311E+03</rscale>
<asrwt>0</asrwt>
<pdfrwt beam="1">  1       21 0.28257454E-01 0.42896311E+03</pdfrwt>
<pdfrwt beam="2">  1       21 0.16747198E+00 0.42896311E+03</pdfrwt>
<totfact> 0.22949128E+03</totfact>
</mgrwt>
</event>
<event>
 4    1  0.4918322E-002  0.4508528E+03  0.7818608E-02  0.1027468E+00
         21   -1    0    0  501  502  0.00000000000E+00  0.00000000000E+00  0.30912440197E+03  0.30912440197E+03  0.00000000000E+00 0. -1.
         21   -1    0    0  502  503 -0.00000000000E+00 -0.00000000000E+00 -0.66349561418E+03  0.66349561418E+03  0.00000000000E+00 0. -1.
    9000007    1    1    2  501    0  0.19392872570E+03 -0.75232420291E+02 -0.22317700235E+03  0.50306683660E+03  0.40000000000E+03 0.  1.
   -9000007    1    1    2    0  503 -0.19392872570E+03  0.75232420291E+02 -0.13119420987E+03  0.46955317954E+03  0.40000000000E+03 0.  1.
<mgrwt>
<rscale>  2 0.45085282E+03</rscale>
<asrwt>0</asrwt>
<pdfrwt beam="1">  1       21 0.47557601E-01 0.45085282E+03</pdfrwt>
<pdfrwt beam="2">  1       21 0.10207625E+00 0.45085282E+03</pdfrwt>
<totfact> 0.28699123E+03</totfact>
</mgrwt>
</event>
<event>
 4    1  0.4918322E-002  0.4069679E+03  0.7818608E-02  0.1041393E+00
         21   -1    0    0  501  502  0.00000000000E+00  0.00000000000E+00  0.17484723410E+04  0.17484723410E+04  0.00000000000E+00 0. -1.
         21   -1    0    0  502  503 -0.00000000000E+00 -0.00000000000E+00 -0.10525911097E+03  0.10525911097E+03  0.00000000000E+00 0. -1.
    9000007    1    1    2  501    0 -0.36845259235E+02 -0.65309087747E+02  0.11148309274E+04  0.11867901444E+04  0.40000000000E+03 0. -1.
   -9000007    1    1    2    0  503  0.36845259235E+02  0.65309087747E+02  0.52838230264E+03  0.66694130762E+03  0.40000000000E+03 0. -1.
<mgrwt>
<rscale>  2 0.40696787E+03</rscale>
<asrwt>0</asrwt>
<pdfrwt beam="1">  1       21 0.26899572E+00 0.40696787E+03</pdfrwt>
<pdfrwt beam="2">  1       21 0.16193711E-01 0.40696787E+03</pdfrwt>
<totfact> 0.14765250E+03</totfact>
</mgrwt>
</event>
<event>
 4    1  0.4918322E-002  0.4405479E+03  0.7818608E-02  0.1030579E+00
         21   -1    0    0  503  502  0.00000000000E+00  0.00000000000E+00  0.26070766691E+03  0.26070766691E+03  0.00000000000E+00 0.  1.
         21   -1    0    0  501  503 -0.00000000000E+00 -0.00000000000E+00 -0.82398237472E+03  0.82398237472E+03  0.00000000000E+00 0.  1.
    9000007    1    1    2  501    0  0.18413494698E+03 -0.13296364620E+02 -0.45013848303E+03  0.62984690673E+03  0.40000000000E+03 0.  1.
   -9000007    1    1    2    0  502 -0.18413494698E+03  0.13296364620E+02 -0.11313622479E+03  0.45484313490E+03  0.40000000000E+03 0.  1.
<mgrwt>
<rscale>  2 0.44054792E+03</rscale>
<asrwt>0</asrwt>
<pdfrwt beam="1">  1       21 0.40108873E-01 0.44054792E+03</pdfrwt>
<pdfrwt beam="2">  1       21 0.12676652E+00 0.44054792E+03</pdfrwt>
<totfact> 0.23885513E+03</totfact>
</mgrwt>
</event>
<event>
 4    1  0.4918322E-002  0.4727921E+03  0.7818608E-02  0.1021135E+00
         21   -1    0    0  503  502  0.00000000000E+00  0.00000000000E+00  0.13121342323E+04  0.13121342323E+04  0.00000000000E+00 0. -1.
         21   -1    0    0  501  503 -0.00000000000E+00 -0.00000000000E+00 -0.21567976589E+03  0.21567976589E+03  0.00000000000E+00 0.  1.
    9000007    1    1    2  501    0 -0.20872886567E+03 -0.14129633365E+03  0.19804845690E+03  0.51259690259E+03  0.40000000000E+03 0.  1.
   -9000007    1    1    2    0  502  0.20872886567E+03  0.14129633365E+03  0.89840600950E+03  0.10152170956E+04  0.40000000000E+03 0. -1.
<mgrwt>
<rscale>  2 0.47279212E+03</rscale>
<asrwt>0</asrwt>
<pdfrwt beam="1">  1       21 0.20186680E+00 0.47279212E+03</pdfrwt>
<pdfrwt beam="2">  1       21 0.33181503E-01 0.47279212E+03</pdfrwt>
<totfact> 0.94209634E+02</totfact>
</mgrwt>
</event>
<event>
 4    1  0.4918322E-002  0.4660502E+03  0.7818608E-02  0.1023041E+00
         21   -1    0    0  501  502  0.00000000000E+00  0.00000000000E+00  0.60721111035E+03  0.60721111035E+03  0.00000000000E+00 0. -1.
         21   -1    0    0  502  503 -0.00000000000E+00 -0.00000000000E+00 -0.55455606038E+03  0.55455606038E+03  0.00000000000E+00 0. -1.
    9000007    1    1    2  501    0 -0.70141081617E+02  0.22865476432E+03  0.37241403398E+03  0.59656934658E+03  0.40000000000E+03 0. -1.
   -9000007    1    1    2    0  503  0.70141081617E+02 -0.22865476432E+03 -0.31975898401E+03  0.56519782415E+03  0.40000000000E+03 0. -1.
<mgrwt>
<rscale>  2 0.46605018E+03</rscale>
<asrwt>0</asrwt>
<pdfrwt beam="1">  1       21 0.93417094E-01 0.46605018E+03</pdfrwt>
<pdfrwt beam="2">  1       21 0.85316317E-01 0.46605018E+03</pdfrwt>
<totfact> 0.96646498E+02</totfact>
</mgrwt>
</event>
<event>
 4    1  0.4918322E-002  0.4512951E+03  0.7818608E-02  0.1027337E+00
         21   -1    0    0  503  502  0.00000000000E+00  0.00000000000E+00  0.43375618382E+03  0.43375618382E+03  0.00000000000E+00 0. -1.
         21   -1    0    0  501  503 -0.00000000000E+00 -0.00000000000E+00 -0.54932833823E+03  0.54932833823E+03  0.00000000000E+00 0.  1.
    9000007    1    1    2  501    0 -0.19026279539E+03 -0.86413557616E+02 -0.24511553011E+03  0.51356485214E+03  0.40000000000E+03 0.  1.
   -9000007    1    1    2    0  502  0.19026279539E+03  0.86413557616E+02  0.12954337570E+03  0.46951966992E+03  0.40000000000E+03 0. -1.
<mgrwt>
<rscale>  2 0.45129506E+03</rscale>
<asrwt>0</asrwt>
<pdfrwt beam="1">  1       21 0.66731721E-01 0.45129506E+03</pdfrwt>
<pdfrwt beam="2">  1       21 0.84512052E-01 0.45129506E+03</pdfrwt>
<totfact> 0.21596743E+03</totfact>
</mgrwt>
</event>
<event>
 4    1  0.4918322E-002  0.4561954E+03  0.7818608E-02  0.1025890E+00
         21   -1    0    0  501  502  0.00000000000E+00  0.00000000000E+00  0.20813632527E+04  0.20813632527E+04  0.00000000000E+00 0. -1.
         21   -1    0    0  502  503 -0.00000000000E+00 -0.00000000000E+00 -0.10355747516E+03  0.10355747516E+03  0.00000000000E+00 0. -1.
    9000007    1    1    2  501    0  0.16019937430E+03  0.14983469191E+03  0.11916859243E+04  0.12760210094E+04  0.40000000000E+03 0. -1.
   -9000007    1    1    2    0  503 -0.16019937430E+03 -0.14983469191E+03  0.78611985327E+03  0.90889971842E+03  0.40000000000E+03 0. -1.
<mgrwt>
<rscale>  2 0.45619543E+03</rscale>
<asrwt>0</asrwt>
<pdfrwt beam="1">  1       21 0.32020970E+00 0.45619543E+03</pdfrwt>
<pdfrwt beam="2">  1       21 0.15931921E-01 0.45619543E+03</pdfrwt>
<totfact> 0.72900408E+02</totfact>
</mgrwt>
</event>
<event>
 4    1  0.4918322E-002  0.4085097E+03  0.7818608E-02  0.1040872E+00
         21   -1    0    0  503  502  0.00000000000E+00  0.00000000000E+00  0.54962805661E+03  0.54962805661E+03  0.00000000000E+00 0.  1.
         21   -1    0    0  501  503 -0.00000000000E+00 -0.00000000000E+00 -0.40715913693E+03  0.40715913693E+03  0.00000000000E+00 0.  1.
    9000007    1    1    2  501    0  0.12575399557E+02  0.81987981599E+02 -0.17000454339E+03  0.44247227549E+03  0.40000000000E+03 0. -1.
   -9000007    1    1    2    0  502 -0.12575399557E+02 -0.81987981599E+02  0.31247346308E+03  0.51431491805E+03  0.40000000000E+03 0. -1.
<mgrwt>
<rscale>  2 0.40850969E+03</rscale>
<asrwt>0</asrwt>
<pdfrwt beam="1">  1       21 0.84558163E-01 0.40850969E+03</pdfrwt>
<pdfrwt beam="2">  1       21 0.62639867E-01 0.40850969E+03</pdfrwt>
<totfact> 0.25230159E+03</totfact>
</mgrwt>
</event>
<event>
 4    1  0.4918322E-002  0.5291275E+03  0.7818608E-02  0.1006444E+00
         21   -1    0    0  501  502  0.00000000000E+00  0.00000000000E+00  0.10038337751E+04  0.10038337751E+04  0.00000000000E+00 0. -1.
         21   -1    0    0  502  503 -0.00000000000E+00 -0.00000000000E+00 -0.28679043882E+03  0.28679043882E+03  0.00000000000E+00 0.  1.
    9000007    1    1    2  501    0  0.34288952957E+03 -0.49017329035E+02  0.25152885106E+03  0.58586917563E+03  0.40000000000E+03 0.  1.
   -9000007    1    1    2    0  503 -0.34288952957E+03  0.49017329035E+02  0.46551448521E+03  0.70475503828E+03  0.40000000000E+03 0. -1.
<mgrwt>
<rscale>  2 0.52912752E+03</rscale>
<asrwt>0</asrwt>
<pdfrwt beam="1">  1       21 0.15443596E+00 0.52912752E+03</pdfrwt>
<pdfrwt beam="2">  1       21 0.44121606E-01 0.52912752E+03</pdfrwt>
<totfact> 0.11205764E+03</totfact>
</mgrwt>
</event>
<event>
 4    1  0.4918322E-002  0.4421818E+03  0.7818608E-02  0.1030079E+00
         21   -1    0    0  503  502  0.00000000000E+00  0.00000000000E+00  0.34977615683E+03  0.34977615683E+03  0.00000000000E+00 0.  1.
         21   -1    0    0  501  503 -0.00000000000E+00 -0.00000000000E+00 -0.63160016050E+03  0.63160016050E+03  0.00000000000E+00 0.  1.
    9000007    1    1    2  501    0 -0.14933451505E+03  0.11499537384E+03  0.25450113810E+02  0.44291358263E+03  0.40000000000E+03 0.  1.
   -9000007    1    1    2    0  502  0.14933451505E+03 -0.11499537384E+03 -0.30727411747E+03  0.53846273470E+03  0.40000000000E+03 0.  1.
<mgrwt>
<rscale>  2 0.44218179E+03</rscale>
<asrwt>0</asrwt>
<pdfrwt beam="1">  1       21 0.53811717E-01 0.44218179E+03</pdfrwt>
<pdfrwt beam="2">  1       21 0.97169255E-01 0.44218179E+03</pdfrwt>
<totfact> 0.24937204E+03</totfact>
</mgrwt>
</event>
<event>
 4    1  0.4918322E-002  0.4195074E+03  0.7818608E-02  0.1037227E+00
         21   -1    0    0  501  502  0.00000000000E+00  0.00000000000E+00  0.22536480591E+03  0.22536480591E+03  0.00000000000E+00 0.  1.
         21   -1    0    0  502  503 -0.00000000000E+00 -0.00000000000E+00 -0.81283708073E+03  0.81283708073E+03  0.00000000000E+00 0.  1.
    9000007    1    1    2  501    0  0.22909309445E+02 -0.12434460739E+03 -0.19083347630E+03  0.46087290387E+03  0.40000000000E+03 0.  1.
   -9000007    1    1    2    0  503 -0.22909309445E+02  0.12434460739E+03 -0.39663879852E+03  0.57732898276E+03  0.40000000000E+03 0.  1.
<mgrwt>
<rscale>  2 0.41950735E+03</rscale>
<asrwt>0</asrwt>
<pdfrwt beam="1">  1       21 0.34671509E-01 0.41950735E+03</pdfrwt>
<pdfrwt beam="2">  1       21 0.12505186E+00 0.41950735E+03</pdfrwt>
<totfact> 0.33560670E+03</totfact>
</mgrwt>
</event>
<event>
 4    1  0.4918322E-002  0.4251876E+03  0.7818608E-02  0.1035391E+00
         21   -1    0    0  503  502  0.00000000000E+00  0.00000000000E+00  0.73096280744E+03  0.73096280744E+03  0.00000000000E+00 0.  1.
         21   -1    0    0  501  503 -0.00000000000E+00 -0.00000000000E+00 -0.18009152389E+04  0.18009152389E+04  0.00000000000E+00 0.  1.
    9000007    1    1    2  501    0 -0.14289620320E+03  0.19109908429E+02 -0.17107791993E+04  0.17628244332E+04  0.40000000000E+03 0.  1.
   -9000007    1    1    2    0  502  0.14289620320E+03 -0.19109908429E+02  0.64082676785E+03  0.76905361314E+03  0.40000000000E+03 0.  1.
<mgrwt>
<rscale>  2 0.42518762E+03</rscale>
<asrwt>0</asrwt>
<pdfrwt beam="1">  1       21 0.11245582E+00 0.42518762E+03</pdfrwt>
<pdfrwt beam="2">  1       21 0.27706388E+00 0.42518762E+03</pdfrwt>
<totfact> 0.21948956E+01</totfact>
</mgrwt>
</event>
<event>
 4    1  0.4918322E-002  0.6524372E+03  0.7818608E-02  0.9802217E-01
         21   -1    0    0  501  502  0.00000000000E+00  0.00000000000E+00  0.83541769469E+03  0.83541769469E+03  0.00000000000E+00 0. -1.
         21   -1    0    0  502  503 -0.00000000000E+00 -0.00000000000E+00 -0.98519069043E+03  0.98519069043E+03  0.00000000000E+00 0.  1.
    9000007    1    1    2  501    0 -0.51440657842E+03  0.32560825274E+02  0.55763146242E+03  0.85826987780E+03  0.40000000000E+03 0. -1.
   -9000007    1    1    2    0  503  0.51440657842E+03 -0.32560825274E+02 -0.70740445815E+03  0.96233850732E+03  0.40000000000E+03 0.  1.
<mgrwt>
<rscale>  2 0.65243723E+03</rscale>
<asrwt>0</asrwt>
<pdfrwt beam="1">  1       21 0.12852580E+00 0.65243723E+03</pdfrwt>
<pdfrwt beam="2">  1       21 0.15156780E+00 0.65243723E+03</pdfrwt>
<totfact> 0.94768182E+01</totfact>
</mgrwt>
</event>
<event>
 4    1  0.4918322E-002  0.4435030E+03  0.7818608E-02  0.1029677E+00
         21   -1    0    0  503  502  0.00000000000E+00  0.00000000000E+00  0.11035912218E+04  0.11035912218E+04  0.00000000000E+00 0.  1.
         21   -1    0    0  501  503 -0.00000000000E+00 -0.00000000000E+00 -0.18647630599E+03  0.18647630599E+03  0.00000000000E+00 0. -1.
    9000007    1    1    2  501    0  0.54550993027E+02 -0.18362765463E+03  0.32292741891E+03  0.54861374779E+03  0.40000000000E+03 0.  1.
   -9000007    1    1    2    0  502 -0.54550993027E+02  0.18362765463E+03  0.59418749689E+03  0.74145377998E+03  0.40000000000E+03 0.  1.
<mgrwt>
<rscale>  2 0.44350302E+03</rscale>
<asrwt>0</asrwt>
<pdfrwt beam="1">  1       21 0.16978326E+00 0.44350302E+03</pdfrwt>
<pdfrwt beam="2">  1       21 0.28688663E-01 0.44350302E+03</pdfrwt>
<totfact> 0.21295853E+03</totfact>
</mgrwt>
</event>
<event>
 4    1  0.4918322E-002  0.5396876E+03  0.7818608E-02  0.1003909E+00
         21   -1    0    0  503  502  0.00000000000E+00  0.00000000000E+00  0.93967844804E+03  0.93967844804E+03  0.00000000000E+00 0. -1.
         21   -1    0    0  501  503 -0.00000000000E+00 -0.00000000000E+00 -0.31394991145E+03  0.31394991145E+03  0.00000000000E+00 0.  1.
    9000007    1    1    2  501    0 -0.27125645434E+03  0.24017212556E+03  0.24220139511E+03  0.59154393726E+03  0.40000000000E+03 0.  1.
   -9000007    1    1    2    0  502  0.27125645434E+03 -0.24017212556E+03  0.38352714148E+03  0.66208442223E+03  0.40000000000E+03 0. -1.
<mgrwt>
<rscale>  2 0.53968761E+03</rscale>
<asrwt>0</asrwt>
<pdfrwt beam="1">  1       21 0.14456591E+00 0.53968761E+03</pdfrwt>
<pdfrwt beam="2">  1       21 0.48299987E-01 0.53968761E+03</pdfrwt>
<totfact> 0.11044561E+03</totfact>
</mgrwt>
</event>
<event>
 4    1  0.4918322E-002  0.4233324E+03  0.7818608E-02  0.1035987E+00
         21   -1    0    0  501  502  0.00000000000E+00  0.00000000000E+00  0.47092241041E+03  0.47092241041E+03  0.00000000000E+00 0. -1.
         21   -1    0    0  502  503 -0.00000000000E+00 -0.00000000000E+00 -0.39150884240E+03  0.39150884240E+03  0.00000000000E+00 0. -1.
    9000007    1    1    2  501    0 -0.27295435618E+02 -0.13588707541E+03  0.11184605633E+03  0.43785828574E+03  0.40000000000E+03 0. -1.
   -9000007    1    1    2    0  503  0.27295435618E+02  0.13588707541E+03 -0.32432488328E+02  0.42457296707E+03  0.40000000000E+03 0. -1.
<mgrwt>
<rscale>  2 0.42333242E+03</rscale>
<asrwt>0</asrwt>
<pdfrwt beam="1">  1       21 0.72449602E-01 0.42333242E+03</pdfrwt>
<pdfrwt beam="2">  1       21 0.60232130E-01 0.42333242E+03</pdfrwt>
<totfact> 0.38994104E+03</totfact>
</mgrwt>
</event>
<event>
 4    1  0.4918322E-002  0.5687798E+03  0.7818608E-02  0.9972382E-01
         21   -1    0    0  501  502  0.00000000000E+00  0.00000000000E+00  0.70242737798E+03  0.70242737798E+03  0.00000000000E+00 0. -1.
         21   -1    0    0  502  503 -0.00000000000E+00 -0.00000000000E+00 -0.55552532870E+03  0.55552532870E+03  0.00000000000E+00 0. -1.
    9000007    1    1    2  501    0  0.36571454784E+03 -0.17252044962E+03  0.33350491304E+03  0.65934510165E+03  0.40000000000E+03 0. -1.
   -9000007    1    1    2    0  503 -0.36571454784E+03  0.17252044962E+03 -0.18660286376E+03  0.59860760503E+03  0.40000000000E+03 0. -1.
<mgrwt>
<rscale>  2 0.56877978E+03</rscale>
<asrwt>0</asrwt>
<pdfrwt beam="1">  1       21 0.10806575E+00 0.56877978E+03</pdfrwt>
<pdfrwt beam="2">  1       21 0.85465435E-01 0.56877978E+03</pdfrwt>
<totfact> 0.64948238E+02</totfact>
</mgrwt>
</event>
<event>
 4    1  0.4918322E-002  0.4459965E+03  0.7818608E-02  0.1028923E+00
         21   -1    0    0  501  502  0.00000000000E+00  0.00000000000E+00  0.10687736723E+04  0.10687736723E+04  0.00000000000E+00 0. -1.
         21   -1    0    0  502  503 -0.00000000000E+00 -0.00000000000E+00 -0.31685700309E+03  0.31685700309E+03  0.00000000000E+00 0. -1.
    9000007    1    1    2  501    0  0.53240011488E+02  0.18994300186E+03  0.82099568981E+03  0.93431620208E+03  0.40000000000E+03 0. -1.
   -9000007    1    1    2    0  503 -0.53240011488E+02 -0.18994300186E+03 -0.69079020557E+02  0.45131447336E+03  0.40000000000E+03 0. -1.
<mgrwt>
<rscale>  2 0.44599646E+03</rscale>
<asrwt>0</asrwt>
<pdfrwt beam="1">  1       21 0.16442672E+00 0.44599646E+03</pdfrwt>
<pdfrwt beam="2">  1       21 0.48747232E-01 0.44599646E+03</pdfrwt>
<totfact> 0.78845311E+02</totfact>
</mgrwt>
</event>
<event>
 4    1  0.4918322E-002  0.4043232E+03  0.7818608E-02  0.1042293E+00
         21   -1    0    0  503  502  0.00000000000E+00  0.00000000000E+00  0.17197536562E+03  0.17197536562E+03  0.00000000000E+00 0. -1.
         21   -1    0    0  501  503 -0.00000000000E+00 -0.00000000000E+00 -0.11612559397E+04  0.11612559397E+04  0.00000000000E+00 0. -1.
    9000007    1    1    2  501    0  0.58304803807E+02 -0.88219085006E+01 -0.77857167786E+03  0.87729763124E+03  0.40000000000E+03 0. -1.
   -9000007    1    1    2    0  502 -0.58304803807E+02  0.88219085006E+01 -0.21070889624E+03  0.45593367409E+03  0.40000000000E+03 0. -1.
<mgrwt>
<rscale>  2 0.40432323E+03</rscale>
<asrwt>0</asrwt>
<pdfrwt beam="1">  1       21 0.26457749E-01 0.40432323E+03</pdfrwt>
<pdfrwt beam="2">  1       21 0.17865475E+00 0.40432323E+03</pdfrwt>
<totfact> 0.21936537E+03</totfact>
</mgrwt>
</event>
<event>
 4    1  0.4918322E-002  0.4346475E+03  0.7818608E-02  0.1032402E+00
         21   -1    0    0  501  502  0.00000000000E+00  0.00000000000E+00  0.21086806237E+04  0.21086806237E+04  0.00000000000E+00 0.  1.
         21   -1    0    0  502  503 -0.00000000000E+00 -0.00000000000E+00 -0.95757328579E+02  0.95757328579E+02  0.00000000000E+00 0. -1.
    9000007    1    1    2  501    0  0.61466397181E+01  0.16994322226E+03  0.12861669147E+04  0.13576243267E+04  0.40000000000E+03 0. -1.
   -9000007    1    1    2    0  503 -0.61466397181E+01 -0.16994322226E+03  0.72675638036E+03  0.84681362552E+03  0.40000000000E+03 0. -1.
<mgrwt>
<rscale>  2 0.43464754E+03</rscale>
<asrwt>0</asrwt>
<pdfrwt beam="1">  1       21 0.32441237E+00 0.43464754E+03</pdfrwt>
<pdfrwt beam="2">  1       21 0.14731898E-01 0.43464754E+03</pdfrwt>
<totfact> 0.80516667E+02</totfact>
</mgrwt>
</event>
<event>
 4    1  0.4918322E-002  0.4184019E+03  0.7818608E-02  0.1037588E+00
         21   -1    0    0  503  502  0.00000000000E+00  0.00000000000E+00  0.38336183379E+03  0.38336183379E+03  0.00000000000E+00 0.  1.
         21   -1    0    0  501  503 -0.00000000000E+00 -0.00000000000E+00 -0.97742590432E+03  0.97742590432E+03  0.00000000000E+00 0.  1.
    9000007    1    1    2  501    0 -0.78745474642E+00 -0.12271728478E+03 -0.79367709215E+03  0.89720871522E+03  0.40000000000E+03 0.  1.
   -9000007    1    1    2    0  502  0.78745474642E+00  0.12271728478E+03  0.19961302162E+03  0.46357902289E+03  0.40000000000E+03 0.  1.
<mgrwt>
<rscale>  2 0.41840190E+03</rscale>
<asrwt>0</asrwt>
<pdfrwt beam="1">  1       21 0.58978744E-01 0.41840190E+03</pdfrwt>
<pdfrwt beam="2">  1       21 0.15037322E+00 0.41840190E+03</pdfrwt>
<totfact> 0.67875546E+02</totfact>
</mgrwt>
</event>
<event>
 4    1  0.4918322E-002  0.4232364E+03  0.7818608E-02  0.1036018E+00
         21   -1    0    0  503  502  0.00000000000E+00  0.00000000000E+00  0.19396779929E+04  0.19396779929E+04  0.00000000000E+00 0. -1.
         21   -1    0    0  501  503 -0.00000000000E+00 -0.00000000000E+00 -0.11249092242E+03  0.11249092242E+03  0.00000000000E+00 0. -1.
    9000007    1    1    2  501    0  0.10823444396E+03  0.86106664200E+02  0.47941813153E+03  0.63950824648E+03  0.40000000000E+03 0. -1.
   -9000007    1    1    2    0  502 -0.10823444396E+03 -0.86106664200E+02  0.13477689390E+04  0.14126606688E+04  0.40000000000E+03 0. -1.
<mgrwt>
<rscale>  2 0.42323640E+03</rscale>
<asrwt>0</asrwt>
<pdfrwt beam="1">  1       21 0.29841197E+00 0.42323640E+03</pdfrwt>
<pdfrwt beam="2">  1       21 0.17306297E-01 0.42323640E+03</pdfrwt>
<totfact> 0.86048113E+02</totfact>
</mgrwt>
</event>
<event>
 4    1  0.4918322E-002  0.5472365E+03  0.7818608E-02  0.1002136E+00
         21   -1    0    0  501  502  0.00000000000E+00  0.00000000000E+00  0.48875597019E+03  0.48875597019E+03  0.00000000000E+00 0. -1.
         21   -1    0    0  502  503 -0.00000000000E+00 -0.00000000000E+00 -0.61606611048E+03  0.61606611048E+03  0.00000000000E+00 0. -1.
    9000007    1    1    2  501    0 -0.19317154323E+03  0.31961308797E+03 -0.10440140539E+03  0.55710629557E+03  0.40000000000E+03 0. -1.
   -9000007    1    1    2    0  503  0.19317154323E+03 -0.31961308797E+03 -0.22908734896E+02  0.54771578510E+03  0.40000000000E+03 0. -1.
<mgrwt>
<rscale>  2 0.54723649E+03</rscale>
<asrwt>0</asrwt>
<pdfrwt beam="1">  1       21 0.75193226E-01 0.54723649E+03</pdfrwt>
<pdfrwt beam="2">  1       21 0.94779402E-01 0.54723649E+03</pdfrwt>
<totfact> 0.12149400E+03</totfact>
</mgrwt>
</event>
<event>
 4    1  0.4918322E-002  0.4905830E+03  0.7818608E-02  0.1016267E+00
         21   -1    0    0  503  502  0.00000000000E+00  0.00000000000E+00  0.10869817274E+04  0.10869817274E+04  0.00000000000E+00 0. -1.
         21   -1    0    0  501  503 -0.00000000000E+00 -0.00000000000E+00 -0.22144012937E+03  0.22144012937E+03  0.00000000000E+00 0. -1.
    9000007    1    1    2  501    0 -0.83795227939E+02  0.27138544418E+03  0.42550685677E+03  0.64940571655E+03  0.40000000000E+03 0. -1.
   -9000007    1    1    2    0  502  0.83795227939E+02 -0.27138544418E+03  0.44003474125E+03  0.65901614020E+03  0.40000000000E+03 0. -1.
<mgrwt>
<rscale>  2 0.49058302E+03</rscale>
<asrwt>0</asrwt>
<pdfrwt beam="1">  1       21 0.16722796E+00 0.49058302E+03</pdfrwt>
<pdfrwt beam="2">  1       21 0.34067713E-01 0.49058302E+03</pdfrwt>
<totfact> 0.15478826E+03</totfact>
</mgrwt>
</event>
<event>
 4    1  0.4918322E-002  0.4746969E+03  0.7818608E-02  0.1020603E+00
         21   -1    0    0  501  502  0.00000000000E+00  0.00000000000E+00  0.20168407931E+03  0.20168407931E+03  0.00000000000E+00 0.  1.
         21   -1    0    0  502  503 -0.00000000000E+00 -0.00000000000E+00 -0.11595163536E+04  0.11595163536E+04  0.00000000000E+00 0.  1.
    9000007    1    1    2  501    0  0.33312384975E+02  0.25343135980E+03 -0.34901662109E+03  0.58919417082E+03  0.40000000000E+03 0.  1.
   -9000007    1    1    2    0  503 -0.33312384975E+02 -0.25343135980E+03 -0.60881565320E+03  0.77200626209E+03  0.40000000000E+03 0.  1.
<mgrwt>
<rscale>  2 0.47469692E+03</rscale>
<asrwt>0</asrwt>
<pdfrwt beam="1">  1       21 0.31028319E-01 0.47469692E+03</pdfrwt>
<pdfrwt beam="2">  1       21 0.17838713E+00 0.47469692E+03</pdfrwt>
<totfact> 0.15606042E+03</totfact>
</mgrwt>
</event>
<event>
 4    1  0.4918322E-002  0.4873907E+03  0.7818608E-02  0.1017124E+00
         21   -1    0    0  501  502  0.00000000000E+00  0.00000000000E+00  0.24649441516E+04  0.24649441516E+04  0.00000000000E+00 0. -1.
         21   -1    0    0  502  503 -0.00000000000E+00 -0.00000000000E+00 -0.11404245367E+03  0.11404245367E+03  0.00000000000E+00 0. -1.
    9000007    1    1    2  501    0  0.27158607617E+03  0.61568895957E+02  0.66785390688E+03  0.82678810263E+03  0.40000000000E+03 0. -1.
   -9000007    1    1    2    0  503 -0.27158607617E+03 -0.61568895957E+02  0.16830477911E+04  0.17521985027E+04  0.40000000000E+03 0. -1.
<mgrwt>
<rscale>  2 0.48739073E+03</rscale>
<asrwt>0</asrwt>
<pdfrwt beam="1">  1       21 0.37922214E+00 0.48739073E+03</pdfrwt>
<pdfrwt beam="2">  1       21 0.17544995E-01 0.48739073E+03</pdfrwt>
<totfact> 0.25882589E+02</totfact>
</mgrwt>
</event>
<event>
 4    1  0.4918322E-002  0.5721375E+03  0.7818608E-02  0.9964960E-01
         21   -1    0    0  501  502  0.00000000000E+00  0.00000000000E+00  0.15503687336E+03  0.15503687336E+03  0.00000000000E+00 0. -1.
         21   -1    0    0  502  503 -0.00000000000E+00 -0.00000000000E+00 -0.28338570098E+04  0.28338570098E+04  0.00000000000E+00 0. -1.
    9000007    1    1    2  501    0  0.40696578810E+03 -0.41474888941E+02 -0.58483162784E+03  0.81814995693E+03  0.40000000000E+03 0. -1.
   -9000007    1    1    2    0  503 -0.40696578810E+03  0.41474888941E+02 -0.20939885086E+04  0.21707439262E+04  0.40000000000E+03 0. -1.
<mgrwt>
<rscale>  2 0.57213750E+03</rscale>
<asrwt>0</asrwt>
<pdfrwt beam="1">  1       21 0.23851829E-01 0.57213750E+03</pdfrwt>
<pdfrwt beam="2">  1       21 0.43597796E+00 0.57213750E+03</pdfrwt>
<totfact> 0.58572631E+01</totfact>
</mgrwt>
</event>
<event>
 4    1  0.4918322E-002  0.4012643E+03  0.7818608E-02  0.1043343E+00
         21   -1    0    0  501  502  0.00000000000E+00  0.00000000000E+00  0.13826783360E+03  0.13826783360E+03  0.00000000000E+00 0. -1.
         21   -1    0    0  502  503 -0.00000000000E+00 -0.00000000000E+00 -0.11648220260E+04  0.11648220260E+04  0.00000000000E+00 0. -1.
    9000007    1    1    2  501    0  0.23723636316E+02  0.21219190073E+02 -0.50246484567E+03  0.64302720477E+03  0.40000000000E+03 0.  1.
   -9000007    1    1    2    0  503 -0.23723636316E+02 -0.21219190073E+02 -0.52408934677E+03  0.66006265486E+03  0.40000000000E+03 0.  1.
<mgrwt>
<rscale>  2 0.40126433E+03</rscale>
<asrwt>0</asrwt>
<pdfrwt beam="1">  1       21 0.21271974E-01 0.40126433E+03</pdfrwt>
<pdfrwt beam="2">  1       21 0.17920339E+00 0.40126433E+03</pdfrwt>
<totfact> 0.33180284E+03</totfact>
</mgrwt>
</event>
<event>
 4    1  0.4918322E-002  0.8144496E+03  0.7818608E-02  0.9539334E-01
         21   -1    0    0  503  502  0.00000000000E+00  0.00000000000E+00  0.99523409417E+03  0.99523409417E+03  0.00000000000E+00 0. -1.
         21   -1    0    0  501  503 -0.00000000000E+00 -0.00000000000E+00 -0.18902953348E+04  0.18902953348E+04  0.00000000000E+00 0.  1.
    9000007    1    1    2  501    0  0.35402859736E+03  0.61481043219E+03 -0.16084024141E+04  0.18028550804E+04  0.40000000000E+03 0.  1.
   -9000007    1    1    2    0  502 -0.35402859736E+03 -0.61481043219E+03  0.71334117347E+03  0.10826743486E+04  0.40000000000E+03 0. -1.
<mgrwt>
<rscale>  2 0.81444958E+03</rscale>
<asrwt>0</asrwt>
<pdfrwt beam="1">  1       21 0.15311294E+00 0.81444958E+03</pdfrwt>
<pdfrwt beam="2">  1       21 0.29081467E+00 0.81444958E+03</pdfrwt>
<totfact> 0.64966605E+00</totfact>
</mgrwt>
</event>
<event>
 4    1  0.4918322E-002  0.5035271E+03  0.7818608E-02  0.1012862E+00
         21   -1    0    0  501  502  0.00000000000E+00  0.00000000000E+00  0.72611847772E+03  0.72611847772E+03  0.00000000000E+00 0. -1.
         21   -1    0    0  502  503 -0.00000000000E+00 -0.00000000000E+00 -0.44648722703E+03  0.44648722703E+03  0.00000000000E+00 0.  1.
    9000007    1    1    2  501    0 -0.21919733824E+03  0.21328878611E+03 -0.13390651106E+03  0.52102834191E+03  0.40000000000E+03 0.  1.
   -9000007    1    1    2    0  503  0.21919733824E+03 -0.21328878611E+03  0.41353776174E+03  0.65157736284E+03  0.40000000000E+03 0. -1.
<mgrwt>
<rscale>  2 0.50352714E+03</rscale>
<asrwt>0</asrwt>
<pdfrwt beam="1">  1       21 0.11171053E+00 0.50352714E+03</pdfrwt>
<pdfrwt beam="2">  1       21 0.68690343E-01 0.50352714E+03</pdfrwt>
<totfact> 0.10114948E+03</totfact>
</mgrwt>
</event>
<event>
 4    1  0.4918322E-002  0.5282402E+03  0.7818608E-02  0.1006660E+00
         21   -1    0    0  501  502  0.00000000000E+00  0.00000000000E+00  0.10032104386E+04  0.10032104386E+04  0.00000000000E+00 0. -1.
         21   -1    0    0  502  503 -0.00000000000E+00 -0.00000000000E+00 -0.29105821702E+03  0.29105821702E+03  0.00000000000E+00 0. -1.
    9000007    1    1    2  501    0 -0.33243247883E+03 -0.92338443732E+02  0.49238542203E+03  0.72213651410E+03  0.40000000000E+03 0. -1.
   -9000007    1    1    2    0  503  0.33243247883E+03  0.92338443732E+02  0.21976679954E+03  0.57213214151E+03  0.40000000000E+03 0. -1.
<mgrwt>
<rscale>  2 0.52824023E+03</rscale>
<asrwt>0</asrwt>
<pdfrwt beam="1">  1       21 0.15434007E+00 0.52824023E+03</pdfrwt>
<pdfrwt beam="2">  1       21 0.44778188E-01 0.52824023E+03</pdfrwt>
<totfact> 0.10885802E+03</totfact>
</mgrwt>
</event>
<event>
 4    1  0.4918322E-002  0.5854469E+03  0.7818608E-02  0.9936068E-01
         21   -1    0    0  501  502  0.00000000000E+00  0.00000000000E+00  0.15111420958E+03  0.15111420958E+03  0.00000000000E+00 0. -1.
         21   -1    0    0  502  503 -0.00000000000E+00 -0.00000000000E+00 -0.23049168001E+04  0.23049168001E+04  0.00000000000E+00 0.  1.
    9000007    1    1    2  501    0 -0.42713067217E+03 -0.17533679811E+02 -0.92178095379E+03  0.10919835932E+04  0.40000000000E+03 0. -1.
   -9000007    1    1    2    0  503  0.42713067217E+03  0.17533679811E+02 -0.12320216367E+04  0.13640474165E+04  0.40000000000E+03 0.  1.
<mgrwt>
<rscale>  2 0.58544687E+03</rscale>
<asrwt>0</asrwt>
<pdfrwt beam="1">  1       21 0.23248340E-01 0.58544687E+03</pdfrwt>
<pdfrwt beam="2">  1       21 0.35460259E+00 0.58544687E+03</pdfrwt>
<totfact> 0.20447162E+02</totfact>
</mgrwt>
</event>
<event>
 4    1  0.4918322E-002  0.4199177E+03  0.7818608E-02  0.1037093E+00
         21   -1    0    0  501  502  0.00000000000E+00  0.00000000000E+00  0.81680921346E+03  0.81680921346E+03  0.00000000000E+00 0.  1.
         21   -1    0    0  502  503 -0.00000000000E+00 -0.00000000000E+00 -0.22926915881E+03  0.22926915881E+03  0.00000000000E+00 0.  1.
    9000007    1    1    2  501    0 -0.84971184029E+02 -0.95450566921E+02  0.42017815140E+03  0.59403753396E+03  0.40000000000E+03 0.  1.
   -9000007    1    1    2    0  503  0.84971184029E+02  0.95450566921E+02  0.16736190324E+03  0.45204083831E+03  0.40000000000E+03 0.  1.
<mgrwt>
<rscale>  2 0.41991775E+03</rscale>
<asrwt>0</asrwt>
<pdfrwt beam="1">  1       21 0.12566295E+00 0.41991775E+03</pdfrwt>
<pdfrwt beam="2">  1       21 0.35272179E-01 0.41991775E+03</pdfrwt>
<totfact> 0.32007548E+03</totfact>
</mgrwt>
</event>
<event>
 4    1  0.4918322E-002  0.4006167E+03  0.7818608E-02  0.1043566E+00
         21   -1    0    0  501  502  0.00000000000E+00  0.00000000000E+00  0.67649634872E+03  0.67649634872E+03  0.00000000000E+00 0.  1.
         21   -1    0    0  502  503 -0.00000000000E+00 -0.00000000000E+00 -0.41004652977E+03  0.41004652977E+03  0.00000000000E+00 0.  1.
    9000007    1    1    2  501    0  0.17182203583E+02  0.14089124129E+02  0.48590191944E+03  0.62975741905E+03  0.40000000000E+03 0.  1.
   -9000007    1    1    2    0  503 -0.17182203583E+02 -0.14089124129E+02 -0.21945210050E+03  0.45678545944E+03  0.40000000000E+03 0.  1.
<mgrwt>
<rscale>  2 0.40061669E+03</rscale>
<asrwt>0</asrwt>
<pdfrwt beam="1">  1       21 0.10407636E+00 0.40061669E+03</pdfrwt>
<pdfrwt beam="2">  1       21 0.63084082E-01 0.40061669E+03</pdfrwt>
<totfact> 0.15183702E+03</totfact>
</mgrwt>
</event>
<event>
 4    1  0.4918322E-002  0.4145965E+03  0.7818608E-02  0.1038839E+00
         21   -1    0    0  503  502  0.00000000000E+00  0.00000000000E+00  0.13205663475E+03  0.13205663475E+03  0.00000000000E+00 0. -1.
         21   -1    0    0  501  503 -0.00000000000E+00 -0.00000000000E+00 -0.15911050474E+04  0.15911050474E+04  0.00000000000E+00 0. -1.
    9000007    1    1    2  501    0  0.71012818671E+02  0.82749214675E+02 -0.36203519289E+03  0.55041778118E+03  0.40000000000E+03 0.  1.
   -9000007    1    1    2    0  502 -0.71012818671E+02 -0.82749214675E+02 -0.10970132198E+04  0.11727439010E+04  0.40000000000E+03 0.  1.
<mgrwt>
<rscale>  2 0.41459649E+03</rscale>
<asrwt>0</asrwt>
<pdfrwt beam="1">  1       21 0.20316405E-01 0.41459649E+03</pdfrwt>
<pdfrwt beam="2">  1       21 0.24478540E+00 0.41459649E+03</pdfrwt>
<totfact> 0.13468489E+03</totfact>
</mgrwt>
</event>
<event>
 4    1  0.4918322E-002  0.5323406E+03  0.7818608E-02  0.1005666E+00
         21   -1    0    0  503  502  0.00000000000E+00  0.00000000000E+00  0.12767411317E+04  0.12767411317E+04  0.00000000000E+00 0. -1.
         21   -1    0    0  501  503 -0.00000000000E+00 -0.00000000000E+00 -0.30737208582E+03  0.30737208582E+03  0.00000000000E+00 0. -1.
    9000007    1    1    2  501    0 -0.26017942071E+03 -0.23599411679E+03  0.67160471346E+02  0.53656041881E+03  0.40000000000E+03 0. -1.
   -9000007    1    1    2    0  502  0.26017942071E+03  0.23599411679E+03  0.90220857450E+03  0.10475527987E+04  0.40000000000E+03 0. -1.
<mgrwt>
<rscale>  2 0.53234064E+03</rscale>
<asrwt>0</asrwt>
<pdfrwt beam="1">  1       21 0.19642171E+00 0.53234064E+03</pdfrwt>
<pdfrwt beam="2">  1       21 0.47288014E-01 0.53234064E+03</pdfrwt>
<totfact> 0.48119505E+02</totfact>
</mgrwt>
</event>
<event>
 4    1  0.4918322E-002  0.4255196E+03  0.7818608E-02  0.1035285E+00
         21   -1    0    0  501  502  0.00000000000E+00  0.00000000000E+00  0.84914558103E+03  0.84914558103E+03  0.00000000000E+00 0. -1.
         21   -1    0    0  502  503 -0.00000000000E+00 -0.00000000000E+00 -0.48714266936E+03  0.48714266936E+03  0.00000000000E+00 0. -1.
    9000007    1    1    2  501    0 -0.12181250131E+03 -0.78921963036E+02  0.68200952580E+03  0.80386812041E+03  0.40000000000E+03 0. -1.
   -9000007    1    1    2    0  503  0.12181250131E+03  0.78921963036E+02 -0.32000661413E+03  0.53242012998E+03  0.40000000000E+03 0. -1.
<mgrwt>
<rscale>  2 0.42551964E+03</rscale>
<asrwt>0</asrwt>
<pdfrwt beam="1">  1       21 0.13063778E+00 0.42551964E+03</pdfrwt>
<pdfrwt beam="2">  1       21 0.74945026E-01 0.42551964E+03</pdfrwt>
<totfact> 0.57602679E+02</totfact>
</mgrwt>
</event>
<event>
 4    1  0.4918322E-002  0.5786168E+03  0.7818608E-02  0.9950790E-01
         21   -1    0    0  503  502  0.00000000000E+00  0.00000000000E+00  0.75054800613E+03  0.75054800613E+03  0.00000000000E+00 0. -1.
         21   -1    0    0  501  503 -0.00000000000E+00 -0.00000000000E+00 -0.67236450612E+03  0.67236450612E+03  0.00000000000E+00 0. -1.
    9000007    1    1    2  501    0  0.11964769090E+03 -0.40060180806E+03 -0.37365367610E+03  0.68877750269E+03  0.40000000000E+03 0. -1.
   -9000007    1    1    2    0  502 -0.11964769090E+03  0.40060180806E+03  0.45183717611E+03  0.73413500956E+03  0.40000000000E+03 0. -1.
<mgrwt>
<rscale>  2 0.57861678E+03</rscale>
<asrwt>0</asrwt>
<pdfrwt beam="1">  1       21 0.11546892E+00 0.57861678E+03</pdfrwt>
<pdfrwt beam="2">  1       21 0.10344069E+00 0.57861678E+03</pdfrwt>
<totfact> 0.34616643E+02</totfact>
</mgrwt>
</event>
<event>
 4    1  0.4918322E-002  0.5135345E+03  0.7818608E-02  0.1010305E+00
         21   -1    0    0  501  502  0.00000000000E+00  0.00000000000E+00  0.45562354289E+03  0.45562354289E+03  0.00000000000E+00 0. -1.
         21   -1    0    0  502  503 -0.00000000000E+00 -0.00000000000E+00 -0.10436671466E+04  0.10436671466E+04  0.00000000000E+00 0. -1.
    9000007    1    1    2  501    0 -0.31976928956E+03  0.38278999017E+02  0.20628502116E+03  0.55341773577E+03  0.40000000000E+03 0. -1.
   -9000007    1    1    2    0  503  0.31976928956E+03 -0.38278999017E+02 -0.79432862488E+03  0.94587295374E+03  0.40000000000E+03 0. -1.
<mgrwt>
<rscale>  2 0.51353450E+03</rscale>
<asrwt>0</asrwt>
<pdfrwt beam="1">  1       21 0.70095931E-01 0.51353450E+03</pdfrwt>
<pdfrwt beam="2">  1       21 0.16056417E+00 0.51353450E+03</pdfrwt>
<totfact> 0.36994870E+02</totfact>
</mgrwt>
</event>
<event>
 4    1  0.4918322E-002  0.4679019E+03  0.7818608E-02  0.1022514E+00
         21   -1    0    0  501  502  0.00000000000E+00  0.00000000000E+00  0.20856491796E+03  0.20856491796E+03  0.00000000000E+00 0.  1.
         21   -1    0    0  502  503 -0.00000000000E+00 -0.00000000000E+00 -0.16000676916E+04  0.16000676916E+04  0.00000000000E+00 0. -1.
    9000007    1    1    2  501    0  0.10632536785E+03 -0.21823627086E+03 -0.16538657893E+03  0.49627096858E+03  0.40000000000E+03 0.  1.
   -9000007    1    1    2    0  503 -0.10632536785E+03  0.21823627086E+03 -0.12261161947E+04  0.13123616410E+04  0.40000000000E+03 0. -1.
<mgrwt>
<rscale>  2 0.46790186E+03</rscale>
<asrwt>0</asrwt>
<pdfrwt beam="1">  1       21 0.32086908E-01 0.46790186E+03</pdfrwt>
<pdfrwt beam="2">  1       21 0.24616428E+00 0.46790186E+03</pdfrwt>
<totfact> 0.52690250E+02</totfact>
</mgrwt>
</event>
<event>
 4    1  0.4918322E-002  0.5917854E+03  0.7818608E-02  0.9922597E-01
         21   -1    0    0  503  502  0.00000000000E+00  0.00000000000E+00  0.67959003544E+03  0.67959003544E+03  0.00000000000E+00 0. -1.
         21   -1    0    0  501  503 -0.00000000000E+00 -0.00000000000E+00 -0.93237804438E+03  0.93237804438E+03  0.00000000000E+00 0.  1.
    9000007    1    1    2  501    0  0.29559635667E+03  0.32067545323E+03 -0.66544009947E+03  0.89051697253E+03  0.40000000000E+03 0.  1.
   -9000007    1    1    2    0  502 -0.29559635667E+03 -0.32067545323E+03  0.41265209053E+03  0.72145110728E+03  0.40000000000E+03 0. -1.
<mgrwt>
<rscale>  2 0.59178539E+03</rscale>
<asrwt>0</asrwt>
<pdfrwt beam="1">  1       21 0.10455231E+00 0.59178539E+03</pdfrwt>
<pdfrwt beam="2">  1       21 0.14344278E+00 0.59178539E+03</pdfrwt>
<totfact> 0.19035600E+02</totfact>
</mgrwt>
</event>
<event>
 4    1  0.4918322E-002  0.5535657E+03  0.7818608E-02  0.1000672E+00
         21   -1    0    0  501  502  0.00000000000E+00  0.00000000000E+00  0.35947300228E+03  0.35947300228E+03  0.00000000000E+00 0. -1.
         21   -1    0    0  502  503 -0.00000000000E+00 -0.00000000000E+00 -0.13453003774E+04  0.13453003774E+04  0.00000000000E+00 0.  1.
    9000007    1    1    2  501    0 -0.33781890276E+03  0.17975909632E+03  0.23005759645E+02  0.55404350799E+03  0.40000000000E+03 0. -1.
   -9000007    1    1    2    0  503  0.33781890276E+03 -0.17975909632E+03 -0.10088331348E+04  0.11507298717E+04  0.40000000000E+03 0.  1.
<mgrwt>
<rscale>  2 0.55356566E+03</rscale>
<asrwt>0</asrwt>
<pdfrwt beam="1">  1       21 0.55303539E-01 0.55356566E+03</pdfrwt>
<pdfrwt beam="2">  1       21 0.20696929E+00 0.55356566E+03</pdfrwt>
<totfact> 0.28983432E+02</totfact>
</mgrwt>
</event>
<event>
 4    1  0.4918322E-002  0.5672428E+03  0.7818608E-02  0.9975799E-01
         21   -1    0    0  501  502  0.00000000000E+00  0.00000000000E+00  0.24032739999E+03  0.24032739999E+03  0.00000000000E+00 0. -1.
         21   -1    0    0  502  503 -0.00000000000E+00 -0.00000000000E+00 -0.13546704475E+04  0.13546704475E+04  0.00000000000E+00 0. -1.
    9000007    1    1    2  501    0 -0.33601741121E+03  0.22103551353E+03 -0.64333138882E+03  0.85769439471E+03  0.40000000000E+03 0. -1.
   -9000007    1    1    2    0  503  0.33601741121E+03 -0.22103551353E+03 -0.47101165873E+03  0.73730345282E+03  0.40000000000E+03 0. -1.
<mgrwt>
<rscale>  2 0.56724280E+03</rscale>
<asrwt>0</asrwt>
<pdfrwt beam="1">  1       21 0.36973447E-01 0.56724280E+03</pdfrwt>
<pdfrwt beam="2">  1       21 0.20841083E+00 0.56724280E+03</pdfrwt>
<totfact> 0.65870388E+02</totfact>
</mgrwt>
</event>
<event>
 4    1  0.4918322E-002  0.5963935E+03  0.7818608E-02  0.9912917E-01
         21   -1    0    0  501  502  0.00000000000E+00  0.00000000000E+00  0.22121406057E+03  0.22121406057E+03  0.00000000000E+00 0. -1.
         21   -1    0    0  502  503 -0.00000000000E+00 -0.00000000000E+00 -0.19933079626E+04  0.19933079626E+04  0.00000000000E+00 0. -1.
    9000007    1    1    2  501    0 -0.37537516545E+03 -0.23404838089E+03 -0.13729423842E+04  0.14968820761E+04  0.40000000000E+03 0. -1.
   -9000007    1    1    2    0  503  0.37537516545E+03  0.23404838089E+03 -0.39915151782E+03  0.71763994706E+03  0.40000000000E+03 0. -1.
<mgrwt>
<rscale>  2 0.59639346E+03</rscale>
<asrwt>0</asrwt>
<pdfrwt beam="1">  1       21 0.34032934E-01 0.59639346E+03</pdfrwt>
<pdfrwt beam="2">  1       21 0.30666275E+00 0.59639346E+03</pdfrwt>
<totfact> 0.18812415E+02</totfact>
</mgrwt>
</event>
<event>
 4    1  0.4918322E-002  0.4180135E+03  0.7818608E-02  0.1037715E+00
         21   -1    0    0  503  502  0.00000000000E+00  0.00000000000E+00  0.42490216699E+03  0.42490216699E+03  0.00000000000E+00 0. -1.
         21   -1    0    0  501  503 -0.00000000000E+00 -0.00000000000E+00 -0.66183659259E+03  0.66183659259E+03  0.00000000000E+00 0. -1.
    9000007    1    1    2  501    0 -0.99118480291E+02 -0.70077345591E+02 -0.45282414434E+03  0.61626699831E+03  0.40000000000E+03 0. -1.
   -9000007    1    1    2    0  502  0.99118480291E+02  0.70077345591E+02  0.21588971874E+03  0.47047176127E+03  0.40000000000E+03 0. -1.
<mgrwt>
<rscale>  2 0.41801353E+03</rscale>
<asrwt>0</asrwt>
<pdfrwt beam="1">  1       21 0.65369564E-01 0.41801353E+03</pdfrwt>
<pdfrwt beam="2">  1       21 0.10182101E+00 0.41801353E+03</pdfrwt>
<totfact> 0.14694313E+03</totfact>
</mgrwt>
</event>
<event>
 4    1  0.4918322E-002  0.5076175E+03  0.7818608E-02  0.1011810E+00
         21   -1    0    0  503  502  0.00000000000E+00  0.00000000000E+00  0.21254509184E+03  0.21254509184E+03  0.00000000000E+00 0.  1.
         21   -1    0    0  501  503 -0.00000000000E+00 -0.00000000000E+00 -0.18824012286E+04  0.18824012286E+04  0.00000000000E+00 0.  1.
    9000007    1    1    2  501    0 -0.17464557957E+03  0.25918029680E+03 -0.14598794065E+04  0.15456142424E+04  0.40000000000E+03 0.  1.
   -9000007    1    1    2    0  502  0.17464557957E+03 -0.25918029680E+03 -0.20997673023E+03  0.54933207803E+03  0.40000000000E+03 0.  1.
<mgrwt>
<rscale>  2 0.50761748E+03</rscale>
<asrwt>0</asrwt>
<pdfrwt beam="1">  1       21 0.32699246E-01 0.50761748E+03</pdfrwt>
<pdfrwt beam="2">  1       21 0.28960018E+00 0.50761748E+03</pdfrwt>
<totfact> 0.27023820E+02</totfact>
</mgrwt>
</event>
<event>
 4    1  0.4918322E-002  0.4606574E+03  0.7818608E-02  0.1024591E+00
         21   -1    0    0  503  502  0.00000000000E+00  0.00000000000E+00  0.19345891535E+03  0.19345891535E+03  0.00000000000E+00 0.  1.
         21   -1    0    0  501  503 -0.00000000000E+00 -0.00000000000E+00 -0.11278136886E+04  0.11278136886E+04  0.00000000000E+00 0. -1.
    9000007    1    1    2  501    0 -0.53043363110E+02 -0.22224240093E+03 -0.57655084528E+03  0.73798113820E+03  0.40000000000E+03 0. -1.
   -9000007    1    1    2    0  502  0.53043363110E+02  0.22224240093E+03 -0.35780392797E+03  0.58329146575E+03  0.40000000000E+03 0.  1.
<mgrwt>
<rscale>  2 0.46065745E+03</rscale>
<asrwt>0</asrwt>
<pdfrwt beam="1">  1       21 0.29762910E-01 0.46065745E+03</pdfrwt>
<pdfrwt beam="2">  1       21 0.17350980E+00 0.46065745E+03</pdfrwt>
<totfact> 0.18479325E+03</totfact>
</mgrwt>
</event>
<event>
 4    1  0.4918322E-002  0.4186188E+03  0.7818608E-02  0.1037517E+00
         21   -1    0    0  503  502  0.00000000000E+00  0.00000000000E+00  0.30294439066E+03  0.30294439066E+03  0.00000000000E+00 0.  1.
         21   -1    0    0  501  503 -0.00000000000E+00 -0.00000000000E+00 -0.57879323648E+03  0.57879323648E+03  0.00000000000E+00 0.  1.
    9000007    1    1    2  501    0  0.86344259952E+02 -0.88240380179E+02 -0.14847754572E+03  0.44417032488E+03  0.40000000000E+03 0.  1.
   -9000007    1    1    2    0  502 -0.86344259952E+02  0.88240380179E+02 -0.12737130010E+03  0.43756730226E+03  0.40000000000E+03 0.  1.
<mgrwt>
<rscale>  2 0.41861880E+03</rscale>
<asrwt>0</asrwt>
<pdfrwt beam="1">  1       21 0.46606830E-01 0.41861880E+03</pdfrwt>
<pdfrwt beam="2">  1       21 0.89045112E-01 0.41861880E+03</pdfrwt>
<totfact> 0.42042228E+03</totfact>
</mgrwt>
</event>
<event>
 4    1  0.4918322E-002  0.4428951E+03  0.7818608E-02  0.1029862E+00
         21   -1    0    0  501  502  0.00000000000E+00  0.00000000000E+00  0.32477522180E+03  0.32477522180E+03  0.00000000000E+00 0.  1.
         21   -1    0    0  502  503 -0.00000000000E+00 -0.00000000000E+00 -0.60485539129E+03  0.60485539129E+03  0.00000000000E+00 0.  1.
    9000007    1    1    2  501    0 -0.13741556708E+03  0.13142702325E+03 -0.12230622787E+03  0.45947242996E+03  0.40000000000E+03 0.  1.
   -9000007    1    1    2    0  503  0.13741556708E+03 -0.13142702325E+03 -0.15777394162E+03  0.47015818314E+03  0.40000000000E+03 0.  1.
<mgrwt>
<rscale>  2 0.44289513E+03</rscale>
<asrwt>0</asrwt>
<pdfrwt beam="1">  1       21 0.49965419E-01 0.44289513E+03</pdfrwt>
<pdfrwt beam="2">  1       21 0.93054676E-01 0.44289513E+03</pdfrwt>
<totfact> 0.32406461E+03</totfact>
</mgrwt>
</event>
<event>
 4    1  0.4918322E-002  0.4422019E+03  0.7818608E-02  0.1030073E+00
         21   -1    0    0  503  502  0.00000000000E+00  0.00000000000E+00  0.89910824241E+03  0.89910824241E+03  0.00000000000E+00 0.  1.
         21   -1    0    0  501  503 -0.00000000000E+00 -0.00000000000E+00 -0.23192715885E+03  0.23192715885E+03  0.00000000000E+00 0.  1.
    9000007    1    1    2  501    0  0.10038011534E+03  0.15958176756E+03  0.47471011700E+03  0.64876205444E+03  0.40000000000E+03 0. -1.
   -9000007    1    1    2    0  502 -0.10038011534E+03 -0.15958176756E+03  0.19247096656E+03  0.48227334683E+03  0.40000000000E+03 0. -1.
<mgrwt>
<rscale>  2 0.44220189E+03</rscale>
<asrwt>0</asrwt>
<pdfrwt beam="1">  1       21 0.13832434E+00 0.44220189E+03</pdfrwt>
<pdfrwt beam="2">  1       21 0.35681102E-01 0.44220189E+03</pdfrwt>
<totfact> 0.24147611E+03</totfact>
</mgrwt>
</event>
<event>
 4    1  0.4918322E-002  0.4223776E+03  0.7818608E-02  0.1036295E+00
         21   -1    0    0  503  502  0.00000000000E+00  0.00000000000E+00  0.61918261567E+02  0.61918261567E+02  0.00000000000E+00 0. -1.
         21   -1    0    0  501  503 -0.00000000000E+00 -0.00000000000E+00 -0.28944925702E+04  0.28944925702E+04  0.00000000000E+00 0. -1.
    9000007    1    1    2  501    0  0.89302699621E+02  0.10211672850E+03 -0.13163514167E+04  0.13824557319E+04  0.40000000000E+03 0. -1.
   -9000007    1    1    2    0  502 -0.89302699621E+02 -0.10211672850E+03 -0.15162228919E+04  0.15739550999E+04  0.40000000000E+03 0. -1.
<mgrwt>
<rscale>  2 0.42237755E+03</rscale>
<asrwt>0</asrwt>
<pdfrwt beam="1">  1       21 0.95258889E-02 0.42237755E+03</pdfrwt>
<pdfrwt beam="2">  1       21 0.44530643E+00 0.42237755E+03</pdfrwt>
<totfact> 0.30779268E+02</totfact>
</mgrwt>
</event>
<event>
 4    1  0.4918322E-002  0.6456594E+03  0.7818608E-02  0.9814958E-01
         21   -1    0    0  501  502  0.00000000000E+00  0.00000000000E+00  0.20094615008E+04  0.20094615008E+04  0.00000000000E+00 0.  1.
         21   -1    0    0  502  503 -0.00000000000E+00 -0.00000000000E+00 -0.24263933419E+03  0.24263933419E+03  0.00000000000E+00 0. -1.
    9000007    1    1    2  501    0  0.46717942028E+03  0.19651821244E+03  0.45462357397E+03  0.78965727538E+03  0.40000000000E+03 0. -1.
   -9000007    1    1    2    0  503 -0.46717942028E+03 -0.19651821244E+03  0.13121985927E+04  0.14624435597E+04  0.40000000000E+03 0.  1.
<mgrwt>
<rscale>  2 0.64565937E+03</rscale>
<asrwt>0</asrwt>
<pdfrwt beam="1">  1       21 0.30914791E+00 0.64565937E+03</pdfrwt>
<pdfrwt beam="2">  1       21 0.37329130E-01 0.64565937E+03</pdfrwt>
<totfact> 0.14726368E+02</totfact>
</mgrwt>
</event>
<event>
 4    1  0.4918322E-002  0.4355535E+03  0.7818608E-02  0.1032120E+00
         21   -1    0    0  501  502  0.00000000000E+00  0.00000000000E+00  0.11583329455E+04  0.11583329455E+04  0.00000000000E+00 0. -1.
         21   -1    0    0  502  503 -0.00000000000E+00 -0.00000000000E+00 -0.17198560299E+03  0.17198560299E+03  0.00000000000E+00 0. -1.
    9000007    1    1    2  501    0 -0.27627654886E+02 -0.17012808014E+03  0.63850097001E+03  0.77291030506E+03  0.40000000000E+03 0. -1.
   -9000007    1    1    2    0  503  0.27627654886E+02  0.17012808014E+03  0.34784637246E+03  0.55740824339E+03  0.40000000000E+03 0. -1.
<mgrwt>
<rscale>  2 0.43555350E+03</rscale>
<asrwt>0</asrwt>
<pdfrwt beam="1">  1       21 0.17820506E+00 0.43555350E+03</pdfrwt>
<pdfrwt beam="2">  1       21 0.26459324E-01 0.43555350E+03</pdfrwt>
<totfact> 0.21795041E+03</totfact>
</mgrwt>
</event>
<event>
 4    1  0.4918322E-002  0.6111243E+03  0.7818608E-02  0.9882592E-01
         21   -1    0    0  503  502  0.00000000000E+00  0.00000000000E+00  0.18523636101E+04  0.18523636101E+04  0.00000000000E+00 0.  1.
         21   -1    0    0  501  503 -0.00000000000E+00 -0.00000000000E+00 -0.64985631675E+03  0.64985631675E+03  0.00000000000E+00 0. -1.
    9000007    1    1    2  501    0 -0.44058931925E+03  0.13911873461E+03 -0.43780600912E+03  0.75176264351E+03  0.40000000000E+03 0. -1.
   -9000007    1    1    2    0  502  0.44058931925E+03 -0.13911873461E+03  0.16403133025E+04  0.17504572833E+04  0.40000000000E+03 0.  1.
<mgrwt>
<rscale>  2 0.61112435E+03</rscale>
<asrwt>0</asrwt>
<pdfrwt beam="1">  1       21 0.28497902E+00 0.61112435E+03</pdfrwt>
<pdfrwt beam="2">  1       21 0.99977896E-01 0.61112435E+03</pdfrwt>
<totfact> 0.23445659E+01</totfact>
</mgrwt>
</event>
<event>
 4    1  0.4918322E-002  0.7439771E+03  0.7818608E-02  0.9644847E-01
         21   -1    0    0  503  502  0.00000000000E+00  0.00000000000E+00  0.17782742195E+04  0.17782742195E+04  0.00000000000E+00 0.  1.
         21   -1    0    0  501  503 -0.00000000000E+00 -0.00000000000E+00 -0.56527040270E+03  0.56527040270E+03  0.00000000000E+00 0. -1.
    9000007    1    1    2  501    0  0.62617328353E+03 -0.37536072487E+02 -0.17899166532E+03  0.76520582460E+03  0.40000000000E+03 0. -1.
   -9000007    1    1    2    0  502 -0.62617328353E+03  0.37536072487E+02  0.13919954821E+04  0.15783387976E+04  0.40000000000E+03 0.  1.
<mgrwt>
<rscale>  2 0.74397711E+03</rscale>
<asrwt>0</asrwt>
<pdfrwt beam="1">  1       21 0.27358065E+00 0.74397711E+03</pdfrwt>
<pdfrwt beam="2">  1       21 0.86964678E-01 0.74397711E+03</pdfrwt>
<totfact> 0.36365396E+01</totfact>
</mgrwt>
</event>
<event>
 4    1  0.4918322E-002  0.4935795E+03  0.7818608E-02  0.1015468E+00
         21   -1    0    0  503  502  0.00000000000E+00  0.00000000000E+00  0.41479584502E+03  0.41479584502E+03  0.00000000000E+00 0.  1.
         21   -1    0    0  501  503 -0.00000000000E+00 -0.00000000000E+00 -0.67652304259E+03  0.67652304259E+03  0.00000000000E+00 0. -1.
    9000007    1    1    2  501    0 -0.14158470143E+03 -0.25213975165E+03 -0.32899525068E+03  0.59317666594E+03  0.40000000000E+03 0. -1.
   -9000007    1    1    2    0  502  0.14158470143E+03  0.25213975165E+03  0.67268053109E+02  0.49814222167E+03  0.40000000000E+03 0.  1.
<mgrwt>
<rscale>  2 0.49357946E+03</rscale>
<asrwt>0</asrwt>
<pdfrwt beam="1">  1       21 0.63814745E-01 0.49357946E+03</pdfrwt>
<pdfrwt beam="2">  1       21 0.10408047E+00 0.49357946E+03</pdfrwt>
<totfact> 0.14261274E+03</totfact>
</mgrwt>
</event>
<event>
 4    1  0.4918322E-002  0.4785385E+03  0.7818608E-02  0.1019538E+00
         21   -1    0    0  503  502  0.00000000000E+00  0.00000000000E+00  0.21033260099E+03  0.21033260099E+03  0.00000000000E+00 0. -1.
         21   -1    0    0  501  503 -0.00000000000E+00 -0.00000000000E+00 -0.13939005578E+04  0.13939005578E+04  0.00000000000E+00 0. -1.
    9000007    1    1    2  501    0 -0.25607216639E+03 -0.58533395803E+02 -0.96708556023E+03  0.10790058358E+04  0.40000000000E+03 0. -1.
   -9000007    1    1    2    0  502  0.25607216639E+03  0.58533395803E+02 -0.21648239660E+03  0.52522732303E+03  0.40000000000E+03 0. -1.
<mgrwt>
<rscale>  2 0.47853852E+03</rscale>
<asrwt>0</asrwt>
<pdfrwt beam="1">  1       21 0.32358862E-01 0.47853852E+03</pdfrwt>
<pdfrwt beam="2">  1       21 0.21444624E+00 0.47853852E+03</pdfrwt>
<totfact> 0.81722573E+02</totfact>
</mgrwt>
</event>
<event>
 4    1  0.4918322E-002  0.5394939E+03  0.7818608E-02  0.1003955E+00
         21   -1    0    0  501  502  0.00000000000E+00  0.00000000000E+00  0.29889209977E+03  0.29889209977E+03  0.00000000000E+00 0. -1.
         21   -1    0    0  502  503 -0.00000000000E+00 -0.00000000000E+00 -0.10096079166E+04  0.10096079166E+04  0.00000000000E+00 0.  1.
    9000007    1    1    2  501    0 -0.36000982992E+03 -0.38034092129E+02 -0.23210189087E+03  0.58730312237E+03  0.40000000000E+03 0. -1.
   -9000007    1    1    2    0  503  0.36000982992E+03  0.38034092129E+02 -0.47861392601E+03  0.72119689404E+03  0.40000000000E+03 0. -1.
<mgrwt>
<rscale>  2 0.53949390E+03</rscale>
<asrwt>0</asrwt>
<pdfrwt beam="1">  1       21 0.45983399E-01 0.53949390E+03</pdfrwt>
<pdfrwt beam="2">  1       21 0.15532430E+00 0.53949390E+03</pdfrwt>
<totfact> 0.10074434E+03</totfact>
</mgrwt>
</event>
<event>
 4    1  0.4918322E-002  0.4843236E+03  0.7818608E-02  0.1017954E+00
         21   -1    0    0  503  502  0.00000000000E+00  0.00000000000E+00  0.32373735970E+03  0.32373735970E+03  0.00000000000E+00 0. -1.
         21   -1    0    0  501  503 -0.00000000000E+00 -0.00000000000E+00 -0.73127977349E+03  0.73127977349E+03  0.00000000000E+00 0.  1.
    9000007    1    1    2  501    0  0.12397195168E+03 -0.24331116990E+03 -0.25431204749E+03  0.54703198051E+03  0.40000000000E+03 0. -1.
   -9000007    1    1    2    0  502 -0.12397195168E+03  0.24331116990E+03 -0.15323036630E+03  0.50798515269E+03  0.40000000000E+03 0.  1.
<mgrwt>
<rscale>  2 0.48432362E+03</rscale>
<asrwt>0</asrwt>
<pdfrwt beam="1">  1       21 0.49805749E-01 0.48432362E+03</pdfrwt>
<pdfrwt beam="2">  1       21 0.11250458E+00 0.48432362E+03</pdfrwt>
<totfact> 0.20215310E+03</totfact>
</mgrwt>
</event>
<event>
 4    1  0.4918322E-002  0.4224216E+03  0.7818608E-02  0.1036281E+00
         21   -1    0    0  501  502  0.00000000000E+00  0.00000000000E+00  0.32871736979E+03  0.32871736979E+03  0.00000000000E+00 0. -1.
         21   -1    0    0  502  503 -0.00000000000E+00 -0.00000000000E+00 -0.67048776806E+03  0.67048776806E+03  0.00000000000E+00 0. -1.
    9000007    1    1    2  501    0 -0.10868741467E+01  0.13578958988E+03  0.47106886252E+02  0.42504006017E+03  0.40000000000E+03 0. -1.
   -9000007    1    1    2    0  503  0.10868741467E+01 -0.13578958988E+03 -0.38887728452E+03  0.57416507769E+03  0.40000000000E+03 0. -1.
<mgrwt>
<rscale>  2 0.42242158E+03</rscale>
<asrwt>0</asrwt>
<pdfrwt beam="1">  1       21 0.50571903E-01 0.42242158E+03</pdfrwt>
<pdfrwt beam="2">  1       21 0.10315196E+00 0.42242158E+03</pdfrwt>
<totfact> 0.24818676E+03</totfact>
</mgrwt>
</event>
<event>
 4    1  0.4918322E-002  0.5358700E+03  0.7818608E-02  0.1004818E+00
         21   -1    0    0  501  502  0.00000000000E+00  0.00000000000E+00  0.15095839333E+04  0.15095839333E+04  0.00000000000E+00 0.  1.
         21   -1    0    0  502  503 -0.00000000000E+00 -0.00000000000E+00 -0.30711387976E+03  0.30711387976E+03  0.00000000000E+00 0.  1.
    9000007    1    1    2  501    0  0.35640673600E+03 -0.11440739079E+02  0.11616302656E+04  0.12792738275E+04  0.40000000000E+03 0.  1.
   -9000007    1    1    2    0  503 -0.35640673600E+03  0.11440739079E+02  0.40839788041E+02  0.53742398557E+03  0.40000000000E+03 0.  1.
<mgrwt>
<rscale>  2 0.53587000E+03</rscale>
<asrwt>0</asrwt>
<pdfrwt beam="1">  1       21 0.23224368E+00 0.53587000E+03</pdfrwt>
<pdfrwt beam="2">  1       21 0.47248290E-01 0.53587000E+03</pdfrwt>
<totfact> 0.28104126E+02</totfact>
</mgrwt>
</event>
<event>
 4    1  0.4918322E-002  0.4943810E+03  0.7818608E-02  0.1015256E+00
         21   -1    0    0  501  502  0.00000000000E+00  0.00000000000E+00  0.41187690907E+03  0.41187690907E+03  0.00000000000E+00 0. -1.
         21   -1    0    0  502  503 -0.00000000000E+00 -0.00000000000E+00 -0.61106014579E+03  0.61106014579E+03  0.00000000000E+00 0. -1.
    9000007    1    1    2  501    0 -0.28498762823E+03  0.56521111714E+02 -0.18651366504E+03  0.52839372778E+03  0.40000000000E+03 0. -1.
   -9000007    1    1    2    0  503  0.28498762823E+03 -0.56521111714E+02 -0.12669571680E+02  0.49454332708E+03  0.40000000000E+03 0. -1.
<mgrwt>
<rscale>  2 0.49438101E+03</rscale>
<asrwt>0</asrwt>
<pdfrwt beam="1">  1       21 0.63365678E-01 0.49438101E+03</pdfrwt>
<pdfrwt beam="2">  1       21 0.94009253E-01 0.49438101E+03</pdfrwt>
<totfact> 0.18544599E+03</totfact>
</mgrwt>
</event>
<event>
 4    1  0.4918322E-002  0.4730188E+03  0.7818608E-02  0.1021072E+00
         21   -1    0    0  503  502  0.00000000000E+00  0.00000000000E+00  0.33128406337E+03  0.33128406337E+03  0.00000000000E+00 0.  1.
         21   -1    0    0  501  503 -0.00000000000E+00 -0.00000000000E+00 -0.68594797516E+03  0.68594797516E+03  0.00000000000E+00 0.  1.
    9000007    1    1    2  501    0 -0.11041264974E+03  0.22705903226E+03 -0.24042539992E+03  0.53061391829E+03  0.40000000000E+03 0.  1.
   -9000007    1    1    2    0  502  0.11041264974E+03 -0.22705903226E+03 -0.11423851186E+03  0.48661812024E+03  0.40000000000E+03 0.  1.
<mgrwt>
<rscale>  2 0.47301877E+03</rscale>
<asrwt>0</asrwt>
<pdfrwt beam="1">  1       21 0.50966780E-01 0.47301877E+03</pdfrwt>
<pdfrwt beam="2">  1       21 0.10553046E+00 0.47301877E+03</pdfrwt>
<totfact> 0.22649321E+03</totfact>
</mgrwt>
</event>
<event>
 4    1  0.4918322E-002  0.6390075E+03  0.7818608E-02  0.9827627E-01
         21   -1    0    0  503  502  0.00000000000E+00  0.00000000000E+00  0.35479532731E+03  0.35479532731E+03  0.00000000000E+00 0. -1.
         21   -1    0    0  501  503 -0.00000000000E+00 -0.00000000000E+00 -0.11785689788E+04  0.11785689788E+04  0.00000000000E+00 0.  1.
    9000007    1    1    2  501    0  0.15451235428E+03 -0.47376845139E+03 -0.29439489472E+03  0.70356162999E+03  0.40000000000E+03 0. -1.
   -9000007    1    1    2    0  502 -0.15451235428E+03  0.47376845139E+03 -0.52937875675E+03  0.82980267610E+03  0.40000000000E+03 0. -1.
<mgrwt>
<rscale>  2 0.63900752E+03</rscale>
<asrwt>0</asrwt>
<pdfrwt beam="1">  1       21 0.54583897E-01 0.63900752E+03</pdfrwt>
<pdfrwt beam="2">  1       21 0.18131830E+00 0.63900752E+03</pdfrwt>
<totfact> 0.43293486E+02</totfact>
</mgrwt>
</event>
<event>
 4    1  0.4918322E-002  0.4740006E+03  0.7818608E-02  0.1020797E+00
         21   -1    0    0  501  502  0.00000000000E+00  0.00000000000E+00  0.22038462585E+03  0.22038462585E+03  0.00000000000E+00 0.  1.
         21   -1    0    0  502  503 -0.00000000000E+00 -0.00000000000E+00 -0.15079479657E+04  0.15079479657E+04  0.00000000000E+00 0.  1.
    9000007    1    1    2  501    0  0.81914555086E+02  0.24076256796E+03 -0.15194100990E+03  0.49775765083E+03  0.40000000000E+03 0.  1.
   -9000007    1    1    2    0  503 -0.81914555086E+02 -0.24076256796E+03 -0.11356223299E+04  0.12305749407E+04  0.40000000000E+03 0.  1.
<mgrwt>
<rscale>  2 0.47400064E+03</rscale>
<asrwt>0</asrwt>
<pdfrwt beam="1">  1       21 0.33905328E-01 0.47400064E+03</pdfrwt>
<pdfrwt beam="2">  1       21 0.23199199E+00 0.47400064E+03</pdfrwt>
<totfact> 0.57616773E+02</totfact>
</mgrwt>
</event>
<event>
 4    1  0.4918322E-002  0.4938731E+03  0.7818608E-02  0.1015391E+00
         21   -1    0    0  501  502  0.00000000000E+00  0.00000000000E+00  0.16812218917E+04  0.16812218917E+04  0.00000000000E+00 0. -1.
         21   -1    0    0  502  503 -0.00000000000E+00 -0.00000000000E+00 -0.20615904169E+03  0.20615904169E+03  0.00000000000E+00 0. -1.
    9000007    1    1    2  501    0 -0.28794126626E+03 -0.31629549189E+02  0.22387024387E+03  0.54224393707E+03  0.40000000000E+03 0. -1.
   -9000007    1    1    2    0  503  0.28794126626E+03  0.31629549189E+02  0.12511926062E+04  0.13451369963E+04  0.40000000000E+03 0. -1.
<mgrwt>
<rscale>  2 0.49387306E+03</rscale>
<asrwt>0</asrwt>
<pdfrwt beam="1">  1       21 0.25864951E+00 0.49387306E+03</pdfrwt>
<pdfrwt beam="2">  1       21 0.31716777E-01 0.49387306E+03</pdfrwt>
<totfact> 0.44602253E+02</totfact>
</mgrwt>
</event>
<event>
 4    1  0.4918322E-002  0.4721717E+03  0.7818608E-02  0.1021309E+00
         21   -1    0    0  501  502  0.00000000000E+00  0.00000000000E+00  0.13749097908E+04  0.13749097908E+04  0.00000000000E+00 0.  1.
         21   -1    0    0  502  503 -0.00000000000E+00 -0.00000000000E+00 -0.23926079586E+03  0.23926079586E+03  0.00000000000E+00 0.  1.
    9000007    1    1    2  501    0  0.24447183512E+03  0.56387905692E+02  0.10260002875E+04  0.11294346656E+04  0.40000000000E+03 0.  1.
   -9000007    1    1    2    0  503 -0.24447183512E+03 -0.56387905692E+02  0.10964870747E+03  0.48473592102E+03  0.40000000000E+03 0.  1.
<mgrwt>
<rscale>  2 0.47217166E+03</rscale>
<asrwt>0</asrwt>
<pdfrwt beam="1">  1       21 0.21152458E+00 0.47217166E+03</pdfrwt>
<pdfrwt beam="2">  1       21 0.36809354E-01 0.47217166E+03</pdfrwt>
<totfact> 0.65979892E+02</totfact>
</mgrwt>
</event>
<event>
 4    1  0.4918322E-002  0.4337079E+03  0.7818608E-02  0.1032695E+00
         21   -1    0    0  503  502  0.00000000000E+00  0.00000000000E+00  0.46138063097E+03  0.46138063097E+03  0.00000000000E+00 0.  1.
         21   -1    0    0  501  503 -0.00000000000E+00 -0.00000000000E+00 -0.44252404257E+03  0.44252404257E+03  0.00000000000E+00 0. -1.
    9000007    1    1    2  501    0  0.12499086289E+03 -0.11171306006E+03 -0.11736482371E+03  0.44930727285E+03  0.40000000000E+03 0. -1.
   -9000007    1    1    2    0  502 -0.12499086289E+03  0.11171306006E+03  0.13622141210E+03  0.45459740068E+03  0.40000000000E+03 0.  1.
<mgrwt>
<rscale>  2 0.43370788E+03</rscale>
<asrwt>0</asrwt>
<pdfrwt beam="1">  1       21 0.70981635E-01 0.43370788E+03</pdfrwt>
<pdfrwt beam="2">  1       21 0.68080622E-01 0.43370788E+03</pdfrwt>
<totfact> 0.31021984E+03</totfact>
</mgrwt>
</event>
<event>
 4    1  0.4918322E-002  0.5882457E+03  0.7818608E-02  0.9930097E-01
         21   -1    0    0  501  502  0.00000000000E+00  0.00000000000E+00  0.46827643429E+03  0.46827643429E+03  0.00000000000E+00 0. -1.
         21   -1    0    0  502  503 -0.00000000000E+00 -0.00000000000E+00 -0.15411897558E+04  0.15411897558E+04  0.00000000000E+00 0.  1.
    9000007    1    1    2  501    0  0.17455937786E+03  0.39441351964E+03  0.18843760787E+03  0.61769064501E+03  0.40000000000E+03 0. -1.
   -9000007    1    1    2    0  503 -0.17455937786E+03 -0.39441351964E+03 -0.12613509294E+04  0.13917755451E+04  0.40000000000E+03 0.  1.
<mgrwt>
<rscale>  2 0.58824570E+03</rscale>
<asrwt>0</asrwt>
<pdfrwt beam="1">  1       21 0.72042528E-01 0.58824570E+03</pdfrwt>
<pdfrwt beam="2">  1       21 0.23710612E+00 0.58824570E+03</pdfrwt>
<totfact> 0.10138787E+02</totfact>
</mgrwt>
</event>
<event>
 4    1  0.4918322E-002  0.4338825E+03  0.7818608E-02  0.1032640E+00
         21   -1    0    0  503  502  0.00000000000E+00  0.00000000000E+00  0.20153709812E+03  0.20153709812E+03  0.00000000000E+00 0. -1.
         21   -1    0    0  501  503 -0.00000000000E+00 -0.00000000000E+00 -0.99118290360E+03  0.99118290360E+03  0.00000000000E+00 0.  1.
    9000007    1    1    2  501    0 -0.14475506092E+03  0.85439923629E+02 -0.53794889631E+03  0.69111722830E+03  0.40000000000E+03 0.  1.
   -9000007    1    1    2    0  502  0.14475506092E+03 -0.85439923629E+02 -0.25169690917E+03  0.50160277341E+03  0.40000000000E+03 0. -1.
<mgrwt>
<rscale>  2 0.43388248E+03</rscale>
<asrwt>0</asrwt>
<pdfrwt beam="1">  1       21 0.31005708E-01 0.43388248E+03</pdfrwt>
<pdfrwt beam="2">  1       21 0.15248967E+00 0.43388248E+03</pdfrwt>
<totfact> 0.24723376E+03</totfact>
</mgrwt>
</event>
<event>
 4    1  0.4918322E-002  0.4060335E+03  0.7818608E-02  0.1041710E+00
         21   -1    0    0  503  502  0.00000000000E+00  0.00000000000E+00  0.24444218185E+04  0.24444218185E+04  0.00000000000E+00 0.  1.
         21   -1    0    0  501  503 -0.00000000000E+00 -0.00000000000E+00 -0.67558004695E+02  0.67558004695E+02  0.00000000000E+00 0.  1.
    9000007    1    1    2  501    0  0.46890120593E+02  0.51618694666E+02  0.12398798772E+04  0.13046705649E+04  0.40000000000E+03 0.  1.
   -9000007    1    1    2    0  502 -0.46890120593E+02 -0.51618694666E+02  0.11369839366E+04  0.12073092583E+04  0.40000000000E+03 0.  1.
<mgrwt>
<rscale>  2 0.40603346E+03</rscale>
<asrwt>0</asrwt>
<pdfrwt beam="1">  1       21 0.37606483E+00 0.40603346E+03</pdfrwt>
<pdfrwt beam="2">  1       21 0.10393541E-01 0.40603346E+03</pdfrwt>
<totfact> 0.74741072E+02</totfact>
</mgrwt>
</event>
<event>
 4    1  0.4918322E-002  0.5609068E+03  0.7818608E-02  0.9990005E-01
         21   -1    0    0  503  502  0.00000000000E+00  0.00000000000E+00  0.57387346524E+03  0.57387346524E+03  0.00000000000E+00 0. -1.
         21   -1    0    0  501  503 -0.00000000000E+00 -0.00000000000E+00 -0.11497596590E+04  0.11497596590E+04  0.00000000000E+00 0. -1.
    9000007    1    1    2  501    0  0.27985578797E+02  0.39221575100E+03 -0.91130281150E+03  0.10700884086E+04  0.40000000000E+03 0. -1.
   -9000007    1    1    2    0  502 -0.27985578797E+02 -0.39221575100E+03  0.33541661770E+03  0.65354471568E+03  0.40000000000E+03 0. -1.
<mgrwt>
<rscale>  2 0.56090676E+03</rscale>
<asrwt>0</asrwt>
<pdfrwt beam="1">  1       21 0.88288226E-01 0.56090676E+03</pdfrwt>
<pdfrwt beam="2">  1       21 0.17688610E+00 0.56090676E+03</pdfrwt>
<totfact> 0.16124760E+02</totfact>
</mgrwt>
</event>
<event>
 4    1  0.4918322E-002  0.4445844E+03  0.7818608E-02  0.1029349E+00
         21   -1    0    0  503  502  0.00000000000E+00  0.00000000000E+00  0.86005485468E+03  0.86005485468E+03  0.00000000000E+00 0. -1.
         21   -1    0    0  501  503 -0.00000000000E+00 -0.00000000000E+00 -0.45191921452E+03  0.45191921452E+03  0.00000000000E+00 0. -1.
    9000007    1    1    2  501    0 -0.18460625655E+03  0.59797892378E+02 -0.25580872617E+03  0.51292627372E+03  0.40000000000E+03 0. -1.
   -9000007    1    1    2    0  502  0.18460625655E+03 -0.59797892378E+02  0.66394436633E+03  0.79904779548E+03  0.40000000000E+03 0. -1.
<mgrwt>
<rscale>  2 0.44458437E+03</rscale>
<asrwt>0</asrwt>
<pdfrwt beam="1">  1       21 0.13231613E+00 0.44458437E+03</pdfrwt>
<pdfrwt beam="2">  1       21 0.69526033E-01 0.44458437E+03</pdfrwt>
<totfact> 0.65461874E+02</totfact>
</mgrwt>
</event>
<event>
 4    1  0.4918322E-002  0.4180441E+03  0.7818608E-02  0.1037705E+00
         21   -1    0    0  501  502  0.00000000000E+00  0.00000000000E+00  0.93390708289E+03  0.93390708289E+03  0.00000000000E+00 0. -1.
         21   -1    0    0  502  503 -0.00000000000E+00 -0.00000000000E+00 -0.30056248503E+03  0.30056248503E+03  0.00000000000E+00 0. -1.
    9000007    1    1    2  501    0 -0.89906793055E+02  0.81716701370E+02  0.69585992060E+03  0.81177698897E+03  0.40000000000E+03 0. -1.
   -9000007    1    1    2    0  503  0.89906793055E+02 -0.81716701370E+02 -0.62515322747E+02  0.42269257895E+03  0.40000000000E+03 0. -1.
<mgrwt>
<rscale>  2 0.41804408E+03</rscale>
<asrwt>0</asrwt>
<pdfrwt beam="1">  1       21 0.14367801E+00 0.41804408E+03</pdfrwt>
<pdfrwt beam="2">  1       21 0.46240383E-01 0.41804408E+03</pdfrwt>
<totfact> 0.12913866E+03</totfact>
</mgrwt>
</event>
<event>
 4    1  0.4918322E-002  0.5593746E+03  0.7818608E-02  0.9993471E-01
         21   -1    0    0  503  502  0.00000000000E+00  0.00000000000E+00  0.20703597842E+04  0.20703597842E+04  0.00000000000E+00 0. -1.
         21   -1    0    0  501  503 -0.00000000000E+00 -0.00000000000E+00 -0.27765878311E+03  0.27765878311E+03  0.00000000000E+00 0. -1.
    9000007    1    1    2  501    0  0.39078555257E+03  0.13661802468E+02  0.10383989065E+03  0.56893120484E+03  0.40000000000E+03 0. -1.
   -9000007    1    1    2    0  502 -0.39078555257E+03 -0.13661802468E+02  0.16888611105E+04  0.17790873625E+04  0.40000000000E+03 0. -1.
<mgrwt>
<rscale>  2 0.55937464E+03</rscale>
<asrwt>0</asrwt>
<pdfrwt beam="1">  1       21 0.31851688E+00 0.55937464E+03</pdfrwt>
<pdfrwt beam="2">  1       21 0.42716737E-01 0.55937464E+03</pdfrwt>
<totfact> 0.10164252E+02</totfact>
</mgrwt>
</event>
<event>
 4    1  0.4918322E-002  0.4187103E+03  0.7818608E-02  0.1037487E+00
         21   -1    0    0  503  502  0.00000000000E+00  0.00000000000E+00  0.31296407362E+04  0.31296407362E+04  0.00000000000E+00 0. -1.
         21   -1    0    0  501  503 -0.00000000000E+00 -0.00000000000E+00 -0.64814628542E+02  0.64814628542E+02  0.00000000000E+00 0. -1.
    9000007    1    1    2  501    0 -0.20142152116E+02  0.12211707495E+03  0.21208122856E+04  0.21617499941E+04  0.40000000000E+03 0.  1.
   -9000007    1    1    2    0  502  0.20142152116E+02 -0.12211707495E+03  0.94401382202E+03  0.10327053706E+04  0.40000000000E+03 0.  1.
<mgrwt>
<rscale>  2 0.41871027E+03</rscale>
<asrwt>0</asrwt>
<pdfrwt beam="1">  1       21 0.48148307E+00 0.41871027E+03</pdfrwt>
<pdfrwt beam="2">  1       21 0.99714837E-02 0.41871027E+03</pdfrwt>
<totfact> 0.16055278E+02</totfact>
</mgrwt>
</event>
<event>
 4    1  0.4918322E-002  0.4642590E+03  0.7818608E-02  0.1023553E+00
         21   -1    0    0  503  502  0.00000000000E+00  0.00000000000E+00  0.20715234187E+03  0.20715234187E+03  0.00000000000E+00 0. -1.
         21   -1    0    0  501  503 -0.00000000000E+00 -0.00000000000E+00 -0.13896028447E+04  0.13896028447E+04  0.00000000000E+00 0. -1.
    9000007    1    1    2  501    0 -0.11436318926E+03  0.20605215335E+03 -0.19104426616E+03  0.50203021880E+03  0.40000000000E+03 0. -1.
   -9000007    1    1    2    0  502  0.11436318926E+03 -0.20605215335E+03 -0.99140623663E+03  0.10947249677E+04  0.40000000000E+03 0. -1.
<mgrwt>
<rscale>  2 0.46425901E+03</rscale>
<asrwt>0</asrwt>
<pdfrwt beam="1">  1       21 0.31869591E-01 0.46425901E+03</pdfrwt>
<pdfrwt beam="2">  1       21 0.21378505E+00 0.46425901E+03</pdfrwt>
<totfact> 0.85652976E+02</totfact>
</mgrwt>
</event>
<event>
 4    1  0.4918322E-002  0.4401861E+03  0.7818608E-02  0.1030690E+00
         21   -1    0    0  503  502  0.00000000000E+00  0.00000000000E+00  0.11398096138E+04  0.11398096138E+04  0.00000000000E+00 0. -1.
         21   -1    0    0  501  503 -0.00000000000E+00 -0.00000000000E+00 -0.25393650350E+03  0.25393650350E+03  0.00000000000E+00 0. -1.
    9000007    1    1    2  501    0  0.58542782106E+02 -0.17417389331E+03  0.42277242787E+02  0.44221167749E+03  0.40000000000E+03 0.  1.
   -9000007    1    1    2    0  502 -0.58542782106E+02  0.17417389331E+03  0.84359586748E+03  0.95153443977E+03  0.40000000000E+03 0.  1.
<mgrwt>
<rscale>  2 0.44018610E+03</rscale>
<asrwt>0</asrwt>
<pdfrwt beam="1">  1       21 0.17535532E+00 0.44018610E+03</pdfrwt>
<pdfrwt beam="2">  1       21 0.39067155E-01 0.44018610E+03</pdfrwt>
<totfact> 0.10443658E+03</totfact>
</mgrwt>
</event>
<event>
 4    1  0.4918322E-002  0.4558927E+03  0.7818608E-02  0.1025979E+00
         21   -1    0    0  503  502  0.00000000000E+00  0.00000000000E+00  0.95864008186E+03  0.95864008186E+03  0.00000000000E+00 0.  1.
         21   -1    0    0  501  503 -0.00000000000E+00 -0.00000000000E+00 -0.25908059832E+03  0.25908059832E+03  0.00000000000E+00 0.  1.
    9000007    1    1    2  501    0 -0.21642409343E+03 -0.31603872374E+02  0.10383140544E+03  0.46756727187E+03  0.40000000000E+03 0.  1.
   -9000007    1    1    2    0  502  0.21642409343E+03  0.31603872374E+02  0.59572807810E+03  0.75015340831E+03  0.40000000000E+03 0.  1.
<mgrwt>
<rscale>  2 0.45589274E+03</rscale>
<asrwt>0</asrwt>
<pdfrwt beam="1">  1       21 0.14748309E+00 0.45589274E+03</pdfrwt>
<pdfrwt beam="2">  1       21 0.39858554E-01 0.45589274E+03</pdfrwt>
<totfact> 0.16134228E+03</totfact>
</mgrwt>
</event>
<event>
 4    1  0.4918322E-002  0.4405229E+03  0.7818608E-02  0.1030587E+00
         21   -1    0    0  503  502  0.00000000000E+00  0.00000000000E+00  0.69813882333E+02  0.69813882333E+02  0.00000000000E+00 0. -1.
         21   -1    0    0  501  503 -0.00000000000E+00 -0.00000000000E+00 -0.30740627781E+04  0.30740627781E+04  0.00000000000E+00 0.  1.
    9000007    1    1    2  501    0 -0.18042134084E+03 -0.38839775605E+02 -0.19885696240E+04  0.20367792069E+04  0.40000000000E+03 0.  1.
   -9000007    1    1    2    0  502  0.18042134084E+03  0.38839775605E+02 -0.10156792718E+04  0.11070974535E+04  0.40000000000E+03 0. -1.
<mgrwt>
<rscale>  2 0.44052286E+03</rscale>
<asrwt>0</asrwt>
<pdfrwt beam="1">  1       21 0.10740594E-01 0.44052286E+03</pdfrwt>
<pdfrwt beam="2">  1       21 0.47293286E+00 0.44052286E+03</pdfrwt>
<totfact> 0.15858303E+02</totfact>
</mgrwt>
</event>
<event>
 4    1  0.4918322E-002  0.4911661E+03  0.7818608E-02  0.1016111E+00
         21   -1    0    0  501  502  0.00000000000E+00  0.00000000000E+00  0.17293996674E+04  0.17293996674E+04  0.00000000000E+00 0. -1.
         21   -1    0    0  502  503 -0.00000000000E+00 -0.00000000000E+00 -0.73117176305E+03  0.73117176305E+03  0.00000000000E+00 0. -1.
    9000007    1    1    2  501    0  0.63017068064E+02 -0.27798019800E+03  0.16058350954E+04  0.16792708224E+04  0.40000000000E+03 0. -1.
   -9000007    1    1    2    0  503 -0.63017068064E+02  0.27798019800E+03 -0.60760719111E+03  0.78130060798E+03  0.40000000000E+03 0. -1.
<mgrwt>
<rscale>  2 0.49116610E+03</rscale>
<asrwt>0</asrwt>
<pdfrwt beam="1">  1       21 0.26606149E+00 0.49116610E+03</pdfrwt>
<pdfrwt beam="2">  1       21 0.11248796E+00 0.49116610E+03</pdfrwt>
<totfact> 0.24422598E+01</totfact>
</mgrwt>
</event>
<event>
 4    1  0.4918322E-002  0.8646078E+03  0.7818608E-02  0.9470938E-01
         21   -1    0    0  501  502  0.00000000000E+00  0.00000000000E+00  0.11631756964E+04  0.11631756964E+04  0.00000000000E+00 0.  1.
         21   -1    0    0  502  503 -0.00000000000E+00 -0.00000000000E+00 -0.66545541432E+03  0.66545541432E+03  0.00000000000E+00 0.  1.
    9000007    1    1    2  501    0  0.76588830187E+03 -0.31011030773E+02  0.79700853396E+02  0.86827345980E+03  0.40000000000E+03 0.  1.
   -9000007    1    1    2    0  503 -0.76588830187E+03  0.31011030773E+02  0.41801942873E+03  0.96035765096E+03  0.40000000000E+03 0.  1.
<mgrwt>
<rscale>  2 0.86460776E+03</rscale>
<asrwt>0</asrwt>
<pdfrwt beam="1">  1       21 0.17895011E+00 0.86460776E+03</pdfrwt>
<pdfrwt beam="2">  1       21 0.10237776E+00 0.86460776E+03</pdfrwt>
<totfact> 0.98187792E+01</totfact>
</mgrwt>
</event>
<event>
 4    1  0.4918322E-002  0.4399462E+03  0.7818608E-02  0.1030763E+00
         21   -1    0    0  501  502  0.00000000000E+00  0.00000000000E+00  0.80241155147E+03  0.80241155147E+03  0.00000000000E+00 0.  1.
         21   -1    0    0  502  503 -0.00000000000E+00 -0.00000000000E+00 -0.36543658736E+03  0.36543658736E+03  0.00000000000E+00 0.  1.
    9000007    1    1    2  501    0 -0.16070221930E+03  0.87905699533E+02  0.55893586013E+03  0.71130999644E+03  0.40000000000E+03 0.  1.
   -9000007    1    1    2    0  503  0.16070221930E+03 -0.87905699533E+02 -0.12196089602E+03  0.45653814239E+03  0.40000000000E+03 0.  1.
<mgrwt>
<rscale>  2 0.43994615E+03</rscale>
<asrwt>0</asrwt>
<pdfrwt beam="1">  1       21 0.12344793E+00 0.43994615E+03</pdfrwt>
<pdfrwt beam="2">  1       21 0.56221014E-01 0.43994615E+03</pdfrwt>
<totfact> 0.12538812E+03</totfact>
</mgrwt>
</event>
<event>
 4    1  0.4918322E-002  0.5042353E+03  0.7818608E-02  0.1012679E+00
         21   -1    0    0  503  502  0.00000000000E+00  0.00000000000E+00  0.47769448811E+03  0.47769448811E+03  0.00000000000E+00 0.  1.
         21   -1    0    0  501  503 -0.00000000000E+00 -0.00000000000E+00 -0.91612526302E+03  0.91612526302E+03  0.00000000000E+00 0. -1.
    9000007    1    1    2  501    0 -0.30630398001E+03 -0.20762397211E+02 -0.67033725629E+03  0.83881180397E+03  0.40000000000E+03 0. -1.
   -9000007    1    1    2    0  502  0.30630398001E+03  0.20762397211E+02  0.23190648138E+03  0.55500794717E+03  0.40000000000E+03 0.  1.
<mgrwt>
<rscale>  2 0.50423527E+03</rscale>
<asrwt>0</asrwt>
<pdfrwt beam="1">  1       21 0.73491459E-01 0.50423527E+03</pdfrwt>
<pdfrwt beam="2">  1       21 0.14094235E+00 0.50423527E+03</pdfrwt>
<totfact> 0.47636882E+02</totfact>
</mgrwt>
</event>
<event>
 4    1  0.4918322E-002  0.4142348E+03  0.7818608E-02  0.1038959E+00
         21   -1    0    0  503  502  0.00000000000E+00  0.00000000000E+00  0.34132072794E+03  0.34132072794E+03  0.00000000000E+00 0. -1.
         21   -1    0    0  501  503 -0.00000000000E+00 -0.00000000000E+00 -0.50442980198E+03  0.50442980198E+03  0.00000000000E+00 0. -1.
    9000007    1    1    2  501    0  0.29711714653E+02  0.10347796120E+03 -0.10613808703E+03  0.42761637943E+03  0.40000000000E+03 0.  1.
   -9000007    1    1    2    0  502 -0.29711714653E+02 -0.10347796120E+03 -0.56970987005E+02  0.41813415048E+03  0.40000000000E+03 0.  1.
<mgrwt>
<rscale>  2 0.41423481E+03</rscale>
<asrwt>0</asrwt>
<pdfrwt beam="1">  1       21 0.52510881E-01 0.41423481E+03</pdfrwt>
<pdfrwt beam="2">  1       21 0.77604585E-01 0.41423481E+03</pdfrwt>
<totfact> 0.45016594E+03</totfact>
</mgrwt>
</event>
<event>
 4    1  0.4918322E-002  0.4067629E+03  0.7818608E-02  0.1041463E+00
         21   -1    0    0  503  502  0.00000000000E+00  0.00000000000E+00  0.20384697668E+03  0.20384697668E+03  0.00000000000E+00 0.  1.
         21   -1    0    0  501  503 -0.00000000000E+00 -0.00000000000E+00 -0.11176426827E+04  0.11176426827E+04  0.00000000000E+00 0.  1.
    9000007    1    1    2  501    0 -0.66803662062E+02 -0.31516708519E+02 -0.80261837075E+03  0.89980680218E+03  0.40000000000E+03 0. -1.
   -9000007    1    1    2    0  502  0.66803662062E+02  0.31516708519E+02 -0.11117733526E+03  0.42168285720E+03  0.40000000000E+03 0. -1.
<mgrwt>
<rscale>  2 0.40676287E+03</rscale>
<asrwt>0</asrwt>
<pdfrwt beam="1">  1       21 0.31361073E-01 0.40676287E+03</pdfrwt>
<pdfrwt beam="2">  1       21 0.17194503E+00 0.40676287E+03</pdfrwt>
<totfact> 0.17490510E+03</totfact>
</mgrwt>
</event>
<event>
 4    1  0.4918322E-002  0.4425850E+03  0.7818608E-02  0.1029957E+00
         21   -1    0    0  501  502  0.00000000000E+00  0.00000000000E+00  0.17355684065E+04  0.17355684065E+04  0.00000000000E+00 0.  1.
         21   -1    0    0  502  503 -0.00000000000E+00 -0.00000000000E+00 -0.11305590290E+03  0.11305590290E+03  0.00000000000E+00 0.  1.
    9000007    1    1    2  501    0 -0.16771837034E+03 -0.88045450235E+02  0.77307554020E+03  0.89080146156E+03  0.40000000000E+03 0. -1.
   -9000007    1    1    2    0  503  0.16771837034E+03  0.88045450235E+02  0.84943696340E+03  0.95782284784E+03  0.40000000000E+03 0. -1.
<mgrwt>
<rscale>  2 0.44258497E+03</rscale>
<asrwt>0</asrwt>
<pdfrwt beam="1">  1       21 0.26701050E+00 0.44258497E+03</pdfrwt>
<pdfrwt beam="2">  1       21 0.17393217E-01 0.44258497E+03</pdfrwt>
<totfact> 0.13034294E+03</totfact>
</mgrwt>
</event>
<event>
 4    1  0.4918322E-002  0.4404825E+03  0.7818608E-02  0.1030599E+00
         21   -1    0    0  503  502  0.00000000000E+00  0.00000000000E+00  0.51823246674E+03  0.51823246674E+03  0.00000000000E+00 0.  1.
         21   -1    0    0  501  503 -0.00000000000E+00 -0.00000000000E+00 -0.42717291103E+03  0.42717291103E+03  0.00000000000E+00 0.  1.
    9000007    1    1    2  501    0 -0.17337301641E+03  0.62981438463E+02  0.21168065282E+03  0.48870600895E+03  0.40000000000E+03 0.  1.
   -9000007    1    1    2    0  502  0.17337301641E+03 -0.62981438463E+02 -0.12062109711E+03  0.45669936882E+03  0.40000000000E+03 0.  1.
<mgrwt>
<rscale>  2 0.44048254E+03</rscale>
<asrwt>0</asrwt>
<pdfrwt beam="1">  1       21 0.79728072E-01 0.44048254E+03</pdfrwt>
<pdfrwt beam="2">  1       21 0.65718909E-01 0.44048254E+03</pdfrwt>
<totfact> 0.25685949E+03</totfact>
</mgrwt>
</event>
<event>
 4    1  0.4918322E-002  0.4391018E+03  0.7818608E-02  0.1031023E+00
         21   -1    0    0  503  502  0.00000000000E+00  0.00000000000E+00  0.19485595787E+04  0.19485595787E+04  0.00000000000E+00 0. -1.
         21   -1    0    0  501  503 -0.00000000000E+00 -0.00000000000E+00 -0.10579614963E+03  0.10579614963E+03  0.00000000000E+00 0. -1.
    9000007    1    1    2  501    0 -0.14687257402E+03 -0.10601327065E+03  0.66008890178E+03  0.79279740465E+03  0.40000000000E+03 0. -1.
   -9000007    1    1    2    0  502  0.14687257402E+03  0.10601327065E+03  0.11826745273E+04  0.12615583237E+04  0.40000000000E+03 0. -1.
<mgrwt>
<rscale>  2 0.43910177E+03</rscale>
<asrwt>0</asrwt>
<pdfrwt beam="1">  1       21 0.29977837E+00 0.43910177E+03</pdfrwt>
<pdfrwt beam="2">  1       21 0.16276332E-01 0.43910177E+03</pdfrwt>
<totfact> 0.93870059E+02</totfact>
</mgrwt>
</event>
<event>
 4    1  0.4918322E-002  0.4474768E+03  0.7818608E-02  0.1028477E+00
         21   -1    0    0  501  502  0.00000000000E+00  0.00000000000E+00  0.18183074859E+04  0.18183074859E+04  0.00000000000E+00 0.  1.
         21   -1    0    0  502  503 -0.00000000000E+00 -0.00000000000E+00 -0.11090076227E+03  0.11090076227E+03  0.00000000000E+00 0.  1.
    9000007    1    1    2  501    0 -0.13223098499E+03 -0.15083258531E+03  0.77286676259E+03  0.89306132763E+03  0.40000000000E+03 0.  1.
   -9000007    1    1    2    0  503  0.13223098499E+03  0.15083258531E+03  0.93453996106E+03  0.10361469206E+04  0.40000000000E+03 0.  1.
<mgrwt>
<rscale>  2 0.44747682E+03</rscale>
<asrwt>0</asrwt>
<pdfrwt beam="1">  1       21 0.27973959E+00 0.44747682E+03</pdfrwt>
<pdfrwt beam="2">  1       21 0.17061657E-01 0.44747682E+03</pdfrwt>
<totfact> 0.11292213E+03</totfact>
</mgrwt>
</event>
<event>
 4    1  0.4918322E-002  0.7597209E+03  0.7818608E-02  0.9620222E-01
         21   -1    0    0  503  502  0.00000000000E+00  0.00000000000E+00  0.22027977014E+04  0.22027977014E+04  0.00000000000E+00 0.  1.
         21   -1    0    0  501  503 -0.00000000000E+00 -0.00000000000E+00 -0.48574288218E+03  0.48574288218E+03  0.00000000000E+00 0. -1.
    9000007    1    1    2  501    0  0.40269930675E+03  0.50498420047E+03 -0.53775678030E+02  0.76162168951E+03  0.40000000000E+03 0. -1.
   -9000007    1    1    2    0  502 -0.40269930675E+03 -0.50498420047E+03  0.17708304973E+04  0.19269188941E+04  0.40000000000E+03 0.  1.
<mgrwt>
<rscale>  2 0.75972085E+03</rscale>
<asrwt>0</asrwt>
<pdfrwt beam="1">  1       21 0.33889195E+00 0.75972085E+03</pdfrwt>
<pdfrwt beam="2">  1       21 0.74729675E-01 0.75972085E+03</pdfrwt>
<totfact> 0.20396873E+01</totfact>
</mgrwt>
</event>
<event>
 4    1  0.4918322E-002  0.6442678E+03  0.7818608E-02  0.9817595E-01
         21   -1    0    0  501  502  0.00000000000E+00  0.00000000000E+00  0.12354501732E+04  0.12354501732E+04  0.00000000000E+00 0. -1.
         21   -1    0    0  502  503 -0.00000000000E+00 -0.00000000000E+00 -0.42058814316E+03  0.42058814316E+03  0.00000000000E+00 0.  1.
    9000007    1    1    2  501    0  0.32591913116E+03  0.38582079728E+03  0.77882045367E+03  0.10107632100E+04  0.40000000000E+03 0. -1.
   -9000007    1    1    2    0  503 -0.32591913116E+03 -0.38582079728E+03  0.36041576397E+02  0.64527510637E+03  0.40000000000E+03 0.  1.
<mgrwt>
<rscale>  2 0.64426778E+03</rscale>
<asrwt>0</asrwt>
<pdfrwt beam="1">  1       21 0.19006926E+00 0.64426778E+03</pdfrwt>
<pdfrwt beam="2">  1       21 0.64705869E-01 0.64426778E+03</pdfrwt>
<totfact> 0.25781671E+02</totfact>
</mgrwt>
</event>
<event>
 4    1  0.4918322E-002  0.4200292E+03  0.7818608E-02  0.1037057E+00
         21   -1    0    0  503  502  0.00000000000E+00  0.00000000000E+00  0.76110714816E+03  0.76110714816E+03  0.00000000000E+00 0. -1.
         21   -1    0    0  501  503 -0.00000000000E+00 -0.00000000000E+00 -0.62379537457E+03  0.62379537457E+03  0.00000000000E+00 0.  1.
    9000007    1    1    2  501    0 -0.16460846275E+02 -0.12709679445E+03 -0.48026362297E+03  0.63802641181E+03  0.40000000000E+03 0.  1.
   -9000007    1    1    2    0  502  0.16460846275E+02  0.12709679445E+03  0.61757539656E+03  0.74687611092E+03  0.40000000000E+03 0. -1.
<mgrwt>
<rscale>  2 0.42002923E+03</rscale>
<asrwt>0</asrwt>
<pdfrwt beam="1">  1       21 0.11709341E+00 0.42002923E+03</pdfrwt>
<pdfrwt beam="2">  1       21 0.95968519E-01 0.42002923E+03</pdfrwt>
<totfact> 0.42890394E+02</totfact>
</mgrwt>
</event>
<event>
 4    1  0.4918322E-002  0.4959238E+03  0.7818608E-02  0.1014848E+00
         21   -1    0    0  501  502  0.00000000000E+00  0.00000000000E+00  0.11782149980E+04  0.11782149980E+04  0.00000000000E+00 0.  1.
         21   -1    0    0  502  503 -0.00000000000E+00 -0.00000000000E+00 -0.22417187348E+03  0.22417187348E+03  0.00000000000E+00 0. -1.
    9000007    1    1    2  501    0 -0.25935577064E+03  0.13665659194E+03  0.29304669235E+03  0.57603541886E+03  0.40000000000E+03 0.  1.
   -9000007    1    1    2    0  503  0.25935577064E+03 -0.13665659194E+03  0.66099643215E+03  0.82635145259E+03  0.40000000000E+03 0. -1.
<mgrwt>
<rscale>  2 0.49592382E+03</rscale>
<asrwt>0</asrwt>
<pdfrwt beam="1">  1       21 0.18126384E+00 0.49592382E+03</pdfrwt>
<pdfrwt beam="2">  1       21 0.34487981E-01 0.49592382E+03</pdfrwt>
<totfact> 0.11937872E+03</totfact>
</mgrwt>
</event>
<event>
 4    1  0.4918322E-002  0.4561461E+03  0.7818608E-02  0.1025905E+00
         21   -1    0    0  503  502  0.00000000000E+00  0.00000000000E+00  0.82466961149E+03  0.82466961149E+03  0.00000000000E+00 0.  1.
         21   -1    0    0  501  503 -0.00000000000E+00 -0.00000000000E+00 -0.34205378069E+03  0.34205378069E+03  0.00000000000E+00 0.  1.
    9000007    1    1    2  501    0 -0.21918249660E+03 -0.53163859574E+01 -0.57506923962E+02  0.45975675860E+03  0.40000000000E+03 0.  1.
   -9000007    1    1    2    0  502  0.21918249660E+03  0.53163859574E+01  0.54012275476E+03  0.70696663358E+03  0.40000000000E+03 0.  1.
<mgrwt>
<rscale>  2 0.45614606E+03</rscale>
<asrwt>0</asrwt>
<pdfrwt beam="1">  1       21 0.12687225E+00 0.45614606E+03</pdfrwt>
<pdfrwt beam="2">  1       21 0.52623659E-01 0.45614606E+03</pdfrwt>
<totfact> 0.13387482E+03</totfact>
</mgrwt>
</event>
<event>
 4    1  0.4918322E-002  0.5448702E+03  0.7818608E-02  0.1002688E+00
         21   -1    0    0  501  502  0.00000000000E+00  0.00000000000E+00  0.22695061500E+03  0.22695061500E+03  0.00000000000E+00 0.  1.
         21   -1    0    0  502  503 -0.00000000000E+00 -0.00000000000E+00 -0.23920571441E+04  0.23920571441E+04  0.00000000000E+00 0.  1.
    9000007    1    1    2  501    0  0.36448390840E+03  0.63521613635E+02 -0.20106048520E+03  0.58078294878E+03  0.40000000000E+03 0.  1.
   -9000007    1    1    2    0  503 -0.36448390840E+03 -0.63521613635E+02 -0.19640460439E+04  0.20382248103E+04  0.40000000000E+03 0.  1.
<mgrwt>
<rscale>  2 0.54487018E+03</rscale>
<asrwt>0</asrwt>
<pdfrwt beam="1">  1       21 0.34915481E-01 0.54487018E+03</pdfrwt>
<pdfrwt beam="2">  1       21 0.36800877E+00 0.54487018E+03</pdfrwt>
<totfact> 0.76857732E+01</totfact>
</mgrwt>
</event>
<event>
 4    1  0.4918322E-002  0.4227983E+03  0.7818608E-02  0.1036159E+00
         21   -1    0    0  501  502  0.00000000000E+00  0.00000000000E+00  0.22322574333E+03  0.22322574333E+03  0.00000000000E+00 0.  1.
         21   -1    0    0  502  503 -0.00000000000E+00 -0.00000000000E+00 -0.80119279827E+03  0.80119279827E+03  0.00000000000E+00 0. -1.
    9000007    1    1    2  501    0  0.13671712473E+03 -0.81752591603E+01 -0.27759263168E+03  0.50578263733E+03  0.40000000000E+03 0.  1.
   -9000007    1    1    2    0  503 -0.13671712473E+03  0.81752591603E+01 -0.30037442325E+03  0.51863590427E+03  0.40000000000E+03 0.  1.
<mgrwt>
<rscale>  2 0.42279831E+03</rscale>
<asrwt>0</asrwt>
<pdfrwt beam="1">  1       21 0.34342423E-01 0.42279831E+03</pdfrwt>
<pdfrwt beam="2">  1       21 0.12326043E+00 0.42279831E+03</pdfrwt>
<totfact> 0.35456851E+03</totfact>
</mgrwt>
</event>
<event>
 4    1  0.4918322E-002  0.6416592E+03  0.7818608E-02  0.9822557E-01
         21   -1    0    0  503  502  0.00000000000E+00  0.00000000000E+00  0.28934195695E+03  0.28934195695E+03  0.00000000000E+00 0. -1.
         21   -1    0    0  501  503 -0.00000000000E+00 -0.00000000000E+00 -0.16711057853E+04  0.16711057853E+04  0.00000000000E+00 0. -1.
    9000007    1    1    2  501    0 -0.44140396589E+03 -0.23851423843E+03 -0.10685960422E+04  0.12464445453E+04  0.40000000000E+03 0. -1.
   -9000007    1    1    2    0  502  0.44140396589E+03  0.23851423843E+03 -0.31316778618E+03  0.71400319701E+03  0.40000000000E+03 0. -1.
<mgrwt>
<rscale>  2 0.64165918E+03</rscale>
<asrwt>0</asrwt>
<pdfrwt beam="1">  1       21 0.44514148E-01 0.64165918E+03</pdfrwt>
<pdfrwt beam="2">  1       21 0.25709319E+00 0.64165918E+03</pdfrwt>
<totfact> 0.21325749E+02</totfact>
</mgrwt>
</event>
<event>
 4    1  0.4918322E-002  0.5854781E+03  0.7818608E-02  0.9936001E-01
         21   -1    0    0  503  502  0.00000000000E+00  0.00000000000E+00  0.21985938916E+03  0.21985938916E+03  0.00000000000E+00 0.  1.
         21   -1    0    0  501  503 -0.00000000000E+00 -0.00000000000E+00 -0.18464070322E+04  0.18464070322E+04  0.00000000000E+00 0.  1.
    9000007    1    1    2  501    0  0.18150092223E+03  0.38709434914E+03 -0.12208036304E+04  0.13539372673E+04  0.40000000000E+03 0.  1.
   -9000007    1    1    2    0  502 -0.18150092223E+03 -0.38709434914E+03 -0.40574401272E+03  0.71232915409E+03  0.40000000000E+03 0.  1.
<mgrwt>
<rscale>  2 0.58547811E+03</rscale>
<asrwt>0</asrwt>
<pdfrwt beam="1">  1       21 0.33824521E-01 0.58547811E+03</pdfrwt>
<pdfrwt beam="2">  1       21 0.28406262E+00 0.58547811E+03</pdfrwt>
<totfact> 0.26280288E+02</totfact>
</mgrwt>
</event>
<event>
 4    1  0.4918322E-002  0.5045306E+03  0.7818608E-02  0.1012603E+00
         21   -1    0    0  503  502  0.00000000000E+00  0.00000000000E+00  0.13459725545E+04  0.13459725545E+04  0.00000000000E+00 0.  1.
         21   -1    0    0  501  503 -0.00000000000E+00 -0.00000000000E+00 -0.19392918146E+03  0.19392918146E+03  0.00000000000E+00 0. -1.
    9000007    1    1    2  501    0 -0.30350038511E+03  0.49383042847E+02  0.69726250498E+03  0.86065450067E+03  0.40000000000E+03 0.  1.
   -9000007    1    1    2    0  502  0.30350038511E+03 -0.49383042847E+02  0.45478086802E+03  0.67924723525E+03  0.40000000000E+03 0. -1.
<mgrwt>
<rscale>  2 0.50453064E+03</rscale>
<asrwt>0</asrwt>
<pdfrwt beam="1">  1       21 0.20707270E+00 0.50453064E+03</pdfrwt>
<pdfrwt beam="2">  1       21 0.29835259E-01 0.50453064E+03</pdfrwt>
<totfact> 0.10621220E+03</totfact>
</mgrwt>
</event>
<event>
 4    1  0.4918322E-002  0.4680995E+03  0.7818608E-02  0.1022458E+00
         21   -1    0    0  503  502  0.00000000000E+00  0.00000000000E+00  0.47284127240E+03  0.47284127240E+03  0.00000000000E+00 0. -1.
         21   -1    0    0  501  503 -0.00000000000E+00 -0.00000000000E+00 -0.96104066067E+03  0.96104066067E+03  0.00000000000E+00 0. -1.
    9000007    1    1    2  501    0 -0.22298766173E+03  0.96920790432E+02 -0.76000280380E+03  0.89259251548E+03  0.40000000000E+03 0. -1.
   -9000007    1    1    2    0  502  0.22298766173E+03 -0.96920790432E+02  0.27180341553E+03  0.54128941759E+03  0.40000000000E+03 0. -1.
<mgrwt>
<rscale>  2 0.46809949E+03</rscale>
<asrwt>0</asrwt>
<pdfrwt beam="1">  1       21 0.72744812E-01 0.46809949E+03</pdfrwt>
<pdfrwt beam="2">  1       21 0.14785241E+00 0.46809949E+03</pdfrwt>
<totfact> 0.43534078E+02</totfact>
</mgrwt>
</event>
<event>
 4    1  0.4918322E-002  0.4981516E+03  0.7818608E-02  0.1014263E+00
         21   -1    0    0  503  502  0.00000000000E+00  0.00000000000E+00  0.11850013311E+04  0.11850013311E+04  0.00000000000E+00 0. -1.
         21   -1    0    0  501  503 -0.00000000000E+00 -0.00000000000E+00 -0.28269263591E+03  0.28269263591E+03  0.00000000000E+00 0. -1.
    9000007    1    1    2  501    0  0.15607324487E+03  0.25257901408E+03  0.77526630759E+02  0.50414818714E+03  0.40000000000E+03 0. -1.
   -9000007    1    1    2    0  502 -0.15607324487E+03 -0.25257901408E+03  0.82478206447E+03  0.96354577992E+03  0.40000000000E+03 0. -1.
<mgrwt>
<rscale>  2 0.49815160E+03</rscale>
<asrwt>0</asrwt>
<pdfrwt beam="1">  1       21 0.18230789E+00 0.49815160E+03</pdfrwt>
<pdfrwt beam="2">  1       21 0.43491175E-01 0.49815160E+03</pdfrwt>
<totfact> 0.72797824E+02</totfact>
</mgrwt>
</event>
<event>
 4    1  0.4918322E-002  0.7622789E+03  0.7818608E-02  0.9616281E-01
         21   -1    0    0  503  502  0.00000000000E+00  0.00000000000E+00  0.92599290823E+03  0.92599290823E+03  0.00000000000E+00 0.  1.
         21   -1    0    0  501  503 -0.00000000000E+00 -0.00000000000E+00 -0.93492034844E+03  0.93492034844E+03  0.00000000000E+00 0. -1.
    9000007    1    1    2  501    0 -0.50891850396E+03  0.40258060968E+03 -0.53800563310E+03  0.93301621219E+03  0.40000000000E+03 0. -1.
   -9000007    1    1    2    0  502  0.50891850396E+03 -0.40258060968E+03  0.52907819289E+03  0.92789704448E+03  0.40000000000E+03 0.  1.
<mgrwt>
<rscale>  2 0.76227895E+03</rscale>
<asrwt>0</asrwt>
<pdfrwt beam="1">  1       21 0.14246045E+00 0.76227895E+03</pdfrwt>
<pdfrwt beam="2">  1       21 0.14383390E+00 0.76227895E+03</pdfrwt>
<totfact> 0.80084064E+01</totfact>
</mgrwt>
</event>
<event>
 4    1  0.4918322E-002  0.4219460E+03  0.7818608E-02  0.1036435E+00
         21   -1    0    0  503  502  0.00000000000E+00  0.00000000000E+00  0.36362250414E+03  0.36362250414E+03  0.00000000000E+00 0.  1.
         21   -1    0    0  501  503 -0.00000000000E+00 -0.00000000000E+00 -0.56020912113E+03  0.56020912113E+03  0.00000000000E+00 0.  1.
    9000007    1    1    2  501    0 -0.10442573218E+03 -0.84461205645E+02 -0.26225533459E+03  0.49680608825E+03  0.40000000000E+03 0.  1.
   -9000007    1    1    2    0  502  0.10442573218E+03  0.84461205645E+02  0.65668717599E+02  0.42702553702E+03  0.40000000000E+03 0.  1.
<mgrwt>
<rscale>  2 0.42194600E+03</rscale>
<asrwt>0</asrwt>
<pdfrwt beam="1">  1       21 0.55941924E-01 0.42194600E+03</pdfrwt>
<pdfrwt beam="2">  1       21 0.86186019E-01 0.42194600E+03</pdfrwt>
<totfact> 0.30725537E+03</totfact>
</mgrwt>
</event>
<event>
 4    1  0.4918322E-002  0.4633728E+03  0.7818608E-02  0.1023808E+00
         21   -1    0    0  503  502  0.00000000000E+00  0.00000000000E+00  0.59090211609E+03  0.59090211609E+03  0.00000000000E+00 0.  1.
         21   -1    0    0  501  503 -0.00000000000E+00 -0.00000000000E+00 -0.52891601677E+03  0.52891601677E+03  0.00000000000E+00 0.  1.
    9000007    1    1    2  501    0 -0.19748512922E+03 -0.12535554178E+03 -0.28225423333E+03  0.54256966405E+03  0.40000000000E+03 0.  1.
   -9000007    1    1    2    0  502  0.19748512922E+03  0.12535554178E+03  0.34424033265E+03  0.57724846881E+03  0.40000000000E+03 0.  1.
<mgrwt>
<rscale>  2 0.46337284E+03</rscale>
<asrwt>0</asrwt>
<pdfrwt beam="1">  1       21 0.90908017E-01 0.46337284E+03</pdfrwt>
<pdfrwt beam="2">  1       21 0.81371696E-01 0.46337284E+03</pdfrwt>
<totfact> 0.11528181E+03</totfact>
</mgrwt>
</event>
<event>
 4    1  0.4918322E-002  0.4523647E+03  0.7818608E-02  0.1027019E+00
         21   -1    0    0  501  502  0.00000000000E+00  0.00000000000E+00  0.95450091635E+03  0.95450091635E+03  0.00000000000E+00 0. -1.
         21   -1    0    0  502  503 -0.00000000000E+00 -0.00000000000E+00 -0.28136292701E+03  0.28136292701E+03  0.00000000000E+00 0. -1.
    9000007    1    1    2  501    0  0.20760205811E+03  0.39181477701E+02  0.63805172153E+03  0.78214052578E+03  0.40000000000E+03 0. -1.
   -9000007    1    1    2    0  503 -0.20760205811E+03 -0.39181477701E+02  0.35086267814E+02  0.45372331758E+03  0.40000000000E+03 0. -1.
<mgrwt>
<rscale>  2 0.45236468E+03</rscale>
<asrwt>0</asrwt>
<pdfrwt beam="1">  1       21 0.14684629E+00 0.45236468E+03</pdfrwt>
<pdfrwt beam="2">  1       21 0.43286605E-01 0.45236468E+03</pdfrwt>
<totfact> 0.13778570E+03</totfact>
</mgrwt>
</event>
<event>
 4    1  0.4918322E-002  0.4024565E+03  0.7818608E-02  0.1042932E+00
         21   -1    0    0  503  502  0.00000000000E+00  0.00000000000E+00  0.18610884129E+03  0.18610884129E+03  0.00000000000E+00 0. -1.
         21   -1    0    0  501  503 -0.00000000000E+00 -0.00000000000E+00 -0.12282774476E+04  0.12282774476E+04  0.00000000000E+00 0. -1.
    9000007    1    1    2  501    0 -0.19385253213E+02 -0.39943025850E+02 -0.90286619568E+03  0.98850321226E+03  0.40000000000E+03 0. -1.
   -9000007    1    1    2    0  502  0.19385253213E+02  0.39943025850E+02 -0.13930241065E+03  0.42588307664E+03  0.40000000000E+03 0. -1.
<mgrwt>
<rscale>  2 0.40245650E+03</rscale>
<asrwt>0</asrwt>
<pdfrwt beam="1">  1       21 0.28632131E-01 0.40245650E+03</pdfrwt>
<pdfrwt beam="2">  1       21 0.18896575E+00 0.40245650E+03</pdfrwt>
<totfact> 0.15948259E+03</totfact>
</mgrwt>
</event>
<event>
 4    1  0.4918322E-002  0.5885709E+03  0.7818608E-02  0.9929406E-01
         21   -1    0    0  503  502  0.00000000000E+00  0.00000000000E+00  0.11703927968E+04  0.11703927968E+04  0.00000000000E+00 0. -1.
         21   -1    0    0  501  503 -0.00000000000E+00 -0.00000000000E+00 -0.33550424835E+03  0.33550424835E+03  0.00000000000E+00 0. -1.
    9000007    1    1    2  501    0  0.38618271539E+03  0.19307664978E+03  0.15901909016E+03  0.60967430107E+03  0.40000000000E+03 0. -1.
   -9000007    1    1    2    0  502 -0.38618271539E+03 -0.19307664978E+03  0.67586945832E+03  0.89622274410E+03  0.40000000000E+03 0. -1.
<mgrwt>
<rscale>  2 0.58857088E+03</rscale>
<asrwt>0</asrwt>
<pdfrwt beam="1">  1       21 0.18006043E+00 0.58857088E+03</pdfrwt>
<pdfrwt beam="2">  1       21 0.51616039E-01 0.58857088E+03</pdfrwt>
<totfact> 0.50736946E+02</totfact>
</mgrwt>
</event>
<event>
 4    1  0.4918322E-002  0.6245453E+03  0.7818608E-02  0.9855752E-01
         21   -1    0    0  503  502  0.00000000000E+00  0.00000000000E+00  0.55507155872E+03  0.55507155872E+03  0.00000000000E+00 0. -1.
         21   -1    0    0  501  503 -0.00000000000E+00 -0.00000000000E+00 -0.13956781497E+04  0.13956781497E+04  0.00000000000E+00 0.  1.
    9000007    1    1    2  501    0 -0.42465162114E+03  0.22299726007E+03 -0.11075840353E+04  0.12715341807E+04  0.40000000000E+03 0.  1.
   -9000007    1    1    2    0  502  0.42465162114E+03 -0.22299726007E+03  0.26697744434E+03  0.67921552774E+03  0.40000000000E+03 0. -1.
<mgrwt>
<rscale>  2 0.62454526E+03</rscale>
<asrwt>0</asrwt>
<pdfrwt beam="1">  1       21 0.85395625E-01 0.62454526E+03</pdfrwt>
<pdfrwt beam="2">  1       21 0.21471971E+00 0.62454526E+03</pdfrwt>
<totfact> 0.93726491E+01</totfact>
</mgrwt>
</event>
<event>
 4    1  0.4918322E-002  0.5104660E+03  0.7818608E-02  0.1011083E+00
         21   -1    0    0  501  502  0.00000000000E+00  0.00000000000E+00  0.80866248216E+03  0.80866248216E+03  0.00000000000E+00 0. -1.
         21   -1    0    0  502  503 -0.00000000000E+00 -0.00000000000E+00 -0.42547763640E+03  0.42547763640E+03  0.00000000000E+00 0. -1.
    9000007    1    1    2  501    0 -0.16734183180E+03  0.26939237447E+03  0.49556581547E+03  0.71144994031E+03  0.40000000000E+03 0. -1.
   -9000007    1    1    2    0  503  0.16734183180E+03 -0.26939237447E+03 -0.11238096971E+03  0.52269017826E+03  0.40000000000E+03 0. -1.
<mgrwt>
<rscale>  2 0.51046600E+03</rscale>
<asrwt>0</asrwt>
<pdfrwt beam="1">  1       21 0.12440961E+00 0.51046600E+03</pdfrwt>
<pdfrwt beam="2">  1       21 0.65458098E-01 0.51046600E+03</pdfrwt>
<totfact> 0.85558266E+02</totfact>
</mgrwt>
</event>
<event>
 4    1  0.4918322E-002  0.7163277E+03  0.7818608E-02  0.9689710E-01
         21   -1    0    0  503  502  0.00000000000E+00  0.00000000000E+00  0.86058459694E+03  0.86058459694E+03  0.00000000000E+00 0. -1.
         21   -1    0    0  501  503 -0.00000000000E+00 -0.00000000000E+00 -0.18776651264E+04  0.18776651264E+04  0.00000000000E+00 0.  1.
    9000007    1    1    2  501    0  0.32213809809E+03 -0.49935206235E+03 -0.16395817679E+04  0.17892327434E+04  0.40000000000E+03 0.  1.
   -9000007    1    1    2    0  502 -0.32213809809E+03  0.49935206235E+03  0.62250123842E+03  0.94901697996E+03  0.40000000000E+03 0. -1.
<mgrwt>
<rscale>  2 0.71632774E+03</rscale>
<asrwt>0</asrwt>
<pdfrwt beam="1">  1       21 0.13239763E+00 0.71632774E+03</pdfrwt>
<pdfrwt beam="2">  1       21 0.28887156E+00 0.71632774E+03</pdfrwt>
<totfact> 0.10335119E+01</totfact>
</mgrwt>
</event>
<event>
 4    1  0.4918322E-002  0.5316534E+03  0.7818608E-02  0.1005832E+00
         21   -1    0    0  503  502  0.00000000000E+00  0.00000000000E+00  0.89234519961E+03  0.89234519961E+03  0.00000000000E+00 0. -1.
         21   -1    0    0  501  503 -0.00000000000E+00 -0.00000000000E+00 -0.11295770950E+04  0.11295770950E+04  0.00000000000E+00 0. -1.
    9000007    1    1    2  501    0  0.45839745859E+01 -0.35019183286E+03 -0.97619490998E+03  0.11115807820E+04  0.40000000000E+03 0. -1.
   -9000007    1    1    2    0  502 -0.45839745859E+01  0.35019183286E+03  0.73896301459E+03  0.91034151260E+03  0.40000000000E+03 0. -1.
<mgrwt>
<rscale>  2 0.53165340E+03</rscale>
<asrwt>0</asrwt>
<pdfrwt beam="1">  1       21 0.13728388E+00 0.53165340E+03</pdfrwt>
<pdfrwt beam="2">  1       21 0.17378109E+00 0.53165340E+03</pdfrwt>
<totfact> 0.57027871E+01</totfact>
</mgrwt>
</event>
<event>
 4    1  0.4918322E-002  0.4450971E+03  0.7818608E-02  0.1029194E+00
         21   -1    0    0  501  502  0.00000000000E+00  0.00000000000E+00  0.15215292474E+04  0.15215292474E+04  0.00000000000E+00 0.  1.
         21   -1    0    0  502  503 -0.00000000000E+00 -0.00000000000E+00 -0.35700818389E+03  0.35700818389E+03  0.00000000000E+00 0.  1.
    9000007    1    1    2  501    0 -0.11160570950E+03 -0.16017364049E+03  0.13309037518E+04  0.14033589085E+04  0.40000000000E+03 0.  1.
   -9000007    1    1    2    0  503  0.11160570950E+03  0.16017364049E+03 -0.16638268834E+03  0.47517852275E+03  0.40000000000E+03 0.  1.
<mgrwt>
<rscale>  2 0.44509710E+03</rscale>
<asrwt>0</asrwt>
<pdfrwt beam="1">  1       21 0.23408142E+00 0.44509710E+03</pdfrwt>
<pdfrwt beam="2">  1       21 0.54924337E-01 0.44509710E+03</pdfrwt>
<totfact> 0.20764789E+02</totfact>
</mgrwt>
</event>
<event>
 4    1  0.4918322E-002  0.5278187E+03  0.7818608E-02  0.1006763E+00
         21   -1    0    0  503  502  0.00000000000E+00  0.00000000000E+00  0.20367946413E+03  0.20367946413E+03  0.00000000000E+00 0.  1.
         21   -1    0    0  501  503 -0.00000000000E+00 -0.00000000000E+00 -0.30213063307E+04  0.30213063307E+04  0.00000000000E+00 0. -1.
    9000007    1    1    2  501    0  0.19069971824E+03  0.28675101943E+03 -0.26017119996E+04  0.26547123872E+04  0.40000000000E+03 0. -1.
   -9000007    1    1    2    0  502 -0.19069971824E+03 -0.28675101943E+03 -0.21591486692E+03  0.57027340762E+03  0.40000000000E+03 0.  1.
<mgrwt>
<rscale>  2 0.52781865E+03</rscale>
<asrwt>0</asrwt>
<pdfrwt beam="1">  1       21 0.31335306E-01 0.52781865E+03</pdfrwt>
<pdfrwt beam="2">  1       21 0.46481630E+00 0.52781865E+03</pdfrwt>
<totfact> 0.22352285E+01</totfact>
</mgrwt>
</event>
<event>
 4    1  0.4918322E-002  0.4797580E+03  0.7818608E-02  0.1019202E+00
         21   -1    0    0  503  502  0.00000000000E+00  0.00000000000E+00  0.81787851991E+03  0.81787851991E+03  0.00000000000E+00 0. -1.
         21   -1    0    0  501  503 -0.00000000000E+00 -0.00000000000E+00 -0.32641589433E+03  0.32641589433E+03  0.00000000000E+00 0. -1.
    9000007    1    1    2  501    0  0.11139473971E+03  0.24033093409E+03  0.33305945687E+02  0.48091270719E+03  0.40000000000E+03 0. -1.
   -9000007    1    1    2    0  502 -0.11139473971E+03 -0.24033093409E+03  0.45815667990E+03  0.66338170705E+03  0.40000000000E+03 0. -1.
<mgrwt>
<rscale>  2 0.47975801E+03</rscale>
<asrwt>0</asrwt>
<pdfrwt beam="1">  1       21 0.12582746E+00 0.47975801E+03</pdfrwt>
<pdfrwt beam="2">  1       21 0.50217830E-01 0.47975801E+03</pdfrwt>
<totfact> 0.14977370E+03</totfact>
</mgrwt>
</event>
<event>
 4    1  0.4918322E-002  0.4743399E+03  0.7818608E-02  0.1020702E+00
         21   -1    0    0  501  502  0.00000000000E+00  0.00000000000E+00  0.51236774618E+03  0.51236774618E+03  0.00000000000E+00 0.  1.
         21   -1    0    0  502  503 -0.00000000000E+00 -0.00000000000E+00 -0.44192977228E+03  0.44192977228E+03  0.00000000000E+00 0.  1.
    9000007    1    1    2  501    0  0.76939674114E+02 -0.24306104081E+03  0.73166632385E+02  0.47994972560E+03  0.40000000000E+03 0.  1.
   -9000007    1    1    2    0  503 -0.76939674114E+02  0.24306104081E+03 -0.27286584884E+01  0.47434779286E+03  0.40000000000E+03 0.  1.
<mgrwt>
<rscale>  2 0.47433994E+03</rscale>
<asrwt>0</asrwt>
<pdfrwt beam="1">  1       21 0.78825808E-01 0.47433994E+03</pdfrwt>
<pdfrwt beam="2">  1       21 0.67989195E-01 0.47433994E+03</pdfrwt>
<totfact> 0.24147918E+03</totfact>
</mgrwt>
</event>
<event>
 4    1  0.4918322E-002  0.4727287E+03  0.7818608E-02  0.1021153E+00
         21   -1    0    0  503  502  0.00000000000E+00  0.00000000000E+00  0.54800143581E+03  0.54800143581E+03  0.00000000000E+00 0.  1.
         21   -1    0    0  501  503 -0.00000000000E+00 -0.00000000000E+00 -0.10452953921E+04  0.10452953921E+04  0.00000000000E+00 0.  1.
    9000007    1    1    2  501    0 -0.19455690438E+03 -0.16006258247E+03 -0.87078579360E+03  0.99082809694E+03  0.40000000000E+03 0.  1.
   -9000007    1    1    2    0  502  0.19455690438E+03  0.16006258247E+03  0.37349183727E+03  0.60246873102E+03  0.40000000000E+03 0.  1.
<mgrwt>
<rscale>  2 0.47272870E+03</rscale>
<asrwt>0</asrwt>
<pdfrwt beam="1">  1       21 0.84307913E-01 0.47272870E+03</pdfrwt>
<pdfrwt beam="2">  1       21 0.16081468E+00 0.47272870E+03</pdfrwt>
<totfact> 0.24545987E+02</totfact>
</mgrwt>
</event>
<event>
 4    1  0.4918322E-002  0.5197372E+03  0.7818608E-02  0.1008752E+00
         21   -1    0    0  501  502  0.00000000000E+00  0.00000000000E+00  0.42636473624E+03  0.42636473624E+03  0.00000000000E+00 0.  1.
         21   -1    0    0  502  503 -0.00000000000E+00 -0.00000000000E+00 -0.73773678498E+03  0.73773678498E+03  0.00000000000E+00 0. -1.
    9000007    1    1    2  501    0 -0.38689300197E+02  0.32959045199E+03  0.63039812445E+02  0.52354631690E+03  0.40000000000E+03 0. -1.
   -9000007    1    1    2    0  503  0.38689300197E+02 -0.32959045199E+03 -0.37441186118E+03  0.64055520432E+03  0.40000000000E+03 0.  1.
<mgrwt>
<rscale>  2 0.51973717E+03</rscale>
<asrwt>0</asrwt>
<pdfrwt beam="1">  1       21 0.65594576E-01 0.51973717E+03</pdfrwt>
<pdfrwt beam="2">  1       21 0.11349797E+00 0.51973717E+03</pdfrwt>
<totfact> 0.10717948E+03</totfact>
</mgrwt>
</event>
<event>
 4    1  0.4918322E-002  0.4405606E+03  0.7818608E-02  0.1030575E+00
         21   -1    0    0  503  502  0.00000000000E+00  0.00000000000E+00  0.63852048486E+02  0.63852048486E+02  0.00000000000E+00 0. -1.
         21   -1    0    0  501  503 -0.00000000000E+00 -0.00000000000E+00 -0.35948412617E+04  0.35948412617E+04  0.00000000000E+00 0.  1.
    9000007    1    1    2  501    0  0.35687960427E+02  0.18116293486E+03 -0.24843510593E+04  0.25231119327E+04  0.40000000000E+03 0.  1.
   -9000007    1    1    2    0  502 -0.35687960427E+02 -0.18116293486E+03 -0.10466381539E+04  0.11355813774E+04  0.40000000000E+03 0. -1.
<mgrwt>
<rscale>  2 0.44056060E+03</rscale>
<asrwt>0</asrwt>
<pdfrwt beam="1">  1       21 0.98233897E-02 0.44056060E+03</pdfrwt>
<pdfrwt beam="2">  1       21 0.55305264E+00 0.44056060E+03</pdfrwt>
<totfact> 0.49091091E+01</totfact>
</mgrwt>
</event>
<event>
 4    1  0.4918322E-002  0.6816898E+03  0.7818608E-02  0.9749068E-01
         21   -1    0    0  501  502  0.00000000000E+00  0.00000000000E+00  0.61090819872E+03  0.61090819872E+03  0.00000000000E+00 0. -1.
         21   -1    0    0  502  503 -0.00000000000E+00 -0.00000000000E+00 -0.76067774025E+03  0.76067774025E+03  0.00000000000E+00 0.  1.
    9000007    1    1    2  501    0 -0.52864607439E+03 -0.15885299712E+03 -0.73051326672E+02  0.68559276761E+03  0.40000000000E+03 0.  1.
   -9000007    1    1    2    0  503  0.52864607439E+03  0.15885299712E+03 -0.76718214863E+02  0.68599317136E+03  0.40000000000E+03 0. -1.
<mgrwt>
<rscale>  2 0.68168977E+03</rscale>
<asrwt>0</asrwt>
<pdfrwt beam="1">  1       21 0.93985877E-01 0.68168977E+03</pdfrwt>
<pdfrwt beam="2">  1       21 0.11702734E+00 0.68168977E+03</pdfrwt>
<totfact> 0.40896554E+02</totfact>
</mgrwt>
</event>
<event>
 4    1  0.4918322E-002  0.5990429E+03  0.7818608E-02  0.9907394E-01
         21   -1    0    0  503  502  0.00000000000E+00  0.00000000000E+00  0.10073458675E+04  0.10073458675E+04  0.00000000000E+00 0.  1.
         21   -1    0    0  501  503 -0.00000000000E+00 -0.00000000000E+00 -0.46412887037E+03  0.46412887037E+03  0.00000000000E+00 0.  1.
    9000007    1    1    2  501    0 -0.38899737349E+03 -0.21802177379E+03 -0.83123789182E+02  0.60478261777E+03  0.40000000000E+03 0.  1.
   -9000007    1    1    2    0  502  0.38899737349E+03  0.21802177379E+03  0.62634078628E+03  0.86669212007E+03  0.40000000000E+03 0.  1.
<mgrwt>
<rscale>  2 0.59904295E+03</rscale>
<asrwt>0</asrwt>
<pdfrwt beam="1">  1       21 0.15497629E+00 0.59904295E+03</pdfrwt>
<pdfrwt beam="2">  1       21 0.71404442E-01 0.59904295E+03</pdfrwt>
<totfact> 0.37899401E+02</totfact>
</mgrwt>
</event>
<event>
 4    1  0.4918322E-002  0.4214704E+03  0.7818608E-02  0.1036589E+00
         21   -1    0    0  501  502  0.00000000000E+00  0.00000000000E+00  0.14543678971E+04  0.14543678971E+04  0.00000000000E+00 0.  1.
         21   -1    0    0  502  503 -0.00000000000E+00 -0.00000000000E+00 -0.13645392362E+03  0.13645392362E+03  0.00000000000E+00 0.  1.
    9000007    1    1    2  501    0 -0.59899470546E+02  0.11852996608E+03  0.91657100145E+03  0.10088308580E+04  0.40000000000E+03 0.  1.
   -9000007    1    1    2    0  503  0.59899470546E+02 -0.11852996608E+03  0.40134297201E+03  0.58199096265E+03  0.40000000000E+03 0.  1.
<mgrwt>
<rscale>  2 0.42147040E+03</rscale>
<asrwt>0</asrwt>
<pdfrwt beam="1">  1       21 0.22374890E+00 0.42147040E+03</pdfrwt>
<pdfrwt beam="2">  1       21 0.20992912E-01 0.42147040E+03</pdfrwt>
<totfact> 0.17057022E+03</totfact>
</mgrwt>
</event>
<event>
 4    1  0.4918322E-002  0.5200021E+03  0.7818608E-02  0.1008686E+00
         21   -1    0    0  501  502  0.00000000000E+00  0.00000000000E+00  0.23420368482E+03  0.23420368482E+03  0.00000000000E+00 0.  1.
         21   -1    0    0  502  503 -0.00000000000E+00 -0.00000000000E+00 -0.11583145582E+04  0.11583145582E+04  0.00000000000E+00 0.  1.
    9000007    1    1    2  501    0 -0.33117378109E+03 -0.26947343919E+02 -0.42241571736E+03  0.66995318560E+03  0.40000000000E+03 0.  1.
   -9000007    1    1    2    0  503  0.33117378109E+03  0.26947343919E+02 -0.50169515603E+03  0.72256505742E+03  0.40000000000E+03 0.  1.
<mgrwt>
<rscale>  2 0.52000215E+03</rscale>
<asrwt>0</asrwt>
<pdfrwt beam="1">  1       21 0.36031336E-01 0.52000215E+03</pdfrwt>
<pdfrwt beam="2">  1       21 0.17820224E+00 0.52000215E+03</pdfrwt>
<totfact> 0.11377741E+03</totfact>
</mgrwt>
</event>
<event>
 4    1  0.4918322E-002  0.4683719E+03  0.7818608E-02  0.1022381E+00
         21   -1    0    0  501  502  0.00000000000E+00  0.00000000000E+00  0.26141345635E+03  0.26141345635E+03  0.00000000000E+00 0.  1.
         21   -1    0    0  502  503 -0.00000000000E+00 -0.00000000000E+00 -0.13080785039E+04  0.13080785039E+04  0.00000000000E+00 0. -1.
    9000007    1    1    2  501    0  0.21016856487E+03 -0.12329401257E+03 -0.53489407932E+02  0.47141632975E+03  0.40000000000E+03 0.  1.
   -9000007    1    1    2    0  503 -0.21016856487E+03  0.12329401257E+03 -0.99317563964E+03  0.10980756305E+04  0.40000000000E+03 0. -1.
<mgrwt>
<rscale>  2 0.46837190E+03</rscale>
<asrwt>0</asrwt>
<pdfrwt beam="1">  1       21 0.40217456E-01 0.46837190E+03</pdfrwt>
<pdfrwt beam="2">  1       21 0.20124284E+00 0.46837190E+03</pdfrwt>
<totfact> 0.64415856E+02</totfact>
</mgrwt>
</event>
<event>
 4    1  0.4918322E-002  0.4151835E+03  0.7818608E-02  0.1038645E+00
         21   -1    0    0  501  502  0.00000000000E+00  0.00000000000E+00  0.16773188314E+04  0.16773188314E+04  0.00000000000E+00 0. -1.
         21   -1    0    0  502  503 -0.00000000000E+00 -0.00000000000E+00 -0.11768296404E+03  0.11768296404E+03  0.00000000000E+00 0. -1.
    9000007    1    1    2  501    0  0.47235952339E+01  0.11115301755E+03  0.10993147936E+04  0.11751043873E+04  0.40000000000E+03 0. -1.
   -9000007    1    1    2    0  503 -0.47235952339E+01 -0.11115301755E+03  0.46032107377E+03  0.61989740814E+03  0.40000000000E+03 0. -1.
<mgrwt>
<rscale>  2 0.41518346E+03</rscale>
<asrwt>0</asrwt>
<pdfrwt beam="1">  1       21 0.25804903E+00 0.41518346E+03</pdfrwt>
<pdfrwt beam="2">  1       21 0.18105073E-01 0.41518346E+03</pdfrwt>
<totfact> 0.13893960E+03</totfact>
</mgrwt>
</event>
<event>
 4    1  0.4918322E-002  0.5065656E+03  0.7818608E-02  0.1012079E+00
         21   -1    0    0  503  502  0.00000000000E+00  0.00000000000E+00  0.90710121809E+03  0.90710121809E+03  0.00000000000E+00 0. -1.
         21   -1    0    0  501  503 -0.00000000000E+00 -0.00000000000E+00 -0.49603704029E+03  0.49603704029E+03  0.00000000000E+00 0. -1.
    9000007    1    1    2  501    0 -0.62322546550E+02  0.30450711153E+03 -0.25435836897E+03  0.56683936053E+03  0.40000000000E+03 0. -1.
   -9000007    1    1    2    0  502  0.62322546550E+02 -0.30450711153E+03  0.66542254678E+03  0.83629889785E+03  0.40000000000E+03 0. -1.
<mgrwt>
<rscale>  2 0.50656557E+03</rscale>
<asrwt>0</asrwt>
<pdfrwt beam="1">  1       21 0.13955403E+00 0.50656557E+03</pdfrwt>
<pdfrwt beam="2">  1       21 0.76313391E-01 0.50656557E+03</pdfrwt>
<totfact> 0.44834135E+02</totfact>
</mgrwt>
</event>
<event>
 4    1  0.4918322E-002  0.4301259E+03  0.7818608E-02  0.1033820E+00
         21   -1    0    0  503  502  0.00000000000E+00  0.00000000000E+00  0.21454336028E+03  0.21454336028E+03  0.00000000000E+00 0. -1.
         21   -1    0    0  501  503 -0.00000000000E+00 -0.00000000000E+00 -0.10867334378E+04  0.10867334378E+04  0.00000000000E+00 0. -1.
    9000007    1    1    2  501    0 -0.12237755921E+03 -0.10015981699E+03 -0.73175196468E+03  0.84880456747E+03  0.40000000000E+03 0. -1.
   -9000007    1    1    2    0  502  0.12237755921E+03  0.10015981699E+03 -0.14043811284E+03  0.45247223061E+03  0.40000000000E+03 0. -1.
<mgrwt>
<rscale>  2 0.43012586E+03</rscale>
<asrwt>0</asrwt>
<pdfrwt beam="1">  1       21 0.33006672E-01 0.43012586E+03</pdfrwt>
<pdfrwt beam="2">  1       21 0.16718976E+00 0.43012586E+03</pdfrwt>
<totfact> 0.16920409E+03</totfact>
</mgrwt>
</event>
<event>
 4    1  0.4918322E-002  0.4907755E+03  0.7818608E-02  0.1016215E+00
         21   -1    0    0  501  502  0.00000000000E+00  0.00000000000E+00  0.17575153478E+03  0.17575153478E+03  0.00000000000E+00 0. -1.
         21   -1    0    0  502  503 -0.00000000000E+00 -0.00000000000E+00 -0.13936961007E+04  0.13936961007E+04  0.00000000000E+00 0.  1.
    9000007    1    1    2  501    0  0.19441692998E+02 -0.28369461300E+03 -0.50764983623E+03  0.70609416447E+03  0.40000000000E+03 0. -1.
   -9000007    1    1    2    0  503 -0.19441692998E+02  0.28369461300E+03 -0.71029472972E+03  0.86335347103E+03  0.40000000000E+03 0. -1.
<mgrwt>
<rscale>  2 0.49077552E+03</rscale>
<asrwt>0</asrwt>
<pdfrwt beam="1">  1       21 0.27038697E-01 0.49077552E+03</pdfrwt>
<pdfrwt beam="2">  1       21 0.21441479E+00 0.49077552E+03</pdfrwt>
<totfact> 0.11619691E+03</totfact>
</mgrwt>
</event>
<event>
 4    1  0.4918322E-002  0.5819340E+03  0.7818608E-02  0.9943613E-01
         21   -1    0    0  503  502  0.00000000000E+00  0.00000000000E+00  0.71317386063E+03  0.71317386063E+03  0.00000000000E+00 0.  1.
         21   -1    0    0  501  503 -0.00000000000E+00 -0.00000000000E+00 -0.11422108549E+04  0.11422108549E+04  0.00000000000E+00 0. -1.
    9000007    1    1    2  501    0  0.35691561372E+03 -0.22640328924E+03 -0.92362710027E+03  0.10916658028E+04  0.40000000000E+03 0. -1.
   -9000007    1    1    2    0  502 -0.35691561372E+03  0.22640328924E+03  0.49459010600E+03  0.76371891272E+03  0.40000000000E+03 0.  1.
<mgrwt>
<rscale>  2 0.58193402E+03</rscale>
<asrwt>0</asrwt>
<pdfrwt beam="1">  1       21 0.10971906E+00 0.58193402E+03</pdfrwt>
<pdfrwt beam="2">  1       21 0.17572475E+00 0.58193402E+03</pdfrwt>
<totfact> 0.95959782E+01</totfact>
</mgrwt>
</event>
<event>
 4    1  0.4918322E-002  0.5647998E+03  0.7818608E-02  0.9981252E-01
         21   -1    0    0  503  502  0.00000000000E+00  0.00000000000E+00  0.16495325804E+04  0.16495325804E+04  0.00000000000E+00 0. -1.
         21   -1    0    0  501  503 -0.00000000000E+00 -0.00000000000E+00 -0.22541693514E+03  0.22541693514E+03  0.00000000000E+00 0. -1.
    9000007    1    1    2  501    0 -0.21645733583E+03 -0.33488067320E+03  0.35867818498E+03  0.66906567981E+03  0.40000000000E+03 0. -1.
   -9000007    1    1    2    0  502  0.21645733583E+03  0.33488067320E+03  0.10654374602E+04  0.12058838357E+04  0.40000000000E+03 0. -1.
<mgrwt>
<rscale>  2 0.56479983E+03</rscale>
<asrwt>0</asrwt>
<pdfrwt beam="1">  1       21 0.25377424E+00 0.56479983E+03</pdfrwt>
<pdfrwt beam="2">  1       21 0.34679530E-01 0.56479983E+03</pdfrwt>
<totfact> 0.38654522E+02</totfact>
</mgrwt>
</event>
<event>
 4    1  0.4918322E-002  0.5011195E+03  0.7818608E-02  0.1013487E+00
         21   -1    0    0  503  502  0.00000000000E+00  0.00000000000E+00  0.86661486121E+03  0.86661486121E+03  0.00000000000E+00 0.  1.
         21   -1    0    0  501  503 -0.00000000000E+00 -0.00000000000E+00 -0.29331704640E+03  0.29331704640E+03  0.00000000000E+00 0. -1.
    9000007    1    1    2  501    0  0.29583556187E+03  0.60017243114E+02  0.22288970712E+03  0.54845288829E+03  0.40000000000E+03 0. -1.
   -9000007    1    1    2    0  502 -0.29583556187E+03 -0.60017243114E+02  0.35040810769E+03  0.61147901932E+03  0.40000000000E+03 0. -1.
<mgrwt>
<rscale>  2 0.50111950E+03</rscale>
<asrwt>0</asrwt>
<pdfrwt beam="1">  1       21 0.13332536E+00 0.50111950E+03</pdfrwt>
<pdfrwt beam="2">  1       21 0.45125700E-01 0.50111950E+03</pdfrwt>
<totfact> 0.16030836E+03</totfact>
</mgrwt>
</event>
<event>
 4    1  0.4918322E-002  0.4317181E+03  0.7818608E-02  0.1033319E+00
         21   -1    0    0  503  502  0.00000000000E+00  0.00000000000E+00  0.38153810176E+03  0.38153810176E+03  0.00000000000E+00 0. -1.
         21   -1    0    0  501  503 -0.00000000000E+00 -0.00000000000E+00 -0.89888276962E+03  0.89888276962E+03  0.00000000000E+00 0. -1.
    9000007    1    1    2  501    0  0.33936969971E+02  0.15883564049E+03 -0.69125290175E+03  0.81499144339E+03  0.40000000000E+03 0. -1.
   -9000007    1    1    2    0  502 -0.33936969971E+02 -0.15883564049E+03  0.17390823390E+03  0.46542942799E+03  0.40000000000E+03 0. -1.
<mgrwt>
<rscale>  2 0.43171805E+03</rscale>
<asrwt>0</asrwt>
<pdfrwt beam="1">  1       21 0.58698171E-01 0.43171805E+03</pdfrwt>
<pdfrwt beam="2">  1       21 0.13828965E+00 0.43171805E+03</pdfrwt>
<totfact> 0.85316924E+02</totfact>
</mgrwt>
</event>
<event>
 4    1  0.4918322E-002  0.4196979E+03  0.7818608E-02  0.1037165E+00
         21   -1    0    0  501  502  0.00000000000E+00  0.00000000000E+00  0.35781544818E+03  0.35781544818E+03  0.00000000000E+00 0.  1.
         21   -1    0    0  502  503 -0.00000000000E+00 -0.00000000000E+00 -0.11145927763E+04  0.11145927763E+04  0.00000000000E+00 0.  1.
    9000007    1    1    2  501    0 -0.30119435006E+02 -0.12344688217E+03  0.17171379239E+03  0.45346658045E+03  0.40000000000E+03 0.  1.
   -9000007    1    1    2    0  503  0.30119435006E+02  0.12344688217E+03 -0.92849112047E+03  0.10189416440E+04  0.40000000000E+03 0.  1.
<mgrwt>
<rscale>  2 0.41969788E+03</rscale>
<asrwt>0</asrwt>
<pdfrwt beam="1">  1       21 0.55048531E-01 0.41969788E+03</pdfrwt>
<pdfrwt beam="2">  1       21 0.17147581E+00 0.41969788E+03</pdfrwt>
<totfact> 0.54676469E+02</totfact>
</mgrwt>
</event>
<event>
 4    1  0.4918322E-002  0.4129177E+03  0.7818608E-02  0.1039396E+00
         21   -1    0    0  503  502  0.00000000000E+00  0.00000000000E+00  0.10692848631E+03  0.10692848631E+03  0.00000000000E+00 0.  1.
         21   -1    0    0  501  503 -0.00000000000E+00 -0.00000000000E+00 -0.15946914070E+04  0.15946914070E+04  0.00000000000E+00 0.  1.
    9000007    1    1    2  501    0  0.10094689629E+03  0.17628077424E+02 -0.75235493914E+03  0.85821849167E+03  0.40000000000E+03 0.  1.
   -9000007    1    1    2    0  502 -0.10094689629E+03 -0.17628077424E+02 -0.73540798159E+03  0.84340140169E+03  0.40000000000E+03 0.  1.
<mgrwt>
<rscale>  2 0.41291770E+03</rscale>
<asrwt>0</asrwt>
<pdfrwt beam="1">  1       21 0.16450536E-01 0.41291770E+03</pdfrwt>
<pdfrwt beam="2">  1       21 0.24533715E+00 0.41291770E+03</pdfrwt>
<totfact> 0.19906622E+03</totfact>
</mgrwt>
</event>
<event>
 4    1  0.4918322E-002  0.4469014E+03  0.7818608E-02  0.1028650E+00
         21   -1    0    0  501  502  0.00000000000E+00  0.00000000000E+00  0.13046098649E+04  0.13046098649E+04  0.00000000000E+00 0. -1.
         21   -1    0    0  502  503 -0.00000000000E+00 -0.00000000000E+00 -0.16426632320E+03  0.16426632320E+03  0.00000000000E+00 0. -1.
    9000007    1    1    2  501    0  0.19922196683E+03 -0.56064171725E+01  0.76175553445E+03  0.88317173769E+03  0.40000000000E+03 0. -1.
   -9000007    1    1    2    0  503 -0.19922196683E+03  0.56064171725E+01  0.37858800721E+03  0.58570445037E+03  0.40000000000E+03 0. -1.
<mgrwt>
<rscale>  2 0.44690136E+03</rscale>
<asrwt>0</asrwt>
<pdfrwt beam="1">  1       21 0.20070920E+00 0.44690136E+03</pdfrwt>
<pdfrwt beam="2">  1       21 0.25271743E-01 0.44690136E+03</pdfrwt>
<totfact> 0.16630088E+03</totfact>
</mgrwt>
</event>
<event>
 4    1  0.4918322E-002  0.4143052E+03  0.7818608E-02  0.1038936E+00
         21   -1    0    0  501  502  0.00000000000E+00  0.00000000000E+00  0.19534008585E+03  0.19534008585E+03  0.00000000000E+00 0.  1.
         21   -1    0    0  502  503 -0.00000000000E+00 -0.00000000000E+00 -0.89350886816E+03  0.89350886816E+03  0.00000000000E+00 0.  1.
    9000007    1    1    2  501    0 -0.26375033976E+02 -0.10465723012E+03 -0.27903725209E+03  0.49951032651E+03  0.40000000000E+03 0.  1.
   -9000007    1    1    2    0  503  0.26375033976E+02  0.10465723012E+03 -0.41913153023E+03  0.58933862750E+03  0.40000000000E+03 0.  1.
<mgrwt>
<rscale>  2 0.41430518E+03</rscale>
<asrwt>0</asrwt>
<pdfrwt beam="1">  1       21 0.30052321E-01 0.41430518E+03</pdfrwt>
<pdfrwt beam="2">  1       21 0.13746290E+00 0.41430518E+03</pdfrwt>
<totfact> 0.35020038E+03</totfact>
</mgrwt>
</event>
<event>
 4    1  0.4918322E-002  0.4206764E+03  0.7818608E-02  0.1036846E+00
         21   -1    0    0  503  502  0.00000000000E+00  0.00000000000E+00  0.52667276915E+03  0.52667276915E+03  0.00000000000E+00 0. -1.
         21   -1    0    0  501  503 -0.00000000000E+00 -0.00000000000E+00 -0.33601547591E+03  0.33601547591E+03  0.00000000000E+00 0. -1.
    9000007    1    1    2  501    0 -0.24423088343E+02  0.12795369375E+03  0.96611850485E+02  0.43162771533E+03  0.40000000000E+03 0. -1.
   -9000007    1    1    2    0  502  0.24423088343E+02 -0.12795369375E+03  0.94045442747E+02  0.43106052973E+03  0.40000000000E+03 0. -1.
<mgrwt>
<rscale>  2 0.42067640E+03</rscale>
<asrwt>0</asrwt>
<pdfrwt beam="1">  1       21 0.81026580E-01 0.42067640E+03</pdfrwt>
<pdfrwt beam="2">  1       21 0.51694689E-01 0.42067640E+03</pdfrwt>
<totfact> 0.42049765E+03</totfact>
</mgrwt>
</event>
<event>
 4    1  0.4918322E-002  0.4044721E+03  0.7818608E-02  0.1042242E+00
         21   -1    0    0  503  502  0.00000000000E+00  0.00000000000E+00  0.72271193896E+03  0.72271193896E+03  0.00000000000E+00 0.  1.
         21   -1    0    0  501  503 -0.00000000000E+00 -0.00000000000E+00 -0.42798742698E+03  0.42798742698E+03  0.00000000000E+00 0.  1.
    9000007    1    1    2  501    0 -0.43253279307E+02 -0.41555588363E+02 -0.24753513479E+03  0.47420602701E+03  0.40000000000E+03 0.  1.
   -9000007    1    1    2    0  502  0.43253279307E+02  0.41555588363E+02  0.54225964678E+03  0.67649333893E+03  0.40000000000E+03 0.  1.
<mgrwt>
<rscale>  2 0.40447214E+03</rscale>
<asrwt>0</asrwt>
<pdfrwt beam="1">  1       21 0.11118645E+00 0.40447214E+03</pdfrwt>
<pdfrwt beam="2">  1       21 0.65844220E-01 0.40447214E+03</pdfrwt>
<totfact> 0.11714585E+03</totfact>
</mgrwt>
</event>
<event>
 4    1  0.4918322E-002  0.5090208E+03  0.7818608E-02  0.1011451E+00
         21   -1    0    0  501  502  0.00000000000E+00  0.00000000000E+00  0.11208658973E+04  0.11208658973E+04  0.00000000000E+00 0. -1.
         21   -1    0    0  502  503 -0.00000000000E+00 -0.00000000000E+00 -0.24097790557E+03  0.24097790557E+03  0.00000000000E+00 0. -1.
    9000007    1    1    2  501    0 -0.25918277913E+03  0.17867975121E+03  0.57736804656E+03  0.76971165230E+03  0.40000000000E+03 0.  1.
   -9000007    1    1    2    0  503  0.25918277913E+03 -0.17867975121E+03  0.30251994513E+03  0.59213215053E+03  0.40000000000E+03 0.  1.
<mgrwt>
<rscale>  2 0.50902079E+03</rscale>
<asrwt>0</asrwt>
<pdfrwt beam="1">  1       21 0.17244090E+00 0.50902079E+03</pdfrwt>
<pdfrwt beam="2">  1       21 0.37073525E-01 0.50902079E+03</pdfrwt>
<totfact> 0.11858156E+03</totfact>
</mgrwt>
</event>
<event>
 4    1  0.4918322E-002  0.4646824E+03  0.7818608E-02  0.1023432E+00
         21   -1    0    0  501  502  0.00000000000E+00  0.00000000000E+00  0.20454058101E+04  0.20454058101E+04  0.00000000000E+00 0. -1.
         21   -1    0    0  502  503 -0.00000000000E+00 -0.00000000000E+00 -0.48145444541E+03  0.48145444541E+03  0.00000000000E+00 0.  1.
    9000007    1    1    2  501    0 -0.18079375176E+03  0.15245767310E+03  0.18983295207E+04  0.19543757807E+04  0.40000000000E+03 0. -1.
   -9000007    1    1    2    0  503  0.18079375176E+03 -0.15245767310E+03 -0.33437815600E+03  0.57248447488E+03  0.40000000000E+03 0.  1.
<mgrwt>
<rscale>  2 0.46468239E+03</rscale>
<asrwt>0</asrwt>
<pdfrwt beam="1">  1       21 0.31467781E+00 0.46468239E+03</pdfrwt>
<pdfrwt beam="2">  1       21 0.74069916E-01 0.46468239E+03</pdfrwt>
<totfact> 0.34227446E+01</totfact>
</mgrwt>
</event>
<event>
 4    1  0.4918322E-002  0.4953499E+03  0.7818608E-02  0.1015000E+00
         21   -1    0    0  503  502  0.00000000000E+00  0.00000000000E+00  0.86368080938E+03  0.86368080938E+03  0.00000000000E+00 0. -1.
         21   -1    0    0  501  503 -0.00000000000E+00 -0.00000000000E+00 -0.41078830595E+03  0.41078830595E+03  0.00000000000E+00 0.  1.
    9000007    1    1    2  501    0 -0.20253961055E+03 -0.21059258108E+03 -0.12743611510E+03  0.51147970876E+03  0.40000000000E+03 0.  1.
   -9000007    1    1    2    0  502  0.20253961055E+03  0.21059258108E+03  0.58032861854E+03  0.76298940657E+03  0.40000000000E+03 0. -1.
<mgrwt>
<rscale>  2 0.49534991E+03</rscale>
<asrwt>0</asrwt>
<pdfrwt beam="1">  1       21 0.13287397E+00 0.49534991E+03</pdfrwt>
<pdfrwt beam="2">  1       21 0.63198201E-01 0.49534991E+03</pdfrwt>
<totfact> 0.78420586E+02</totfact>
</mgrwt>
</event>
<event>
 4    1  0.4918322E-002  0.4871210E+03  0.7818608E-02  0.1017196E+00
         21   -1    0    0  503  502  0.00000000000E+00  0.00000000000E+00  0.78585901872E+03  0.78585901872E+03  0.00000000000E+00 0.  1.
         21   -1    0    0  501  503 -0.00000000000E+00 -0.00000000000E+00 -0.32091778845E+03  0.32091778845E+03  0.00000000000E+00 0.  1.
    9000007    1    1    2  501    0  0.10573954273E+03  0.25711088378E+03  0.97918916107E+02  0.49686514427E+03  0.40000000000E+03 0.  1.
   -9000007    1    1    2    0  502 -0.10573954273E+03 -0.25711088378E+03  0.36702231416E+03  0.60991166290E+03  0.40000000000E+03 0.  1.
<mgrwt>
<rscale>  2 0.48712099E+03</rscale>
<asrwt>0</asrwt>
<pdfrwt beam="1">  1       21 0.12090139E+00 0.48712099E+03</pdfrwt>
<pdfrwt beam="2">  1       21 0.49371968E-01 0.48712099E+03</pdfrwt>
<totfact> 0.17160347E+03</totfact>
</mgrwt>
</event>
<event>
 4    1  0.4918322E-002  0.4842222E+03  0.7818608E-02  0.1017981E+00
         21   -1    0    0  503  502  0.00000000000E+00  0.00000000000E+00  0.14573181257E+03  0.14573181257E+03  0.00000000000E+00 0.  1.
         21   -1    0    0  501  503 -0.00000000000E+00 -0.00000000000E+00 -0.17107771233E+04  0.17107771233E+04  0.00000000000E+00 0. -1.
    9000007    1    1    2  501    0 -0.17926481391E+03 -0.20575534970E+03 -0.10090191609E+04  0.11191920320E+04  0.40000000000E+03 0. -1.
   -9000007    1    1    2    0  502  0.17926481391E+03  0.20575534970E+03 -0.55602614983E+03  0.73731690387E+03  0.40000000000E+03 0.  1.
<mgrwt>
<rscale>  2 0.48422220E+03</rscale>
<asrwt>0</asrwt>
<pdfrwt beam="1">  1       21 0.22420279E-01 0.48422220E+03</pdfrwt>
<pdfrwt beam="2">  1       21 0.26319648E+00 0.48422220E+03</pdfrwt>
<totfact> 0.83088788E+02</totfact>
</mgrwt>
</event>
<event>
 4    1  0.4918322E-002  0.4105089E+03  0.7818608E-02  0.1040200E+00
         21   -1    0    0  503  502  0.00000000000E+00  0.00000000000E+00  0.60550844671E+03  0.60550844671E+03  0.00000000000E+00 0. -1.
         21   -1    0    0  501  503 -0.00000000000E+00 -0.00000000000E+00 -0.38947660590E+03  0.38947660590E+03  0.00000000000E+00 0. -1.
    9000007    1    1    2  501    0  0.19295328315E+02 -0.90251090501E+02 -0.15777359283E+03  0.43978412389E+03  0.40000000000E+03 0. -1.
   -9000007    1    1    2    0  502 -0.19295328315E+02  0.90251090501E+02  0.37380543363E+03  0.55520092871E+03  0.40000000000E+03 0. -1.
<mgrwt>
<rscale>  2 0.41050891E+03</rscale>
<asrwt>0</asrwt>
<pdfrwt beam="1">  1       21 0.93155146E-01 0.41050891E+03</pdfrwt>
<pdfrwt beam="2">  1       21 0.59919478E-01 0.41050891E+03</pdfrwt>
<totfact> 0.22121764E+03</totfact>
</mgrwt>
</event>
<event>
 4    1  0.4918322E-002  0.5240768E+03  0.7818608E-02  0.1007679E+00
         21   -1    0    0  503  502  0.00000000000E+00  0.00000000000E+00  0.30351746867E+03  0.30351746867E+03  0.00000000000E+00 0. -1.
         21   -1    0    0  501  503 -0.00000000000E+00 -0.00000000000E+00 -0.16551425844E+04  0.16551425844E+04  0.00000000000E+00 0. -1.
    9000007    1    1    2  501    0  0.30905465400E+03 -0.13835343678E+03 -0.13351517424E+04  0.14343244500E+04  0.40000000000E+03 0. -1.
   -9000007    1    1    2    0  502 -0.30905465400E+03  0.13835343678E+03 -0.16473373337E+02  0.52433560308E+03  0.40000000000E+03 0. -1.
<mgrwt>
<rscale>  2 0.52407676E+03</rscale>
<asrwt>0</asrwt>
<pdfrwt beam="1">  1       21 0.46694995E-01 0.52407676E+03</pdfrwt>
<pdfrwt beam="2">  1       21 0.25463732E+00 0.52407676E+03</pdfrwt>
<totfact> 0.21007475E+02</totfact>
</mgrwt>
</event>
<event>
 4    1  0.4918322E-002  0.4056436E+03  0.7818608E-02  0.1041843E+00
         21   -1    0    0  503  502  0.00000000000E+00  0.00000000000E+00  0.30453990867E+03  0.30453990867E+03  0.00000000000E+00 0.  1.
         21   -1    0    0  501  503 -0.00000000000E+00 -0.00000000000E+00 -0.58174147409E+03  0.58174147409E+03  0.00000000000E+00 0.  1.
    9000007    1    1    2  501    0  0.34909210230E+02 -0.57689392054E+02 -0.20343276820E+02  0.40615337968E+03  0.40000000000E+03 0.  1.
   -9000007    1    1    2    0  502 -0.34909210230E+02  0.57689392054E+02 -0.25685828860E+03  0.48012800308E+03  0.40000000000E+03 0.  1.
<mgrwt>
<rscale>  2 0.40564359E+03</rscale>
<asrwt>0</asrwt>
<pdfrwt beam="1">  1       21 0.46852294E-01 0.40564359E+03</pdfrwt>
<pdfrwt beam="2">  1       21 0.89498688E-01 0.40564359E+03</pdfrwt>
<totfact> 0.41283814E+03</totfact>
</mgrwt>
</event>
<event>
 4    1  0.4918322E-002  0.4821873E+03  0.7818608E-02  0.1018536E+00
         21   -1    0    0  503  502  0.00000000000E+00  0.00000000000E+00  0.50858932654E+03  0.50858932654E+03  0.00000000000E+00 0. -1.
         21   -1    0    0  501  503 -0.00000000000E+00 -0.00000000000E+00 -0.58643707829E+03  0.58643707829E+03  0.00000000000E+00 0.  1.
    9000007    1    1    2  501    0 -0.26621306693E+03 -0.40437594249E+02 -0.29599398776E+03  0.56578886240E+03  0.40000000000E+03 0.  1.
   -9000007    1    1    2    0  502  0.26621306693E+03  0.40437594249E+02  0.21814623600E+03  0.52923754243E+03  0.40000000000E+03 0. -1.
<mgrwt>
<rscale>  2 0.48218730E+03</rscale>
<asrwt>0</asrwt>
<pdfrwt beam="1">  1       21 0.78244512E-01 0.48218730E+03</pdfrwt>
<pdfrwt beam="2">  1       21 0.90221088E-01 0.48218730E+03</pdfrwt>
<totfact> 0.12758229E+03</totfact>
</mgrwt>
</event>
<event>
 4    1  0.4918322E-002  0.5709050E+03  0.7818608E-02  0.9967678E-01
         21   -1    0    0  503  502  0.00000000000E+00  0.00000000000E+00  0.10972900040E+04  0.10972900040E+04  0.00000000000E+00 0. -1.
         21   -1    0    0  501  503 -0.00000000000E+00 -0.00000000000E+00 -0.29706395748E+03  0.29706395748E+03  0.00000000000E+00 0.  1.
    9000007    1    1    2  501    0  0.29846276390E+03 -0.27722286394E+03  0.39312236883E+03  0.69316501253E+03  0.40000000000E+03 0. -1.
   -9000007    1    1    2    0  502 -0.29846276390E+03  0.27722286394E+03  0.40710367766E+03  0.70118894892E+03  0.40000000000E+03 0.  1.
<mgrwt>
<rscale>  2 0.57090502E+03</rscale>
<asrwt>0</asrwt>
<pdfrwt beam="1">  1       21 0.16881384E+00 0.57090502E+03</pdfrwt>
<pdfrwt beam="2">  1       21 0.45702148E-01 0.57090502E+03</pdfrwt>
<totfact> 0.79812327E+02</totfact>
</mgrwt>
</event>
<event>
 4    1  0.4918322E-002  0.5122007E+03  0.7818608E-02  0.1010643E+00
         21   -1    0    0  503  502  0.00000000000E+00  0.00000000000E+00  0.47593525863E+03  0.47593525863E+03  0.00000000000E+00 0.  1.
         21   -1    0    0  501  503 -0.00000000000E+00 -0.00000000000E+00 -0.55432600694E+03  0.55432600694E+03  0.00000000000E+00 0. -1.
    9000007    1    1    2  501    0  0.31128107448E+03  0.73848733206E+02 -0.69432765538E+00  0.51220115659E+03  0.40000000000E+03 0. -1.
   -9000007    1    1    2    0  502 -0.31128107448E+03 -0.73848733206E+02 -0.77696420657E+02  0.51806010897E+03  0.40000000000E+03 0. -1.
<mgrwt>
<rscale>  2 0.51220069E+03</rscale>
<asrwt>0</asrwt>
<pdfrwt beam="1">  1       21 0.73220809E-01 0.51220069E+03</pdfrwt>
<pdfrwt beam="2">  1       21 0.85280924E-01 0.51220069E+03</pdfrwt>
<totfact> 0.16787331E+03</totfact>
</mgrwt>
</event>
<event>
 4    1  0.4918322E-002  0.5697642E+03  0.7818608E-02  0.9970201E-01
         21   -1    0    0  501  502  0.00000000000E+00  0.00000000000E+00  0.20503373491E+03  0.20503373491E+03  0.00000000000E+00 0. -1.
         21   -1    0    0  502  503 -0.00000000000E+00 -0.00000000000E+00 -0.16335594179E+04  0.16335594179E+04  0.00000000000E+00 0.  1.
    9000007    1    1    2  501    0 -0.11749536162E+03  0.38836331742E+03 -0.55302416864E+03  0.79401949435E+03  0.40000000000E+03 0. -1.
   -9000007    1    1    2    0  503  0.11749536162E+03 -0.38836331742E+03 -0.87550151434E+03  0.10445736585E+04  0.40000000000E+03 0.  1.
<mgrwt>
<rscale>  2 0.56976418E+03</rscale>
<asrwt>0</asrwt>
<pdfrwt beam="1">  1       21 0.31543651E-01 0.56976418E+03</pdfrwt>
<pdfrwt beam="2">  1       21 0.25131684E+00 0.56976418E+03</pdfrwt>
<totfact> 0.48377318E+02</totfact>
</mgrwt>
</event>
<event>
 4    1  0.4918322E-002  0.4518503E+03  0.7818608E-02  0.1027172E+00
         21   -1    0    0  501  502  0.00000000000E+00  0.00000000000E+00  0.34750841780E+03  0.34750841780E+03  0.00000000000E+00 0.  1.
         21   -1    0    0  502  503 -0.00000000000E+00 -0.00000000000E+00 -0.70129587866E+03  0.70129587866E+03  0.00000000000E+00 0.  1.
    9000007    1    1    2  501    0 -0.19216102069E+03  0.85104771485E+02  0.34326729015E+02  0.45315229706E+03  0.40000000000E+03 0.  1.
   -9000007    1    1    2    0  503  0.19216102069E+03 -0.85104771485E+02 -0.38811418988E+03  0.59565199940E+03  0.40000000000E+03 0.  1.
<mgrwt>
<rscale>  2 0.45185028E+03</rscale>
<asrwt>0</asrwt>
<pdfrwt beam="1">  1       21 0.53462834E-01 0.45185028E+03</pdfrwt>
<pdfrwt beam="2">  1       21 0.10789167E+00 0.45185028E+03</pdfrwt>
<totfact> 0.19507868E+03</totfact>
</mgrwt>
</event>
<event>
 4    1  0.4918322E-002  0.4225207E+03  0.7818608E-02  0.1036249E+00
         21   -1    0    0  503  502  0.00000000000E+00  0.00000000000E+00  0.74088361478E+03  0.74088361478E+03  0.00000000000E+00 0.  1.
         21   -1    0    0  501  503 -0.00000000000E+00 -0.00000000000E+00 -0.26141377807E+03  0.26141377807E+03  0.00000000000E+00 0.  1.
    9000007    1    1    2  501    0  0.12374103836E+03 -0.56673577473E+02  0.37991395608E+03  0.56820625919E+03  0.40000000000E+03 0.  1.
   -9000007    1    1    2    0  502 -0.12374103836E+03  0.56673577473E+02  0.99555880634E+02  0.43409113367E+03  0.40000000000E+03 0.  1.
<mgrwt>
<rscale>  2 0.42252070E+03</rscale>
<asrwt>0</asrwt>
<pdfrwt beam="1">  1       21 0.11398209E+00 0.42252070E+03</pdfrwt>
<pdfrwt beam="2">  1       21 0.40217505E-01 0.42252070E+03</pdfrwt>
<totfact> 0.31323194E+03</totfact>
</mgrwt>
</event>
<event>
 4    1  0.4918322E-002  0.7209196E+03  0.7818608E-02  0.9682111E-01
         21   -1    0    0  501  502  0.00000000000E+00  0.00000000000E+00  0.20508566018E+04  0.20508566018E+04  0.00000000000E+00 0.  1.
         21   -1    0    0  502  503 -0.00000000000E+00 -0.00000000000E+00 -0.26105050271E+03  0.26105050271E+03  0.00000000000E+00 0. -1.
    9000007    1    1    2  501    0 -0.17752514307E+03  0.57289610024E+03  0.69725351827E+03  0.10029394732E+04  0.40000000000E+03 0. -1.
   -9000007    1    1    2    0  503  0.17752514307E+03 -0.57289610024E+03  0.10925525808E+04  0.13089676314E+04  0.40000000000E+03 0. -1.
<mgrwt>
<rscale>  2 0.72091963E+03</rscale>
<asrwt>0</asrwt>
<pdfrwt beam="1">  1       21 0.31551639E+00 0.72091963E+03</pdfrwt>
<pdfrwt beam="2">  1       21 0.40161617E-01 0.72091963E+03</pdfrwt>
<totfact> 0.11221979E+02</totfact>
</mgrwt>
</event>
<event>
 4    1  0.4918322E-002  0.4336878E+03  0.7818608E-02  0.1032701E+00
         21   -1    0    0  501  502  0.00000000000E+00  0.00000000000E+00  0.16413088298E+04  0.16413088298E+04  0.00000000000E+00 0. -1.
         21   -1    0    0  502  503 -0.00000000000E+00 -0.00000000000E+00 -0.13844553675E+03  0.13844553675E+03  0.00000000000E+00 0. -1.
    9000007    1    1    2  501    0 -0.14978416865E+03 -0.75165213415E+02  0.38207711125E+03  0.57798618100E+03  0.40000000000E+03 0. -1.
   -9000007    1    1    2    0  503  0.14978416865E+03  0.75165213415E+02  0.11207861818E+04  0.12017681856E+04  0.40000000000E+03 0. -1.
<mgrwt>
<rscale>  2 0.43368780E+03</rscale>
<asrwt>0</asrwt>
<pdfrwt beam="1">  1       21 0.25250904E+00 0.43368780E+03</pdfrwt>
<pdfrwt beam="2">  1       21 0.21299314E-01 0.43368780E+03</pdfrwt>
<totfact> 0.10927582E+03</totfact>
</mgrwt>
</event>
<event>
 4    1  0.4918322E-002  0.4810320E+03  0.7818608E-02  0.1018852E+00
         21   -1    0    0  503  502  0.00000000000E+00  0.00000000000E+00  0.17807622318E+04  0.17807622318E+04  0.00000000000E+00 0. -1.
         21   -1    0    0  501  503 -0.00000000000E+00 -0.00000000000E+00 -0.13018227908E+03  0.13018227908E+03  0.00000000000E+00 0. -1.
    9000007    1    1    2  501    0 -0.21567828811E+03 -0.15771693261E+03  0.86653260935E+03  0.99109561490E+03  0.40000000000E+03 0. -1.
   -9000007    1    1    2    0  502  0.21567828811E+03  0.15771693261E+03  0.78404734338E+03  0.91984889599E+03  0.40000000000E+03 0. -1.
<mgrwt>
<rscale>  2 0.48103197E+03</rscale>
<asrwt>0</asrwt>
<pdfrwt beam="1">  1       21 0.27396340E+00 0.48103197E+03</pdfrwt>
<pdfrwt beam="2">  1       21 0.20028044E-01 0.48103197E+03</pdfrwt>
<totfact> 0.88858767E+02</totfact>
</mgrwt>
</event>
<event>
 4    1  0.4918322E-002  0.4588650E+03  0.7818608E-02  0.1025111E+00
         21   -1    0    0  501  502  0.00000000000E+00  0.00000000000E+00  0.14880278059E+03  0.14880278059E+03  0.00000000000E+00 0. -1.
         21   -1    0    0  502  503 -0.00000000000E+00 -0.00000000000E+00 -0.14297002472E+04  0.14297002472E+04  0.00000000000E+00 0.  1.
    9000007    1    1    2  501    0  0.28497677566E+02 -0.22303581042E+03 -0.72045803442E+03  0.85417613507E+03  0.40000000000E+03 0.  1.
   -9000007    1    1    2    0  503 -0.28497677566E+02  0.22303581042E+03 -0.56043943216E+03  0.72432689269E+03  0.40000000000E+03 0. -1.
<mgrwt>
<rscale>  2 0.45886500E+03</rscale>
<asrwt>0</asrwt>
<pdfrwt beam="1">  1       21 0.22892734E-01 0.45886500E+03</pdfrwt>
<pdfrwt beam="2">  1       21 0.21995390E+00 0.45886500E+03</pdfrwt>
<totfact> 0.15007993E+03</totfact>
</mgrwt>
</event>
<event>
 4    1  0.4918322E-002  0.5217666E+03  0.7818608E-02  0.1008249E+00
         21   -1    0    0  501  502  0.00000000000E+00  0.00000000000E+00  0.58473544620E+03  0.58473544620E+03  0.00000000000E+00 0. -1.
         21   -1    0    0  502  503 -0.00000000000E+00 -0.00000000000E+00 -0.74664074878E+03  0.74664074878E+03  0.00000000000E+00 0. -1.
    9000007    1    1    2  501    0 -0.23266385706E+03  0.24105579840E+03 -0.48938116337E+03  0.71535605916E+03  0.40000000000E+03 0. -1.
   -9000007    1    1    2    0  503  0.23266385706E+03 -0.24105579840E+03  0.32747586079E+03  0.61602013581E+03  0.40000000000E+03 0. -1.
<mgrwt>
<rscale>  2 0.52176658E+03</rscale>
<asrwt>0</asrwt>
<pdfrwt beam="1">  1       21 0.89959300E-01 0.52176658E+03</pdfrwt>
<pdfrwt beam="2">  1       21 0.11486781E+00 0.52176658E+03</pdfrwt>
<totfact> 0.50234135E+02</totfact>
</mgrwt>
</event>
<event>
 4    1  0.4918322E-002  0.4286599E+03  0.7818608E-02  0.1034284E+00
         21   -1    0    0  501  502  0.00000000000E+00  0.00000000000E+00  0.74840215088E+03  0.74840215088E+03  0.00000000000E+00 0. -1.
         21   -1    0    0  502  503 -0.00000000000E+00 -0.00000000000E+00 -0.26067446129E+03  0.26067446129E+03  0.00000000000E+00 0. -1.
    9000007    1    1    2  501    0 -0.13412768034E+03  0.75888492572E+02  0.36550610540E+03  0.56333294864E+03  0.40000000000E+03 0.  1.
   -9000007    1    1    2    0  503  0.13412768034E+03 -0.75888492572E+02  0.12222158418E+03  0.44574366353E+03  0.40000000000E+03 0.  1.
<mgrwt>
<rscale>  2 0.42865989E+03</rscale>
<asrwt>0</asrwt>
<pdfrwt beam="1">  1       21 0.11513879E+00 0.42865989E+03</pdfrwt>
<pdfrwt beam="2">  1       21 0.40103763E-01 0.42865989E+03</pdfrwt>
<totfact> 0.30650994E+03</totfact>
</mgrwt>
</event>
<event>
 4    1  0.4918322E-002  0.5151311E+03  0.7818608E-02  0.1009903E+00
         21   -1    0    0  501  502  0.00000000000E+00  0.00000000000E+00  0.18817242286E+04  0.18817242286E+04  0.00000000000E+00 0.  1.
         21   -1    0    0  502  503 -0.00000000000E+00 -0.00000000000E+00 -0.17424521036E+03  0.17424521036E+03  0.00000000000E+00 0. -1.
    9000007    1    1    2  501    0  0.32443966538E+03  0.99478965610E+01  0.13026321785E+04  0.14007892952E+04  0.40000000000E+03 0.  1.
   -9000007    1    1    2    0  503 -0.32443966538E+03 -0.99478965610E+01  0.40484683977E+03  0.65518014377E+03  0.40000000000E+03 0. -1.
<mgrwt>
<rscale>  2 0.51513111E+03</rscale>
<asrwt>0</asrwt>
<pdfrwt beam="1">  1       21 0.28949602E+00 0.51513111E+03</pdfrwt>
<pdfrwt beam="2">  1       21 0.26806957E-01 0.51513111E+03</pdfrwt>
<totfact> 0.40033126E+02</totfact>
</mgrwt>
</event>
<event>
 4    1  0.4918322E-002  0.4018954E+03  0.7818608E-02  0.1043125E+00
         21   -1    0    0  501  502  0.00000000000E+00  0.00000000000E+00  0.71456825970E+03  0.71456825970E+03  0.00000000000E+00 0.  1.
         21   -1    0    0  502  503 -0.00000000000E+00 -0.00000000000E+00 -0.42409539520E+03  0.42409539520E+03  0.00000000000E+00 0.  1.
    9000007    1    1    2  501    0  0.25587550479E+02  0.29414011890E+02  0.53430730121E+03  0.66858372621E+03  0.40000000000E+03 0.  1.
   -9000007    1    1    2    0  503 -0.25587550479E+02 -0.29414011890E+02 -0.24383443670E+03  0.47007992869E+03  0.40000000000E+03 0.  1.
<mgrwt>
<rscale>  2 0.40189539E+03</rscale>
<asrwt>0</asrwt>
<pdfrwt beam="1">  1       21 0.10993358E+00 0.40189539E+03</pdfrwt>
<pdfrwt beam="2">  1       21 0.65245445E-01 0.40189539E+03</pdfrwt>
<totfact> 0.12309466E+03</totfact>
</mgrwt>
</event>
<event>
 4    1  0.4918322E-002  0.4638156E+03  0.7818608E-02  0.1023680E+00
         21   -1    0    0  501  502  0.00000000000E+00  0.00000000000E+00  0.42461675970E+03  0.42461675970E+03  0.00000000000E+00 0. -1.
         21   -1    0    0  502  503 -0.00000000000E+00 -0.00000000000E+00 -0.77625934235E+03  0.77625934235E+03  0.00000000000E+00 0. -1.
    9000007    1    1    2  501    0  0.19282837042E+03  0.13394840537E+03  0.17805035822E+03  0.49681675274E+03  0.40000000000E+03 0. -1.
   -9000007    1    1    2    0  503 -0.19282837042E+03 -0.13394840537E+03 -0.52969294087E+03  0.70405934931E+03  0.40000000000E+03 0. -1.
<mgrwt>
<rscale>  2 0.46381565E+03</rscale>
<asrwt>0</asrwt>
<pdfrwt beam="1">  1       21 0.65325656E-01 0.46381565E+03</pdfrwt>
<pdfrwt beam="2">  1       21 0.11942451E+00 0.46381565E+03</pdfrwt>
<totfact> 0.97190736E+02</totfact>
</mgrwt>
</event>
<event>
 4    1  0.4918322E-002  0.4767741E+03  0.7818608E-02  0.1020026E+00
         21   -1    0    0  503  502  0.00000000000E+00  0.00000000000E+00  0.51679057551E+03  0.51679057551E+03  0.00000000000E+00 0.  1.
         21   -1    0    0  501  503 -0.00000000000E+00 -0.00000000000E+00 -0.47047277877E+03  0.47047277877E+03  0.00000000000E+00 0. -1.
    9000007    1    1    2  501    0 -0.25933016075E+03 -0.78375807710E+01 -0.10276663805E+03  0.48772383768E+03  0.40000000000E+03 0.  1.
   -9000007    1    1    2    0  502  0.25933016075E+03  0.78375807710E+01  0.14908443479E+03  0.49953951660E+03  0.40000000000E+03 0.  1.
<mgrwt>
<rscale>  2 0.47677412E+03</rscale>
<asrwt>0</asrwt>
<pdfrwt beam="1">  1       21 0.79506242E-01 0.47677412E+03</pdfrwt>
<pdfrwt beam="2">  1       21 0.72380428E-01 0.47677412E+03</pdfrwt>
<totfact> 0.20538920E+03</totfact>
</mgrwt>
</event>
<event>
 4    1  0.4918322E-002  0.4485663E+03  0.7818608E-02  0.1028150E+00
         21   -1    0    0  501  502  0.00000000000E+00  0.00000000000E+00  0.30162667078E+04  0.30162667078E+04  0.00000000000E+00 0.  1.
         21   -1    0    0  502  503 -0.00000000000E+00 -0.00000000000E+00 -0.66835653675E+02  0.66835653675E+02  0.00000000000E+00 0.  1.
    9000007    1    1    2  501    0  0.17416772933E+03 -0.10429457430E+03  0.15418550787E+04  0.16057798229E+04  0.40000000000E+03 0.  1.
   -9000007    1    1    2    0  503 -0.17416772933E+03  0.10429457430E+03  0.14075759755E+04  0.14773225386E+04  0.40000000000E+03 0.  1.
<mgrwt>
<rscale>  2 0.44856633E+03</rscale>
<asrwt>0</asrwt>
<pdfrwt beam="1">  1       21 0.46404093E+00 0.44856633E+03</pdfrwt>
<pdfrwt beam="2">  1       21 0.10282411E-01 0.44856633E+03</pdfrwt>
<totfact> 0.19651626E+02</totfact>
</mgrwt>
</event>
<event>
 4    1  0.4918322E-002  0.5411550E+03  0.7818608E-02  0.1003562E+00
         21   -1    0    0  503  502  0.00000000000E+00  0.00000000000E+00  0.54055075162E+03  0.54055075162E+03  0.00000000000E+00 0. -1.
         21   -1    0    0  501  503 -0.00000000000E+00 -0.00000000000E+00 -0.60855720980E+03  0.60855720980E+03  0.00000000000E+00 0. -1.
    9000007    1    1    2  501    0  0.11462577971E+03  0.34599086121E+03  0.15634965965E+03  0.56328852420E+03  0.40000000000E+03 0. -1.
   -9000007    1    1    2    0  502 -0.11462577971E+03 -0.34599086121E+03 -0.22435611782E+03  0.58581943722E+03  0.40000000000E+03 0. -1.
<mgrwt>
<rscale>  2 0.54115501E+03</rscale>
<asrwt>0</asrwt>
<pdfrwt beam="1">  1       21 0.83161654E-01 0.54115501E+03</pdfrwt>
<pdfrwt beam="2">  1       21 0.93624186E-01 0.54115501E+03</pdfrwt>
<totfact> 0.99299595E+02</totfact>
</mgrwt>
</event>
<event>
 4    1  0.4918322E-002  0.6583445E+03  0.7818608E-02  0.9791246E-01
         21   -1    0    0  503  502  0.00000000000E+00  0.00000000000E+00  0.45904011123E+03  0.45904011123E+03  0.00000000000E+00 0.  1.
         21   -1    0    0  501  503 -0.00000000000E+00 -0.00000000000E+00 -0.11391713815E+04  0.11391713815E+04  0.00000000000E+00 0.  1.
    9000007    1    1    2  501    0  0.52070435536E+03  0.47796201373E+02 -0.67067486785E+03  0.93979906412E+03  0.40000000000E+03 0.  1.
   -9000007    1    1    2    0  502 -0.52070435536E+03 -0.47796201373E+02 -0.94564023879E+01  0.65841242857E+03  0.40000000000E+03 0.  1.
<mgrwt>
<rscale>  2 0.65834452E+03</rscale>
<asrwt>0</asrwt>
<pdfrwt beam="1">  1       21 0.70621556E-01 0.65834452E+03</pdfrwt>
<pdfrwt beam="2">  1       21 0.17525713E+00 0.65834452E+03</pdfrwt>
<totfact> 0.26824857E+02</totfact>
</mgrwt>
</event>
<event>
 4    1  0.4918322E-002  0.6258652E+03  0.7818608E-02  0.9853151E-01
         21   -1    0    0  503  502  0.00000000000E+00  0.00000000000E+00  0.17135868827E+04  0.17135868827E+04  0.00000000000E+00 0.  1.
         21   -1    0    0  501  503 -0.00000000000E+00 -0.00000000000E+00 -0.25538486869E+03  0.25538486869E+03  0.00000000000E+00 0.  1.
    9000007    1    1    2  501    0  0.21587438978E+03 -0.43023888231E+03  0.10479941534E+04  0.12206551494E+04  0.40000000000E+03 0.  1.
   -9000007    1    1    2    0  502 -0.21587438978E+03  0.43023888231E+03  0.41020786058E+03  0.74831660205E+03  0.40000000000E+03 0.  1.
<mgrwt>
<rscale>  2 0.62586520E+03</rscale>
<asrwt>0</asrwt>
<pdfrwt beam="1">  1       21 0.26362874E+00 0.62586520E+03</pdfrwt>
<pdfrwt beam="2">  1       21 0.39289981E-01 0.62586520E+03</pdfrwt>
<totfact> 0.25374588E+02</totfact>
</mgrwt>
</event>
<event>
 4    1  0.4918322E-002  0.4470511E+03  0.7818608E-02  0.1028605E+00
         21   -1    0    0  503  502  0.00000000000E+00  0.00000000000E+00  0.46935246805E+03  0.46935246805E+03  0.00000000000E+00 0. -1.
         21   -1    0    0  501  503 -0.00000000000E+00 -0.00000000000E+00 -0.46740521075E+03  0.46740521075E+03  0.00000000000E+00 0. -1.
    9000007    1    1    2  501    0 -0.19497385046E+03 -0.42894157344E+02 -0.13875168225E+03  0.46808838955E+03  0.40000000000E+03 0. -1.
   -9000007    1    1    2    0  502  0.19497385046E+03  0.42894157344E+02  0.14069893955E+03  0.46866928925E+03  0.40000000000E+03 0. -1.
<mgrwt>
<rscale>  2 0.44705113E+03</rscale>
<asrwt>0</asrwt>
<pdfrwt beam="1">  1       21 0.72208072E-01 0.44705113E+03</pdfrwt>
<pdfrwt beam="2">  1       21 0.71908494E-01 0.44705113E+03</pdfrwt>
<totfact> 0.26259068E+03</totfact>
</mgrwt>
</event>
<event>
 4    1  0.4918322E-002  0.4634253E+03  0.7818608E-02  0.1023792E+00
         21   -1    0    0  501  502  0.00000000000E+00  0.00000000000E+00  0.62907955112E+03  0.62907955112E+03  0.00000000000E+00 0.  1.
         21   -1    0    0  502  503 -0.00000000000E+00 -0.00000000000E+00 -0.40194608664E+03  0.40194608664E+03  0.00000000000E+00 0.  1.
    9000007    1    1    2  501    0  0.22800834880E+03  0.52679799602E+02 -0.86523512049E+02  0.47143322597E+03  0.40000000000E+03 0. -1.
   -9000007    1    1    2    0  503 -0.22800834880E+03 -0.52679799602E+02  0.31365697653E+03  0.55959241179E+03  0.40000000000E+03 0. -1.
<mgrwt>
<rscale>  2 0.46342526E+03</rscale>
<asrwt>0</asrwt>
<pdfrwt beam="1">  1       21 0.96781469E-01 0.46342526E+03</pdfrwt>
<pdfrwt beam="2">  1       21 0.61837859E-01 0.46342526E+03</pdfrwt>
<totfact> 0.18456654E+03</totfact>
</mgrwt>
</event>
<event>
 4    1  0.4918322E-002  0.4212442E+03  0.7818608E-02  0.1036662E+00
         21   -1    0    0  501  502  0.00000000000E+00  0.00000000000E+00  0.62896241645E+03  0.62896241645E+03  0.00000000000E+00 0. -1.
         21   -1    0    0  502  503 -0.00000000000E+00 -0.00000000000E+00 -0.60364244941E+03  0.60364244941E+03  0.00000000000E+00 0. -1.
    9000007    1    1    2  501    0 -0.84867847488E+01  0.13181283302E+03  0.46244563483E+03  0.62554185603E+03  0.40000000000E+03 0. -1.
   -9000007    1    1    2    0  503  0.84867847488E+01 -0.13181283302E+03 -0.43712566779E+03  0.60706300983E+03  0.40000000000E+03 0. -1.
<mgrwt>
<rscale>  2 0.42124417E+03</rscale>
<asrwt>0</asrwt>
<pdfrwt beam="1">  1       21 0.96763448E-01 0.42124417E+03</pdfrwt>
<pdfrwt beam="2">  1       21 0.92868069E-01 0.42124417E+03</pdfrwt>
<totfact> 0.74110697E+02</totfact>
</mgrwt>
</event>
<event>
 4    1  0.4918322E-002  0.4082974E+03  0.7818608E-02  0.1040944E+00
         21   -1    0    0  503  502  0.00000000000E+00  0.00000000000E+00  0.18177574509E+04  0.18177574509E+04  0.00000000000E+00 0.  1.
         21   -1    0    0  501  503 -0.00000000000E+00 -0.00000000000E+00 -0.19496613723E+03  0.19496613723E+03  0.00000000000E+00 0.  1.
    9000007    1    1    2  501    0 -0.36447058273E+02 -0.73337324735E+02  0.79022808817E+02  0.41587420642E+03  0.40000000000E+03 0.  1.
   -9000007    1    1    2    0  502  0.36447058273E+02  0.73337324735E+02  0.15437685049E+04  0.15968493817E+04  0.40000000000E+03 0.  1.
<mgrwt>
<rscale>  2 0.40829738E+03</rscale>
<asrwt>0</asrwt>
<pdfrwt beam="1">  1       21 0.27965498E+00 0.40829738E+03</pdfrwt>
<pdfrwt beam="2">  1       21 0.29994792E-01 0.40829738E+03</pdfrwt>
<totfact> 0.38999482E+02</totfact>
</mgrwt>
</event>
<event>
 4    1  0.4918322E-002  0.4719462E+03  0.7818608E-02  0.1021372E+00
         21   -1    0    0  501  502  0.00000000000E+00  0.00000000000E+00  0.60042014336E+03  0.60042014336E+03  0.00000000000E+00 0.  1.
         21   -1    0    0  502  503 -0.00000000000E+00 -0.00000000000E+00 -0.37216754426E+03  0.37216754426E+03  0.00000000000E+00 0.  1.
    9000007    1    1    2  501    0 -0.10498734820E+03 -0.22740027244E+03  0.14180018310E+03  0.49278851358E+03  0.40000000000E+03 0.  1.
   -9000007    1    1    2    0  503  0.10498734820E+03  0.22740027244E+03  0.86452415996E+02  0.47979917405E+03  0.40000000000E+03 0.  1.
<mgrwt>
<rscale>  2 0.47194621E+03</rscale>
<asrwt>0</asrwt>
<pdfrwt beam="1">  1       21 0.92372330E-01 0.47194621E+03</pdfrwt>
<pdfrwt beam="2">  1       21 0.57256545E-01 0.47194621E+03</pdfrwt>
<totfact> 0.24355080E+03</totfact>
</mgrwt>
</event>
<event>
 4    1  0.4918322E-002  0.4088408E+03  0.7818608E-02  0.1040761E+00
         21   -1    0    0  501  502  0.00000000000E+00  0.00000000000E+00  0.19199507978E+03  0.19199507978E+03  0.00000000000E+00 0. -1.
         21   -1    0    0  502  503 -0.00000000000E+00 -0.00000000000E+00 -0.12591992837E+04  0.12591992837E+04  0.00000000000E+00 0. -1.
    9000007    1    1    2  501    0 -0.77095754985E+02  0.34742778117E+02 -0.93668989217E+03  0.10220267952E+04  0.40000000000E+03 0. -1.
   -9000007    1    1    2    0  503  0.77095754985E+02 -0.34742778117E+02 -0.13051431174E+03  0.42916756825E+03  0.40000000000E+03 0. -1.
<mgrwt>
<rscale>  2 0.40884082E+03</rscale>
<asrwt>0</asrwt>
<pdfrwt beam="1">  1       21 0.29537705E-01 0.40884082E+03</pdfrwt>
<pdfrwt beam="2">  1       21 0.19372296E+00 0.40884082E+03</pdfrwt>
<totfact> 0.13878085E+03</totfact>
</mgrwt>
</event>
<event>
 4    1  0.4918322E-002  0.6820537E+03  0.7818608E-02  0.9748425E-01
         21   -1    0    0  503  502  0.00000000000E+00  0.00000000000E+00  0.45990479215E+03  0.45990479215E+03  0.00000000000E+00 0. -1.
         21   -1    0    0  501  503 -0.00000000000E+00 -0.00000000000E+00 -0.20732682953E+04  0.20732682953E+04  0.00000000000E+00 0.  1.
    9000007    1    1    2  501    0 -0.33387453555E+03  0.44014210698E+03 -0.17130828015E+04  0.18438682070E+04  0.40000000000E+03 0.  1.
   -9000007    1    1    2    0  502  0.33387453555E+03 -0.44014210698E+03  0.99719298343E+02  0.68930488050E+03  0.40000000000E+03 0. -1.
<mgrwt>
<rscale>  2 0.68205372E+03</rscale>
<asrwt>0</asrwt>
<pdfrwt beam="1">  1       21 0.70754585E-01 0.68205372E+03</pdfrwt>
<pdfrwt beam="2">  1       21 0.31896435E+00 0.68205372E+03</pdfrwt>
<totfact> 0.31740101E+01</totfact>
</mgrwt>
</event>
<event>
 4    1  0.4918322E-002  0.4395834E+03  0.7818608E-02  0.1030875E+00
         21   -1    0    0  501  502  0.00000000000E+00  0.00000000000E+00  0.63167740265E+03  0.63167740265E+03  0.00000000000E+00 0.  1.
         21   -1    0    0  502  503 -0.00000000000E+00 -0.00000000000E+00 -0.40013205034E+03  0.40013205034E+03  0.00000000000E+00 0.  1.
    9000007    1    1    2  501    0 -0.15726274711E+02 -0.18162120734E+03  0.36612667366E+03  0.57208593746E+03  0.40000000000E+03 0.  1.
   -9000007    1    1    2    0  503  0.15726274711E+02  0.18162120734E+03 -0.13458132136E+03  0.45972351553E+03  0.40000000000E+03 0.  1.
<mgrwt>
<rscale>  2 0.43958341E+03</rscale>
<asrwt>0</asrwt>
<pdfrwt beam="1">  1       21 0.97181139E-01 0.43958341E+03</pdfrwt>
<pdfrwt beam="2">  1       21 0.61558777E-01 0.43958341E+03</pdfrwt>
<totfact> 0.18625271E+03</totfact>
</mgrwt>
</event>
<event>
 4    1  0.4918322E-002  0.5354955E+03  0.7818608E-02  0.1004908E+00
         21   -1    0    0  503  502  0.00000000000E+00  0.00000000000E+00  0.19275386150E+04  0.19275386150E+04  0.00000000000E+00 0. -1.
         21   -1    0    0  501  503 -0.00000000000E+00 -0.00000000000E+00 -0.21391657456E+03  0.21391657456E+03  0.00000000000E+00 0.  1.
    9000007    1    1    2  501    0 -0.11005571331E+03  0.33858996430E+03  0.26591598023E+03  0.59788521683E+03  0.40000000000E+03 0.  1.
   -9000007    1    1    2    0  502  0.11005571331E+03 -0.33858996430E+03  0.14477060602E+04  0.15435699727E+04  0.40000000000E+03 0. -1.
<mgrwt>
<rscale>  2 0.53549549E+03</rscale>
<asrwt>0</asrwt>
<pdfrwt beam="1">  1       21 0.29654439E+00 0.53549549E+03</pdfrwt>
<pdfrwt beam="2">  1       21 0.32910244E-01 0.53549549E+03</pdfrwt>
<totfact> 0.23879841E+02</totfact>
</mgrwt>
</event>
<event>
 4    1  0.4918322E-002  0.4462175E+03  0.7818608E-02  0.1028856E+00
         21   -1    0    0  503  502  0.00000000000E+00  0.00000000000E+00  0.52716616925E+03  0.52716616925E+03  0.00000000000E+00 0. -1.
         21   -1    0    0  501  503 -0.00000000000E+00 -0.00000000000E+00 -0.38260349940E+03  0.38260349940E+03  0.00000000000E+00 0.  1.
    9000007    1    1    2  501    0 -0.88622021510E+01  0.19756400132E+03  0.20778692109E+02  0.44670104912E+03  0.40000000000E+03 0.  1.
   -9000007    1    1    2    0  502  0.88622021510E+01 -0.19756400132E+03  0.12378397774E+03  0.46306861952E+03  0.40000000000E+03 0. -1.
<mgrwt>
<rscale>  2 0.44621752E+03</rscale>
<asrwt>0</asrwt>
<pdfrwt beam="1">  1       21 0.81102488E-01 0.44621752E+03</pdfrwt>
<pdfrwt beam="2">  1       21 0.58862077E-01 0.44621752E+03</pdfrwt>
<totfact> 0.31415103E+03</totfact>
</mgrwt>
</event>
<event>
 4    1  0.4918322E-002  0.4134307E+03  0.7818608E-02  0.1039226E+00
         21   -1    0    0  503  502  0.00000000000E+00  0.00000000000E+00  0.63989718455E+03  0.63989718455E+03  0.00000000000E+00 0. -1.
         21   -1    0    0  501  503 -0.00000000000E+00 -0.00000000000E+00 -0.34174566600E+03  0.34174566600E+03  0.00000000000E+00 0. -1.
    9000007    1    1    2  501    0  0.31312327604E+02  0.99721997246E+02 -0.80293974069E+02  0.42115562547E+03  0.40000000000E+03 0. -1.
   -9000007    1    1    2    0  502 -0.31312327604E+02 -0.99721997246E+02  0.37844549262E+03  0.56048722508E+03  0.40000000000E+03 0. -1.
<mgrwt>
<rscale>  2 0.41343069E+03</rscale>
<asrwt>0</asrwt>
<pdfrwt beam="1">  1       21 0.98445721E-01 0.41343069E+03</pdfrwt>
<pdfrwt beam="2">  1       21 0.52576256E-01 0.41343069E+03</pdfrwt>
<totfact> 0.25681318E+03</totfact>
</mgrwt>
</event>
<event>
 4    1  0.4918322E-002  0.4425000E+03  0.7818608E-02  0.1029983E+00
         21   -1    0    0  503  502  0.00000000000E+00  0.00000000000E+00  0.23122787506E+03  0.23122787506E+03  0.00000000000E+00 0. -1.
         21   -1    0    0  501  503 -0.00000000000E+00 -0.00000000000E+00 -0.13319586123E+04  0.13319586123E+04  0.00000000000E+00 0.  1.
    9000007    1    1    2  501    0  0.47477613348E+02  0.18317241353E+03 -0.10220725410E+04  0.11137497636E+04  0.40000000000E+03 0.  1.
   -9000007    1    1    2    0  502 -0.47477613348E+02 -0.18317241353E+03 -0.78658196260E+02  0.44943672378E+03  0.40000000000E+03 0. -1.
<mgrwt>
<rscale>  2 0.44250001E+03</rscale>
<asrwt>0</asrwt>
<pdfrwt beam="1">  1       21 0.35573519E-01 0.44250001E+03</pdfrwt>
<pdfrwt beam="2">  1       21 0.20491671E+00 0.44250001E+03</pdfrwt>
<totfact> 0.79237147E+02</totfact>
</mgrwt>
</event>
<event>
 4    1  0.4918322E-002  0.4202202E+03  0.7818608E-02  0.1036995E+00
         21   -1    0    0  501  502  0.00000000000E+00  0.00000000000E+00  0.37941130040E+03  0.37941130040E+03  0.00000000000E+00 0.  1.
         21   -1    0    0  502  503 -0.00000000000E+00 -0.00000000000E+00 -0.56664263346E+03  0.56664263346E+03  0.00000000000E+00 0.  1.
    9000007    1    1    2  501    0 -0.10575928331E+03  0.73484741940E+02  0.10631220334E+03  0.43345970733E+03  0.40000000000E+03 0.  1.
   -9000007    1    1    2    0  503  0.10575928331E+03 -0.73484741940E+02 -0.29354353640E+03  0.51259422653E+03  0.40000000000E+03 0.  1.
<mgrwt>
<rscale>  2 0.42022022E+03</rscale>
<asrwt>0</asrwt>
<pdfrwt beam="1">  1       21 0.58370969E-01 0.42022022E+03</pdfrwt>
<pdfrwt beam="2">  1       21 0.87175790E-01 0.42022022E+03</pdfrwt>
<totfact> 0.27295939E+03</totfact>
</mgrwt>
</event>
<event>
 4    1  0.4918322E-002  0.7124421E+03  0.7818608E-02  0.9696188E-01
         21   -1    0    0  501  502  0.00000000000E+00  0.00000000000E+00  0.10730612892E+04  0.10730612892E+04  0.00000000000E+00 0.  1.
         21   -1    0    0  502  503 -0.00000000000E+00 -0.00000000000E+00 -0.61575326059E+03  0.61575326059E+03  0.00000000000E+00 0. -1.
    9000007    1    1    2  501    0 -0.15672883146E+03 -0.56833951400E+03  0.63520901822E+03  0.95449684474E+03  0.40000000000E+03 0.  1.
   -9000007    1    1    2    0  503  0.15672883146E+03  0.56833951400E+03 -0.17790098965E+03  0.73431770502E+03  0.40000000000E+03 0. -1.
<mgrwt>
<rscale>  2 0.71244209E+03</rscale>
<asrwt>0</asrwt>
<pdfrwt beam="1">  1       21 0.16508635E+00 0.71244209E+03</pdfrwt>
<pdfrwt beam="2">  1       21 0.94731271E-01 0.71244209E+03</pdfrwt>
<totfact> 0.15728148E+02</totfact>
</mgrwt>
</event>
<event>
 4    1  0.4918322E-002  0.4467482E+03  0.7818608E-02  0.1028696E+00
         21   -1    0    0  501  502  0.00000000000E+00  0.00000000000E+00  0.75254319501E+03  0.75254319501E+03  0.00000000000E+00 0.  1.
         21   -1    0    0  502  503 -0.00000000000E+00 -0.00000000000E+00 -0.87536380090E+03  0.87536380090E+03  0.00000000000E+00 0. -1.
    9000007    1    1    2  501    0  0.13632853227E+03 -0.14490863497E+03  0.61814376526E+03  0.76268322109E+03  0.40000000000E+03 0.  1.
   -9000007    1    1    2    0  503 -0.13632853227E+03  0.14490863497E+03 -0.74096437115E+03  0.86522377482E+03  0.40000000000E+03 0. -1.
<mgrwt>
<rscale>  2 0.44674823E+03</rscale>
<asrwt>0</asrwt>
<pdfrwt beam="1">  1       21 0.11577588E+00 0.44674823E+03</pdfrwt>
<pdfrwt beam="2">  1       21 0.13467135E+00 0.44674823E+03</pdfrwt>
<totfact> 0.18631657E+02</totfact>
</mgrwt>
</event>
<event>
 4    1  0.4918322E-002  0.6101382E+03  0.7818608E-02  0.9884593E-01
         21   -1    0    0  503  502  0.00000000000E+00  0.00000000000E+00  0.10717454882E+04  0.10717454882E+04  0.00000000000E+00 0.  1.
         21   -1    0    0  501  503 -0.00000000000E+00 -0.00000000000E+00 -0.55550979412E+03  0.55550979412E+03  0.00000000000E+00 0.  1.
    9000007    1    1    2  501    0 -0.35869851277E+03 -0.28914349885E+03 -0.23994071393E+03  0.65562194304E+03  0.40000000000E+03 0.  1.
   -9000007    1    1    2    0  502  0.35869851277E+03  0.28914349885E+03  0.75617640805E+03  0.97163333933E+03  0.40000000000E+03 0.  1.
<mgrwt>
<rscale>  2 0.61013817E+03</rscale>
<asrwt>0</asrwt>
<pdfrwt beam="1">  1       21 0.16488392E+00 0.61013817E+03</pdfrwt>
<pdfrwt beam="2">  1       21 0.85463045E-01 0.61013817E+03</pdfrwt>
<totfact> 0.20912453E+02</totfact>
</mgrwt>
</event>
<event>
 4    1  0.4918322E-002  0.4091456E+03  0.7818608E-02  0.1040658E+00
         21   -1    0    0  503  502  0.00000000000E+00  0.00000000000E+00  0.83847292565E+02  0.83847292565E+02  0.00000000000E+00 0. -1.
         21   -1    0    0  501  503 -0.00000000000E+00 -0.00000000000E+00 -0.19992509644E+04  0.19992509644E+04  0.00000000000E+00 0. -1.
    9000007    1    1    2  501    0 -0.85731874527E+02 -0.70855017853E+01 -0.91898575697E+03  0.10059497901E+04  0.40000000000E+03 0. -1.
   -9000007    1    1    2    0  502  0.85731874527E+02  0.70855017853E+01 -0.99641791482E+03  0.10771484668E+04  0.40000000000E+03 0. -1.
<mgrwt>
<rscale>  2 0.40914564E+03</rscale>
<asrwt>0</asrwt>
<pdfrwt beam="1">  1       21 0.12899584E-01 0.40914564E+03</pdfrwt>
<pdfrwt beam="2">  1       21 0.30757706E+00 0.40914564E+03</pdfrwt>
<totfact> 0.13172703E+03</totfact>
</mgrwt>
</event>
<event>
 4    1  0.4918322E-002  0.4606798E+03  0.7818608E-02  0.1024584E+00
         21   -1    0    0  503  502  0.00000000000E+00  0.00000000000E+00  0.68931158582E+03  0.68931158582E+03  0.00000000000E+00 0.  1.
         21   -1    0    0  501  503 -0.00000000000E+00 -0.00000000000E+00 -0.45271735572E+03  0.45271735572E+03  0.00000000000E+00 0. -1.
    9000007    1    1    2  501    0  0.30563997493E+02 -0.22647669096E+03 -0.20468058257E+03  0.50410315450E+03  0.40000000000E+03 0. -1.
   -9000007    1    1    2    0  502 -0.30563997493E+02  0.22647669096E+03  0.44127481266E+03  0.63792578705E+03  0.40000000000E+03 0.  1.
<mgrwt>
<rscale>  2 0.46067977E+03</rscale>
<asrwt>0</asrwt>
<pdfrwt beam="1">  1       21 0.10604794E+00 0.46067977E+03</pdfrwt>
<pdfrwt beam="2">  1       21 0.69648824E-01 0.46067977E+03</pdfrwt>
<totfact> 0.11340263E+03</totfact>
</mgrwt>
</event>
<event>
 4    1  0.4918322E-002  0.4603487E+03  0.7818608E-02  0.1024680E+00
         21   -1    0    0  503  502  0.00000000000E+00  0.00000000000E+00  0.40204482104E+03  0.40204482104E+03  0.00000000000E+00 0.  1.
         21   -1    0    0  501  503 -0.00000000000E+00 -0.00000000000E+00 -0.59010619315E+03  0.59010619315E+03  0.00000000000E+00 0.  1.
    9000007    1    1    2  501    0  0.14645001133E+03  0.17456612785E+03 -0.25611747781E+03  0.52679891918E+03  0.40000000000E+03 0.  1.
   -9000007    1    1    2    0  502 -0.14645001133E+03 -0.17456612785E+03  0.68056105694E+02  0.46535209501E+03  0.40000000000E+03 0.  1.
<mgrwt>
<rscale>  2 0.46034871E+03</rscale>
<asrwt>0</asrwt>
<pdfrwt beam="1">  1       21 0.61853050E-01 0.46034871E+03</pdfrwt>
<pdfrwt beam="2">  1       21 0.90785567E-01 0.46034871E+03</pdfrwt>
<totfact> 0.21519458E+03</totfact>
</mgrwt>
</event>
<event>
 4    1  0.4918322E-002  0.4117991E+03  0.7818608E-02  0.1039769E+00
         21   -1    0    0  503  502  0.00000000000E+00  0.00000000000E+00  0.18006205800E+03  0.18006205800E+03  0.00000000000E+00 0.  1.
         21   -1    0    0  501  503 -0.00000000000E+00 -0.00000000000E+00 -0.96617085165E+03  0.96617085165E+03  0.00000000000E+00 0.  1.
    9000007    1    1    2  501    0 -0.27171278755E+02  0.94022361413E+02 -0.30199027593E+03  0.51066291190E+03  0.40000000000E+03 0.  1.
   -9000007    1    1    2    0  502  0.27171278755E+02 -0.94022361413E+02 -0.48411851771E+03  0.63556999774E+03  0.40000000000E+03 0.  1.
<mgrwt>
<rscale>  2 0.41179908E+03</rscale>
<asrwt>0</asrwt>
<pdfrwt beam="1">  1       21 0.27701856E-01 0.41179908E+03</pdfrwt>
<pdfrwt beam="2">  1       21 0.14864167E+00 0.41179908E+03</pdfrwt>
<totfact> 0.33412867E+03</totfact>
</mgrwt>
</event>
<event>
 4    1  0.4918322E-002  0.4666384E+03  0.7818608E-02  0.1022873E+00
         21   -1    0    0  501  502  0.00000000000E+00  0.00000000000E+00  0.62433014797E+03  0.62433014797E+03  0.00000000000E+00 0.  1.
         21   -1    0    0  502  503 -0.00000000000E+00 -0.00000000000E+00 -0.50977477812E+03  0.50977477812E+03  0.00000000000E+00 0.  1.
    9000007    1    1    2  501    0  0.73530575385E+01  0.24020263192E+03 -0.26139538103E+03  0.53486345646E+03  0.40000000000E+03 0.  1.
   -9000007    1    1    2    0  503 -0.73530575385E+01 -0.24020263192E+03  0.37595075087E+03  0.59924146963E+03  0.40000000000E+03 0.  1.
<mgrwt>
<rscale>  2 0.46663837E+03</rscale>
<asrwt>0</asrwt>
<pdfrwt beam="1">  1       21 0.96050792E-01 0.46663837E+03</pdfrwt>
<pdfrwt beam="2">  1       21 0.78426889E-01 0.46663837E+03</pdfrwt>
<totfact> 0.10992120E+03</totfact>
</mgrwt>
</event>
<event>
 4    1  0.4918322E-002  0.4039189E+03  0.7818608E-02  0.1042431E+00
         21   -1    0    0  501  502  0.00000000000E+00  0.00000000000E+00  0.30716567670E+03  0.30716567670E+03  0.00000000000E+00 0. -1.
         21   -1    0    0  502  503 -0.00000000000E+00 -0.00000000000E+00 -0.65566311458E+03  0.65566311458E+03  0.00000000000E+00 0. -1.
    9000007    1    1    2  501    0 -0.56112585323E+02  0.13719407055E+01  0.35543481249E+02  0.40547976955E+03  0.40000000000E+03 0. -1.
   -9000007    1    1    2    0  503  0.56112585323E+02 -0.13719407055E+01 -0.38404091913E+03  0.55734902173E+03  0.40000000000E+03 0. -1.
<mgrwt>
<rscale>  2 0.40391893E+03</rscale>
<asrwt>0</asrwt>
<pdfrwt beam="1">  1       21 0.47256258E-01 0.40391893E+03</pdfrwt>
<pdfrwt beam="2">  1       21 0.10087125E+00 0.40391893E+03</pdfrwt>
<totfact> 0.30478393E+03</totfact>
</mgrwt>
</event>
<event>
 4    1  0.4918322E-002  0.4338795E+03  0.7818608E-02  0.1032641E+00
         21   -1    0    0  501  502  0.00000000000E+00  0.00000000000E+00  0.75713527214E+03  0.75713527214E+03  0.00000000000E+00 0.  1.
         21   -1    0    0  502  503 -0.00000000000E+00 -0.00000000000E+00 -0.51447910741E+03  0.51447910741E+03  0.00000000000E+00 0.  1.
    9000007    1    1    2  501    0  0.25993038046E+02  0.16605954993E+03  0.57836776880E+03  0.72302191401E+03  0.40000000000E+03 0.  1.
   -9000007    1    1    2    0  503 -0.25993038046E+02 -0.16605954993E+03 -0.33571160406E+03  0.54859246554E+03  0.40000000000E+03 0.  1.
<mgrwt>
<rscale>  2 0.43387949E+03</rscale>
<asrwt>0</asrwt>
<pdfrwt beam="1">  1       21 0.11648235E+00 0.43387949E+03</pdfrwt>
<pdfrwt beam="2">  1       21 0.79150632E-01 0.43387949E+03</pdfrwt>
<totfact> 0.67891272E+02</totfact>
</mgrwt>
</event>
<event>
 4    1  0.4918322E-002  0.5308206E+03  0.7818608E-02  0.1006033E+00
         21   -1    0    0  501  502  0.00000000000E+00  0.00000000000E+00  0.26677600055E+03  0.26677600055E+03  0.00000000000E+00 0.  1.
         21   -1    0    0  502  503 -0.00000000000E+00 -0.00000000000E+00 -0.17198475545E+04  0.17198475545E+04  0.00000000000E+00 0.  1.
    9000007    1    1    2  501    0 -0.35799572408E+02 -0.34711504019E+03 -0.10950427763E+03  0.54199782964E+03  0.40000000000E+03 0.  1.
   -9000007    1    1    2    0  503  0.35799572408E+02  0.34711504019E+03 -0.13435672763E+04  0.14446257254E+04  0.40000000000E+03 0.  1.
<mgrwt>
<rscale>  2 0.53082055E+03</rscale>
<asrwt>0</asrwt>
<pdfrwt beam="1">  1       21 0.41042460E-01 0.53082055E+03</pdfrwt>
<pdfrwt beam="2">  1       21 0.26459194E+00 0.53082055E+03</pdfrwt>
<totfact> 0.23835588E+02</totfact>
</mgrwt>
</event>
<event>
 4    1  0.4918322E-002  0.8388631E+03  0.7818608E-02  0.9505408E-01
         21   -1    0    0  503  502  0.00000000000E+00  0.00000000000E+00  0.17193257373E+04  0.17193257373E+04  0.00000000000E+00 0. -1.
         21   -1    0    0  501  503 -0.00000000000E+00 -0.00000000000E+00 -0.74850730440E+03  0.74850730440E+03  0.00000000000E+00 0.  1.
    9000007    1    1    2  501    0  0.72501493525E+03 -0.13433046133E+03 -0.34526559067E+03  0.90713816879E+03  0.40000000000E+03 0.  1.
   -9000007    1    1    2    0  502 -0.72501493525E+03  0.13433046133E+03  0.13160840235E+04  0.15606948729E+04  0.40000000000E+03 0. -1.
<mgrwt>
<rscale>  2 0.83886312E+03</rscale>
<asrwt>0</asrwt>
<pdfrwt beam="1">  1       21 0.26451165E+00 0.83886312E+03</pdfrwt>
<pdfrwt beam="2">  1       21 0.11515497E+00 0.83886312E+03</pdfrwt>
<totfact> 0.20014732E+01</totfact>
</mgrwt>
</event>
<event>
 4    1  0.4918322E-002  0.4111674E+03  0.7818608E-02  0.1039980E+00
         21   -1    0    0  501  502  0.00000000000E+00  0.00000000000E+00  0.20112226817E+03  0.20112226817E+03  0.00000000000E+00 0.  1.
         21   -1    0    0  502  503 -0.00000000000E+00 -0.00000000000E+00 -0.11022567470E+04  0.11022567470E+04  0.00000000000E+00 0.  1.
    9000007    1    1    2  501    0  0.48713136382E+01 -0.95052083479E+02 -0.13303712833E+03  0.43215449296E+03  0.40000000000E+03 0.  1.
   -9000007    1    1    2    0  503 -0.48713136382E+01  0.95052083479E+02 -0.76809735053E+03  0.87122452225E+03  0.40000000000E+03 0.  1.
<mgrwt>
<rscale>  2 0.41116740E+03</rscale>
<asrwt>0</asrwt>
<pdfrwt beam="1">  1       21 0.30941888E-01 0.41116740E+03</pdfrwt>
<pdfrwt beam="2">  1       21 0.16957796E+00 0.41116740E+03</pdfrwt>
<totfact> 0.18649468E+03</totfact>
</mgrwt>
</event>
<event>
 4    1  0.4918322E-002  0.4235434E+03  0.7818608E-02  0.1035919E+00
         21   -1    0    0  503  502  0.00000000000E+00  0.00000000000E+00  0.70762678225E+03  0.70762678225E+03  0.00000000000E+00 0.  1.
         21   -1    0    0  501  503 -0.00000000000E+00 -0.00000000000E+00 -0.25561152724E+03  0.25561152724E+03  0.00000000000E+00 0.  1.
    9000007    1    1    2  501    0 -0.13260675023E+03 -0.42478962812E+02  0.18231651313E+03  0.46111638818E+03  0.40000000000E+03 0.  1.
   -9000007    1    1    2    0  502  0.13260675023E+03  0.42478962812E+02  0.26969874188E+03  0.50212192131E+03  0.40000000000E+03 0.  1.
<mgrwt>
<rscale>  2 0.42354340E+03</rscale>
<asrwt>0</asrwt>
<pdfrwt beam="1">  1       21 0.10886566E+00 0.42354340E+03</pdfrwt>
<pdfrwt beam="2">  1       21 0.39324851E-01 0.42354340E+03</pdfrwt>
<totfact> 0.36750307E+03</totfact>
</mgrwt>
</event>
<event>
 4    1  0.4918322E-002  0.4114396E+03  0.7818608E-02  0.1039889E+00
         21   -1    0    0  501  502  0.00000000000E+00  0.00000000000E+00  0.17147417817E+03  0.17147417817E+03  0.00000000000E+00 0. -1.
         21   -1    0    0  502  503 -0.00000000000E+00 -0.00000000000E+00 -0.11158529927E+04  0.11158529927E+04  0.00000000000E+00 0. -1.
    9000007    1    1    2  501    0  0.94313722611E+02  0.19683270148E+02 -0.25364792318E+03  0.48334229934E+03  0.40000000000E+03 0. -1.
   -9000007    1    1    2    0  503 -0.94313722611E+02 -0.19683270148E+02 -0.69073089134E+03  0.80398487153E+03  0.40000000000E+03 0. -1.
<mgrwt>
<rscale>  2 0.41143956E+03</rscale>
<asrwt>0</asrwt>
<pdfrwt beam="1">  1       21 0.26380642E-01 0.41143956E+03</pdfrwt>
<pdfrwt beam="2">  1       21 0.17166969E+00 0.41143956E+03</pdfrwt>
<totfact> 0.24664556E+03</totfact>
</mgrwt>
</event>
<event>
 4    1  0.4918322E-002  0.4875129E+03  0.7818608E-02  0.1017091E+00
         21   -1    0    0  503  502  0.00000000000E+00  0.00000000000E+00  0.57795045952E+03  0.57795045952E+03  0.00000000000E+00 0. -1.
         21   -1    0    0  501  503 -0.00000000000E+00 -0.00000000000E+00 -0.52749618569E+03  0.52749618569E+03  0.00000000000E+00 0. -1.
    9000007    1    1    2  501    0 -0.27835769771E+03  0.13631896063E+02 -0.23426872385E+03  0.54087953505E+03  0.40000000000E+03 0. -1.
   -9000007    1    1    2    0  502  0.27835769771E+03 -0.13631896063E+02  0.28472299769E+03  0.56456711016E+03  0.40000000000E+03 0. -1.
<mgrwt>
<rscale>  2 0.48751291E+03</rscale>
<asrwt>0</asrwt>
<pdfrwt beam="1">  1       21 0.88915456E-01 0.48751291E+03</pdfrwt>
<pdfrwt beam="2">  1       21 0.81153259E-01 0.48751291E+03</pdfrwt>
<totfact> 0.12113653E+03</totfact>
</mgrwt>
</event>
<event>
 4    1  0.4918322E-002  0.4746287E+03  0.7818608E-02  0.1020622E+00
         21   -1    0    0  501  502  0.00000000000E+00  0.00000000000E+00  0.19569200149E+03  0.19569200149E+03  0.00000000000E+00 0.  1.
         21   -1    0    0  502  503 -0.00000000000E+00 -0.00000000000E+00 -0.19010688818E+04  0.19010688818E+04  0.00000000000E+00 0. -1.
    9000007    1    1    2  501    0 -0.25536848615E+03  0.77023486955E+01 -0.19423534146E+03  0.51283502002E+03  0.40000000000E+03 0.  1.
   -9000007    1    1    2    0  503  0.25536848615E+03 -0.77023486955E+01 -0.15111415388E+04  0.15839258632E+04  0.40000000000E+03 0. -1.
<mgrwt>
<rscale>  2 0.47462869E+03</rscale>
<asrwt>0</asrwt>
<pdfrwt beam="1">  1       21 0.30106460E-01 0.47462869E+03</pdfrwt>
<pdfrwt beam="2">  1       21 0.29247215E+00 0.47462869E+03</pdfrwt>
<totfact> 0.31179672E+02</totfact>
</mgrwt>
</event>
<event>
 4    1  0.4918322E-002  0.4322601E+03  0.7818608E-02  0.1033148E+00
         21   -1    0    0  501  502  0.00000000000E+00  0.00000000000E+00  0.11720090452E+04  0.11720090452E+04  0.00000000000E+00 0. -1.
         21   -1    0    0  502  503 -0.00000000000E+00 -0.00000000000E+00 -0.24429135446E+03  0.24429135446E+03  0.00000000000E+00 0. -1.
    9000007    1    1    2  501    0 -0.10097170008E+03 -0.12904844306E+03  0.46474271970E+02  0.43475124247E+03  0.40000000000E+03 0. -1.
   -9000007    1    1    2    0  503  0.10097170008E+03  0.12904844306E+03  0.88124341878E+03  0.98154915720E+03  0.40000000000E+03 0. -1.
<mgrwt>
<rscale>  2 0.43226009E+03</rscale>
<asrwt>0</asrwt>
<pdfrwt beam="1">  1       21 0.18030908E+00 0.43226009E+03</pdfrwt>
<pdfrwt beam="2">  1       21 0.37583286E-01 0.43226009E+03</pdfrwt>
<totfact> 0.10463625E+03</totfact>
</mgrwt>
</event>
<event>
 4    1  0.4918322E-002  0.5040451E+03  0.7818608E-02  0.1012728E+00
         21   -1    0    0  501  502  0.00000000000E+00  0.00000000000E+00  0.15135362921E+04  0.15135362921E+04  0.00000000000E+00 0. -1.
         21   -1    0    0  502  503 -0.00000000000E+00 -0.00000000000E+00 -0.28968073030E+03  0.28968073030E+03  0.00000000000E+00 0. -1.
    9000007    1    1    2  501    0 -0.30252884023E+03 -0.50376475163E+02  0.11966096669E+04  0.12984360529E+04  0.40000000000E+03 0. -1.
   -9000007    1    1    2    0  503  0.30252884023E+03  0.50376475163E+02  0.27245894891E+02  0.50478096954E+03  0.40000000000E+03 0. -1.
<mgrwt>
<rscale>  2 0.50404513E+03</rscale>
<asrwt>0</asrwt>
<pdfrwt beam="1">  1       21 0.23285173E+00 0.50404513E+03</pdfrwt>
<pdfrwt beam="2">  1       21 0.44566267E-01 0.50404513E+03</pdfrwt>
<totfact> 0.31968144E+02</totfact>
</mgrwt>
</event>
<event>
 4    1  0.4918322E-002  0.4265450E+03  0.7818608E-02  0.1034957E+00
         21   -1    0    0  501  502  0.00000000000E+00  0.00000000000E+00  0.25650571475E+03  0.25650571475E+03  0.00000000000E+00 0. -1.
         21   -1    0    0  502  503 -0.00000000000E+00 -0.00000000000E+00 -0.71584039980E+03  0.71584039980E+03  0.00000000000E+00 0.  1.
    9000007    1    1    2  501    0  0.31967971310E+02 -0.14463304444E+03 -0.27612251260E+03  0.50811840224E+03  0.40000000000E+03 0. -1.
   -9000007    1    1    2    0  503 -0.31967971310E+02  0.14463304444E+03 -0.18321217245E+03  0.46422771230E+03  0.40000000000E+03 0. -1.
<mgrwt>
<rscale>  2 0.42654504E+03</rscale>
<asrwt>0</asrwt>
<pdfrwt beam="1">  1       21 0.39462418E-01 0.42654504E+03</pdfrwt>
<pdfrwt beam="2">  1       21 0.11012929E+00 0.42654504E+03</pdfrwt>
<totfact> 0.35420668E+03</totfact>
</mgrwt>
</event>
<event>
 4    1  0.4918322E-002  0.4526356E+03  0.7818608E-02  0.1026939E+00
         21   -1    0    0  503  502  0.00000000000E+00  0.00000000000E+00  0.11379329698E+04  0.11379329698E+04  0.00000000000E+00 0. -1.
         21   -1    0    0  501  503 -0.00000000000E+00 -0.00000000000E+00 -0.28187341426E+03  0.28187341426E+03  0.00000000000E+00 0.  1.
    9000007    1    1    2  501    0 -0.17233897116E+03  0.12320014245E+03  0.13453099913E+01  0.45263760995E+03  0.40000000000E+03 0.  1.
   -9000007    1    1    2    0  502  0.17233897116E+03 -0.12320014245E+03  0.85471424553E+03  0.96716877410E+03  0.40000000000E+03 0. -1.
<mgrwt>
<rscale>  2 0.45263561E+03</rscale>
<asrwt>0</asrwt>
<pdfrwt beam="1">  1       21 0.17506661E+00 0.45263561E+03</pdfrwt>
<pdfrwt beam="2">  1       21 0.43365141E-01 0.45263561E+03</pdfrwt>
<totfact> 0.84087095E+02</totfact>
</mgrwt>
</event>
<event>
 4    1  0.4918322E-002  0.4403129E+03  0.7818608E-02  0.1030651E+00
         21   -1    0    0  503  502  0.00000000000E+00  0.00000000000E+00  0.97419352173E+03  0.97419352173E+03  0.00000000000E+00 0. -1.
         21   -1    0    0  501  503 -0.00000000000E+00 -0.00000000000E+00 -0.60205861618E+03  0.60205861618E+03  0.00000000000E+00 0. -1.
    9000007    1    1    2  501    0  0.73525697016E+02 -0.16872871755E+03 -0.45877613124E+03  0.63588595428E+03  0.40000000000E+03 0. -1.
   -9000007    1    1    2    0  502 -0.73525697016E+02  0.16872871755E+03  0.83091103680E+03  0.94036618363E+03  0.40000000000E+03 0. -1.
<mgrwt>
<rscale>  2 0.44031285E+03</rscale>
<asrwt>0</asrwt>
<pdfrwt beam="1">  1       21 0.14987593E+00 0.44031285E+03</pdfrwt>
<pdfrwt beam="2">  1       21 0.92624402E-01 0.44031285E+03</pdfrwt>
<totfact> 0.24254884E+02</totfact>
</mgrwt>
</event>
<event>
 4    1  0.4918322E-002  0.4439532E+03  0.7818608E-02  0.1029541E+00
         21   -1    0    0  501  502  0.00000000000E+00  0.00000000000E+00  0.94177309531E+03  0.94177309531E+03  0.00000000000E+00 0. -1.
         21   -1    0    0  502  503 -0.00000000000E+00 -0.00000000000E+00 -0.41529161903E+03  0.41529161903E+03  0.00000000000E+00 0. -1.
    9000007    1    1    2  501    0 -0.53079101361E+02  0.18514053137E+03  0.74114366134E+03  0.86393769110E+03  0.40000000000E+03 0. -1.
   -9000007    1    1    2    0  503  0.53079101361E+02 -0.18514053137E+03 -0.21466218506E+03  0.49312702324E+03  0.40000000000E+03 0. -1.
<mgrwt>
<rscale>  2 0.44395316E+03</rscale>
<asrwt>0</asrwt>
<pdfrwt beam="1">  1       21 0.14488817E+00 0.44395316E+03</pdfrwt>
<pdfrwt beam="2">  1       21 0.63891019E-01 0.44395316E+03</pdfrwt>
<totfact> 0.62185712E+02</totfact>
</mgrwt>
</event>
<event>
 4    1  0.4918322E-002  0.4077198E+03  0.7818608E-02  0.1041139E+00
         21   -1    0    0  503  502  0.00000000000E+00  0.00000000000E+00  0.73115572369E+03  0.73115572369E+03  0.00000000000E+00 0.  1.
         21   -1    0    0  501  503 -0.00000000000E+00 -0.00000000000E+00 -0.24757446030E+03  0.24757446030E+03  0.00000000000E+00 0.  1.
    9000007    1    1    2  501    0 -0.55248346234E+02  0.56418543504E+02  0.10195652798E+03  0.42027439300E+03  0.40000000000E+03 0.  1.
   -9000007    1    1    2    0  502  0.55248346234E+02 -0.56418543504E+02  0.38162473541E+03  0.55845579099E+03  0.40000000000E+03 0.  1.
<mgrwt>
<rscale>  2 0.40771980E+03</rscale>
<asrwt>0</asrwt>
<pdfrwt beam="1">  1       21 0.11248549E+00 0.40771980E+03</pdfrwt>
<pdfrwt beam="2">  1       21 0.38088379E-01 0.40771980E+03</pdfrwt>
<totfact> 0.36396001E+03</totfact>
</mgrwt>
</event>
<event>
 4    1  0.4918322E-002  0.4346974E+03  0.7818608E-02  0.1032386E+00
         21   -1    0    0  501  502  0.00000000000E+00  0.00000000000E+00  0.57138311759E+03  0.57138311759E+03  0.00000000000E+00 0. -1.
         21   -1    0    0  502  503 -0.00000000000E+00 -0.00000000000E+00 -0.44381369561E+03  0.44381369561E+03  0.00000000000E+00 0.  1.
    9000007    1    1    2  501    0 -0.13182995318E+03  0.10762288381E+03  0.32003199412E+03  0.53979838730E+03  0.40000000000E+03 0. -1.
   -9000007    1    1    2    0  503  0.13182995318E+03 -0.10762288381E+03 -0.19246257214E+03  0.47539842590E+03  0.40000000000E+03 0.  1.
<mgrwt>
<rscale>  2 0.43469739E+03</rscale>
<asrwt>0</asrwt>
<pdfrwt beam="1">  1       21 0.87905095E-01 0.43469739E+03</pdfrwt>
<pdfrwt beam="2">  1       21 0.68279030E-01 0.43469739E+03</pdfrwt>
<totfact> 0.18826308E+03</totfact>
</mgrwt>
</event>
<event>
 4    1  0.4918322E-002  0.4004387E+03  0.7818608E-02  0.1043628E+00
         21   -1    0    0  503  502  0.00000000000E+00  0.00000000000E+00  0.18608153141E+03  0.18608153141E+03  0.00000000000E+00 0. -1.
         21   -1    0    0  501  503 -0.00000000000E+00 -0.00000000000E+00 -0.86200606481E+03  0.86200606481E+03  0.00000000000E+00 0. -1.
    9000007    1    1    2  501    0 -0.66816455308E+01 -0.17508126962E+02 -0.32850600081E+03  0.51794533637E+03  0.40000000000E+03 0.  1.
   -9000007    1    1    2    0  502  0.66816455308E+01  0.17508126962E+02 -0.34741853259E+03  0.53014225985E+03  0.40000000000E+03 0.  1.
<mgrwt>
<rscale>  2 0.40043873E+03</rscale>
<asrwt>0</asrwt>
<pdfrwt beam="1">  1       21 0.28627928E-01 0.40043873E+03</pdfrwt>
<pdfrwt beam="2">  1       21 0.13261632E+00 0.40043873E+03</pdfrwt>
<totfact> 0.42575428E+03</totfact>
</mgrwt>
</event>
<event>
 4    1  0.4918322E-002  0.4188762E+03  0.7818608E-02  0.1037433E+00
         21   -1    0    0  501  502  0.00000000000E+00  0.00000000000E+00  0.42874407112E+03  0.42874407112E+03  0.00000000000E+00 0.  1.
         21   -1    0    0  502  503 -0.00000000000E+00 -0.00000000000E+00 -0.53419778057E+03  0.53419778057E+03  0.00000000000E+00 0.  1.
    9000007    1    1    2  501    0 -0.72302295603E+02  0.10114164215E+03  0.18014052853E+03  0.45596914780E+03  0.40000000000E+03 0.  1.
   -9000007    1    1    2    0  503  0.72302295603E+02 -0.10114164215E+03 -0.28559423797E+03  0.50697270389E+03  0.40000000000E+03 0.  1.
<mgrwt>
<rscale>  2 0.41887618E+03</rscale>
<asrwt>0</asrwt>
<pdfrwt beam="1">  1       21 0.65960626E-01 0.41887618E+03</pdfrwt>
<pdfrwt beam="2">  1       21 0.82184274E-01 0.41887618E+03</pdfrwt>
<totfact> 0.23946117E+03</totfact>
</mgrwt>
</event>
<event>
 4    1  0.4918322E-002  0.4130053E+03  0.7818608E-02  0.1039367E+00
         21   -1    0    0  501  502  0.00000000000E+00  0.00000000000E+00  0.13809672966E+04  0.13809672966E+04  0.00000000000E+00 0.  1.
         21   -1    0    0  502  503 -0.00000000000E+00 -0.00000000000E+00 -0.41917877606E+03  0.41917877606E+03  0.00000000000E+00 0.  1.
    9000007    1    1    2  501    0 -0.96135065895E+02  0.36488865707E+02  0.12368136059E+04  0.13039483441E+04  0.40000000000E+03 0.  1.
   -9000007    1    1    2    0  503  0.96135065895E+02 -0.36488865707E+02 -0.27502508542E+03  0.49619772856E+03  0.40000000000E+03 0.  1.
<mgrwt>
<rscale>  2 0.41300531E+03</rscale>
<asrwt>0</asrwt>
<pdfrwt beam="1">  1       21 0.21245650E+00 0.41300531E+03</pdfrwt>
<pdfrwt beam="2">  1       21 0.64489043E-01 0.41300531E+03</pdfrwt>
<totfact> 0.20429736E+02</totfact>
</mgrwt>
</event>
<event>
 4    1  0.4918322E-002  0.5039834E+03  0.7818608E-02  0.1012744E+00
         21   -1    0    0  503  502  0.00000000000E+00  0.00000000000E+00  0.28604605656E+03  0.28604605656E+03  0.00000000000E+00 0.  1.
         21   -1    0    0  501  503 -0.00000000000E+00 -0.00000000000E+00 -0.10463030156E+04  0.10463030156E+04  0.00000000000E+00 0. -1.
    9000007    1    1    2  501    0 -0.69706043311E+02 -0.29856381877E+03 -0.63927773896E+03  0.81404871714E+03  0.40000000000E+03 0.  1.
   -9000007    1    1    2    0  502  0.69706043311E+02  0.29856381877E+03 -0.12097922013E+03  0.51830035506E+03  0.40000000000E+03 0. -1.
<mgrwt>
<rscale>  2 0.50398342E+03</rscale>
<asrwt>0</asrwt>
<pdfrwt beam="1">  1       21 0.44007086E-01 0.50398342E+03</pdfrwt>
<pdfrwt beam="2">  1       21 0.16096969E+00 0.50398342E+03</pdfrwt>
<totfact> 0.10132189E+03</totfact>
</mgrwt>
</event>
<event>
 4    1  0.4918322E-002  0.5516727E+03  0.7818608E-02  0.1001108E+00
         21   -1    0    0  501  502  0.00000000000E+00  0.00000000000E+00  0.59859252300E+03  0.59859252300E+03  0.00000000000E+00 0. -1.
         21   -1    0    0  502  503 -0.00000000000E+00 -0.00000000000E+00 -0.63268318570E+03  0.63268318570E+03  0.00000000000E+00 0. -1.
    9000007    1    1    2  501    0 -0.25287363509E+03  0.28354481990E+03  0.25578015126E+03  0.60808406162E+03  0.40000000000E+03 0. -1.
   -9000007    1    1    2    0  503  0.25287363509E+03 -0.28354481990E+03 -0.28987081396E+03  0.62319164709E+03  0.40000000000E+03 0. -1.
<mgrwt>
<rscale>  2 0.55167267E+03</rscale>
<asrwt>0</asrwt>
<pdfrwt beam="1">  1       21 0.92091157E-01 0.55167267E+03</pdfrwt>
<pdfrwt beam="2">  1       21 0.97335875E-01 0.55167267E+03</pdfrwt>
<totfact> 0.70773590E+02</totfact>
</mgrwt>
</event>
<event>
 4    1  0.4918322E-002  0.4015940E+03  0.7818608E-02  0.1043229E+00
         21   -1    0    0  501  502  0.00000000000E+00  0.00000000000E+00  0.38958071079E+03  0.38958071079E+03  0.00000000000E+00 0. -1.
         21   -1    0    0  502  503 -0.00000000000E+00 -0.00000000000E+00 -0.50518463936E+03  0.50518463936E+03  0.00000000000E+00 0. -1.
    9000007    1    1    2  501    0  0.26336070688E+02 -0.24169018551E+02  0.13229186250E+03  0.42282250054E+03  0.40000000000E+03 0. -1.
   -9000007    1    1    2    0  503 -0.26336070688E+02  0.24169018551E+02 -0.24789579107E+03  0.47194284962E+03  0.40000000000E+03 0. -1.
<mgrwt>
<rscale>  2 0.40159399E+03</rscale>
<asrwt>0</asrwt>
<pdfrwt beam="1">  1       21 0.59935494E-01 0.40159399E+03</pdfrwt>
<pdfrwt beam="2">  1       21 0.77720713E-01 0.40159399E+03</pdfrwt>
<totfact> 0.33869560E+03</totfact>
</mgrwt>
</event>
<event>
 4    1  0.4918322E-002  0.4634687E+03  0.7818608E-02  0.1023780E+00
         21   -1    0    0  501  502  0.00000000000E+00  0.00000000000E+00  0.34148117140E+03  0.34148117140E+03  0.00000000000E+00 0. -1.
         21   -1    0    0  502  503 -0.00000000000E+00 -0.00000000000E+00 -0.97857739231E+03  0.97857739231E+03  0.00000000000E+00 0. -1.
    9000007    1    1    2  501    0 -0.13202385161E+02 -0.23372831489E+03  0.75923936289E+02  0.46964632678E+03  0.40000000000E+03 0. -1.
   -9000007    1    1    2    0  503  0.13202385161E+02  0.23372831489E+03 -0.71302015720E+03  0.85041223693E+03  0.40000000000E+03 0. -1.
<mgrwt>
<rscale>  2 0.46346869E+03</rscale>
<asrwt>0</asrwt>
<pdfrwt beam="1">  1       21 0.52535565E-01 0.46346869E+03</pdfrwt>
<pdfrwt beam="2">  1       21 0.15055037E+00 0.46346869E+03</pdfrwt>
<totfact> 0.85138547E+02</totfact>
</mgrwt>
</event>
<event>
 4    1  0.4918322E-002  0.4275823E+03  0.7818608E-02  0.1034626E+00
         21   -1    0    0  501  502  0.00000000000E+00  0.00000000000E+00  0.28293151016E+03  0.28293151016E+03  0.00000000000E+00 0. -1.
         21   -1    0    0  502  503 -0.00000000000E+00 -0.00000000000E+00 -0.10571825195E+04  0.10571825195E+04  0.00000000000E+00 0. -1.
    9000007    1    1    2  501    0 -0.67230713430E+02  0.13530204474E+03  0.30661966061E+02  0.42868026348E+03  0.40000000000E+03 0. -1.
   -9000007    1    1    2    0  503  0.67230713430E+02 -0.13530204474E+03 -0.80491297541E+03  0.91143376617E+03  0.40000000000E+03 0. -1.
<mgrwt>
<rscale>  2 0.42758229E+03</rscale>
<asrwt>0</asrwt>
<pdfrwt beam="1">  1       21 0.43527925E-01 0.42758229E+03</pdfrwt>
<pdfrwt beam="2">  1       21 0.16264346E+00 0.42758229E+03</pdfrwt>
<totfact> 0.10399093E+03</totfact>
</mgrwt>
</event>
<event>
 4    1  0.4918322E-002  0.4566958E+03  0.7818608E-02  0.1025744E+00
         21   -1    0    0  501  502  0.00000000000E+00  0.00000000000E+00  0.16450205954E+04  0.16450205954E+04  0.00000000000E+00 0.  1.
         21   -1    0    0  502  503 -0.00000000000E+00 -0.00000000000E+00 -0.12853097680E+03  0.12853097680E+03  0.00000000000E+00 0.  1.
    9000007    1    1    2  501    0 -0.12459304244E+03  0.18179010627E+03  0.65501878054E+03  0.79851153518E+03  0.40000000000E+03 0.  1.
   -9000007    1    1    2    0  503  0.12459304244E+03 -0.18179010627E+03  0.86147083808E+03  0.97504003703E+03  0.40000000000E+03 0.  1.
<mgrwt>
<rscale>  2 0.45669582E+03</rscale>
<asrwt>0</asrwt>
<pdfrwt beam="1">  1       21 0.25308008E+00 0.45669582E+03</pdfrwt>
<pdfrwt beam="2">  1       21 0.19773998E-01 0.45669582E+03</pdfrwt>
<totfact> 0.12348535E+03</totfact>
</mgrwt>
</event>
<event>
 4    1  0.4918322E-002  0.4746481E+03  0.7818608E-02  0.1020616E+00
         21   -1    0    0  503  502  0.00000000000E+00  0.00000000000E+00  0.32550289658E+03  0.32550289658E+03  0.00000000000E+00 0.  1.
         21   -1    0    0  501  503 -0.00000000000E+00 -0.00000000000E+00 -0.69543064945E+03  0.69543064945E+03  0.00000000000E+00 0.  1.
    9000007    1    1    2  501    0 -0.78188734852E+01 -0.25540096462E+03 -0.14980413149E+03  0.49772689833E+03  0.40000000000E+03 0.  1.
   -9000007    1    1    2    0  502  0.78188734852E+01  0.25540096462E+03 -0.22012362138E+03  0.52320664770E+03  0.40000000000E+03 0.  1.
<mgrwt>
<rscale>  2 0.47464807E+03</rscale>
<asrwt>0</asrwt>
<pdfrwt beam="1">  1       21 0.50077369E-01 0.47464807E+03</pdfrwt>
<pdfrwt beam="2">  1       21 0.10698933E+00 0.47464807E+03</pdfrwt>
<totfact> 0.22718718E+03</totfact>
</mgrwt>
</event>
<event>
 4    1  0.4918322E-002  0.4524472E+03  0.7818608E-02  0.1026995E+00
         21   -1    0    0  501  502  0.00000000000E+00  0.00000000000E+00  0.29091226829E+03  0.29091226829E+03  0.00000000000E+00 0. -1.
         21   -1    0    0  502  503 -0.00000000000E+00 -0.00000000000E+00 -0.12284953214E+04  0.12284953214E+04  0.00000000000E+00 0. -1.
    9000007    1    1    2  501    0  0.20427212364E+03 -0.54601508192E+02  0.27757138556E+02  0.45329778726E+03  0.40000000000E+03 0. -1.
   -9000007    1    1    2    0  503 -0.20427212364E+03  0.54601508192E+02 -0.96534019166E+03  0.10661098024E+04  0.40000000000E+03 0. -1.
<mgrwt>
<rscale>  2 0.45244715E+03</rscale>
<asrwt>0</asrwt>
<pdfrwt beam="1">  1       21 0.44755733E-01 0.45244715E+03</pdfrwt>
<pdfrwt beam="2">  1       21 0.18899928E+00 0.45244715E+03</pdfrwt>
<totfact> 0.62875973E+02</totfact>
</mgrwt>
</event>
<event>
 4    1  0.4918322E-002  0.4349019E+03  0.7818608E-02  0.1032323E+00
         21   -1    0    0  503  502  0.00000000000E+00  0.00000000000E+00  0.11413154106E+04  0.11413154106E+04  0.00000000000E+00 0.  1.
         21   -1    0    0  501  503 -0.00000000000E+00 -0.00000000000E+00 -0.17586086022E+03  0.17586086022E+03  0.00000000000E+00 0.  1.
    9000007    1    1    2  501    0 -0.15853973055E+03  0.63283646699E+02  0.32458416952E+03  0.54267351990E+03  0.40000000000E+03 0.  1.
   -9000007    1    1    2    0  502  0.15853973055E+03 -0.63283646699E+02  0.64087038083E+03  0.77450275089E+03  0.40000000000E+03 0.  1.
<mgrwt>
<rscale>  2 0.43490190E+03</rscale>
<asrwt>0</asrwt>
<pdfrwt beam="1">  1       21 0.17558698E+00 0.43490190E+03</pdfrwt>
<pdfrwt beam="2">  1       21 0.27055518E-01 0.43490190E+03</pdfrwt>
<totfact> 0.21784793E+03</totfact>
</mgrwt>
</event>
<event>
 4    1  0.4918322E-002  0.4006007E+03  0.7818608E-02  0.1043572E+00
         21   -1    0    0  501  502  0.00000000000E+00  0.00000000000E+00  0.11916159355E+04  0.11916159355E+04  0.00000000000E+00 0. -1.
         21   -1    0    0  502  503 -0.00000000000E+00 -0.00000000000E+00 -0.13854080312E+03  0.13854080312E+03  0.00000000000E+00 0. -1.
    9000007    1    1    2  501    0  0.18496057614E+02 -0.11782762511E+02  0.41544092257E+03  0.57712398822E+03  0.40000000000E+03 0.  1.
   -9000007    1    1    2    0  503 -0.18496057614E+02  0.11782762511E+02  0.63763420984E+03  0.75303275042E+03  0.40000000000E+03 0.  1.
<mgrwt>
<rscale>  2 0.40060072E+03</rscale>
<asrwt>0</asrwt>
<pdfrwt beam="1">  1       21 0.18332552E+00 0.40060072E+03</pdfrwt>
<pdfrwt beam="2">  1       21 0.21313971E-01 0.40060072E+03</pdfrwt>
<totfact> 0.30942524E+03</totfact>
</mgrwt>
</event>
<event>
 4    1  0.4918322E-002  0.4439160E+03  0.7818608E-02  0.1029552E+00
         21   -1    0    0  501  502  0.00000000000E+00  0.00000000000E+00  0.14192667752E+04  0.14192667752E+04  0.00000000000E+00 0.  1.
         21   -1    0    0  502  503 -0.00000000000E+00 -0.00000000000E+00 -0.16123429989E+03  0.16123429989E+03  0.00000000000E+00 0.  1.
    9000007    1    1    2  501    0 -0.48214483717E+02  0.18637802940E+03  0.92348125808E+03  0.10246360526E+04  0.40000000000E+03 0.  1.
   -9000007    1    1    2    0  503  0.48214483717E+02 -0.18637802940E+03  0.33455121727E+03  0.55586502252E+03  0.40000000000E+03 0.  1.
<mgrwt>
<rscale>  2 0.44391599E+03</rscale>
<asrwt>0</asrwt>
<pdfrwt beam="1">  1       21 0.21834873E+00 0.44391599E+03</pdfrwt>
<pdfrwt beam="2">  1       21 0.24805278E-01 0.44391599E+03</pdfrwt>
<totfact> 0.13246267E+03</totfact>
</mgrwt>
</event>
<event>
 4    1  0.4918322E-002  0.4139497E+03  0.7818608E-02  0.1039054E+00
         21   -1    0    0  503  502  0.00000000000E+00  0.00000000000E+00  0.58338651976E+03  0.58338651976E+03  0.00000000000E+00 0. -1.
         21   -1    0    0  501  503 -0.00000000000E+00 -0.00000000000E+00 -0.43790853520E+03  0.43790853520E+03  0.00000000000E+00 0. -1.
    9000007    1    1    2  501    0  0.91991438838E+02  0.53776479062E+02 -0.22027584476E+03  0.46890914078E+03  0.40000000000E+03 0. -1.
   -9000007    1    1    2    0  502 -0.91991438838E+02 -0.53776479062E+02  0.36575382933E+03  0.55238591418E+03  0.40000000000E+03 0. -1.
<mgrwt>
<rscale>  2 0.41394968E+03</rscale>
<asrwt>0</asrwt>
<pdfrwt beam="1">  1       21 0.89751773E-01 0.41394968E+03</pdfrwt>
<pdfrwt beam="2">  1       21 0.67370544E-01 0.41394968E+03</pdfrwt>
<totfact> 0.18624734E+03</totfact>
</mgrwt>
</event>
<event>
 4    1  0.4918322E-002  0.4040072E+03  0.7818608E-02  0.1042401E+00
         21   -1    0    0  501  502  0.00000000000E+00  0.00000000000E+00  0.13252435069E+04  0.13252435069E+04  0.00000000000E+00 0. -1.
         21   -1    0    0  502  503 -0.00000000000E+00 -0.00000000000E+00 -0.16189234594E+03  0.16189234594E+03  0.00000000000E+00 0. -1.
    9000007    1    1    2  501    0 -0.12340819332E+02 -0.55403543549E+02  0.94535928162E+03  0.10280690735E+04  0.40000000000E+03 0.  1.
   -9000007    1    1    2    0  503  0.12340819332E+02  0.55403543549E+02  0.21799187933E+03  0.45906677936E+03  0.40000000000E+03 0.  1.
<mgrwt>
<rscale>  2 0.40400724E+03</rscale>
<asrwt>0</asrwt>
<pdfrwt beam="1">  1       21 0.20388361E+00 0.40400724E+03</pdfrwt>
<pdfrwt beam="2">  1       21 0.24906516E-01 0.40400724E+03</pdfrwt>
<totfact> 0.16626598E+03</totfact>
</mgrwt>
</event>
<event>
 4    1  0.4918322E-002  0.6111589E+03  0.7818608E-02  0.9882522E-01
         21   -1    0    0  503  502  0.00000000000E+00  0.00000000000E+00  0.17863196157E+04  0.17863196157E+04  0.00000000000E+00 0.  1.
         21   -1    0    0  501  503 -0.00000000000E+00 -0.00000000000E+00 -0.34756323436E+03  0.34756323436E+03  0.00000000000E+00 0.  1.
    9000007    1    1    2  501    0 -0.33575155396E+03  0.31746829514E+03  0.45944883862E+02  0.61288347731E+03  0.40000000000E+03 0.  1.
   -9000007    1    1    2    0  502  0.33575155396E+03 -0.31746829514E+03  0.13928114975E+04  0.15209993728E+04  0.40000000000E+03 0.  1.
<mgrwt>
<rscale>  2 0.61115892E+03</rscale>
<asrwt>0</asrwt>
<pdfrwt beam="1">  1       21 0.27481840E+00 0.61115892E+03</pdfrwt>
<pdfrwt beam="2">  1       21 0.53471268E-01 0.61115892E+03</pdfrwt>
<totfact> 0.11354676E+02</totfact>
</mgrwt>
</event>
<event>
 4    1  0.4918322E-002  0.4471040E+03  0.7818608E-02  0.1028589E+00
         21   -1    0    0  501  502  0.00000000000E+00  0.00000000000E+00  0.41784088006E+03  0.41784088006E+03  0.00000000000E+00 0.  1.
         21   -1    0    0  502  503 -0.00000000000E+00 -0.00000000000E+00 -0.81041377182E+03  0.81041377182E+03  0.00000000000E+00 0.  1.
    9000007    1    1    2  501    0  0.12646498449E+03  0.15462403299E+03  0.19678568545E+03  0.48849420660E+03  0.40000000000E+03 0.  1.
   -9000007    1    1    2    0  503 -0.12646498449E+03 -0.15462403299E+03 -0.58935857721E+03  0.73976044529E+03  0.40000000000E+03 0.  1.
<mgrwt>
<rscale>  2 0.44710400E+03</rscale>
<asrwt>0</asrwt>
<pdfrwt beam="1">  1       21 0.64283213E-01 0.44710400E+03</pdfrwt>
<pdfrwt beam="2">  1       21 0.12467904E+00 0.44710400E+03</pdfrwt>
<totfact> 0.90850708E+02</totfact>
</mgrwt>
</event>
<event>
 4    1  0.4918322E-002  0.4250895E+03  0.7818608E-02  0.1035422E+00
         21   -1    0    0  503  502  0.00000000000E+00  0.00000000000E+00  0.70600361773E+03  0.70600361773E+03  0.00000000000E+00 0. -1.
         21   -1    0    0  501  503 -0.00000000000E+00 -0.00000000000E+00 -0.29792144876E+03  0.29792144876E+03  0.00000000000E+00 0. -1.
    9000007    1    1    2  501    0  0.10955142966E+03  0.93271505915E+02  0.15632221914E+02  0.42537683989E+03  0.40000000000E+03 0. -1.
   -9000007    1    1    2    0  502 -0.10955142966E+03 -0.93271505915E+02  0.39244994706E+03  0.57854822660E+03  0.40000000000E+03 0. -1.
<mgrwt>
<rscale>  2 0.42508951E+03</rscale>
<asrwt>0</asrwt>
<pdfrwt beam="1">  1       21 0.10861594E+00 0.42508951E+03</pdfrwt>
<pdfrwt beam="2">  1       21 0.45834069E-01 0.42508951E+03</pdfrwt>
<totfact> 0.26879820E+03</totfact>
</mgrwt>
</event>
<event>
 4    1  0.4918322E-002  0.4525660E+03  0.7818608E-02  0.1026960E+00
         21   -1    0    0  503  502  0.00000000000E+00  0.00000000000E+00  0.32559022397E+03  0.32559022397E+03  0.00000000000E+00 0.  1.
         21   -1    0    0  501  503 -0.00000000000E+00 -0.00000000000E+00 -0.63603456577E+03  0.63603456577E+03  0.00000000000E+00 0.  1.
    9000007    1    1    2  501    0  0.17577274574E+03 -0.11798260785E+03 -0.10487467741E+03  0.46455855590E+03  0.40000000000E+03 0. -1.
   -9000007    1    1    2    0  502 -0.17577274574E+03  0.11798260785E+03 -0.20556966439E+03  0.49706623383E+03  0.40000000000E+03 0. -1.
<mgrwt>
<rscale>  2 0.45256597E+03</rscale>
<asrwt>0</asrwt>
<pdfrwt beam="1">  1       21 0.50090804E-01 0.45256597E+03</pdfrwt>
<pdfrwt beam="2">  1       21 0.97851472E-01 0.45256597E+03</pdfrwt>
<totfact> 0.28473712E+03</totfact>
</mgrwt>
</event>
<event>
 4    1  0.4918322E-002  0.7508070E+03  0.7818608E-02  0.9634085E-01
         21   -1    0    0  501  502  0.00000000000E+00  0.00000000000E+00  0.55742612426E+03  0.55742612426E+03  0.00000000000E+00 0.  1.
         21   -1    0    0  502  503 -0.00000000000E+00 -0.00000000000E+00 -0.11115589901E+04  0.11115589901E+04  0.00000000000E+00 0. -1.
    9000007    1    1    2  501    0  0.63144440355E+03 -0.70633217358E+02 -0.26413909646E+02  0.75127144282E+03  0.40000000000E+03 0.  1.
   -9000007    1    1    2    0  503 -0.63144440355E+03  0.70633217358E+02 -0.52771895616E+03  0.91771367150E+03  0.40000000000E+03 0.  1.
<mgrwt>
<rscale>  2 0.75080696E+03</rscale>
<asrwt>0</asrwt>
<pdfrwt beam="1">  1       21 0.85757867E-01 0.75080696E+03</pdfrwt>
<pdfrwt beam="2">  1       21 0.17100907E+00 0.75080696E+03</pdfrwt>
<totfact> 0.17825685E+02</totfact>
</mgrwt>
</event>
<event>
 4    1  0.4918322E-002  0.4793318E+03  0.7818608E-02  0.1019319E+00
         21   -1    0    0  501  502  0.00000000000E+00  0.00000000000E+00  0.49674997546E+03  0.49674997546E+03  0.00000000000E+00 0.  1.
         21   -1    0    0  502  503 -0.00000000000E+00 -0.00000000000E+00 -0.48607216864E+03  0.48607216864E+03  0.00000000000E+00 0.  1.
    9000007    1    1    2  501    0  0.19949236446E+02 -0.26336468599E+03  0.11349984302E+03  0.49258617949E+03  0.40000000000E+03 0.  1.
   -9000007    1    1    2    0  503 -0.19949236446E+02  0.26336468599E+03 -0.10282203620E+03  0.49023596460E+03  0.40000000000E+03 0.  1.
<mgrwt>
<rscale>  2 0.47933175E+03</rscale>
<asrwt>0</asrwt>
<pdfrwt beam="1">  1       21 0.76423074E-01 0.47933175E+03</pdfrwt>
<pdfrwt beam="2">  1       21 0.74780333E-01 0.47933175E+03</pdfrwt>
<totfact> 0.20867818E+03</totfact>
</mgrwt>
</event>
<event>
 4    1  0.4918322E-002  0.4679409E+03  0.7818608E-02  0.1022503E+00
         21   -1    0    0  501  502  0.00000000000E+00  0.00000000000E+00  0.65442509446E+03  0.65442509446E+03  0.00000000000E+00 0.  1.
         21   -1    0    0  502  503 -0.00000000000E+00 -0.00000000000E+00 -0.34478092314E+03  0.34478092314E+03  0.00000000000E+00 0. -1.
    9000007    1    1    2  501    0  0.15758039450E+03 -0.18476220529E+03  0.24068618967E+03  0.52621145477E+03  0.40000000000E+03 0.  1.
   -9000007    1    1    2    0  503 -0.15758039450E+03  0.18476220529E+03  0.68957981646E+02  0.47299456283E+03  0.40000000000E+03 0. -1.
<mgrwt>
<rscale>  2 0.46794087E+03</rscale>
<asrwt>0</asrwt>
<pdfrwt beam="1">  1       21 0.10068078E+00 0.46794087E+03</pdfrwt>
<pdfrwt beam="2">  1       21 0.53043219E-01 0.46794087E+03</pdfrwt>
<totfact> 0.23380584E+03</totfact>
</mgrwt>
</event>
<event>
 4    1  0.4918322E-002  0.4500138E+03  0.7818608E-02  0.1027718E+00
         21   -1    0    0  501  502  0.00000000000E+00  0.00000000000E+00  0.53101976246E+03  0.53101976246E+03  0.00000000000E+00 0. -1.
         21   -1    0    0  502  503 -0.00000000000E+00 -0.00000000000E+00 -0.43869419943E+03  0.43869419943E+03  0.00000000000E+00 0. -1.
    9000007    1    1    2  501    0  0.20469819795E+03  0.24719651653E+02  0.22143787414E+03  0.50154475924E+03  0.40000000000E+03 0. -1.
   -9000007    1    1    2    0  503 -0.20469819795E+03 -0.24719651653E+02 -0.12911231111E+03  0.46816920264E+03  0.40000000000E+03 0. -1.
<mgrwt>
<rscale>  2 0.45001379E+03</rscale>
<asrwt>0</asrwt>
<pdfrwt beam="1">  1       21 0.81695348E-01 0.45001379E+03</pdfrwt>
<pdfrwt beam="2">  1       21 0.67491415E-01 0.45001379E+03</pdfrwt>
<totfact> 0.22797498E+03</totfact>
</mgrwt>
</event>
<event>
 4    1  0.4918322E-002  0.4370656E+03  0.7818608E-02  0.1031651E+00
         21   -1    0    0  501  502  0.00000000000E+00  0.00000000000E+00  0.82915619742E+03  0.82915619742E+03  0.00000000000E+00 0. -1.
         21   -1    0    0  502  503 -0.00000000000E+00 -0.00000000000E+00 -0.38032616675E+03  0.38032616675E+03  0.00000000000E+00 0.  1.
    9000007    1    1    2  501    0 -0.16343302996E+03 -0.65695953822E+02  0.60412310762E+03  0.74564806900E+03  0.40000000000E+03 0. -1.
   -9000007    1    1    2    0  503  0.16343302996E+03  0.65695953822E+02 -0.15529307695E+03  0.46383429518E+03  0.40000000000E+03 0.  1.
<mgrwt>
<rscale>  2 0.43706557E+03</rscale>
<asrwt>0</asrwt>
<pdfrwt beam="1">  1       21 0.12756249E+00 0.43706557E+03</pdfrwt>
<pdfrwt beam="2">  1       21 0.58511718E-01 0.43706557E+03</pdfrwt>
<totfact> 0.10579558E+03</totfact>
</mgrwt>
</event>
<event>
 4    1  0.4918322E-002  0.5266629E+03  0.7818608E-02  0.1007045E+00
         21   -1    0    0  501  502  0.00000000000E+00  0.00000000000E+00  0.23194180175E+03  0.23194180175E+03  0.00000000000E+00 0. -1.
         21   -1    0    0  502  503 -0.00000000000E+00 -0.00000000000E+00 -0.20731363558E+04  0.20731363558E+04  0.00000000000E+00 0.  1.
    9000007    1    1    2  501    0  0.83288707034E+02  0.33232032299E+03 -0.17086571421E+03  0.55368664250E+03  0.40000000000E+03 0. -1.
   -9000007    1    1    2    0  503 -0.83288707034E+02 -0.33232032299E+03 -0.16703288398E+04  0.17513915151E+04  0.40000000000E+03 0.  1.
<mgrwt>
<rscale>  2 0.52666290E+03</rscale>
<asrwt>0</asrwt>
<pdfrwt beam="1">  1       21 0.35683353E-01 0.52666290E+03</pdfrwt>
<pdfrwt beam="2">  1       21 0.31894406E+00 0.52666290E+03</pdfrwt>
<totfact> 0.14894036E+02</totfact>
</mgrwt>
</event>
<event>
 4    1  0.4918322E-002  0.4058787E+03  0.7818608E-02  0.1041763E+00
         21   -1    0    0  501  502  0.00000000000E+00  0.00000000000E+00  0.32491453241E+03  0.32491453241E+03  0.00000000000E+00 0.  1.
         21   -1    0    0  502  503 -0.00000000000E+00 -0.00000000000E+00 -0.73241228454E+03  0.73241228454E+03  0.00000000000E+00 0.  1.
    9000007    1    1    2  501    0 -0.68554428455E+02 -0.61456591961E+01  0.89524745892E+02  0.41563464595E+03  0.40000000000E+03 0.  1.
   -9000007    1    1    2    0  503  0.68554428455E+02  0.61456591961E+01 -0.49702249802E+03  0.64169217100E+03  0.40000000000E+03 0.  1.
<mgrwt>
<rscale>  2 0.40587865E+03</rscale>
<asrwt>0</asrwt>
<pdfrwt beam="1">  1       21 0.49986852E-01 0.40587865E+03</pdfrwt>
<pdfrwt beam="2">  1       21 0.11267881E+00 0.40587865E+03</pdfrwt>
<totfact> 0.20596504E+03</totfact>
</mgrwt>
</event>
<event>
 4    1  0.4918322E-002  0.6618424E+03  0.7818608E-02  0.9784808E-01
         21   -1    0    0  503  502  0.00000000000E+00  0.00000000000E+00  0.15781360045E+04  0.15781360045E+04  0.00000000000E+00 0.  1.
         21   -1    0    0  501  503 -0.00000000000E+00 -0.00000000000E+00 -0.27974743485E+03  0.27974743485E+03  0.00000000000E+00 0. -1.
    9000007    1    1    2  501    0  0.19243524024E+03 -0.49092156435E+03  0.56714457153E+03  0.87160098041E+03  0.40000000000E+03 0. -1.
   -9000007    1    1    2    0  502 -0.19243524024E+03  0.49092156435E+03  0.73124399807E+03  0.98628245890E+03  0.40000000000E+03 0. -1.
<mgrwt>
<rscale>  2 0.66184236E+03</rscale>
<asrwt>0</asrwt>
<pdfrwt beam="1">  1       21 0.24279015E+00 0.66184236E+03</pdfrwt>
<pdfrwt beam="2">  1       21 0.43038068E-01 0.66184236E+03</pdfrwt>
<totfact> 0.27910494E+02</totfact>
</mgrwt>
</event>
<event>
 4    1  0.4918322E-002  0.6171395E+03  0.7818608E-02  0.9870471E-01
         21   -1    0    0  503  502  0.00000000000E+00  0.00000000000E+00  0.14222306683E+04  0.14222306683E+04  0.00000000000E+00 0. -1.
         21   -1    0    0  501  503 -0.00000000000E+00 -0.00000000000E+00 -0.28537433176E+03  0.28537433176E+03  0.00000000000E+00 0.  1.
    9000007    1    1    2  501    0 -0.45436099555E+03 -0.12007208976E+03  0.35649695436E+03  0.71270702220E+03  0.40000000000E+03 0.  1.
   -9000007    1    1    2    0  502  0.45436099555E+03  0.12007208976E+03  0.78035938219E+03  0.99489797788E+03  0.40000000000E+03 0. -1.
<mgrwt>
<rscale>  2 0.61713955E+03</rscale>
<asrwt>0</asrwt>
<pdfrwt beam="1">  1       21 0.21880471E+00 0.61713955E+03</pdfrwt>
<pdfrwt beam="2">  1       21 0.43903744E-01 0.61713955E+03</pdfrwt>
<totfact> 0.38705916E+02</totfact>
</mgrwt>
</event>
<event>
 4    1  0.4918322E-002  0.4871450E+03  0.7818608E-02  0.1017190E+00
         21   -1    0    0  501  502  0.00000000000E+00  0.00000000000E+00  0.40030187893E+03  0.40030187893E+03  0.00000000000E+00 0. -1.
         21   -1    0    0  502  503 -0.00000000000E+00 -0.00000000000E+00 -0.69158746629E+03  0.69158746629E+03  0.00000000000E+00 0. -1.
    9000007    1    1    2  501    0  0.24508363605E+03  0.13131754516E+03  0.60664110090E+02  0.49090775160E+03  0.40000000000E+03 0. -1.
   -9000007    1    1    2    0  503 -0.24508363605E+03 -0.13131754516E+03 -0.35194969745E+03  0.60098159361E+03  0.40000000000E+03 0. -1.
<mgrwt>
<rscale>  2 0.48714504E+03</rscale>
<asrwt>0</asrwt>
<pdfrwt beam="1">  1       21 0.61584905E-01 0.48714504E+03</pdfrwt>
<pdfrwt beam="2">  1       21 0.10639807E+00 0.48714504E+03</pdfrwt>
<totfact> 0.14647120E+03</totfact>
</mgrwt>
</event>
<event>
 4    1  0.4918322E-002  0.4914307E+03  0.7818608E-02  0.1016040E+00
         21   -1    0    0  501  502  0.00000000000E+00  0.00000000000E+00  0.18774679551E+04  0.18774679551E+04  0.00000000000E+00 0.  1.
         21   -1    0    0  502  503 -0.00000000000E+00 -0.00000000000E+00 -0.22314980653E+03  0.22314980653E+03  0.00000000000E+00 0.  1.
    9000007    1    1    2  501    0 -0.11618275214E+03 -0.26077896183E+03  0.15107142715E+04  0.15886351717E+04  0.40000000000E+03 0.  1.
   -9000007    1    1    2    0  503  0.11618275214E+03  0.26077896183E+03  0.14360387709E+03  0.51198258988E+03  0.40000000000E+03 0.  1.
<mgrwt>
<rscale>  2 0.49143067E+03</rscale>
<asrwt>0</asrwt>
<pdfrwt beam="1">  1       21 0.28884121E+00 0.49143067E+03</pdfrwt>
<pdfrwt beam="2">  1       21 0.34330741E-01 0.49143067E+03</pdfrwt>
<totfact> 0.24964819E+02</totfact>
</mgrwt>
</event>
<event>
 4    1  0.4918322E-002  0.6337725E+03  0.7818608E-02  0.9837715E-01
         21   -1    0    0  503  502  0.00000000000E+00  0.00000000000E+00  0.60355658526E+03  0.60355658526E+03  0.00000000000E+00 0. -1.
         21   -1    0    0  501  503 -0.00000000000E+00 -0.00000000000E+00 -0.12197324785E+04  0.12197324785E+04  0.00000000000E+00 0.  1.
    9000007    1    1    2  501    0 -0.17842688885E+03  0.45807360646E+03 -0.92261185570E+03  0.11193213211E+04  0.40000000000E+03 0.  1.
   -9000007    1    1    2    0  502  0.17842688885E+03 -0.45807360646E+03  0.30643596246E+03  0.70396774265E+03  0.40000000000E+03 0. -1.
<mgrwt>
<rscale>  2 0.63377250E+03</rscale>
<asrwt>0</asrwt>
<pdfrwt beam="1">  1       21 0.92854859E-01 0.63377250E+03</pdfrwt>
<pdfrwt beam="2">  1       21 0.18765115E+00 0.63377250E+03</pdfrwt>
<totfact> 0.11649507E+02</totfact>
</mgrwt>
</event>
<event>
 4    1  0.4918322E-002  0.4476371E+03  0.7818608E-02  0.1028429E+00
         21   -1    0    0  501  502  0.00000000000E+00  0.00000000000E+00  0.95049325171E+02  0.95049325171E+02  0.00000000000E+00 0. -1.
         21   -1    0    0  502  503 -0.00000000000E+00 -0.00000000000E+00 -0.21796499947E+04  0.21796499947E+04  0.00000000000E+00 0. -1.
    9000007    1    1    2  501    0  0.16209240292E+03 -0.11876452629E+03 -0.12482829000E+04  0.13261180786E+04  0.40000000000E+03 0. -1.
   -9000007    1    1    2    0  503 -0.16209240292E+03  0.11876452629E+03 -0.83631776952E+03  0.94858124133E+03  0.40000000000E+03 0. -1.
<mgrwt>
<rscale>  2 0.44763708E+03</rscale>
<asrwt>0</asrwt>
<pdfrwt beam="1">  1       21 0.14622974E-01 0.44763708E+03</pdfrwt>
<pdfrwt beam="2">  1       21 0.33533074E+00 0.44763708E+03</pdfrwt>
<totfact> 0.69571589E+02</totfact>
</mgrwt>
</event>
<event>
 4    1  0.4918322E-002  0.4050491E+03  0.7818608E-02  0.1042045E+00
         21   -1    0    0  503  502  0.00000000000E+00  0.00000000000E+00  0.43037380958E+03  0.43037380958E+03  0.00000000000E+00 0. -1.
         21   -1    0    0  501  503 -0.00000000000E+00 -0.00000000000E+00 -0.45457888806E+03  0.45457888806E+03  0.00000000000E+00 0. -1.
    9000007    1    1    2  501    0  0.41395968711E+02  0.48488744332E+02 -0.18985996445E+03  0.44733834025E+03  0.40000000000E+03 0. -1.
   -9000007    1    1    2    0  502 -0.41395968711E+02 -0.48488744332E+02  0.16565488598E+03  0.43761435740E+03  0.40000000000E+03 0. -1.
<mgrwt>
<rscale>  2 0.40504911E+03</rscale>
<asrwt>0</asrwt>
<pdfrwt beam="1">  1       21 0.66211355E-01 0.40504911E+03</pdfrwt>
<pdfrwt beam="2">  1       21 0.69935214E-01 0.40504911E+03</pdfrwt>
<totfact> 0.34501273E+03</totfact>
</mgrwt>
</event>
<event>
 4    1  0.4918322E-002  0.4553582E+03  0.7818608E-02  0.1026136E+00
         21   -1    0    0  501  502  0.00000000000E+00  0.00000000000E+00  0.58851971570E+02  0.58851971570E+02  0.00000000000E+00 0.  1.
         21   -1    0    0  502  503 -0.00000000000E+00 -0.00000000000E+00 -0.41090814590E+04  0.41090814590E+04  0.00000000000E+00 0. -1.
    9000007    1    1    2  501    0 -0.18689408031E+03 -0.11145248438E+03 -0.28119782928E+04  0.28486089540E+04  0.40000000000E+03 0. -1.
   -9000007    1    1    2    0  503  0.18689408031E+03  0.11145248438E+03 -0.12382511947E+04  0.13193244766E+04  0.40000000000E+03 0.  1.
<mgrwt>
<rscale>  2 0.45535816E+03</rscale>
<asrwt>0</asrwt>
<pdfrwt beam="1">  1       21 0.90541476E-02 0.45535816E+03</pdfrwt>
<pdfrwt beam="2">  1       21 0.63216651E+00 0.45535816E+03</pdfrwt>
<totfact> 0.13540971E+01</totfact>
</mgrwt>
</event>
<event>
 4    1  0.4918322E-002  0.7770961E+03  0.7818608E-02  0.9593774E-01
         21   -1    0    0  503  502  0.00000000000E+00  0.00000000000E+00  0.94993584980E+03  0.94993584980E+03  0.00000000000E+00 0. -1.
         21   -1    0    0  501  503 -0.00000000000E+00 -0.00000000000E+00 -0.95387929119E+03  0.95387929119E+03  0.00000000000E+00 0.  1.
    9000007    1    1    2  501    0  0.87541723117E+02  0.66046558132E+03 -0.55174175848E+03  0.95304632912E+03  0.40000000000E+03 0.  1.
   -9000007    1    1    2    0  502 -0.87541723117E+02 -0.66046558132E+03  0.54779831709E+03  0.95076881186E+03  0.40000000000E+03 0. -1.
<mgrwt>
<rscale>  2 0.77709609E+03</rscale>
<asrwt>0</asrwt>
<pdfrwt beam="1">  1       21 0.14614398E+00 0.77709609E+03</pdfrwt>
<pdfrwt beam="2">  1       21 0.14675066E+00 0.77709609E+03</pdfrwt>
<totfact> 0.70367760E+01</totfact>
</mgrwt>
</event>
<event>
 4    1  0.4918322E-002  0.6418873E+03  0.7818608E-02  0.9822122E-01
         21   -1    0    0  501  502  0.00000000000E+00  0.00000000000E+00  0.73690233992E+03  0.73690233992E+03  0.00000000000E+00 0.  1.
         21   -1    0    0  502  503 -0.00000000000E+00 -0.00000000000E+00 -0.63375660038E+03  0.63375660038E+03  0.00000000000E+00 0. -1.
    9000007    1    1    2  501    0  0.49685145136E+03 -0.71818804417E+02  0.28675500879E+03  0.70302755313E+03  0.40000000000E+03 0. -1.
   -9000007    1    1    2    0  503 -0.49685145136E+03  0.71818804417E+02 -0.18360926925E+03  0.66763138717E+03  0.40000000000E+03 0. -1.
<mgrwt>
<rscale>  2 0.64188730E+03</rscale>
<asrwt>0</asrwt>
<pdfrwt beam="1">  1       21 0.11336959E+00 0.64188730E+03</pdfrwt>
<pdfrwt beam="2">  1       21 0.97501016E-01 0.64188730E+03</pdfrwt>
<totfact> 0.41034879E+02</totfact>
</mgrwt>
</event>
<event>
 4    1  0.4918322E-002  0.6003227E+03  0.7818608E-02  0.9904737E-01
         21   -1    0    0  501  502  0.00000000000E+00  0.00000000000E+00  0.10267789991E+04  0.10267789991E+04  0.00000000000E+00 0.  1.
         21   -1    0    0  502  503 -0.00000000000E+00 -0.00000000000E+00 -0.35678786021E+03  0.35678786021E+03  0.00000000000E+00 0.  1.
    9000007    1    1    2  501    0  0.40941584287E+03  0.18101378694E+03  0.42319504513E+03  0.73449395483E+03  0.40000000000E+03 0.  1.
   -9000007    1    1    2    0  503 -0.40941584287E+03 -0.18101378694E+03  0.24679609378E+03  0.64907290450E+03  0.40000000000E+03 0.  1.
<mgrwt>
<rscale>  2 0.60032268E+03</rscale>
<asrwt>0</asrwt>
<pdfrwt beam="1">  1       21 0.15796600E+00 0.60032268E+03</pdfrwt>
<pdfrwt beam="2">  1       21 0.54890440E-01 0.60032268E+03</pdfrwt>
<totfact> 0.64436749E+02</totfact>
</mgrwt>
</event>
<event>
 4    1  0.4918322E-002  0.4620190E+03  0.7818608E-02  0.1024197E+00
         21   -1    0    0  503  502  0.00000000000E+00  0.00000000000E+00  0.59254586039E+03  0.59254586039E+03  0.00000000000E+00 0. -1.
         21   -1    0    0  501  503 -0.00000000000E+00 -0.00000000000E+00 -0.36368681796E+03  0.36368681796E+03  0.00000000000E+00 0.  1.
    9000007    1    1    2  501    0 -0.23042491260E+03 -0.19128987901E+02  0.16094281100E+03  0.48924855333E+03  0.40000000000E+03 0.  1.
   -9000007    1    1    2    0  502  0.23042491260E+03  0.19128987901E+02  0.67916231428E+02  0.46698412501E+03  0.40000000000E+03 0.  1.
<mgrwt>
<rscale>  2 0.46201900E+03</rscale>
<asrwt>0</asrwt>
<pdfrwt beam="1">  1       21 0.91160902E-01 0.46201900E+03</pdfrwt>
<pdfrwt beam="2">  1       21 0.55951818E-01 0.46201900E+03</pdfrwt>
<totfact> 0.26514550E+03</totfact>
</mgrwt>
</event>
<event>
 4    1  0.4918322E-002  0.4549357E+03  0.7818608E-02  0.1026260E+00
         21   -1    0    0  501  502  0.00000000000E+00  0.00000000000E+00  0.37927273557E+03  0.37927273557E+03  0.00000000000E+00 0. -1.
         21   -1    0    0  502  503 -0.00000000000E+00 -0.00000000000E+00 -0.55792374422E+03  0.55792374422E+03  0.00000000000E+00 0. -1.
    9000007    1    1    2  501    0 -0.21361302896E+03  0.36551405440E+02 -0.15870595588E+03  0.48182373521E+03  0.40000000000E+03 0. -1.
   -9000007    1    1    2    0  503  0.21361302896E+03 -0.36551405440E+02 -0.19945052767E+02  0.45537274458E+03  0.40000000000E+03 0. -1.
<mgrwt>
<rscale>  2 0.45493574E+03</rscale>
<asrwt>0</asrwt>
<pdfrwt beam="1">  1       21 0.58349652E-01 0.45493574E+03</pdfrwt>
<pdfrwt beam="2">  1       21 0.85834422E-01 0.45493574E+03</pdfrwt>
<totfact> 0.27969640E+03</totfact>
</mgrwt>
</event>
<event>
 4    1  0.4918322E-002  0.4141135E+03  0.7818608E-02  0.1038999E+00
         21   -1    0    0  503  502  0.00000000000E+00  0.00000000000E+00  0.10845085910E+03  0.10845085910E+03  0.00000000000E+00 0.  1.
         21   -1    0    0  501  503 -0.00000000000E+00 -0.00000000000E+00 -0.15834335517E+04  0.15834335517E+04  0.00000000000E+00 0.  1.
    9000007    1    1    2  501    0  0.75988913026E+02  0.75601893428E+02 -0.76876967589E+03  0.87321061363E+03  0.40000000000E+03 0.  1.
   -9000007    1    1    2    0  502 -0.75988913026E+02 -0.75601893428E+02 -0.70621301672E+03  0.81867379717E+03  0.40000000000E+03 0.  1.
<mgrwt>
<rscale>  2 0.41411346E+03</rscale>
<asrwt>0</asrwt>
<pdfrwt beam="1">  1       21 0.16684749E-01 0.41411346E+03</pdfrwt>
<pdfrwt beam="2">  1       21 0.24360515E+00 0.41411346E+03</pdfrwt>
<totfact> 0.19857523E+03</totfact>
</mgrwt>
</event>
<event>
 4    1  0.4918322E-002  0.4399289E+03  0.7818608E-02  0.1030769E+00
         21   -1    0    0  501  502  0.00000000000E+00  0.00000000000E+00  0.22576875614E+03  0.22576875614E+03  0.00000000000E+00 0.  1.
         21   -1    0    0  502  503 -0.00000000000E+00 -0.00000000000E+00 -0.11384872369E+04  0.11384872369E+04  0.00000000000E+00 0.  1.
    9000007    1    1    2  501    0  0.22659116271E+02 -0.18172495529E+03 -0.11732151784E+03  0.45530400116E+03  0.40000000000E+03 0.  1.
   -9000007    1    1    2    0  503 -0.22659116271E+02  0.18172495529E+03 -0.79539696294E+03  0.90895199190E+03  0.40000000000E+03 0.  1.
<mgrwt>
<rscale>  2 0.43992885E+03</rscale>
<asrwt>0</asrwt>
<pdfrwt beam="1">  1       21 0.34733654E-01 0.43992885E+03</pdfrwt>
<pdfrwt beam="2">  1       21 0.17515189E+00 0.43992885E+03</pdfrwt>
<totfact> 0.13314148E+03</totfact>
</mgrwt>
</event>
<event>
 4    1  0.4918322E-002  0.4826844E+03  0.7818608E-02  0.1018400E+00
         21   -1    0    0  503  502  0.00000000000E+00  0.00000000000E+00  0.62616881714E+03  0.62616881714E+03  0.00000000000E+00 0.  1.
         21   -1    0    0  501  503 -0.00000000000E+00 -0.00000000000E+00 -0.85438530053E+03  0.85438530053E+03  0.00000000000E+00 0. -1.
    9000007    1    1    2  501    0 -0.26434832443E+03  0.55715041492E+02 -0.67030559916E+03  0.82601077399E+03  0.40000000000E+03 0. -1.
   -9000007    1    1    2    0  502  0.26434832443E+03 -0.55715041492E+02  0.44208911577E+03  0.65454334368E+03  0.40000000000E+03 0.  1.
<mgrwt>
<rscale>  2 0.48268437E+03</rscale>
<asrwt>0</asrwt>
<pdfrwt beam="1">  1       21 0.96333664E-01 0.48268437E+03</pdfrwt>
<pdfrwt beam="2">  1       21 0.13144389E+00 0.48268437E+03</pdfrwt>
<totfact> 0.30672337E+02</totfact>
</mgrwt>
</event>
<event>
 4    1  0.4918322E-002  0.6994966E+03  0.7818608E-02  0.9718093E-01
         21   -1    0    0  503  502  0.00000000000E+00  0.00000000000E+00  0.80093921626E+03  0.80093921626E+03  0.00000000000E+00 0. -1.
         21   -1    0    0  501  503 -0.00000000000E+00 -0.00000000000E+00 -0.74501888117E+03  0.74501888117E+03  0.00000000000E+00 0. -1.
    9000007    1    1    2  501    0 -0.41306893621E+03 -0.39833351834E+03 -0.30000329626E+03  0.76111596729E+03  0.40000000000E+03 0. -1.
   -9000007    1    1    2    0  502  0.41306893621E+03  0.39833351834E+03  0.35592363134E+03  0.78484213014E+03  0.40000000000E+03 0. -1.
<mgrwt>
<rscale>  2 0.69949663E+03</rscale>
<asrwt>0</asrwt>
<pdfrwt beam="1">  1       21 0.12322142E+00 0.69949663E+03</pdfrwt>
<pdfrwt beam="2">  1       21 0.11461829E+00 0.69949663E+03</pdfrwt>
<totfact> 0.21783452E+02</totfact>
</mgrwt>
</event>
<event>
 4    1  0.4918322E-002  0.7931631E+03  0.7818608E-02  0.9569966E-01
         21   -1    0    0  501  502  0.00000000000E+00  0.00000000000E+00  0.47629667249E+03  0.47629667249E+03  0.00000000000E+00 0.  1.
         21   -1    0    0  502  503 -0.00000000000E+00 -0.00000000000E+00 -0.14190855519E+04  0.14190855519E+04  0.00000000000E+00 0. -1.
    9000007    1    1    2  501    0 -0.55606230337E+03  0.39987807539E+03 -0.72076043651E+03  0.10717291483E+04  0.40000000000E+03 0. -1.
   -9000007    1    1    2    0  503  0.55606230337E+03 -0.39987807539E+03 -0.22202844295E+03  0.82365307617E+03  0.40000000000E+03 0.  1.
<mgrwt>
<rscale>  2 0.79316314E+03</rscale>
<asrwt>0</asrwt>
<pdfrwt beam="1">  1       21 0.73276413E-01 0.79316314E+03</pdfrwt>
<pdfrwt beam="2">  1       21 0.21832085E+00 0.79316314E+03</pdfrwt>
<totfact> 0.11946782E+02</totfact>
</mgrwt>
</event>
<event>
 4    1  0.4918322E-002  0.5650035E+03  0.7818608E-02  0.9980796E-01
         21   -1    0    0  503  502  0.00000000000E+00  0.00000000000E+00  0.17028982475E+04  0.17028982475E+04  0.00000000000E+00 0.  1.
         21   -1    0    0  501  503 -0.00000000000E+00 -0.00000000000E+00 -0.20289524281E+03  0.20289524281E+03  0.00000000000E+00 0. -1.
    9000007    1    1    2  501    0 -0.57060636389E+02 -0.39493424057E+03  0.10128081600E+04  0.11597453770E+04  0.40000000000E+03 0.  1.
   -9000007    1    1    2    0  502  0.57060636389E+02  0.39493424057E+03  0.48719484466E+03  0.74604811323E+03  0.40000000000E+03 0.  1.
<mgrwt>
<rscale>  2 0.56500351E+03</rscale>
<asrwt>0</asrwt>
<pdfrwt beam="1">  1       21 0.26198434E+00 0.56500351E+03</pdfrwt>
<pdfrwt beam="2">  1       21 0.31214654E-01 0.56500351E+03</pdfrwt>
<totfact> 0.42542045E+02</totfact>
</mgrwt>
</event>
<event>
 4    1  0.4918322E-002  0.9456785E+03  0.7818608E-02  0.9370216E-01
         21   -1    0    0  501  502  0.00000000000E+00  0.00000000000E+00  0.85681031431E+03  0.85681031431E+03  0.00000000000E+00 0. -1.
         21   -1    0    0  502  503 -0.00000000000E+00 -0.00000000000E+00 -0.10439301410E+04  0.10439301410E+04  0.00000000000E+00 0. -1.
    9000007    1    1    2  501    0  0.85457711280E+03  0.63290970973E+02 -0.81571737970E+02  0.94919004270E+03  0.40000000000E+03 0. -1.
   -9000007    1    1    2    0  503 -0.85457711280E+03 -0.63290970973E+02 -0.10554808874E+03  0.95155041262E+03  0.40000000000E+03 0. -1.
<mgrwt>
<rscale>  2 0.94567848E+03</rscale>
<asrwt>0</asrwt>
<pdfrwt beam="1">  1       21 0.13181697E+00 0.94567848E+03</pdfrwt>
<pdfrwt beam="2">  1       21 0.16060464E+00 0.94567848E+03</pdfrwt>
<totfact> 0.68867365E+01</totfact>
</mgrwt>
</event>
<event>
 4    1  0.4918322E-002  0.5794370E+03  0.7818608E-02  0.9949011E-01
         21   -1    0    0  501  502  0.00000000000E+00  0.00000000000E+00  0.37815989581E+04  0.37815989581E+04  0.00000000000E+00 0. -1.
         21   -1    0    0  502  503 -0.00000000000E+00 -0.00000000000E+00 -0.10469610777E+03  0.10469610777E+03  0.00000000000E+00 0.  1.
    9000007    1    1    2  501    0  0.22836877107E+03  0.35156079442E+03  0.25959779532E+04  0.26598587972E+04  0.40000000000E+03 0. -1.
   -9000007    1    1    2    0  503 -0.22836877107E+03 -0.35156079442E+03  0.10809248971E+04  0.12264362686E+04  0.40000000000E+03 0.  1.
<mgrwt>
<rscale>  2 0.57943704E+03</rscale>
<asrwt>0</asrwt>
<pdfrwt beam="1">  1       21 0.58178435E+00 0.57943704E+03</pdfrwt>
<pdfrwt beam="2">  1       21 0.16107096E-01 0.57943704E+03</pdfrwt>
<totfact> 0.10948337E+01</totfact>
</mgrwt>
</event>
<event>
 4    1  0.4918322E-002  0.5274697E+03  0.7818608E-02  0.1006848E+00
         21   -1    0    0  501  502  0.00000000000E+00  0.00000000000E+00  0.22612918327E+03  0.22612918327E+03  0.00000000000E+00 0.  1.
         21   -1    0    0  502  503 -0.00000000000E+00 -0.00000000000E+00 -0.12335893342E+04  0.12335893342E+04  0.00000000000E+00 0. -1.
    9000007    1    1    2  501    0 -0.14055111797E+03 -0.31379880069E+03 -0.54097070012E+03  0.75556177938E+03  0.40000000000E+03 0. -1.
   -9000007    1    1    2    0  503  0.14055111797E+03  0.31379880069E+03 -0.46648945083E+03  0.70415673810E+03  0.40000000000E+03 0.  1.
<mgrwt>
<rscale>  2 0.52746972E+03</rscale>
<asrwt>0</asrwt>
<pdfrwt beam="1">  1       21 0.34789106E-01 0.52746972E+03</pdfrwt>
<pdfrwt beam="2">  1       21 0.18978297E+00 0.52746972E+03</pdfrwt>
<totfact> 0.10109005E+03</totfact>
</mgrwt>
</event>
<event>
 4    1  0.4918322E-002  0.6004736E+03  0.7818608E-02  0.9904424E-01
         21   -1    0    0  503  502  0.00000000000E+00  0.00000000000E+00  0.62383813602E+03  0.62383813602E+03  0.00000000000E+00 0. -1.
         21   -1    0    0  501  503 -0.00000000000E+00 -0.00000000000E+00 -0.63960476675E+03  0.63960476675E+03  0.00000000000E+00 0.  1.
    9000007    1    1    2  501    0 -0.38000672242E+03  0.23698836852E+03  0.18819635438E+03  0.62927455352E+03  0.40000000000E+03 0.  1.
   -9000007    1    1    2    0  502  0.38000672242E+03 -0.23698836852E+03 -0.20396298511E+03  0.63416834925E+03  0.40000000000E+03 0. -1.
<mgrwt>
<rscale>  2 0.60047364E+03</rscale>
<asrwt>0</asrwt>
<pdfrwt beam="1">  1       21 0.95975098E-01 0.60047364E+03</pdfrwt>
<pdfrwt beam="2">  1       21 0.98400733E-01 0.60047364E+03</pdfrwt>
<totfact> 0.61392764E+02</totfact>
</mgrwt>
</event>
<event>
 4    1  0.4918322E-002  0.7566931E+03  0.7818608E-02  0.9624908E-01
         21   -1    0    0  503  502  0.00000000000E+00  0.00000000000E+00  0.11966212012E+04  0.11966212012E+04  0.00000000000E+00 0. -1.
         21   -1    0    0  501  503 -0.00000000000E+00 -0.00000000000E+00 -0.60943787130E+03  0.60943787130E+03  0.00000000000E+00 0.  1.
    9000007    1    1    2  501    0  0.21937178196E+03 -0.60370565397E+03  0.71216170640E+03  0.10391144265E+04  0.40000000000E+03 0.  1.
   -9000007    1    1    2    0  502 -0.21937178196E+03  0.60370565397E+03 -0.12497837652E+03  0.76694464595E+03  0.40000000000E+03 0.  1.
<mgrwt>
<rscale>  2 0.75669313E+03</rscale>
<asrwt>0</asrwt>
<pdfrwt beam="1">  1       21 0.18409557E+00 0.75669313E+03</pdfrwt>
<pdfrwt beam="2">  1       21 0.93759673E-01 0.75669313E+03</pdfrwt>
<totfact> 0.11551818E+02</totfact>
</mgrwt>
</event>
<event>
 4    1  0.4918322E-002  0.5049206E+03  0.7818608E-02  0.1012502E+00
         21   -1    0    0  503  502  0.00000000000E+00  0.00000000000E+00  0.36011323925E+03  0.36011323925E+03  0.00000000000E+00 0.  1.
         21   -1    0    0  501  503 -0.00000000000E+00 -0.00000000000E+00 -0.89765489909E+03  0.89765489909E+03  0.00000000000E+00 0.  1.
    9000007    1    1    2  501    0  0.11012980765E+03 -0.28777810969E+03 -0.55786993634E+03  0.75243848973E+03  0.40000000000E+03 0.  1.
   -9000007    1    1    2    0  502 -0.11012980765E+03  0.28777810969E+03  0.20328276500E+02  0.50532964862E+03  0.40000000000E+03 0.  1.
<mgrwt>
<rscale>  2 0.50492060E+03</rscale>
<asrwt>0</asrwt>
<pdfrwt beam="1">  1       21 0.55402037E-01 0.50492060E+03</pdfrwt>
<pdfrwt beam="2">  1       21 0.13810075E+00 0.50492060E+03</pdfrwt>
<totfact> 0.94198315E+02</totfact>
</mgrwt>
</event>
<event>
 4    1  0.4918322E-002  0.4376233E+03  0.7818608E-02  0.1031479E+00
         21   -1    0    0  503  502  0.00000000000E+00  0.00000000000E+00  0.69725596691E+03  0.69725596691E+03  0.00000000000E+00 0. -1.
         21   -1    0    0  501  503 -0.00000000000E+00 -0.00000000000E+00 -0.35851175277E+03  0.35851175277E+03  0.00000000000E+00 0.  1.
    9000007    1    1    2  501    0  0.33222271677E+02  0.17438593831E+03 -0.85910381939E+02  0.44597619728E+03  0.40000000000E+03 0.  1.
   -9000007    1    1    2    0  502 -0.33222271677E+02 -0.17438593831E+03  0.42465459609E+03  0.60979152240E+03  0.40000000000E+03 0. -1.
<mgrwt>
<rscale>  2 0.43762333E+03</rscale>
<asrwt>0</asrwt>
<pdfrwt beam="1">  1       21 0.10727015E+00 0.43762333E+03</pdfrwt>
<pdfrwt beam="2">  1       21 0.55155654E-01 0.43762333E+03</pdfrwt>
<totfact> 0.18605426E+03</totfact>
</mgrwt>
</event>
<event>
 4    1  0.4918322E-002  0.4078464E+03  0.7818608E-02  0.1041096E+00
         21   -1    0    0  503  502  0.00000000000E+00  0.00000000000E+00  0.64291987192E+03  0.64291987192E+03  0.00000000000E+00 0. -1.
         21   -1    0    0  501  503 -0.00000000000E+00 -0.00000000000E+00 -0.41016049697E+03  0.41016049697E+03  0.00000000000E+00 0. -1.
    9000007    1    1    2  501    0  0.16973191741E+02 -0.77785713970E+02 -0.20356145697E+03  0.45582449835E+03  0.40000000000E+03 0. -1.
   -9000007    1    1    2    0  502 -0.16973191741E+02  0.77785713970E+02  0.43632083191E+03  0.59725587054E+03  0.40000000000E+03 0. -1.
<mgrwt>
<rscale>  2 0.40784643E+03</rscale>
<asrwt>0</asrwt>
<pdfrwt beam="1">  1       21 0.98910750E-01 0.40784643E+03</pdfrwt>
<pdfrwt beam="2">  1       21 0.63101615E-01 0.40784643E+03</pdfrwt>
<totfact> 0.17121786E+03</totfact>
</mgrwt>
</event>
<event>
 4    1  0.4918322E-002  0.5063222E+03  0.7818608E-02  0.1012142E+00
         21   -1    0    0  503  502  0.00000000000E+00  0.00000000000E+00  0.81364922199E+03  0.81364922199E+03  0.00000000000E+00 0. -1.
         21   -1    0    0  501  503 -0.00000000000E+00 -0.00000000000E+00 -0.39394461993E+03  0.39394461993E+03  0.00000000000E+00 0. -1.
    9000007    1    1    2  501    0 -0.11373096900E+03  0.28883816310E+03 -0.60308580843E+02  0.50990130682E+03  0.40000000000E+03 0. -1.
   -9000007    1    1    2    0  502  0.11373096900E+03 -0.28883816310E+03  0.48001318291E+03  0.69769253510E+03  0.40000000000E+03 0. -1.
<mgrwt>
<rscale>  2 0.50632225E+03</rscale>
<asrwt>0</asrwt>
<pdfrwt beam="1">  1       21 0.12517680E+00 0.50632225E+03</pdfrwt>
<pdfrwt beam="2">  1       21 0.60606865E-01 0.50632225E+03</pdfrwt>
<totfact> 0.10003393E+03</totfact>
</mgrwt>
</event>
<event>
 4    1  0.4918322E-002  0.4267954E+03  0.7818608E-02  0.1034877E+00
         21   -1    0    0  501  502  0.00000000000E+00  0.00000000000E+00  0.11303710065E+04  0.11303710065E+04  0.00000000000E+00 0.  1.
         21   -1    0    0  502  503 -0.00000000000E+00 -0.00000000000E+00 -0.16191965543E+03  0.16191965543E+03  0.00000000000E+00 0.  1.
    9000007    1    1    2  501    0  0.61946501010E+02  0.13534023301E+03  0.52890001301E+03  0.67962458124E+03  0.40000000000E+03 0.  1.
   -9000007    1    1    2    0  503 -0.61946501010E+02 -0.13534023301E+03  0.43955133811E+03  0.61266608074E+03  0.40000000000E+03 0.  1.
<mgrwt>
<rscale>  2 0.42679544E+03</rscale>
<asrwt>0</asrwt>
<pdfrwt beam="1">  1       21 0.17390323E+00 0.42679544E+03</pdfrwt>
<pdfrwt beam="2">  1       21 0.24910717E-01 0.42679544E+03</pdfrwt>
<totfact> 0.26405817E+03</totfact>
</mgrwt>
</event>
<event>
 4    1  0.4918322E-002  0.4384087E+03  0.7818608E-02  0.1031236E+00
         21   -1    0    0  503  502  0.00000000000E+00  0.00000000000E+00  0.21489029170E+03  0.21489029170E+03  0.00000000000E+00 0. -1.
         21   -1    0    0  501  503 -0.00000000000E+00 -0.00000000000E+00 -0.94624371752E+03  0.94624371752E+03  0.00000000000E+00 0. -1.
    9000007    1    1    2  501    0 -0.17921095038E+03 -0.92529690019E+01 -0.50154402430E+03  0.66614457176E+03  0.40000000000E+03 0. -1.
   -9000007    1    1    2    0  502  0.17921095038E+03  0.92529690019E+01 -0.22980940152E+03  0.49498943746E+03  0.40000000000E+03 0. -1.
<mgrwt>
<rscale>  2 0.43840869E+03</rscale>
<asrwt>0</asrwt>
<pdfrwt beam="1">  1       21 0.33060046E-01 0.43840869E+03</pdfrwt>
<pdfrwt beam="2">  1       21 0.14557595E+00 0.43840869E+03</pdfrwt>
<totfact> 0.24610885E+03</totfact>
</mgrwt>
</event>
<event>
 4    1  0.4918322E-002  0.4311384E+03  0.7818608E-02  0.1033501E+00
         21   -1    0    0  501  502  0.00000000000E+00  0.00000000000E+00  0.36954133935E+03  0.36954133935E+03  0.00000000000E+00 0.  1.
         21   -1    0    0  502  503 -0.00000000000E+00 -0.00000000000E+00 -0.51031536096E+03  0.51031536096E+03  0.00000000000E+00 0.  1.
    9000007    1    1    2  501    0  0.14992873740E+03  0.58324259811E+02 -0.17725174440E+02  0.43150263891E+03  0.40000000000E+03 0.  1.
   -9000007    1    1    2    0  503 -0.14992873740E+03 -0.58324259811E+02 -0.12304884717E+03  0.44835406140E+03  0.40000000000E+03 0.  1.
<mgrwt>
<rscale>  2 0.43113843E+03</rscale>
<asrwt>0</asrwt>
<pdfrwt beam="1">  1       21 0.56852514E-01 0.43113843E+03</pdfrwt>
<pdfrwt beam="2">  1       21 0.78510056E-01 0.43113843E+03</pdfrwt>
<totfact> 0.36717295E+03</totfact>
</mgrwt>
</event>
<event>
 4    1  0.4918322E-002  0.5607587E+03  0.7818608E-02  0.9990339E-01
         21   -1    0    0  501  502  0.00000000000E+00  0.00000000000E+00  0.88958485127E+03  0.88958485127E+03  0.00000000000E+00 0.  1.
         21   -1    0    0  502  503 -0.00000000000E+00 -0.00000000000E+00 -0.35789497053E+03  0.35789497053E+03  0.00000000000E+00 0.  1.
    9000007    1    1    2  501    0 -0.38929252144E+03 -0.53867301414E+02  0.33512291132E+03  0.65326695853E+03  0.40000000000E+03 0.  1.
   -9000007    1    1    2    0  503  0.38929252144E+03  0.53867301414E+02  0.19656696942E+03  0.59421286328E+03  0.40000000000E+03 0.  1.
<mgrwt>
<rscale>  2 0.56075873E+03</rscale>
<asrwt>0</asrwt>
<pdfrwt beam="1">  1       21 0.13685921E+00 0.56075873E+03</pdfrwt>
<pdfrwt beam="2">  1       21 0.55060765E-01 0.56075873E+03</pdfrwt>
<totfact> 0.95879416E+02</totfact>
</mgrwt>
</event>
<event>
 4    1  0.4918322E-002  0.4068838E+03  0.7818608E-02  0.1041422E+00
         21   -1    0    0  503  502  0.00000000000E+00  0.00000000000E+00  0.11119216337E+04  0.11119216337E+04  0.00000000000E+00 0. -1.
         21   -1    0    0  501  503 -0.00000000000E+00 -0.00000000000E+00 -0.21361489403E+03  0.21361489403E+03  0.00000000000E+00 0. -1.
    9000007    1    1    2  501    0  0.17214143817E+02 -0.72512977427E+02  0.84332003187E+02  0.41553140123E+03  0.40000000000E+03 0. -1.
   -9000007    1    1    2    0  502 -0.17214143817E+02  0.72512977427E+02  0.81397473653E+03  0.91000512655E+03  0.40000000000E+03 0. -1.
<mgrwt>
<rscale>  2 0.40688384E+03</rscale>
<asrwt>0</asrwt>
<pdfrwt beam="1">  1       21 0.17106486E+00 0.40688384E+03</pdfrwt>
<pdfrwt beam="2">  1       21 0.32863831E-01 0.40688384E+03</pdfrwt>
<totfact> 0.16162020E+03</totfact>
</mgrwt>
</event>
<event>
 4    1  0.4918322E-002  0.4790654E+03  0.7818608E-02  0.1019392E+00
         21   -1    0    0  503  502  0.00000000000E+00  0.00000000000E+00  0.21741628956E+04  0.21741628956E+04  0.00000000000E+00 0.  1.
         21   -1    0    0  501  503 -0.00000000000E+00 -0.00000000000E+00 -0.10813750740E+03  0.10813750740E+03  0.00000000000E+00 0.  1.
    9000007    1    1    2  501    0 -0.22093648375E+03 -0.14384268698E+03  0.85681799882E+03  0.98165204199E+03  0.40000000000E+03 0.  1.
   -9000007    1    1    2    0  502  0.22093648375E+03  0.14384268698E+03  0.12092073894E+04  0.13006483611E+04  0.40000000000E+03 0.  1.
<mgrwt>
<rscale>  2 0.47906539E+03</rscale>
<asrwt>0</asrwt>
<pdfrwt beam="1">  1       21 0.33448657E+00 0.47906539E+03</pdfrwt>
<pdfrwt beam="2">  1       21 0.16636541E-01 0.47906539E+03</pdfrwt>
<totfact> 0.54376142E+02</totfact>
</mgrwt>
</event>
<event>
 4    1  0.4918322E-002  0.5614156E+03  0.7818608E-02  0.9988857E-01
         21   -1    0    0  503  502  0.00000000000E+00  0.00000000000E+00  0.51395592131E+03  0.51395592131E+03  0.00000000000E+00 0.  1.
         21   -1    0    0  501  503 -0.00000000000E+00 -0.00000000000E+00 -0.68247440691E+03  0.68247440691E+03  0.00000000000E+00 0.  1.
    9000007    1    1    2  501    0 -0.39392894748E+03  0.27393421829E+01 -0.27476983586E+03  0.62504878399E+03  0.40000000000E+03 0.  1.
   -9000007    1    1    2    0  502  0.39392894748E+03 -0.27393421829E+01  0.10625135026E+03  0.57138154424E+03  0.40000000000E+03 0.  1.
<mgrwt>
<rscale>  2 0.56141564E+03</rscale>
<asrwt>0</asrwt>
<pdfrwt beam="1">  1       21 0.79070142E-01 0.56141564E+03</pdfrwt>
<pdfrwt beam="2">  1       21 0.10499606E+00 0.56141564E+03</pdfrwt>
<totfact> 0.83874282E+02</totfact>
</mgrwt>
</event>
<event>
 4    1  0.4918322E-002  0.4161898E+03  0.7818608E-02  0.1038314E+00
         21   -1    0    0  501  502  0.00000000000E+00  0.00000000000E+00  0.10770243947E+04  0.10770243947E+04  0.00000000000E+00 0.  1.
         21   -1    0    0  502  503 -0.00000000000E+00 -0.00000000000E+00 -0.16153279973E+03  0.16153279973E+03  0.00000000000E+00 0.  1.
    9000007    1    1    2  501    0  0.44114471620E+01 -0.11486736146E+03  0.41679366192E+03  0.58900842796E+03  0.40000000000E+03 0.  1.
   -9000007    1    1    2    0  503 -0.44114471620E+01  0.11486736146E+03  0.49869793309E+03  0.64954876650E+03  0.40000000000E+03 0.  1.
<mgrwt>
<rscale>  2 0.41618983E+03</rscale>
<asrwt>0</asrwt>
<pdfrwt beam="1">  1       21 0.16569606E+00 0.41618983E+03</pdfrwt>
<pdfrwt beam="2">  1       21 0.24851201E-01 0.41618983E+03</pdfrwt>
<totfact> 0.30565865E+03</totfact>
</mgrwt>
</event>
<event>
 4    1  0.4918322E-002  0.4469662E+03  0.7818608E-02  0.1028631E+00
         21   -1    0    0  503  502  0.00000000000E+00  0.00000000000E+00  0.15613265445E+04  0.15613265445E+04  0.00000000000E+00 0. -1.
         21   -1    0    0  501  503 -0.00000000000E+00 -0.00000000000E+00 -0.18495261502E+03  0.18495261502E+03  0.00000000000E+00 0. -1.
    9000007    1    1    2  501    0  0.15178256919E+03  0.12938647247E+03  0.20347519934E+03  0.49110178610E+03  0.40000000000E+03 0. -1.
   -9000007    1    1    2    0  502 -0.15178256919E+03 -0.12938647247E+03  0.11728987302E+04  0.12551773735E+04  0.40000000000E+03 0. -1.
<mgrwt>
<rscale>  2 0.44696623E+03</rscale>
<asrwt>0</asrwt>
<pdfrwt beam="1">  1       21 0.24020407E+00 0.44696623E+03</pdfrwt>
<pdfrwt beam="2">  1       21 0.28454250E-01 0.44696623E+03</pdfrwt>
<totfact> 0.73624933E+02</totfact>
</mgrwt>
</event>
<event>
 4    1  0.4918322E-002  0.5695935E+03  0.7818608E-02  0.9970579E-01
         21   -1    0    0  503  502  0.00000000000E+00  0.00000000000E+00  0.98608116765E+03  0.98608116765E+03  0.00000000000E+00 0. -1.
         21   -1    0    0  501  503 -0.00000000000E+00 -0.00000000000E+00 -0.35578057484E+03  0.35578057484E+03  0.00000000000E+00 0.  1.
    9000007    1    1    2  501    0  0.35002513133E+03 -0.20474156763E+03  0.13113029982E+03  0.58449282084E+03  0.40000000000E+03 0.  1.
   -9000007    1    1    2    0  502 -0.35002513133E+03  0.20474156763E+03  0.49917029300E+03  0.75736892166E+03  0.40000000000E+03 0. -1.
<mgrwt>
<rscale>  2 0.56959345E+03</rscale>
<asrwt>0</asrwt>
<pdfrwt beam="1">  1       21 0.15170479E+00 0.56959345E+03</pdfrwt>
<pdfrwt beam="2">  1       21 0.54735473E-01 0.56959345E+03</pdfrwt>
<totfact> 0.73291200E+02</totfact>
</mgrwt>
</event>
<event>
 4    1  0.4918322E-002  0.4668406E+03  0.7818608E-02  0.1022816E+00
         21   -1    0    0  503  502  0.00000000000E+00  0.00000000000E+00  0.81069995951E+03  0.81069995951E+03  0.00000000000E+00 0. -1.
         21   -1    0    0  501  503 -0.00000000000E+00 -0.00000000000E+00 -0.30975045239E+03  0.30975045239E+03  0.00000000000E+00 0. -1.
    9000007    1    1    2  501    0  0.19696208109E+03 -0.13836945975E+03  0.46850804483E+02  0.46918564200E+03  0.40000000000E+03 0. -1.
   -9000007    1    1    2    0  502 -0.19696208109E+03  0.13836945975E+03  0.45409870263E+03  0.65126476990E+03  0.40000000000E+03 0. -1.
<mgrwt>
<rscale>  2 0.46684062E+03</rscale>
<asrwt>0</asrwt>
<pdfrwt beam="1">  1       21 0.12472307E+00 0.46684062E+03</pdfrwt>
<pdfrwt beam="2">  1       21 0.47653916E-01 0.46684062E+03</pdfrwt>
<totfact> 0.17208141E+03</totfact>
</mgrwt>
</event>
<event>
 4    1  0.4918322E-002  0.4078637E+03  0.7818608E-02  0.1041090E+00
         21   -1    0    0  501  502  0.00000000000E+00  0.00000000000E+00  0.50620898474E+03  0.50620898474E+03  0.00000000000E+00 0.  1.
         21   -1    0    0  502  503 -0.00000000000E+00 -0.00000000000E+00 -0.58140422107E+03  0.58140422107E+03  0.00000000000E+00 0.  1.
    9000007    1    1    2  501    0 -0.29206127450E+02 -0.74160413616E+02  0.32097436082E+03  0.51901570798E+03  0.40000000000E+03 0.  1.
   -9000007    1    1    2    0  503  0.29206127450E+02  0.74160413616E+02 -0.39616959715E+03  0.56859749783E+03  0.40000000000E+03 0.  1.
<mgrwt>
<rscale>  2 0.40786366E+03</rscale>
<asrwt>0</asrwt>
<pdfrwt beam="1">  1       21 0.77878305E-01 0.40786366E+03</pdfrwt>
<pdfrwt beam="2">  1       21 0.89446803E-01 0.40786366E+03</pdfrwt>
<totfact> 0.13562421E+03</totfact>
</mgrwt>
</event>
<event>
 4    1  0.4918322E-002  0.5364144E+03  0.7818608E-02  0.1004688E+00
         21   -1    0    0  501  502  0.00000000000E+00  0.00000000000E+00  0.56264110846E+03  0.56264110846E+03  0.00000000000E+00 0. -1.
         21   -1    0    0  502  503 -0.00000000000E+00 -0.00000000000E+00 -0.59445822888E+03  0.59445822888E+03  0.00000000000E+00 0.  1.
    9000007    1    1    2  501    0 -0.33768315185E+03  0.11709174749E+03  0.20033575764E+03  0.57260353140E+03  0.40000000000E+03 0. -1.
   -9000007    1    1    2    0  503  0.33768315185E+03 -0.11709174749E+03 -0.23215287806E+03  0.58449580595E+03  0.40000000000E+03 0.  1.
<mgrwt>
<rscale>  2 0.53641438E+03</rscale>
<asrwt>0</asrwt>
<pdfrwt beam="1">  1       21 0.86560171E-01 0.53641438E+03</pdfrwt>
<pdfrwt beam="2">  1       21 0.91455112E-01 0.53641438E+03</pdfrwt>
<totfact> 0.95751708E+02</totfact>
</mgrwt>
</event>
<event>
 4    1  0.4918322E-002  0.6427115E+03  0.7818608E-02  0.9820553E-01
         21   -1    0    0  501  502  0.00000000000E+00  0.00000000000E+00  0.95561159786E+03  0.95561159786E+03  0.00000000000E+00 0. -1.
         21   -1    0    0  502  503 -0.00000000000E+00 -0.00000000000E+00 -0.43947838767E+03  0.43947838767E+03  0.00000000000E+00 0. -1.
    9000007    1    1    2  501    0  0.44393528081E+03  0.23664208417E+03  0.34742912147E+03  0.73060591566E+03  0.40000000000E+03 0. -1.
   -9000007    1    1    2    0  503 -0.44393528081E+03 -0.23664208417E+03  0.16870408872E+03  0.66448406986E+03  0.40000000000E+03 0. -1.
<mgrwt>
<rscale>  2 0.64271145E+03</rscale>
<asrwt>0</asrwt>
<pdfrwt beam="1">  1       21 0.14701717E+00 0.64271145E+03</pdfrwt>
<pdfrwt beam="2">  1       21 0.67612060E-01 0.64271145E+03</pdfrwt>
<totfact> 0.48870938E+02</totfact>
</mgrwt>
</event>
<event>
 4    1  0.4918322E-002  0.5735594E+03  0.7818608E-02  0.9961833E-01
         21   -1    0    0  501  502  0.00000000000E+00  0.00000000000E+00  0.12190296044E+04  0.12190296044E+04  0.00000000000E+00 0. -1.
         21   -1    0    0  502  503 -0.00000000000E+00 -0.00000000000E+00 -0.31087047329E+03  0.31087047329E+03  0.00000000000E+00 0. -1.
    9000007    1    1    2  501    0  0.36240213904E+03  0.19399757136E+03  0.73190853241E+03  0.92987121037E+03  0.40000000000E+03 0. -1.
   -9000007    1    1    2    0  503 -0.36240213904E+03 -0.19399757136E+03  0.17625059871E+03  0.60002886732E+03  0.40000000000E+03 0. -1.
<mgrwt>
<rscale>  2 0.57355938E+03</rscale>
<asrwt>0</asrwt>
<pdfrwt beam="1">  1       21 0.18754301E+00 0.57355938E+03</pdfrwt>
<pdfrwt beam="2">  1       21 0.47826227E-01 0.57355938E+03</pdfrwt>
<totfact> 0.53193204E+02</totfact>
</mgrwt>
</event>
<event>
 4    1  0.4918322E-002  0.6458379E+03  0.7818608E-02  0.9814621E-01
         21   -1    0    0  501  502  0.00000000000E+00  0.00000000000E+00  0.12100813538E+04  0.12100813538E+04  0.00000000000E+00 0. -1.
         21   -1    0    0  502  503 -0.00000000000E+00 -0.00000000000E+00 -0.69582215990E+03  0.69582215990E+03  0.00000000000E+00 0.  1.
    9000007    1    1    2  501    0 -0.48881754263E+03  0.13477391844E+03  0.93407746080E+03  0.11356087803E+04  0.40000000000E+03 0. -1.
   -9000007    1    1    2    0  503  0.48881754263E+03 -0.13477391844E+03 -0.41981826692E+03  0.77029473340E+03  0.40000000000E+03 0.  1.
<mgrwt>
<rscale>  2 0.64583790E+03</rscale>
<asrwt>0</asrwt>
<pdfrwt beam="1">  1       21 0.18616636E+00 0.64583790E+03</pdfrwt>
<pdfrwt beam="2">  1       21 0.10704956E+00 0.64583790E+03</pdfrwt>
<totfact> 0.83808615E+01</totfact>
</mgrwt>
</event>
<event>
 4    1  0.4918322E-002  0.4441803E+03  0.7818608E-02  0.1029472E+00
         21   -1    0    0  501  502  0.00000000000E+00  0.00000000000E+00  0.89295221500E+03  0.89295221500E+03  0.00000000000E+00 0. -1.
         21   -1    0    0  502  503 -0.00000000000E+00 -0.00000000000E+00 -0.26050683366E+03  0.26050683366E+03  0.00000000000E+00 0. -1.
    9000007    1    1    2  501    0  0.59631271802E+00  0.19312111812E+03  0.54096438548E+03  0.69995613306E+03  0.40000000000E+03 0. -1.
   -9000007    1    1    2    0  503 -0.59631271802E+00 -0.19312111812E+03  0.91480995852E+02  0.45350291560E+03  0.40000000000E+03 0. -1.
<mgrwt>
<rscale>  2 0.44418028E+03</rscale>
<asrwt>0</asrwt>
<pdfrwt beam="1">  1       21 0.13737726E+00 0.44418028E+03</pdfrwt>
<pdfrwt beam="2">  1       21 0.40077975E-01 0.44418028E+03</pdfrwt>
<totfact> 0.19378461E+03</totfact>
</mgrwt>
</event>
<event>
 4    1  0.4918322E-002  0.4950200E+03  0.7818608E-02  0.1015087E+00
         21   -1    0    0  501  502  0.00000000000E+00  0.00000000000E+00  0.11447255151E+04  0.11447255151E+04  0.00000000000E+00 0.  1.
         21   -1    0    0  502  503 -0.00000000000E+00 -0.00000000000E+00 -0.21406904444E+03  0.21406904444E+03  0.00000000000E+00 0.  1.
    9000007    1    1    2  501    0  0.38262755404E+01 -0.29159923387E+03  0.46209683141E+03  0.67718404823E+03  0.40000000000E+03 0.  1.
   -9000007    1    1    2    0  503 -0.38262755404E+01  0.29159923387E+03  0.46855963921E+03  0.68161051127E+03  0.40000000000E+03 0.  1.
<mgrwt>
<rscale>  2 0.49501995E+03</rscale>
<asrwt>0</asrwt>
<pdfrwt beam="1">  1       21 0.17611161E+00 0.49501995E+03</pdfrwt>
<pdfrwt beam="2">  1       21 0.32933700E-01 0.49501995E+03</pdfrwt>
<totfact> 0.14260336E+03</totfact>
</mgrwt>
</event>
<event>
 4    1  0.4918322E-002  0.4599434E+03  0.7818608E-02  0.1024798E+00
         21   -1    0    0  503  502  0.00000000000E+00  0.00000000000E+00  0.64864369105E+03  0.64864369105E+03  0.00000000000E+00 0. -1.
         21   -1    0    0  501  503 -0.00000000000E+00 -0.00000000000E+00 -0.54502986048E+03  0.54502986048E+03  0.00000000000E+00 0. -1.
    9000007    1    1    2  501    0  0.22635469129E+03  0.17648089812E+02 -0.32642606929E+03  0.56400521279E+03  0.40000000000E+03 0. -1.
   -9000007    1    1    2    0  502 -0.22635469129E+03 -0.17648089812E+02  0.43003989986E+03  0.62966833874E+03  0.40000000000E+03 0. -1.
<mgrwt>
<rscale>  2 0.45994337E+03</rscale>
<asrwt>0</asrwt>
<pdfrwt beam="1">  1       21 0.99791337E-01 0.45994337E+03</pdfrwt>
<pdfrwt beam="2">  1       21 0.83850748E-01 0.45994337E+03</pdfrwt>
<totfact> 0.86070081E+02</totfact>
</mgrwt>
</event>
<event>
 4    1  0.4918322E-002  0.4296471E+03  0.7818608E-02  0.1033972E+00
         21   -1    0    0  503  502  0.00000000000E+00  0.00000000000E+00  0.11565922053E+04  0.11565922053E+04  0.00000000000E+00 0. -1.
         21   -1    0    0  501  503 -0.00000000000E+00 -0.00000000000E+00 -0.19244339861E+03  0.19244339861E+03  0.00000000000E+00 0.  1.
    9000007    1    1    2  501    0  0.13088256914E+03  0.86408150733E+02  0.20343647641E+03  0.47537670889E+03  0.40000000000E+03 0.  1.
   -9000007    1    1    2    0  502 -0.13088256914E+03 -0.86408150733E+02  0.76071233025E+03  0.87365889500E+03  0.40000000000E+03 0. -1.
<mgrwt>
<rscale>  2 0.42964708E+03</rscale>
<asrwt>0</asrwt>
<pdfrwt beam="1">  1       21 0.17793726E+00 0.42964708E+03</pdfrwt>
<pdfrwt beam="2">  1       21 0.29606677E-01 0.42964708E+03</pdfrwt>
<totfact> 0.17588422E+03</totfact>
</mgrwt>
</event>
<event>
 4    1  0.4918322E-002  0.5222442E+03  0.7818608E-02  0.1008131E+00
         21   -1    0    0  503  502  0.00000000000E+00  0.00000000000E+00  0.31267444224E+03  0.31267444224E+03  0.00000000000E+00 0.  1.
         21   -1    0    0  501  503 -0.00000000000E+00 -0.00000000000E+00 -0.87421410554E+03  0.87421410554E+03  0.00000000000E+00 0.  1.
    9000007    1    1    2  501    0  0.24321824253E+03 -0.23148200917E+03 -0.30869762678E+03  0.60665744770E+03  0.40000000000E+03 0.  1.
   -9000007    1    1    2    0  502 -0.24321824253E+03  0.23148200917E+03 -0.25284203651E+03  0.58023110008E+03  0.40000000000E+03 0.  1.
<mgrwt>
<rscale>  2 0.52224423E+03</rscale>
<asrwt>0</asrwt>
<pdfrwt beam="1">  1       21 0.48103761E-01 0.52224423E+03</pdfrwt>
<pdfrwt beam="2">  1       21 0.13449447E+00 0.52224423E+03</pdfrwt>
<totfact> 0.13590294E+03</totfact>
</mgrwt>
</event>
<event>
 4    1  0.4918322E-002  0.4453324E+03  0.7818608E-02  0.1029123E+00
         21   -1    0    0  503  502  0.00000000000E+00  0.00000000000E+00  0.31721246734E+03  0.31721246734E+03  0.00000000000E+00 0. -1.
         21   -1    0    0  501  503 -0.00000000000E+00 -0.00000000000E+00 -0.65733299402E+03  0.65733299402E+03  0.00000000000E+00 0.  1.
    9000007    1    1    2  501    0 -0.19088370448E+03 -0.43409125263E+02 -0.62324164148E+02  0.44967237210E+03  0.40000000000E+03 0. -1.
   -9000007    1    1    2    0  502  0.19088370448E+03  0.43409125263E+02 -0.27779636253E+03  0.52487308926E+03  0.40000000000E+03 0.  1.
<mgrwt>
<rscale>  2 0.44533239E+03</rscale>
<asrwt>0</asrwt>
<pdfrwt beam="1">  1       21 0.48801919E-01 0.44533239E+03</pdfrwt>
<pdfrwt beam="2">  1       21 0.10112815E+00 0.44533239E+03</pdfrwt>
<totfact> 0.27855987E+03</totfact>
</mgrwt>
</event>
<event>
 4    1  0.4918322E-002  0.4013792E+03  0.7818608E-02  0.1043303E+00
         21   -1    0    0  501  502  0.00000000000E+00  0.00000000000E+00  0.56302394355E+03  0.56302394355E+03  0.00000000000E+00 0. -1.
         21   -1    0    0  502  503 -0.00000000000E+00 -0.00000000000E+00 -0.32228296994E+03  0.32228296994E+03  0.00000000000E+00 0. -1.
    9000007    1    1    2  501    0 -0.32855989167E+02 -0.50722466757E+01  0.26860192385E+03  0.48296194178E+03  0.40000000000E+03 0.  1.
   -9000007    1    1    2    0  503  0.32855989167E+02  0.50722466757E+01 -0.27860950235E+02  0.40234497171E+03  0.40000000000E+03 0.  1.
<mgrwt>
<rscale>  2 0.40137918E+03</rscale>
<asrwt>0</asrwt>
<pdfrwt beam="1">  1       21 0.86619068E-01 0.40137918E+03</pdfrwt>
<pdfrwt beam="2">  1       21 0.49581996E-01 0.40137918E+03</pdfrwt>
<totfact> 0.39625967E+03</totfact>
</mgrwt>
</event>
<event>
 4    1  0.4918322E-002  0.4496535E+03  0.7818608E-02  0.1027825E+00
         21   -1    0    0  501  502  0.00000000000E+00  0.00000000000E+00  0.27616527706E+03  0.27616527706E+03  0.00000000000E+00 0.  1.
         21   -1    0    0  502  503 -0.00000000000E+00 -0.00000000000E+00 -0.89545428164E+03  0.89545428164E+03  0.00000000000E+00 0.  1.
    9000007    1    1    2  501    0  0.15947945331E+03 -0.12943932810E+03 -0.59458268416E+02  0.45356754885E+03  0.40000000000E+03 0.  1.
   -9000007    1    1    2    0  503 -0.15947945331E+03  0.12943932810E+03 -0.55983073616E+03  0.71805200984E+03  0.40000000000E+03 0.  1.
<mgrwt>
<rscale>  2 0.44965346E+03</rscale>
<asrwt>0</asrwt>
<pdfrwt beam="1">  1       21 0.42486965E-01 0.44965346E+03</pdfrwt>
<pdfrwt beam="2">  1       21 0.13776220E+00 0.44965346E+03</pdfrwt>
<totfact> 0.17009786E+03</totfact>
</mgrwt>
</event>
<event>
 4    1  0.4918322E-002  0.4958238E+03  0.7818608E-02  0.1014875E+00
         21   -1    0    0  501  502  0.00000000000E+00  0.00000000000E+00  0.19820153772E+03  0.19820153772E+03  0.00000000000E+00 0.  1.
         21   -1    0    0  502  503 -0.00000000000E+00 -0.00000000000E+00 -0.13311370460E+04  0.13311370460E+04  0.00000000000E+00 0.  1.
    9000007    1    1    2  501    0 -0.29254786163E+03  0.16029554102E+02 -0.36678018573E+03  0.61674054723E+03  0.40000000000E+03 0.  1.
   -9000007    1    1    2    0  503  0.29254786163E+03 -0.16029554102E+02 -0.76615532255E+03  0.91259803650E+03  0.40000000000E+03 0.  1.
<mgrwt>
<rscale>  2 0.49582376E+03</rscale>
<asrwt>0</asrwt>
<pdfrwt beam="1">  1       21 0.30492545E-01 0.49582376E+03</pdfrwt>
<pdfrwt beam="2">  1       21 0.20479031E+00 0.49582376E+03</pdfrwt>
<totfact> 0.10566066E+03</totfact>
</mgrwt>
</event>
<event>
 4    1  0.4918322E-002  0.4560655E+03  0.7818608E-02  0.1025929E+00
         21   -1    0    0  503  502  0.00000000000E+00  0.00000000000E+00  0.92191129133E+03  0.92191129133E+03  0.00000000000E+00 0. -1.
         21   -1    0    0  501  503 -0.00000000000E+00 -0.00000000000E+00 -0.39270366871E+03  0.39270366871E+03  0.00000000000E+00 0.  1.
    9000007    1    1    2  501    0 -0.46763468035E+02  0.21403015709E+03 -0.16415337013E+03  0.48470822049E+03  0.40000000000E+03 0.  1.
   -9000007    1    1    2    0  502  0.46763468035E+02 -0.21403015709E+03  0.69336099275E+03  0.82990673955E+03  0.40000000000E+03 0. -1.
<mgrwt>
<rscale>  2 0.45606549E+03</rscale>
<asrwt>0</asrwt>
<pdfrwt beam="1">  1       21 0.14183251E+00 0.45606549E+03</pdfrwt>
<pdfrwt beam="2">  1       21 0.60415949E-01 0.45606549E+03</pdfrwt>
<totfact> 0.74081445E+02</totfact>
</mgrwt>
</event>
<event>
 4    1  0.4918322E-002  0.5846610E+03  0.7818608E-02  0.9937751E-01
         21   -1    0    0  501  502  0.00000000000E+00  0.00000000000E+00  0.68173613783E+03  0.68173613783E+03  0.00000000000E+00 0. -1.
         21   -1    0    0  502  503 -0.00000000000E+00 -0.00000000000E+00 -0.51928128495E+03  0.51928128495E+03  0.00000000000E+00 0. -1.
    9000007    1    1    2  501    0  0.39802406654E+03 -0.15298816212E+03  0.19263373804E+03  0.61557801482E+03  0.40000000000E+03 0.  1.
   -9000007    1    1    2    0  503 -0.39802406654E+03  0.15298816212E+03 -0.30178885159E+02  0.58543940797E+03  0.40000000000E+03 0.  1.
<mgrwt>
<rscale>  2 0.58466104E+03</rscale>
<asrwt>0</asrwt>
<pdfrwt beam="1">  1       21 0.10488248E+00 0.58466104E+03</pdfrwt>
<pdfrwt beam="2">  1       21 0.79889429E-01 0.58466104E+03</pdfrwt>
<totfact> 0.81486993E+02</totfact>
</mgrwt>
</event>
<event>
 4    1  0.4918322E-002  0.4083025E+03  0.7818608E-02  0.1040942E+00
         21   -1    0    0  501  502  0.00000000000E+00  0.00000000000E+00  0.11588676889E+03  0.11588676889E+03  0.00000000000E+00 0. -1.
         21   -1    0    0  502  503 -0.00000000000E+00 -0.00000000000E+00 -0.17368492685E+04  0.17368492685E+04  0.00000000000E+00 0. -1.
    9000007    1    1    2  501    0 -0.69650570608E+02  0.43124419529E+02 -0.42658313424E+03  0.59049478233E+03  0.40000000000E+03 0. -1.
   -9000007    1    1    2    0  503  0.69650570608E+02 -0.43124419529E+02 -0.11943793654E+04  0.12622412551E+04  0.40000000000E+03 0. -1.
<mgrwt>
<rscale>  2 0.40830248E+03</rscale>
<asrwt>0</asrwt>
<pdfrwt beam="1">  1       21 0.17828733E-01 0.40830248E+03</pdfrwt>
<pdfrwt beam="2">  1       21 0.26720759E+00 0.40830248E+03</pdfrwt>
<totfact> 0.12634375E+03</totfact>
</mgrwt>
</event>
<event>
 4    1  0.4918322E-002  0.5263543E+03  0.7818608E-02  0.1007120E+00
         21   -1    0    0  503  502  0.00000000000E+00  0.00000000000E+00  0.91354094553E+03  0.91354094553E+03  0.00000000000E+00 0. -1.
         21   -1    0    0  501  503 -0.00000000000E+00 -0.00000000000E+00 -0.32360657857E+03  0.32360657857E+03  0.00000000000E+00 0.  1.
    9000007    1    1    2  501    0  0.14885696282E+03  0.30804293793E+03  0.13989634623E+03  0.54462816185E+03  0.40000000000E+03 0.  1.
   -9000007    1    1    2    0  502 -0.14885696282E+03 -0.30804293793E+03  0.45003802073E+03  0.69251936225E+03  0.40000000000E+03 0. -1.
<mgrwt>
<rscale>  2 0.52635430E+03</rscale>
<asrwt>0</asrwt>
<pdfrwt beam="1">  1       21 0.14054476E+00 0.52635430E+03</pdfrwt>
<pdfrwt beam="2">  1       21 0.49785628E-01 0.52635430E+03</pdfrwt>
<totfact> 0.11223366E+03</totfact>
</mgrwt>
</event>
<event>
 4    1  0.4918322E-002  0.4098503E+03  0.7818608E-02  0.1040421E+00
         21   -1    0    0  503  502  0.00000000000E+00  0.00000000000E+00  0.35839197920E+03  0.35839197920E+03  0.00000000000E+00 0.  1.
         21   -1    0    0  501  503 -0.00000000000E+00 -0.00000000000E+00 -0.11553141644E+04  0.11553141644E+04  0.00000000000E+00 0.  1.
    9000007    1    1    2  501    0  0.34797091649E+01 -0.89247635357E+02 -0.98193152650E+03  0.10640332568E+04  0.40000000000E+03 0.  1.
   -9000007    1    1    2    0  502 -0.34797091649E+01  0.89247635357E+02  0.18500934129E+03  0.44967288684E+03  0.40000000000E+03 0.  1.
<mgrwt>
<rscale>  2 0.40985028E+03</rscale>
<asrwt>0</asrwt>
<pdfrwt beam="1">  1       21 0.55137228E-01 0.40985028E+03</pdfrwt>
<pdfrwt beam="2">  1       21 0.17774064E+00 0.40985028E+03</pdfrwt>
<totfact> 0.49395197E+02</totfact>
</mgrwt>
</event>
<event>
 4    1  0.4918322E-002  0.6114982E+03  0.7818608E-02  0.9881834E-01
         21   -1    0    0  501  502  0.00000000000E+00  0.00000000000E+00  0.14838752687E+04  0.14838752687E+04  0.00000000000E+00 0.  1.
         21   -1    0    0  502  503 -0.00000000000E+00 -0.00000000000E+00 -0.30442448666E+03  0.30442448666E+03  0.00000000000E+00 0. -1.
    9000007    1    1    2  501    0  0.45545272005E+03  0.80578039678E+02  0.96079548488E+03  0.11388845264E+04  0.40000000000E+03 0.  1.
   -9000007    1    1    2    0  503 -0.45545272005E+03 -0.80578039678E+02  0.21865529721E+03  0.64941522901E+03  0.40000000000E+03 0. -1.
<mgrwt>
<rscale>  2 0.61149816E+03</rscale>
<asrwt>0</asrwt>
<pdfrwt beam="1">  1       21 0.22828850E+00 0.61149816E+03</pdfrwt>
<pdfrwt beam="2">  1       21 0.46834537E-01 0.61149816E+03</pdfrwt>
<totfact> 0.29400955E+02</totfact>
</mgrwt>
</event>
<event>
 4    1  0.4918322E-002  0.4019007E+03  0.7818608E-02  0.1043124E+00
         21   -1    0    0  501  502  0.00000000000E+00  0.00000000000E+00  0.31450767541E+03  0.31450767541E+03  0.00000000000E+00 0. -1.
         21   -1    0    0  502  503 -0.00000000000E+00 -0.00000000000E+00 -0.73510818704E+03  0.73510818704E+03  0.00000000000E+00 0. -1.
    9000007    1    1    2  501    0 -0.38031638433E+02 -0.88194850580E+01  0.77798460538E+02  0.40936144091E+03  0.40000000000E+03 0. -1.
   -9000007    1    1    2    0  503  0.38031638433E+02  0.88194850580E+01 -0.49839897218E+03  0.64025442154E+03  0.40000000000E+03 0. -1.
<mgrwt>
<rscale>  2 0.40190072E+03</rscale>
<asrwt>0</asrwt>
<pdfrwt beam="1">  1       21 0.48385797E-01 0.40190072E+03</pdfrwt>
<pdfrwt beam="2">  1       21 0.11309357E+00 0.40190072E+03</pdfrwt>
<totfact> 0.21902931E+03</totfact>
</mgrwt>
</event>
<event>
 4    1  0.4918322E-002  0.4441482E+03  0.7818608E-02  0.1029482E+00
         21   -1    0    0  501  502  0.00000000000E+00  0.00000000000E+00  0.14093035313E+04  0.14093035313E+04  0.00000000000E+00 0.  1.
         21   -1    0    0  502  503 -0.00000000000E+00 -0.00000000000E+00 -0.18510555024E+03  0.18510555024E+03  0.00000000000E+00 0. -1.
    9000007    1    1    2  501    0  0.57994580628E+02  0.18413105643E+03  0.10057343866E+04  0.10994404366E+04  0.40000000000E+03 0.  1.
   -9000007    1    1    2    0  503 -0.57994580628E+02 -0.18413105643E+03  0.21846359445E+03  0.49496864489E+03  0.40000000000E+03 0. -1.
<mgrwt>
<rscale>  2 0.44414819E+03</rscale>
<asrwt>0</asrwt>
<pdfrwt beam="1">  1       21 0.21681592E+00 0.44414819E+03</pdfrwt>
<pdfrwt beam="2">  1       21 0.28477778E-01 0.44414819E+03</pdfrwt>
<totfact> 0.10338239E+03</totfact>
</mgrwt>
</event>
<event>
 4    1  0.4918322E-002  0.4717698E+03  0.7818608E-02  0.1021422E+00
         21   -1    0    0  501  502  0.00000000000E+00  0.00000000000E+00  0.47680131966E+03  0.47680131966E+03  0.00000000000E+00 0.  1.
         21   -1    0    0  502  503 -0.00000000000E+00 -0.00000000000E+00 -0.57464098269E+03  0.57464098269E+03  0.00000000000E+00 0.  1.
    9000007    1    1    2  501    0 -0.11986654248E+03  0.21954212060E+03  0.17883441930E+03  0.50452797767E+03  0.40000000000E+03 0.  1.
   -9000007    1    1    2    0  503  0.11986654248E+03 -0.21954212060E+03 -0.27667408232E+03  0.54691432469E+03  0.40000000000E+03 0.  1.
<mgrwt>
<rscale>  2 0.47176979E+03</rscale>
<asrwt>0</asrwt>
<pdfrwt beam="1">  1       21 0.73354049E-01 0.47176979E+03</pdfrwt>
<pdfrwt beam="2">  1       21 0.88406306E-01 0.47176979E+03</pdfrwt>
<totfact> 0.15578704E+03</totfact>
</mgrwt>
</event>
<event>
 4    1  0.4918322E-002  0.4136569E+03  0.7818608E-02  0.1039151E+00
         21   -1    0    0  501  502  0.00000000000E+00  0.00000000000E+00  0.25925805083E+04  0.25925805083E+04  0.00000000000E+00 0. -1.
         21   -1    0    0  502  503 -0.00000000000E+00 -0.00000000000E+00 -0.73298853913E+02  0.73298853913E+02  0.00000000000E+00 0. -1.
    9000007    1    1    2  501    0  0.76631416571E+02  0.72385672856E+02  0.16802407634E+04  0.17304106687E+04  0.40000000000E+03 0. -1.
   -9000007    1    1    2    0  503 -0.76631416571E+02 -0.72385672856E+02  0.83904089100E+03  0.93546869344E+03  0.40000000000E+03 0. -1.
<mgrwt>
<rscale>  2 0.41365693E+03</rscale>
<asrwt>0</asrwt>
<pdfrwt beam="1">  1       21 0.39885847E+00 0.41365693E+03</pdfrwt>
<pdfrwt beam="2">  1       21 0.11276749E-01 0.41365693E+03</pdfrwt>
<totfact> 0.46061518E+02</totfact>
</mgrwt>
</event>
<event>
 4    1  0.4918322E-002  0.5395338E+03  0.7818608E-02  0.1003946E+00
         21   -1    0    0  501  502  0.00000000000E+00  0.00000000000E+00  0.13725715117E+03  0.13725715117E+03  0.00000000000E+00 0.  1.
         21   -1    0    0  502  503 -0.00000000000E+00 -0.00000000000E+00 -0.21925993061E+04  0.21925993061E+04  0.00000000000E+00 0.  1.
    9000007    1    1    2  501    0  0.29356654839E+03  0.21193256731E+03 -0.12384565899E+04  0.13508780317E+04  0.40000000000E+03 0.  1.
   -9000007    1    1    2    0  503 -0.29356654839E+03 -0.21193256731E+03 -0.81688556503E+03  0.97897842559E+03  0.40000000000E+03 0.  1.
<mgrwt>
<rscale>  2 0.53953381E+03</rscale>
<asrwt>0</asrwt>
<pdfrwt beam="1">  1       21 0.21116486E-01 0.53953381E+03</pdfrwt>
<pdfrwt beam="2">  1       21 0.33732296E+00 0.53953381E+03</pdfrwt>
<totfact> 0.32205400E+02</totfact>
</mgrwt>
</event>
<event>
 4    1  0.4918322E-002  0.5415625E+03  0.7818608E-02  0.1003466E+00
         21   -1    0    0  501  502  0.00000000000E+00  0.00000000000E+00  0.88335489747E+03  0.88335489747E+03  0.00000000000E+00 0. -1.
         21   -1    0    0  502  503 -0.00000000000E+00 -0.00000000000E+00 -0.49569375076E+03  0.49569375076E+03  0.00000000000E+00 0.  1.
    9000007    1    1    2  501    0  0.36255486087E+03 -0.42940422155E+02  0.59004909103E+03  0.80090438682E+03  0.40000000000E+03 0. -1.
   -9000007    1    1    2    0  503 -0.36255486087E+03  0.42940422155E+02 -0.20238794432E+03  0.57814426141E+03  0.40000000000E+03 0.  1.
<mgrwt>
<rscale>  2 0.54156247E+03</rscale>
<asrwt>0</asrwt>
<pdfrwt beam="1">  1       21 0.13590075E+00 0.54156247E+03</pdfrwt>
<pdfrwt beam="2">  1       21 0.76260577E-01 0.54156247E+03</pdfrwt>
<totfact> 0.47533987E+02</totfact>
</mgrwt>
</event>
<event>
 4    1  0.4918322E-002  0.4952420E+03  0.7818608E-02  0.1015028E+00
         21   -1    0    0  501  502  0.00000000000E+00  0.00000000000E+00  0.20795269544E+03  0.20795269544E+03  0.00000000000E+00 0.  1.
         21   -1    0    0  502  503 -0.00000000000E+00 -0.00000000000E+00 -0.18178579455E+04  0.18178579455E+04  0.00000000000E+00 0. -1.
    9000007    1    1    2  501    0 -0.24750183537E+03 -0.15494348859E+03 -0.20468286098E+03  0.53587285502E+03  0.40000000000E+03 0.  1.
   -9000007    1    1    2    0  503  0.24750183537E+03  0.15494348859E+03 -0.14052223891E+04  0.14899377860E+04  0.40000000000E+03 0. -1.
<mgrwt>
<rscale>  2 0.49524200E+03</rscale>
<asrwt>0</asrwt>
<pdfrwt beam="1">  1       21 0.31992724E-01 0.49524200E+03</pdfrwt>
<pdfrwt beam="2">  1       21 0.27967044E+00 0.49524200E+03</pdfrwt>
<totfact> 0.32629488E+02</totfact>
</mgrwt>
</event>
<event>
 4    1  0.4918322E-002  0.4936455E+03  0.7818608E-02  0.1015451E+00
         21   -1    0    0  501  502  0.00000000000E+00  0.00000000000E+00  0.10105732497E+04  0.10105732497E+04  0.00000000000E+00 0. -1.
         21   -1    0    0  502  503 -0.00000000000E+00 -0.00000000000E+00 -0.50234910193E+03  0.50234910193E+03  0.00000000000E+00 0.  1.
    9000007    1    1    2  501    0 -0.27123307500E+03 -0.10059085164E+03  0.79959486276E+03  0.93970093379E+03  0.40000000000E+03 0. -1.
   -9000007    1    1    2    0  503  0.27123307500E+03  0.10059085164E+03 -0.29137071495E+03  0.57322141790E+03  0.40000000000E+03 0.  1.
<mgrwt>
<rscale>  2 0.49364552E+03</rscale>
<asrwt>0</asrwt>
<pdfrwt beam="1">  1       21 0.15547281E+00 0.49364552E+03</pdfrwt>
<pdfrwt beam="2">  1       21 0.77284477E-01 0.49364552E+03</pdfrwt>
<totfact> 0.32670280E+02</totfact>
</mgrwt>
</event>
<event>
 4    1  0.4918322E-002  0.4168835E+03  0.7818608E-02  0.1038085E+00
         21   -1    0    0  503  502  0.00000000000E+00  0.00000000000E+00  0.18967820324E+03  0.18967820324E+03  0.00000000000E+00 0. -1.
         21   -1    0    0  501  503 -0.00000000000E+00 -0.00000000000E+00 -0.97797767001E+03  0.97797767001E+03  0.00000000000E+00 0. -1.
    9000007    1    1    2  501    0  0.65245826415E+02 -0.97646306642E+02 -0.54083139616E+03  0.68285460981E+03  0.40000000000E+03 0. -1.
   -9000007    1    1    2    0  502 -0.65245826415E+02  0.97646306642E+02 -0.24746807061E+03  0.48480126344E+03  0.40000000000E+03 0. -1.
<mgrwt>
<rscale>  2 0.41688346E+03</rscale>
<asrwt>0</asrwt>
<pdfrwt beam="1">  1       21 0.29181262E-01 0.41688346E+03</pdfrwt>
<pdfrwt beam="2">  1       21 0.15045810E+00 0.41688346E+03</pdfrwt>
<totfact> 0.29120914E+03</totfact>
</mgrwt>
</event>
<event>
 4    1  0.4918322E-002  0.4269290E+03  0.7818608E-02  0.1034834E+00
         21   -1    0    0  501  502  0.00000000000E+00  0.00000000000E+00  0.69781567356E+03  0.69781567356E+03  0.00000000000E+00 0. -1.
         21   -1    0    0  502  503 -0.00000000000E+00 -0.00000000000E+00 -0.26908678973E+03  0.26908678973E+03  0.00000000000E+00 0. -1.
    9000007    1    1    2  501    0  0.22321827229E+02  0.14754698559E+03  0.29713942556E+03  0.52015403022E+03  0.40000000000E+03 0.  1.
   -9000007    1    1    2    0  503 -0.22321827229E+02 -0.14754698559E+03  0.13158945826E+03  0.44674843307E+03  0.40000000000E+03 0.  1.
<mgrwt>
<rscale>  2 0.42692901E+03</rscale>
<asrwt>0</asrwt>
<pdfrwt beam="1">  1       21 0.10735626E+00 0.42692901E+03</pdfrwt>
<pdfrwt beam="2">  1       21 0.41397968E-01 0.42692901E+03</pdfrwt>
<totfact> 0.34175566E+03</totfact>
</mgrwt>
</event>
<event>
 4    1  0.4918322E-002  0.4357824E+03  0.7818608E-02  0.1032049E+00
         21   -1    0    0  501  502  0.00000000000E+00  0.00000000000E+00  0.14981596134E+04  0.14981596134E+04  0.00000000000E+00 0.  1.
         21   -1    0    0  502  503 -0.00000000000E+00 -0.00000000000E+00 -0.39126560750E+03  0.39126560750E+03  0.00000000000E+00 0.  1.
    9000007    1    1    2  501    0  0.13948310408E+03  0.10222918967E+03  0.13301974630E+04  0.13997612775E+04  0.40000000000E+03 0.  1.
   -9000007    1    1    2    0  503 -0.13948310408E+03 -0.10222918967E+03 -0.22330345705E+03  0.48966394341E+03  0.40000000000E+03 0.  1.
<mgrwt>
<rscale>  2 0.43578245E+03</rscale>
<asrwt>0</asrwt>
<pdfrwt beam="1">  1       21 0.23048609E+00 0.43578245E+03</pdfrwt>
<pdfrwt beam="2">  1       21 0.60194710E-01 0.43578245E+03</pdfrwt>
<totfact> 0.18015876E+02</totfact>
</mgrwt>
</event>
<event>
 4    1  0.4918322E-002  0.4250757E+03  0.7818608E-02  0.1035427E+00
         21   -1    0    0  501  502  0.00000000000E+00  0.00000000000E+00  0.44376297382E+03  0.44376297382E+03  0.00000000000E+00 0.  1.
         21   -1    0    0  502  503 -0.00000000000E+00 -0.00000000000E+00 -0.49541911729E+03  0.49541911729E+03  0.00000000000E+00 0.  1.
    9000007    1    1    2  501    0 -0.68595666348E+02 -0.12642793336E+03  0.17235894708E+03  0.45869052139E+03  0.40000000000E+03 0.  1.
   -9000007    1    1    2    0  503  0.68595666348E+02  0.12642793336E+03 -0.22401509055E+03  0.48049156972E+03  0.40000000000E+03 0.  1.
<mgrwt>
<rscale>  2 0.42507574E+03</rscale>
<asrwt>0</asrwt>
<pdfrwt beam="1">  1       21 0.68271227E-01 0.42507574E+03</pdfrwt>
<pdfrwt beam="2">  1       21 0.76218325E-01 0.42507574E+03</pdfrwt>
<totfact> 0.26312606E+03</totfact>
</mgrwt>
</event>
<event>
 4    1  0.4918322E-002  0.4678708E+03  0.7818608E-02  0.1022523E+00
         21   -1    0    0  503  502  0.00000000000E+00  0.00000000000E+00  0.37413899797E+03  0.37413899797E+03  0.00000000000E+00 0. -1.
         21   -1    0    0  501  503 -0.00000000000E+00 -0.00000000000E+00 -0.60520680881E+03  0.60520680881E+03  0.00000000000E+00 0. -1.
    9000007    1    1    2  501    0  0.87406755345E+02 -0.22641371315E+03 -0.20482082298E+03  0.51073934635E+03  0.40000000000E+03 0. -1.
   -9000007    1    1    2    0  502 -0.87406755345E+02  0.22641371315E+03 -0.26246987858E+02  0.46860646043E+03  0.40000000000E+03 0. -1.
<mgrwt>
<rscale>  2 0.46787083E+03</rscale>
<asrwt>0</asrwt>
<pdfrwt beam="1">  1       21 0.57559846E-01 0.46787083E+03</pdfrwt>
<pdfrwt beam="2">  1       21 0.93108740E-01 0.46787083E+03</pdfrwt>
<totfact> 0.23658426E+03</totfact>
</mgrwt>
</event>
<event>
 4    1  0.4918322E-002  0.4005179E+03  0.7818608E-02  0.1043601E+00
         21   -1    0    0  503  502  0.00000000000E+00  0.00000000000E+00  0.29411002054E+03  0.29411002054E+03  0.00000000000E+00 0.  1.
         21   -1    0    0  501  503 -0.00000000000E+00 -0.00000000000E+00 -0.54583882668E+03  0.54583882668E+03  0.00000000000E+00 0.  1.
    9000007    1    1    2  501    0 -0.11976284322E+01 -0.20325477439E+02 -0.13744710507E+03  0.42344570613E+03  0.40000000000E+03 0. -1.
   -9000007    1    1    2    0  502  0.11976284322E+01  0.20325477439E+02 -0.11428170107E+03  0.41650314110E+03  0.40000000000E+03 0. -1.
<mgrwt>
<rscale>  2 0.40051786E+03</rscale>
<asrwt>0</asrwt>
<pdfrwt beam="1">  1       21 0.45247696E-01 0.40051786E+03</pdfrwt>
<pdfrwt beam="2">  1       21 0.83975203E-01 0.40051786E+03</pdfrwt>
<totfact> 0.51663559E+03</totfact>
</mgrwt>
</event>
<event>
 4    1  0.4918322E-002  0.4252516E+03  0.7818608E-02  0.1035371E+00
         21   -1    0    0  503  502  0.00000000000E+00  0.00000000000E+00  0.24228681560E+03  0.24228681560E+03  0.00000000000E+00 0.  1.
         21   -1    0    0  501  503 -0.00000000000E+00 -0.00000000000E+00 -0.11618317416E+04  0.11618317416E+04  0.00000000000E+00 0.  1.
    9000007    1    1    2  501    0 -0.14029490459E+03  0.34004131923E+02 -0.87958992451E+03  0.97699405144E+03  0.40000000000E+03 0.  1.
   -9000007    1    1    2    0  502  0.14029490459E+03 -0.34004131923E+02 -0.39955001453E+02  0.42712450572E+03  0.40000000000E+03 0.  1.
<mgrwt>
<rscale>  2 0.42525162E+03</rscale>
<asrwt>0</asrwt>
<pdfrwt beam="1">  1       21 0.37274894E-01 0.42525162E+03</pdfrwt>
<pdfrwt beam="2">  1       21 0.17874335E+00 0.42525162E+03</pdfrwt>
<totfact> 0.10950232E+03</totfact>
</mgrwt>
</event>
<event>
 4    1  0.4918322E-002  0.4362196E+03  0.7818608E-02  0.1031913E+00
         21   -1    0    0  501  502  0.00000000000E+00  0.00000000000E+00  0.22514397304E+03  0.22514397304E+03  0.00000000000E+00 0.  1.
         21   -1    0    0  502  503 -0.00000000000E+00 -0.00000000000E+00 -0.98788412411E+03  0.98788412411E+03  0.00000000000E+00 0. -1.
    9000007    1    1    2  501    0  0.11709655295E+03 -0.12874741315E+03 -0.15085252913E+03  0.46156687993E+03  0.40000000000E+03 0.  1.
   -9000007    1    1    2    0  503 -0.11709655295E+03  0.12874741315E+03 -0.61188762193E+03  0.75146121721E+03  0.40000000000E+03 0. -1.
<mgrwt>
<rscale>  2 0.43621955E+03</rscale>
<asrwt>0</asrwt>
<pdfrwt beam="1">  1       21 0.34637535E-01 0.43621955E+03</pdfrwt>
<pdfrwt beam="2">  1       21 0.15198217E+00 0.43621955E+03</pdfrwt>
<totfact> 0.19958489E+03</totfact>
</mgrwt>
</event>
<event>
 4    1  0.4918322E-002  0.4815750E+03  0.7818608E-02  0.1018703E+00
         21   -1    0    0  501  502  0.00000000000E+00  0.00000000000E+00  0.10988390138E+04  0.10988390138E+04  0.00000000000E+00 0. -1.
         21   -1    0    0  502  503 -0.00000000000E+00 -0.00000000000E+00 -0.30953414324E+03  0.30953414324E+03  0.00000000000E+00 0.  1.
    9000007    1    1    2  501    0 -0.23439787731E+03 -0.13027691358E+03  0.79185098897E+03  0.92679146945E+03  0.40000000000E+03 0.  1.
   -9000007    1    1    2    0  503  0.23439787731E+03  0.13027691358E+03 -0.25461184217E+01  0.48158168759E+03  0.40000000000E+03 0.  1.
<mgrwt>
<rscale>  2 0.48157496E+03</rscale>
<asrwt>0</asrwt>
<pdfrwt beam="1">  1       21 0.16905215E+00 0.48157496E+03</pdfrwt>
<pdfrwt beam="2">  1       21 0.47620638E-01 0.48157496E+03</pdfrwt>
<totfact> 0.75403465E+02</totfact>
</mgrwt>
</event>
<event>
 4    1  0.4918322E-002  0.5301877E+03  0.7818608E-02  0.1006187E+00
         21   -1    0    0  501  502  0.00000000000E+00  0.00000000000E+00  0.23248241460E+04  0.23248241460E+04  0.00000000000E+00 0. -1.
         21   -1    0    0  502  503 -0.00000000000E+00 -0.00000000000E+00 -0.16486171412E+03  0.16486171412E+03  0.00000000000E+00 0. -1.
    9000007    1    1    2  501    0 -0.14512670313E+03 -0.31628665595E+03  0.17227176986E+04  0.18024581209E+04  0.40000000000E+03 0.  1.
   -9000007    1    1    2    0  503  0.14512670313E+03  0.31628665595E+03  0.43724473328E+03  0.68722773916E+03  0.40000000000E+03 0.  1.
<mgrwt>
<rscale>  2 0.53018771E+03</rscale>
<asrwt>0</asrwt>
<pdfrwt beam="1">  1       21 0.35766523E+00 0.53018771E+03</pdfrwt>
<pdfrwt beam="2">  1       21 0.25363342E-01 0.53018771E+03</pdfrwt>
<totfact> 0.16996472E+02</totfact>
</mgrwt>
</event>
<event>
 4    1  0.4918322E-002  0.4271095E+03  0.7818608E-02  0.1034777E+00
         21   -1    0    0  503  502  0.00000000000E+00  0.00000000000E+00  0.12837640538E+04  0.12837640538E+04  0.00000000000E+00 0. -1.
         21   -1    0    0  501  503 -0.00000000000E+00 -0.00000000000E+00 -0.14224373088E+03  0.14224373088E+03  0.00000000000E+00 0. -1.
    9000007    1    1    2  501    0 -0.80686999221E+02  0.12614345110E+03  0.54807641259E+03  0.69484553401E+03  0.40000000000E+03 0. -1.
   -9000007    1    1    2    0  502  0.80686999221E+02 -0.12614345110E+03  0.59344391032E+03  0.73116225066E+03  0.40000000000E+03 0. -1.
<mgrwt>
<rscale>  2 0.42710954E+03</rscale>
<asrwt>0</asrwt>
<pdfrwt beam="1">  1       21 0.19750215E+00 0.42710954E+03</pdfrwt>
<pdfrwt beam="2">  1       21 0.21883652E-01 0.42710954E+03</pdfrwt>
<totfact> 0.23275741E+03</totfact>
</mgrwt>
</event>
<event>
 4    1  0.4918322E-002  0.4749644E+03  0.7818608E-02  0.1020528E+00
         21   -1    0    0  501  502  0.00000000000E+00  0.00000000000E+00  0.52646442588E+03  0.52646442588E+03  0.00000000000E+00 0. -1.
         21   -1    0    0  502  503 -0.00000000000E+00 -0.00000000000E+00 -0.66043486942E+03  0.66043486942E+03  0.00000000000E+00 0.  1.
    9000007    1    1    2  501    0 -0.24279007849E+03  0.81511483087E+02  0.28469656624E+03  0.55375380714E+03  0.40000000000E+03 0.  1.
   -9000007    1    1    2    0  503  0.24279007849E+03 -0.81511483087E+02 -0.41866700979E+03  0.63314548816E+03  0.40000000000E+03 0.  1.
<mgrwt>
<rscale>  2 0.47496436E+03</rscale>
<asrwt>0</asrwt>
<pdfrwt beam="1">  1       21 0.80994527E-01 0.47496436E+03</pdfrwt>
<pdfrwt beam="2">  1       21 0.10160536E+00 0.47496436E+03</pdfrwt>
<totfact> 0.88739750E+02</totfact>
</mgrwt>
</event>
<event>
 4    1  0.4918322E-002  0.5953628E+03  0.7818608E-02  0.9915074E-01
         21   -1    0    0  501  502  0.00000000000E+00  0.00000000000E+00  0.13687670871E+04  0.13687670871E+04  0.00000000000E+00 0.  1.
         21   -1    0    0  502  503 -0.00000000000E+00 -0.00000000000E+00 -0.37742554743E+03  0.37742554743E+03  0.00000000000E+00 0. -1.
    9000007    1    1    2  501    0 -0.33674479877E+03  0.28471013536E+03  0.98481981352E+03  0.11507940675E+04  0.40000000000E+03 0.  1.
   -9000007    1    1    2    0  503  0.33674479877E+03 -0.28471013536E+03  0.65217261143E+01  0.59539856700E+03  0.40000000000E+03 0. -1.
<mgrwt>
<rscale>  2 0.59536285E+03</rscale>
<asrwt>0</asrwt>
<pdfrwt beam="1">  1       21 0.21057955E+00 0.59536285E+03</pdfrwt>
<pdfrwt beam="2">  1       21 0.58065470E-01 0.59536285E+03</pdfrwt>
<totfact> 0.24250890E+02</totfact>
</mgrwt>
</event>
<event>
 4    1  0.4918322E-002  0.4633674E+03  0.7818608E-02  0.1023809E+00
         21   -1    0    0  503  502  0.00000000000E+00  0.00000000000E+00  0.10616354233E+04  0.10616354233E+04  0.00000000000E+00 0.  1.
         21   -1    0    0  501  503 -0.00000000000E+00 -0.00000000000E+00 -0.52941485962E+03  0.52941485962E+03  0.00000000000E+00 0.  1.
    9000007    1    1    2  501    0  0.23233722663E+03 -0.26995788316E+02 -0.35926854793E+03  0.58633032413E+03  0.40000000000E+03 0.  1.
   -9000007    1    1    2    0  502 -0.23233722663E+03  0.26995788316E+02  0.89148911166E+03  0.10047199588E+04  0.40000000000E+03 0.  1.
<mgrwt>
<rscale>  2 0.46336741E+03</rscale>
<asrwt>0</asrwt>
<pdfrwt beam="1">  1       21 0.16332853E+00 0.46336741E+03</pdfrwt>
<pdfrwt beam="2">  1       21 0.81448440E-01 0.46336741E+03</pdfrwt>
<totfact> 0.25585318E+02</totfact>
</mgrwt>
</event>
<event>
 4    1  0.4918322E-002  0.4684382E+03  0.7818608E-02  0.1022362E+00
         21   -1    0    0  503  502  0.00000000000E+00  0.00000000000E+00  0.12590944810E+03  0.12590944810E+03  0.00000000000E+00 0. -1.
         21   -1    0    0  501  503 -0.00000000000E+00 -0.00000000000E+00 -0.17441106997E+04  0.17441106997E+04  0.00000000000E+00 0.  1.
    9000007    1    1    2  501    0 -0.55408016456E+02 -0.23741176154E+03 -0.78342268533E+03  0.91278995212E+03  0.40000000000E+03 0. -1.
   -9000007    1    1    2    0  502  0.55408016456E+02  0.23741176154E+03 -0.83477856628E+03  0.95723019568E+03  0.40000000000E+03 0.  1.
<mgrwt>
<rscale>  2 0.46843825E+03</rscale>
<asrwt>0</asrwt>
<pdfrwt beam="1">  1       21 0.19370685E-01 0.46843825E+03</pdfrwt>
<pdfrwt beam="2">  1       21 0.26832472E+00 0.46843825E+03</pdfrwt>
<totfact> 0.10308490E+03</totfact>
</mgrwt>
</event>
<event>
 4    1  0.4918322E-002  0.4338428E+03  0.7818608E-02  0.1032653E+00
         21   -1    0    0  503  502  0.00000000000E+00  0.00000000000E+00  0.10871489339E+04  0.10871489339E+04  0.00000000000E+00 0.  1.
         21   -1    0    0  501  503 -0.00000000000E+00 -0.00000000000E+00 -0.19675466111E+03  0.19675466111E+03  0.00000000000E+00 0.  1.
    9000007    1    1    2  501    0 -0.16562462718E+03 -0.28072893897E+02  0.66763562459E+03  0.79621412430E+03  0.40000000000E+03 0.  1.
   -9000007    1    1    2    0  502  0.16562462718E+03  0.28072893897E+02  0.22275864820E+03  0.48768947072E+03  0.40000000000E+03 0.  1.
<mgrwt>
<rscale>  2 0.43384283E+03</rscale>
<asrwt>0</asrwt>
<pdfrwt beam="1">  1       21 0.16725368E+00 0.43384283E+03</pdfrwt>
<pdfrwt beam="2">  1       21 0.30269949E-01 0.43384283E+03</pdfrwt>
<totfact> 0.20060264E+03</totfact>
</mgrwt>
</event>
<event>
 4    1  0.4918322E-002  0.4355554E+03  0.7818608E-02  0.1032119E+00
         21   -1    0    0  503  502  0.00000000000E+00  0.00000000000E+00  0.17357084791E+04  0.17357084791E+04  0.00000000000E+00 0. -1.
         21   -1    0    0  501  503 -0.00000000000E+00 -0.00000000000E+00 -0.16363933185E+03  0.16363933185E+03  0.00000000000E+00 0.  1.
    9000007    1    1    2  501    0  0.17158084422E+03 -0.16386681583E+02  0.23876916788E+03  0.49670839027E+03  0.40000000000E+03 0.  1.
   -9000007    1    1    2    0  502 -0.17158084422E+03  0.16386681583E+02  0.13332999794E+04  0.14026394207E+04  0.40000000000E+03 0. -1.
<mgrwt>
<rscale>  2 0.43555540E+03</rscale>
<asrwt>0</asrwt>
<pdfrwt beam="1">  1       21 0.26703206E+00 0.43555540E+03</pdfrwt>
<pdfrwt beam="2">  1       21 0.25175283E-01 0.43555540E+03</pdfrwt>
<totfact> 0.64515941E+02</totfact>
</mgrwt>
</event>
<event>
 4    1  0.4918322E-002  0.4557095E+03  0.7818608E-02  0.1026033E+00
         21   -1    0    0  503  502  0.00000000000E+00  0.00000000000E+00  0.93827593164E+03  0.93827593164E+03  0.00000000000E+00 0. -1.
         21   -1    0    0  501  503 -0.00000000000E+00 -0.00000000000E+00 -0.22553815685E+03  0.22553815685E+03  0.00000000000E+00 0. -1.
    9000007    1    1    2  501    0 -0.13583717625E+03 -0.17093683038E+03  0.43582925488E+03  0.63056980410E+03  0.40000000000E+03 0. -1.
   -9000007    1    1    2    0  502  0.13583717625E+03  0.17093683038E+03  0.27690851992E+03  0.53324428439E+03  0.40000000000E+03 0. -1.
<mgrwt>
<rscale>  2 0.45570949E+03</rscale>
<asrwt>0</asrwt>
<pdfrwt beam="1">  1       21 0.14435014E+00 0.45570949E+03</pdfrwt>
<pdfrwt beam="2">  1       21 0.34698178E-01 0.45570949E+03</pdfrwt>
<totfact> 0.22685590E+03</totfact>
</mgrwt>
</event>
<event>
 4    1  0.4918322E-002  0.4400949E+03  0.7818608E-02  0.1030718E+00
         21   -1    0    0  503  502  0.00000000000E+00  0.00000000000E+00  0.52294416732E+03  0.52294416732E+03  0.00000000000E+00 0. -1.
         21   -1    0    0  501  503 -0.00000000000E+00 -0.00000000000E+00 -0.48970067590E+03  0.48970067590E+03  0.00000000000E+00 0. -1.
    9000007    1    1    2  501    0 -0.14970919296E+03 -0.10616335909E+03 -0.23331811694E+03  0.49811730040E+03  0.40000000000E+03 0. -1.
   -9000007    1    1    2    0  502  0.14970919296E+03  0.10616335909E+03  0.26656160835E+03  0.51452754282E+03  0.40000000000E+03 0. -1.
<mgrwt>
<rscale>  2 0.44009488E+03</rscale>
<asrwt>0</asrwt>
<pdfrwt beam="1">  1       21 0.80452949E-01 0.44009488E+03</pdfrwt>
<pdfrwt beam="2">  1       21 0.75338565E-01 0.44009488E+03</pdfrwt>
<totfact> 0.18492969E+03</totfact>
</mgrwt>
</event>
<event>
 4    1  0.4918322E-002  0.6001314E+03  0.7818608E-02  0.9905134E-01
         21   -1    0    0  503  502  0.00000000000E+00  0.00000000000E+00  0.66066937016E+03  0.66066937016E+03  0.00000000000E+00 0.  1.
         21   -1    0    0  501  503 -0.00000000000E+00 -0.00000000000E+00 -0.79092893320E+03  0.79092893320E+03  0.00000000000E+00 0.  1.
    9000007    1    1    2  501    0  0.37380000064E+03 -0.24582759070E+03 -0.46973215547E+03  0.76210625421E+03  0.40000000000E+03 0.  1.
   -9000007    1    1    2    0  502 -0.37380000064E+03  0.24582759070E+03  0.33947259243E+03  0.68949204915E+03  0.40000000000E+03 0.  1.
<mgrwt>
<rscale>  2 0.60013136E+03</rscale>
<asrwt>0</asrwt>
<pdfrwt beam="1">  1       21 0.10164144E+00 0.60013136E+03</pdfrwt>
<pdfrwt beam="2">  1       21 0.12168137E+00 0.60013136E+03</pdfrwt>
<totfact> 0.31386002E+02</totfact>
</mgrwt>
</event>
<event>
 4    1  0.4918322E-002  0.4910908E+03  0.7818608E-02  0.1016131E+00
         21   -1    0    0  503  502  0.00000000000E+00  0.00000000000E+00  0.36810319298E+03  0.36810319298E+03  0.00000000000E+00 0.  1.
         21   -1    0    0  501  503 -0.00000000000E+00 -0.00000000000E+00 -0.96449451951E+03  0.96449451951E+03  0.00000000000E+00 0. -1.
    9000007    1    1    2  501    0  0.28292875223E+03 -0.33488156638E+02 -0.67553008339E+03  0.83517125731E+03  0.40000000000E+03 0. -1.
   -9000007    1    1    2    0  502 -0.28292875223E+03  0.33488156638E+02  0.79138756850E+02  0.49742645518E+03  0.40000000000E+03 0.  1.
<mgrwt>
<rscale>  2 0.49109076E+03</rscale>
<asrwt>0</asrwt>
<pdfrwt beam="1">  1       21 0.56631261E-01 0.49109076E+03</pdfrwt>
<pdfrwt beam="2">  1       21 0.14838377E+00 0.49109076E+03</pdfrwt>
<totfact> 0.74446387E+02</totfact>
</mgrwt>
</event>
<event>
 4    1  0.4918322E-002  0.5137796E+03  0.7818608E-02  0.1010244E+00
         21   -1    0    0  503  502  0.00000000000E+00  0.00000000000E+00  0.54861486544E+03  0.54861486544E+03  0.00000000000E+00 0.  1.
         21   -1    0    0  501  503 -0.00000000000E+00 -0.00000000000E+00 -0.50449567031E+03  0.50449567031E+03  0.00000000000E+00 0. -1.
    9000007    1    1    2  501    0  0.99559807218E+02 -0.30668759602E+03 -0.91196308628E+02  0.52181050533E+03  0.40000000000E+03 0. -1.
   -9000007    1    1    2    0  502 -0.99559807218E+02  0.30668759602E+03  0.13531550376E+03  0.53130003042E+03  0.40000000000E+03 0.  1.
<mgrwt>
<rscale>  2 0.51377956E+03</rscale>
<asrwt>0</asrwt>
<pdfrwt beam="1">  1       21 0.84402287E-01 0.51377956E+03</pdfrwt>
<pdfrwt beam="2">  1       21 0.77614718E-01 0.51377956E+03</pdfrwt>
<totfact> 0.15043061E+03</totfact>
</mgrwt>
</event>
<event>
 4    1  0.4918322E-002  0.4643521E+03  0.7818608E-02  0.1023527E+00
         21   -1    0    0  501  502  0.00000000000E+00  0.00000000000E+00  0.68477298542E+03  0.68477298542E+03  0.00000000000E+00 0.  1.
         21   -1    0    0  502  503 -0.00000000000E+00 -0.00000000000E+00 -0.34412948434E+03  0.34412948434E+03  0.00000000000E+00 0.  1.
    9000007    1    1    2  501    0  0.14204482619E+03  0.18827144457E+03  0.32029905864E+03  0.56410491617E+03  0.40000000000E+03 0. -1.
   -9000007    1    1    2    0  503 -0.14204482619E+03 -0.18827144457E+03  0.20344442446E+02  0.46479755359E+03  0.40000000000E+03 0. -1.
<mgrwt>
<rscale>  2 0.46435210E+03</rscale>
<asrwt>0</asrwt>
<pdfrwt beam="1">  1       21 0.10534969E+00 0.46435210E+03</pdfrwt>
<pdfrwt beam="2">  1       21 0.52942998E-01 0.46435210E+03</pdfrwt>
<totfact> 0.21031468E+03</totfact>
</mgrwt>
</event>
<event>
 4    1  0.4918322E-002  0.4724731E+03  0.7818608E-02  0.1021225E+00
         21   -1    0    0  503  502  0.00000000000E+00  0.00000000000E+00  0.21442153429E+03  0.21442153429E+03  0.00000000000E+00 0. -1.
         21   -1    0    0  501  503 -0.00000000000E+00 -0.00000000000E+00 -0.12285083989E+04  0.12285083989E+04  0.00000000000E+00 0. -1.
    9000007    1    1    2  501    0 -0.24503878471E+03 -0.56451745785E+02 -0.22524448285E+03  0.52341750321E+03  0.40000000000E+03 0. -1.
   -9000007    1    1    2    0  502  0.24503878471E+03  0.56451745785E+02 -0.78884238174E+03  0.91951242996E+03  0.40000000000E+03 0. -1.
<mgrwt>
<rscale>  2 0.47247307E+03</rscale>
<asrwt>0</asrwt>
<pdfrwt beam="1">  1       21 0.32987929E-01 0.47247307E+03</pdfrwt>
<pdfrwt beam="2">  1       21 0.18900129E+00 0.47247307E+03</pdfrwt>
<totfact> 0.11648539E+03</totfact>
</mgrwt>
</event>
<event>
 4    1  0.4918322E-002  0.4493763E+03  0.7818608E-02  0.1027908E+00
         21   -1    0    0  503  502  0.00000000000E+00  0.00000000000E+00  0.94378136794E+03  0.94378136794E+03  0.00000000000E+00 0. -1.
         21   -1    0    0  501  503 -0.00000000000E+00 -0.00000000000E+00 -0.24641859654E+03  0.24641859654E+03  0.00000000000E+00 0. -1.
    9000007    1    1    2  501    0  0.20351569909E+03 -0.22811765113E+02  0.13272576760E+03  0.46856711983E+03  0.40000000000E+03 0. -1.
   -9000007    1    1    2    0  502 -0.20351569909E+03  0.22811765113E+02  0.56463700380E+03  0.72163284464E+03  0.40000000000E+03 0. -1.
<mgrwt>
<rscale>  2 0.44937625E+03</rscale>
<asrwt>0</asrwt>
<pdfrwt beam="1">  1       21 0.14519713E+00 0.44937625E+03</pdfrwt>
<pdfrwt beam="2">  1       21 0.37910554E-01 0.44937625E+03</pdfrwt>
<totfact> 0.18698942E+03</totfact>
</mgrwt>
</event>
<event>
 4    1  0.4918322E-002  0.5182826E+03  0.7818608E-02  0.1009114E+00
         21   -1    0    0  501  502  0.00000000000E+00  0.00000000000E+00  0.17809924998E+04  0.17809924998E+04  0.00000000000E+00 0. -1.
         21   -1    0    0  502  503 -0.00000000000E+00 -0.00000000000E+00 -0.38309157831E+03  0.38309157831E+03  0.00000000000E+00 0.  1.
    9000007    1    1    2  501    0  0.32917560989E+03 -0.16132433711E+02  0.15414834308E+04  0.16262804201E+04  0.40000000000E+03 0. -1.
   -9000007    1    1    2    0  503 -0.32917560989E+03  0.16132433711E+02 -0.14358250928E+03  0.53780365798E+03  0.40000000000E+03 0.  1.
<mgrwt>
<rscale>  2 0.51828258E+03</rscale>
<asrwt>0</asrwt>
<pdfrwt beam="1">  1       21 0.27399884E+00 0.51828258E+03</pdfrwt>
<pdfrwt beam="2">  1       21 0.58937167E-01 0.51828258E+03</pdfrwt>
<totfact> 0.97223983E+01</totfact>
</mgrwt>
</event>
<event>
 4    1  0.4918322E-002  0.5430023E+03  0.7818608E-02  0.1003127E+00
         21   -1    0    0  501  502  0.00000000000E+00  0.00000000000E+00  0.93744709679E+03  0.93744709679E+03  0.00000000000E+00 0. -1.
         21   -1    0    0  502  503 -0.00000000000E+00 -0.00000000000E+00 -0.32279089080E+03  0.32279089080E+03  0.00000000000E+00 0. -1.
    9000007    1    1    2  501    0 -0.17866014082E+03 -0.32083029246E+03  0.20650049571E+03  0.58094231831E+03  0.40000000000E+03 0.  1.
   -9000007    1    1    2    0  503  0.17866014082E+03  0.32083029246E+03  0.40815571029E+03  0.67929566929E+03  0.40000000000E+03 0.  1.
<mgrwt>
<rscale>  2 0.54300232E+03</rscale>
<asrwt>0</asrwt>
<pdfrwt beam="1">  1       21 0.14422263E+00 0.54300232E+03</pdfrwt>
<pdfrwt beam="2">  1       21 0.49660137E-01 0.54300232E+03</pdfrwt>
<totfact> 0.10465521E+03</totfact>
</mgrwt>
</event>
<event>
 4    1  0.4918322E-002  0.5201209E+03  0.7818608E-02  0.1008657E+00
         21   -1    0    0  503  502  0.00000000000E+00  0.00000000000E+00  0.32243798318E+03  0.32243798318E+03  0.00000000000E+00 0. -1.
         21   -1    0    0  501  503 -0.00000000000E+00 -0.00000000000E+00 -0.12007484688E+04  0.12007484688E+04  0.00000000000E+00 0. -1.
    9000007    1    1    2  501    0  0.31641870390E+03 -0.10200480532E+03 -0.85717790621E+03  0.10026363944E+04  0.40000000000E+03 0. -1.
   -9000007    1    1    2    0  502 -0.31641870390E+03  0.10200480532E+03 -0.21132579360E+02  0.52055005753E+03  0.40000000000E+03 0. -1.
<mgrwt>
<rscale>  2 0.52012092E+03</rscale>
<asrwt>0</asrwt>
<pdfrwt beam="1">  1       21 0.49605843E-01 0.52012092E+03</pdfrwt>
<pdfrwt beam="2">  1       21 0.18473053E+00 0.52012092E+03</pdfrwt>
<totfact> 0.52567299E+02</totfact>
</mgrwt>
</event>
<event>
 4    1  0.4918322E-002  0.4053863E+03  0.7818608E-02  0.1041930E+00
         21   -1    0    0  503  502  0.00000000000E+00  0.00000000000E+00  0.46727472274E+03  0.46727472274E+03  0.00000000000E+00 0. -1.
         21   -1    0    0  501  503 -0.00000000000E+00 -0.00000000000E+00 -0.11790804640E+04  0.11790804640E+04  0.00000000000E+00 0. -1.
    9000007    1    1    2  501    0  0.55744390991E+02 -0.35079855390E+02 -0.10454688811E+04  0.11213131653E+04  0.40000000000E+03 0. -1.
   -9000007    1    1    2    0  502 -0.55744390991E+02  0.35079855390E+02  0.33366313983E+03  0.52504202143E+03  0.40000000000E+03 0. -1.
<mgrwt>
<rscale>  2 0.40538628E+03</rscale>
<asrwt>0</asrwt>
<pdfrwt beam="1">  1       21 0.71888421E-01 0.40538628E+03</pdfrwt>
<pdfrwt beam="2">  1       21 0.18139699E+00 0.40538628E+03</pdfrwt>
<totfact> 0.25998820E+02</totfact>
</mgrwt>
</event>
<event>
 4    1  0.4918322E-002  0.4714679E+03  0.7818608E-02  0.1021507E+00
         21   -1    0    0  503  502  0.00000000000E+00  0.00000000000E+00  0.25549784472E+03  0.25549784472E+03  0.00000000000E+00 0.  1.
         21   -1    0    0  501  503 -0.00000000000E+00 -0.00000000000E+00 -0.10092061847E+04  0.10092061847E+04  0.00000000000E+00 0.  1.
    9000007    1    1    2  501    0 -0.84415587499E+02 -0.23485321972E+03 -0.61171193731E+03  0.77231698187E+03  0.40000000000E+03 0.  1.
   -9000007    1    1    2    0  502  0.84415587499E+02  0.23485321972E+03 -0.14199640267E+03  0.49238704755E+03  0.40000000000E+03 0.  1.
<mgrwt>
<rscale>  2 0.47146795E+03</rscale>
<asrwt>0</asrwt>
<pdfrwt beam="1">  1       21 0.39307361E-01 0.47146795E+03</pdfrwt>
<pdfrwt beam="2">  1       21 0.15526249E+00 0.47146795E+03</pdfrwt>
<totfact> 0.14343532E+03</totfact>
</mgrwt>
</event>
<event>
 4    1  0.4918322E-002  0.6178943E+03  0.7818608E-02  0.9868961E-01
         21   -1    0    0  501  502  0.00000000000E+00  0.00000000000E+00  0.60560001661E+03  0.60560001661E+03  0.00000000000E+00 0. -1.
         21   -1    0    0  502  503 -0.00000000000E+00 -0.00000000000E+00 -0.63467960205E+03  0.63467960205E+03  0.00000000000E+00 0.  1.
    9000007    1    1    2  501    0  0.37483572945E+03  0.28511664541E+03  0.36156013636E+02  0.61895119588E+03  0.40000000000E+03 0.  1.
   -9000007    1    1    2    0  503 -0.37483572945E+03 -0.28511664541E+03 -0.65235599078E+02  0.62132842277E+03  0.40000000000E+03 0. -1.
<mgrwt>
<rscale>  2 0.61789427E+03</rscale>
<asrwt>0</asrwt>
<pdfrwt beam="1">  1       21 0.93169233E-01 0.61789427E+03</pdfrwt>
<pdfrwt beam="2">  1       21 0.97643016E-01 0.61789427E+03</pdfrwt>
<totfact> 0.66839065E+02</totfact>
</mgrwt>
</event>
<event>
 4    1  0.4918322E-002  0.4972137E+03  0.7818608E-02  0.1014509E+00
         21   -1    0    0  501  502  0.00000000000E+00  0.00000000000E+00  0.54882537447E+03  0.54882537447E+03  0.00000000000E+00 0. -1.
         21   -1    0    0  502  503 -0.00000000000E+00 -0.00000000000E+00 -0.53130940625E+03  0.53130940625E+03  0.00000000000E+00 0. -1.
    9000007    1    1    2  501    0 -0.23956149815E+03  0.17271872702E+03  0.21943851527E+03  0.54348388389E+03  0.40000000000E+03 0. -1.
   -9000007    1    1    2    0  503  0.23956149815E+03 -0.17271872702E+03 -0.20192254704E+03  0.53665089683E+03  0.40000000000E+03 0. -1.
<mgrwt>
<rscale>  2 0.49721371E+03</rscale>
<asrwt>0</asrwt>
<pdfrwt beam="1">  1       21 0.84434673E-01 0.49721371E+03</pdfrwt>
<pdfrwt beam="2">  1       21 0.81739908E-01 0.49721371E+03</pdfrwt>
<totfact> 0.13407696E+03</totfact>
</mgrwt>
</event>
<event>
 4    1  0.4918322E-002  0.4152340E+03  0.7818608E-02  0.1038629E+00
         21   -1    0    0  503  502  0.00000000000E+00  0.00000000000E+00  0.34118165682E+03  0.34118165682E+03  0.00000000000E+00 0.  1.
         21   -1    0    0  501  503 -0.00000000000E+00 -0.00000000000E+00 -0.62445034698E+03  0.62445034698E+03  0.00000000000E+00 0.  1.
    9000007    1    1    2  501    0 -0.38376722212E+02  0.10462544701E+03 -0.35248386219E+03  0.54466882606E+03  0.40000000000E+03 0.  1.
   -9000007    1    1    2    0  502  0.38376722212E+02 -0.10462544701E+03  0.69215172034E+02  0.42096317774E+03  0.40000000000E+03 0.  1.
<mgrwt>
<rscale>  2 0.41523398E+03</rscale>
<asrwt>0</asrwt>
<pdfrwt beam="1">  1       21 0.52489486E-01 0.41523398E+03</pdfrwt>
<pdfrwt beam="2">  1       21 0.96069284E-01 0.41523398E+03</pdfrwt>
<totfact> 0.27312507E+03</totfact>
</mgrwt>
</event>
<event>
 4    1  0.4918322E-002  0.4472699E+03  0.7818608E-02  0.1028539E+00
         21   -1    0    0  501  502  0.00000000000E+00  0.00000000000E+00  0.51203332797E+03  0.51203332797E+03  0.00000000000E+00 0. -1.
         21   -1    0    0  502  503 -0.00000000000E+00 -0.00000000000E+00 -0.83043054543E+03  0.83043054543E+03  0.00000000000E+00 0. -1.
    9000007    1    1    2  501    0 -0.85678708026E+02  0.18085768697E+03  0.32924598863E+03  0.55538569029E+03  0.40000000000E+03 0. -1.
   -9000007    1    1    2    0  503  0.85678708026E+02 -0.18085768697E+03 -0.64764320609E+03  0.78707818311E+03  0.40000000000E+03 0. -1.
<mgrwt>
<rscale>  2 0.44726988E+03</rscale>
<asrwt>0</asrwt>
<pdfrwt beam="1">  1       21 0.78774358E-01 0.44726988E+03</pdfrwt>
<pdfrwt beam="2">  1       21 0.12775854E+00 0.44726988E+03</pdfrwt>
<totfact> 0.53895157E+02</totfact>
</mgrwt>
</event>
<event>
 4    1  0.4918322E-002  0.5463668E+03  0.7818608E-02  0.1002338E+00
         21   -1    0    0  503  502  0.00000000000E+00  0.00000000000E+00  0.73746859004E+03  0.73746859004E+03  0.00000000000E+00 0. -1.
         21   -1    0    0  501  503 -0.00000000000E+00 -0.00000000000E+00 -0.49564125368E+03  0.49564125368E+03  0.00000000000E+00 0.  1.
    9000007    1    1    2  501    0  0.11625959851E+03 -0.35355393987E+03 -0.14306204347E+03  0.56478618160E+03  0.40000000000E+03 0.  1.
   -9000007    1    1    2    0  502 -0.11625959851E+03  0.35355393987E+03  0.38488937983E+03  0.66832366212E+03  0.40000000000E+03 0. -1.
<mgrwt>
<rscale>  2 0.54636680E+03</rscale>
<asrwt>0</asrwt>
<pdfrwt beam="1">  1       21 0.11345671E+00 0.54636680E+03</pdfrwt>
<pdfrwt beam="2">  1       21 0.76252500E-01 0.54636680E+03</pdfrwt>
<totfact> 0.75570235E+02</totfact>
</mgrwt>
</event>
<event>
 4    1  0.4918322E-002  0.4166117E+03  0.7818608E-02  0.1038175E+00
         21   -1    0    0  501  502  0.00000000000E+00  0.00000000000E+00  0.46852359655E+03  0.46852359655E+03  0.00000000000E+00 0. -1.
         21   -1    0    0  502  503 -0.00000000000E+00 -0.00000000000E+00 -0.39316449625E+03  0.39316449625E+03  0.00000000000E+00 0. -1.
    9000007    1    1    2  501    0  0.10601894081E+03  0.48221474325E+02  0.14123405480E+03  0.43990042581E+03  0.40000000000E+03 0. -1.
   -9000007    1    1    2    0  503 -0.10601894081E+03 -0.48221474325E+02 -0.65874954501E+02  0.42178766699E+03  0.40000000000E+03 0. -1.
<mgrwt>
<rscale>  2 0.41661172E+03</rscale>
<asrwt>0</asrwt>
<pdfrwt beam="1">  1       21 0.72080553E-01 0.41661172E+03</pdfrwt>
<pdfrwt beam="2">  1       21 0.60486846E-01 0.41661172E+03</pdfrwt>
<totfact> 0.39179643E+03</totfact>
</mgrwt>
</event>
<event>
 4    1  0.4918322E-002  0.4394094E+03  0.7818608E-02  0.1030928E+00
         21   -1    0    0  501  502  0.00000000000E+00  0.00000000000E+00  0.27955651091E+03  0.27955651091E+03  0.00000000000E+00 0. -1.
         21   -1    0    0  502  503 -0.00000000000E+00 -0.00000000000E+00 -0.74744135681E+03  0.74744135681E+03  0.00000000000E+00 0. -1.
    9000007    1    1    2  501    0  0.13684865444E+03  0.11980444465E+03 -0.92420302980E+02  0.44902357575E+03  0.40000000000E+03 0. -1.
   -9000007    1    1    2    0  503 -0.13684865444E+03 -0.11980444465E+03 -0.37546454292E+03  0.57797429196E+03  0.40000000000E+03 0. -1.
<mgrwt>
<rscale>  2 0.43940944E+03</rscale>
<asrwt>0</asrwt>
<pdfrwt beam="1">  1       21 0.43008694E-01 0.43940944E+03</pdfrwt>
<pdfrwt beam="2">  1       21 0.11499098E+00 0.43940944E+03</pdfrwt>
<totfact> 0.26497998E+03</totfact>
</mgrwt>
</event>
<event>
 4    1  0.4918322E-002  0.9335105E+03  0.7818608E-02  0.9384635E-01
         21   -1    0    0  503  502  0.00000000000E+00  0.00000000000E+00  0.83092065980E+03  0.83092065980E+03  0.00000000000E+00 0. -1.
         21   -1    0    0  501  503 -0.00000000000E+00 -0.00000000000E+00 -0.28363295150E+04  0.28363295150E+04  0.00000000000E+00 0.  1.
    9000007    1    1    2  501    0  0.83719497384E+03 -0.10269580536E+03 -0.24583742063E+04  0.26296474271E+04  0.40000000000E+03 0.  1.
   -9000007    1    1    2    0  502 -0.83719497384E+03  0.10269580536E+03  0.45296535112E+03  0.10376027477E+04  0.40000000000E+03 0. -1.
<mgrwt>
<rscale>  2 0.93351050E+03</rscale>
<asrwt>0</asrwt>
<pdfrwt beam="1">  1       21 0.12783395E+00 0.93351050E+03</pdfrwt>
<pdfrwt beam="2">  1       21 0.43635838E+00 0.93351050E+03</pdfrwt>
<totfact> 0.11866833E+00</totfact>
</mgrwt>
</event>
<event>
 4    1  0.4918322E-002  0.4426572E+03  0.7818608E-02  0.1029935E+00
         21   -1    0    0  503  502  0.00000000000E+00  0.00000000000E+00  0.54842535127E+03  0.54842535127E+03  0.00000000000E+00 0.  1.
         21   -1    0    0  501  503 -0.00000000000E+00 -0.00000000000E+00 -0.57243385675E+03  0.57243385675E+03  0.00000000000E+00 0. -1.
    9000007    1    1    2  501    0  0.15904468635E+03  0.10319956574E+03 -0.35558253559E+03  0.56778895925E+03  0.40000000000E+03 0. -1.
   -9000007    1    1    2    0  502 -0.15904468635E+03 -0.10319956574E+03  0.33157403011E+03  0.55307024877E+03  0.40000000000E+03 0.  1.
<mgrwt>
<rscale>  2 0.44265716E+03</rscale>
<asrwt>0</asrwt>
<pdfrwt beam="1">  1       21 0.84373131E-01 0.44265716E+03</pdfrwt>
<pdfrwt beam="2">  1       21 0.88066747E-01 0.44265716E+03</pdfrwt>
<totfact> 0.11518418E+03</totfact>
</mgrwt>
</event>
<event>
 4    1  0.4918322E-002  0.4898650E+03  0.7818608E-02  0.1016459E+00
         21   -1    0    0  503  502  0.00000000000E+00  0.00000000000E+00  0.10796458936E+04  0.10796458936E+04  0.00000000000E+00 0.  1.
         21   -1    0    0  501  503 -0.00000000000E+00 -0.00000000000E+00 -0.33129659823E+03  0.33129659823E+03  0.00000000000E+00 0. -1.
    9000007    1    1    2  501    0  0.27660588973E+03  0.58795686721E+02 -0.30537783931E+02  0.49081596068E+03  0.40000000000E+03 0. -1.
   -9000007    1    1    2    0  502 -0.27660588973E+03 -0.58795686721E+02  0.77888707929E+03  0.92012653113E+03  0.40000000000E+03 0.  1.
<mgrwt>
<rscale>  2 0.48986503E+03</rscale>
<asrwt>0</asrwt>
<pdfrwt beam="1">  1       21 0.16609937E+00 0.48986503E+03</pdfrwt>
<pdfrwt beam="2">  1       21 0.50968708E-01 0.48986503E+03</pdfrwt>
<totfact> 0.68368419E+02</totfact>
</mgrwt>
</event>
<event>
 4    1  0.4918322E-002  0.4742161E+03  0.7818608E-02  0.1020737E+00
         21   -1    0    0  501  502  0.00000000000E+00  0.00000000000E+00  0.35029699028E+03  0.35029699028E+03  0.00000000000E+00 0.  1.
         21   -1    0    0  502  503 -0.00000000000E+00 -0.00000000000E+00 -0.96752918854E+03  0.96752918854E+03  0.00000000000E+00 0.  1.
    9000007    1    1    2  501    0  0.13072199829E+03 -0.21861544721E+03  0.73600514663E+02  0.47989372819E+03  0.40000000000E+03 0.  1.
   -9000007    1    1    2    0  503 -0.13072199829E+03  0.21861544721E+03 -0.69083271292E+03  0.83793245064E+03  0.40000000000E+03 0.  1.
<mgrwt>
<rscale>  2 0.47421615E+03</rscale>
<asrwt>0</asrwt>
<pdfrwt beam="1">  1       21 0.53891846E-01 0.47421615E+03</pdfrwt>
<pdfrwt beam="2">  1       21 0.14885064E+00 0.47421615E+03</pdfrwt>
<totfact> 0.82748657E+02</totfact>
</mgrwt>
</event>
<event>
 4    1  0.4918322E-002  0.5037395E+03  0.7818608E-02  0.1012807E+00
         21   -1    0    0  503  502  0.00000000000E+00  0.00000000000E+00  0.41503757138E+03  0.41503757138E+03  0.00000000000E+00 0.  1.
         21   -1    0    0  501  503 -0.00000000000E+00 -0.00000000000E+00 -0.14050397886E+04  0.14050397886E+04  0.00000000000E+00 0.  1.
    9000007    1    1    2  501    0  0.68890237323E+02  0.29834145715E+03 -0.11789561798E+04  0.12820651948E+04  0.40000000000E+03 0.  1.
   -9000007    1    1    2    0  502 -0.68890237323E+02 -0.29834145715E+03  0.18895396260E+03  0.53801216514E+03  0.40000000000E+03 0.  1.
<mgrwt>
<rscale>  2 0.50373951E+03</rscale>
<asrwt>0</asrwt>
<pdfrwt beam="1">  1       21 0.63851933E-01 0.50373951E+03</pdfrwt>
<pdfrwt beam="2">  1       21 0.21615997E+00 0.50373951E+03</pdfrwt>
<totfact> 0.18819763E+02</totfact>
</mgrwt>
</event>
<event>
 4    1  0.4918322E-002  0.5658568E+03  0.7818608E-02  0.9978889E-01
         21   -1    0    0  503  502  0.00000000000E+00  0.00000000000E+00  0.17544404387E+03  0.17544404387E+03  0.00000000000E+00 0.  1.
         21   -1    0    0  501  503 -0.00000000000E+00 -0.00000000000E+00 -0.21789794137E+04  0.21789794137E+04  0.00000000000E+00 0.  1.
    9000007    1    1    2  501    0 -0.16289105591E+03  0.36559598161E+03 -0.14762140949E+04  0.15809497056E+04  0.40000000000E+03 0.  1.
   -9000007    1    1    2    0  502  0.16289105591E+03 -0.36559598161E+03 -0.52732127492E+03  0.77347375188E+03  0.40000000000E+03 0.  1.
<mgrwt>
<rscale>  2 0.56585680E+03</rscale>
<asrwt>0</asrwt>
<pdfrwt beam="1">  1       21 0.26991392E-01 0.56585680E+03</pdfrwt>
<pdfrwt beam="2">  1       21 0.33522759E+00 0.56585680E+03</pdfrwt>
<totfact> 0.20309817E+02</totfact>
</mgrwt>
</event>
<event>
 4    1  0.4918322E-002  0.5807493E+03  0.7818608E-02  0.9946170E-01
         21   -1    0    0  503  502  0.00000000000E+00  0.00000000000E+00  0.18536144756E+04  0.18536144756E+04  0.00000000000E+00 0. -1.
         21   -1    0    0  501  503 -0.00000000000E+00 -0.00000000000E+00 -0.43301604642E+03  0.43301604642E+03  0.00000000000E+00 0.  1.
    9000007    1    1    2  501    0  0.27882438669E+03  0.31547856741E+03 -0.16027509181E+03  0.60245984942E+03  0.40000000000E+03 0.  1.
   -9000007    1    1    2    0  502 -0.27882438669E+03 -0.31547856741E+03  0.15808735210E+04  0.16841706726E+04  0.40000000000E+03 0. -1.
<mgrwt>
<rscale>  2 0.58074931E+03</rscale>
<asrwt>0</asrwt>
<pdfrwt beam="1">  1       21 0.28517145E+00 0.58074931E+03</pdfrwt>
<pdfrwt beam="2">  1       21 0.66617855E-01 0.58074931E+03</pdfrwt>
<totfact> 0.61347306E+01</totfact>
</mgrwt>
</event>
<event>
 4    1  0.4918322E-002  0.4313669E+03  0.7818608E-02  0.1033429E+00
         21   -1    0    0  503  502  0.00000000000E+00  0.00000000000E+00  0.79122448416E+03  0.79122448416E+03  0.00000000000E+00 0.  1.
         21   -1    0    0  501  503 -0.00000000000E+00 -0.00000000000E+00 -0.27952322052E+03  0.27952322052E+03  0.00000000000E+00 0.  1.
    9000007    1    1    2  501    0  0.13926937853E+03 -0.81740031064E+02  0.42605540935E+02  0.43346582863E+03  0.40000000000E+03 0.  1.
   -9000007    1    1    2    0  502 -0.13926937853E+03  0.81740031064E+02  0.46909572271E+03  0.63728187605E+03  0.40000000000E+03 0.  1.
<mgrwt>
<rscale>  2 0.43136689E+03</rscale>
<asrwt>0</asrwt>
<pdfrwt beam="1">  1       21 0.12172684E+00 0.43136689E+03</pdfrwt>
<pdfrwt beam="2">  1       21 0.43003573E-01 0.43136689E+03</pdfrwt>
<totfact> 0.23027117E+03</totfact>
</mgrwt>
</event>
<event>
 4    1  0.4918322E-002  0.4181189E+03  0.7818608E-02  0.1037680E+00
         21   -1    0    0  503  502  0.00000000000E+00  0.00000000000E+00  0.22041167021E+03  0.22041167021E+03  0.00000000000E+00 0. -1.
         21   -1    0    0  501  503 -0.00000000000E+00 -0.00000000000E+00 -0.84079829862E+03  0.84079829862E+03  0.00000000000E+00 0. -1.
    9000007    1    1    2  501    0 -0.57142986637E+02  0.10750850908E+03 -0.43648326268E+03  0.60443447871E+03  0.40000000000E+03 0. -1.
   -9000007    1    1    2    0  502  0.57142986637E+02 -0.10750850908E+03 -0.18390336573E+03  0.45677549012E+03  0.40000000000E+03 0. -1.
<mgrwt>
<rscale>  2 0.41811888E+03</rscale>
<asrwt>0</asrwt>
<pdfrwt beam="1">  1       21 0.33909489E-01 0.41811888E+03</pdfrwt>
<pdfrwt beam="2">  1       21 0.12935358E+00 0.41811888E+03</pdfrwt>
<totfact> 0.32186782E+03</totfact>
</mgrwt>
</event>
<event>
 4    1  0.4918322E-002  0.5826030E+03  0.7818608E-02  0.9942171E-01
         21   -1    0    0  501  502  0.00000000000E+00  0.00000000000E+00  0.80117655284E+03  0.80117655284E+03  0.00000000000E+00 0.  1.
         21   -1    0    0  502  503 -0.00000000000E+00 -0.00000000000E+00 -0.72736799630E+03  0.72736799630E+03  0.00000000000E+00 0. -1.
    9000007    1    1    2  501    0 -0.31427161014E+03  0.28400639171E+03 -0.45695053089E+03  0.74042559596E+03  0.40000000000E+03 0. -1.
   -9000007    1    1    2    0  503  0.31427161014E+03 -0.28400639171E+03  0.53075908743E+03  0.78811895318E+03  0.40000000000E+03 0.  1.
<mgrwt>
<rscale>  2 0.58260302E+03</rscale>
<asrwt>0</asrwt>
<pdfrwt beam="1">  1       21 0.12325793E+00 0.58260302E+03</pdfrwt>
<pdfrwt beam="2">  1       21 0.11190277E+00 0.58260302E+03</pdfrwt>
<totfact> 0.24057602E+02</totfact>
</mgrwt>
</event>
<event>
 4    1  0.4918322E-002  0.4092825E+03  0.7818608E-02  0.1040612E+00
         21   -1    0    0  501  502  0.00000000000E+00  0.00000000000E+00  0.13439659103E+04  0.13439659103E+04  0.00000000000E+00 0. -1.
         21   -1    0    0  502  503 -0.00000000000E+00 -0.00000000000E+00 -0.14924773586E+03  0.14924773586E+03  0.00000000000E+00 0. -1.
    9000007    1    1    2  501    0  0.11395056200E+02  0.85920470075E+02  0.29419889250E+03  0.50404877029E+03  0.40000000000E+03 0. -1.
   -9000007    1    1    2    0  503 -0.11395056200E+02 -0.85920470075E+02  0.90051928191E+03  0.98916487583E+03  0.40000000000E+03 0. -1.
<mgrwt>
<rscale>  2 0.40928251E+03</rscale>
<asrwt>0</asrwt>
<pdfrwt beam="1">  1       21 0.20676398E+00 0.40928251E+03</pdfrwt>
<pdfrwt beam="2">  1       21 0.22961191E-01 0.40928251E+03</pdfrwt>
<totfact> 0.18580214E+03</totfact>
</mgrwt>
</event>
<event>
 4    1  0.4918322E-002  0.5270903E+03  0.7818608E-02  0.1006940E+00
         21   -1    0    0  501  502  0.00000000000E+00  0.00000000000E+00  0.86990497582E+03  0.86990497582E+03  0.00000000000E+00 0. -1.
         21   -1    0    0  502  503 -0.00000000000E+00 -0.00000000000E+00 -0.33893352093E+03  0.33893352093E+03  0.00000000000E+00 0.  1.
    9000007    1    1    2  501    0  0.32976960744E+03  0.95269257641E+02  0.12028445524E+03  0.54064089339E+03  0.40000000000E+03 0.  1.
   -9000007    1    1    2    0  503 -0.32976960744E+03 -0.95269257641E+02  0.41068699966E+03  0.66819760335E+03  0.40000000000E+03 0. -1.
<mgrwt>
<rscale>  2 0.52709034E+03</rscale>
<asrwt>0</asrwt>
<pdfrwt beam="1">  1       21 0.13383153E+00 0.52709034E+03</pdfrwt>
<pdfrwt beam="2">  1       21 0.52143619E-01 0.52709034E+03</pdfrwt>
<totfact> 0.11570900E+03</totfact>
</mgrwt>
</event>
<event>
 4    1  0.4918322E-002  0.4359714E+03  0.7818608E-02  0.1031990E+00
         21   -1    0    0  501  502  0.00000000000E+00  0.00000000000E+00  0.58585588424E+03  0.58585588424E+03  0.00000000000E+00 0. -1.
         21   -1    0    0  502  503 -0.00000000000E+00 -0.00000000000E+00 -0.32651643298E+03  0.32651643298E+03  0.00000000000E+00 0. -1.
    9000007    1    1    2  501    0  0.99128829993E+02  0.14228321125E+03  0.93230464996E+02  0.44582839383E+03  0.40000000000E+03 0. -1.
   -9000007    1    1    2    0  503 -0.99128829993E+02 -0.14228321125E+03  0.16610898627E+03  0.46654392340E+03  0.40000000000E+03 0. -1.
<mgrwt>
<rscale>  2 0.43597137E+03</rscale>
<asrwt>0</asrwt>
<pdfrwt beam="1">  1       21 0.90131674E-01 0.43597137E+03</pdfrwt>
<pdfrwt beam="2">  1       21 0.50233297E-01 0.43597137E+03</pdfrwt>
<totfact> 0.34650156E+03</totfact>
</mgrwt>
</event>
<event>
 4    1  0.4918322E-002  0.5355842E+03  0.7818608E-02  0.1004887E+00
         21   -1    0    0  501  502  0.00000000000E+00  0.00000000000E+00  0.60026797810E+03  0.60026797810E+03  0.00000000000E+00 0.  1.
         21   -1    0    0  502  503 -0.00000000000E+00 -0.00000000000E+00 -0.48303853210E+03  0.48303853210E+03  0.00000000000E+00 0.  1.
    9000007    1    1    2  501    0 -0.12789335075E+03  0.33240597962E+03  0.11464039536E+03  0.54771604386E+03  0.40000000000E+03 0.  1.
   -9000007    1    1    2    0  503  0.12789335075E+03 -0.33240597962E+03  0.25890506405E+01  0.53559046635E+03  0.40000000000E+03 0.  1.
<mgrwt>
<rscale>  2 0.53558421E+03</rscale>
<asrwt>0</asrwt>
<pdfrwt beam="1">  1       21 0.92348920E-01 0.53558421E+03</pdfrwt>
<pdfrwt beam="2">  1       21 0.74313620E-01 0.53558421E+03</pdfrwt>
<totfact> 0.13334735E+03</totfact>
</mgrwt>
</event>
<event>
 4    1  0.4918322E-002  0.4516271E+03  0.7818608E-02  0.1027238E+00
         21   -1    0    0  503  502  0.00000000000E+00  0.00000000000E+00  0.81537797672E+03  0.81537797672E+03  0.00000000000E+00 0. -1.
         21   -1    0    0  501  503 -0.00000000000E+00 -0.00000000000E+00 -0.31751348092E+03  0.31751348092E+03  0.00000000000E+00 0. -1.
    9000007    1    1    2  501    0 -0.13985184453E+03  0.15623230204E+03 -0.11976364915E+02  0.45178590498E+03  0.40000000000E+03 0. -1.
   -9000007    1    1    2    0  502  0.13985184453E+03 -0.15623230204E+03  0.50984086071E+03  0.68110555266E+03  0.40000000000E+03 0. -1.
<mgrwt>
<rscale>  2 0.45162714E+03</rscale>
<asrwt>0</asrwt>
<pdfrwt beam="1">  1       21 0.12544276E+00 0.45162714E+03</pdfrwt>
<pdfrwt beam="2">  1       21 0.48848228E-01 0.45162714E+03</pdfrwt>
<totfact> 0.16184573E+03</totfact>
</mgrwt>
</event>
<event>
 4    1  0.4918322E-002  0.7570586E+03  0.7818608E-02  0.9624341E-01
         21   -1    0    0  503  502  0.00000000000E+00  0.00000000000E+00  0.55927026123E+03  0.55927026123E+03  0.00000000000E+00 0.  1.
         21   -1    0    0  501  503 -0.00000000000E+00 -0.00000000000E+00 -0.10340290843E+04  0.10340290843E+04  0.00000000000E+00 0.  1.
    9000007    1    1    2  501    0 -0.44347408085E+03  0.46526177638E+03 -0.31265957122E+03  0.81908106340E+03  0.40000000000E+03 0.  1.
   -9000007    1    1    2    0  502  0.44347408085E+03 -0.46526177638E+03 -0.16209925187E+03  0.77421828214E+03  0.40000000000E+03 0.  1.
<mgrwt>
<rscale>  2 0.75705864E+03</rscale>
<asrwt>0</asrwt>
<pdfrwt beam="1">  1       21 0.86041579E-01 0.75705864E+03</pdfrwt>
<pdfrwt beam="2">  1       21 0.15908140E+00 0.75705864E+03</pdfrwt>
<totfact> 0.21721266E+02</totfact>
</mgrwt>
</event>
<event>
 4    1  0.4918322E-002  0.5727762E+03  0.7818608E-02  0.9963554E-01
         21   -1    0    0  503  502  0.00000000000E+00  0.00000000000E+00  0.71220213592E+03  0.71220213592E+03  0.00000000000E+00 0.  1.
         21   -1    0    0  501  503 -0.00000000000E+00 -0.00000000000E+00 -0.47210223186E+03  0.47210223186E+03  0.00000000000E+00 0. -1.
    9000007    1    1    2  501    0  0.28739983484E+02 -0.40895796988E+03  0.21229612908E+03  0.61085370932E+03  0.40000000000E+03 0.  1.
   -9000007    1    1    2    0  502 -0.28739983484E+02  0.40895796988E+03  0.27803774989E+02  0.57345065845E+03  0.40000000000E+03 0. -1.
<mgrwt>
<rscale>  2 0.57277623E+03</rscale>
<asrwt>0</asrwt>
<pdfrwt beam="1">  1       21 0.10956956E+00 0.57277623E+03</pdfrwt>
<pdfrwt beam="2">  1       21 0.72631112E-01 0.57277623E+03</pdfrwt>
<totfact> 0.91358233E+02</totfact>
</mgrwt>
</event>
<event>
 4    1  0.4918322E-002  0.4507353E+03  0.7818608E-02  0.1027503E+00
         21   -1    0    0  503  502  0.00000000000E+00  0.00000000000E+00  0.67594125264E+03  0.67594125264E+03  0.00000000000E+00 0.  1.
         21   -1    0    0  501  503 -0.00000000000E+00 -0.00000000000E+00 -0.31610883438E+03  0.31610883438E+03  0.00000000000E+00 0.  1.
    9000007    1    1    2  501    0 -0.13941325770E+03  0.15403322986E+03  0.69912963961E+02  0.45612510877E+03  0.40000000000E+03 0.  1.
   -9000007    1    1    2    0  502  0.13941325770E+03 -0.15403322986E+03  0.28991945429E+03  0.53592497824E+03  0.40000000000E+03 0.  1.
<mgrwt>
<rscale>  2 0.45073528E+03</rscale>
<asrwt>0</asrwt>
<pdfrwt beam="1">  1       21 0.10399096E+00 0.45073528E+03</pdfrwt>
<pdfrwt beam="2">  1       21 0.48632129E-01 0.45073528E+03</pdfrwt>
<totfact> 0.26156071E+03</totfact>
</mgrwt>
</event>
<event>
 4    1  0.4918322E-002  0.7324782E+03  0.7818608E-02  0.9663247E-01
         21   -1    0    0  503  502  0.00000000000E+00  0.00000000000E+00  0.78661037679E+03  0.78661037679E+03  0.00000000000E+00 0. -1.
         21   -1    0    0  501  503 -0.00000000000E+00 -0.00000000000E+00 -0.90484870678E+03  0.90484870678E+03  0.00000000000E+00 0.  1.
    9000007    1    1    2  501    0 -0.56788435308E+03  0.23244716516E+03 -0.47876134716E+03  0.87506385516E+03  0.40000000000E+03 0.  1.
   -9000007    1    1    2    0  502  0.56788435308E+03 -0.23244716516E+03  0.36052301716E+03  0.81639522841E+03  0.40000000000E+03 0. -1.
<mgrwt>
<rscale>  2 0.73247821E+03</rscale>
<asrwt>0</asrwt>
<pdfrwt beam="1">  1       21 0.12101698E+00 0.73247821E+03</pdfrwt>
<pdfrwt beam="2">  1       21 0.13920749E+00 0.73247821E+03</pdfrwt>
<totfact> 0.13601546E+02</totfact>
</mgrwt>
</event>
<event>
 4    1  0.4918322E-002  0.4548839E+03  0.7818608E-02  0.1026276E+00
         21   -1    0    0  501  502  0.00000000000E+00  0.00000000000E+00  0.25181442396E+03  0.25181442396E+03  0.00000000000E+00 0. -1.
         21   -1    0    0  502  503 -0.00000000000E+00 -0.00000000000E+00 -0.89844992858E+03  0.89844992858E+03  0.00000000000E+00 0. -1.
    9000007    1    1    2  501    0 -0.66029608416E+02 -0.20629933220E+03 -0.15523568440E+03  0.48064273776E+03  0.40000000000E+03 0. -1.
   -9000007    1    1    2    0  503  0.66029608416E+02  0.20629933220E+03 -0.49139982022E+03  0.66962161477E+03  0.40000000000E+03 0. -1.
<mgrwt>
<rscale>  2 0.45488386E+03</rscale>
<asrwt>0</asrwt>
<pdfrwt beam="1">  1       21 0.38740681E-01 0.45488386E+03</pdfrwt>
<pdfrwt beam="2">  1       21 0.13822307E+00 0.45488386E+03</pdfrwt>
<totfact> 0.20357864E+03</totfact>
</mgrwt>
</event>
<event>
 4    1  0.4918322E-002  0.6395441E+03  0.7818608E-02  0.9826599E-01
         21   -1    0    0  503  502  0.00000000000E+00  0.00000000000E+00  0.73646502227E+03  0.73646502227E+03  0.00000000000E+00 0. -1.
         21   -1    0    0  501  503 -0.00000000000E+00 -0.00000000000E+00 -0.63665436757E+03  0.63665436757E+03  0.00000000000E+00 0. -1.
    9000007    1    1    2  501    0  0.20441447385E+03  0.45522671473E+03 -0.19540056314E+03  0.66872865873E+03  0.40000000000E+03 0. -1.
   -9000007    1    1    2    0  502 -0.20441447385E+03 -0.45522671473E+03  0.29521121784E+03  0.70439073111E+03  0.40000000000E+03 0. -1.
<mgrwt>
<rscale>  2 0.63954409E+03</rscale>
<asrwt>0</asrwt>
<pdfrwt beam="1">  1       21 0.11330231E+00 0.63954409E+03</pdfrwt>
<pdfrwt beam="2">  1       21 0.97946826E-01 0.63954409E+03</pdfrwt>
<totfact> 0.40672328E+02</totfact>
</mgrwt>
</event>
<event>
 4    1  0.4918322E-002  0.4254161E+03  0.7818608E-02  0.1035318E+00
         21   -1    0    0  501  502  0.00000000000E+00  0.00000000000E+00  0.15640289052E+04  0.15640289052E+04  0.00000000000E+00 0. -1.
         21   -1    0    0  502  503 -0.00000000000E+00 -0.00000000000E+00 -0.12502795023E+03  0.12502795023E+03  0.00000000000E+00 0. -1.
    9000007    1    1    2  501    0 -0.10263039668E+03 -0.10220504849E+03  0.48898763782E+03  0.64814179020E+03  0.40000000000E+03 0. -1.
   -9000007    1    1    2    0  503  0.10263039668E+03  0.10220504849E+03  0.95001331714E+03  0.10409150652E+04  0.40000000000E+03 0. -1.
<mgrwt>
<rscale>  2 0.42541611E+03</rscale>
<asrwt>0</asrwt>
<pdfrwt beam="1">  1       21 0.24061982E+00 0.42541611E+03</pdfrwt>
<pdfrwt beam="2">  1       21 0.19235070E-01 0.42541611E+03</pdfrwt>
<totfact> 0.15766682E+03</totfact>
</mgrwt>
</event>
<event>
 4    1  0.4918322E-002  0.4026064E+03  0.7818608E-02  0.1042881E+00
         21   -1    0    0  501  502  0.00000000000E+00  0.00000000000E+00  0.24412402646E+03  0.24412402646E+03  0.00000000000E+00 0.  1.
         21   -1    0    0  502  503 -0.00000000000E+00 -0.00000000000E+00 -0.14682317551E+04  0.14682317551E+04  0.00000000000E+00 0.  1.
    9000007    1    1    2  501    0  0.38705909312E+02 -0.24366987261E+02  0.21618039394E+02  0.40318635531E+03  0.40000000000E+03 0.  1.
   -9000007    1    1    2    0  503 -0.38705909312E+02  0.24366987261E+02 -0.12457257680E+04  0.13091694262E+04  0.40000000000E+03 0.  1.
<mgrwt>
<rscale>  2 0.40260638E+03</rscale>
<asrwt>0</asrwt>
<pdfrwt beam="1">  1       21 0.37557543E-01 0.40260638E+03</pdfrwt>
<pdfrwt beam="2">  1       21 0.22588180E+00 0.40260638E+03</pdfrwt>
<totfact> 0.53111008E+02</totfact>
</mgrwt>
</event>
<event>
 4    1  0.4918322E-002  0.4075630E+03  0.7818608E-02  0.1041192E+00
         21   -1    0    0  501  502  0.00000000000E+00  0.00000000000E+00  0.86961450732E+03  0.86961450732E+03  0.00000000000E+00 0. -1.
         21   -1    0    0  502  503 -0.00000000000E+00 -0.00000000000E+00 -0.40533401770E+03  0.40533401770E+03  0.00000000000E+00 0. -1.
    9000007    1    1    2  501    0  0.13410935785E+02 -0.76991623754E+02  0.69568176533E+03  0.80627581009E+03  0.40000000000E+03 0. -1.
   -9000007    1    1    2    0  503 -0.13410935785E+02  0.76991623754E+02 -0.23140127571E+03  0.46867271494E+03  0.40000000000E+03 0. -1.
<mgrwt>
<rscale>  2 0.40756296E+03</rscale>
<asrwt>0</asrwt>
<pdfrwt beam="1">  1       21 0.13378685E+00 0.40756296E+03</pdfrwt>
<pdfrwt beam="2">  1       21 0.62359080E-01 0.40756296E+03</pdfrwt>
<totfact> 0.82416540E+02</totfact>
</mgrwt>
</event>
<event>
 4    1  0.4918322E-002  0.5494975E+03  0.7818608E-02  0.1001610E+00
         21   -1    0    0  501  502  0.00000000000E+00  0.00000000000E+00  0.24970792830E+03  0.24970792830E+03  0.00000000000E+00 0. -1.
         21   -1    0    0  502  503 -0.00000000000E+00 -0.00000000000E+00 -0.16679687743E+04  0.16679687743E+04  0.00000000000E+00 0. -1.
    9000007    1    1    2  501    0 -0.78075907714E+02  0.36858055316E+03 -0.12119904816E+04  0.13307397939E+04  0.40000000000E+03 0. -1.
   -9000007    1    1    2    0  503  0.78075907714E+02 -0.36858055316E+03 -0.20627036432E+03  0.58693690864E+03  0.40000000000E+03 0. -1.
<mgrwt>
<rscale>  2 0.54949747E+03</rscale>
<asrwt>0</asrwt>
<pdfrwt beam="1">  1       21 0.38416604E-01 0.54949747E+03</pdfrwt>
<pdfrwt beam="2">  1       21 0.25661058E+00 0.54949747E+03</pdfrwt>
<totfact> 0.30323336E+02</totfact>
</mgrwt>
</event>
<event>
 4    1  0.4918322E-002  0.4209042E+03  0.7818608E-02  0.1036772E+00
         21   -1    0    0  501  502  0.00000000000E+00  0.00000000000E+00  0.99518952393E+02  0.99518952393E+02  0.00000000000E+00 0. -1.
         21   -1    0    0  502  503 -0.00000000000E+00 -0.00000000000E+00 -0.21059893410E+04  0.21059893410E+04  0.00000000000E+00 0. -1.
    9000007    1    1    2  501    0 -0.11913790684E+03  0.54465544925E+02 -0.56948351535E+03  0.70814674375E+03  0.40000000000E+03 0. -1.
   -9000007    1    1    2    0  503  0.11913790684E+03 -0.54465544925E+02 -0.14369868732E+04  0.14973615496E+04  0.40000000000E+03 0. -1.
<mgrwt>
<rscale>  2 0.42090419E+03</rscale>
<asrwt>0</asrwt>
<pdfrwt beam="1">  1       21 0.15310609E-01 0.42090419E+03</pdfrwt>
<pdfrwt beam="2">  1       21 0.32399834E+00 0.42090419E+03</pdfrwt>
<totfact> 0.76014965E+02</totfact>
</mgrwt>
</event>
<event>
 4    1  0.4918322E-002  0.5823181E+03  0.7818608E-02  0.9942785E-01
         21   -1    0    0  503  502  0.00000000000E+00  0.00000000000E+00  0.13706481260E+04  0.13706481260E+04  0.00000000000E+00 0. -1.
         21   -1    0    0  501  503 -0.00000000000E+00 -0.00000000000E+00 -0.24740271432E+03  0.24740271432E+03  0.00000000000E+00 0. -1.
    9000007    1    1    2  501    0 -0.34111187977E+03  0.25047367706E+03  0.55777021720E+03  0.80635103560E+03  0.40000000000E+03 0. -1.
   -9000007    1    1    2    0  502  0.34111187977E+03 -0.25047367706E+03  0.56547519453E+03  0.81169980477E+03  0.40000000000E+03 0. -1.
<mgrwt>
<rscale>  2 0.58231811E+03</rscale>
<asrwt>0</asrwt>
<pdfrwt beam="1">  1       21 0.21086894E+00 0.58231811E+03</pdfrwt>
<pdfrwt beam="2">  1       21 0.38061957E-01 0.58231811E+03</pdfrwt>
<totfact> 0.59451538E+02</totfact>
</mgrwt>
</event>
<event>
 4    1  0.4918322E-002  0.5247906E+03  0.7818608E-02  0.1007503E+00
         21   -1    0    0  501  502  0.00000000000E+00  0.00000000000E+00  0.11720260713E+04  0.11720260713E+04  0.00000000000E+00 0.  1.
         21   -1    0    0  502  503 -0.00000000000E+00 -0.00000000000E+00 -0.56978669662E+03  0.56978669662E+03  0.00000000000E+00 0. -1.
    9000007    1    1    2  501    0 -0.21777674030E+03 -0.26072673623E+03  0.96871154605E+03  0.11017291859E+04  0.40000000000E+03 0.  1.
   -9000007    1    1    2    0  503  0.21777674030E+03  0.26072673623E+03 -0.36647217137E+03  0.64008358203E+03  0.40000000000E+03 0. -1.
<mgrwt>
<rscale>  2 0.52479057E+03</rscale>
<asrwt>0</asrwt>
<pdfrwt beam="1">  1       21 0.18031170E+00 0.52479057E+03</pdfrwt>
<pdfrwt beam="2">  1       21 0.87659492E-01 0.52479057E+03</pdfrwt>
<totfact> 0.15749371E+02</totfact>
</mgrwt>
</event>
<event>
 4    1  0.4918322E-002  0.4204705E+03  0.7818608E-02  0.1036913E+00
         21   -1    0    0  501  502  0.00000000000E+00  0.00000000000E+00  0.28793647763E+03  0.28793647763E+03  0.00000000000E+00 0. -1.
         21   -1    0    0  502  503 -0.00000000000E+00 -0.00000000000E+00 -0.62653486508E+03  0.62653486508E+03  0.00000000000E+00 0. -1.
    9000007    1    1    2  501    0 -0.85512192018E+02 -0.97381099871E+02 -0.10464720485E+03  0.43329718563E+03  0.40000000000E+03 0. -1.
   -9000007    1    1    2    0  503  0.85512192018E+02  0.97381099871E+02 -0.23395118261E+03  0.48117415708E+03  0.40000000000E+03 0. -1.
<mgrwt>
<rscale>  2 0.42047047E+03</rscale>
<asrwt>0</asrwt>
<pdfrwt beam="1">  1       21 0.44297920E-01 0.42047047E+03</pdfrwt>
<pdfrwt beam="2">  1       21 0.96389979E-01 0.42047047E+03</pdfrwt>
<totfact> 0.38699697E+03</totfact>
</mgrwt>
</event>
<event>
 4    1  0.4918322E-002  0.4362277E+03  0.7818608E-02  0.1031911E+00
         21   -1    0    0  503  502  0.00000000000E+00  0.00000000000E+00  0.17063341065E+04  0.17063341065E+04  0.00000000000E+00 0. -1.
         21   -1    0    0  501  503 -0.00000000000E+00 -0.00000000000E+00 -0.14725040369E+03  0.14725040369E+03  0.00000000000E+00 0. -1.
    9000007    1    1    2  501    0 -0.86787280643E+02 -0.15087272645E+03  0.32302371425E+03  0.54280653242E+03  0.40000000000E+03 0. -1.
   -9000007    1    1    2    0  502  0.86787280643E+02  0.15087272645E+03  0.12360599886E+04  0.13107779778E+04  0.40000000000E+03 0. -1.
<mgrwt>
<rscale>  2 0.43622771E+03</rscale>
<asrwt>0</asrwt>
<pdfrwt beam="1">  1       21 0.26251292E+00 0.43622771E+03</pdfrwt>
<pdfrwt beam="2">  1       21 0.22653910E-01 0.43622771E+03</pdfrwt>
<totfact> 0.84256857E+02</totfact>
</mgrwt>
</event>
<event>
 4    1  0.4918322E-002  0.4532307E+03  0.7818608E-02  0.1026763E+00
         21   -1    0    0  501  502  0.00000000000E+00  0.00000000000E+00  0.37097623282E+03  0.37097623282E+03  0.00000000000E+00 0.  1.
         21   -1    0    0  502  503 -0.00000000000E+00 -0.00000000000E+00 -0.73794620998E+03  0.73794620998E+03  0.00000000000E+00 0. -1.
    9000007    1    1    2  501    0 -0.12530473903E+03 -0.17238567710E+03  0.93547632988E+02  0.46278424663E+03  0.40000000000E+03 0.  1.
   -9000007    1    1    2    0  503  0.12530473903E+03  0.17238567710E+03 -0.46051761015E+03  0.64613819617E+03  0.40000000000E+03 0. -1.
<mgrwt>
<rscale>  2 0.45323074E+03</rscale>
<asrwt>0</asrwt>
<pdfrwt beam="1">  1       21 0.57073267E-01 0.45323074E+03</pdfrwt>
<pdfrwt beam="2">  1       21 0.11353019E+00 0.45323074E+03</pdfrwt>
<totfact> 0.14917534E+03</totfact>
</mgrwt>
</event>
<event>
 4    1  0.4918322E-002  0.7016181E+03  0.7818608E-02  0.9714469E-01
         21   -1    0    0  501  502  0.00000000000E+00  0.00000000000E+00  0.11448581060E+04  0.11448581060E+04  0.00000000000E+00 0.  1.
         21   -1    0    0  502  503 -0.00000000000E+00 -0.00000000000E+00 -0.60009969045E+03  0.60009969045E+03  0.00000000000E+00 0. -1.
    9000007    1    1    2  501    0 -0.31842992136E+03  0.48048970318E+03  0.73691419044E+03  0.10175020854E+04  0.40000000000E+03 0.  1.
   -9000007    1    1    2    0  503  0.31842992136E+03 -0.48048970318E+03 -0.19215577493E+03  0.72745571103E+03  0.40000000000E+03 0. -1.
<mgrwt>
<rscale>  2 0.70161811E+03</rscale>
<asrwt>0</asrwt>
<pdfrwt beam="1">  1       21 0.17613202E+00 0.70161811E+03</pdfrwt>
<pdfrwt beam="2">  1       21 0.92323029E-01 0.70161811E+03</pdfrwt>
<totfact> 0.13921940E+02</totfact>
</mgrwt>
</event>
<event>
 4    1  0.4918322E-002  0.4959340E+03  0.7818608E-02  0.1014846E+00
         21   -1    0    0  501  502  0.00000000000E+00  0.00000000000E+00  0.78189935069E+03  0.78189935069E+03  0.00000000000E+00 0. -1.
         21   -1    0    0  502  503 -0.00000000000E+00 -0.00000000000E+00 -0.19989958937E+04  0.19989958937E+04  0.00000000000E+00 0. -1.
    9000007    1    1    2  501    0 -0.28904939048E+03  0.48999834618E+02  0.66782158959E+03  0.83182703097E+03  0.40000000000E+03 0. -1.
   -9000007    1    1    2    0  503  0.28904939048E+03 -0.48999834618E+02 -0.18849181326E+04  0.19490682135E+04  0.40000000000E+03 0. -1.
<mgrwt>
<rscale>  2 0.49593400E+03</rscale>
<asrwt>0</asrwt>
<pdfrwt beam="1">  1       21 0.12029221E+00 0.49593400E+03</pdfrwt>
<pdfrwt beam="2">  1       21 0.30753782E+00 0.49593400E+03</pdfrwt>
<totfact> 0.11534411E+01</totfact>
</mgrwt>
</event>
<event>
 4    1  0.4918322E-002  0.4255773E+03  0.7818608E-02  0.1035266E+00
         21   -1    0    0  503  502  0.00000000000E+00  0.00000000000E+00  0.21124667106E+03  0.21124667106E+03  0.00000000000E+00 0. -1.
         21   -1    0    0  501  503 -0.00000000000E+00 -0.00000000000E+00 -0.13865484767E+04  0.13865484767E+04  0.00000000000E+00 0.  1.
    9000007    1    1    2  501    0  0.12130019157E+03  0.80014240865E+02 -0.10811947183E+04  0.11619371902E+04  0.40000000000E+03 0.  1.
   -9000007    1    1    2    0  502 -0.12130019157E+03 -0.80014240865E+02 -0.94107087327E+02  0.43585795748E+03  0.40000000000E+03 0. -1.
<mgrwt>
<rscale>  2 0.42557727E+03</rscale>
<asrwt>0</asrwt>
<pdfrwt beam="1">  1       21 0.32499487E-01 0.42557727E+03</pdfrwt>
<pdfrwt beam="2">  1       21 0.21331516E+00 0.42557727E+03</pdfrwt>
<totfact> 0.84500810E+02</totfact>
</mgrwt>
</event>
<event>
 4    1  0.4918322E-002  0.4052840E+03  0.7818608E-02  0.1041965E+00
         21   -1    0    0  503  502  0.00000000000E+00  0.00000000000E+00  0.23175237725E+03  0.23175237725E+03  0.00000000000E+00 0. -1.
         21   -1    0    0  501  503 -0.00000000000E+00 -0.00000000000E+00 -0.71881824542E+03  0.71881824542E+03  0.00000000000E+00 0. -1.
    9000007    1    1    2  501    0 -0.11890015107E+02 -0.64138247941E+02 -0.29977572138E+03  0.50410372984E+03  0.40000000000E+03 0. -1.
   -9000007    1    1    2    0  502  0.11890015107E+02  0.64138247941E+02 -0.18729014679E+03  0.44646689283E+03  0.40000000000E+03 0. -1.
<mgrwt>
<rscale>  2 0.40528396E+03</rscale>
<asrwt>0</asrwt>
<pdfrwt beam="1">  1       21 0.35654212E-01 0.40528396E+03</pdfrwt>
<pdfrwt beam="2">  1       21 0.11058742E+00 0.40528396E+03</pdfrwt>
<totfact> 0.43460708E+03</totfact>
</mgrwt>
</event>
<event>
 4    1  0.4918322E-002  0.8399252E+03  0.7818608E-02  0.9503960E-01
         21   -1    0    0  503  502  0.00000000000E+00  0.00000000000E+00  0.46872444135E+03  0.46872444135E+03  0.00000000000E+00 0.  1.
         21   -1    0    0  501  503 -0.00000000000E+00 -0.00000000000E+00 -0.19357599379E+04  0.19357599379E+04  0.00000000000E+00 0. -1.
    9000007    1    1    2  501    0 -0.17317869869E+03 -0.71797177305E+03 -0.13005875163E+04  0.15482255056E+04  0.40000000000E+03 0. -1.
   -9000007    1    1    2    0  502  0.17317869869E+03  0.71797177305E+03 -0.16644798024E+03  0.85625887365E+03  0.40000000000E+03 0.  1.
<mgrwt>
<rscale>  2 0.83992519E+03</rscale>
<asrwt>0</asrwt>
<pdfrwt beam="1">  1       21 0.72111452E-01 0.83992519E+03</pdfrwt>
<pdfrwt beam="2">  1       21 0.29780922E+00 0.83992519E+03</pdfrwt>
<totfact> 0.38554753E+01</totfact>
</mgrwt>
</event>
<event>
 4    1  0.4918322E-002  0.5130532E+03  0.7818608E-02  0.1010427E+00
         21   -1    0    0  501  502  0.00000000000E+00  0.00000000000E+00  0.14720867163E+04  0.14720867163E+04  0.00000000000E+00 0. -1.
         21   -1    0    0  502  503 -0.00000000000E+00 -0.00000000000E+00 -0.18071533580E+03  0.18071533580E+03  0.00000000000E+00 0.  1.
    9000007    1    1    2  501    0 -0.14092208145E+03 -0.28872917718E+03  0.56082650767E+03  0.76009863998E+03  0.40000000000E+03 0. -1.
   -9000007    1    1    2    0  503  0.14092208145E+03  0.28872917718E+03  0.73054487282E+03  0.89270341212E+03  0.40000000000E+03 0.  1.
<mgrwt>
<rscale>  2 0.51305319E+03</rscale>
<asrwt>0</asrwt>
<pdfrwt beam="1">  1       21 0.22647487E+00 0.51305319E+03</pdfrwt>
<pdfrwt beam="2">  1       21 0.27802360E-01 0.51305319E+03</pdfrwt>
<totfact> 0.91177266E+02</totfact>
</mgrwt>
</event>
<event>
 4    1  0.4918322E-002  0.4191839E+03  0.7818608E-02  0.1037332E+00
         21   -1    0    0  501  502  0.00000000000E+00  0.00000000000E+00  0.16031364089E+03  0.16031364089E+03  0.00000000000E+00 0. -1.
         21   -1    0    0  502  503 -0.00000000000E+00 -0.00000000000E+00 -0.12869221297E+04  0.12869221297E+04  0.00000000000E+00 0. -1.
    9000007    1    1    2  501    0 -0.79099282040E+02  0.97254464280E+02 -0.28464043853E+03  0.50669054312E+03  0.40000000000E+03 0. -1.
   -9000007    1    1    2    0  503  0.79099282040E+02 -0.97254464280E+02 -0.84196805030E+03  0.94054522749E+03  0.40000000000E+03 0. -1.
<mgrwt>
<rscale>  2 0.41918388E+03</rscale>
<asrwt>0</asrwt>
<pdfrwt beam="1">  1       21 0.24663638E-01 0.41918388E+03</pdfrwt>
<pdfrwt beam="2">  1       21 0.19798801E+00 0.41918388E+03</pdfrwt>
<totfact> 0.18408102E+03</totfact>
</mgrwt>
</event>
<event>
 4    1  0.4918322E-002  0.6135691E+03  0.7818608E-02  0.9877648E-01
         21   -1    0    0  501  502  0.00000000000E+00  0.00000000000E+00  0.12628147658E+04  0.12628147658E+04  0.00000000000E+00 0.  1.
         21   -1    0    0  502  503 -0.00000000000E+00 -0.00000000000E+00 -0.76367852359E+03  0.76367852359E+03  0.00000000000E+00 0.  1.
    9000007    1    1    2  501    0 -0.46410806034E+03 -0.32722774634E+02  0.10406988127E+04  0.12081064069E+04  0.40000000000E+03 0.  1.
   -9000007    1    1    2    0  503  0.46410806034E+03  0.32722774634E+02 -0.54156257049E+03  0.81838688247E+03  0.40000000000E+03 0.  1.
<mgrwt>
<rscale>  2 0.61356913E+03</rscale>
<asrwt>0</asrwt>
<pdfrwt beam="1">  1       21 0.19427919E+00 0.61356913E+03</pdfrwt>
<pdfrwt beam="2">  1       21 0.11748900E+00 0.61356913E+03</pdfrwt>
<totfact> 0.59047635E+01</totfact>
</mgrwt>
</event>
<event>
 4    1  0.4918322E-002  0.4390950E+03  0.7818608E-02  0.1031025E+00
         21   -1    0    0  501  502  0.00000000000E+00  0.00000000000E+00  0.16933936189E+04  0.16933936189E+04  0.00000000000E+00 0.  1.
         21   -1    0    0  502  503 -0.00000000000E+00 -0.00000000000E+00 -0.11705992077E+03  0.11705992077E+03  0.00000000000E+00 0.  1.
    9000007    1    1    2  501    0 -0.19399359169E+02  0.18007800023E+03  0.93790698472E+03  0.10356031737E+04  0.40000000000E+03 0.  1.
   -9000007    1    1    2    0  503  0.19399359169E+02 -0.18007800023E+03  0.63842671338E+03  0.77485036598E+03  0.40000000000E+03 0.  1.
<mgrwt>
<rscale>  2 0.43909500E+03</rscale>
<asrwt>0</asrwt>
<pdfrwt beam="1">  1       21 0.26052208E+00 0.43909500E+03</pdfrwt>
<pdfrwt beam="2">  1       21 0.18009220E-01 0.43909500E+03</pdfrwt>
<totfact> 0.13390670E+03</totfact>
</mgrwt>
</event>
<event>
 4    1  0.4918322E-002  0.4091130E+03  0.7818608E-02  0.1040669E+00
         21   -1    0    0  501  502  0.00000000000E+00  0.00000000000E+00  0.61077245437E+03  0.61077245437E+03  0.00000000000E+00 0.  1.
         21   -1    0    0  502  503 -0.00000000000E+00 -0.00000000000E+00 -0.30931836173E+03  0.30931836173E+03  0.00000000000E+00 0.  1.
    9000007    1    1    2  501    0  0.66942364967E+02 -0.53778763684E+02  0.30610118561E+03  0.51095143750E+03  0.40000000000E+03 0.  1.
   -9000007    1    1    2    0  503 -0.66942364967E+02  0.53778763684E+02 -0.46470929745E+01  0.40913937860E+03  0.40000000000E+03 0.  1.
<mgrwt>
<rscale>  2 0.40911299E+03</rscale>
<asrwt>0</asrwt>
<pdfrwt beam="1">  1       21 0.93964993E-01 0.40911299E+03</pdfrwt>
<pdfrwt beam="2">  1       21 0.47587440E-01 0.40911299E+03</pdfrwt>
<totfact> 0.35546196E+03</totfact>
</mgrwt>
</event>
<event>
 4    1  0.4918322E-002  0.4639996E+03  0.7818608E-02  0.1023628E+00
         21   -1    0    0  503  502  0.00000000000E+00  0.00000000000E+00  0.66123462809E+02  0.66123462809E+02  0.00000000000E+00 0.  1.
         21   -1    0    0  501  503 -0.00000000000E+00 -0.00000000000E+00 -0.32648757726E+04  0.32648757726E+04  0.00000000000E+00 0.  1.
    9000007    1    1    2  501    0 -0.10166788505E+03 -0.21203602768E+03 -0.16863893986E+04  0.17490582722E+04  0.40000000000E+03 0.  1.
   -9000007    1    1    2    0  502  0.10166788505E+03  0.21203602768E+03 -0.15123629111E+04  0.15819409631E+04  0.40000000000E+03 0.  1.
<mgrwt>
<rscale>  2 0.46399961E+03</rscale>
<asrwt>0</asrwt>
<pdfrwt beam="1">  1       21 0.10172841E-01 0.46399961E+03</pdfrwt>
<pdfrwt beam="2">  1       21 0.50228857E+00 0.46399961E+03</pdfrwt>
<totfact> 0.10687981E+02</totfact>
</mgrwt>
</event>
<event>
 4    1  0.4918322E-002  0.4457467E+03  0.7818608E-02  0.1028998E+00
         21   -1    0    0  503  502  0.00000000000E+00  0.00000000000E+00  0.25435613236E+03  0.25435613236E+03  0.00000000000E+00 0.  1.
         21   -1    0    0  501  503 -0.00000000000E+00 -0.00000000000E+00 -0.78115774416E+03  0.78115774416E+03  0.00000000000E+00 0. -1.
    9000007    1    1    2  501    0 -0.15639415646E+03  0.11929386991E+03 -0.26171636960E+03  0.51690000744E+03  0.40000000000E+03 0. -1.
   -9000007    1    1    2    0  502  0.15639415646E+03 -0.11929386991E+03 -0.26508524220E+03  0.51861386909E+03  0.40000000000E+03 0.  1.
<mgrwt>
<rscale>  2 0.44574674E+03</rscale>
<asrwt>0</asrwt>
<pdfrwt beam="1">  1       21 0.39131712E-01 0.44574674E+03</pdfrwt>
<pdfrwt beam="2">  1       21 0.12017812E+00 0.44574674E+03</pdfrwt>
<totfact> 0.28755904E+03</totfact>
</mgrwt>
</event>
<event>
 4    1  0.4918322E-002  0.4133225E+03  0.7818608E-02  0.1039262E+00
         21   -1    0    0  503  502  0.00000000000E+00  0.00000000000E+00  0.98432027104E+02  0.98432027104E+02  0.00000000000E+00 0.  1.
         21   -1    0    0  501  503 -0.00000000000E+00 -0.00000000000E+00 -0.23301473957E+04  0.23301473957E+04  0.00000000000E+00 0.  1.
    9000007    1    1    2  501    0  0.59696623030E+02 -0.85274620381E+02 -0.17292462172E+04  0.17779561095E+04  0.40000000000E+03 0.  1.
   -9000007    1    1    2    0  502 -0.59696623030E+02  0.85274620381E+02 -0.50246915140E+03  0.65062331328E+03  0.40000000000E+03 0.  1.
<mgrwt>
<rscale>  2 0.41332245E+03</rscale>
<asrwt>0</asrwt>
<pdfrwt beam="1">  1       21 0.15143390E-01 0.41332245E+03</pdfrwt>
<pdfrwt beam="2">  1       21 0.35848418E+00 0.41332245E+03</pdfrwt>
<totfact> 0.48080931E+02</totfact>
</mgrwt>
</event>
<event>
 4    1  0.4918322E-002  0.4125587E+03  0.7818608E-02  0.1039516E+00
         21   -1    0    0  503  502  0.00000000000E+00  0.00000000000E+00  0.15857941052E+04  0.15857941052E+04  0.00000000000E+00 0. -1.
         21   -1    0    0  501  503 -0.00000000000E+00 -0.00000000000E+00 -0.10910077990E+03  0.10910077990E+03  0.00000000000E+00 0. -1.
    9000007    1    1    2  501    0 -0.97896294720E+02 -0.24918977341E+02  0.63040824437E+03  0.75340506669E+03  0.40000000000E+03 0. -1.
   -9000007    1    1    2    0  502  0.97896294720E+02  0.24918977341E+02  0.84628508089E+03  0.94148981836E+03  0.40000000000E+03 0. -1.
<mgrwt>
<rscale>  2 0.41255865E+03</rscale>
<asrwt>0</asrwt>
<pdfrwt beam="1">  1       21 0.24396831E+00 0.41255865E+03</pdfrwt>
<pdfrwt beam="2">  1       21 0.16784737E-01 0.41255865E+03</pdfrwt>
<totfact> 0.19551343E+03</totfact>
</mgrwt>
</event>
<event>
 4    1  0.4918322E-002  0.6096565E+03  0.7818608E-02  0.9885572E-01
         21   -1    0    0  501  502  0.00000000000E+00  0.00000000000E+00  0.94032206244E+03  0.94032206244E+03  0.00000000000E+00 0. -1.
         21   -1    0    0  502  503 -0.00000000000E+00 -0.00000000000E+00 -0.40041224959E+03  0.40041224959E+03  0.00000000000E+00 0.  1.
    9000007    1    1    2  501    0 -0.37815697516E+03  0.26206549077E+03  0.34592441611E+03  0.70095985689E+03  0.40000000000E+03 0. -1.
   -9000007    1    1    2    0  503  0.37815697516E+03 -0.26206549077E+03  0.19398539674E+03  0.63977445515E+03  0.40000000000E+03 0. -1.
<mgrwt>
<rscale>  2 0.60965648E+03</rscale>
<asrwt>0</asrwt>
<pdfrwt beam="1">  1       21 0.14466493E+00 0.60965648E+03</pdfrwt>
<pdfrwt beam="2">  1       21 0.61601885E-01 0.60965648E+03</pdfrwt>
<totfact> 0.63539687E+02</totfact>
</mgrwt>
</event>
<event>
 4    1  0.4918322E-002  0.4357383E+03  0.7818608E-02  0.1032062E+00
         21   -1    0    0  501  502  0.00000000000E+00  0.00000000000E+00  0.10996981159E+04  0.10996981159E+04  0.00000000000E+00 0. -1.
         21   -1    0    0  502  503 -0.00000000000E+00 -0.00000000000E+00 -0.21242573176E+03  0.21242573176E+03  0.00000000000E+00 0. -1.
    9000007    1    1    2  501    0  0.12114254349E+03  0.12325736201E+03  0.72751009640E+03  0.84802053837E+03  0.40000000000E+03 0. -1.
   -9000007    1    1    2    0  503 -0.12114254349E+03 -0.12325736201E+03  0.15976228777E+03  0.46410330933E+03  0.40000000000E+03 0. -1.
<mgrwt>
<rscale>  2 0.43573833E+03</rscale>
<asrwt>0</asrwt>
<pdfrwt beam="1">  1       21 0.16918432E+00 0.43573833E+03</pdfrwt>
<pdfrwt beam="2">  1       21 0.32680882E-01 0.43573833E+03</pdfrwt>
<totfact> 0.16650375E+03</totfact>
</mgrwt>
</event>
<event>
 4    1  0.4918322E-002  0.4105835E+03  0.7818608E-02  0.1040175E+00
         21   -1    0    0  501  502  0.00000000000E+00  0.00000000000E+00  0.28083361204E+03  0.28083361204E+03  0.00000000000E+00 0. -1.
         21   -1    0    0  502  503 -0.00000000000E+00 -0.00000000000E+00 -0.18158243098E+04  0.18158243098E+04  0.00000000000E+00 0.  1.
    9000007    1    1    2  501    0  0.28481776656E+02  0.88133931188E+02  0.90225699016E+02  0.42038015913E+03  0.40000000000E+03 0. -1.
   -9000007    1    1    2    0  503 -0.28481776656E+02 -0.88133931188E+02 -0.16252163967E+04  0.16762777627E+04  0.40000000000E+03 0.  1.
<mgrwt>
<rscale>  2 0.41058349E+03</rscale>
<asrwt>0</asrwt>
<pdfrwt beam="1">  1       21 0.43205173E-01 0.41058349E+03</pdfrwt>
<pdfrwt beam="2">  1       21 0.27935757E+00 0.41058349E+03</pdfrwt>
<totfact> 0.18652437E+02</totfact>
</mgrwt>
</event>
<event>
 4    1  0.4918322E-002  0.5015282E+03  0.7818608E-02  0.1013381E+00
         21   -1    0    0  501  502  0.00000000000E+00  0.00000000000E+00  0.11375232015E+04  0.11375232015E+04  0.00000000000E+00 0. -1.
         21   -1    0    0  502  503 -0.00000000000E+00 -0.00000000000E+00 -0.22824449130E+03  0.22824449130E+03  0.00000000000E+00 0. -1.
    9000007    1    1    2  501    0  0.26842765584E+03  0.13956043346E+03  0.57527797278E+03  0.76320067281E+03  0.40000000000E+03 0. -1.
   -9000007    1    1    2    0  503 -0.26842765584E+03 -0.13956043346E+03  0.33400073747E+03  0.60256702004E+03  0.40000000000E+03 0. -1.
<mgrwt>
<rscale>  2 0.50152819E+03</rscale>
<asrwt>0</asrwt>
<pdfrwt beam="1">  1       21 0.17500357E+00 0.50152819E+03</pdfrwt>
<pdfrwt beam="2">  1       21 0.35114538E-01 0.50152819E+03</pdfrwt>
<totfact> 0.12727545E+03</totfact>
</mgrwt>
</event>
<event>
 4    1  0.4918322E-002  0.4152620E+03  0.7818608E-02  0.1038619E+00
         21   -1    0    0  501  502  0.00000000000E+00  0.00000000000E+00  0.39182092151E+03  0.39182092151E+03  0.00000000000E+00 0. -1.
         21   -1    0    0  502  503 -0.00000000000E+00 -0.00000000000E+00 -0.44187747674E+03  0.44187747674E+03  0.00000000000E+00 0. -1.
    9000007    1    1    2  501    0 -0.76297235727E+00  0.11154364964E+03  0.13683912208E+01  0.41526430186E+03  0.40000000000E+03 0. -1.
   -9000007    1    1    2    0  503  0.76297235727E+00 -0.11154364964E+03 -0.51424946451E+02  0.41843409639E+03  0.40000000000E+03 0. -1.
<mgrwt>
<rscale>  2 0.41526205E+03</rscale>
<asrwt>0</asrwt>
<pdfrwt beam="1">  1       21 0.60280142E-01 0.41526205E+03</pdfrwt>
<pdfrwt beam="2">  1       21 0.67981150E-01 0.41526205E+03</pdfrwt>
<totfact> 0.45049747E+03</totfact>
</mgrwt>
</event>
<event>
 4    1  0.4918322E-002  0.4604424E+03  0.7818608E-02  0.1024653E+00
         21   -1    0    0  503  502  0.00000000000E+00  0.00000000000E+00  0.24883293549E+03  0.24883293549E+03  0.00000000000E+00 0. -1.
         21   -1    0    0  501  503 -0.00000000000E+00 -0.00000000000E+00 -0.17383200414E+04  0.17383200414E+04  0.00000000000E+00 0. -1.
    9000007    1    1    2  501    0 -0.60859292166E+02 -0.21978018190E+03 -0.14542073270E+04  0.15253609841E+04  0.40000000000E+03 0. -1.
   -9000007    1    1    2    0  502  0.60859292166E+02  0.21978018190E+03 -0.35279778861E+02  0.46179199278E+03  0.40000000000E+03 0. -1.
<mgrwt>
<rscale>  2 0.46044238E+03</rscale>
<asrwt>0</asrwt>
<pdfrwt beam="1">  1       21 0.38281991E-01 0.46044238E+03</pdfrwt>
<pdfrwt beam="2">  1       21 0.26743384E+00 0.46044238E+03</pdfrwt>
<totfact> 0.27419125E+02</totfact>
</mgrwt>
</event>
<event>
 4    1  0.4918322E-002  0.4034058E+03  0.7818608E-02  0.1042607E+00
         21   -1    0    0  503  502  0.00000000000E+00  0.00000000000E+00  0.12252902958E+03  0.12252902958E+03  0.00000000000E+00 0. -1.
         21   -1    0    0  501  503 -0.00000000000E+00 -0.00000000000E+00 -0.13652277472E+04  0.13652277472E+04  0.00000000000E+00 0. -1.
    9000007    1    1    2  501    0  0.19044309426E+02  0.48719450338E+02 -0.74394855005E+03  0.84628347241E+03  0.40000000000E+03 0. -1.
   -9000007    1    1    2    0  502 -0.19044309426E+02 -0.48719450338E+02 -0.49875016758E+03  0.64147330437E+03  0.40000000000E+03 0. -1.
<mgrwt>
<rscale>  2 0.40340584E+03</rscale>
<asrwt>0</asrwt>
<pdfrwt beam="1">  1       21 0.18850621E-01 0.40340584E+03</pdfrwt>
<pdfrwt beam="2">  1       21 0.21003503E+00 0.40340584E+03</pdfrwt>
<totfact> 0.25844423E+03</totfact>
</mgrwt>
</event>
<event>
 4    1  0.4918322E-002  0.4776310E+03  0.7818608E-02  0.1019788E+00
         21   -1    0    0  501  502  0.00000000000E+00  0.00000000000E+00  0.86534697374E+03  0.86534697374E+03  0.00000000000E+00 0. -1.
         21   -1    0    0  502  503 -0.00000000000E+00 -0.00000000000E+00 -0.29496124916E+03  0.29496124916E+03  0.00000000000E+00 0.  1.
    9000007    1    1    2  501    0  0.24331512761E+03  0.94493919637E+02  0.47427491672E+03  0.67310329727E+03  0.40000000000E+03 0.  1.
   -9000007    1    1    2    0  503 -0.24331512761E+03 -0.94493919637E+02  0.96110807859E+02  0.48720492563E+03  0.40000000000E+03 0.  1.
<mgrwt>
<rscale>  2 0.47763098E+03</rscale>
<asrwt>0</asrwt>
<pdfrwt beam="1">  1       21 0.13313030E+00 0.47763098E+03</pdfrwt>
<pdfrwt beam="2">  1       21 0.45378654E-01 0.47763098E+03</pdfrwt>
<totfact> 0.16041986E+03</totfact>
</mgrwt>
</event>
<event>
 4    1  0.4918322E-002  0.4675729E+03  0.7818608E-02  0.1022607E+00
         21   -1    0    0  503  502  0.00000000000E+00  0.00000000000E+00  0.22662488627E+03  0.22662488627E+03  0.00000000000E+00 0.  1.
         21   -1    0    0  501  503 -0.00000000000E+00 -0.00000000000E+00 -0.10072155582E+04  0.10072155582E+04  0.00000000000E+00 0.  1.
    9000007    1    1    2  501    0 -0.53646242990E+02 -0.23610703609E+03 -0.51704730523E+03  0.69711001121E+03  0.40000000000E+03 0. -1.
   -9000007    1    1    2    0  502  0.53646242990E+02  0.23610703609E+03 -0.26354336672E+03  0.53673043329E+03  0.40000000000E+03 0. -1.
<mgrwt>
<rscale>  2 0.46757294E+03</rscale>
<asrwt>0</asrwt>
<pdfrwt beam="1">  1       21 0.34865367E-01 0.46757294E+03</pdfrwt>
<pdfrwt beam="2">  1       21 0.15495624E+00 0.46757294E+03</pdfrwt>
<totfact> 0.18446964E+03</totfact>
</mgrwt>
</event>
<event>
 4    1  0.4918322E-002  0.4601740E+03  0.7818608E-02  0.1024731E+00
         21   -1    0    0  503  502  0.00000000000E+00  0.00000000000E+00  0.48319947635E+03  0.48319947635E+03  0.00000000000E+00 0.  1.
         21   -1    0    0  501  503 -0.00000000000E+00 -0.00000000000E+00 -0.96721979926E+03  0.96721979926E+03  0.00000000000E+00 0. -1.
    9000007    1    1    2  501    0  0.13900192398E+03 -0.18010707632E+03 -0.77832298463E+03  0.90418292520E+03  0.40000000000E+03 0. -1.
   -9000007    1    1    2    0  502 -0.13900192398E+03  0.18010707632E+03  0.29430266172E+03  0.54623635041E+03  0.40000000000E+03 0.  1.
<mgrwt>
<rscale>  2 0.46017398E+03</rscale>
<asrwt>0</asrwt>
<pdfrwt beam="1">  1       21 0.74338381E-01 0.46017398E+03</pdfrwt>
<pdfrwt beam="2">  1       21 0.14880305E+00 0.46017398E+03</pdfrwt>
<totfact> 0.40875767E+02</totfact>
</mgrwt>
</event>
<event>
 4    1  0.4918322E-002  0.6052767E+03  0.7818608E-02  0.9894519E-01
         21   -1    0    0  503  502  0.00000000000E+00  0.00000000000E+00  0.28880772301E+03  0.28880772301E+03  0.00000000000E+00 0.  1.
         21   -1    0    0  501  503 -0.00000000000E+00 -0.00000000000E+00 -0.12708433720E+04  0.12708433720E+04  0.00000000000E+00 0. -1.
    9000007    1    1    2  501    0  0.44643273224E+03  0.84010105006E+02 -0.45771187472E+03  0.75885442769E+03  0.40000000000E+03 0. -1.
   -9000007    1    1    2    0  502 -0.44643273224E+03 -0.84010105006E+02 -0.52432377430E+03  0.80079666736E+03  0.40000000000E+03 0.  1.
<mgrwt>
<rscale>  2 0.60527670E+03</rscale>
<asrwt>0</asrwt>
<pdfrwt beam="1">  1       21 0.44431958E-01 0.60527670E+03</pdfrwt>
<pdfrwt beam="2">  1       21 0.19551436E+00 0.60527670E+03</pdfrwt>
<totfact> 0.54145163E+02</totfact>
</mgrwt>
</event>
<event>
 4    1  0.4918322E-002  0.5349254E+03  0.7818608E-02  0.1005045E+00
         21   -1    0    0  503  502  0.00000000000E+00  0.00000000000E+00  0.10211100561E+04  0.10211100561E+04  0.00000000000E+00 0. -1.
         21   -1    0    0  501  503 -0.00000000000E+00 -0.00000000000E+00 -0.30125992443E+03  0.30125992443E+03  0.00000000000E+00 0. -1.
    9000007    1    1    2  501    0 -0.35038130962E+03 -0.58121539513E+02  0.18523179690E+03  0.56608832709E+03  0.40000000000E+03 0. -1.
   -9000007    1    1    2    0  502  0.35038130962E+03  0.58121539513E+02  0.53461833481E+03  0.75628165349E+03  0.40000000000E+03 0. -1.
<mgrwt>
<rscale>  2 0.53492539E+03</rscale>
<asrwt>0</asrwt>
<pdfrwt beam="1">  1       21 0.15709385E+00 0.53492539E+03</pdfrwt>
<pdfrwt beam="2">  1       21 0.46347681E-01 0.53492539E+03</pdfrwt>
<totfact> 0.96164672E+02</totfact>
</mgrwt>
</event>
<event>
 4    1  0.4918322E-002  0.5446410E+03  0.7818608E-02  0.1002742E+00
         21   -1    0    0  501  502  0.00000000000E+00  0.00000000000E+00  0.85582469816E+03  0.85582469816E+03  0.00000000000E+00 0.  1.
         21   -1    0    0  502  503 -0.00000000000E+00 -0.00000000000E+00 -0.34920353035E+03  0.34920353035E+03  0.00000000000E+00 0. -1.
    9000007    1    1    2  501    0 -0.22782960355E+03  0.29107990027E+03  0.30527688180E+03  0.62436192321E+03  0.40000000000E+03 0.  1.
   -9000007    1    1    2    0  503  0.22782960355E+03 -0.29107990027E+03  0.20134428601E+03  0.58066630530E+03  0.40000000000E+03 0. -1.
<mgrwt>
<rscale>  2 0.54464102E+03</rscale>
<asrwt>0</asrwt>
<pdfrwt beam="1">  1       21 0.13166534E+00 0.54464102E+03</pdfrwt>
<pdfrwt beam="2">  1       21 0.53723620E-01 0.54464102E+03</pdfrwt>
<totfact> 0.11256555E+03</totfact>
</mgrwt>
</event>
<event>
 4    1  0.4918322E-002  0.4917700E+03  0.7818608E-02  0.1015950E+00
         21   -1    0    0  503  502  0.00000000000E+00  0.00000000000E+00  0.65501285883E+03  0.65501285883E+03  0.00000000000E+00 0. -1.
         21   -1    0    0  501  503 -0.00000000000E+00 -0.00000000000E+00 -0.72226344811E+03  0.72226344811E+03  0.00000000000E+00 0. -1.
    9000007    1    1    2  501    0  0.28143219674E+03 -0.51318864800E+02 -0.51508850394E+03  0.71214736827E+03  0.40000000000E+03 0. -1.
   -9000007    1    1    2    0  502 -0.28143219674E+03  0.51318864800E+02  0.44783791466E+03  0.66512893867E+03  0.40000000000E+03 0. -1.
<mgrwt>
<rscale>  2 0.49176997E+03</rscale>
<asrwt>0</asrwt>
<pdfrwt beam="1">  1       21 0.10077121E+00 0.49176997E+03</pdfrwt>
<pdfrwt beam="2">  1       21 0.11111745E+00 0.49176997E+03</pdfrwt>
<totfact> 0.42036571E+02</totfact>
</mgrwt>
</event>
<event>
 4    1  0.4918322E-002  0.4289760E+03  0.7818608E-02  0.1034184E+00
         21   -1    0    0  501  502  0.00000000000E+00  0.00000000000E+00  0.64073736561E+03  0.64073736561E+03  0.00000000000E+00 0.  1.
         21   -1    0    0  502  503 -0.00000000000E+00 -0.00000000000E+00 -0.33004487133E+03  0.33004487133E+03  0.00000000000E+00 0. -1.
    9000007    1    1    2  501    0 -0.30154342571E+02 -0.15202336195E+03  0.33023016886E+03  0.54136157176E+03  0.40000000000E+03 0. -1.
   -9000007    1    1    2    0  503  0.30154342571E+02  0.15202336195E+03 -0.19537674572E+02  0.42942066518E+03  0.40000000000E+03 0. -1.
<mgrwt>
<rscale>  2 0.42897597E+03</rscale>
<asrwt>0</asrwt>
<pdfrwt beam="1">  1       21 0.98574979E-01 0.42897597E+03</pdfrwt>
<pdfrwt beam="2">  1       21 0.50776134E-01 0.42897597E+03</pdfrwt>
<totfact> 0.27411265E+03</totfact>
</mgrwt>
</event>
<event>
 4    1  0.4918322E-002  0.5340631E+03  0.7818608E-02  0.1005251E+00
         21   -1    0    0  503  502  0.00000000000E+00  0.00000000000E+00  0.19742830769E+03  0.19742830769E+03  0.00000000000E+00 0. -1.
         21   -1    0    0  501  503 -0.00000000000E+00 -0.00000000000E+00 -0.14483347151E+04  0.14483347151E+04  0.00000000000E+00 0. -1.
    9000007    1    1    2  501    0  0.28686605625E+03 -0.20719863798E+03 -0.58419399657E+03  0.79152134237E+03  0.40000000000E+03 0. -1.
   -9000007    1    1    2    0  502 -0.28686605625E+03  0.20719863798E+03 -0.66671241086E+03  0.85424168044E+03  0.40000000000E+03 0. -1.
<mgrwt>
<rscale>  2 0.53406311E+03</rscale>
<asrwt>0</asrwt>
<pdfrwt beam="1">  1       21 0.30373587E-01 0.53406311E+03</pdfrwt>
<pdfrwt beam="2">  1       21 0.22282072E+00 0.53406311E+03</pdfrwt>
<totfact> 0.80020638E+02</totfact>
</mgrwt>
</event>
<event>
 4    1  0.4918322E-002  0.7332757E+03  0.7818608E-02  0.9661960E-01
         21   -1    0    0  503  502  0.00000000000E+00  0.00000000000E+00  0.11051844626E+04  0.11051844626E+04  0.00000000000E+00 0. -1.
         21   -1    0    0  501  503 -0.00000000000E+00 -0.00000000000E+00 -0.66516809745E+03  0.66516809745E+03  0.00000000000E+00 0.  1.
    9000007    1    1    2  501    0  0.61351775191E+03  0.35905631932E+02  0.67874591939E+03  0.99919431013E+03  0.40000000000E+03 0. -1.
   -9000007    1    1    2    0  502 -0.61351775191E+03 -0.35905631932E+02 -0.23872955425E+03  0.77115824990E+03  0.40000000000E+03 0.  1.
<mgrwt>
<rscale>  2 0.73327570E+03</rscale>
<asrwt>0</asrwt>
<pdfrwt beam="1">  1       21 0.17002838E+00 0.73327570E+03</pdfrwt>
<pdfrwt beam="2">  1       21 0.10233355E+00 0.73327570E+03</pdfrwt>
<totfact> 0.11879195E+02</totfact>
</mgrwt>
</event>
<event>
 4    1  0.4918322E-002  0.5545746E+03  0.7818608E-02  0.1000441E+00
         21   -1    0    0  501  502  0.00000000000E+00  0.00000000000E+00  0.13240383237E+04  0.13240383237E+04  0.00000000000E+00 0. -1.
         21   -1    0    0  502  503 -0.00000000000E+00 -0.00000000000E+00 -0.45250026252E+03  0.45250026252E+03  0.00000000000E+00 0.  1.
    9000007    1    1    2  501    0  0.34757858225E+03 -0.16353016761E+03  0.10554381785E+04  0.11922678957E+04  0.40000000000E+03 0. -1.
   -9000007    1    1    2    0  503 -0.34757858225E+03  0.16353016761E+03 -0.18390011735E+03  0.58427069045E+03  0.40000000000E+03 0.  1.
<mgrwt>
<rscale>  2 0.55457460E+03</rscale>
<asrwt>0</asrwt>
<pdfrwt beam="1">  1       21 0.20369820E+00 0.55457460E+03</pdfrwt>
<pdfrwt beam="2">  1       21 0.69615426E-01 0.55457460E+03</pdfrwt>
<totfact> 0.18293520E+02</totfact>
</mgrwt>
</event>
<event>
 4    1  0.4918322E-002  0.5669751E+03  0.7818608E-02  0.9976395E-01
         21   -1    0    0  501  502  0.00000000000E+00  0.00000000000E+00  0.11251655007E+04  0.11251655007E+04  0.00000000000E+00 0.  1.
         21   -1    0    0  502  503 -0.00000000000E+00 -0.00000000000E+00 -0.35574033339E+03  0.35574033339E+03  0.00000000000E+00 0.  1.
    9000007    1    1    2  501    0 -0.21710341656E+03 -0.33812252618E+03  0.71326326483E+03  0.91115598069E+03  0.40000000000E+03 0.  1.
   -9000007    1    1    2    0  503  0.21710341656E+03  0.33812252618E+03  0.56161902512E+02  0.56974985343E+03  0.40000000000E+03 0.  1.
<mgrwt>
<rscale>  2 0.56697508E+03</rscale>
<asrwt>0</asrwt>
<pdfrwt beam="1">  1       21 0.17310238E+00 0.56697508E+03</pdfrwt>
<pdfrwt beam="2">  1       21 0.54729283E-01 0.56697508E+03</pdfrwt>
<totfact> 0.50575962E+02</totfact>
</mgrwt>
</event>
<event>
 4    1  0.4918322E-002  0.4248093E+03  0.7818608E-02  0.1035512E+00
         21   -1    0    0  501  502  0.00000000000E+00  0.00000000000E+00  0.47359859684E+03  0.47359859684E+03  0.00000000000E+00 0.  1.
         21   -1    0    0  502  503 -0.00000000000E+00 -0.00000000000E+00 -0.38665385329E+03  0.38665385329E+03  0.00000000000E+00 0.  1.
    9000007    1    1    2  501    0 -0.13246862657E+03 -0.53990464206E+02 -0.83274741634E+01  0.42489087314E+03  0.40000000000E+03 0. -1.
   -9000007    1    1    2    0  503  0.13246862657E+03  0.53990464206E+02  0.95272217717E+02  0.43536157699E+03  0.40000000000E+03 0. -1.
<mgrwt>
<rscale>  2 0.42480926E+03</rscale>
<asrwt>0</asrwt>
<pdfrwt beam="1">  1       21 0.72861323E-01 0.42480926E+03</pdfrwt>
<pdfrwt beam="2">  1       21 0.59485208E-01 0.42480926E+03</pdfrwt>
<totfact> 0.39541496E+03</totfact>
</mgrwt>
</event>
<event>
 4    1  0.4918322E-002  0.4202826E+03  0.7818608E-02  0.1036974E+00
         21   -1    0    0  501  502  0.00000000000E+00  0.00000000000E+00  0.63297684956E+03  0.63297684956E+03  0.00000000000E+00 0.  1.
         21   -1    0    0  502  503 -0.00000000000E+00 -0.00000000000E+00 -0.28460029755E+03  0.28460029755E+03  0.00000000000E+00 0.  1.
    9000007    1    1    2  501    0  0.88171141353E+02 -0.94145267317E+02  0.23820975955E+03  0.48309561277E+03  0.40000000000E+03 0.  1.
   -9000007    1    1    2    0  503 -0.88171141353E+02  0.94145267317E+02  0.11016679246E+03  0.43448153434E+03  0.40000000000E+03 0.  1.
<mgrwt>
<rscale>  2 0.42028262E+03</rscale>
<asrwt>0</asrwt>
<pdfrwt beam="1">  1       21 0.97381053E-01 0.42028262E+03</pdfrwt>
<pdfrwt beam="2">  1       21 0.43784661E-01 0.42028262E+03</pdfrwt>
<totfact> 0.38691475E+03</totfact>
</mgrwt>
</event>
<event>
 4    1  0.4918322E-002  0.4484473E+03  0.7818608E-02  0.1028186E+00
         21   -1    0    0  503  502  0.00000000000E+00  0.00000000000E+00  0.74411668990E+03  0.74411668990E+03  0.00000000000E+00 0.  1.
         21   -1    0    0  501  503 -0.00000000000E+00 -0.00000000000E+00 -0.28134284394E+03  0.28134284394E+03  0.00000000000E+00 0.  1.
    9000007    1    1    2  501    0 -0.20094623663E+03 -0.26936093614E+02  0.33315160613E+03  0.55865457648E+03  0.40000000000E+03 0.  1.
   -9000007    1    1    2    0  502  0.20094623663E+03  0.26936093614E+02  0.12962223983E+03  0.46680495736E+03  0.40000000000E+03 0.  1.
<mgrwt>
<rscale>  2 0.44844726E+03</rscale>
<asrwt>0</asrwt>
<pdfrwt beam="1">  1       21 0.11447949E+00 0.44844726E+03</pdfrwt>
<pdfrwt beam="2">  1       21 0.43283515E-01 0.44844726E+03</pdfrwt>
<totfact> 0.26352856E+03</totfact>
</mgrwt>
</event>
<event>
 4    1  0.4918322E-002  0.4424493E+03  0.7818608E-02  0.1029998E+00
         21   -1    0    0  503  502  0.00000000000E+00  0.00000000000E+00  0.97843576347E+02  0.97843576347E+02  0.00000000000E+00 0. -1.
         21   -1    0    0  501  503 -0.00000000000E+00 -0.00000000000E+00 -0.33247243711E+04  0.33247243711E+04  0.00000000000E+00 0. -1.
    9000007    1    1    2  501    0  0.14969919135E+01  0.18910078431E+03 -0.26933382743E+04  0.27294381120E+04  0.40000000000E+03 0. -1.
   -9000007    1    1    2    0  502 -0.14969919135E+01 -0.18910078431E+03 -0.53354252046E+03  0.69312983542E+03  0.40000000000E+03 0. -1.
<mgrwt>
<rscale>  2 0.44244926E+03</rscale>
<asrwt>0</asrwt>
<pdfrwt beam="1">  1       21 0.15052856E-01 0.44244926E+03</pdfrwt>
<pdfrwt beam="2">  1       21 0.51149611E+00 0.44244926E+03</pdfrwt>
<totfact> 0.45541404E+01</totfact>
</mgrwt>
</event>
<event>
 4    1  0.4918322E-002  0.4009303E+03  0.7818608E-02  0.1043458E+00
         21   -1    0    0  503  502  0.00000000000E+00  0.00000000000E+00  0.42458739197E+03  0.42458739197E+03  0.00000000000E+00 0.  1.
         21   -1    0    0  501  503 -0.00000000000E+00 -0.00000000000E+00 -0.59748231806E+03  0.59748231806E+03  0.00000000000E+00 0.  1.
    9000007    1    1    2  501    0 -0.27117223593E+02 -0.31276343821E+01 -0.39576310770E+03  0.56335917790E+03  0.40000000000E+03 0.  1.
   -9000007    1    1    2    0  502  0.27117223593E+02  0.31276343821E+01  0.22286818161E+03  0.45871053213E+03  0.40000000000E+03 0.  1.
<mgrwt>
<rscale>  2 0.40093033E+03</rscale>
<asrwt>0</asrwt>
<pdfrwt beam="1">  1       21 0.65321137E-01 0.40093033E+03</pdfrwt>
<pdfrwt beam="2">  1       21 0.91920356E-01 0.40093033E+03</pdfrwt>
<totfact> 0.18958207E+03</totfact>
</mgrwt>
</event>
<event>
 4    1  0.4918322E-002  0.4767553E+03  0.7818608E-02  0.1020031E+00
         21   -1    0    0  501  502  0.00000000000E+00  0.00000000000E+00  0.72323638230E+03  0.72323638230E+03  0.00000000000E+00 0.  1.
         21   -1    0    0  502  503 -0.00000000000E+00 -0.00000000000E+00 -0.32672176161E+03  0.32672176161E+03  0.00000000000E+00 0. -1.
    9000007    1    1    2  501    0 -0.97949244830E+02 -0.24021148913E+03  0.95793834690E+02  0.48628394261E+03  0.40000000000E+03 0. -1.
   -9000007    1    1    2    0  503  0.97949244830E+02  0.24021148913E+03  0.30072078601E+03  0.56367420130E+03  0.40000000000E+03 0. -1.
<mgrwt>
<rscale>  2 0.47675530E+03</rscale>
<asrwt>0</asrwt>
<pdfrwt beam="1">  1       21 0.11126714E+00 0.47675530E+03</pdfrwt>
<pdfrwt beam="2">  1       21 0.50264886E-01 0.47675530E+03</pdfrwt>
<totfact> 0.20433441E+03</totfact>
</mgrwt>
</event>
<event>
 4    1  0.4918322E-002  0.4274664E+03  0.7818608E-02  0.1034663E+00
         21   -1    0    0  501  502  0.00000000000E+00  0.00000000000E+00  0.12226681611E+04  0.12226681611E+04  0.00000000000E+00 0.  1.
         21   -1    0    0  502  503 -0.00000000000E+00 -0.00000000000E+00 -0.23212921182E+03  0.23212921182E+03  0.00000000000E+00 0.  1.
    9000007    1    1    2  501    0 -0.41524012192E+02  0.14492510065E+03  0.92938595015E+03  0.10229788721E+04  0.40000000000E+03 0.  1.
   -9000007    1    1    2    0  503  0.41524012192E+02 -0.14492510065E+03  0.61152999155E+02  0.43181850087E+03  0.40000000000E+03 0.  1.
<mgrwt>
<rscale>  2 0.42746641E+03</rscale>
<asrwt>0</asrwt>
<pdfrwt beam="1">  1       21 0.18810279E+00 0.42746641E+03</pdfrwt>
<pdfrwt beam="2">  1       21 0.35712187E-01 0.42746641E+03</pdfrwt>
<totfact> 0.10271274E+03</totfact>
</mgrwt>
</event>
<event>
 4    1  0.4918322E-002  0.4219139E+03  0.7818608E-02  0.1036445E+00
         21   -1    0    0  501  502  0.00000000000E+00  0.00000000000E+00  0.36887962703E+03  0.36887962703E+03  0.00000000000E+00 0.  1.
         21   -1    0    0  502  503 -0.00000000000E+00 -0.00000000000E+00 -0.51543110740E+03  0.51543110740E+03  0.00000000000E+00 0.  1.
    9000007    1    1    2  501    0  0.12677951647E+03 -0.44025769166E+02 -0.18491359221E+03  0.46065643459E+03  0.40000000000E+03 0.  1.
   -9000007    1    1    2    0  503 -0.12677951647E+03  0.44025769166E+02  0.38362111832E+02  0.42365429984E+03  0.40000000000E+03 0.  1.
<mgrwt>
<rscale>  2 0.42191387E+03</rscale>
<asrwt>0</asrwt>
<pdfrwt beam="1">  1       21 0.56750712E-01 0.42191387E+03</pdfrwt>
<pdfrwt beam="2">  1       21 0.79297094E-01 0.42191387E+03</pdfrwt>
<totfact> 0.36144452E+03</totfact>
</mgrwt>
</event>
<event>
 4    1  0.4918322E-002  0.4351340E+03  0.7818608E-02  0.1032250E+00
         21   -1    0    0  503  502  0.00000000000E+00  0.00000000000E+00  0.85997394161E+03  0.85997394161E+03  0.00000000000E+00 0.  1.
         21   -1    0    0  501  503 -0.00000000000E+00 -0.00000000000E+00 -0.62362316620E+03  0.62362316620E+03  0.00000000000E+00 0.  1.
    9000007    1    1    2  501    0 -0.78253124478E+02 -0.15237466918E+03 -0.47847608938E+03  0.64674644136E+03  0.40000000000E+03 0.  1.
   -9000007    1    1    2    0  502  0.78253124478E+02  0.15237466918E+03  0.71482686480E+03  0.83685066645E+03  0.40000000000E+03 0.  1.
<mgrwt>
<rscale>  2 0.43513399E+03</rscale>
<asrwt>0</asrwt>
<pdfrwt beam="1">  1       21 0.13230368E+00 0.43513399E+03</pdfrwt>
<pdfrwt beam="2">  1       21 0.95942025E-01 0.43513399E+03</pdfrwt>
<totfact> 0.31149632E+02</totfact>
</mgrwt>
</event>
<event>
 4    1  0.4918322E-002  0.4504112E+03  0.7818608E-02  0.1027599E+00
         21   -1    0    0  501  502  0.00000000000E+00  0.00000000000E+00  0.10294462742E+04  0.10294462742E+04  0.00000000000E+00 0.  1.
         21   -1    0    0  502  503 -0.00000000000E+00 -0.00000000000E+00 -0.32845428380E+03  0.32845428380E+03  0.00000000000E+00 0.  1.
    9000007    1    1    2  501    0  0.19375680135E+02 -0.20614275333E+03  0.77991038195E+03  0.90062781192E+03  0.40000000000E+03 0.  1.
   -9000007    1    1    2    0  503 -0.19375680135E+02  0.20614275333E+03 -0.78918391589E+02  0.45727274603E+03  0.40000000000E+03 0.  1.
<mgrwt>
<rscale>  2 0.45041120E+03</rscale>
<asrwt>0</asrwt>
<pdfrwt beam="1">  1       21 0.15837635E+00 0.45041120E+03</pdfrwt>
<pdfrwt beam="2">  1       21 0.50531429E-01 0.45041120E+03</pdfrwt>
<totfact> 0.80955764E+02</totfact>
</mgrwt>
</event>
<event>
 4    1  0.4918322E-002  0.4297813E+03  0.7818608E-02  0.1033929E+00
         21   -1    0    0  503  502  0.00000000000E+00  0.00000000000E+00  0.48016015526E+03  0.48016015526E+03  0.00000000000E+00 0.  1.
         21   -1    0    0  501  503 -0.00000000000E+00 -0.00000000000E+00 -0.11059347138E+04  0.11059347138E+04  0.00000000000E+00 0.  1.
    9000007    1    1    2  501    0 -0.75071454621E+02 -0.13811672294E+03 -0.95332407914E+03  0.10457240326E+04  0.40000000000E+03 0.  1.
   -9000007    1    1    2    0  502  0.75071454621E+02  0.13811672294E+03  0.32754952061E+03  0.54037083647E+03  0.40000000000E+03 0.  1.
<mgrwt>
<rscale>  2 0.42978128E+03</rscale>
<asrwt>0</asrwt>
<pdfrwt beam="1">  1       21 0.73870794E-01 0.42978128E+03</pdfrwt>
<pdfrwt beam="2">  1       21 0.17014380E+00 0.42978128E+03</pdfrwt>
<totfact> 0.29012398E+02</totfact>
</mgrwt>
</event>
<event>
 4    1  0.4918322E-002  0.5019523E+03  0.7818608E-02  0.1013271E+00
         21   -1    0    0  501  502  0.00000000000E+00  0.00000000000E+00  0.44509899794E+03  0.44509899794E+03  0.00000000000E+00 0. -1.
         21   -1    0    0  502  503 -0.00000000000E+00 -0.00000000000E+00 -0.64493818400E+03  0.64493818400E+03  0.00000000000E+00 0.  1.
    9000007    1    1    2  501    0 -0.29091325900E+03 -0.85589632163E+02  0.90674692250E+02  0.51007647389E+03  0.40000000000E+03 0. -1.
   -9000007    1    1    2    0  503  0.29091325900E+03  0.85589632163E+02 -0.29051387830E+03  0.57996070805E+03  0.40000000000E+03 0.  1.
<mgrwt>
<rscale>  2 0.50195230E+03</rscale>
<asrwt>0</asrwt>
<pdfrwt beam="1">  1       21 0.68476769E-01 0.50195230E+03</pdfrwt>
<pdfrwt beam="2">  1       21 0.99221259E-01 0.50195230E+03</pdfrwt>
<totfact> 0.13656480E+03</totfact>
</mgrwt>
</event>
<event>
 4    1  0.4918322E-002  0.4607290E+03  0.7818608E-02  0.1024570E+00
         21   -1    0    0  501  502  0.00000000000E+00  0.00000000000E+00  0.98011796630E+03  0.98011796630E+03  0.00000000000E+00 0. -1.
         21   -1    0    0  502  503 -0.00000000000E+00 -0.00000000000E+00 -0.45090762995E+03  0.45090762995E+03  0.00000000000E+00 0.  1.
    9000007    1    1    2  501    0  0.98350239826E+02 -0.20639389357E+03  0.78041302717E+03  0.90626469751E+03  0.40000000000E+03 0. -1.
   -9000007    1    1    2    0  503 -0.98350239826E+02  0.20639389357E+03 -0.25120269081E+03  0.52476089874E+03  0.40000000000E+03 0.  1.
<mgrwt>
<rscale>  2 0.46072900E+03</rscale>
<asrwt>0</asrwt>
<pdfrwt beam="1">  1       21 0.15078738E+00 0.46072900E+03</pdfrwt>
<pdfrwt beam="2">  1       21 0.69370405E-01 0.46072900E+03</pdfrwt>
<totfact> 0.46103379E+02</totfact>
</mgrwt>
</event>
<event>
 4    1  0.4918322E-002  0.4177516E+03  0.7818608E-02  0.1037801E+00
         21   -1    0    0  503  502  0.00000000000E+00  0.00000000000E+00  0.59693289616E+03  0.59693289616E+03  0.00000000000E+00 0. -1.
         21   -1    0    0  501  503 -0.00000000000E+00 -0.00000000000E+00 -0.42482977721E+03  0.42482977721E+03  0.00000000000E+00 0. -1.
    9000007    1    1    2  501    0  0.11131437820E+03  0.46102859679E+02 -0.19923350182E+03  0.46282864293E+03  0.40000000000E+03 0. -1.
   -9000007    1    1    2    0  502 -0.11131437820E+03 -0.46102859679E+02  0.37133662077E+03  0.55893403045E+03  0.40000000000E+03 0. -1.
<mgrwt>
<rscale>  2 0.41775156E+03</rscale>
<asrwt>0</asrwt>
<pdfrwt beam="1">  1       21 0.91835830E-01 0.41775156E+03</pdfrwt>
<pdfrwt beam="2">  1       21 0.65358427E-01 0.41775156E+03</pdfrwt>
<totfact> 0.18841860E+03</totfact>
</mgrwt>
</event>
<event>
 4    1  0.4918322E-002  0.4439889E+03  0.7818608E-02  0.1029530E+00
         21   -1    0    0  501  502  0.00000000000E+00  0.00000000000E+00  0.32996619157E+03  0.32996619157E+03  0.00000000000E+00 0. -1.
         21   -1    0    0  502  503 -0.00000000000E+00 -0.00000000000E+00 -0.64485061578E+03  0.64485061578E+03  0.00000000000E+00 0. -1.
    9000007    1    1    2  501    0 -0.14233326001E+03 -0.12987452090E+03 -0.25244448695E+02  0.44470600431E+03  0.40000000000E+03 0. -1.
   -9000007    1    1    2    0  503  0.14233326001E+03  0.12987452090E+03 -0.28963997551E+03  0.53011080303E+03  0.40000000000E+03 0. -1.
<mgrwt>
<rscale>  2 0.44398891E+03</rscale>
<asrwt>0</asrwt>
<pdfrwt beam="1">  1       21 0.50764030E-01 0.44398891E+03</pdfrwt>
<pdfrwt beam="2">  1       21 0.99207786E-01 0.44398891E+03</pdfrwt>
<totfact> 0.26853427E+03</totfact>
</mgrwt>
</event>
<event>
 4    1  0.4918322E-002  0.4371924E+03  0.7818608E-02  0.1031612E+00
         21   -1    0    0  503  502  0.00000000000E+00  0.00000000000E+00  0.76487572601E+03  0.76487572601E+03  0.00000000000E+00 0.  1.
         21   -1    0    0  501  503 -0.00000000000E+00 -0.00000000000E+00 -0.26233687040E+03  0.26233687040E+03  0.00000000000E+00 0. -1.
    9000007    1    1    2  501    0 -0.12594755542E+03 -0.12358984346E+03  0.13940936074E+03  0.45888147270E+03  0.40000000000E+03 0. -1.
   -9000007    1    1    2    0  502  0.12594755542E+03  0.12358984346E+03  0.36312949487E+03  0.56833112370E+03  0.40000000000E+03 0.  1.
<mgrwt>
<rscale>  2 0.43719245E+03</rscale>
<asrwt>0</asrwt>
<pdfrwt beam="1">  1       21 0.11767319E+00 0.43719245E+03</pdfrwt>
<pdfrwt beam="2">  1       21 0.40359519E-01 0.43719245E+03</pdfrwt>
<totfact> 0.28554991E+03</totfact>
</mgrwt>
</event>
<event>
 4    1  0.4918322E-002  0.4459594E+03  0.7818608E-02  0.1028934E+00
         21   -1    0    0  503  502  0.00000000000E+00  0.00000000000E+00  0.31315020675E+03  0.31315020675E+03  0.00000000000E+00 0.  1.
         21   -1    0    0  501  503 -0.00000000000E+00 -0.00000000000E+00 -0.63509503961E+03  0.63509503961E+03  0.00000000000E+00 0. -1.
    9000007    1    1    2  501    0 -0.19000575280E+03  0.52702918078E+02 -0.16160967744E+03  0.47433898376E+03  0.40000000000E+03 0.  1.
   -9000007    1    1    2    0  502  0.19000575280E+03 -0.52702918078E+02 -0.16033515543E+03  0.47390626261E+03  0.40000000000E+03 0.  1.
<mgrwt>
<rscale>  2 0.44595940E+03</rscale>
<asrwt>0</asrwt>
<pdfrwt beam="1">  1       21 0.48176956E-01 0.44595940E+03</pdfrwt>
<pdfrwt beam="2">  1       21 0.97706928E-01 0.44595940E+03</pdfrwt>
<totfact> 0.31111103E+03</totfact>
</mgrwt>
</event>
<event>
 4    1  0.4918322E-002  0.4008429E+03  0.7818608E-02  0.1043488E+00
         21   -1    0    0  501  502  0.00000000000E+00  0.00000000000E+00  0.72239348365E+03  0.72239348365E+03  0.00000000000E+00 0. -1.
         21   -1    0    0  502  503 -0.00000000000E+00 -0.00000000000E+00 -0.33713261160E+03  0.33713261160E+03  0.00000000000E+00 0. -1.
    9000007    1    1    2  501    0  0.14703279585E+02  0.21420616460E+02  0.50165012702E+03  0.64212761908E+03  0.40000000000E+03 0. -1.
   -9000007    1    1    2    0  503 -0.14703279585E+02 -0.21420616460E+02 -0.11638925497E+03  0.41739847617E+03  0.40000000000E+03 0. -1.
<mgrwt>
<rscale>  2 0.40084290E+03</rscale>
<asrwt>0</asrwt>
<pdfrwt beam="1">  1       21 0.11113746E+00 0.40084290E+03</pdfrwt>
<pdfrwt beam="2">  1       21 0.51866556E-01 0.40084290E+03</pdfrwt>
<totfact> 0.19745591E+03</totfact>
</mgrwt>
</event>
<event>
 4    1  0.4918322E-002  0.7245829E+03  0.7818608E-02  0.9676092E-01
         21   -1    0    0  503  502  0.00000000000E+00  0.00000000000E+00  0.89239038200E+03  0.89239038200E+03  0.00000000000E+00 0. -1.
         21   -1    0    0  501  503 -0.00000000000E+00 -0.00000000000E+00 -0.62569753370E+03  0.62569753370E+03  0.00000000000E+00 0.  1.
    9000007    1    1    2  501    0  0.26373590284E+03  0.54356574545E+03 -0.52147584874E+02  0.72645696134E+03  0.40000000000E+03 0.  1.
   -9000007    1    1    2    0  502 -0.26373590284E+03 -0.54356574545E+03  0.31884043317E+03  0.79163095436E+03  0.40000000000E+03 0. -1.
<mgrwt>
<rscale>  2 0.72458288E+03</rscale>
<asrwt>0</asrwt>
<pdfrwt beam="1">  1       21 0.13729083E+00 0.72458288E+03</pdfrwt>
<pdfrwt beam="2">  1       21 0.96261158E-01 0.72458288E+03</pdfrwt>
<totfact> 0.25105994E+02</totfact>
</mgrwt>
</event>
<event>
 4    1  0.4918322E-002  0.5566866E+03  0.7818608E-02  0.9999580E-01
         21   -1    0    0  503  502  0.00000000000E+00  0.00000000000E+00  0.34918670767E+03  0.34918670767E+03  0.00000000000E+00 0. -1.
         21   -1    0    0  501  503 -0.00000000000E+00 -0.00000000000E+00 -0.14399469532E+04  0.14399469532E+04  0.00000000000E+00 0. -1.
    9000007    1    1    2  501    0 -0.37869563363E+03  0.80558248347E+02 -0.10994804736E+04  0.12323787268E+04  0.40000000000E+03 0. -1.
   -9000007    1    1    2    0  502  0.37869563363E+03 -0.80558248347E+02  0.87202280655E+01  0.55675493413E+03  0.40000000000E+03 0. -1.
<mgrwt>
<rscale>  2 0.55668664E+03</rscale>
<asrwt>0</asrwt>
<pdfrwt beam="1">  1       21 0.53721032E-01 0.55668664E+03</pdfrwt>
<pdfrwt beam="2">  1       21 0.22153030E+00 0.55668664E+03</pdfrwt>
<totfact> 0.24766265E+02</totfact>
</mgrwt>
</event>
<event>
 4    1  0.4918322E-002  0.4218336E+03  0.7818608E-02  0.1036471E+00
         21   -1    0    0  501  502  0.00000000000E+00  0.00000000000E+00  0.49757332755E+03  0.49757332755E+03  0.00000000000E+00 0. -1.
         21   -1    0    0  502  503 -0.00000000000E+00 -0.00000000000E+00 -0.16535991639E+04  0.16535991639E+04  0.00000000000E+00 0. -1.
    9000007    1    1    2  501    0  0.70669328230E+01 -0.13376721336E+03  0.37418810578E+03  0.56387972779E+03  0.40000000000E+03 0. -1.
   -9000007    1    1    2    0  503 -0.70669328230E+01  0.13376721336E+03 -0.15302139422E+04  0.15872927637E+04  0.40000000000E+03 0. -1.
<mgrwt>
<rscale>  2 0.42183363E+03</rscale>
<asrwt>0</asrwt>
<pdfrwt beam="1">  1       21 0.76549742E-01 0.42183363E+03</pdfrwt>
<pdfrwt beam="2">  1       21 0.25439987E+00 0.42183363E+03</pdfrwt>
<totfact> 0.75511504E+01</totfact>
</mgrwt>
</event>
<event>
 4    1  0.4918322E-002  0.4886234E+03  0.7818608E-02  0.1016792E+00
         21   -1    0    0  501  502  0.00000000000E+00  0.00000000000E+00  0.72731850829E+03  0.72731850829E+03  0.00000000000E+00 0.  1.
         21   -1    0    0  502  503 -0.00000000000E+00 -0.00000000000E+00 -0.37223782035E+03  0.37223782035E+03  0.00000000000E+00 0. -1.
    9000007    1    1    2  501    0 -0.34129703495E+02  0.27854617964E+03  0.36650131421E+03  0.61079949589E+03  0.40000000000E+03 0.  1.
   -9000007    1    1    2    0  503  0.34129703495E+02 -0.27854617964E+03 -0.11420626275E+02  0.48875683275E+03  0.40000000000E+03 0. -1.
<mgrwt>
<rscale>  2 0.48862338E+03</rscale>
<asrwt>0</asrwt>
<pdfrwt beam="1">  1       21 0.11189515E+00 0.48862338E+03</pdfrwt>
<pdfrwt beam="2">  1       21 0.57267357E-01 0.48862338E+03</pdfrwt>
<totfact> 0.15148951E+03</totfact>
</mgrwt>
</event>
<event>
 4    1  0.4918322E-002  0.5894501E+03  0.7818608E-02  0.9927539E-01
         21   -1    0    0  501  502  0.00000000000E+00  0.00000000000E+00  0.16365929769E+03  0.16365929769E+03  0.00000000000E+00 0. -1.
         21   -1    0    0  502  503 -0.00000000000E+00 -0.00000000000E+00 -0.23483454361E+04  0.23483454361E+04  0.00000000000E+00 0.  1.
    9000007    1    1    2  501    0 -0.77698975369E+01 -0.43288694078E+03 -0.70328229446E+03  0.91763688924E+03  0.40000000000E+03 0. -1.
   -9000007    1    1    2    0  503  0.77698975369E+01  0.43288694078E+03 -0.14814038439E+04  0.15943678445E+04  0.40000000000E+03 0.  1.
<mgrwt>
<rscale>  2 0.58945015E+03</rscale>
<asrwt>0</asrwt>
<pdfrwt beam="1">  1       21 0.25178354E-01 0.58945015E+03</pdfrwt>
<pdfrwt beam="2">  1       21 0.36128390E+00 0.58945015E+03</pdfrwt>
<totfact> 0.15869589E+02</totfact>
</mgrwt>
</event>
<event>
 4    1  0.4918322E-002  0.4368011E+03  0.7818608E-02  0.1031733E+00
         21   -1    0    0  501  502  0.00000000000E+00  0.00000000000E+00  0.71864701888E+03  0.71864701888E+03  0.00000000000E+00 0. -1.
         21   -1    0    0  502  503 -0.00000000000E+00 -0.00000000000E+00 -0.27108232646E+03  0.27108232646E+03  0.00000000000E+00 0.  1.
    9000007    1    1    2  501    0  0.17260725363E+03 -0.31653674768E+02  0.15271919758E+03  0.46272926473E+03  0.40000000000E+03 0. -1.
   -9000007    1    1    2    0  503 -0.17260725363E+03  0.31653674768E+02  0.29484549484E+03  0.52700008060E+03  0.40000000000E+03 0. -1.
<mgrwt>
<rscale>  2 0.43680112E+03</rscale>
<asrwt>0</asrwt>
<pdfrwt beam="1">  1       21 0.11056108E+00 0.43680112E+03</pdfrwt>
<pdfrwt beam="2">  1       21 0.41704974E-01 0.43680112E+03</pdfrwt>
<totfact> 0.31179818E+03</totfact>
</mgrwt>
</event>
<event>
 4    1  0.4918322E-002  0.4322246E+03  0.7818608E-02  0.1033160E+00
         21   -1    0    0  501  502  0.00000000000E+00  0.00000000000E+00  0.28114800351E+03  0.28114800351E+03  0.00000000000E+00 0.  1.
         21   -1    0    0  502  503 -0.00000000000E+00 -0.00000000000E+00 -0.12552388972E+04  0.12552388972E+04  0.00000000000E+00 0.  1.
    9000007    1    1    2  501    0 -0.26528084622E+02 -0.16159937702E+03  0.39955506029E+02  0.43406743761E+03  0.40000000000E+03 0.  1.
   -9000007    1    1    2    0  503  0.26528084622E+02  0.16159937702E+03 -0.10140463997E+04  0.11023194631E+04  0.40000000000E+03 0.  1.
<mgrwt>
<rscale>  2 0.43222459E+03</rscale>
<asrwt>0</asrwt>
<pdfrwt beam="1">  1       21 0.43253538E-01 0.43222459E+03</pdfrwt>
<pdfrwt beam="2">  1       21 0.19311368E+00 0.43222459E+03</pdfrwt>
<totfact> 0.63919323E+02</totfact>
</mgrwt>
</event>
<event>
 4    1  0.4918322E-002  0.4813036E+03  0.7818608E-02  0.1018778E+00
         21   -1    0    0  501  502  0.00000000000E+00  0.00000000000E+00  0.72772651506E+03  0.72772651506E+03  0.00000000000E+00 0.  1.
         21   -1    0    0  502  503 -0.00000000000E+00 -0.00000000000E+00 -0.36108525680E+03  0.36108525680E+03  0.00000000000E+00 0.  1.
    9000007    1    1    2  501    0  0.16788779355E+03 -0.20848703316E+03 -0.40238064791E+01  0.48132041847E+03  0.40000000000E+03 0.  1.
   -9000007    1    1    2    0  503 -0.16788779355E+03  0.20848703316E+03  0.37066506473E+03  0.60749135338E+03  0.40000000000E+03 0.  1.
<mgrwt>
<rscale>  2 0.48130360E+03</rscale>
<asrwt>0</asrwt>
<pdfrwt beam="1">  1       21 0.11195792E+00 0.48130360E+03</pdfrwt>
<pdfrwt beam="2">  1       21 0.55551578E-01 0.48130360E+03</pdfrwt>
<totfact> 0.16203984E+03</totfact>
</mgrwt>
</event>
<event>
 4    1  0.4918322E-002  0.5030490E+03  0.7818608E-02  0.1012986E+00
         21   -1    0    0  503  502  0.00000000000E+00  0.00000000000E+00  0.10896692573E+04  0.10896692573E+04  0.00000000000E+00 0.  1.
         21   -1    0    0  501  503 -0.00000000000E+00 -0.00000000000E+00 -0.39547615787E+03  0.39547615787E+03  0.00000000000E+00 0.  1.
    9000007    1    1    2  501    0  0.95749690086E+02 -0.28963815427E+03 -0.12998758820E+03  0.51957197446E+03  0.40000000000E+03 0.  1.
   -9000007    1    1    2    0  502 -0.95749690086E+02  0.28963815427E+03  0.82418068766E+03  0.96557344075E+03  0.40000000000E+03 0.  1.
<mgrwt>
<rscale>  2 0.50304897E+03</rscale>
<asrwt>0</asrwt>
<pdfrwt beam="1">  1       21 0.16764142E+00 0.50304897E+03</pdfrwt>
<pdfrwt beam="2">  1       21 0.60842486E-01 0.50304897E+03</pdfrwt>
<totfact> 0.45111438E+02</totfact>
</mgrwt>
</event>
<event>
 4    1  0.4918322E-002  0.6527060E+03  0.7818608E-02  0.9801715E-01
         21   -1    0    0  503  502  0.00000000000E+00  0.00000000000E+00  0.58402018775E+03  0.58402018775E+03  0.00000000000E+00 0. -1.
         21   -1    0    0  501  503 -0.00000000000E+00 -0.00000000000E+00 -0.28233445741E+04  0.28233445741E+04  0.00000000000E+00 0. -1.
    9000007    1    1    2  501    0 -0.50044234522E+03 -0.12483016240E+03 -0.25868375993E+04  0.26679118942E+04  0.40000000000E+03 0. -1.
   -9000007    1    1    2    0  502  0.50044234522E+03  0.12483016240E+03  0.34751321290E+03  0.73945286765E+03  0.40000000000E+03 0. -1.
<mgrwt>
<rscale>  2 0.65270599E+03</rscale>
<asrwt>0</asrwt>
<pdfrwt beam="1">  1       21 0.89849259E-01 0.65270599E+03</pdfrwt>
<pdfrwt beam="2">  1       21 0.43436071E+00 0.65270599E+03</pdfrwt>
<totfact> 0.33894690E+00</totfact>
</mgrwt>
</event>
<event>
 4    1  0.4918322E-002  0.4487101E+03  0.7818608E-02  0.1028107E+00
         21   -1    0    0  503  502  0.00000000000E+00  0.00000000000E+00  0.91384589085E+03  0.91384589085E+03  0.00000000000E+00 0. -1.
         21   -1    0    0  501  503 -0.00000000000E+00 -0.00000000000E+00 -0.22317638994E+03  0.22317638994E+03  0.00000000000E+00 0. -1.
    9000007    1    1    2  501    0  0.17420697174E+03 -0.10484582164E+03  0.28104504203E+03  0.52945918725E+03  0.40000000000E+03 0. -1.
   -9000007    1    1    2    0  502 -0.17420697174E+03  0.10484582164E+03  0.40962445888E+03  0.60756309353E+03  0.40000000000E+03 0. -1.
<mgrwt>
<rscale>  2 0.44871006E+03</rscale>
<asrwt>0</asrwt>
<pdfrwt beam="1">  1       21 0.14059167E+00 0.44871006E+03</pdfrwt>
<pdfrwt beam="2">  1       21 0.34334830E-01 0.44871006E+03</pdfrwt>
<totfact> 0.24935064E+03</totfact>
</mgrwt>
</event>
<event>
 4    1  0.4918322E-002  0.4026881E+03  0.7818608E-02  0.1042853E+00
         21   -1    0    0  501  502  0.00000000000E+00  0.00000000000E+00  0.10504340593E+03  0.10504340593E+03  0.00000000000E+00 0. -1.
         21   -1    0    0  502  503 -0.00000000000E+00 -0.00000000000E+00 -0.17392072611E+04  0.17392072611E+04  0.00000000000E+00 0. -1.
    9000007    1    1    2  501    0 -0.46448037918E+02  0.55064053446E+00 -0.50792977191E+03  0.64819007754E+03  0.40000000000E+03 0.  1.
   -9000007    1    1    2    0  503  0.46448037918E+02 -0.55064053446E+00 -0.11262340833E+04  0.11960605895E+04  0.40000000000E+03 0.  1.
<mgrwt>
<rscale>  2 0.40268812E+03</rscale>
<asrwt>0</asrwt>
<pdfrwt beam="1">  1       21 0.16160524E-01 0.40268812E+03</pdfrwt>
<pdfrwt beam="2">  1       21 0.26757034E+00 0.40268812E+03</pdfrwt>
<totfact> 0.15154978E+03</totfact>
</mgrwt>
</event>
<event>
 4    1  0.4918322E-002  0.4145203E+03  0.7818608E-02  0.1038865E+00
         21   -1    0    0  501  502  0.00000000000E+00  0.00000000000E+00  0.11198157794E+04  0.11198157794E+04  0.00000000000E+00 0. -1.
         21   -1    0    0  502  503 -0.00000000000E+00 -0.00000000000E+00 -0.39542351482E+03  0.39542351482E+03  0.00000000000E+00 0. -1.
    9000007    1    1    2  501    0  0.64548965319E+02  0.87524139538E+02  0.95486328867E+03  0.10409567445E+04  0.40000000000E+03 0. -1.
   -9000007    1    1    2    0  503 -0.64548965319E+02 -0.87524139538E+02 -0.23047102414E+03  0.47428254964E+03  0.40000000000E+03 0. -1.
<mgrwt>
<rscale>  2 0.41452026E+03</rscale>
<asrwt>0</asrwt>
<pdfrwt beam="1">  1       21 0.17227935E+00 0.41452026E+03</pdfrwt>
<pdfrwt beam="2">  1       21 0.60834387E-01 0.41452026E+03</pdfrwt>
<totfact> 0.43530081E+02</totfact>
</mgrwt>
</event>
<event>
 4    1  0.4918322E-002  0.5550779E+03  0.7818608E-02  0.1000325E+00
         21   -1    0    0  503  502  0.00000000000E+00  0.00000000000E+00  0.47900384350E+03  0.47900384350E+03  0.00000000000E+00 0.  1.
         21   -1    0    0  501  503 -0.00000000000E+00 -0.00000000000E+00 -0.64531646575E+03  0.64531646575E+03  0.00000000000E+00 0.  1.
    9000007    1    1    2  501    0  0.28099045163E+03  0.26297491720E+03 -0.51219749931E+02  0.55743600867E+03  0.40000000000E+03 0.  1.
   -9000007    1    1    2    0  502 -0.28099045163E+03 -0.26297491720E+03 -0.11509287231E+03  0.56688430058E+03  0.40000000000E+03 0.  1.
<mgrwt>
<rscale>  2 0.55507787E+03</rscale>
<asrwt>0</asrwt>
<pdfrwt beam="1">  1       21 0.73692899E-01 0.55507787E+03</pdfrwt>
<pdfrwt beam="2">  1       21 0.99279456E-01 0.55507787E+03</pdfrwt>
<totfact> 0.11342555E+03</totfact>
</mgrwt>
</event>
<event>
 4    1  0.4918322E-002  0.5599036E+03  0.7818608E-02  0.9992273E-01
         21   -1    0    0  501  502  0.00000000000E+00  0.00000000000E+00  0.48298258731E+03  0.48298258731E+03  0.00000000000E+00 0. -1.
         21   -1    0    0  502  503 -0.00000000000E+00 -0.00000000000E+00 -0.79012901795E+03  0.79012901795E+03  0.00000000000E+00 0.  1.
    9000007    1    1    2  501    0 -0.97496998205E+02 -0.37945532917E+03 -0.42252840193E+03  0.70144298552E+03  0.40000000000E+03 0.  1.
   -9000007    1    1    2    0  503  0.97496998205E+02  0.37945532917E+03  0.11538197128E+03  0.57166861974E+03  0.40000000000E+03 0.  1.
<mgrwt>
<rscale>  2 0.55990357E+03</rscale>
<asrwt>0</asrwt>
<pdfrwt beam="1">  1       21 0.74305014E-01 0.55990357E+03</pdfrwt>
<pdfrwt beam="2">  1       21 0.12155831E+00 0.55990357E+03</pdfrwt>
<totfact> 0.67007379E+02</totfact>
</mgrwt>
</event>
<event>
 4    1  0.4918322E-002  0.4557156E+03  0.7818608E-02  0.1026031E+00
         21   -1    0    0  503  502  0.00000000000E+00  0.00000000000E+00  0.50886744748E+03  0.50886744748E+03  0.00000000000E+00 0.  1.
         21   -1    0    0  501  503 -0.00000000000E+00 -0.00000000000E+00 -0.43236225137E+03  0.43236225137E+03  0.00000000000E+00 0.  1.
    9000007    1    1    2  501    0  0.18134246703E+03  0.12162086818E+03 -0.73194287828E+02  0.46155620426E+03  0.40000000000E+03 0.  1.
   -9000007    1    1    2    0  502 -0.18134246703E+03 -0.12162086818E+03  0.14969948393E+03  0.47967349459E+03  0.40000000000E+03 0.  1.
<mgrwt>
<rscale>  2 0.45571562E+03</rscale>
<asrwt>0</asrwt>
<pdfrwt beam="1">  1       21 0.78287299E-01 0.45571562E+03</pdfrwt>
<pdfrwt beam="2">  1       21 0.66517270E-01 0.45571562E+03</pdfrwt>
<totfact> 0.25933086E+03</totfact>
</mgrwt>
</event>
<event>
 4    1  0.4918322E-002  0.5303120E+03  0.7818608E-02  0.1006156E+00
         21   -1    0    0  503  502  0.00000000000E+00  0.00000000000E+00  0.12334906261E+04  0.12334906261E+04  0.00000000000E+00 0. -1.
         21   -1    0    0  501  503 -0.00000000000E+00 -0.00000000000E+00 -0.27524948151E+03  0.27524948151E+03  0.00000000000E+00 0. -1.
    9000007    1    1    2  501    0 -0.33101836348E+03 -0.10797062717E+03  0.16655688524E+03  0.55585250680E+03  0.40000000000E+03 0. -1.
   -9000007    1    1    2    0  502  0.33101836348E+03  0.10797062717E+03  0.79168425938E+03  0.95288760084E+03  0.40000000000E+03 0. -1.
<mgrwt>
<rscale>  2 0.53031200E+03</rscale>
<asrwt>0</asrwt>
<pdfrwt beam="1">  1       21 0.18976779E+00 0.53031200E+03</pdfrwt>
<pdfrwt beam="2">  1       21 0.42346075E-01 0.53031200E+03</pdfrwt>
<totfact> 0.67429484E+02</totfact>
</mgrwt>
</event>
<event>
 4    1  0.4918322E-002  0.4355256E+03  0.7818608E-02  0.1032129E+00
         21   -1    0    0  503  502  0.00000000000E+00  0.00000000000E+00  0.49687970009E+03  0.49687970009E+03  0.00000000000E+00 0. -1.
         21   -1    0    0  501  503 -0.00000000000E+00 -0.00000000000E+00 -0.49329364594E+03  0.49329364594E+03  0.00000000000E+00 0. -1.
    9000007    1    1    2  501    0  0.11431625413E+03 -0.12889671853E+03 -0.23363372550E+03  0.49423404142E+03  0.40000000000E+03 0. -1.
   -9000007    1    1    2    0  502 -0.11431625413E+03  0.12889671853E+03  0.23721977965E+03  0.49593930462E+03  0.40000000000E+03 0. -1.
<mgrwt>
<rscale>  2 0.43552562E+03</rscale>
<asrwt>0</asrwt>
<pdfrwt beam="1">  1       21 0.76443031E-01 0.43552562E+03</pdfrwt>
<pdfrwt beam="2">  1       21 0.75891330E-01 0.43552562E+03</pdfrwt>
<totfact> 0.20491969E+03</totfact>
</mgrwt>
</event>
<event>
 4    1  0.4918322E-002  0.4662278E+03  0.7818608E-02  0.1022990E+00
         21   -1    0    0  503  502  0.00000000000E+00  0.00000000000E+00  0.10753471603E+04  0.10753471603E+04  0.00000000000E+00 0.  1.
         21   -1    0    0  501  503 -0.00000000000E+00 -0.00000000000E+00 -0.29181595509E+03  0.29181595509E+03  0.00000000000E+00 0.  1.
    9000007    1    1    2  501    0  0.64560266853E+02  0.23065204279E+03  0.12818173639E+02  0.46640400778E+03  0.40000000000E+03 0.  1.
   -9000007    1    1    2    0  502 -0.64560266853E+02 -0.23065204279E+03  0.77071303154E+03  0.90075910758E+03  0.40000000000E+03 0.  1.
<mgrwt>
<rscale>  2 0.46622783E+03</rscale>
<asrwt>0</asrwt>
<pdfrwt beam="1">  1       21 0.16543802E+00 0.46622783E+03</pdfrwt>
<pdfrwt beam="2">  1       21 0.44894763E-01 0.46622783E+03</pdfrwt>
<totfact> 0.91357768E+02</totfact>
</mgrwt>
</event>
<event>
 4    1  0.4918322E-002  0.7360168E+03  0.7818608E-02  0.9657547E-01
         21   -1    0    0  501  502  0.00000000000E+00  0.00000000000E+00  0.57607138271E+03  0.57607138271E+03  0.00000000000E+00 0. -1.
         21   -1    0    0  502  503 -0.00000000000E+00 -0.00000000000E+00 -0.94038146657E+03  0.94038146657E+03  0.00000000000E+00 0. -1.
    9000007    1    1    2  501    0 -0.51755832406E+03 -0.33742271732E+03 -0.17960180810E+03  0.75761304004E+03  0.40000000000E+03 0. -1.
   -9000007    1    1    2    0  503  0.51755832406E+03  0.33742271732E+03 -0.18470827576E+03  0.75883980925E+03  0.40000000000E+03 0. -1.
<mgrwt>
<rscale>  2 0.73601679E+03</rscale>
<asrwt>0</asrwt>
<pdfrwt beam="1">  1       21 0.88626367E-01 0.73601679E+03</pdfrwt>
<pdfrwt beam="2">  1       21 0.14467407E+00 0.73601679E+03</pdfrwt>
<totfact> 0.26501164E+02</totfact>
</mgrwt>
</event>
<event>
 4    1  0.4918322E-002  0.5051116E+03  0.7818608E-02  0.1012453E+00
         21   -1    0    0  503  502  0.00000000000E+00  0.00000000000E+00  0.44948965058E+03  0.44948965058E+03  0.00000000000E+00 0.  1.
         21   -1    0    0  501  503 -0.00000000000E+00 -0.00000000000E+00 -0.58891764058E+03  0.58891764058E+03  0.00000000000E+00 0.  1.
    9000007    1    1    2  501    0  0.30763200054E+03 -0.22366794082E+02  0.29030378179E+02  0.50594513941E+03  0.40000000000E+03 0.  1.
   -9000007    1    1    2    0  502 -0.30763200054E+03  0.22366794082E+02 -0.16845836819E+03  0.53246215175E+03  0.40000000000E+03 0.  1.
<mgrwt>
<rscale>  2 0.50511159E+03</rscale>
<asrwt>0</asrwt>
<pdfrwt beam="1">  1       21 0.69152254E-01 0.50511159E+03</pdfrwt>
<pdfrwt beam="2">  1       21 0.90602714E-01 0.50511159E+03</pdfrwt>
<totfact> 0.16599877E+03</totfact>
</mgrwt>
</event>
<event>
 4    1  0.4918322E-002  0.4236855E+03  0.7818608E-02  0.1035873E+00
         21   -1    0    0  503  502  0.00000000000E+00  0.00000000000E+00  0.12686303774E+04  0.12686303774E+04  0.00000000000E+00 0. -1.
         21   -1    0    0  501  503 -0.00000000000E+00 -0.00000000000E+00 -0.40918726231E+03  0.40918726231E+03  0.00000000000E+00 0. -1.
    9000007    1    1    2  501    0  0.60473697162E+02 -0.12590613334E+03 -0.24880788318E+03  0.49133978588E+03  0.40000000000E+03 0. -1.
   -9000007    1    1    2    0  502 -0.60473697162E+02  0.12590613334E+03  0.11082509983E+04  0.11864778538E+04  0.40000000000E+03 0. -1.
<mgrwt>
<rscale>  2 0.42368552E+03</rscale>
<asrwt>0</asrwt>
<pdfrwt beam="1">  1       21 0.19517390E+00 0.42368552E+03</pdfrwt>
<pdfrwt beam="2">  1       21 0.62951887E-01 0.42368552E+03</pdfrwt>
<totfact> 0.27843623E+02</totfact>
</mgrwt>
</event>
<event>
 4    1  0.4918322E-002  0.6205896E+03  0.7818608E-02  0.9863587E-01
         21   -1    0    0  501  502  0.00000000000E+00  0.00000000000E+00  0.15305030367E+04  0.15305030367E+04  0.00000000000E+00 0. -1.
         21   -1    0    0  502  503 -0.00000000000E+00 -0.00000000000E+00 -0.11726829731E+04  0.11726829731E+04  0.00000000000E+00 0.  1.
    9000007    1    1    2  501    0  0.34829400531E+03 -0.32221532803E+03  0.13767429473E+04  0.15101498517E+04  0.40000000000E+03 0. -1.
   -9000007    1    1    2    0  503 -0.34829400531E+03  0.32221532803E+03 -0.10189228836E+04  0.11930361581E+04  0.40000000000E+03 0.  1.
<mgrwt>
<rscale>  2 0.62058958E+03</rscale>
<asrwt>0</asrwt>
<pdfrwt beam="1">  1       21 0.23546201E+00 0.62058958E+03</pdfrwt>
<pdfrwt beam="2">  1       21 0.18041276E+00 0.62058958E+03</pdfrwt>
<totfact> 0.97948024E+00</totfact>
</mgrwt>
</event>
<event>
 4    1  0.4918322E-002  0.4761607E+03  0.7818608E-02  0.1020196E+00
         21   -1    0    0  503  502  0.00000000000E+00  0.00000000000E+00  0.78712593472E+03  0.78712593472E+03  0.00000000000E+00 0. -1.
         21   -1    0    0  501  503 -0.00000000000E+00 -0.00000000000E+00 -0.36193015417E+03  0.36193015417E+03  0.00000000000E+00 0.  1.
    9000007    1    1    2  501    0 -0.14646769455E+03 -0.21278201931E+03 -0.46982958808E+02  0.47847295818E+03  0.40000000000E+03 0.  1.
   -9000007    1    1    2    0  502  0.14646769455E+03  0.21278201931E+03  0.47217873936E+03  0.67058313071E+03  0.40000000000E+03 0. -1.
<mgrwt>
<rscale>  2 0.47616066E+03</rscale>
<asrwt>0</asrwt>
<pdfrwt beam="1">  1       21 0.12109630E+00 0.47616066E+03</pdfrwt>
<pdfrwt beam="2">  1       21 0.55681562E-01 0.47616066E+03</pdfrwt>
<totfact> 0.13256456E+03</totfact>
</mgrwt>
</event>
<event>
 4    1  0.4918322E-002  0.5682222E+03  0.7818608E-02  0.9973620E-01
         21   -1    0    0  503  502  0.00000000000E+00  0.00000000000E+00  0.83054318389E+03  0.83054318389E+03  0.00000000000E+00 0.  1.
         21   -1    0    0  501  503 -0.00000000000E+00 -0.00000000000E+00 -0.38895121677E+03  0.38895121677E+03  0.00000000000E+00 0. -1.
    9000007    1    1    2  501    0  0.28929404227E+03 -0.28139896537E+03  0.20704223792E+03  0.60476682192E+03  0.40000000000E+03 0. -1.
   -9000007    1    1    2    0  502 -0.28929404227E+03  0.28139896537E+03  0.23454972920E+03  0.61472757875E+03  0.40000000000E+03 0.  1.
<mgrwt>
<rscale>  2 0.56822216E+03</rscale>
<asrwt>0</asrwt>
<pdfrwt beam="1">  1       21 0.12777587E+00 0.56822216E+03</pdfrwt>
<pdfrwt beam="2">  1       21 0.59838649E-01 0.56822216E+03</pdfrwt>
<totfact> 0.95475918E+02</totfact>
</mgrwt>
</event>
<event>
 4    1  0.4918322E-002  0.4102868E+03  0.7818608E-02  0.1040275E+00
         21   -1    0    0  503  502  0.00000000000E+00  0.00000000000E+00  0.29605286514E+04  0.29605286514E+04  0.00000000000E+00 0. -1.
         21   -1    0    0  501  503 -0.00000000000E+00 -0.00000000000E+00 -0.10571812214E+03  0.10571812214E+03  0.00000000000E+00 0. -1.
    9000007    1    1    2  501    0 -0.27107550272E+02  0.87180431315E+02  0.38515649104E+03  0.56274396441E+03  0.40000000000E+03 0. -1.
   -9000007    1    1    2    0  502  0.27107550272E+02 -0.87180431315E+02  0.24696540382E+04  0.25035028091E+04  0.40000000000E+03 0. -1.
<mgrwt>
<rscale>  2 0.41028679E+03</rscale>
<asrwt>0</asrwt>
<pdfrwt beam="1">  1       21 0.45546588E+00 0.41028679E+03</pdfrwt>
<pdfrwt beam="2">  1       21 0.16264329E-01 0.41028679E+03</pdfrwt>
<totfact> 0.99820066E+01</totfact>
</mgrwt>
</event>
<event>
 4    1  0.4918322E-002  0.6773409E+03  0.7818608E-02  0.9756787E-01
         21   -1    0    0  501  502  0.00000000000E+00  0.00000000000E+00  0.54257233371E+03  0.54257233371E+03  0.00000000000E+00 0.  1.
         21   -1    0    0  502  503 -0.00000000000E+00 -0.00000000000E+00 -0.17049576410E+04  0.17049576410E+04  0.00000000000E+00 0.  1.
    9000007    1    1    2  501    0  0.15525618459E+03 -0.52410513494E+03  0.21663599207E+03  0.71114121550E+03  0.40000000000E+03 0.  1.
   -9000007    1    1    2    0  503 -0.15525618459E+03  0.52410513494E+03 -0.13790212994E+04  0.15363887592E+04  0.40000000000E+03 0.  1.
<mgrwt>
<rscale>  2 0.67734089E+03</rscale>
<asrwt>0</asrwt>
<pdfrwt beam="1">  1       21 0.83472669E-01 0.67734089E+03</pdfrwt>
<pdfrwt beam="2">  1       21 0.26230117E+00 0.67734089E+03</pdfrwt>
<totfact> 0.48327748E+01</totfact>
</mgrwt>
</event>
<event>
 4    1  0.4918322E-002  0.4955416E+03  0.7818608E-02  0.1014949E+00
         21   -1    0    0  503  502  0.00000000000E+00  0.00000000000E+00  0.12251971669E+04  0.12251971669E+04  0.00000000000E+00 0.  1.
         21   -1    0    0  501  503 -0.00000000000E+00 -0.00000000000E+00 -0.21884694678E+03  0.21884694678E+03  0.00000000000E+00 0.  1.
    9000007    1    1    2  501    0 -0.74055391972E+02  0.28297925973E+03  0.29369862530E+03  0.57603849266E+03  0.40000000000E+03 0.  1.
   -9000007    1    1    2    0  502  0.74055391972E+02 -0.28297925973E+03  0.71265159483E+03  0.86800562103E+03  0.40000000000E+03 0.  1.
<mgrwt>
<rscale>  2 0.49554159E+03</rscale>
<asrwt>0</asrwt>
<pdfrwt beam="1">  1       21 0.18849187E+00 0.49554159E+03</pdfrwt>
<pdfrwt beam="2">  1       21 0.33668762E-01 0.49554159E+03</pdfrwt>
<totfact> 0.11161489E+03</totfact>
</mgrwt>
</event>
<event>
 4    1  0.4918322E-002  0.4857321E+03  0.7818608E-02  0.1017572E+00
         21   -1    0    0  501  502  0.00000000000E+00  0.00000000000E+00  0.10450138938E+04  0.10450138938E+04  0.00000000000E+00 0.  1.
         21   -1    0    0  502  503 -0.00000000000E+00 -0.00000000000E+00 -0.46798625946E+03  0.46798625946E+03  0.00000000000E+00 0.  1.
    9000007    1    1    2  501    0 -0.24624001030E+03  0.12369925254E+03  0.83275527027E+03  0.96406275103E+03  0.40000000000E+03 0.  1.
   -9000007    1    1    2    0  503  0.24624001030E+03 -0.12369925254E+03 -0.25572763596E+03  0.54893740221E+03  0.40000000000E+03 0.  1.
<mgrwt>
<rscale>  2 0.48573207E+03</rscale>
<asrwt>0</asrwt>
<pdfrwt beam="1">  1       21 0.16077137E+00 0.48573207E+03</pdfrwt>
<pdfrwt beam="2">  1       21 0.71997886E-01 0.48573207E+03</pdfrwt>
<totfact> 0.35112371E+02</totfact>
</mgrwt>
</event>
<event>
 4    1  0.4918322E-002  0.4158528E+03  0.7818608E-02  0.1038425E+00
         21   -1    0    0  503  502  0.00000000000E+00  0.00000000000E+00  0.10812009813E+04  0.10812009813E+04  0.00000000000E+00 0. -1.
         21   -1    0    0  501  503 -0.00000000000E+00 -0.00000000000E+00 -0.18000414638E+03  0.18000414638E+03  0.00000000000E+00 0. -1.
    9000007    1    1    2  501    0 -0.10039153754E+03  0.53432720808E+02  0.66110342718E+03  0.78101937101E+03  0.40000000000E+03 0. -1.
   -9000007    1    1    2    0  502  0.10039153754E+03 -0.53432720808E+02  0.24009340773E+03  0.48018575666E+03  0.40000000000E+03 0. -1.
<mgrwt>
<rscale>  2 0.41585276E+03</rscale>
<asrwt>0</asrwt>
<pdfrwt beam="1">  1       21 0.16633861E+00 0.41585276E+03</pdfrwt>
<pdfrwt beam="2">  1       21 0.27692946E-01 0.41585276E+03</pdfrwt>
<totfact> 0.24475923E+03</totfact>
</mgrwt>
</event>
<event>
 4    1  0.4918322E-002  0.4240924E+03  0.7818608E-02  0.1035743E+00
         21   -1    0    0  503  502  0.00000000000E+00  0.00000000000E+00  0.69498162510E+03  0.69498162510E+03  0.00000000000E+00 0.  1.
         21   -1    0    0  501  503 -0.00000000000E+00 -0.00000000000E+00 -0.34545002021E+03  0.34545002021E+03  0.00000000000E+00 0. -1.
    9000007    1    1    2  501    0  0.18902095209E+02 -0.13963202504E+03 -0.85789544510E+02  0.43268260604E+03  0.40000000000E+03 0. -1.
   -9000007    1    1    2    0  502 -0.18902095209E+02  0.13963202504E+03  0.43532114939E+03  0.60774903927E+03  0.40000000000E+03 0.  1.
<mgrwt>
<rscale>  2 0.42409243E+03</rscale>
<asrwt>0</asrwt>
<pdfrwt beam="1">  1       21 0.10692025E+00 0.42409243E+03</pdfrwt>
<pdfrwt beam="2">  1       21 0.53146157E-01 0.42409243E+03</pdfrwt>
<totfact> 0.20424255E+03</totfact>
</mgrwt>
</event>
<event>
 4    1  0.4918322E-002  0.4201676E+03  0.7818608E-02  0.1037012E+00
         21   -1    0    0  501  502  0.00000000000E+00  0.00000000000E+00  0.28174474279E+03  0.28174474279E+03  0.00000000000E+00 0.  1.
         21   -1    0    0  502  503 -0.00000000000E+00 -0.00000000000E+00 -0.71219812037E+03  0.71219812037E+03  0.00000000000E+00 0.  1.
    9000007    1    1    2  501    0  0.12250380704E+03 -0.39161457835E+02 -0.42933857379E+02  0.42235544110E+03  0.40000000000E+03 0.  1.
   -9000007    1    1    2    0  503 -0.12250380704E+03  0.39161457835E+02 -0.38751952020E+03  0.57158742206E+03  0.40000000000E+03 0.  1.
<mgrwt>
<rscale>  2 0.42016759E+03</rscale>
<asrwt>0</asrwt>
<pdfrwt beam="1">  1       21 0.43345345E-01 0.42016759E+03</pdfrwt>
<pdfrwt beam="2">  1       21 0.10956894E+00 0.42016759E+03</pdfrwt>
<totfact> 0.29615467E+03</totfact>
</mgrwt>
</event>
<event>
 4    1  0.4918322E-002  0.5708048E+03  0.7818608E-02  0.9967899E-01
         21   -1    0    0  501  502  0.00000000000E+00  0.00000000000E+00  0.99157713257E+03  0.99157713257E+03  0.00000000000E+00 0.  1.
         21   -1    0    0  502  503 -0.00000000000E+00 -0.00000000000E+00 -0.34545649018E+03  0.34545649018E+03  0.00000000000E+00 0.  1.
    9000007    1    1    2  501    0  0.36003813912E+03 -0.19023832850E+03  0.17532540644E+03  0.59712400839E+03  0.40000000000E+03 0.  1.
   -9000007    1    1    2    0  503 -0.36003813912E+03  0.19023832850E+03  0.47079523594E+03  0.73990961437E+03  0.40000000000E+03 0.  1.
<mgrwt>
<rscale>  2 0.57080477E+03</rscale>
<asrwt>0</asrwt>
<pdfrwt beam="1">  1       21 0.15255033E+00 0.57080477E+03</pdfrwt>
<pdfrwt beam="2">  1       21 0.53147153E-01 0.57080477E+03</pdfrwt>
<totfact> 0.76895271E+02</totfact>
</mgrwt>
</event>
<event>
 4    1  0.4918322E-002  0.6212671E+03  0.7818608E-02  0.9862240E-01
         21   -1    0    0  501  502  0.00000000000E+00  0.00000000000E+00  0.42180693105E+03  0.42180693105E+03  0.00000000000E+00 0. -1.
         21   -1    0    0  502  503 -0.00000000000E+00 -0.00000000000E+00 -0.92185614269E+03  0.92185614269E+03  0.00000000000E+00 0.  1.
    9000007    1    1    2  501    0  0.26640826854E+03  0.39369973102E+03 -0.30776762030E+03  0.69332081453E+03  0.40000000000E+03 0. -1.
   -9000007    1    1    2    0  503 -0.26640826854E+03 -0.39369973102E+03 -0.19228159135E+03  0.65034225922E+03  0.40000000000E+03 0.  1.
<mgrwt>
<rscale>  2 0.62126713E+03</rscale>
<asrwt>0</asrwt>
<pdfrwt beam="1">  1       21 0.64893373E-01 0.62126713E+03</pdfrwt>
<pdfrwt beam="2">  1       21 0.14182402E+00 0.62126713E+03</pdfrwt>
<totfact> 0.59486768E+02</totfact>
</mgrwt>
</event>
<event>
 4    1  0.4918322E-002  0.6191972E+03  0.7818608E-02  0.9866359E-01
         21   -1    0    0  501  502  0.00000000000E+00  0.00000000000E+00  0.74835934500E+03  0.74835934500E+03  0.00000000000E+00 0. -1.
         21   -1    0    0  502  503 -0.00000000000E+00 -0.00000000000E+00 -0.96269159937E+03  0.96269159937E+03  0.00000000000E+00 0.  1.
    9000007    1    1    2  501    0 -0.40540146098E+03  0.24301199413E+03  0.47798920917E+03  0.78222685836E+03  0.40000000000E+03 0.  1.
   -9000007    1    1    2    0  503  0.40540146098E+03 -0.24301199413E+03 -0.69232146355E+03  0.92882408601E+03  0.40000000000E+03 0.  1.
<mgrwt>
<rscale>  2 0.61919720E+03</rscale>
<asrwt>0</asrwt>
<pdfrwt beam="1">  1       21 0.11513221E+00 0.61919720E+03</pdfrwt>
<pdfrwt beam="2">  1       21 0.14810640E+00 0.61919720E+03</pdfrwt>
<totfact> 0.13572119E+02</totfact>
</mgrwt>
</event>
<event>
 4    1  0.4918322E-002  0.4259128E+03  0.7818608E-02  0.1035159E+00
         21   -1    0    0  503  502  0.00000000000E+00  0.00000000000E+00  0.27615794576E+03  0.27615794576E+03  0.00000000000E+00 0. -1.
         21   -1    0    0  501  503 -0.00000000000E+00 -0.00000000000E+00 -0.11302372925E+04  0.11302372925E+04  0.00000000000E+00 0. -1.
    9000007    1    1    2  501    0  0.13235459026E+03 -0.62321444053E+02 -0.88212062606E+03  0.97956035999E+03  0.40000000000E+03 0. -1.
   -9000007    1    1    2    0  502 -0.13235459026E+03  0.62321444053E+02  0.28041279321E+02  0.42683487826E+03  0.40000000000E+03 0. -1.
<mgrwt>
<rscale>  2 0.42591278E+03</rscale>
<asrwt>0</asrwt>
<pdfrwt beam="1">  1       21 0.42485838E-01 0.42591278E+03</pdfrwt>
<pdfrwt beam="2">  1       21 0.17388266E+00 0.42591278E+03</pdfrwt>
<totfact> 0.90586371E+02</totfact>
</mgrwt>
</event>
<event>
 4    1  0.4918322E-002  0.4228067E+03  0.7818608E-02  0.1036157E+00
         21   -1    0    0  503  502  0.00000000000E+00  0.00000000000E+00  0.15935304959E+03  0.15935304959E+03  0.00000000000E+00 0.  1.
         21   -1    0    0  501  503 -0.00000000000E+00 -0.00000000000E+00 -0.11414589147E+04  0.11414589147E+04  0.00000000000E+00 0.  1.
    9000007    1    1    2  501    0  0.99146047271E+02  0.94528292134E+02 -0.40574168677E+03  0.58599646167E+03  0.40000000000E+03 0.  1.
   -9000007    1    1    2    0  502 -0.99146047271E+02 -0.94528292134E+02 -0.57636417831E+03  0.71481550259E+03  0.40000000000E+03 0.  1.
<mgrwt>
<rscale>  2 0.42280674E+03</rscale>
<asrwt>0</asrwt>
<pdfrwt beam="1">  1       21 0.24515853E-01 0.42280674E+03</pdfrwt>
<pdfrwt beam="2">  1       21 0.17560907E+00 0.42280674E+03</pdfrwt>
<totfact> 0.26526528E+03</totfact>
</mgrwt>
</event>
<event>
 4    1  0.4918322E-002  0.4183256E+03  0.7818608E-02  0.1037613E+00
         21   -1    0    0  501  502  0.00000000000E+00  0.00000000000E+00  0.76154625396E+03  0.76154625396E+03  0.00000000000E+00 0.  1.
         21   -1    0    0  502  503 -0.00000000000E+00 -0.00000000000E+00 -0.41784865729E+03  0.41784865729E+03  0.00000000000E+00 0.  1.
    9000007    1    1    2  501    0  0.12059116067E+03 -0.21308523027E+02  0.56745724302E+03  0.70498510895E+03  0.40000000000E+03 0.  1.
   -9000007    1    1    2    0  503 -0.12059116067E+03  0.21308523027E+02 -0.22375964634E+03  0.47440980230E+03  0.40000000000E+03 0.  1.
<mgrwt>
<rscale>  2 0.41832557E+03</rscale>
<asrwt>0</asrwt>
<pdfrwt beam="1">  1       21 0.11716096E+00 0.41832557E+03</pdfrwt>
<pdfrwt beam="2">  1       21 0.64284409E-01 0.41832557E+03</pdfrwt>
<totfact> 0.10776470E+03</totfact>
</mgrwt>
</event>
<event>
 4    1  0.4918322E-002  0.4174242E+03  0.7818608E-02  0.1037908E+00
         21   -1    0    0  501  502  0.00000000000E+00  0.00000000000E+00  0.14758290072E+04  0.14758290072E+04  0.00000000000E+00 0.  1.
         21   -1    0    0  502  503 -0.00000000000E+00 -0.00000000000E+00 -0.12440521683E+03  0.12440521683E+03  0.00000000000E+00 0.  1.
    9000007    1    1    2  501    0  0.11851710820E+03  0.14022276566E+02  0.49507543837E+03  0.64756669066E+03  0.40000000000E+03 0. -1.
   -9000007    1    1    2    0  503 -0.11851710820E+03 -0.14022276566E+02  0.85634835201E+03  0.95266753338E+03  0.40000000000E+03 0. -1.
<mgrwt>
<rscale>  2 0.41742416E+03</rscale>
<asrwt>0</asrwt>
<pdfrwt beam="1">  1       21 0.22705060E+00 0.41742416E+03</pdfrwt>
<pdfrwt beam="2">  1       21 0.19139265E-01 0.41742416E+03</pdfrwt>
<totfact> 0.19419309E+03</totfact>
</mgrwt>
</event>
<event>
 4    1  0.4918322E-002  0.4109163E+03  0.7818608E-02  0.1040064E+00
         21   -1    0    0  503  502  0.00000000000E+00  0.00000000000E+00  0.22433355339E+03  0.22433355339E+03  0.00000000000E+00 0.  1.
         21   -1    0    0  501  503 -0.00000000000E+00 -0.00000000000E+00 -0.16605916969E+04  0.16605916969E+04  0.00000000000E+00 0.  1.
    9000007    1    1    2  501    0  0.80527486518E+02 -0.48656907361E+02 -0.14150021178E+04  0.14734595903E+04  0.40000000000E+03 0.  1.
   -9000007    1    1    2    0  502 -0.80527486518E+02  0.48656907361E+02 -0.21256025661E+02  0.41146565998E+03  0.40000000000E+03 0.  1.
<mgrwt>
<rscale>  2 0.41091626E+03</rscale>
<asrwt>0</asrwt>
<pdfrwt beam="1">  1       21 0.34512854E-01 0.41091626E+03</pdfrwt>
<pdfrwt beam="2">  1       21 0.25547565E+00 0.41091626E+03</pdfrwt>
<totfact> 0.41163105E+02</totfact>
</mgrwt>
</event>
<event>
 4    1  0.4918322E-002  0.8583827E+03  0.7818608E-02  0.9479155E-01
         21   -1    0    0  501  502  0.00000000000E+00  0.00000000000E+00  0.58685586614E+03  0.58685586614E+03  0.00000000000E+00 0.  1.
         21   -1    0    0  502  503 -0.00000000000E+00 -0.00000000000E+00 -0.13876663971E+04  0.13876663971E+04  0.00000000000E+00 0.  1.
    9000007    1    1    2  501    0 -0.71397340623E+03  0.25896498110E+03 -0.70504367407E+03  0.11108138767E+04  0.40000000000E+03 0.  1.
   -9000007    1    1    2    0  503  0.71397340623E+03 -0.25896498110E+03 -0.95766856932E+02  0.86370838662E+03  0.40000000000E+03 0.  1.
<mgrwt>
<rscale>  2 0.85838272E+03</rscale>
<asrwt>0</asrwt>
<pdfrwt beam="1">  1       21 0.90285519E-01 0.85838272E+03</pdfrwt>
<pdfrwt beam="2">  1       21 0.21348713E+00 0.85838272E+03</pdfrwt>
<totfact> 0.77167197E+01</totfact>
</mgrwt>
</event>
<event>
 4    1  0.4918322E-002  0.4238390E+03  0.7818608E-02  0.1035824E+00
         21   -1    0    0  501  502  0.00000000000E+00  0.00000000000E+00  0.49487687503E+03  0.49487687503E+03  0.00000000000E+00 0. -1.
         21   -1    0    0  502  503 -0.00000000000E+00 -0.00000000000E+00 -0.42154730079E+03  0.42154730079E+03  0.00000000000E+00 0.  1.
    9000007    1    1    2  501    0 -0.14013901065E+03  0.75010493461E+00  0.20743134519E+03  0.47187632695E+03  0.40000000000E+03 0. -1.
   -9000007    1    1    2    0  503  0.14013901065E+03 -0.75010493461E+00 -0.13410177095E+03  0.44454784887E+03  0.40000000000E+03 0.  1.
<mgrwt>
<rscale>  2 0.42383901E+03</rscale>
<asrwt>0</asrwt>
<pdfrwt beam="1">  1       21 0.76134904E-01 0.42383901E+03</pdfrwt>
<pdfrwt beam="2">  1       21 0.64853431E-01 0.42383901E+03</pdfrwt>
<totfact> 0.29590984E+03</totfact>
</mgrwt>
</event>
<event>
 4    1  0.4918322E-002  0.7228425E+03  0.7818608E-02  0.9678947E-01
         21   -1    0    0  501  502  0.00000000000E+00  0.00000000000E+00  0.43502617113E+03  0.43502617113E+03  0.00000000000E+00 0.  1.
         21   -1    0    0  502  503 -0.00000000000E+00 -0.00000000000E+00 -0.12028276719E+04  0.12028276719E+04  0.00000000000E+00 0.  1.
    9000007    1    1    2  501    0  0.50898513228E+03 -0.32161367179E+03 -0.41511677806E+03  0.83356053062E+03  0.40000000000E+03 0.  1.
   -9000007    1    1    2    0  503 -0.50898513228E+03  0.32161367179E+03 -0.35268472272E+03  0.80429331242E+03  0.40000000000E+03 0.  1.
<mgrwt>
<rscale>  2 0.72284246E+03</rscale>
<asrwt>0</asrwt>
<pdfrwt beam="1">  1       21 0.66927104E-01 0.72284246E+03</pdfrwt>
<pdfrwt beam="2">  1       21 0.18505041E+00 0.72284246E+03</pdfrwt>
<totfact> 0.25248774E+02</totfact>
</mgrwt>
</event>
<event>
 4    1  0.4918322E-002  0.4270485E+03  0.7818608E-02  0.1034796E+00
         21   -1    0    0  501  502  0.00000000000E+00  0.00000000000E+00  0.71324067404E+03  0.71324067404E+03  0.00000000000E+00 0.  1.
         21   -1    0    0  502  503 -0.00000000000E+00 -0.00000000000E+00 -0.37049639819E+03  0.37049639819E+03  0.00000000000E+00 0.  1.
    9000007    1    1    2  501    0 -0.14238650188E+03  0.45787293058E+02  0.47300592614E+03  0.63726368034E+03  0.40000000000E+03 0.  1.
   -9000007    1    1    2    0  503  0.14238650188E+03 -0.45787293058E+02 -0.13026165029E+03  0.44647339188E+03  0.40000000000E+03 0.  1.
<mgrwt>
<rscale>  2 0.42704847E+03</rscale>
<asrwt>0</asrwt>
<pdfrwt beam="1">  1       21 0.10972933E+00 0.42704847E+03</pdfrwt>
<pdfrwt beam="2">  1       21 0.56999446E-01 0.42704847E+03</pdfrwt>
<totfact> 0.16453013E+03</totfact>
</mgrwt>
</event>
<event>
 4    1  0.4918322E-002  0.4227883E+03  0.7818608E-02  0.1036163E+00
         21   -1    0    0  501  502  0.00000000000E+00  0.00000000000E+00  0.45971176315E+03  0.45971176315E+03  0.00000000000E+00 0. -1.
         21   -1    0    0  502  503 -0.00000000000E+00 -0.00000000000E+00 -0.55802882107E+03  0.55802882107E+03  0.00000000000E+00 0. -1.
    9000007    1    1    2  501    0  0.29451234023E+02 -0.13372578696E+03  0.23104705701E+03  0.48180151913E+03  0.40000000000E+03 0. -1.
   -9000007    1    1    2    0  503 -0.29451234023E+02  0.13372578696E+03 -0.32936411493E+03  0.53593906509E+03  0.40000000000E+03 0. -1.
<mgrwt>
<rscale>  2 0.42278832E+03</rscale>
<asrwt>0</asrwt>
<pdfrwt beam="1">  1       21 0.70724887E-01 0.42278832E+03</pdfrwt>
<pdfrwt beam="2">  1       21 0.85850588E-01 0.42278832E+03</pdfrwt>
<totfact> 0.18475431E+03</totfact>
</mgrwt>
</event>
<event>
 4    1  0.4918322E-002  0.4042518E+03  0.7818608E-02  0.1042317E+00
         21   -1    0    0  501  502  0.00000000000E+00  0.00000000000E+00  0.86124195980E+03  0.86124195980E+03  0.00000000000E+00 0. -1.
         21   -1    0    0  502  503 -0.00000000000E+00 -0.00000000000E+00 -0.24789216513E+03  0.24789216513E+03  0.00000000000E+00 0. -1.
    9000007    1    1    2  501    0  0.32267010644E+02 -0.48768631613E+02  0.57525456934E+03  0.70309128778E+03  0.40000000000E+03 0. -1.
   -9000007    1    1    2    0  503 -0.32267010644E+02  0.48768631613E+02  0.38095225333E+02  0.40604283715E+03  0.40000000000E+03 0. -1.
<mgrwt>
<rscale>  2 0.40425183E+03</rscale>
<asrwt>0</asrwt>
<pdfrwt beam="1">  1       21 0.13249876E+00 0.40425183E+03</pdfrwt>
<pdfrwt beam="2">  1       21 0.38137257E-01 0.40425183E+03</pdfrwt>
<totfact> 0.23970738E+03</totfact>
</mgrwt>
</event>
<event>
 4    1  0.4918322E-002  0.6856490E+03  0.7818608E-02  0.9742094E-01
         21   -1    0    0  503  502  0.00000000000E+00  0.00000000000E+00  0.32256957620E+03  0.32256957620E+03  0.00000000000E+00 0.  1.
         21   -1    0    0  501  503 -0.00000000000E+00 -0.00000000000E+00 -0.15260905827E+04  0.15260905827E+04  0.00000000000E+00 0. -1.
    9000007    1    1    2  501    0 -0.35181917857E+03 -0.43166870439E+03 -0.79785654432E+03  0.10519931892E+04  0.40000000000E+03 0. -1.
   -9000007    1    1    2    0  502  0.35181917857E+03  0.43166870439E+03 -0.40566446216E+03  0.79666696971E+03  0.40000000000E+03 0.  1.
<mgrwt>
<rscale>  2 0.68564904E+03</rscale>
<asrwt>0</asrwt>
<pdfrwt beam="1">  1       21 0.49626089E-01 0.68564904E+03</pdfrwt>
<pdfrwt beam="2">  1       21 0.23478316E+00 0.68564904E+03</pdfrwt>
<totfact> 0.22991548E+02</totfact>
</mgrwt>
</event>
<event>
 4    1  0.4918322E-002  0.5639833E+03  0.7818608E-02  0.9983082E-01
         21   -1    0    0  503  502  0.00000000000E+00  0.00000000000E+00  0.92868614217E+03  0.92868614217E+03  0.00000000000E+00 0.  1.
         21   -1    0    0  501  503 -0.00000000000E+00 -0.00000000000E+00 -0.35674855094E+03  0.35674855094E+03  0.00000000000E+00 0. -1.
    9000007    1    1    2  501    0  0.25309692973E+03  0.30662529950E+03  0.15753202891E+03  0.58557106338E+03  0.40000000000E+03 0.  1.
   -9000007    1    1    2    0  502 -0.25309692973E+03 -0.30662529950E+03  0.41440556233E+03  0.69986362973E+03  0.40000000000E+03 0. -1.
<mgrwt>
<rscale>  2 0.56398327E+03</rscale>
<asrwt>0</asrwt>
<pdfrwt beam="1">  1       21 0.14287479E+00 0.56398327E+03</pdfrwt>
<pdfrwt beam="2">  1       21 0.54884393E-01 0.56398327E+03</pdfrwt>
<totfact> 0.85941025E+02</totfact>
</mgrwt>
</event>
<event>
 4    1  0.4918322E-002  0.4416425E+03  0.7818608E-02  0.1030244E+00
         21   -1    0    0  501  502  0.00000000000E+00  0.00000000000E+00  0.49158154212E+03  0.49158154212E+03  0.00000000000E+00 0.  1.
         21   -1    0    0  502  503 -0.00000000000E+00 -0.00000000000E+00 -0.58825259974E+03  0.58825259974E+03  0.00000000000E+00 0.  1.
    9000007    1    1    2  501    0  0.75569820961E+02 -0.17128139922E+03  0.25970095676E+03  0.51234041662E+03  0.40000000000E+03 0.  1.
   -9000007    1    1    2    0  503 -0.75569820961E+02  0.17128139922E+03 -0.35637201438E+03  0.56749372524E+03  0.40000000000E+03 0.  1.
<mgrwt>
<rscale>  2 0.44164252E+03</rscale>
<asrwt>0</asrwt>
<pdfrwt beam="1">  1       21 0.75627930E-01 0.44164252E+03</pdfrwt>
<pdfrwt beam="2">  1       21 0.90500399E-01 0.44164252E+03</pdfrwt>
<totfact> 0.13909604E+03</totfact>
</mgrwt>
</event>
<event>
 4    1  0.4918322E-002  0.4499685E+03  0.7818608E-02  0.1027731E+00
         21   -1    0    0  503  502  0.00000000000E+00  0.00000000000E+00  0.24530776453E+04  0.24530776453E+04  0.00000000000E+00 0. -1.
         21   -1    0    0  501  503 -0.00000000000E+00 -0.00000000000E+00 -0.97771194425E+02  0.97771194425E+02  0.00000000000E+00 0. -1.
    9000007    1    1    2  501    0 -0.18506240783E+03  0.90683641110E+02  0.16810931984E+04  0.17402718062E+04  0.40000000000E+03 0. -1.
   -9000007    1    1    2    0  502  0.18506240783E+03 -0.90683641110E+02  0.67421325248E+03  0.81057703359E+03  0.40000000000E+03 0. -1.
<mgrwt>
<rscale>  2 0.44996846E+03</rscale>
<asrwt>0</asrwt>
<pdfrwt beam="1">  1       21 0.37739652E+00 0.44996846E+03</pdfrwt>
<pdfrwt beam="2">  1       21 0.15041724E-01 0.44996846E+03</pdfrwt>
<totfact> 0.36273857E+02</totfact>
</mgrwt>
</event>
<event>
 4    1  0.4918322E-002  0.5139759E+03  0.7818608E-02  0.1010194E+00
         21   -1    0    0  501  502  0.00000000000E+00  0.00000000000E+00  0.43446498396E+03  0.43446498396E+03  0.00000000000E+00 0. -1.
         21   -1    0    0  502  503 -0.00000000000E+00 -0.00000000000E+00 -0.63100590796E+03  0.63100590796E+03  0.00000000000E+00 0.  1.
    9000007    1    1    2  501    0 -0.32122271114E+03  0.31419943754E+02 -0.19990822503E+03  0.55148394487E+03  0.40000000000E+03 0.  1.
   -9000007    1    1    2    0  503  0.32122271114E+03 -0.31419943754E+02  0.33673010262E+01  0.51398694705E+03  0.40000000000E+03 0.  1.
<mgrwt>
<rscale>  2 0.51397592E+03</rscale>
<asrwt>0</asrwt>
<pdfrwt beam="1">  1       21 0.66840767E-01 0.51397592E+03</pdfrwt>
<pdfrwt beam="2">  1       21 0.97077832E-01 0.51397592E+03</pdfrwt>
<totfact> 0.15139053E+03</totfact>
</mgrwt>
</event>
<event>
 4    1  0.4918322E-002  0.4447419E+03  0.7818608E-02  0.1029302E+00
         21   -1    0    0  501  502  0.00000000000E+00  0.00000000000E+00  0.21717224496E+04  0.21717224496E+04  0.00000000000E+00 0. -1.
         21   -1    0    0  502  503 -0.00000000000E+00 -0.00000000000E+00 -0.10900904736E+03  0.10900904736E+03  0.00000000000E+00 0. -1.
    9000007    1    1    2  501    0  0.15691252499E+03 -0.11477716836E+03  0.14938656852E+04  0.15586628963E+04  0.40000000000E+03 0. -1.
   -9000007    1    1    2    0  503 -0.15691252499E+03  0.11477716836E+03  0.56884771702E+03  0.72206860064E+03  0.40000000000E+03 0. -1.
<mgrwt>
<rscale>  2 0.44474188E+03</rscale>
<asrwt>0</asrwt>
<pdfrwt beam="1">  1       21 0.33411111E+00 0.44474188E+03</pdfrwt>
<pdfrwt beam="2">  1       21 0.16770624E-01 0.44474188E+03</pdfrwt>
<totfact> 0.54929196E+02</totfact>
</mgrwt>
</event>
<event>
 4    1  0.4918322E-002  0.4009247E+03  0.7818608E-02  0.1043460E+00
         21   -1    0    0  503  502  0.00000000000E+00  0.00000000000E+00  0.11391386846E+03  0.11391386846E+03  0.00000000000E+00 0.  1.
         21   -1    0    0  501  503 -0.00000000000E+00 -0.00000000000E+00 -0.19904943739E+04  0.19904943739E+04  0.00000000000E+00 0.  1.
    9000007    1    1    2  501    0 -0.24398812584E+02  0.12054170330E+02 -0.15059882551E+04  0.15584419237E+04  0.40000000000E+03 0.  1.
   -9000007    1    1    2    0  502  0.24398812584E+02 -0.12054170330E+02 -0.37059225030E+03  0.54596631862E+03  0.40000000000E+03 0.  1.
<mgrwt>
<rscale>  2 0.40092469E+03</rscale>
<asrwt>0</asrwt>
<pdfrwt beam="1">  1       21 0.17525211E-01 0.40092469E+03</pdfrwt>
<pdfrwt beam="2">  1       21 0.30622989E+00 0.40092469E+03</pdfrwt>
<totfact> 0.76478228E+02</totfact>
</mgrwt>
</event>
<event>
 4    1  0.4918322E-002  0.1070676E+04  0.7818608E-02  0.9234254E-01
         21   -1    0    0  503  502  0.00000000000E+00  0.00000000000E+00  0.16125428250E+04  0.16125428250E+04  0.00000000000E+00 0.  1.
         21   -1    0    0  501  503 -0.00000000000E+00 -0.00000000000E+00 -0.11012340015E+04  0.11012340015E+04  0.00000000000E+00 0. -1.
    9000007    1    1    2  501    0 -0.97702271794E+03 -0.17825111055E+03 -0.55218663491E+03  0.12046812564E+04  0.40000000000E+03 0. -1.
   -9000007    1    1    2    0  502  0.97702271794E+03  0.17825111055E+03  0.10634954584E+04  0.15090955701E+04  0.40000000000E+03 0.  1.
<mgrwt>
<rscale>  2 0.10706759E+04</rscale>
<asrwt>0</asrwt>
<pdfrwt beam="1">  1       21 0.24808351E+00 0.10706759E+04</pdfrwt>
<pdfrwt beam="2">  1       21 0.16942062E+00 0.10706759E+04</pdfrwt>
<totfact> 0.82443967E+00</totfact>
</mgrwt>
</event>
<event>
 4    1  0.4918322E-002  0.4587356E+03  0.7818608E-02  0.1025149E+00
         21   -1    0    0  501  502  0.00000000000E+00  0.00000000000E+00  0.36990133093E+03  0.36990133093E+03  0.00000000000E+00 0. -1.
         21   -1    0    0  502  503 -0.00000000000E+00 -0.00000000000E+00 -0.72193814222E+03  0.72193814222E+03  0.00000000000E+00 0. -1.
    9000007    1    1    2  501    0 -0.14221886996E+03 -0.17381632928E+03  0.75328219711E+02  0.46487919289E+03  0.40000000000E+03 0. -1.
   -9000007    1    1    2    0  503  0.14221886996E+03  0.17381632928E+03 -0.42736503100E+03  0.62696028026E+03  0.40000000000E+03 0. -1.
<mgrwt>
<rscale>  2 0.45873557E+03</rscale>
<asrwt>0</asrwt>
<pdfrwt beam="1">  1       21 0.56907898E-01 0.45873557E+03</pdfrwt>
<pdfrwt beam="2">  1       21 0.11106741E+00 0.45873557E+03</pdfrwt>
<totfact> 0.15820895E+03</totfact>
</mgrwt>
</event>
<event>
 4    1  0.4918322E-002  0.4081873E+03  0.7818608E-02  0.1040981E+00
         21   -1    0    0  503  502  0.00000000000E+00  0.00000000000E+00  0.52912931853E+03  0.52912931853E+03  0.00000000000E+00 0. -1.
         21   -1    0    0  501  503 -0.00000000000E+00 -0.00000000000E+00 -0.33496709699E+03  0.33496709699E+03  0.00000000000E+00 0.  1.
    9000007    1    1    2  501    0 -0.80304801261E+02  0.12962297257E+02  0.20285898969E+03  0.45581646740E+03  0.40000000000E+03 0. -1.
   -9000007    1    1    2    0  502  0.80304801261E+02 -0.12962297257E+02 -0.86967681474E+01  0.40827994811E+03  0.40000000000E+03 0.  1.
<mgrwt>
<rscale>  2 0.40818731E+03</rscale>
<asrwt>0</asrwt>
<pdfrwt beam="1">  1       21 0.81404511E-01 0.40818731E+03</pdfrwt>
<pdfrwt beam="2">  1       21 0.51533399E-01 0.40818731E+03</pdfrwt>
<totfact> 0.42069813E+03</totfact>
</mgrwt>
</event>
<event>
 4    1  0.4918322E-002  0.5529113E+03  0.7818608E-02  0.1000822E+00
         21   -1    0    0  501  502  0.00000000000E+00  0.00000000000E+00  0.32139210609E+03  0.32139210609E+03  0.00000000000E+00 0. -1.
         21   -1    0    0  502  503 -0.00000000000E+00 -0.00000000000E+00 -0.15928852052E+04  0.15928852052E+04  0.00000000000E+00 0.  1.
    9000007    1    1    2  501    0 -0.16513488321E+02  0.38136363552E+03 -0.28254304542E+02  0.55363275149E+03  0.40000000000E+03 0. -1.
   -9000007    1    1    2    0  503  0.16513488321E+02 -0.38136363552E+03 -0.12432387946E+04  0.13606445598E+04  0.40000000000E+03 0.  1.
<mgrwt>
<rscale>  2 0.55291131E+03</rscale>
<asrwt>0</asrwt>
<pdfrwt beam="1">  1       21 0.49444939E-01 0.55291131E+03</pdfrwt>
<pdfrwt beam="2">  1       21 0.24505927E+00 0.55291131E+03</pdfrwt>
<totfact> 0.21042865E+02</totfact>
</mgrwt>
</event>
<event>
 4    1  0.4918322E-002  0.8695249E+03  0.7818608E-02  0.9464500E-01
         21   -1    0    0  503  502  0.00000000000E+00  0.00000000000E+00  0.75646888805E+03  0.75646888805E+03  0.00000000000E+00 0.  1.
         21   -1    0    0  501  503 -0.00000000000E+00 -0.00000000000E+00 -0.10773837812E+04  0.10773837812E+04  0.00000000000E+00 0. -1.
    9000007    1    1    2  501    0 -0.22733914925E+03  0.73782823116E+03  0.86109941333E+02  0.87377829538E+03  0.40000000000E+03 0.  1.
   -9000007    1    1    2    0  502  0.22733914925E+03 -0.73782823116E+03 -0.40702483449E+03  0.96007437388E+03  0.40000000000E+03 0. -1.
<mgrwt>
<rscale>  2 0.86952492E+03</rscale>
<asrwt>0</asrwt>
<pdfrwt beam="1">  1       21 0.11637983E+00 0.86952492E+03</pdfrwt>
<pdfrwt beam="2">  1       21 0.16575135E+00 0.86952492E+03</pdfrwt>
<totfact> 0.88861007E+01</totfact>
</mgrwt>
</event>
<event>
 4    1  0.4918322E-002  0.4308902E+03  0.7818608E-02  0.1033579E+00
         21   -1    0    0  503  502  0.00000000000E+00  0.00000000000E+00  0.11218718997E+04  0.11218718997E+04  0.00000000000E+00 0. -1.
         21   -1    0    0  501  503 -0.00000000000E+00 -0.00000000000E+00 -0.44238186841E+03  0.44238186841E+03  0.00000000000E+00 0. -1.
    9000007    1    1    2  501    0 -0.13089542522E+03  0.92372784805E+02 -0.27902353046E+03  0.51334245321E+03  0.40000000000E+03 0. -1.
   -9000007    1    1    2    0  502  0.13089542522E+03 -0.92372784805E+02  0.95851356178E+03  0.10509113149E+04  0.40000000000E+03 0. -1.
<mgrwt>
<rscale>  2 0.43089018E+03</rscale>
<asrwt>0</asrwt>
<pdfrwt beam="1">  1       21 0.17259568E+00 0.43089018E+03</pdfrwt>
<pdfrwt beam="2">  1       21 0.68058749E-01 0.43089018E+03</pdfrwt>
<totfact> 0.33486888E+02</totfact>
</mgrwt>
</event>
<event>
 4    1  0.4918322E-002  0.5422303E+03  0.7818608E-02  0.1003308E+00
         21   -1    0    0  503  502  0.00000000000E+00  0.00000000000E+00  0.45944864072E+03  0.45944864072E+03  0.00000000000E+00 0.  1.
         21   -1    0    0  501  503 -0.00000000000E+00 -0.00000000000E+00 -0.64279613086E+03  0.64279613086E+03  0.00000000000E+00 0.  1.
    9000007    1    1    2  501    0  0.10767263020E+03  0.34988616527E+03 -0.54855372355E+02  0.54499801450E+03  0.40000000000E+03 0.  1.
   -9000007    1    1    2    0  502 -0.10767263020E+03 -0.34988616527E+03 -0.12849211779E+03  0.55724675708E+03  0.40000000000E+03 0.  1.
<mgrwt>
<rscale>  2 0.54223032E+03</rscale>
<asrwt>0</asrwt>
<pdfrwt beam="1">  1       21 0.70684406E-01 0.54223032E+03</pdfrwt>
<pdfrwt beam="2">  1       21 0.98891713E-01 0.54223032E+03</pdfrwt>
<totfact> 0.12642866E+03</totfact>
</mgrwt>
</event>
<event>
 4    1  0.4918322E-002  0.6112092E+03  0.7818608E-02  0.9882420E-01
         21   -1    0    0  503  502  0.00000000000E+00  0.00000000000E+00  0.11214561233E+04  0.11214561233E+04  0.00000000000E+00 0.  1.
         21   -1    0    0  501  503 -0.00000000000E+00 -0.00000000000E+00 -0.33344414828E+03  0.33344414828E+03  0.00000000000E+00 0. -1.
    9000007    1    1    2  501    0 -0.38823781947E+03 -0.25069519146E+03  0.41677362798E+03  0.73978168433E+03  0.40000000000E+03 0.  1.
   -9000007    1    1    2    0  502  0.38823781947E+03  0.25069519146E+03  0.37123834702E+03  0.71511858722E+03  0.40000000000E+03 0. -1.
<mgrwt>
<rscale>  2 0.61120920E+03</rscale>
<asrwt>0</asrwt>
<pdfrwt beam="1">  1       21 0.17253171E+00 0.61120920E+03</pdfrwt>
<pdfrwt beam="2">  1       21 0.51299100E-01 0.61120920E+03</pdfrwt>
<totfact> 0.57809289E+02</totfact>
</mgrwt>
</event>
<event>
 4    1  0.4918322E-002  0.4082489E+03  0.7818608E-02  0.1040960E+00
         21   -1    0    0  503  502  0.00000000000E+00  0.00000000000E+00  0.47780907346E+03  0.47780907346E+03  0.00000000000E+00 0. -1.
         21   -1    0    0  501  503 -0.00000000000E+00 -0.00000000000E+00 -0.59954792677E+03  0.59954792677E+03  0.00000000000E+00 0. -1.
    9000007    1    1    2  501    0  0.74757277178E+02  0.32841124812E+02 -0.40922517339E+03  0.57804189511E+03  0.40000000000E+03 0. -1.
   -9000007    1    1    2    0  502 -0.74757277178E+02 -0.32841124812E+02  0.28748632008E+03  0.49931510512E+03  0.40000000000E+03 0. -1.
<mgrwt>
<rscale>  2 0.40824893E+03</rscale>
<asrwt>0</asrwt>
<pdfrwt beam="1">  1       21 0.73509089E-01 0.40824893E+03</pdfrwt>
<pdfrwt beam="2">  1       21 0.92238142E-01 0.40824893E+03</pdfrwt>
<totfact> 0.14382556E+03</totfact>
</mgrwt>
</event>
<event>
 4    1  0.4918322E-002  0.4703503E+03  0.7818608E-02  0.1021821E+00
         21   -1    0    0  503  502  0.00000000000E+00  0.00000000000E+00  0.62493891417E+03  0.62493891417E+03  0.00000000000E+00 0.  1.
         21   -1    0    0  501  503 -0.00000000000E+00 -0.00000000000E+00 -0.37593606648E+03  0.37593606648E+03  0.00000000000E+00 0.  1.
    9000007    1    1    2  501    0  0.13706207986E+02  0.24706577604E+03  0.36208093937E+01  0.47036418665E+03  0.40000000000E+03 0.  1.
   -9000007    1    1    2    0  502 -0.13706207986E+02 -0.24706577604E+03  0.24538203830E+03  0.53051079399E+03  0.40000000000E+03 0.  1.
<mgrwt>
<rscale>  2 0.47035025E+03</rscale>
<asrwt>0</asrwt>
<pdfrwt beam="1">  1       21 0.96144448E-01 0.47035025E+03</pdfrwt>
<pdfrwt beam="2">  1       21 0.57836318E-01 0.47035025E+03</pdfrwt>
<totfact> 0.21660218E+03</totfact>
</mgrwt>
</event>
<event>
 4    1  0.4918322E-002  0.4230015E+03  0.7818608E-02  0.1036094E+00
         21   -1    0    0  503  502  0.00000000000E+00  0.00000000000E+00  0.20349039137E+04  0.20349039137E+04  0.00000000000E+00 0.  1.
         21   -1    0    0  501  503 -0.00000000000E+00 -0.00000000000E+00 -0.18309578242E+03  0.18309578242E+03  0.00000000000E+00 0.  1.
    9000007    1    1    2  501    0  0.11532605876E+03  0.75034439252E+02  0.12638022102E+03  0.44147732350E+03  0.40000000000E+03 0.  1.
   -9000007    1    1    2    0  502 -0.11532605876E+03 -0.75034439252E+02  0.17254279103E+04  0.17765223726E+04  0.40000000000E+03 0.  1.
<mgrwt>
<rscale>  2 0.42300150E+03</rscale>
<asrwt>0</asrwt>
<pdfrwt beam="1">  1       21 0.31306212E+00 0.42300150E+03</pdfrwt>
<pdfrwt beam="2">  1       21 0.28168583E-01 0.42300150E+03</pdfrwt>
<totfact> 0.27585100E+02</totfact>
</mgrwt>
</event>
<event>
 4    1  0.4918322E-002  0.4429183E+03  0.7818608E-02  0.1029855E+00
         21   -1    0    0  501  502  0.00000000000E+00  0.00000000000E+00  0.84707912495E+03  0.84707912495E+03  0.00000000000E+00 0.  1.
         21   -1    0    0  502  503 -0.00000000000E+00 -0.00000000000E+00 -0.23503308192E+03  0.23503308192E+03  0.00000000000E+00 0.  1.
    9000007    1    1    2  501    0  0.57019377124E+02 -0.18145350960E+03  0.37149228654E+03  0.57808572416E+03  0.40000000000E+03 0.  1.
   -9000007    1    1    2    0  503 -0.57019377124E+02  0.18145350960E+03  0.24055375649E+03  0.50402648271E+03  0.40000000000E+03 0.  1.
<mgrwt>
<rscale>  2 0.44291826E+03</rscale>
<asrwt>0</asrwt>
<pdfrwt beam="1">  1       21 0.13031986E+00 0.44291826E+03</pdfrwt>
<pdfrwt beam="2">  1       21 0.36158936E-01 0.44291826E+03</pdfrwt>
<totfact> 0.27464314E+03</totfact>
</mgrwt>
</event>
<event>
 4    1  0.4918322E-002  0.5126887E+03  0.7818608E-02  0.1010519E+00
         21   -1    0    0  503  502  0.00000000000E+00  0.00000000000E+00  0.16777875773E+04  0.16777875773E+04  0.00000000000E+00 0. -1.
         21   -1    0    0  501  503 -0.00000000000E+00 -0.00000000000E+00 -0.27875728275E+03  0.27875728275E+03  0.00000000000E+00 0. -1.
    9000007    1    1    2  501    0  0.27931450886E+03  0.15758529580E+03  0.52086767380E+02  0.51532780989E+03  0.40000000000E+03 0. -1.
   -9000007    1    1    2    0  502 -0.27931450886E+03 -0.15758529580E+03  0.13469435272E+04  0.14412170502E+04  0.40000000000E+03 0. -1.
<mgrwt>
<rscale>  2 0.51268872E+03</rscale>
<asrwt>0</asrwt>
<pdfrwt beam="1">  1       21 0.25812116E+00 0.51268872E+03</pdfrwt>
<pdfrwt beam="2">  1       21 0.42885737E-01 0.51268872E+03</pdfrwt>
<totfact> 0.24040520E+02</totfact>
</mgrwt>
</event>
<event>
 4    1  0.4918322E-002  0.4733959E+03  0.7818608E-02  0.1020966E+00
         21   -1    0    0  501  502  0.00000000000E+00  0.00000000000E+00  0.35327634171E+03  0.35327634171E+03  0.00000000000E+00 0. -1.
         21   -1    0    0  502  503 -0.00000000000E+00 -0.00000000000E+00 -0.68881930406E+03  0.68881930406E+03  0.00000000000E+00 0.  1.
    9000007    1    1    2  501    0  0.25202261990E+03 -0.24254976365E+02 -0.21261033218E+02  0.47387312263E+03  0.40000000000E+03 0. -1.
   -9000007    1    1    2    0  503 -0.25202261990E+03  0.24254976365E+02 -0.31428192913E+03  0.56822252313E+03  0.40000000000E+03 0.  1.
<mgrwt>
<rscale>  2 0.47339593E+03</rscale>
<asrwt>0</asrwt>
<pdfrwt beam="1">  1       21 0.54350207E-01 0.47339593E+03</pdfrwt>
<pdfrwt beam="2">  1       21 0.10597220E+00 0.47339593E+03</pdfrwt>
<totfact> 0.19525752E+03</totfact>
</mgrwt>
</event>
<event>
 4    1  0.4918322E-002  0.5423675E+03  0.7818608E-02  0.1003276E+00
         21   -1    0    0  501  502  0.00000000000E+00  0.00000000000E+00  0.43544089546E+03  0.43544089546E+03  0.00000000000E+00 0. -1.
         21   -1    0    0  502  503 -0.00000000000E+00 -0.00000000000E+00 -0.74028496314E+03  0.74028496314E+03  0.00000000000E+00 0.  1.
    9000007    1    1    2  501    0  0.26746283840E+03  0.25025223140E+03  0.21415110235E+02  0.54279015853E+03  0.40000000000E+03 0.  1.
   -9000007    1    1    2    0  503 -0.26746283840E+03 -0.25025223140E+03 -0.32625917792E+03  0.63293570007E+03  0.40000000000E+03 0. -1.
<mgrwt>
<rscale>  2 0.54236754E+03</rscale>
<asrwt>0</asrwt>
<pdfrwt beam="1">  1       21 0.66990908E-01 0.54236754E+03</pdfrwt>
<pdfrwt beam="2">  1       21 0.11388999E+00 0.54236754E+03</pdfrwt>
<totfact> 0.10057650E+03</totfact>
</mgrwt>
</event>
<event>
 4    1  0.4918322E-002  0.6872481E+03  0.7818608E-02  0.9739292E-01
         21   -1    0    0  501  502  0.00000000000E+00  0.00000000000E+00  0.83106173518E+03  0.83106173518E+03  0.00000000000E+00 0.  1.
         21   -1    0    0  502  503 -0.00000000000E+00 -0.00000000000E+00 -0.59119843828E+03  0.59119843828E+03  0.00000000000E+00 0.  1.
    9000007    1    1    2  501    0  0.49699996960E+03 -0.25554064822E+03  0.25982089323E+03  0.73472232118E+03  0.40000000000E+03 0.  1.
   -9000007    1    1    2    0  503 -0.49699996960E+03  0.25554064822E+03 -0.19957596334E+02  0.68753785229E+03  0.40000000000E+03 0.  1.
<mgrwt>
<rscale>  2 0.68724813E+03</rscale>
<asrwt>0</asrwt>
<pdfrwt beam="1">  1       21 0.12785565E+00 0.68724813E+03</pdfrwt>
<pdfrwt beam="2">  1       21 0.90953606E-01 0.68724813E+03</pdfrwt>
<totfact> 0.35143138E+02</totfact>
</mgrwt>
</event>
<event>
 4    1  0.4918322E-002  0.4129657E+03  0.7818608E-02  0.1039380E+00
         21   -1    0    0  501  502  0.00000000000E+00  0.00000000000E+00  0.79787894541E+03  0.79787894541E+03  0.00000000000E+00 0. -1.
         21   -1    0    0  502  503 -0.00000000000E+00 -0.00000000000E+00 -0.29417172989E+03  0.29417172989E+03  0.00000000000E+00 0. -1.
    9000007    1    1    2  501    0  0.15659165081E+01 -0.10265568906E+03  0.53736226199E+03  0.67771590154E+03  0.40000000000E+03 0. -1.
   -9000007    1    1    2    0  503 -0.15659165081E+01  0.10265568906E+03 -0.33655046479E+02  0.41433477376E+03  0.40000000000E+03 0. -1.
<mgrwt>
<rscale>  2 0.41296567E+03</rscale>
<asrwt>0</asrwt>
<pdfrwt beam="1">  1       21 0.12275061E+00 0.41296567E+03</pdfrwt>
<pdfrwt beam="2">  1       21 0.45257190E-01 0.41296567E+03</pdfrwt>
<totfact> 0.20412778E+03</totfact>
</mgrwt>
</event>
<event>
 4    1  0.4918322E-002  0.4023083E+03  0.7818608E-02  0.1042983E+00
         21   -1    0    0  503  502  0.00000000000E+00  0.00000000000E+00  0.30248350954E+03  0.30248350954E+03  0.00000000000E+00 0. -1.
         21   -1    0    0  501  503 -0.00000000000E+00 -0.00000000000E+00 -0.54913429318E+03  0.54913429318E+03  0.00000000000E+00 0. -1.
    9000007    1    1    2  501    0  0.32571377451E+02 -0.28126251352E+02 -0.19145340146E+03  0.44554055436E+03  0.40000000000E+03 0. -1.
   -9000007    1    1    2    0  502 -0.32571377451E+02  0.28126251352E+02 -0.55197382174E+02  0.40607724837E+03  0.40000000000E+03 0. -1.
<mgrwt>
<rscale>  2 0.40230832E+03</rscale>
<asrwt>0</asrwt>
<pdfrwt beam="1">  1       21 0.46535925E-01 0.40230832E+03</pdfrwt>
<pdfrwt beam="2">  1       21 0.84482198E-01 0.40230832E+03</pdfrwt>
<totfact> 0.48001652E+03</totfact>
</mgrwt>
</event>
<event>
 4    1  0.4918322E-002  0.4367431E+03  0.7818608E-02  0.1031751E+00
         21   -1    0    0  503  502  0.00000000000E+00  0.00000000000E+00  0.34279506602E+03  0.34279506602E+03  0.00000000000E+00 0.  1.
         21   -1    0    0  501  503 -0.00000000000E+00 -0.00000000000E+00 -0.89043250952E+03  0.89043250952E+03  0.00000000000E+00 0.  1.
    9000007    1    1    2  501    0 -0.14914088983E+03 -0.92203948061E+02 -0.65146193630E+03  0.78431322028E+03  0.40000000000E+03 0.  1.
   -9000007    1    1    2    0  502  0.14914088983E+03  0.92203948061E+02  0.10382449280E+03  0.44891435527E+03  0.40000000000E+03 0.  1.
<mgrwt>
<rscale>  2 0.43674314E+03</rscale>
<asrwt>0</asrwt>
<pdfrwt beam="1">  1       21 0.52737703E-01 0.43674314E+03</pdfrwt>
<pdfrwt beam="2">  1       21 0.13698961E+00 0.43674314E+03</pdfrwt>
<totfact> 0.11001486E+03</totfact>
</mgrwt>
</event>
<event>
 4    1  0.4918322E-002  0.4441580E+03  0.7818608E-02  0.1029479E+00
         21   -1    0    0  501  502  0.00000000000E+00  0.00000000000E+00  0.10527297481E+03  0.10527297481E+03  0.00000000000E+00 0. -1.
         21   -1    0    0  502  503 -0.00000000000E+00 -0.00000000000E+00 -0.20559411034E+04  0.20559411034E+04  0.00000000000E+00 0. -1.
    9000007    1    1    2  501    0 -0.14749483265E+03  0.12458570938E+03 -0.65382948956E+03  0.79042351057E+03  0.40000000000E+03 0. -1.
   -9000007    1    1    2    0  503  0.14749483265E+03 -0.12458570938E+03 -0.12968386391E+04  0.13707905677E+04  0.40000000000E+03 0. -1.
<mgrwt>
<rscale>  2 0.44415800E+03</rscale>
<asrwt>0</asrwt>
<pdfrwt beam="1">  1       21 0.16195844E-01 0.44415800E+03</pdfrwt>
<pdfrwt beam="2">  1       21 0.31629860E+00 0.44415800E+03</pdfrwt>
<totfact> 0.75156152E+02</totfact>
</mgrwt>
</event>
<event>
 4    1  0.4918322E-002  0.4743790E+03  0.7818608E-02  0.1020691E+00
         21   -1    0    0  501  502  0.00000000000E+00  0.00000000000E+00  0.39883845538E+03  0.39883845538E+03  0.00000000000E+00 0.  1.
         21   -1    0    0  502  503 -0.00000000000E+00 -0.00000000000E+00 -0.11184311079E+04  0.11184311079E+04  0.00000000000E+00 0. -1.
    9000007    1    1    2  501    0  0.18267934057E+03  0.17794307010E+03 -0.89382300006E+03  0.10119066326E+04  0.40000000000E+03 0. -1.
   -9000007    1    1    2    0  503 -0.18267934057E+03 -0.17794307010E+03  0.17423034756E+03  0.50536293065E+03  0.40000000000E+03 0.  1.
<mgrwt>
<rscale>  2 0.47437904E+03</rscale>
<asrwt>0</asrwt>
<pdfrwt beam="1">  1       21 0.61359762E-01 0.47437904E+03</pdfrwt>
<pdfrwt beam="2">  1       21 0.17206633E+00 0.47437904E+03</pdfrwt>
<totfact> 0.41628790E+02</totfact>
</mgrwt>
</event>
<event>
 4    1  0.4918322E-002  0.4184496E+03  0.7818608E-02  0.1037572E+00
         21   -1    0    0  501  502  0.00000000000E+00  0.00000000000E+00  0.27857692270E+03  0.27857692270E+03  0.00000000000E+00 0.  1.
         21   -1    0    0  502  503 -0.00000000000E+00 -0.00000000000E+00 -0.68816152321E+03  0.68816152321E+03  0.00000000000E+00 0.  1.
    9000007    1    1    2  501    0  0.11823184904E+03  0.33486221645E+02 -0.62529476085E+02  0.42309577231E+03  0.40000000000E+03 0. -1.
   -9000007    1    1    2    0  503 -0.11823184904E+03 -0.33486221645E+02 -0.34705512442E+03  0.54364267360E+03  0.40000000000E+03 0. -1.
<mgrwt>
<rscale>  2 0.41844964E+03</rscale>
<asrwt>0</asrwt>
<pdfrwt beam="1">  1       21 0.42857988E-01 0.41844964E+03</pdfrwt>
<pdfrwt beam="2">  1       21 0.10587100E+00 0.41844964E+03</pdfrwt>
<totfact> 0.33022246E+03</totfact>
</mgrwt>
</event>
<event>
 4    1  0.4918322E-002  0.4377178E+03  0.7818608E-02  0.1031449E+00
         21   -1    0    0  501  502  0.00000000000E+00  0.00000000000E+00  0.36108967230E+03  0.36108967230E+03  0.00000000000E+00 0. -1.
         21   -1    0    0  502  503 -0.00000000000E+00 -0.00000000000E+00 -0.67166712369E+03  0.67166712369E+03  0.00000000000E+00 0. -1.
    9000007    1    1    2  501    0 -0.17329297159E+03 -0.39577600807E+02  0.81353686975E+02  0.44521372718E+03  0.40000000000E+03 0. -1.
   -9000007    1    1    2    0  503  0.17329297159E+03  0.39577600807E+02 -0.39193113837E+03  0.58754306881E+03  0.40000000000E+03 0. -1.
<mgrwt>
<rscale>  2 0.43771776E+03</rscale>
<asrwt>0</asrwt>
<pdfrwt beam="1">  1       21 0.55552258E-01 0.43771776E+03</pdfrwt>
<pdfrwt beam="2">  1       21 0.10333340E+00 0.43771776E+03</pdfrwt>
<totfact> 0.20084259E+03</totfact>
</mgrwt>
</event>
<event>
 4    1  0.4918322E-002  0.4334964E+03  0.7818608E-02  0.1032761E+00
         21   -1    0    0  503  502  0.00000000000E+00  0.00000000000E+00  0.40018994852E+03  0.40018994852E+03  0.00000000000E+00 0.  1.
         21   -1    0    0  501  503 -0.00000000000E+00 -0.00000000000E+00 -0.59347422888E+03  0.59347422888E+03  0.00000000000E+00 0. -1.
    9000007    1    1    2  501    0  0.67021369082E+02 -0.15305976121E+03  0.13036691705E+03  0.45267503518E+03  0.40000000000E+03 0.  1.
   -9000007    1    1    2    0  502 -0.67021369082E+02  0.15305976121E+03 -0.32365119741E+03  0.54098914222E+03  0.40000000000E+03 0. -1.
<mgrwt>
<rscale>  2 0.43349643E+03</rscale>
<asrwt>0</asrwt>
<pdfrwt beam="1">  1       21 0.61567685E-01 0.43349643E+03</pdfrwt>
<pdfrwt beam="2">  1       21 0.91303726E-01 0.43349643E+03</pdfrwt>
<totfact> 0.21664867E+03</totfact>
</mgrwt>
</event>
<event>
 4    1  0.4918322E-002  0.6248848E+03  0.7818608E-02  0.9855082E-01
         21   -1    0    0  503  502  0.00000000000E+00  0.00000000000E+00  0.31237990204E+03  0.31237990204E+03  0.00000000000E+00 0. -1.
         21   -1    0    0  501  503 -0.00000000000E+00 -0.00000000000E+00 -0.12816785886E+04  0.12816785886E+04  0.00000000000E+00 0.  1.
    9000007    1    1    2  501    0  0.30754315385E+03  0.36864374901E+03 -0.35938337435E+03  0.72085880374E+03  0.40000000000E+03 0. -1.
   -9000007    1    1    2    0  502 -0.30754315385E+03 -0.36864374901E+03 -0.60991531225E+03  0.87319968695E+03  0.40000000000E+03 0.  1.
<mgrwt>
<rscale>  2 0.62488479E+03</rscale>
<asrwt>0</asrwt>
<pdfrwt beam="1">  1       21 0.48058447E-01 0.62488479E+03</pdfrwt>
<pdfrwt beam="2">  1       21 0.19718132E+00 0.62488479E+03</pdfrwt>
<totfact> 0.44374807E+02</totfact>
</mgrwt>
</event>
<event>
 4    1  0.4918322E-002  0.5612544E+03  0.7818608E-02  0.9989220E-01
         21   -1    0    0  503  502  0.00000000000E+00  0.00000000000E+00  0.92669461661E+03  0.92669461661E+03  0.00000000000E+00 0. -1.
         21   -1    0    0  501  503 -0.00000000000E+00 -0.00000000000E+00 -0.36055179567E+03  0.36055179567E+03  0.00000000000E+00 0. -1.
    9000007    1    1    2  501    0  0.34419249552E+03 -0.19114926374E+03  0.12912644902E+03  0.57591679506E+03  0.40000000000E+03 0. -1.
   -9000007    1    1    2    0  502 -0.34419249552E+03  0.19114926374E+03  0.43701637193E+03  0.71132961722E+03  0.40000000000E+03 0. -1.
<mgrwt>
<rscale>  2 0.56125441E+03</rscale>
<asrwt>0</asrwt>
<pdfrwt beam="1">  1       21 0.14256840E+00 0.56125441E+03</pdfrwt>
<pdfrwt beam="2">  1       21 0.55469507E-01 0.56125441E+03</pdfrwt>
<totfact> 0.84552181E+02</totfact>
</mgrwt>
</event>
<event>
 4    1  0.4918322E-002  0.4608049E+03  0.7818608E-02  0.1024548E+00
         21   -1    0    0  501  502  0.00000000000E+00  0.00000000000E+00  0.74673345975E+03  0.74673345975E+03  0.00000000000E+00 0.  1.
         21   -1    0    0  502  503 -0.00000000000E+00 -0.00000000000E+00 -0.36629949306E+03  0.36629949306E+03  0.00000000000E+00 0. -1.
    9000007    1    1    2  501    0  0.11192749867E+03 -0.19953285676E+03  0.45342948137E+03  0.64648234350E+03  0.40000000000E+03 0.  1.
   -9000007    1    1    2    0  503 -0.11192749867E+03  0.19953285676E+03 -0.72995514672E+02  0.46655060931E+03  0.40000000000E+03 0. -1.
<mgrwt>
<rscale>  2 0.46080487E+03</rscale>
<asrwt>0</asrwt>
<pdfrwt beam="1">  1       21 0.11488207E+00 0.46080487E+03</pdfrwt>
<pdfrwt beam="2">  1       21 0.56353768E-01 0.46080487E+03</pdfrwt>
<totfact> 0.14843044E+03</totfact>
</mgrwt>
</event>
<event>
 4    1  0.4918322E-002  0.5149275E+03  0.7818608E-02  0.1009954E+00
         21   -1    0    0  503  502  0.00000000000E+00  0.00000000000E+00  0.51549119749E+03  0.51549119749E+03  0.00000000000E+00 0. -1.
         21   -1    0    0  501  503 -0.00000000000E+00 -0.00000000000E+00 -0.63242176044E+03  0.63242176044E+03  0.00000000000E+00 0.  1.
    9000007    1    1    2  501    0 -0.31905466269E+03  0.57917559294E+02 -0.30644838523E+03  0.59921693423E+03  0.40000000000E+03 0.  1.
   -9000007    1    1    2    0  502  0.31905466269E+03 -0.57917559294E+02  0.18951782228E+03  0.54869602370E+03  0.40000000000E+03 0. -1.
<mgrwt>
<rscale>  2 0.51492749E+03</rscale>
<asrwt>0</asrwt>
<pdfrwt beam="1">  1       21 0.79306339E-01 0.51492749E+03</pdfrwt>
<pdfrwt beam="2">  1       21 0.97295655E-01 0.51492749E+03</pdfrwt>
<totfact> 0.10199526E+03</totfact>
</mgrwt>
</event>
<event>
 4    1  0.4918322E-002  0.4561070E+03  0.7818608E-02  0.1025916E+00
         21   -1    0    0  503  502  0.00000000000E+00  0.00000000000E+00  0.14891987947E+04  0.14891987947E+04  0.00000000000E+00 0.  1.
         21   -1    0    0  501  503 -0.00000000000E+00 -0.00000000000E+00 -0.30489384538E+03  0.30489384538E+03  0.00000000000E+00 0.  1.
    9000007    1    1    2  501    0  0.68692109791E+02 -0.20812259048E+03 -0.68151710649E+02  0.46117054793E+03  0.40000000000E+03 0.  1.
   -9000007    1    1    2    0  502 -0.68692109791E+02  0.20812259048E+03  0.12524566600E+04  0.13329220922E+04  0.40000000000E+03 0.  1.
<mgrwt>
<rscale>  2 0.45610703E+03</rscale>
<asrwt>0</asrwt>
<pdfrwt beam="1">  1       21 0.22910750E+00 0.45610703E+03</pdfrwt>
<pdfrwt beam="2">  1       21 0.46906746E-01 0.45610703E+03</pdfrwt>
<totfact> 0.31051652E+02</totfact>
</mgrwt>
</event>
<event>
 4    1  0.4918322E-002  0.4026426E+03  0.7818608E-02  0.1042868E+00
         21   -1    0    0  503  502  0.00000000000E+00  0.00000000000E+00  0.16263686924E+04  0.16263686924E+04  0.00000000000E+00 0.  1.
         21   -1    0    0  501  503 -0.00000000000E+00 -0.00000000000E+00 -0.99837381669E+02  0.99837381669E+02  0.00000000000E+00 0.  1.
    9000007    1    1    2  501    0  0.24636308386E+02 -0.38911466457E+02  0.72930789358E+03  0.83307325822E+03  0.40000000000E+03 0.  1.
   -9000007    1    1    2    0  502 -0.24636308386E+02  0.38911466457E+02  0.79722341719E+03  0.89313281590E+03  0.40000000000E+03 0.  1.
<mgrwt>
<rscale>  2 0.40264258E+03</rscale>
<asrwt>0</asrwt>
<pdfrwt beam="1">  1       21 0.25021055E+00 0.40264258E+03</pdfrwt>
<pdfrwt beam="2">  1       21 0.15359598E-01 0.40264258E+03</pdfrwt>
<totfact> 0.21227019E+03</totfact>
</mgrwt>
</event>
<event>
 4    1  0.4918322E-002  0.1263047E+04  0.7818608E-02  0.9059393E-01
         21   -1    0    0  503  502  0.00000000000E+00  0.00000000000E+00  0.17818686612E+04  0.17818686612E+04  0.00000000000E+00 0. -1.
         21   -1    0    0  501  503 -0.00000000000E+00 -0.00000000000E+00 -0.98707215905E+03  0.98707215905E+03  0.00000000000E+00 0.  1.
    9000007    1    1    2  501    0  0.11174611699E+04  0.43193641295E+03  0.81957007191E+03  0.15056505683E+04  0.40000000000E+03 0. -1.
   -9000007    1    1    2    0  502 -0.11174611699E+04 -0.43193641295E+03 -0.24773569769E+02  0.12632902520E+04  0.40000000000E+03 0.  1.
<mgrwt>
<rscale>  2 0.12630473E+04</rscale>
<asrwt>0</asrwt>
<pdfrwt beam="1">  1       21 0.27413364E+00 0.12630473E+04</pdfrwt>
<pdfrwt beam="2">  1       21 0.15185726E+00 0.12630473E+04</pdfrwt>
<totfact> 0.73368588E+00</totfact>
</mgrwt>
</event>
<event>
 4    1  0.4918322E-002  0.5544477E+03  0.7818608E-02  0.1000470E+00
         21   -1    0    0  503  502  0.00000000000E+00  0.00000000000E+00  0.50421494811E+03  0.50421494811E+03  0.00000000000E+00 0. -1.
         21   -1    0    0  501  503 -0.00000000000E+00 -0.00000000000E+00 -0.63487174108E+03  0.63487174108E+03  0.00000000000E+00 0. -1.
    9000007    1    1    2  501    0  0.31641342029E+03 -0.21747359968E+03  0.48112851359E+02  0.55653127995E+03  0.40000000000E+03 0. -1.
   -9000007    1    1    2    0  502 -0.31641342029E+03  0.21747359968E+03 -0.17876964432E+03  0.58255540924E+03  0.40000000000E+03 0. -1.
<mgrwt>
<rscale>  2 0.55444767E+03</rscale>
<asrwt>0</asrwt>
<pdfrwt beam="1">  1       21 0.77571530E-01 0.55444767E+03</pdfrwt>
<pdfrwt beam="2">  1       21 0.97672576E-01 0.55444767E+03</pdfrwt>
<totfact> 0.10492375E+03</totfact>
</mgrwt>
</event>
<event>
 4    1  0.4918322E-002  0.4489043E+03  0.7818608E-02  0.1028049E+00
         21   -1    0    0  501  502  0.00000000000E+00  0.00000000000E+00  0.10512982084E+04  0.10512982084E+04  0.00000000000E+00 0.  1.
         21   -1    0    0  502  503 -0.00000000000E+00 -0.00000000000E+00 -0.44487822120E+03  0.44487822120E+03  0.00000000000E+00 0. -1.
    9000007    1    1    2  501    0 -0.19953410178E+03 -0.41245729981E+02  0.86757587193E+03  0.97683312882E+03  0.40000000000E+03 0.  1.
   -9000007    1    1    2    0  503  0.19953410178E+03  0.41245729981E+02 -0.26115588468E+03  0.51934330083E+03  0.40000000000E+03 0. -1.
<mgrwt>
<rscale>  2 0.44890430E+03</rscale>
<asrwt>0</asrwt>
<pdfrwt beam="1">  1       21 0.16173819E+00 0.44890430E+03</pdfrwt>
<pdfrwt beam="2">  1       21 0.68442803E-01 0.44890430E+03</pdfrwt>
<totfact> 0.39378755E+02</totfact>
</mgrwt>
</event>
<event>
 4    1  0.4918322E-002  0.5330398E+03  0.7818608E-02  0.1005498E+00
         21   -1    0    0  501  502  0.00000000000E+00  0.00000000000E+00  0.86099494490E+03  0.86099494490E+03  0.00000000000E+00 0. -1.
         21   -1    0    0  502  503 -0.00000000000E+00 -0.00000000000E+00 -0.36131258629E+03  0.36131258629E+03  0.00000000000E+00 0. -1.
    9000007    1    1    2  501    0  0.13796457874E+03 -0.32418702972E+03  0.69936169183E+02  0.53760815004E+03  0.40000000000E+03 0. -1.
   -9000007    1    1    2    0  503 -0.13796457874E+03  0.32418702972E+03  0.42974618943E+03  0.68469938116E+03  0.40000000000E+03 0. -1.
<mgrwt>
<rscale>  2 0.53303983E+03</rscale>
<asrwt>0</asrwt>
<pdfrwt beam="1">  1       21 0.13246076E+00 0.53303983E+03</pdfrwt>
<pdfrwt beam="2">  1       21 0.55586552E-01 0.53303983E+03</pdfrwt>
<totfact> 0.10333193E+03</totfact>
</mgrwt>
</event>
<event>
 4    1  0.4918322E-002  0.5364871E+03  0.7818608E-02  0.1004671E+00
         21   -1    0    0  501  502  0.00000000000E+00  0.00000000000E+00  0.16811657393E+03  0.16811657393E+03  0.00000000000E+00 0.  1.
         21   -1    0    0  502  503 -0.00000000000E+00 -0.00000000000E+00 -0.17150067123E+04  0.17150067123E+04  0.00000000000E+00 0.  1.
    9000007    1    1    2  501    0 -0.32344133539E+03  0.15232903497E+03 -0.81275756729E+03  0.97385486369E+03  0.40000000000E+03 0.  1.
   -9000007    1    1    2    0  503  0.32344133539E+03 -0.15232903497E+03 -0.73413257112E+03  0.90926842258E+03  0.40000000000E+03 0.  1.
<mgrwt>
<rscale>  2 0.53648712E+03</rscale>
<asrwt>0</asrwt>
<pdfrwt beam="1">  1       21 0.25864087E-01 0.53648712E+03</pdfrwt>
<pdfrwt beam="2">  1       21 0.26384720E+00 0.53648712E+03</pdfrwt>
<totfact> 0.60906841E+02</totfact>
</mgrwt>
</event>
<event>
 4    1  0.4918322E-002  0.4902257E+03  0.7818608E-02  0.1016362E+00
         21   -1    0    0  503  502  0.00000000000E+00  0.00000000000E+00  0.12522513611E+04  0.12522513611E+04  0.00000000000E+00 0. -1.
         21   -1    0    0  501  503 -0.00000000000E+00 -0.00000000000E+00 -0.56572420040E+03  0.56572420040E+03  0.00000000000E+00 0. -1.
    9000007    1    1    2  501    0 -0.10698639793E+03  0.26244069440E+03 -0.39563154147E+03  0.62995676362E+03  0.40000000000E+03 0. -1.
   -9000007    1    1    2    0  502  0.10698639793E+03 -0.26244069440E+03  0.10821587022E+04  0.11880187979E+04  0.40000000000E+03 0. -1.
<mgrwt>
<rscale>  2 0.49022567E+03</rscale>
<asrwt>0</asrwt>
<pdfrwt beam="1">  1       21 0.19265405E+00 0.49022567E+03</pdfrwt>
<pdfrwt beam="2">  1       21 0.87034493E-01 0.49022567E+03</pdfrwt>
<totfact> 0.13366842E+02</totfact>
</mgrwt>
</event>
<event>
 4    1  0.4918322E-002  0.4814974E+03  0.7818608E-02  0.1018724E+00
         21   -1    0    0  503  502  0.00000000000E+00  0.00000000000E+00  0.13992474505E+04  0.13992474505E+04  0.00000000000E+00 0.  1.
         21   -1    0    0  501  503 -0.00000000000E+00 -0.00000000000E+00 -0.20342546628E+03  0.20342546628E+03  0.00000000000E+00 0. -1.
    9000007    1    1    2  501    0  0.42141343819E+02 -0.26469571644E+03  0.25277228996E+03  0.54381388887E+03  0.40000000000E+03 0. -1.
   -9000007    1    1    2    0  502 -0.42141343819E+02  0.26469571644E+03  0.94304969429E+03  0.10588590279E+04  0.40000000000E+03 0.  1.
<mgrwt>
<rscale>  2 0.48149737E+03</rscale>
<asrwt>0</asrwt>
<pdfrwt beam="1">  1       21 0.21526883E+00 0.48149737E+03</pdfrwt>
<pdfrwt beam="2">  1       21 0.31296226E-01 0.48149737E+03</pdfrwt>
<totfact> 0.86195068E+02</totfact>
</mgrwt>
</event>
<event>
 4    1  0.4918322E-002  0.5799691E+03  0.7818608E-02  0.9947858E-01
         21   -1    0    0  503  502  0.00000000000E+00  0.00000000000E+00  0.12092809568E+04  0.12092809568E+04  0.00000000000E+00 0. -1.
         21   -1    0    0  501  503 -0.00000000000E+00 -0.00000000000E+00 -0.42022411695E+03  0.42022411695E+03  0.00000000000E+00 0. -1.
    9000007    1    1    2  501    0 -0.19281924637E+03  0.37307490285E+03 -0.79210834458E+02  0.58535331314E+03  0.40000000000E+03 0. -1.
   -9000007    1    1    2    0  502  0.19281924637E+03 -0.37307490285E+03  0.86826767427E+03  0.10441517606E+04  0.40000000000E+03 0. -1.
<mgrwt>
<rscale>  2 0.57996909E+03</rscale>
<asrwt>0</asrwt>
<pdfrwt beam="1">  1       21 0.18604322E+00 0.57996909E+03</pdfrwt>
<pdfrwt beam="2">  1       21 0.64649865E-01 0.57996909E+03</pdfrwt>
<totfact> 0.28208260E+02</totfact>
</mgrwt>
</event>
<event>
 4    1  0.4918322E-002  0.4405231E+03  0.7818608E-02  0.1030586E+00
         21   -1    0    0  503  502  0.00000000000E+00  0.00000000000E+00  0.21874724402E+03  0.21874724402E+03  0.00000000000E+00 0.  1.
         21   -1    0    0  501  503 -0.00000000000E+00 -0.00000000000E+00 -0.92728828912E+03  0.92728828912E+03  0.00000000000E+00 0.  1.
    9000007    1    1    2  501    0  0.14379926480E+03 -0.11568236908E+03 -0.23504634747E+03  0.49930694421E+03  0.40000000000E+03 0.  1.
   -9000007    1    1    2    0  502 -0.14379926480E+03  0.11568236908E+03 -0.47349469763E+03  0.64672858894E+03  0.40000000000E+03 0.  1.
<mgrwt>
<rscale>  2 0.44052314E+03</rscale>
<asrwt>0</asrwt>
<pdfrwt beam="1">  1       21 0.33653423E-01 0.44052314E+03</pdfrwt>
<pdfrwt beam="2">  1       21 0.14265973E+00 0.44052314E+03</pdfrwt>
<totfact> 0.25049668E+03</totfact>
</mgrwt>
</event>
<event>
 4    1  0.4918322E-002  0.5328780E+03  0.7818608E-02  0.1005537E+00
         21   -1    0    0  503  502  0.00000000000E+00  0.00000000000E+00  0.36856814030E+03  0.36856814030E+03  0.00000000000E+00 0.  1.
         21   -1    0    0  501  503 -0.00000000000E+00 -0.00000000000E+00 -0.77330425745E+03  0.77330425745E+03  0.00000000000E+00 0. -1.
    9000007    1    1    2  501    0  0.26385092890E+03 -0.23311294245E+03 -0.16760975919E+03  0.55861613653E+03  0.40000000000E+03 0.  1.
   -9000007    1    1    2    0  502 -0.26385092890E+03  0.23311294245E+03 -0.23712635796E+03  0.58325626122E+03  0.40000000000E+03 0. -1.
<mgrwt>
<rscale>  2 0.53287799E+03</rscale>
<asrwt>0</asrwt>
<pdfrwt beam="1">  1       21 0.56702792E-01 0.53287799E+03</pdfrwt>
<pdfrwt beam="2">  1       21 0.11896988E+00 0.53287799E+03</pdfrwt>
<totfact> 0.13067009E+03</totfact>
</mgrwt>
</event>
<event>
 4    1  0.4918322E-002  0.4957454E+03  0.7818608E-02  0.1014895E+00
         21   -1    0    0  501  502  0.00000000000E+00  0.00000000000E+00  0.89124928583E+03  0.89124928583E+03  0.00000000000E+00 0.  1.
         21   -1    0    0  502  503 -0.00000000000E+00 -0.00000000000E+00 -0.49684019354E+03  0.49684019354E+03  0.00000000000E+00 0.  1.
    9000007    1    1    2  501    0  0.16136543610E+03 -0.24438641308E+03  0.66018446783E+03  0.82559496996E+03  0.40000000000E+03 0.  1.
   -9000007    1    1    2    0  503 -0.16136543610E+03  0.24438641308E+03 -0.26577537555E+03  0.56249450941E+03  0.40000000000E+03 0.  1.
<mgrwt>
<rscale>  2 0.49574542E+03</rscale>
<asrwt>0</asrwt>
<pdfrwt beam="1">  1       21 0.13711527E+00 0.49574542E+03</pdfrwt>
<pdfrwt beam="2">  1       21 0.76436953E-01 0.49574542E+03</pdfrwt>
<totfact> 0.47020646E+02</totfact>
</mgrwt>
</event>
<event>
 4    1  0.4918322E-002  0.4917167E+03  0.7818608E-02  0.1015964E+00
         21   -1    0    0  501  502  0.00000000000E+00  0.00000000000E+00  0.96277869616E+03  0.96277869616E+03  0.00000000000E+00 0.  1.
         21   -1    0    0  502  503 -0.00000000000E+00 -0.00000000000E+00 -0.42250920430E+03  0.42250920430E+03  0.00000000000E+00 0.  1.
    9000007    1    1    2  501    0  0.15095290632E+03 -0.24289603717E+03  0.71126569727E+03  0.86468731742E+03  0.40000000000E+03 0.  1.
   -9000007    1    1    2    0  503 -0.15095290632E+03  0.24289603717E+03 -0.17099620541E+03  0.52060058304E+03  0.40000000000E+03 0.  1.
<mgrwt>
<rscale>  2 0.49171665E+03</rscale>
<asrwt>0</asrwt>
<pdfrwt beam="1">  1       21 0.14811980E+00 0.49171665E+03</pdfrwt>
<pdfrwt beam="2">  1       21 0.65001416E-01 0.49171665E+03</pdfrwt>
<totfact> 0.55220193E+02</totfact>
</mgrwt>
</event>
<event>
 4    1  0.4918322E-002  0.4037510E+03  0.7818608E-02  0.1042489E+00
         21   -1    0    0  503  502  0.00000000000E+00  0.00000000000E+00  0.77137398896E+03  0.77137398896E+03  0.00000000000E+00 0. -1.
         21   -1    0    0  501  503 -0.00000000000E+00 -0.00000000000E+00 -0.21196181356E+03  0.21196181356E+03  0.00000000000E+00 0. -1.
    9000007    1    1    2  501    0  0.54696590893E+02 -0.48102818597E+01  0.25287345221E+03  0.47640302129E+03  0.40000000000E+03 0.  1.
   -9000007    1    1    2    0  502 -0.54696590893E+02  0.48102818597E+01  0.30653872319E+03  0.50693278123E+03  0.40000000000E+03 0.  1.
<mgrwt>
<rscale>  2 0.40375098E+03</rscale>
<asrwt>0</asrwt>
<pdfrwt beam="1">  1       21 0.11867292E+00 0.40375098E+03</pdfrwt>
<pdfrwt beam="2">  1       21 0.32609510E-01 0.40375098E+03</pdfrwt>
<totfact> 0.43650461E+03</totfact>
</mgrwt>
</event>
<event>
 4    1  0.4918322E-002  0.5120439E+03  0.7818608E-02  0.1010682E+00
         21   -1    0    0  503  502  0.00000000000E+00  0.00000000000E+00  0.96296272884E+03  0.96296272884E+03  0.00000000000E+00 0.  1.
         21   -1    0    0  501  503 -0.00000000000E+00 -0.00000000000E+00 -0.34377948892E+03  0.34377948892E+03  0.00000000000E+00 0. -1.
    9000007    1    1    2  501    0  0.23922616530E+02  0.31877374837E+03  0.11608333239E+02  0.51217550472E+03  0.40000000000E+03 0. -1.
   -9000007    1    1    2    0  502 -0.23922616530E+02 -0.31877374837E+03  0.60757490668E+03  0.79456671304E+03  0.40000000000E+03 0.  1.
<mgrwt>
<rscale>  2 0.51204394E+03</rscale>
<asrwt>0</asrwt>
<pdfrwt beam="1">  1       21 0.14814811E+00 0.51204394E+03</pdfrwt>
<pdfrwt beam="2">  1       21 0.52889152E-01 0.51204394E+03</pdfrwt>
<totfact> 0.85978612E+02</totfact>
</mgrwt>
</event>
<event>
 4    1  0.4918322E-002  0.4592540E+03  0.7818608E-02  0.1024998E+00
         21   -1    0    0  503  502  0.00000000000E+00  0.00000000000E+00  0.97389974165E+03  0.97389974165E+03  0.00000000000E+00 0.  1.
         21   -1    0    0  501  503 -0.00000000000E+00 -0.00000000000E+00 -0.21896508941E+03  0.21896508941E+03  0.00000000000E+00 0.  1.
    9000007    1    1    2  501    0 -0.14362191356E+03  0.17403152487E+03  0.31504553839E+03  0.55692720976E+03  0.40000000000E+03 0.  1.
   -9000007    1    1    2    0  502  0.14362191356E+03 -0.17403152487E+03  0.43988911385E+03  0.63593762131E+03  0.40000000000E+03 0.  1.
<mgrwt>
<rscale>  2 0.45925399E+03</rscale>
<asrwt>0</asrwt>
<pdfrwt beam="1">  1       21 0.14983073E+00 0.45925399E+03</pdfrwt>
<pdfrwt beam="2">  1       21 0.33686937E-01 0.45925399E+03</pdfrwt>
<totfact> 0.21745761E+03</totfact>
</mgrwt>
</event>
<event>
 4    1  0.4918322E-002  0.4045974E+03  0.7818608E-02  0.1042199E+00
         21   -1    0    0  501  502  0.00000000000E+00  0.00000000000E+00  0.12724163858E+04  0.12724163858E+04  0.00000000000E+00 0. -1.
         21   -1    0    0  502  503 -0.00000000000E+00 -0.00000000000E+00 -0.25954169372E+03  0.25954169372E+03  0.00000000000E+00 0. -1.
    9000007    1    1    2  501    0  0.43244177842E+02  0.42766846526E+02  0.10503959490E+04  0.11256245874E+04  0.40000000000E+03 0. -1.
   -9000007    1    1    2    0  503 -0.43244177842E+02 -0.42766846526E+02 -0.37521256947E+02  0.40633349210E+03  0.40000000000E+03 0. -1.
<mgrwt>
<rscale>  2 0.40459741E+03</rscale>
<asrwt>0</asrwt>
<pdfrwt beam="1">  1       21 0.19575636E+00 0.40459741E+03</pdfrwt>
<pdfrwt beam="2">  1       21 0.39929492E-01 0.40459741E+03</pdfrwt>
<totfact> 0.73407007E+02</totfact>
</mgrwt>
</event>
<event>
 4    1  0.4918322E-002  0.5466002E+03  0.7818608E-02  0.1002284E+00
         21   -1    0    0  503  502  0.00000000000E+00  0.00000000000E+00  0.45580941551E+03  0.45580941551E+03  0.00000000000E+00 0.  1.
         21   -1    0    0  501  503 -0.00000000000E+00 -0.00000000000E+00 -0.16672894957E+04  0.16672894957E+04  0.00000000000E+00 0.  1.
    9000007    1    1    2  501    0 -0.36504852328E+03 -0.74238470075E+02  0.22122114799E+03  0.58966988316E+03  0.40000000000E+03 0.  1.
   -9000007    1    1    2    0  502  0.36504852328E+03  0.74238470075E+02 -0.14327012282E+04  0.15334290280E+04  0.40000000000E+03 0.  1.
<mgrwt>
<rscale>  2 0.54660020E+03</rscale>
<asrwt>0</asrwt>
<pdfrwt beam="1">  1       21 0.70124525E-01 0.54660020E+03</pdfrwt>
<pdfrwt beam="2">  1       21 0.25650608E+00 0.54660020E+03</pdfrwt>
<totfact> 0.83248927E+01</totfact>
</mgrwt>
</event>
<event>
 4    1  0.4918322E-002  0.4678031E+03  0.7818608E-02  0.1022542E+00
         21   -1    0    0  503  502  0.00000000000E+00  0.00000000000E+00  0.25321671067E+04  0.25321671067E+04  0.00000000000E+00 0. -1.
         21   -1    0    0  501  503 -0.00000000000E+00 -0.00000000000E+00 -0.95021626029E+02  0.95021626029E+02  0.00000000000E+00 0. -1.
    9000007    1    1    2  501    0 -0.19896543643E+03 -0.13875322747E+03  0.82344057380E+03  0.94704492058E+03  0.40000000000E+03 0. -1.
   -9000007    1    1    2    0  502  0.19896543643E+03  0.13875322747E+03  0.16137049069E+04  0.16801438122E+04  0.40000000000E+03 0. -1.
<mgrwt>
<rscale>  2 0.46780306E+03</rscale>
<asrwt>0</asrwt>
<pdfrwt beam="1">  1       21 0.38956412E+00 0.46780306E+03</pdfrwt>
<pdfrwt beam="2">  1       21 0.14618714E-01 0.46780306E+03</pdfrwt>
<totfact> 0.31681532E+02</totfact>
</mgrwt>
</event>
<event>
 4    1  0.4918322E-002  0.4648586E+03  0.7818608E-02  0.1023381E+00
         21   -1    0    0  501  502  0.00000000000E+00  0.00000000000E+00  0.29932490362E+04  0.29932490362E+04  0.00000000000E+00 0.  1.
         21   -1    0    0  502  503 -0.00000000000E+00 -0.00000000000E+00 -0.92724547839E+02  0.92724547839E+02  0.00000000000E+00 0. -1.
    9000007    1    1    2  501    0 -0.21624947252E+03  0.96590111406E+02  0.72420789225E+03  0.86056409127E+03  0.40000000000E+03 0.  1.
   -9000007    1    1    2    0  503  0.21624947252E+03 -0.96590111406E+02  0.21763165961E+04  0.22254094927E+04  0.40000000000E+03 0.  1.
<mgrwt>
<rscale>  2 0.46485856E+03</rscale>
<asrwt>0</asrwt>
<pdfrwt beam="1">  1       21 0.46049978E+00 0.46485856E+03</pdfrwt>
<pdfrwt beam="2">  1       21 0.14265317E-01 0.46485856E+03</pdfrwt>
<totfact> 0.11307619E+02</totfact>
</mgrwt>
</event>
<event>
 4    1  0.4918322E-002  0.4764162E+03  0.7818608E-02  0.1020125E+00
         21   -1    0    0  501  502  0.00000000000E+00  0.00000000000E+00  0.69096312759E+02  0.69096312759E+02  0.00000000000E+00 0. -1.
         21   -1    0    0  502  503 -0.00000000000E+00 -0.00000000000E+00 -0.33242274588E+04  0.33242274588E+04  0.00000000000E+00 0.  1.
    9000007    1    1    2  501    0  0.18387108611E+02  0.25813627751E+03 -0.14429527030E+04  0.15195673485E+04  0.40000000000E+03 0.  1.
   -9000007    1    1    2    0  503 -0.18387108611E+02 -0.25813627751E+03 -0.18121784431E+04  0.18737564231E+04  0.40000000000E+03 0.  1.
<mgrwt>
<rscale>  2 0.47641623E+03</rscale>
<asrwt>0</asrwt>
<pdfrwt beam="1">  1       21 0.10630205E-01 0.47641623E+03</pdfrwt>
<pdfrwt beam="2">  1       21 0.51141949E+00 0.47641623E+03</pdfrwt>
<totfact> 0.84149301E+01</totfact>
</mgrwt>
</event>
<event>
 4    1  0.4918322E-002  0.4122959E+03  0.7818608E-02  0.1039603E+00
         21   -1    0    0  501  502  0.00000000000E+00  0.00000000000E+00  0.82483565049E+03  0.82483565049E+03  0.00000000000E+00 0.  1.
         21   -1    0    0  502  503 -0.00000000000E+00 -0.00000000000E+00 -0.21190553921E+03  0.21190553921E+03  0.00000000000E+00 0.  1.
    9000007    1    1    2  501    0  0.14428372738E+02  0.98892530709E+02  0.39236164502E+03  0.56915338096E+03  0.40000000000E+03 0.  1.
   -9000007    1    1    2    0  503 -0.14428372738E+02 -0.98892530709E+02  0.22056846626E+03  0.46758780873E+03  0.40000000000E+03 0.  1.
<mgrwt>
<rscale>  2 0.41229590E+03</rscale>
<asrwt>0</asrwt>
<pdfrwt beam="1">  1       21 0.12689779E+00 0.41229590E+03</pdfrwt>
<pdfrwt beam="2">  1       21 0.32600853E-01 0.41229590E+03</pdfrwt>
<totfact> 0.36681919E+03</totfact>
</mgrwt>
</event>
<event>
 4    1  0.4918322E-002  0.4197526E+03  0.7818608E-02  0.1037147E+00
         21   -1    0    0  503  502  0.00000000000E+00  0.00000000000E+00  0.26185867012E+03  0.26185867012E+03  0.00000000000E+00 0. -1.
         21   -1    0    0  501  503 -0.00000000000E+00 -0.00000000000E+00 -0.70189144283E+03  0.70189144283E+03  0.00000000000E+00 0. -1.
    9000007    1    1    2  501    0  0.49241178153E+02  0.11733518611E+03 -0.31803092089E+03  0.52662691364E+03  0.40000000000E+03 0. -1.
   -9000007    1    1    2    0  502 -0.49241178153E+02 -0.11733518611E+03 -0.12200185183E+03  0.43712319931E+03  0.40000000000E+03 0. -1.
<mgrwt>
<rscale>  2 0.41975259E+03</rscale>
<asrwt>0</asrwt>
<pdfrwt beam="1">  1       21 0.40285949E-01 0.41975259E+03</pdfrwt>
<pdfrwt beam="2">  1       21 0.10798330E+00 0.41975259E+03</pdfrwt>
<totfact> 0.35730959E+03</totfact>
</mgrwt>
</event>
<event>
 4    1  0.4918322E-002  0.4283879E+03  0.7818608E-02  0.1034370E+00
         21   -1    0    0  501  502  0.00000000000E+00  0.00000000000E+00  0.30467401873E+03  0.30467401873E+03  0.00000000000E+00 0. -1.
         21   -1    0    0  502  503 -0.00000000000E+00 -0.00000000000E+00 -0.96050735897E+03  0.96050735897E+03  0.00000000000E+00 0.  1.
    9000007    1    1    2  501    0  0.10520821788E+03  0.11156804428E+03  0.58377131156E+02  0.43234718347E+03  0.40000000000E+03 0. -1.
   -9000007    1    1    2    0  503 -0.10520821788E+03 -0.11156804428E+03 -0.71421047140E+03  0.83283419423E+03  0.40000000000E+03 0.  1.
<mgrwt>
<rscale>  2 0.42838791E+03</rscale>
<asrwt>0</asrwt>
<pdfrwt beam="1">  1       21 0.46872926E-01 0.42838791E+03</pdfrwt>
<pdfrwt beam="2">  1       21 0.14777036E+00 0.42838791E+03</pdfrwt>
<totfact> 0.11584895E+03</totfact>
</mgrwt>
</event>
<event>
 4    1  0.4918322E-002  0.4359382E+03  0.7818608E-02  0.1032000E+00
         21   -1    0    0  503  502  0.00000000000E+00  0.00000000000E+00  0.19190582555E+03  0.19190582555E+03  0.00000000000E+00 0.  1.
         21   -1    0    0  501  503 -0.00000000000E+00 -0.00000000000E+00 -0.10678559618E+04  0.10678559618E+04  0.00000000000E+00 0.  1.
    9000007    1    1    2  501    0  0.64230582817E+02  0.16098621514E+03 -0.60773763330E+03  0.74792189443E+03  0.40000000000E+03 0.  1.
   -9000007    1    1    2    0  502 -0.64230582817E+02 -0.16098621514E+03 -0.26821250294E+03  0.51183989290E+03  0.40000000000E+03 0.  1.
<mgrwt>
<rscale>  2 0.43593822E+03</rscale>
<asrwt>0</asrwt>
<pdfrwt beam="1">  1       21 0.29523973E-01 0.43593822E+03</pdfrwt>
<pdfrwt beam="2">  1       21 0.16428553E+00 0.43593822E+03</pdfrwt>
<totfact> 0.22150164E+03</totfact>
</mgrwt>
</event>
<event>
 4    1  0.4918322E-002  0.4711814E+03  0.7818608E-02  0.1021587E+00
         21   -1    0    0  503  502  0.00000000000E+00  0.00000000000E+00  0.28983886397E+03  0.28983886397E+03  0.00000000000E+00 0. -1.
         21   -1    0    0  501  503 -0.00000000000E+00 -0.00000000000E+00 -0.87926271231E+03  0.87926271231E+03  0.00000000000E+00 0.  1.
    9000007    1    1    2  501    0  0.67264732379E+01  0.24893101878E+03 -0.50452729671E+03  0.69033302882E+03  0.40000000000E+03 0.  1.
   -9000007    1    1    2    0  502 -0.67264732379E+01 -0.24893101878E+03 -0.84896551628E+02  0.47876854745E+03  0.40000000000E+03 0. -1.
<mgrwt>
<rscale>  2 0.47118138E+03</rscale>
<asrwt>0</asrwt>
<pdfrwt beam="1">  1       21 0.44590594E-01 0.47118138E+03</pdfrwt>
<pdfrwt beam="2">  1       21 0.13527119E+00 0.47118138E+03</pdfrwt>
<totfact> 0.16000761E+03</totfact>
</mgrwt>
</event>
<event>
 4    1  0.4918322E-002  0.5042272E+03  0.7818608E-02  0.1012681E+00
         21   -1    0    0  503  502  0.00000000000E+00  0.00000000000E+00  0.39553986361E+03  0.39553986361E+03  0.00000000000E+00 0.  1.
         21   -1    0    0  501  503 -0.00000000000E+00 -0.00000000000E+00 -0.96755042766E+03  0.96755042766E+03  0.00000000000E+00 0.  1.
    9000007    1    1    2  501    0 -0.30183417271E+03  0.56046812224E+02 -0.68086793924E+03  0.84724628277E+03  0.40000000000E+03 0.  1.
   -9000007    1    1    2    0  502  0.30183417271E+03 -0.56046812224E+02  0.10885737520E+03  0.51584400850E+03  0.40000000000E+03 0.  1.
<mgrwt>
<rscale>  2 0.50422724E+03</rscale>
<asrwt>0</asrwt>
<pdfrwt beam="1">  1       21 0.60852287E-01 0.50422724E+03</pdfrwt>
<pdfrwt beam="2">  1       21 0.14885391E+00 0.50422724E+03</pdfrwt>
<totfact> 0.62735481E+02</totfact>
</mgrwt>
</event>
<event>
 4    1  0.4918322E-002  0.6710978E+03  0.7818608E-02  0.9767977E-01
         21   -1    0    0  501  502  0.00000000000E+00  0.00000000000E+00  0.66000828624E+03  0.66000828624E+03  0.00000000000E+00 0.  1.
         21   -1    0    0  502  503 -0.00000000000E+00 -0.00000000000E+00 -0.69091101140E+03  0.69091101140E+03  0.00000000000E+00 0. -1.
    9000007    1    1    2  501    0  0.47158214089E+03  0.26073460690E+03 -0.90535927145E+02  0.67717723304E+03  0.40000000000E+03 0.  1.
   -9000007    1    1    2    0  503 -0.47158214089E+03 -0.26073460690E+03  0.59633201979E+02  0.67374206460E+03  0.40000000000E+03 0. -1.
<mgrwt>
<rscale>  2 0.67109780E+03</rscale>
<asrwt>0</asrwt>
<pdfrwt beam="1">  1       21 0.10153974E+00 0.67109780E+03</pdfrwt>
<pdfrwt beam="2">  1       21 0.10629400E+00 0.67109780E+03</pdfrwt>
<totfact> 0.43272880E+02</totfact>
</mgrwt>
</event>
<event>
 4    1  0.4918322E-002  0.4990867E+03  0.7818608E-02  0.1014018E+00
         21   -1    0    0  501  502  0.00000000000E+00  0.00000000000E+00  0.62805469226E+03  0.62805469226E+03  0.00000000000E+00 0. -1.
         21   -1    0    0  502  503 -0.00000000000E+00 -0.00000000000E+00 -0.41530604407E+03  0.41530604407E+03  0.00000000000E+00 0. -1.
    9000007    1    1    2  501    0 -0.27626842709E+03 -0.11297455804E+03  0.21708583909E+03  0.54425523066E+03  0.40000000000E+03 0. -1.
   -9000007    1    1    2    0  503  0.27626842709E+03  0.11297455804E+03 -0.43371908995E+01  0.49910550567E+03  0.40000000000E+03 0. -1.
<mgrwt>
<rscale>  2 0.49908666E+03</rscale>
<asrwt>0</asrwt>
<pdfrwt beam="1">  1       21 0.96623799E-01 0.49908666E+03</pdfrwt>
<pdfrwt beam="2">  1       21 0.63893238E-01 0.49908666E+03</pdfrwt>
<totfact> 0.17017041E+03</totfact>
</mgrwt>
</event>
<event>
 4    1  0.4918322E-002  0.5342255E+03  0.7818608E-02  0.1005212E+00
         21   -1    0    0  503  502  0.00000000000E+00  0.00000000000E+00  0.29581195499E+03  0.29581195499E+03  0.00000000000E+00 0. -1.
         21   -1    0    0  501  503 -0.00000000000E+00 -0.00000000000E+00 -0.14545307191E+04  0.14545307191E+04  0.00000000000E+00 0.  1.
    9000007    1    1    2  501    0  0.33814717139E+03  0.10513525696E+03 -0.10871842578E+04  0.12113490588E+04  0.40000000000E+03 0.  1.
   -9000007    1    1    2    0  502 -0.33814717139E+03 -0.10513525696E+03 -0.71534506313E+02  0.53899361533E+03  0.40000000000E+03 0. -1.
<mgrwt>
<rscale>  2 0.53422554E+03</rscale>
<asrwt>0</asrwt>
<pdfrwt beam="1">  1       21 0.45509530E-01 0.53422554E+03</pdfrwt>
<pdfrwt beam="2">  1       21 0.22377396E+00 0.53422554E+03</pdfrwt>
<totfact> 0.34461189E+02</totfact>
</mgrwt>
</event>
<event>
 4    1  0.4918322E-002  0.5411678E+03  0.7818608E-02  0.1003559E+00
         21   -1    0    0  503  502  0.00000000000E+00  0.00000000000E+00  0.42575643119E+03  0.42575643119E+03  0.00000000000E+00 0.  1.
         21   -1    0    0  501  503 -0.00000000000E+00 -0.00000000000E+00 -0.72025856061E+03  0.72025856061E+03  0.00000000000E+00 0. -1.
    9000007    1    1    2  501    0 -0.25411230999E+02  0.36361628892E+03 -0.26877222521E+03  0.60423591856E+03  0.40000000000E+03 0. -1.
   -9000007    1    1    2    0  502  0.25411230999E+02 -0.36361628892E+03 -0.25729904206E+02  0.54177907324E+03  0.40000000000E+03 0.  1.
<mgrwt>
<rscale>  2 0.54116775E+03</rscale>
<asrwt>0</asrwt>
<pdfrwt beam="1">  1       21 0.65500990E-01 0.54116775E+03</pdfrwt>
<pdfrwt beam="2">  1       21 0.11080901E+00 0.54116775E+03</pdfrwt>
<totfact> 0.11333309E+03</totfact>
</mgrwt>
</event>
<event>
 4    1  0.4918322E-002  0.5098173E+03  0.7818608E-02  0.1011248E+00
         21   -1    0    0  501  502  0.00000000000E+00  0.00000000000E+00  0.91561038278E+03  0.91561038278E+03  0.00000000000E+00 0. -1.
         21   -1    0    0  502  503 -0.00000000000E+00 -0.00000000000E+00 -0.40138394489E+03  0.40138394489E+03  0.00000000000E+00 0.  1.
    9000007    1    1    2  501    0  0.73553991397E+02  0.30741416062E+03  0.61341660717E+03  0.79761744574E+03  0.40000000000E+03 0.  1.
   -9000007    1    1    2    0  503 -0.73553991397E+02 -0.30741416062E+03 -0.99190169285E+02  0.51937688193E+03  0.40000000000E+03 0. -1.
<mgrwt>
<rscale>  2 0.50981728E+03</rscale>
<asrwt>0</asrwt>
<pdfrwt beam="1">  1       21 0.14086314E+00 0.50981728E+03</pdfrwt>
<pdfrwt beam="2">  1       21 0.61751376E-01 0.50981728E+03</pdfrwt>
<totfact> 0.70337052E+02</totfact>
</mgrwt>
</event>
<event>
 4    1  0.4918322E-002  0.4783350E+03  0.7818608E-02  0.1019594E+00
         21   -1    0    0  503  502  0.00000000000E+00  0.00000000000E+00  0.20452225933E+04  0.20452225933E+04  0.00000000000E+00 0. -1.
         21   -1    0    0  501  503 -0.00000000000E+00 -0.00000000000E+00 -0.11189657981E+03  0.11189657981E+03  0.00000000000E+00 0. -1.
    9000007    1    1    2  501    0  0.88214681231E+02 -0.24702736336E+03  0.95087050405E+03  0.10644054978E+04  0.40000000000E+03 0. -1.
   -9000007    1    1    2    0  502 -0.88214681231E+02  0.24702736336E+03  0.98245550947E+03  0.10927136754E+04  0.40000000000E+03 0. -1.
<mgrwt>
<rscale>  2 0.47833497E+03</rscale>
<asrwt>0</asrwt>
<pdfrwt beam="1">  1       21 0.31464960E+00 0.47833497E+03</pdfrwt>
<pdfrwt beam="2">  1       21 0.17214860E-01 0.47833497E+03</pdfrwt>
<totfact> 0.67305710E+02</totfact>
</mgrwt>
</event>
<event>
 4    1  0.4918322E-002  0.4971379E+03  0.7818608E-02  0.1014529E+00
         21   -1    0    0  503  502  0.00000000000E+00  0.00000000000E+00  0.17208017842E+03  0.17208017842E+03  0.00000000000E+00 0.  1.
         21   -1    0    0  501  503 -0.00000000000E+00 -0.00000000000E+00 -0.17308804445E+04  0.17308804445E+04  0.00000000000E+00 0. -1.
    9000007    1    1    2  501    0  0.80697593088E+01 -0.29509492142E+03 -0.11719748343E+04  0.12730558298E+04  0.40000000000E+03 0. -1.
   -9000007    1    1    2    0  502 -0.80697593088E+01  0.29509492142E+03 -0.38682543178E+03  0.62990479307E+03  0.40000000000E+03 0.  1.
<mgrwt>
<rscale>  2 0.49713794E+03</rscale>
<asrwt>0</asrwt>
<pdfrwt beam="1">  1       21 0.26473873E-01 0.49713794E+03</pdfrwt>
<pdfrwt beam="2">  1       21 0.26628931E+00 0.49713794E+03</pdfrwt>
<totfact> 0.57232618E+02</totfact>
</mgrwt>
</event>
<event>
 4    1  0.4918322E-002  0.4794151E+03  0.7818608E-02  0.1019296E+00
         21   -1    0    0  503  502  0.00000000000E+00  0.00000000000E+00  0.79795826209E+03  0.79795826209E+03  0.00000000000E+00 0. -1.
         21   -1    0    0  501  503 -0.00000000000E+00 -0.00000000000E+00 -0.29414382338E+03  0.29414382338E+03  0.00000000000E+00 0. -1.
    9000007    1    1    2  501    0 -0.17555752002E+03 -0.19753070976E+03  0.33060825310E+03  0.58235782914E+03  0.40000000000E+03 0. -1.
   -9000007    1    1    2    0  502  0.17555752002E+03  0.19753070976E+03  0.17320618561E+03  0.50974425634E+03  0.40000000000E+03 0. -1.
<mgrwt>
<rscale>  2 0.47941509E+03</rscale>
<asrwt>0</asrwt>
<pdfrwt beam="1">  1       21 0.12276281E+00 0.47941509E+03</pdfrwt>
<pdfrwt beam="2">  1       21 0.45252896E-01 0.47941509E+03</pdfrwt>
<totfact> 0.19892270E+03</totfact>
</mgrwt>
</event>
<event>
 4    1  0.4918322E-002  0.4348598E+03  0.7818608E-02  0.1032336E+00
         21   -1    0    0  503  502  0.00000000000E+00  0.00000000000E+00  0.22466887977E+03  0.22466887977E+03  0.00000000000E+00 0.  1.
         21   -1    0    0  501  503 -0.00000000000E+00 -0.00000000000E+00 -0.84171557685E+03  0.84171557685E+03  0.00000000000E+00 0.  1.
    9000007    1    1    2  501    0 -0.10477764260E+03  0.13462811779E+03 -0.30600720655E+03  0.53173630208E+03  0.40000000000E+03 0.  1.
   -9000007    1    1    2    0  502  0.10477764260E+03 -0.13462811779E+03 -0.31103949052E+03  0.53464815454E+03  0.40000000000E+03 0.  1.
<mgrwt>
<rscale>  2 0.43485984E+03</rscale>
<asrwt>0</asrwt>
<pdfrwt beam="1">  1       21 0.34564443E-01 0.43485984E+03</pdfrwt>
<pdfrwt beam="2">  1       21 0.12949470E+00 0.43485984E+03</pdfrwt>
<totfact> 0.30683759E+03</totfact>
</mgrwt>
</event>
<event>
 4    1  0.4918322E-002  0.4037932E+03  0.7818608E-02  0.1042474E+00
         21   -1    0    0  503  502  0.00000000000E+00  0.00000000000E+00  0.30703574313E+03  0.30703574313E+03  0.00000000000E+00 0. -1.
         21   -1    0    0  501  503 -0.00000000000E+00 -0.00000000000E+00 -0.53458836431E+03  0.53458836431E+03  0.00000000000E+00 0. -1.
    9000007    1    1    2  501    0  0.46245292068E+02  0.30171713408E+02 -0.14804940337E+03  0.43007858022E+03  0.40000000000E+03 0. -1.
   -9000007    1    1    2    0  502 -0.46245292068E+02 -0.30171713408E+02 -0.79503217807E+02  0.41154552721E+03  0.40000000000E+03 0. -1.
<mgrwt>
<rscale>  2 0.40379321E+03</rscale>
<asrwt>0</asrwt>
<pdfrwt beam="1">  1       21 0.47236269E-01 0.40379321E+03</pdfrwt>
<pdfrwt beam="2">  1       21 0.82244363E-01 0.40379321E+03</pdfrwt>
<totfact> 0.49484703E+03</totfact>
</mgrwt>
</event>
<event>
 4    1  0.4918322E-002  0.4116813E+03  0.7818608E-02  0.1039808E+00
         21   -1    0    0  501  502  0.00000000000E+00  0.00000000000E+00  0.97515975368E+02  0.97515975368E+02  0.00000000000E+00 0.  1.
         21   -1    0    0  502  503 -0.00000000000E+00 -0.00000000000E+00 -0.19866141109E+04  0.19866141109E+04  0.00000000000E+00 0.  1.
    9000007    1    1    2  501    0  0.39236636078E+01  0.97293764512E+02 -0.57590050795E+03  0.70791444879E+03  0.40000000000E+03 0.  1.
   -9000007    1    1    2    0  503 -0.39236636078E+01 -0.97293764512E+02 -0.13131976275E+04  0.13762156374E+04  0.40000000000E+03 0.  1.
<mgrwt>
<rscale>  2 0.41168127E+03</rscale>
<asrwt>0</asrwt>
<pdfrwt beam="1">  1       21 0.15002457E-01 0.41168127E+03</pdfrwt>
<pdfrwt beam="2">  1       21 0.30563295E+00 0.41168127E+03</pdfrwt>
<totfact> 0.10232054E+03</totfact>
</mgrwt>
</event>
<event>
 4    1  0.4918322E-002  0.5639685E+03  0.7818608E-02  0.9983115E-01
         21   -1    0    0  503  502  0.00000000000E+00  0.00000000000E+00  0.97406375973E+03  0.97406375973E+03  0.00000000000E+00 0.  1.
         21   -1    0    0  501  503 -0.00000000000E+00 -0.00000000000E+00 -0.39892465114E+03  0.39892465114E+03  0.00000000000E+00 0.  1.
    9000007    1    1    2  501    0 -0.62050852314E+02 -0.39269596007E+03  0.58001614972E+03  0.80899886234E+03  0.40000000000E+03 0.  1.
   -9000007    1    1    2    0  502  0.62050852314E+02  0.39269596007E+03 -0.48770411362E+01  0.56398954853E+03  0.40000000000E+03 0.  1.
<mgrwt>
<rscale>  2 0.56396846E+03</rscale>
<asrwt>0</asrwt>
<pdfrwt beam="1">  1       21 0.14985596E+00 0.56396846E+03</pdfrwt>
<pdfrwt beam="2">  1       21 0.61373023E-01 0.56396846E+03</pdfrwt>
<totfact> 0.59110206E+02</totfact>
</mgrwt>
</event>
<event>
 4    1  0.4918322E-002  0.5061799E+03  0.7818608E-02  0.1012178E+00
         21   -1    0    0  501  502  0.00000000000E+00  0.00000000000E+00  0.12630021870E+03  0.12630021870E+03  0.00000000000E+00 0.  1.
         21   -1    0    0  502  503 -0.00000000000E+00 -0.00000000000E+00 -0.20401575425E+04  0.20401575425E+04  0.00000000000E+00 0. -1.
    9000007    1    1    2  501    0 -0.81960023395E+02  0.29916652180E+03 -0.87554974107E+03  0.10113384212E+04  0.40000000000E+03 0. -1.
   -9000007    1    1    2    0  503  0.81960023395E+02 -0.29916652180E+03 -0.10383075828E+04  0.11551193400E+04  0.40000000000E+03 0. -1.
<mgrwt>
<rscale>  2 0.50617986E+03</rscale>
<asrwt>0</asrwt>
<pdfrwt beam="1">  1       21 0.19430804E-01 0.50617986E+03</pdfrwt>
<pdfrwt beam="2">  1       21 0.31387037E+00 0.50617986E+03</pdfrwt>
<totfact> 0.53341154E+02</totfact>
</mgrwt>
</event>
<event>
 4    1  0.4918322E-002  0.5700448E+03  0.7818608E-02  0.9969580E-01
         21   -1    0    0  501  502  0.00000000000E+00  0.00000000000E+00  0.14512970102E+04  0.14512970102E+04  0.00000000000E+00 0.  1.
         21   -1    0    0  502  503 -0.00000000000E+00 -0.00000000000E+00 -0.10430570581E+04  0.10430570581E+04  0.00000000000E+00 0. -1.
    9000007    1    1    2  501    0 -0.39455335966E+03  0.96325940192E+02  0.13093600688E+04  0.14280668157E+04  0.40000000000E+03 0.  1.
   -9000007    1    1    2    0  503  0.39455335966E+03 -0.96325940192E+02 -0.90112011671E+03  0.10662872526E+04  0.40000000000E+03 0. -1.
<mgrwt>
<rscale>  2 0.57004477E+03</rscale>
<asrwt>0</asrwt>
<pdfrwt beam="1">  1       21 0.22327646E+00 0.57004477E+03</pdfrwt>
<pdfrwt beam="2">  1       21 0.16047032E+00 0.57004477E+03</pdfrwt>
<totfact> 0.16865392E+01</totfact>
</mgrwt>
</event>
<event>
 4    1  0.4918322E-002  0.5319845E+03  0.7818608E-02  0.1005752E+00
         21   -1    0    0  501  502  0.00000000000E+00  0.00000000000E+00  0.26741923261E+03  0.26741923261E+03  0.00000000000E+00 0. -1.
         21   -1    0    0  502  503 -0.00000000000E+00 -0.00000000000E+00 -0.12941925070E+04  0.12941925070E+04  0.00000000000E+00 0.  1.
    9000007    1    1    2  501    0 -0.33673506550E+03 -0.98066566678E+02 -0.18003059064E+03  0.56162137548E+03  0.40000000000E+03 0.  1.
   -9000007    1    1    2    0  503  0.33673506550E+03  0.98066566678E+02 -0.84674268372E+03  0.99999036409E+03  0.40000000000E+03 0. -1.
<mgrwt>
<rscale>  2 0.53198454E+03</rscale>
<asrwt>0</asrwt>
<pdfrwt beam="1">  1       21 0.41141421E-01 0.53198454E+03</pdfrwt>
<pdfrwt beam="2">  1       21 0.19910654E+00 0.53198454E+03</pdfrwt>
<totfact> 0.61805043E+02</totfact>
</mgrwt>
</event>
<event>
 4    1  0.4918322E-002  0.4889470E+03  0.7818608E-02  0.1016705E+00
         21   -1    0    0  503  502  0.00000000000E+00  0.00000000000E+00  0.28162025329E+03  0.28162025329E+03  0.00000000000E+00 0. -1.
         21   -1    0    0  501  503 -0.00000000000E+00 -0.00000000000E+00 -0.86473995850E+03  0.86473995850E+03  0.00000000000E+00 0. -1.
    9000007    1    1    2  501    0  0.14583964668E+03 -0.24041628286E+03 -0.36912019938E+03  0.61263277189E+03  0.40000000000E+03 0. -1.
   -9000007    1    1    2    0  502 -0.14583964668E+03  0.24041628286E+03 -0.21399950583E+03  0.53372743990E+03  0.40000000000E+03 0. -1.
<mgrwt>
<rscale>  2 0.48894702E+03</rscale>
<asrwt>0</asrwt>
<pdfrwt beam="1">  1       21 0.43326194E-01 0.48894702E+03</pdfrwt>
<pdfrwt beam="2">  1       21 0.13303691E+00 0.48894702E+03</pdfrwt>
<totfact> 0.17632469E+03</totfact>
</mgrwt>
</event>
<event>
 4    1  0.4918322E-002  0.4769466E+03  0.7818608E-02  0.1019978E+00
         21   -1    0    0  503  502  0.00000000000E+00  0.00000000000E+00  0.35910771575E+03  0.35910771575E+03  0.00000000000E+00 0. -1.
         21   -1    0    0  501  503 -0.00000000000E+00 -0.00000000000E+00 -0.64351609855E+03  0.64351609855E+03  0.00000000000E+00 0. -1.
    9000007    1    1    2  501    0  0.89583025944E+02 -0.24382970128E+03 -0.79516360238E+02  0.48352961989E+03  0.40000000000E+03 0. -1.
   -9000007    1    1    2    0  502 -0.89583025944E+02  0.24382970128E+03 -0.20489202256E+03  0.51909419441E+03  0.40000000000E+03 0. -1.
<mgrwt>
<rscale>  2 0.47694658E+03</rscale>
<asrwt>0</asrwt>
<pdfrwt beam="1">  1       21 0.55247341E-01 0.47694658E+03</pdfrwt>
<pdfrwt beam="2">  1       21 0.99002477E-01 0.47694658E+03</pdfrwt>
<totfact> 0.22238656E+03</totfact>
</mgrwt>
</event>
<event>
 4    1  0.4918322E-002  0.4012184E+03  0.7818608E-02  0.1043359E+00
         21   -1    0    0  501  502  0.00000000000E+00  0.00000000000E+00  0.71755915638E+02  0.71755915638E+02  0.00000000000E+00 0. -1.
         21   -1    0    0  502  503 -0.00000000000E+00 -0.00000000000E+00 -0.23993452808E+04  0.23993452808E+04  0.00000000000E+00 0. -1.
    9000007    1    1    2  501    0 -0.27517536020E+02  0.14799155564E+02 -0.84878818259E+03  0.93883843589E+03  0.40000000000E+03 0. -1.
   -9000007    1    1    2    0  503  0.27517536020E+02 -0.14799155564E+02 -0.14788011826E+04  0.15322627605E+04  0.40000000000E+03 0. -1.
<mgrwt>
<rscale>  2 0.40121843E+03</rscale>
<asrwt>0</asrwt>
<pdfrwt beam="1">  1       21 0.11039374E-01 0.40121843E+03</pdfrwt>
<pdfrwt beam="2">  1       21 0.36912995E+00 0.40121843E+03</pdfrwt>
<totfact> 0.74295909E+02</totfact>
</mgrwt>
</event>
<event>
 4    1  0.4918322E-002  0.4328719E+03  0.7818608E-02  0.1032957E+00
         21   -1    0    0  503  502  0.00000000000E+00  0.00000000000E+00  0.12056563132E+03  0.12056563132E+03  0.00000000000E+00 0. -1.
         21   -1    0    0  501  503 -0.00000000000E+00 -0.00000000000E+00 -0.15542450744E+04  0.15542450744E+04  0.00000000000E+00 0.  1.
    9000007    1    1    2  501    0  0.16327804282E+03  0.26801883608E+02 -0.71057774267E+03  0.83204494387E+03  0.40000000000E+03 0.  1.
   -9000007    1    1    2    0  502 -0.16327804282E+03 -0.26801883608E+02 -0.72310170040E+03  0.84276576186E+03  0.40000000000E+03 0. -1.
<mgrwt>
<rscale>  2 0.43287188E+03</rscale>
<asrwt>0</asrwt>
<pdfrwt beam="1">  1       21 0.18548559E-01 0.43287188E+03</pdfrwt>
<pdfrwt beam="2">  1       21 0.23911462E+00 0.43287188E+03</pdfrwt>
<totfact> 0.17192542E+03</totfact>
</mgrwt>
</event>
<event>
 4    1  0.4918322E-002  0.4375763E+03  0.7818608E-02  0.1031493E+00
         21   -1    0    0  503  502  0.00000000000E+00  0.00000000000E+00  0.12865770949E+04  0.12865770949E+04  0.00000000000E+00 0.  1.
         21   -1    0    0  501  503 -0.00000000000E+00 -0.00000000000E+00 -0.38022137386E+03  0.38022137386E+03  0.00000000000E+00 0.  1.
    9000007    1    1    2  501    0 -0.94816626358E+02  0.14994280292E+03 -0.19697341766E+03  0.47986619390E+03  0.40000000000E+03 0.  1.
   -9000007    1    1    2    0  502  0.94816626358E+02 -0.14994280292E+03  0.11033291387E+04  0.11869322749E+04  0.40000000000E+03 0.  1.
<mgrwt>
<rscale>  2 0.43757632E+03</rscale>
<asrwt>0</asrwt>
<pdfrwt beam="1">  1       21 0.19793494E+00 0.43757632E+03</pdfrwt>
<pdfrwt beam="2">  1       21 0.58495596E-01 0.43757632E+03</pdfrwt>
<totfact> 0.31109145E+02</totfact>
</mgrwt>
</event>
<event>
 4    1  0.4918322E-002  0.5635361E+03  0.7818608E-02  0.9984085E-01
         21   -1    0    0  501  502  0.00000000000E+00  0.00000000000E+00  0.11502229589E+04  0.11502229589E+04  0.00000000000E+00 0.  1.
         21   -1    0    0  502  503 -0.00000000000E+00 -0.00000000000E+00 -0.47727512872E+03  0.47727512872E+03  0.00000000000E+00 0. -1.
    9000007    1    1    2  501    0 -0.30527477721E+03  0.25373256711E+03  0.86479344141E+03  0.10322018221E+04  0.40000000000E+03 0.  1.
   -9000007    1    1    2    0  503  0.30527477721E+03 -0.25373256711E+03 -0.19184561122E+03  0.59529626553E+03  0.40000000000E+03 0. -1.
<mgrwt>
<rscale>  2 0.56353607E+03</rscale>
<asrwt>0</asrwt>
<pdfrwt beam="1">  1       21 0.17695738E+00 0.56353607E+03</pdfrwt>
<pdfrwt beam="2">  1       21 0.73426943E-01 0.56353607E+03</pdfrwt>
<totfact> 0.24701902E+02</totfact>
</mgrwt>
</event>
<event>
 4    1  0.4918322E-002  0.4642240E+03  0.7818608E-02  0.1023563E+00
         21   -1    0    0  503  502  0.00000000000E+00  0.00000000000E+00  0.15654073937E+03  0.15654073937E+03  0.00000000000E+00 0.  1.
         21   -1    0    0  501  503 -0.00000000000E+00 -0.00000000000E+00 -0.13776091121E+04  0.13776091121E+04  0.00000000000E+00 0. -1.
    9000007    1    1    2  501    0  0.18577785357E+03 -0.14488098798E+03 -0.63063190837E+03  0.78307120711E+03  0.40000000000E+03 0. -1.
   -9000007    1    1    2    0  502 -0.18577785357E+03  0.14488098798E+03 -0.59043646436E+03  0.75107864435E+03  0.40000000000E+03 0.  1.
<mgrwt>
<rscale>  2 0.46422399E+03</rscale>
<asrwt>0</asrwt>
<pdfrwt beam="1">  1       21 0.24083190E-01 0.46422399E+03</pdfrwt>
<pdfrwt beam="2">  1       21 0.21193987E+00 0.46422399E+03</pdfrwt>
<totfact> 0.15290729E+03</totfact>
</mgrwt>
</event>
<event>
 4    1  0.4918322E-002  0.4484677E+03  0.7818608E-02  0.1028180E+00
         21   -1    0    0  501  502  0.00000000000E+00  0.00000000000E+00  0.13011658024E+04  0.13011658024E+04  0.00000000000E+00 0. -1.
         21   -1    0    0  502  503 -0.00000000000E+00 -0.00000000000E+00 -0.37169114246E+03  0.37169114246E+03  0.00000000000E+00 0. -1.
    9000007    1    1    2  501    0 -0.11330493199E+03  0.16818224445E+03  0.11040115094E+04  0.11916227120E+04  0.40000000000E+03 0. -1.
   -9000007    1    1    2    0  503  0.11330493199E+03 -0.16818224445E+03 -0.17453684951E+03  0.48123423278E+03  0.40000000000E+03 0. -1.
<mgrwt>
<rscale>  2 0.44846770E+03</rscale>
<asrwt>0</asrwt>
<pdfrwt beam="1">  1       21 0.20017935E+00 0.44846770E+03</pdfrwt>
<pdfrwt beam="2">  1       21 0.57183253E-01 0.44846770E+03</pdfrwt>
<totfact> 0.31396236E+02</totfact>
</mgrwt>
</event>
<event>
 4    1  0.4918322E-002  0.4170639E+03  0.7818608E-02  0.1038026E+00
         21   -1    0    0  503  502  0.00000000000E+00  0.00000000000E+00  0.11013551272E+03  0.11013551272E+03  0.00000000000E+00 0.  1.
         21   -1    0    0  501  503 -0.00000000000E+00 -0.00000000000E+00 -0.15811698912E+04  0.15811698912E+04  0.00000000000E+00 0.  1.
    9000007    1    1    2  501    0 -0.55770281417E+02  0.10407680960E+03 -0.70681211014E+03  0.82068609445E+03  0.40000000000E+03 0.  1.
   -9000007    1    1    2    0  502  0.55770281417E+02 -0.10407680960E+03 -0.76422226829E+03  0.87061930942E+03  0.40000000000E+03 0.  1.
<mgrwt>
<rscale>  2 0.41706391E+03</rscale>
<asrwt>0</asrwt>
<pdfrwt beam="1">  1       21 0.16943925E-01 0.41706391E+03</pdfrwt>
<pdfrwt beam="2">  1       21 0.24325691E+00 0.41706391E+03</pdfrwt>
<totfact> 0.19360632E+03</totfact>
</mgrwt>
</event>
<event>
 4    1  0.4918322E-002  0.4544981E+03  0.7818608E-02  0.1026389E+00
         21   -1    0    0  503  502  0.00000000000E+00  0.00000000000E+00  0.16416474908E+03  0.16416474908E+03  0.00000000000E+00 0.  1.
         21   -1    0    0  501  503 -0.00000000000E+00 -0.00000000000E+00 -0.12591622680E+04  0.12591622680E+04  0.00000000000E+00 0.  1.
    9000007    1    1    2  501    0  0.16972494076E+03 -0.13327390966E+03 -0.52887465878E+03  0.69733556858E+03  0.40000000000E+03 0.  1.
   -9000007    1    1    2    0  502 -0.16972494076E+03  0.13327390966E+03 -0.56612286011E+03  0.72599144847E+03  0.40000000000E+03 0.  1.
<mgrwt>
<rscale>  2 0.45449806E+03</rscale>
<asrwt>0</asrwt>
<pdfrwt beam="1">  1       21 0.25256115E-01 0.45449806E+03</pdfrwt>
<pdfrwt beam="2">  1       21 0.19371727E+00 0.45449806E+03</pdfrwt>
<totfact> 0.18492033E+03</totfact>
</mgrwt>
</event>
<event>
 4    1  0.4918322E-002  0.4428023E+03  0.7818608E-02  0.1029890E+00
         21   -1    0    0  503  502  0.00000000000E+00  0.00000000000E+00  0.82360338289E+03  0.82360338289E+03  0.00000000000E+00 0. -1.
         21   -1    0    0  501  503 -0.00000000000E+00 -0.00000000000E+00 -0.30520427576E+03  0.30520427576E+03  0.00000000000E+00 0. -1.
    9000007    1    1    2  501    0  0.18145171770E+03 -0.56116953220E+02 -0.55116800496E+01  0.44283655778E+03  0.40000000000E+03 0. -1.
   -9000007    1    1    2    0  502 -0.18145171770E+03  0.56116953220E+02  0.52391078719E+03  0.68597110087E+03  0.40000000000E+03 0. -1.
<mgrwt>
<rscale>  2 0.44280226E+03</rscale>
<asrwt>0</asrwt>
<pdfrwt beam="1">  1       21 0.12670821E+00 0.44280226E+03</pdfrwt>
<pdfrwt beam="2">  1       21 0.46954504E-01 0.44280226E+03</pdfrwt>
<totfact> 0.17206112E+03</totfact>
</mgrwt>
</event>
<event>
 4    1  0.4918322E-002  0.5494364E+03  0.7818608E-02  0.1001624E+00
         21   -1    0    0  501  502  0.00000000000E+00  0.00000000000E+00  0.14299289314E+04  0.14299289314E+04  0.00000000000E+00 0.  1.
         21   -1    0    0  502  503 -0.00000000000E+00 -0.00000000000E+00 -0.60870915102E+03  0.60870915102E+03  0.00000000000E+00 0. -1.
    9000007    1    1    2  501    0 -0.41200826016E+02  0.37440995496E+03  0.12344157570E+04  0.13511708195E+04  0.40000000000E+03 0.  1.
   -9000007    1    1    2    0  503  0.41200826016E+02 -0.37440995496E+03 -0.41319597662E+03  0.68746726288E+03  0.40000000000E+03 0. -1.
<mgrwt>
<rscale>  2 0.54943637E+03</rscale>
<asrwt>0</asrwt>
<pdfrwt beam="1">  1       21 0.21998906E+00 0.54943637E+03</pdfrwt>
<pdfrwt beam="2">  1       21 0.93647562E-01 0.54943637E+03</pdfrwt>
<totfact> 0.71903917E+01</totfact>
</mgrwt>
</event>
<event>
 4    1  0.4918322E-002  0.5258772E+03  0.7818608E-02  0.1007237E+00
         21   -1    0    0  501  502  0.00000000000E+00  0.00000000000E+00  0.55590415749E+03  0.55590415749E+03  0.00000000000E+00 0.  1.
         21   -1    0    0  502  503 -0.00000000000E+00 -0.00000000000E+00 -0.49749387021E+03  0.49749387021E+03  0.00000000000E+00 0.  1.
    9000007    1    1    2  501    0  0.34001764340E+03 -0.30574848464E+02  0.32687798234E+02  0.52689212495E+03  0.40000000000E+03 0. -1.
   -9000007    1    1    2    0  503 -0.34001764340E+03  0.30574848464E+02  0.25722489044E+02  0.52650590274E+03  0.40000000000E+03 0. -1.
<mgrwt>
<rscale>  2 0.52587719E+03</rscale>
<asrwt>0</asrwt>
<pdfrwt beam="1">  1       21 0.85523716E-01 0.52587719E+03</pdfrwt>
<pdfrwt beam="2">  1       21 0.76537519E-01 0.52587719E+03</pdfrwt>
<totfact> 0.15000388E+03</totfact>
</mgrwt>
</event>
<event>
 4    1  0.4918322E-002  0.5113267E+03  0.7818608E-02  0.1010864E+00
         21   -1    0    0  503  502  0.00000000000E+00  0.00000000000E+00  0.35882410221E+03  0.35882410221E+03  0.00000000000E+00 0.  1.
         21   -1    0    0  501  503 -0.00000000000E+00 -0.00000000000E+00 -0.91762992403E+03  0.91762992403E+03  0.00000000000E+00 0. -1.
    9000007    1    1    2  501    0  0.72889271970E+02 -0.31006801933E+03 -0.56904131665E+03  0.76502486406E+03  0.40000000000E+03 0. -1.
   -9000007    1    1    2    0  502 -0.72889271970E+02  0.31006801933E+03  0.10235494825E+02  0.51142916219E+03  0.40000000000E+03 0.  1.
<mgrwt>
<rscale>  2 0.51132673E+03</rscale>
<asrwt>0</asrwt>
<pdfrwt beam="1">  1       21 0.55203708E-01 0.51132673E+03</pdfrwt>
<pdfrwt beam="2">  1       21 0.14117384E+00 0.51132673E+03</pdfrwt>
<totfact> 0.89301100E+02</totfact>
</mgrwt>
</event>
<event>
 4    1  0.4918322E-002  0.9790725E+03  0.7818608E-02  0.9331800E-01
         21   -1    0    0  501  502  0.00000000000E+00  0.00000000000E+00  0.97918687823E+03  0.97918687823E+03  0.00000000000E+00 0. -1.
         21   -1    0    0  502  503 -0.00000000000E+00 -0.00000000000E+00 -0.11037512572E+04  0.11037512572E+04  0.00000000000E+00 0. -1.
    9000007    1    1    2  501    0 -0.35762646163E+03 -0.81895441215E+03  0.28790963053E+03  0.10205268103E+04  0.40000000000E+03 0. -1.
   -9000007    1    1    2    0  503  0.35762646163E+03  0.81895441215E+03 -0.41247400952E+03  0.10624113251E+04  0.40000000000E+03 0. -1.
<mgrwt>
<rscale>  2 0.97907253E+03</rscale>
<asrwt>0</asrwt>
<pdfrwt beam="1">  1       21 0.15064414E+00 0.97907253E+03</pdfrwt>
<pdfrwt beam="2">  1       21 0.16980789E+00 0.97907253E+03</pdfrwt>
<totfact> 0.40388682E+01</totfact>
</mgrwt>
</event>
<event>
 4    1  0.4918322E-002  0.5189340E+03  0.7818608E-02  0.1008952E+00
         21   -1    0    0  501  502  0.00000000000E+00  0.00000000000E+00  0.32707786063E+03  0.32707786063E+03  0.00000000000E+00 0. -1.
         21   -1    0    0  502  503 -0.00000000000E+00 -0.00000000000E+00 -0.82608461795E+03  0.82608461795E+03  0.00000000000E+00 0. -1.
    9000007    1    1    2  501    0 -0.28195134282E+03  0.17261490760E+03 -0.28280851304E+03  0.59099333422E+03  0.40000000000E+03 0. -1.
   -9000007    1    1    2    0  503  0.28195134282E+03 -0.17261490760E+03 -0.21619824428E+03  0.56216914436E+03  0.40000000000E+03 0. -1.
<mgrwt>
<rscale>  2 0.51893397E+03</rscale>
<asrwt>0</asrwt>
<pdfrwt beam="1">  1       21 0.50319672E-01 0.51893397E+03</pdfrwt>
<pdfrwt beam="2">  1       21 0.12708994E+00 0.51893397E+03</pdfrwt>
<totfact> 0.14330478E+03</totfact>
</mgrwt>
</event>
<event>
 4    1  0.4918322E-002  0.4408928E+03  0.7818608E-02  0.1030473E+00
         21   -1    0    0  503  502  0.00000000000E+00  0.00000000000E+00  0.14030076972E+03  0.14030076972E+03  0.00000000000E+00 0. -1.
         21   -1    0    0  501  503 -0.00000000000E+00 -0.00000000000E+00 -0.14478487464E+04  0.14478487464E+04  0.00000000000E+00 0. -1.
    9000007    1    1    2  501    0  0.56581349234E+02 -0.17659280723E+03 -0.48898817959E+03  0.65840406167E+03  0.40000000000E+03 0. -1.
   -9000007    1    1    2    0  502 -0.56581349234E+02  0.17659280723E+03 -0.81855979707E+03  0.92974545442E+03  0.40000000000E+03 0. -1.
<mgrwt>
<rscale>  2 0.44089281E+03</rscale>
<asrwt>0</asrwt>
<pdfrwt beam="1">  1       21 0.21584733E-01 0.44089281E+03</pdfrwt>
<pdfrwt beam="2">  1       21 0.22274597E+00 0.44089281E+03</pdfrwt>
<totfact> 0.16262881E+03</totfact>
</mgrwt>
</event>
<event>
 4    1  0.4918322E-002  0.5449779E+03  0.7818608E-02  0.1002663E+00
         21   -1    0    0  503  502  0.00000000000E+00  0.00000000000E+00  0.11806697526E+04  0.11806697526E+04  0.00000000000E+00 0.  1.
         21   -1    0    0  501  503 -0.00000000000E+00 -0.00000000000E+00 -0.11152910970E+04  0.11152910970E+04  0.00000000000E+00 0. -1.
    9000007    1    1    2  501    0 -0.33722199692E+03  0.15258504240E+03 -0.97756666225E+03  0.11192128705E+04  0.40000000000E+03 0. -1.
   -9000007    1    1    2    0  502  0.33722199692E+03 -0.15258504240E+03  0.10429453178E+04  0.11767479791E+04  0.40000000000E+03 0.  1.
<mgrwt>
<rscale>  2 0.54497786E+03</rscale>
<asrwt>0</asrwt>
<pdfrwt beam="1">  1       21 0.18164150E+00 0.54497786E+03</pdfrwt>
<pdfrwt beam="2">  1       21 0.17158324E+00 0.54497786E+03</pdfrwt>
<totfact> 0.26878870E+01</totfact>
</mgrwt>
</event>
<event>
 4    1  0.4918322E-002  0.6741376E+03  0.7818608E-02  0.9762512E-01
         21   -1    0    0  503  502  0.00000000000E+00  0.00000000000E+00  0.10393567275E+04  0.10393567275E+04  0.00000000000E+00 0.  1.
         21   -1    0    0  501  503 -0.00000000000E+00 -0.00000000000E+00 -0.59098490235E+03  0.59098490235E+03  0.00000000000E+00 0. -1.
    9000007    1    1    2  501    0  0.28038452160E+03  0.46459224907E+03 -0.19157435788E+03  0.70082963154E+03  0.40000000000E+03 0. -1.
   -9000007    1    1    2    0  502 -0.28038452160E+03 -0.46459224907E+03  0.63994618308E+03  0.92951199836E+03  0.40000000000E+03 0.  1.
<mgrwt>
<rscale>  2 0.67413755E+03</rscale>
<asrwt>0</asrwt>
<pdfrwt beam="1">  1       21 0.15990103E+00 0.67413755E+03</pdfrwt>
<pdfrwt beam="2">  1       21 0.90920755E-01 0.67413755E+03</pdfrwt>
<totfact> 0.19255696E+02</totfact>
</mgrwt>
</event>
<event>
 4    1  0.4918322E-002  0.4005952E+03  0.7818608E-02  0.1043574E+00
         21   -1    0    0  503  502  0.00000000000E+00  0.00000000000E+00  0.83297175244E+03  0.83297175244E+03  0.00000000000E+00 0. -1.
         21   -1    0    0  501  503 -0.00000000000E+00 -0.00000000000E+00 -0.24619888644E+03  0.24619888644E+03  0.00000000000E+00 0. -1.
    9000007    1    1    2  501    0 -0.96935833384E+01  0.19558403477E+02  0.41751777623E+02  0.40276507748E+03  0.40000000000E+03 0. -1.
   -9000007    1    1    2    0  502  0.96935833384E+01 -0.19558403477E+02  0.54502108838E+03  0.67640556139E+03  0.40000000000E+03 0. -1.
<mgrwt>
<rscale>  2 0.40059518E+03</rscale>
<asrwt>0</asrwt>
<pdfrwt beam="1">  1       21 0.12814950E+00 0.40059518E+03</pdfrwt>
<pdfrwt beam="2">  1       21 0.37876752E-01 0.40059518E+03</pdfrwt>
<totfact> 0.26542087E+03</totfact>
</mgrwt>
</event>
<event>
 4    1  0.4918322E-002  0.5294305E+03  0.7818608E-02  0.1006370E+00
         21   -1    0    0  501  502  0.00000000000E+00  0.00000000000E+00  0.36175079988E+03  0.36175079988E+03  0.00000000000E+00 0. -1.
         21   -1    0    0  502  503 -0.00000000000E+00 -0.00000000000E+00 -0.92504057621E+03  0.92504057621E+03  0.00000000000E+00 0.  1.
    9000007    1    1    2  501    0 -0.33295568537E+03  0.97144853521E+02 -0.22380384850E+02  0.52990328609E+03  0.40000000000E+03 0. -1.
   -9000007    1    1    2    0  503  0.33295568537E+03 -0.97144853521E+02 -0.54090939149E+03  0.75688809000E+03  0.40000000000E+03 0.  1.
<mgrwt>
<rscale>  2 0.52943046E+03</rscale>
<asrwt>0</asrwt>
<pdfrwt beam="1">  1       21 0.55653969E-01 0.52943046E+03</pdfrwt>
<pdfrwt beam="2">  1       21 0.14231394E+00 0.52943046E+03</pdfrwt>
<totfact> 0.85300417E+02</totfact>
</mgrwt>
</event>
<event>
 4    1  0.4918322E-002  0.4222472E+03  0.7818608E-02  0.1036337E+00
         21   -1    0    0  503  502  0.00000000000E+00  0.00000000000E+00  0.26881782535E+03  0.26881782535E+03  0.00000000000E+00 0.  1.
         21   -1    0    0  501  503 -0.00000000000E+00 -0.00000000000E+00 -0.77184849971E+03  0.77184849971E+03  0.00000000000E+00 0.  1.
    9000007    1    1    2  501    0  0.99136197944E+02  0.92003840418E+02 -0.56336458678E+02  0.42598883667E+03  0.40000000000E+03 0. -1.
   -9000007    1    1    2    0  502 -0.99136197944E+02 -0.92003840418E+02 -0.44669421569E+03  0.61467748838E+03  0.40000000000E+03 0. -1.
<mgrwt>
<rscale>  2 0.42224719E+03</rscale>
<asrwt>0</asrwt>
<pdfrwt beam="1">  1       21 0.41356589E-01 0.42224719E+03</pdfrwt>
<pdfrwt beam="2">  1       21 0.11874592E+00 0.42224719E+03</pdfrwt>
<totfact> 0.26690570E+03</totfact>
</mgrwt>
</event>
<event>
 4    1  0.4918322E-002  0.5825870E+03  0.7818608E-02  0.9942206E-01
         21   -1    0    0  501  502  0.00000000000E+00  0.00000000000E+00  0.80743979171E+03  0.80743979171E+03  0.00000000000E+00 0. -1.
         21   -1    0    0  502  503 -0.00000000000E+00 -0.00000000000E+00 -0.27670011266E+04  0.27670011266E+04  0.00000000000E+00 0. -1.
    9000007    1    1    2  501    0  0.42263798955E+03 -0.28013577003E+02  0.66609751225E+03  0.88492571809E+03  0.40000000000E+03 0. -1.
   -9000007    1    1    2    0  503 -0.42263798955E+03  0.28013577003E+02 -0.26256588471E+04  0.26895152002E+04  0.40000000000E+03 0. -1.
<mgrwt>
<rscale>  2 0.58258702E+03</rscale>
<asrwt>0</asrwt>
<pdfrwt beam="1">  1       21 0.12422151E+00 0.58258702E+03</pdfrwt>
<pdfrwt beam="2">  1       21 0.42569248E+00 0.58258702E+03</pdfrwt>
<totfact> 0.18097905E+00</totfact>
</mgrwt>
</event>
<event>
 4    1  0.4918322E-002  0.6344468E+03  0.7818608E-02  0.9836409E-01
         21   -1    0    0  503  502  0.00000000000E+00  0.00000000000E+00  0.31669131786E+03  0.31669131786E+03  0.00000000000E+00 0.  1.
         21   -1    0    0  501  503 -0.00000000000E+00 -0.00000000000E+00 -0.12740378813E+04  0.12740378813E+04  0.00000000000E+00 0. -1.
    9000007    1    1    2  501    0  0.21678804186E+03 -0.44218293407E+03 -0.51734700891E+03  0.81863956043E+03  0.40000000000E+03 0. -1.
   -9000007    1    1    2    0  502 -0.21678804186E+03  0.44218293407E+03 -0.43999955457E+03  0.77208963877E+03  0.40000000000E+03 0. -1.
<mgrwt>
<rscale>  2 0.63444685E+03</rscale>
<asrwt>0</asrwt>
<pdfrwt beam="1">  1       21 0.48721741E-01 0.63444685E+03</pdfrwt>
<pdfrwt beam="2">  1       21 0.19600583E+00 0.63444685E+03</pdfrwt>
<totfact> 0.43757321E+02</totfact>
</mgrwt>
</event>
<event>
 4    1  0.4918322E-002  0.5705806E+03  0.7818608E-02  0.9968395E-01
         21   -1    0    0  503  502  0.00000000000E+00  0.00000000000E+00  0.10219751361E+03  0.10219751361E+03  0.00000000000E+00 0.  1.
         21   -1    0    0  501  503 -0.00000000000E+00 -0.00000000000E+00 -0.41754467504E+04  0.41754467504E+04  0.00000000000E+00 0.  1.
    9000007    1    1    2  501    0 -0.31166095177E+03 -0.26159074127E+03 -0.30779900839E+04  0.31304289197E+04  0.40000000000E+03 0.  1.
   -9000007    1    1    2    0  502  0.31166095177E+03  0.26159074127E+03 -0.99525915294E+03  0.11472153443E+04  0.40000000000E+03 0.  1.
<mgrwt>
<rscale>  2 0.57058064E+03</rscale>
<asrwt>0</asrwt>
<pdfrwt beam="1">  1       21 0.15722694E-01 0.57058064E+03</pdfrwt>
<pdfrwt beam="2">  1       21 0.64237644E+00 0.57058064E+03</pdfrwt>
<totfact> 0.37763780E+00</totfact>
</mgrwt>
</event>
<event>
 4    1  0.4918322E-002  0.4019995E+03  0.7818608E-02  0.1043090E+00
         21   -1    0    0  501  502  0.00000000000E+00  0.00000000000E+00  0.82829517789E+03  0.82829517789E+03  0.00000000000E+00 0. -1.
         21   -1    0    0  502  503 -0.00000000000E+00 -0.00000000000E+00 -0.19720281329E+03  0.19720281329E+03  0.00000000000E+00 0. -1.
    9000007    1    1    2  501    0  0.14877594239E+02  0.37178650477E+02  0.36844532063E+03  0.54530317178E+03  0.40000000000E+03 0. -1.
   -9000007    1    1    2    0  503 -0.14877594239E+02 -0.37178650477E+02  0.26264704397E+03  0.48019481939E+03  0.40000000000E+03 0. -1.
<mgrwt>
<rscale>  2 0.40199950E+03</rscale>
<asrwt>0</asrwt>
<pdfrwt beam="1">  1       21 0.12743003E+00 0.40199950E+03</pdfrwt>
<pdfrwt beam="2">  1       21 0.30338895E-01 0.40199950E+03</pdfrwt>
<totfact> 0.42054226E+03</totfact>
</mgrwt>
</event>
<event>
 4    1  0.4918322E-002  0.6568412E+03  0.7818608E-02  0.9794026E-01
         21   -1    0    0  503  502  0.00000000000E+00  0.00000000000E+00  0.39363296707E+03  0.39363296707E+03  0.00000000000E+00 0.  1.
         21   -1    0    0  501  503 -0.00000000000E+00 -0.00000000000E+00 -0.11953352026E+04  0.11953352026E+04  0.00000000000E+00 0.  1.
    9000007    1    1    2  501    0 -0.22742739472E+03  0.46873989561E+03 -0.62982647426E+03  0.91001192151E+03  0.40000000000E+03 0.  1.
   -9000007    1    1    2    0  502  0.22742739472E+03 -0.46873989561E+03 -0.17187576127E+03  0.67895624816E+03  0.40000000000E+03 0.  1.
<mgrwt>
<rscale>  2 0.65684116E+03</rscale>
<asrwt>0</asrwt>
<pdfrwt beam="1">  1       21 0.60558917E-01 0.65684116E+03</pdfrwt>
<pdfrwt beam="2">  1       21 0.18389773E+00 0.65684116E+03</pdfrwt>
<totfact> 0.32858909E+02</totfact>
</mgrwt>
</event>
<event>
 4    1  0.4918322E-002  0.4511962E+03  0.7818608E-02  0.1027366E+00
         21   -1    0    0  503  502  0.00000000000E+00  0.00000000000E+00  0.11852361326E+04  0.11852361326E+04  0.00000000000E+00 0. -1.
         21   -1    0    0  501  503 -0.00000000000E+00 -0.00000000000E+00 -0.28337601854E+03  0.28337601854E+03  0.00000000000E+00 0. -1.
    9000007    1    1    2  501    0  0.20861583995E+03  0.75789044463E+01 -0.99159199402E+01  0.45130514504E+03  0.40000000000E+03 0. -1.
   -9000007    1    1    2    0  502 -0.20861583995E+03 -0.75789044463E+01  0.91177603397E+03  0.10173070061E+04  0.40000000000E+03 0. -1.
<mgrwt>
<rscale>  2 0.45119620E+03</rscale>
<asrwt>0</asrwt>
<pdfrwt beam="1">  1       21 0.18234402E+00 0.45119620E+03</pdfrwt>
<pdfrwt beam="2">  1       21 0.43596311E-01 0.45119620E+03</pdfrwt>
<totfact> 0.73901210E+02</totfact>
</mgrwt>
</event>
<event>
 4    1  0.4918322E-002  0.4028526E+03  0.7818608E-02  0.1042796E+00
         21   -1    0    0  501  502  0.00000000000E+00  0.00000000000E+00  0.16961368082E+04  0.16961368082E+04  0.00000000000E+00 0. -1.
         21   -1    0    0  502  503 -0.00000000000E+00 -0.00000000000E+00 -0.15215043348E+03  0.15215043348E+03  0.00000000000E+00 0. -1.
    9000007    1    1    2  501    0  0.26945890178E+02 -0.39549073486E+02  0.13349884325E+04  0.13944476774E+04  0.40000000000E+03 0. -1.
   -9000007    1    1    2    0  503 -0.26945890178E+02  0.39549073486E+02  0.20899794220E+03  0.45383956423E+03  0.40000000000E+03 0. -1.
<mgrwt>
<rscale>  2 0.40285259E+03</rscale>
<asrwt>0</asrwt>
<pdfrwt beam="1">  1       21 0.26094411E+00 0.40285259E+03</pdfrwt>
<pdfrwt beam="2">  1       21 0.23407760E-01 0.40285259E+03</pdfrwt>
<totfact> 0.82364958E+02</totfact>
</mgrwt>
</event>
<event>
 4    1  0.4918322E-002  0.4842531E+03  0.7818608E-02  0.1017973E+00
         21   -1    0    0  503  502  0.00000000000E+00  0.00000000000E+00  0.13986136306E+03  0.13986136306E+03  0.00000000000E+00 0. -1.
         21   -1    0    0  501  503 -0.00000000000E+00 -0.00000000000E+00 -0.17340572482E+04  0.17340572482E+04  0.00000000000E+00 0. -1.
    9000007    1    1    2  501    0  0.27266305328E+03  0.12486136532E+02 -0.96755109171E+03  0.10819686499E+04  0.40000000000E+03 0. -1.
   -9000007    1    1    2    0  502 -0.27266305328E+03 -0.12486136532E+02 -0.62664479347E+03  0.79194996143E+03  0.40000000000E+03 0. -1.
<mgrwt>
<rscale>  2 0.48425308E+03</rscale>
<asrwt>0</asrwt>
<pdfrwt beam="1">  1       21 0.21517134E-01 0.48425308E+03</pdfrwt>
<pdfrwt beam="2">  1       21 0.26677803E+00 0.48425308E+03</pdfrwt>
<totfact> 0.85520930E+02</totfact>
</mgrwt>
</event>
<event>
 4    1  0.4918322E-002  0.4019831E+03  0.7818608E-02  0.1043095E+00
         21   -1    0    0  501  502  0.00000000000E+00  0.00000000000E+00  0.18908850262E+04  0.18908850262E+04  0.00000000000E+00 0.  1.
         21   -1    0    0  502  503 -0.00000000000E+00 -0.00000000000E+00 -0.11433897412E+03  0.11433897412E+03  0.00000000000E+00 0.  1.
    9000007    1    1    2  501    0 -0.36617958866E+02  0.15796253887E+02  0.13921738577E+04  0.14490474273E+04  0.40000000000E+03 0.  1.
   -9000007    1    1    2    0  503  0.36617958866E+02 -0.15796253887E+02  0.38437219440E+03  0.55617657302E+03  0.40000000000E+03 0.  1.
<mgrwt>
<rscale>  2 0.40198308E+03</rscale>
<asrwt>0</asrwt>
<pdfrwt beam="1">  1       21 0.29090537E+00 0.40198308E+03</pdfrwt>
<pdfrwt beam="2">  1       21 0.17590613E-01 0.40198308E+03</pdfrwt>
<totfact> 0.93729521E+02</totfact>
</mgrwt>
</event>
<event>
 4    1  0.4918322E-002  0.9285212E+03  0.7818608E-02  0.9390614E-01
         21   -1    0    0  501  502  0.00000000000E+00  0.00000000000E+00  0.14837840643E+04  0.14837840643E+04  0.00000000000E+00 0. -1.
         21   -1    0    0  502  503 -0.00000000000E+00 -0.00000000000E+00 -0.91331458517E+03  0.91331458517E+03  0.00000000000E+00 0.  1.
    9000007    1    1    2  501    0 -0.80964657969E+03 -0.21592589946E+03  0.10081514264E+04  0.13705914332E+04  0.40000000000E+03 0. -1.
   -9000007    1    1    2    0  503  0.80964657969E+03  0.21592589946E+03 -0.43768194733E+03  0.10265072163E+04  0.40000000000E+03 0.  1.
<mgrwt>
<rscale>  2 0.92852118E+03</rscale>
<asrwt>0</asrwt>
<pdfrwt beam="1">  1       21 0.22827447E+00 0.92852118E+03</pdfrwt>
<pdfrwt beam="2">  1       21 0.14050994E+00 0.92852118E+03</pdfrwt>
<totfact> 0.19558817E+01</totfact>
</mgrwt>
</event>
<event>
 4    1  0.4918322E-002  0.4675029E+03  0.7818608E-02  0.1022627E+00
         21   -1    0    0  503  502  0.00000000000E+00  0.00000000000E+00  0.65557568199E+03  0.65557568199E+03  0.00000000000E+00 0. -1.
         21   -1    0    0  501  503 -0.00000000000E+00 -0.00000000000E+00 -0.36789376003E+03  0.36789376003E+03  0.00000000000E+00 0.  1.
    9000007    1    1    2  501    0  0.13166847117E+03  0.20303289524E+03 -0.12888213972E+02  0.46768049875E+03  0.40000000000E+03 0.  1.
   -9000007    1    1    2    0  502 -0.13166847117E+03 -0.20303289524E+03  0.30057013593E+03  0.55578894327E+03  0.40000000000E+03 0. -1.
<mgrwt>
<rscale>  2 0.46750288E+03</rscale>
<asrwt>0</asrwt>
<pdfrwt beam="1">  1       21 0.10085780E+00 0.46750288E+03</pdfrwt>
<pdfrwt beam="2">  1       21 0.56599040E-01 0.46750288E+03</pdfrwt>
<totfact> 0.20240126E+03</totfact>
</mgrwt>
</event>
<event>
 4    1  0.4918322E-002  0.4795097E+03  0.7818608E-02  0.1019270E+00
         21   -1    0    0  501  502  0.00000000000E+00  0.00000000000E+00  0.68832752958E+03  0.68832752958E+03  0.00000000000E+00 0. -1.
         21   -1    0    0  502  503 -0.00000000000E+00 -0.00000000000E+00 -0.33534545149E+03  0.33534545149E+03  0.00000000000E+00 0. -1.
    9000007    1    1    2  501    0 -0.30170951757E+02 -0.26271513597E+03  0.20841524586E+03  0.52284456936E+03  0.40000000000E+03 0. -1.
   -9000007    1    1    2    0  503  0.30170951757E+02  0.26271513597E+03  0.14456683223E+03  0.50082841171E+03  0.40000000000E+03 0. -1.
<mgrwt>
<rscale>  2 0.47950968E+03</rscale>
<asrwt>0</asrwt>
<pdfrwt beam="1">  1       21 0.10589654E+00 0.47950968E+03</pdfrwt>
<pdfrwt beam="2">  1       21 0.51591608E-01 0.47950968E+03</pdfrwt>
<totfact> 0.21828756E+03</totfact>
</mgrwt>
</event>
<event>
 4    1  0.4918322E-002  0.4348875E+03  0.7818608E-02  0.1032327E+00
         21   -1    0    0  503  502  0.00000000000E+00  0.00000000000E+00  0.43814058167E+03  0.43814058167E+03  0.00000000000E+00 0. -1.
         21   -1    0    0  501  503 -0.00000000000E+00 -0.00000000000E+00 -0.59887548947E+03  0.59887548947E+03  0.00000000000E+00 0. -1.
    9000007    1    1    2  501    0  0.12401374874E+03 -0.11725063996E+03 -0.35435282428E+03  0.56097508547E+03  0.40000000000E+03 0. -1.
   -9000007    1    1    2    0  502 -0.12401374874E+03  0.11725063996E+03  0.19361791648E+03  0.47604098566E+03  0.40000000000E+03 0. -1.
<mgrwt>
<rscale>  2 0.43488748E+03</rscale>
<asrwt>0</asrwt>
<pdfrwt beam="1">  1       21 0.67406243E-01 0.43488748E+03</pdfrwt>
<pdfrwt beam="2">  1       21 0.92134691E-01 0.43488748E+03</pdfrwt>
<totfact> 0.17335504E+03</totfact>
</mgrwt>
</event>
<event>
 4    1  0.4918322E-002  0.4020961E+03  0.7818608E-02  0.1043056E+00
         21   -1    0    0  501  502  0.00000000000E+00  0.00000000000E+00  0.69515300416E+03  0.69515300416E+03  0.00000000000E+00 0.  1.
         21   -1    0    0  502  503 -0.00000000000E+00 -0.00000000000E+00 -0.38472489109E+03  0.38472489109E+03  0.00000000000E+00 0.  1.
    9000007    1    1    2  501    0  0.18768302508E+01 -0.40960128443E+02  0.49475560547E+03  0.63754557779E+03  0.40000000000E+03 0.  1.
   -9000007    1    1    2    0  503 -0.18768302508E+01  0.40960128443E+02 -0.18432749240E+03  0.44233231746E+03  0.40000000000E+03 0.  1.
<mgrwt>
<rscale>  2 0.40209608E+03</rscale>
<asrwt>0</asrwt>
<pdfrwt beam="1">  1       21 0.10694662E+00 0.40209608E+03</pdfrwt>
<pdfrwt beam="2">  1       21 0.59188445E-01 0.40209608E+03</pdfrwt>
<totfact> 0.16322463E+03</totfact>
</mgrwt>
</event>
<event>
 4    1  0.4918322E-002  0.4363159E+03  0.7818608E-02  0.1031883E+00
         21   -1    0    0  501  502  0.00000000000E+00  0.00000000000E+00  0.99387987981E+02  0.99387987981E+02  0.00000000000E+00 0. -1.
         21   -1    0    0  502  503 -0.00000000000E+00 -0.00000000000E+00 -0.20079516065E+04  0.20079516065E+04  0.00000000000E+00 0. -1.
    9000007    1    1    2  501    0  0.45863070154E+02 -0.16813127564E+03 -0.11804493566E+04  0.12585039653E+04  0.40000000000E+03 0.  1.
   -9000007    1    1    2    0  503 -0.45863070154E+02  0.16813127564E+03 -0.72811426196E+03  0.84883562927E+03  0.40000000000E+03 0.  1.
<mgrwt>
<rscale>  2 0.43631588E+03</rscale>
<asrwt>0</asrwt>
<pdfrwt beam="1">  1       21 0.15290462E-01 0.43631588E+03</pdfrwt>
<pdfrwt beam="2">  1       21 0.30891559E+00 0.43631588E+03</pdfrwt>
<totfact> 0.93073419E+02</totfact>
</mgrwt>
</event>
<event>
 4    1  0.4918322E-002  0.4590066E+03  0.7818608E-02  0.1025070E+00
         21   -1    0    0  501  502  0.00000000000E+00  0.00000000000E+00  0.15898642051E+03  0.15898642051E+03  0.00000000000E+00 0. -1.
         21   -1    0    0  502  503 -0.00000000000E+00 -0.00000000000E+00 -0.15165896595E+04  0.15165896595E+04  0.00000000000E+00 0. -1.
    9000007    1    1    2  501    0  0.86337409234E+02  0.20792529989E+03 -0.38117507507E+03  0.59664186613E+03  0.40000000000E+03 0. -1.
   -9000007    1    1    2    0  503 -0.86337409234E+02 -0.20792529989E+03 -0.97642816395E+03  0.10789342139E+04  0.40000000000E+03 0. -1.
<mgrwt>
<rscale>  2 0.45900662E+03</rscale>
<asrwt>0</asrwt>
<pdfrwt beam="1">  1       21 0.24459451E-01 0.45900662E+03</pdfrwt>
<pdfrwt beam="2">  1       21 0.23332147E+00 0.45900662E+03</pdfrwt>
<totfact> 0.10864705E+03</totfact>
</mgrwt>
</event>
