<event>
 6    1  0.9502611E-004  0.4562112E+03  0.7818608E-02  0.1025886E+00
         21   -1    0    0  503  502  0.00000000000E+00  0.00000000000E+00  0.13072142178E+04  0.13072142178E+04  0.00000000000E+00 0. -1.
         21   -1    0    0  501  503 -0.00000000000E+00 -0.00000000000E+00 -0.33167076015E+03  0.33167076015E+03  0.00000000000E+00 0. -1.
    9000007    2    1    2  501    0 -0.11587664169E+03 -0.18626055555E+03 -0.10311668002E+03  0.46771971068E+03  0.40001035914E+03 0.  0.
    9000005    1    3    3    0    0  0.46752044943E+02 -0.22470346384E+03 -0.17215760684E+03  0.28690876939E+03  0.99999687468E+00 0.  0.
          4    1    3    3  501    0 -0.16262868663E+03  0.38442908291E+02  0.69040926818E+02  0.18081094129E+03  0.00000000000E+00 0.  1.
   -9000007    1    1    2    0  502  0.11587664169E+03  0.18626055555E+03  0.10786601377E+04  0.11711652673E+04  0.40000000000E+03 0. -1.
<mgrwt>
<rscale>  2 0.45620895E+03</rscale>
<asrwt>0</asrwt>
<pdfrwt beam="1">  1       21 0.20110988E+00 0.45621122E+03</pdfrwt>
<pdfrwt beam="2">  1       21 0.51026271E-01 0.45621122E+03</pdfrwt>
<totfact> 0.39399232E+02</totfact>
</mgrwt>
</event>
<event>
 6    1  0.9502611E-004  0.4130154E+03  0.7818608E-02  0.1039370E+00
         21   -1    0    0  503  502  0.00000000000E+00  0.00000000000E+00  0.33364818508E+03  0.33364818508E+03  0.00000000000E+00 0.  1.
         21   -1    0    0  501  503 -0.00000000000E+00 -0.00000000000E+00 -0.68837324092E+03  0.68837324092E+03  0.00000000000E+00 0.  1.
    9000007    2    1    2  501    0  0.27671576350E+02  0.99075767653E+02 -0.43662300198E+03  0.60096442575E+03  0.39992108133E+03 0.  0.
    9000005    1    3    3    0    0 -0.54203068190E+02  0.23018732706E+03 -0.16472995077E+03  0.28820328731E+03  0.99999687468E+00 0.  0.
          4    1    3    3  501    0  0.81874644540E+02 -0.13111155941E+03 -0.27189305120E+03  0.31276113845E+03  0.00000000000E+00 0.  1.
   -9000007    1    1    2    0  502 -0.27671576350E+02 -0.99075767653E+02  0.81897946146E+02  0.42105700025E+03  0.40000000000E+03 0.  1.
<mgrwt>
<rscale>  2 0.41299629E+03</rscale>
<asrwt>0</asrwt>
<pdfrwt beam="1">  1       21 0.51330490E-01 0.41301540E+03</pdfrwt>
<pdfrwt beam="2">  1       21 0.10590358E+00 0.41301540E+03</pdfrwt>
<totfact> 0.22624245E+03</totfact>
</mgrwt>
</event>
<event>
 6    1  0.9502611E-004  0.4755241E+03  0.7818608E-02  0.1020375E+00
         21   -1    0    0  503  502  0.00000000000E+00  0.00000000000E+00  0.13816539240E+04  0.13816539240E+04  0.00000000000E+00 0. -1.
         21   -1    0    0  501  503 -0.00000000000E+00 -0.00000000000E+00 -0.18238821912E+04  0.18238821912E+04  0.00000000000E+00 0. -1.
    9000007    2    1    2  501    0  0.30147702097E+02  0.25537079221E+03 -0.17502866527E+04  0.18137243946E+04  0.39996210758E+03 0.  0.
    9000005    1    3    3    0    0  0.91168606040E+02  0.22627593568E+03 -0.17240263600E+04  0.17412008511E+04  0.99999687468E+00 0.  0.
          4    1    3    3  501    0 -0.61020903943E+02  0.29094856529E+02 -0.26260292707E+02  0.72523543539E+02  0.00000000000E+00 0.  1.
   -9000007    1    1    2    0  502 -0.30147702097E+02 -0.25537079221E+03  0.13080583855E+04  0.13918117205E+04  0.40000000000E+03 0. -1.
<mgrwt>
<rscale>  2 0.47551608E+03</rscale>
<asrwt>0</asrwt>
<pdfrwt beam="1">  1       21 0.21256214E+00 0.47552405E+03</pdfrwt>
<pdfrwt beam="2">  1       21 0.28059726E+00 0.47552405E+03</pdfrwt>
<totfact> 0.34308157E+00</totfact>
</mgrwt>
</event>
<event>
 6    1  0.9502611E-004  0.4351816E+03  0.7818608E-02  0.1032238E+00
         21   -1    0    0  503  502  0.00000000000E+00  0.00000000000E+00  0.23922766531E+04  0.23922766531E+04  0.00000000000E+00 0. -1.
         21   -1    0    0  501  503 -0.00000000000E+00 -0.00000000000E+00 -0.20163293040E+03  0.20163293040E+03  0.00000000000E+00 0. -1.
    9000007    2    1    2  501    0  0.17129356570E+03 -0.64419361344E+01  0.84495249454E+02  0.44327145132E+03  0.39995893312E+03 0.  0.
    9000005    1    3    3    0    0 -0.71670845413E+02  0.12579724588E+03 -0.22803637379E+02  0.14656965247E+03  0.99999687468E+00 0.  0.
          4    1    3    3  501    0  0.24296441111E+03 -0.13223918201E+03  0.10729888683E+03  0.29670179885E+03  0.00000000000E+00 0.  1.
   -9000007    1    1    2    0  502 -0.17129356570E+03  0.64419361344E+01  0.21061484733E+04  0.21506381322E+04  0.40000000000E+03 0. -1.
<mgrwt>
<rscale>  2 0.43517212E+03</rscale>
<asrwt>0</asrwt>
<pdfrwt beam="1">  1       21 0.36804254E+00 0.43518155E+03</pdfrwt>
<pdfrwt beam="2">  1       21 0.31020453E-01 0.43518155E+03</pdfrwt>
<totfact> 0.10448054E+02</totfact>
</mgrwt>
</event>
<event>
 6    1  0.9502611E-004  0.4295628E+03  0.7818608E-02  0.1034926E+00
         21   -1    0    0  503  502  0.00000000000E+00  0.00000000000E+00  0.23759956765E+03  0.23759956765E+03  0.00000000000E+00 0. -1.
         21   -1    0    0  501  503 -0.00000000000E+00 -0.00000000000E+00 -0.11163032251E+04  0.11163032251E+04  0.00000000000E+00 0. -1.
    9000007    2    1    2  501    0  0.15653709950E+03 -0.45105730066E+01 -0.81993986319E+03  0.92033919618E+03  0.38755470323E+03 0.  0.
    9000005    1    3    3    0    0  0.25162207521E+01 -0.16928395445E+03 -0.20823881549E+03  0.26837994126E+03  0.99999687468E+00 0.  0.
          4    1    3    3  501    0  0.15402087875E+03  0.16477338144E+03 -0.61170104770E+03  0.65195925492E+03  0.00000000000E+00 0.  1.
   -9000007    1    1    2    0  502 -0.15653709950E+03  0.45105730066E+01 -0.58763794310E+02  0.43356359662E+03  0.40000000000E+03 0. -1.
<mgrwt>
<rscale>  2 0.42664211E+03</rscale>
<asrwt>0</asrwt>
<pdfrwt beam="1">  1       21 0.36553779E-01 0.42956281E+03</pdfrwt>
<pdfrwt beam="2">  1       21 0.17173896E+00 0.42956281E+03</pdfrwt>
<totfact> 0.12760809E+03</totfact>
</mgrwt>
</event>
<event>
 6    1  0.9502611E-004  0.7506801E+03  0.7818608E-02  0.9634301E-01
         21   -1    0    0  503  502  0.00000000000E+00  0.00000000000E+00  0.32075018148E+03  0.32075018148E+03  0.00000000000E+00 0.  1.
         21   -1    0    0  501  503 -0.00000000000E+00 -0.00000000000E+00 -0.34098652906E+04  0.34098652906E+04  0.00000000000E+00 0.  1.
    9000007    2    1    2  501    0  0.62138719934E+03  0.13190334774E+03 -0.28432957066E+04  0.29407118556E+04  0.39991898916E+03 0.  0.
    9000005    1    3    3    0    0  0.13507238665E+03  0.16546772574E+03 -0.14264207403E+04  0.14423249447E+04  0.99999687468E+00 0.  0.
          4    1    3    3  501    0  0.48631481269E+03 -0.33564377998E+02 -0.14168749664E+04  0.14983869109E+04  0.00000000000E+00 0.  1.
   -9000007    1    1    2    0  502 -0.62138719934E+03 -0.13190334774E+03 -0.24581940250E+03  0.78990361646E+03  0.40000000000E+03 0.  1.
<mgrwt>
<rscale>  2 0.75066926E+03</rscale>
<asrwt>0</asrwt>
<pdfrwt beam="1">  1       21 0.49346181E-01 0.75068005E+03</pdfrwt>
<pdfrwt beam="2">  1       21 0.52459466E+00 0.75068005E+03</pdfrwt>
<totfact> 0.28927961E+00</totfact>
</mgrwt>
</event>
<event>
 6    1  0.9502611E-004  0.4657439E+03  0.7818608E-02  0.1023139E+00
         21   -1    0    0  503  502  0.00000000000E+00  0.00000000000E+00  0.48037832277E+03  0.48037832277E+03  0.00000000000E+00 0.  1.
         21   -1    0    0  501  503 -0.00000000000E+00 -0.00000000000E+00 -0.91208456655E+03  0.91208456655E+03  0.00000000000E+00 0.  1.
    9000007    2    1    2  501    0  0.21408017661E+03 -0.10529490267E+03 -0.71064054682E+03  0.84958013590E+03  0.39982381367E+03 0.  0.
    9000005    1    3    3    0    0  0.23795049244E+03 -0.45702502802E+02 -0.74024157303E+03  0.77888878670E+03  0.99999687468E+00 0.  0.
          4    1    3    3  501    0 -0.23870315828E+02 -0.59592399867E+02  0.29601026204E+02  0.70691349201E+02  0.00000000000E+00 0.  1.
   -9000007    1    1    2    0  502 -0.21408017661E+03  0.10529490267E+03  0.27893430305E+03  0.54288275342E+03  0.40000000000E+03 0.  1.
<mgrwt>
<rscale>  2 0.46570602E+03</rscale>
<asrwt>0</asrwt>
<pdfrwt beam="1">  1       21 0.73904358E-01 0.46574386E+03</pdfrwt>
<pdfrwt beam="2">  1       21 0.14032070E+00 0.46574386E+03</pdfrwt>
<totfact> 0.48382804E+02</totfact>
</mgrwt>
</event>
<event>
 6    1  0.9502611E-004  0.4296729E+03  0.7818608E-02  0.1034020E+00
         21   -1    0    0  503  502  0.00000000000E+00  0.00000000000E+00  0.15976374458E+03  0.15976374458E+03  0.00000000000E+00 0.  1.
         21   -1    0    0  501  503 -0.00000000000E+00 -0.00000000000E+00 -0.15128182940E+04  0.15128182940E+04  0.00000000000E+00 0.  1.
    9000007    2    1    2  501    0 -0.48580269023E+02  0.14710011637E+03 -0.10844579680E+04  0.11664767034E+04  0.40077466022E+03 0.  0.
    9000005    1    3    3    0    0  0.12763670362E+03 -0.40205415240E+02 -0.16891735977E+03  0.21550331309E+03  0.99999687468E+00 0.  0.
          4    1    3    3  501    0 -0.17621697265E+03  0.18730553161E+03 -0.91554060828E+03  0.95097339028E+03  0.00000000000E+00 0.  1.
   -9000007    1    1    2    0  502  0.48580269023E+02 -0.14710011637E+03 -0.26859658133E+03  0.50610533516E+03  0.40000000000E+03 0.  1.
<mgrwt>
<rscale>  2 0.42949219E+03</rscale>
<asrwt>0</asrwt>
<pdfrwt beam="1">  1       21 0.24579038E-01 0.42967292E+03</pdfrwt>
<pdfrwt beam="2">  1       21 0.23274127E+00 0.42967292E+03</pdfrwt>
<totfact> 0.11008542E+03</totfact>
</mgrwt>
</event>
<event>
 6    1  0.9502611E-004  0.4054688E+03  0.7818608E-02  0.1041999E+00
         21   -1    0    0  503  502  0.00000000000E+00  0.00000000000E+00  0.34751199696E+03  0.34751199696E+03  0.00000000000E+00 0.  1.
         21   -1    0    0  501  503 -0.00000000000E+00 -0.00000000000E+00 -0.47244847687E+03  0.47244847687E+03  0.00000000000E+00 0.  1.
    9000007    2    1    2  501    0  0.55062701158E+02 -0.21375404193E+02 -0.47046063536E+02  0.40818902518E+03  0.40114353942E+03 0.  0.
    9000005    1    3    3    0    0  0.22045996633E+03 -0.46010526612E+02 -0.77584748897E+02  0.23820150833E+03  0.99999687468E+00 0.  0.
          4    1    3    3  501    0 -0.16539726517E+03  0.24635122419E+02  0.30538685360E+02  0.16998751686E+03  0.00000000000E+00 0.  1.
   -9000007    1    1    2    0  502 -0.55062701158E+02  0.21375404193E+02 -0.77890416369E+02  0.41177144865E+03  0.40000000000E+03 0. -1.
<mgrwt>
<rscale>  2 0.40518568E+03</rscale>
<asrwt>0</asrwt>
<pdfrwt beam="1">  1       21 0.53463384E-01 0.40546880E+03</pdfrwt>
<pdfrwt beam="2">  1       21 0.72684381E-01 0.40546880E+03</pdfrwt>
<totfact> 0.50444181E+03</totfact>
</mgrwt>
</event>
<event>
 6    1  0.9502611E-004  0.5384200E+03  0.7818608E-02  0.1004231E+00
         21   -1    0    0  503  502  0.00000000000E+00  0.00000000000E+00  0.58655234635E+03  0.58655234635E+03  0.00000000000E+00 0. -1.
         21   -1    0    0  501  503 -0.00000000000E+00 -0.00000000000E+00 -0.68245463357E+03  0.68245463357E+03  0.00000000000E+00 0. -1.
    9000007    2    1    2  501    0  0.31874214348E+03  0.16822456507E+03 -0.38144130896E+03  0.65955756343E+03  0.39952803277E+03 0.  0.
    9000005    1    3    3    0    0  0.34385570187E+03  0.12494674795E+03 -0.10783780096E+03  0.38141634055E+03  0.99999687468E+00 0.  0.
          4    1    3    3  501    0 -0.25113558386E+02  0.43277817123E+02 -0.27360350801E+03  0.27814122288E+03  0.00000000000E+00 0.  1.
   -9000007    1    1    2    0  502 -0.31874214348E+03 -0.16822456507E+03  0.28553902175E+03  0.60944941650E+03  0.40000000000E+03 0. -1.
<mgrwt>
<rscale>  2 0.53833231E+03</rscale>
<asrwt>0</asrwt>
<pdfrwt beam="1">  1       21 0.90238822E-01 0.53841996E+03</pdfrwt>
<pdfrwt beam="2">  1       21 0.10499302E+00 0.53841996E+03</pdfrwt>
<totfact> 0.61998670E+02</totfact>
</mgrwt>
</event>
<event>
 6    1  0.9502611E-004  0.4576858E+03  0.7818608E-02  0.1025503E+00
         21   -1    0    0  503  502  0.00000000000E+00  0.00000000000E+00  0.37556789711E+03  0.37556789711E+03  0.00000000000E+00 0.  1.
         21   -1    0    0  501  503 -0.00000000000E+00 -0.00000000000E+00 -0.61601863594E+03  0.61601863594E+03  0.00000000000E+00 0. -1.
    9000007    2    1    2  501    0 -0.21847223483E+03  0.33724227079E+02  0.33224239271E+02  0.45889015187E+03  0.40076037794E+03 0.  0.
    9000005    1    3    3    0    0 -0.23382154088E+03 -0.14686612865E+03  0.11626301701E+02  0.27636632141E+03  0.99999687468E+00 0.  0.
          4    1    3    3  501    0  0.15349306052E+02  0.18059035573E+03  0.21597937570E+02  0.18252383046E+03  0.00000000000E+00 0.  1.
   -9000007    1    1    2    0  502  0.21847223483E+03 -0.33724227079E+02 -0.27367497811E+03  0.53269638118E+03  0.40000000000E+03 0. -1.
<mgrwt>
<rscale>  2 0.45751933E+03</rscale>
<asrwt>0</asrwt>
<pdfrwt beam="1">  1       21 0.57779677E-01 0.45768583E+03</pdfrwt>
<pdfrwt beam="2">  1       21 0.94772097E-01 0.45768583E+03</pdfrwt>
<totfact> 0.22572071E+03</totfact>
</mgrwt>
</event>
<event>
 6    1  0.9502611E-004  0.4714152E+03  0.7818608E-02  0.1021551E+00
         21   -1    0    0  503  502  0.00000000000E+00  0.00000000000E+00  0.64451058549E+03  0.64451058549E+03  0.00000000000E+00 0.  1.
         21   -1    0    0  501  503 -0.00000000000E+00 -0.00000000000E+00 -0.44124808259E+03  0.44124808259E+03  0.00000000000E+00 0.  1.
    9000007    2    1    2  501    0 -0.20590897530E+03  0.13944194832E+03 -0.15253126117E+03  0.49547757774E+03  0.40048680547E+03 0.  0.
    9000005    1    3    3    0    0 -0.13417606755E+03 -0.10476378851E+03  0.41749746920E+02  0.17527894867E+03  0.99999687468E+00 0.  0.
          4    1    3    3  501    0 -0.71732907756E+02  0.24420573683E+03 -0.19428100809E+03  0.32019862907E+03  0.00000000000E+00 0.  1.
   -9000007    1    1    2    0  502  0.20590897530E+03 -0.13944194832E+03  0.35579376407E+03  0.59028109034E+03  0.40000000000E+03 0.  1.
<mgrwt>
<rscale>  2 0.47131174E+03</rscale>
<asrwt>0</asrwt>
<pdfrwt beam="1">  1       21 0.99155475E-01 0.47141515E+03</pdfrwt>
<pdfrwt beam="2">  1       21 0.67884320E-01 0.47141515E+03</pdfrwt>
<totfact> 0.14104559E+03</totfact>
</mgrwt>
</event>
<event>
 6    1  0.9502611E-004  0.4171551E+03  0.7818608E-02  0.1038011E+00
         21   -1    0    0  503  502  0.00000000000E+00  0.00000000000E+00  0.25974143620E+03  0.25974143620E+03  0.00000000000E+00 0. -1.
         21   -1    0    0  501  503 -0.00000000000E+00 -0.00000000000E+00 -0.80517249360E+03  0.80517249360E+03  0.00000000000E+00 0. -1.
    9000007    2    1    2  501    0  0.69916878855E+02  0.94734667842E+02 -0.49119795323E+03  0.64443294708E+03  0.40019416136E+03 0.  0.
    9000005    1    3    3    0    0  0.11406086487E+03  0.18240519108E+03 -0.50153919508E+03  0.54573262576E+03  0.99999687468E+00 0.  0.
          4    1    3    3  501    0 -0.44143986011E+02 -0.87670523242E+02  0.10341241845E+02  0.98700321323E+02  0.00000000000E+00 0.  1.
   -9000007    1    1    2    0  502 -0.69916878855E+02 -0.94734667842E+02 -0.54233104167E+02  0.42048098272E+03  0.40000000000E+03 0. -1.
<mgrwt>
<rscale>  2 0.41710855E+03</rscale>
<asrwt>0</asrwt>
<pdfrwt beam="1">  1       21 0.39960221E-01 0.41715512E+03</pdfrwt>
<pdfrwt beam="2">  1       21 0.12387269E+00 0.41715512E+03</pdfrwt>
<totfact> 0.25775703E+03</totfact>
</mgrwt>
</event>
<event>
 6    1  0.9502611E-004  0.4749840E+03  0.7818608E-02  0.1020638E+00
         21   -1    0    0  503  502  0.00000000000E+00  0.00000000000E+00  0.44804155079E+03  0.44804155079E+03  0.00000000000E+00 0. -1.
         21   -1    0    0  501  503 -0.00000000000E+00 -0.00000000000E+00 -0.56507349926E+03  0.56507349926E+03  0.00000000000E+00 0.  1.
    9000007    2    1    2  501    0 -0.44358872487E+02  0.24915920876E+03 -0.22810987983E+03  0.52691927908E+03  0.40194749472E+03 0.  0.
    9000005    1    3    3    0    0 -0.22345920628E+03  0.13830976292E+03 -0.14770479030E+03  0.30146527572E+03  0.99999687468E+00 0.  0.
          4    1    3    3  501    0  0.17910033380E+03  0.11084944584E+03 -0.80405089529E+02  0.22545400336E+03  0.00000000000E+00 0.  1.
   -9000007    1    1    2    0  502  0.44358872487E+02 -0.24915920876E+03  0.11107793136E+03  0.48619577098E+03  0.40000000000E+03 0. -1.
<mgrwt>
<rscale>  2 0.47457175E+03</rscale>
<asrwt>0</asrwt>
<pdfrwt beam="1">  1       21 0.68929470E-01 0.47498401E+03</pdfrwt>
<pdfrwt beam="2">  1       21 0.86934384E-01 0.47498401E+03</pdfrwt>
<totfact> 0.18634190E+03</totfact>
</mgrwt>
</event>
<event>
 6    1  0.9502611E-004  0.4082628E+03  0.7818608E-02  0.1041012E+00
         21   -1    0    0  503  502  0.00000000000E+00  0.00000000000E+00  0.81759194203E+03  0.81759194203E+03  0.00000000000E+00 0. -1.
         21   -1    0    0  501  503 -0.00000000000E+00 -0.00000000000E+00 -0.23659617179E+03  0.23659617179E+03  0.00000000000E+00 0.  1.
    9000007    2    1    2  501    0 -0.78199211891E+02 -0.40842980356E+01  0.93655349318E+02  0.41886734122E+03  0.40068282575E+03 0.  0.
    9000005    1    3    3    0    0 -0.23645036096E+03 -0.53587643778E+02  0.56041930712E+02  0.24884152941E+03  0.99999687468E+00 0.  0.
          4    1    3    3  501    0  0.15825114907E+03  0.49503345743E+02  0.37613418606E+02  0.17002581181E+03  0.00000000000E+00 0.  1.
   -9000007    1    1    2    0  502  0.78199211891E+02  0.40842980356E+01  0.48734042093E+03  0.63532077261E+03  0.40000000000E+03 0. -1.
<mgrwt>
<rscale>  2 0.40809518E+03</rscale>
<asrwt>0</asrwt>
<pdfrwt beam="1">  1       21 0.12578338E+00 0.40826281E+03</pdfrwt>
<pdfrwt beam="2">  1       21 0.36399411E-01 0.40826281E+03</pdfrwt>
<totfact> 0.30095655E+03</totfact>
</mgrwt>
</event>
<event>
 6    1  0.9502611E-004  0.4749486E+03  0.7818608E-02  0.1020580E+00
         21   -1    0    0  503  502  0.00000000000E+00  0.00000000000E+00  0.16232819071E+04  0.16232819071E+04  0.00000000000E+00 0. -1.
         21   -1    0    0  501  503 -0.00000000000E+00 -0.00000000000E+00 -0.16878846660E+03  0.16878846660E+03  0.00000000000E+00 0. -1.
    9000007    2    1    2  501    0  0.21536119354E+03 -0.13621333752E+03  0.34976837846E+03  0.58984245034E+03  0.40080129822E+03 0.  0.
    9000005    1    3    3    0    0 -0.44447136398E+02 -0.16142806632E+03  0.26854569723E+03  0.31646857668E+03  0.99999687468E+00 0.  0.
          4    1    3    3  501    0  0.25980832994E+03  0.25214728798E+02  0.81222681229E+02  0.27337387366E+03  0.00000000000E+00 0.  1.
   -9000007    1    1    2    0  502 -0.21536119354E+03  0.13621333752E+03  0.11047250621E+04  0.12022279234E+04  0.40000000000E+03 0.  1.
<mgrwt>
<rscale>  2 0.47477953E+03</rscale>
<asrwt>0</asrwt>
<pdfrwt beam="1">  1       21 0.24973567E+00 0.47494863E+03</pdfrwt>
<pdfrwt beam="2">  1       21 0.25967457E-01 0.47494863E+03</pdfrwt>
<totfact> 0.75881109E+02</totfact>
</mgrwt>
</event>
<event>
 6    1  0.9502611E-004  0.5103322E+03  0.7818608E-02  0.1011161E+00
         21   -1    0    0  503  502  0.00000000000E+00  0.00000000000E+00  0.48541777358E+03  0.48541777358E+03  0.00000000000E+00 0. -1.
         21   -1    0    0  501  503 -0.00000000000E+00 -0.00000000000E+00 -0.67079896800E+03  0.67079896800E+03  0.00000000000E+00 0. -1.
    9000007    2    1    2  501    0  0.31680859086E+03  0.84408361536E+01 -0.35198939141E+03  0.61937670744E+03  0.39911407279E+03 0.  0.
    9000005    1    3    3    0    0  0.27554085214E+03 -0.16552855545E+03 -0.16750198982E+03  0.36246431612E+03  0.99999687468E+00 0.  0.
          4    1    3    3  501    0  0.41267738719E+02  0.17396939160E+03 -0.18448740158E+03  0.25691239132E+03  0.00000000000E+00 0.  1.
   -9000007    1    1    2    0  502 -0.31680859086E+03 -0.84408361536E+01  0.16660819699E+03  0.53684003415E+03  0.40000000000E+03 0. -1.
<mgrwt>
<rscale>  2 0.51015856E+03</rscale>
<asrwt>0</asrwt>
<pdfrwt beam="1">  1       21 0.74679657E-01 0.51033218E+03</pdfrwt>
<pdfrwt beam="2">  1       21 0.10319984E+00 0.51033218E+03</pdfrwt>
<totfact> 0.10159610E+03</totfact>
</mgrwt>
</event>
<event>
 6    1  0.9502611E-004  0.7884757E+03  0.7818608E-02  0.9576958E-01
         21   -1    0    0  503  502  0.00000000000E+00  0.00000000000E+00  0.95539606081E+03  0.95539606081E+03  0.00000000000E+00 0. -1.
         21   -1    0    0  501  503 -0.00000000000E+00 -0.00000000000E+00 -0.10023318810E+04  0.10023318810E+04  0.00000000000E+00 0.  1.
    9000007    2    1    2  501    0  0.67171476063E+03  0.10243604637E+03  0.55649596772E+03  0.96484134915E+03  0.39942108569E+03 0.  0.
    9000005    1    3    3    0    0  0.13366849321E+03  0.92673110699E+02  0.35451805949E+03  0.39005079928E+03  0.99999687468E+00 0.  0.
          4    1    3    3  501    0  0.53804626743E+03  0.97629356668E+01  0.20197790823E+03  0.57479054987E+03  0.00000000000E+00 0.  1.
   -9000007    1    1    2    0  502 -0.67171476063E+03 -0.10243604637E+03 -0.60343178796E+03  0.99288659270E+03  0.40000000000E+03 0.  1.
<mgrwt>
<rscale>  2 0.78840227E+03</rscale>
<asrwt>0</asrwt>
<pdfrwt beam="1">  1       21 0.14698401E+00 0.78847566E+03</pdfrwt>
<pdfrwt beam="2">  1       21 0.15420491E+00 0.78847566E+03</pdfrwt>
<totfact> 0.60178504E+01</totfact>
</mgrwt>
</event>
<event>
 6    1  0.9502611E-004  0.4018378E+03  0.7818608E-02  0.1043153E+00
         21   -1    0    0  503  502  0.00000000000E+00  0.00000000000E+00  0.75393250475E+03  0.75393250475E+03  0.00000000000E+00 0. -1.
         21   -1    0    0  501  503 -0.00000000000E+00 -0.00000000000E+00 -0.24373548539E+03  0.24373548539E+03  0.00000000000E+00 0. -1.
    9000007    2    1    2  501    0 -0.16153688514E+02 -0.34823909137E+02  0.81206086758E+02  0.40986966880E+03  0.39990632725E+03 0.  0.
    9000005    1    3    3    0    0 -0.10051173313E+03  0.14386964612E+03 -0.37340044350E+02  0.17943344860E+03  0.99999687468E+00 0.  0.
          4    1    3    3  501    0  0.84358044618E+02 -0.17869355525E+03  0.11854613111E+03  0.23043622020E+03  0.00000000000E+00 0.  1.
   -9000007    1    1    2    0  502  0.16153688514E+02  0.34823909137E+02  0.42899093260E+03  0.58779832133E+03  0.40000000000E+03 0. -1.
<mgrwt>
<rscale>  2 0.40181452E+03</rscale>
<asrwt>0</asrwt>
<pdfrwt beam="1">  1       21 0.11598961E+00 0.40183784E+03</pdfrwt>
<pdfrwt beam="2">  1       21 0.37497767E-01 0.40183784E+03</pdfrwt>
<totfact> 0.34892990E+03</totfact>
</mgrwt>
</event>
<event>
 6    1  0.9502611E-004  0.4471432E+03  0.7818608E-02  0.1028874E+00
         21   -1    0    0  503  502  0.00000000000E+00  0.00000000000E+00  0.20986667723E+03  0.20986667723E+03  0.00000000000E+00 0.  1.
         21   -1    0    0  501  503 -0.00000000000E+00 -0.00000000000E+00 -0.10003262736E+04  0.10003262736E+04  0.00000000000E+00 0.  1.
    9000007    2    1    2  501    0  0.17159299621E+03  0.83633006365E+02 -0.54003539648E+03  0.70112427570E+03  0.40434933464E+03 0.  0.
    9000005    1    3    3    0    0  0.15375869030E+03  0.21121247198E+03 -0.17610066391E+03  0.31506330632E+03  0.99999687468E+00 0.  0.
          4    1    3    3  501    0  0.17834305911E+02 -0.12757946562E+03 -0.36393473256E+03  0.38606096938E+03  0.00000000000E+00 0.  1.
   -9000007    1    1    2    0  502 -0.17159299621E+03 -0.83633006365E+02 -0.25042419988E+03  0.50906867512E+03  0.40000000000E+03 0.  1.
<mgrwt>
<rscale>  2 0.44615763E+03</rscale>
<asrwt>0</asrwt>
<pdfrwt beam="1">  1       21 0.32287181E-01 0.44714318E+03</pdfrwt>
<pdfrwt beam="2">  1       21 0.15389635E+00 0.44714318E+03</pdfrwt>
<totfact> 0.22119493E+03</totfact>
</mgrwt>
</event>
<event>
 6    1  0.9502611E-004  0.4463786E+03  0.7818608E-02  0.1028904E+00
         21   -1    0    0  503  502  0.00000000000E+00  0.00000000000E+00  0.42322624780E+03  0.42322624780E+03  0.00000000000E+00 0.  1.
         21   -1    0    0  501  503 -0.00000000000E+00 -0.00000000000E+00 -0.68963299732E+03  0.68963299732E+03  0.00000000000E+00 0.  1.
    9000007    2    1    2  501    0 -0.12052496118E+03  0.15358665782E+03 -0.44773983634E+03  0.63223796375E+03  0.40142091878E+03 0.  0.
    9000005    1    3    3    0    0  0.13503017514E+02 -0.59924330380E+02 -0.36016582455E+03  0.36536786670E+03  0.99999687468E+00 0.  0.
          4    1    3    3  501    0 -0.13402797869E+03  0.21351098820E+03 -0.87574011791E+02  0.26687009704E+03  0.00000000000E+00 0.  1.
   -9000007    1    1    2    0  502  0.12052496118E+03 -0.15358665782E+03  0.18133308682E+03  0.48062128137E+03  0.40000000000E+03 0.  1.
<mgrwt>
<rscale>  2 0.44605894E+03</rscale>
<asrwt>0</asrwt>
<pdfrwt beam="1">  1       21 0.65111731E-01 0.44637863E+03</pdfrwt>
<pdfrwt beam="2">  1       21 0.10609738E+00 0.44637863E+03</pdfrwt>
<totfact> 0.13244856E+03</totfact>
</mgrwt>
</event>
<event>
 6    1  0.9502611E-004  0.4249280E+03  0.7818608E-02  0.1035494E+00
         21   -1    0    0  503  502  0.00000000000E+00  0.00000000000E+00  0.13505776694E+03  0.13505776694E+03  0.00000000000E+00 0.  1.
         21   -1    0    0  501  503 -0.00000000000E+00 -0.00000000000E+00 -0.15602778221E+04  0.15602778221E+04  0.00000000000E+00 0.  1.
    9000007    2    1    2  501    0 -0.92784063369E+02 -0.10836388905E+03 -0.10340598065E+04  0.11179639972E+04  0.40026516323E+03 0.  0.
    9000005    1    3    3    0    0 -0.17681181179E+03  0.11190881046E+02 -0.18398109304E+03  0.25541670892E+03  0.99999687468E+00 0.  0.
          4    1    3    3  501    0  0.84027748419E+02 -0.11955477009E+03 -0.85007871342E+03  0.86254728830E+03  0.00000000000E+00 0.  1.
   -9000007    1    1    2    0  502  0.92784063369E+02  0.10836388905E+03 -0.39116024868E+03  0.57737159180E+03  0.40000000000E+03 0.  1.
<mgrwt>
<rscale>  2 0.42486556E+03</rscale>
<asrwt>0</asrwt>
<pdfrwt beam="1">  1       21 0.20778119E-01 0.42492801E+03</pdfrwt>
<pdfrwt beam="2">  1       21 0.24004273E+00 0.42492801E+03</pdfrwt>
<totfact> 0.13730910E+03</totfact>
</mgrwt>
</event>
<event>
 6    1  0.9502611E-004  0.4665973E+03  0.7818608E-02  0.1022891E+00
         21   -1    0    0  503  502  0.00000000000E+00  0.00000000000E+00  0.15677641040E+03  0.15677641040E+03  0.00000000000E+00 0. -1.
         21   -1    0    0  501  503 -0.00000000000E+00 -0.00000000000E+00 -0.13898697404E+04  0.13898697404E+04  0.00000000000E+00 0. -1.
    9000007    2    1    2  501    0 -0.22329214004E+03 -0.88620858021E+02 -0.64118968511E+03  0.79294663435E+03  0.39990888506E+03 0.  0.
    9000005    1    3    3    0    0 -0.12004963671E+03 -0.22607183264E+03 -0.21817376011E+03  0.33633491996E+03  0.99999687468E+00 0.  0.
          4    1    3    3  501    0 -0.10324250333E+03  0.13745097462E+03 -0.42301592500E+03  0.45661171439E+03  0.00000000000E+00 0.  1.
   -9000007    1    1    2    0  502  0.22329214004E+03  0.88620858021E+02 -0.59190364492E+03  0.75369951649E+03  0.40000000000E+03 0. -1.
<mgrwt>
<rscale>  2 0.46657777E+03</rscale>
<asrwt>0</asrwt>
<pdfrwt beam="1">  1       21 0.24119448E-01 0.46659730E+03</pdfrwt>
<pdfrwt beam="2">  1       21 0.21382611E+00 0.46659730E+03</pdfrwt>
<totfact> 0.14806607E+03</totfact>
</mgrwt>
</event>
<event>
 6    1  0.9502611E-004  0.4056395E+03  0.7818608E-02  0.1041847E+00
         21   -1    0    0  503  502  0.00000000000E+00  0.00000000000E+00  0.23209062921E+03  0.23209062921E+03  0.00000000000E+00 0.  1.
         21   -1    0    0  501  503 -0.00000000000E+00 -0.00000000000E+00 -0.70890604342E+03  0.70890604342E+03  0.00000000000E+00 0.  1.
    9000007    2    1    2  501    0 -0.49415085786E+02 -0.45522328712E+02 -0.23691900865E+03  0.46975955766E+03  0.40003661363E+03 0.  0.
    9000005    1    3    3    0    0  0.16645272322E+03  0.26662244449E+02 -0.51765812073E+02  0.17634648746E+03  0.99999687468E+00 0.  0.
          4    1    3    3  501    0 -0.21586780900E+03 -0.72184573160E+02 -0.18515319657E+03  0.29341307021E+03  0.00000000000E+00 0.  1.
   -9000007    1    1    2    0  502  0.49415085786E+02  0.45522328712E+02 -0.23989640557E+03  0.47123711496E+03  0.40000000000E+03 0.  1.
<mgrwt>
<rscale>  2 0.40563050E+03</rscale>
<asrwt>0</asrwt>
<pdfrwt beam="1">  1       21 0.35706251E-01 0.40563953E+03</pdfrwt>
<pdfrwt beam="2">  1       21 0.10906247E+00 0.40563953E+03</pdfrwt>
<totfact> 0.44840678E+03</totfact>
</mgrwt>
</event>
<event>
 6    1  0.9502611E-004  0.6010172E+03  0.7818608E-02  0.9906164E-01
         21   -1    0    0  503  502  0.00000000000E+00  0.00000000000E+00  0.13020396158E+04  0.13020396158E+04  0.00000000000E+00 0.  1.
         21   -1    0    0  501  503 -0.00000000000E+00 -0.00000000000E+00 -0.35877395948E+03  0.35877395948E+03  0.00000000000E+00 0.  1.
    9000007    2    1    2  501    0  0.76456087051E+02 -0.44201375475E+03  0.68439459333E+02  0.59942647927E+03  0.39167135690E+03 0.  0.
    9000005    1    3    3    0    0 -0.68147626989E+02  0.34507849829E+02  0.66746675742E+02  0.10144461287E+03  0.99999687468E+00 0.  0.
          4    1    3    3  501    0  0.14460371404E+03 -0.47652160458E+03  0.16927835908E+01  0.49798186640E+03  0.00000000000E+00 0.  1.
   -9000007    1    1    2    0  502 -0.76456087051E+02  0.44201375475E+03  0.87482619698E+03  0.10613870960E+04  0.40000000000E+03 0.  1.
<mgrwt>
<rscale>  2 0.59963481E+03</rscale>
<asrwt>0</asrwt>
<pdfrwt beam="1">  1       21 0.20031379E+00 0.60101721E+03</pdfrwt>
<pdfrwt beam="2">  1       21 0.55195994E-01 0.60101721E+03</pdfrwt>
<totfact> 0.31638842E+02</totfact>
</mgrwt>
</event>
<event>
 6    1  0.9502611E-004  0.5917291E+03  0.7818608E-02  0.9923289E-01
         21   -1    0    0  503  502  0.00000000000E+00  0.00000000000E+00  0.18115801328E+04  0.18115801328E+04  0.00000000000E+00 0.  1.
         21   -1    0    0  501  503 -0.00000000000E+00 -0.00000000000E+00 -0.25021326363E+03  0.25021326363E+03  0.00000000000E+00 0.  1.
    9000007    2    1    2  501    0 -0.42907176578E+03 -0.68984282745E+02  0.28796333526E+03  0.65807762334E+03  0.40159913401E+03 0.  0.
    9000005    1    3    3    0    0 -0.18678318286E+03  0.15540272390E+03  0.20419360600E+03  0.31738618861E+03  0.99999687468E+00 0.  0.
          4    1    3    3  501    0 -0.24228858292E+03 -0.22438700664E+03  0.83769729265E+02  0.34069143474E+03  0.00000000000E+00 0.  1.
   -9000007    1    1    2    0  502  0.42907176578E+03  0.68984282745E+02  0.12734035339E+04  0.14037157730E+04  0.40000000000E+03 0.  1.
<mgrwt>
<rscale>  2 0.59145783E+03</rscale>
<asrwt>0</asrwt>
<pdfrwt beam="1">  1       21 0.27870463E+00 0.59172906E+03</pdfrwt>
<pdfrwt beam="2">  1       21 0.38494349E-01 0.59172906E+03</pdfrwt>
<totfact> 0.21694264E+02</totfact>
</mgrwt>
</event>
<event>
 6    1  0.9502611E-004  0.4134843E+03  0.7818608E-02  0.1039698E+00
         21   -1    0    0  503  502  0.00000000000E+00  0.00000000000E+00  0.28311843758E+03  0.28311843758E+03  0.00000000000E+00 0.  1.
         21   -1    0    0  501  503 -0.00000000000E+00 -0.00000000000E+00 -0.60683333000E+03  0.60683333000E+03  0.00000000000E+00 0.  1.
    9000007    2    1    2  501    0 -0.54142650140E+02 -0.56826454923E+02 -0.10179670819E+03  0.42583071330E+03  0.40596619816E+03 0.  0.
    9000005    1    3    3    0    0 -0.19304766906E+03  0.85932882932E+02 -0.77913680492E+02  0.22521857050E+03  0.99999687468E+00 0.  0.
          4    1    3    3  501    0  0.13890501892E+03 -0.14275933785E+03 -0.23883027702E+02  0.20061214280E+03  0.00000000000E+00 0.  1.
   -9000007    1    1    2    0  502  0.54142650140E+02  0.56826454923E+02 -0.22191818422E+03  0.46412105429E+03  0.40000000000E+03 0. -1.
<mgrwt>
<rscale>  2 0.41201237E+03</rscale>
<asrwt>0</asrwt>
<pdfrwt beam="1">  1       21 0.43556683E-01 0.41348425E+03</pdfrwt>
<pdfrwt beam="2">  1       21 0.93358973E-01 0.41348425E+03</pdfrwt>
<totfact> 0.43378882E+03</totfact>
</mgrwt>
</event>
<event>
 6    1  0.9502611E-004  0.4742858E+03  0.7818608E-02  0.1020769E+00
         21   -1    0    0  503  502  0.00000000000E+00  0.00000000000E+00  0.43493202397E+03  0.43493202397E+03  0.00000000000E+00 0. -1.
         21   -1    0    0  501  503 -0.00000000000E+00 -0.00000000000E+00 -0.56272341006E+03  0.56272341006E+03  0.00000000000E+00 0. -1.
    9000007    2    1    2  501    0  0.14531549825E+03 -0.20766678013E+03  0.79195134500E+02  0.48085227488E+03  0.40088022566E+03 0.  0.
    9000005    1    3    3    0    0  0.17073473961E+02 -0.30838712342E+03  0.28921333528E+02  0.31021212893E+03  0.99999687468E+00 0.  0.
          4    1    3    3  501    0  0.12824202429E+03  0.10072034329E+03  0.50273800972E+02  0.17064014595E+03  0.00000000000E+00 0.  1.
   -9000007    1    1    2    0  502 -0.14531549825E+03  0.20766678013E+03 -0.20698652059E+03  0.51680315915E+03  0.40000000000E+03 0. -1.
<mgrwt>
<rscale>  2 0.47409977E+03</rscale>
<asrwt>0</asrwt>
<pdfrwt beam="1">  1       21 0.66912619E-01 0.47428582E+03</pdfrwt>
<pdfrwt beam="2">  1       21 0.86572832E-01 0.47428582E+03</pdfrwt>
<totfact> 0.20118618E+03</totfact>
</mgrwt>
</event>
<event>
 6    1  0.9502611E-004  0.5747785E+03  0.7818608E-02  0.9959228E-01
         21   -1    0    0  503  502  0.00000000000E+00  0.00000000000E+00  0.40552232572E+03  0.40552232572E+03  0.00000000000E+00 0.  1.
         21   -1    0    0  501  503 -0.00000000000E+00 -0.00000000000E+00 -0.16099134234E+04  0.16099134234E+04  0.00000000000E+00 0.  1.
    9000007    2    1    2  501    0  0.33415256504E+03 -0.24230638349E+03 -0.13104891013E+04  0.14309469925E+04  0.39982157348E+03 0.  0.
    9000005    1    3    3    0    0 -0.73235354993E+02 -0.12690431136E+03 -0.26197669974E+03  0.30016814065E+03  0.99999687468E+00 0.  0.
          4    1    3    3  501    0  0.40738792003E+03 -0.11540207212E+03 -0.10485124016E+04  0.11307788519E+04  0.00000000000E+00 0.  1.
   -9000007    1    1    2    0  502 -0.33415256504E+03  0.24230638349E+03  0.10609800363E+03  0.58448875658E+03  0.40000000000E+03 0.  1.
<mgrwt>
<rscale>  2 0.57474746E+03</rscale>
<asrwt>0</asrwt>
<pdfrwt beam="1">  1       21 0.62388049E-01 0.57477850E+03</pdfrwt>
<pdfrwt beam="2">  1       21 0.24767899E+00 0.57477850E+03</pdfrwt>
<totfact> 0.12103406E+02</totfact>
</mgrwt>
</event>
<event>
 6    1  0.9502611E-004  0.4455484E+03  0.7818608E-02  0.1029121E+00
         21   -1    0    0  503  502  0.00000000000E+00  0.00000000000E+00  0.19230900160E+04  0.19230900160E+04  0.00000000000E+00 0.  1.
         21   -1    0    0  501  503 -0.00000000000E+00 -0.00000000000E+00 -0.22513307231E+03  0.22513307231E+03  0.00000000000E+00 0.  1.
    9000007    2    1    2  501    0 -0.18574265870E+03 -0.57169639199E+02  0.58321825692E+02  0.44934933694E+03  0.40092977982E+03 0.  0.
    9000005    1    3    3    0    0  0.11014560223E+03 -0.89272933857E+02 -0.15720339903E+02  0.14265286359E+03  0.99999687468E+00 0.  0.
          4    1    3    3  501    0 -0.29588826093E+03  0.32103294658E+02  0.74042165595E+02  0.30669647335E+03  0.00000000000E+00 0.  1.
   -9000007    1    1    2    0  502  0.18574265870E+03  0.57169639199E+02  0.16396351180E+04  0.16988737514E+04  0.40000000000E+03 0.  1.
<mgrwt>
<rscale>  2 0.44533915E+03</rscale>
<asrwt>0</asrwt>
<pdfrwt beam="1">  1       21 0.29585999E+00 0.44554842E+03</pdfrwt>
<pdfrwt beam="2">  1       21 0.34635858E-01 0.44554842E+03</pdfrwt>
<totfact> 0.22846160E+02</totfact>
</mgrwt>
</event>
<event>
 6    1  0.9502611E-004  0.4067068E+03  0.7818608E-02  0.1041516E+00
         21   -1    0    0  503  502  0.00000000000E+00  0.00000000000E+00  0.98660360120E+03  0.98660360120E+03  0.00000000000E+00 0. -1.
         21   -1    0    0  501  503 -0.00000000000E+00 -0.00000000000E+00 -0.18253028975E+03  0.18253028975E+03  0.00000000000E+00 0. -1.
    9000007    2    1    2  501    0  0.48012864446E+02 -0.52729157908E+02  0.57000925910E+03  0.70022923130E+03  0.40040582122E+03 0.  0.
    9000005    1    3    3    0    0 -0.95853830089E+02 -0.18682349354E+03  0.30015608378E+03  0.36631359394E+03  0.99999687468E+00 0.  0.
          4    1    3    3  501    0  0.14386669453E+03  0.13409433563E+03  0.26985317532E+03  0.33391563736E+03  0.00000000000E+00 0.  1.
   -9000007    1    1    2    0  502 -0.48012864446E+02  0.52729157908E+02  0.23406405235E+03  0.46890465966E+03  0.40000000000E+03 0. -1.
<mgrwt>
<rscale>  2 0.40660688E+03</rscale>
<asrwt>0</asrwt>
<pdfrwt beam="1">  1       21 0.15178517E+00 0.40670680E+03</pdfrwt>
<pdfrwt beam="2">  1       21 0.28081584E-01 0.40670680E+03</pdfrwt>
<totfact> 0.30803345E+03</totfact>
</mgrwt>
</event>
<event>
 6    1  0.9502611E-004  0.4626103E+03  0.7818608E-02  0.1024050E+00
         21   -1    0    0  503  502  0.00000000000E+00  0.00000000000E+00  0.16310768734E+03  0.16310768734E+03  0.00000000000E+00 0. -1.
         21   -1    0    0  501  503 -0.00000000000E+00 -0.00000000000E+00 -0.15805720683E+04  0.15805720683E+04  0.00000000000E+00 0. -1.
    9000007    2    1    2  501    0 -0.21975442081E+03 -0.75606001714E+02 -0.10684850117E+04  0.11642016515E+04  0.39962106088E+03 0.  0.
    9000005    1    3    3    0    0 -0.55274144617E+02 -0.21085180188E+03 -0.75039674875E+03  0.78141537862E+03  0.99999687468E+00 0.  0.
          4    1    3    3  501    0 -0.16448027619E+03  0.13524580016E+03 -0.31808826291E+03  0.38278627290E+03  0.00000000000E+00 0.  1.
   -9000007    1    1    2    0  502  0.21975442081E+03  0.75606001714E+02 -0.34897936932E+03  0.57947810414E+03  0.40000000000E+03 0. -1.
<mgrwt>
<rscale>  2 0.46252836E+03</rscale>
<asrwt>0</asrwt>
<pdfrwt beam="1">  1       21 0.25093490E-01 0.46261028E+03</pdfrwt>
<pdfrwt beam="2">  1       21 0.24316493E+00 0.46261028E+03</pdfrwt>
<totfact> 0.89605263E+02</totfact>
</mgrwt>
</event>
<event>
 6    1  0.9502611E-004  0.4227619E+03  0.7818608E-02  0.1036173E+00
         21   -1    0    0  503  502  0.00000000000E+00  0.00000000000E+00  0.15715244913E+03  0.15715244913E+03  0.00000000000E+00 0.  1.
         21   -1    0    0  501  503 -0.00000000000E+00 -0.00000000000E+00 -0.18512817552E+04  0.18512817552E+04  0.00000000000E+00 0.  1.
    9000007    2    1    2  501    0  0.44258390885E+02 -0.12949449514E+03 -0.14707272813E+04  0.15302751365E+04  0.39996953388E+03 0.  0.
    9000005    1    3    3    0    0 -0.14909472746E+03 -0.43730077680E+02 -0.27392349961E+03  0.31492323046E+03  0.99999687468E+00 0.  0.
          4    1    3    3  501    0  0.19335311835E+03 -0.85764417458E+02 -0.11968037817E+04  0.12153519061E+04  0.00000000000E+00 0.  1.
   -9000007    1    1    2    0  502 -0.44258390885E+02  0.12949449514E+03 -0.22340202473E+03  0.47815906777E+03  0.40000000000E+03 0.  1.
<mgrwt>
<rscale>  2 0.42275470E+03</rscale>
<asrwt>0</asrwt>
<pdfrwt beam="1">  1       21 0.24177299E-01 0.42276191E+03</pdfrwt>
<pdfrwt beam="2">  1       21 0.28481259E+00 0.42276191E+03</pdfrwt>
<totfact> 0.54926390E+02</totfact>
</mgrwt>
</event>
<event>
 6    1  0.9502611E-004  0.7698979E+03  0.7818608E-02  0.9604774E-01
         21   -1    0    0  503  502  0.00000000000E+00  0.00000000000E+00  0.25254301454E+04  0.25254301454E+04  0.00000000000E+00 0. -1.
         21   -1    0    0  501  503 -0.00000000000E+00 -0.00000000000E+00 -0.23761348851E+03  0.23761348851E+03  0.00000000000E+00 0.  1.
    9000007    2    1    2  501    0  0.55180676568E+03  0.35812295854E+03  0.98813972743E+03  0.12524467714E+04  0.39932447225E+03 0.  0.
    9000005    1    3    3    0    0  0.11376307788E+03  0.26824148344E+03  0.57039816310E+03  0.64050807629E+03  0.99999687468E+00 0.  0.
          4    1    3    3  501    0  0.43804368780E+03  0.89881475093E+02  0.41774156432E+03  0.61193869509E+03  0.00000000000E+00 0.  1.
   -9000007    1    1    2    0  502 -0.55180676568E+03 -0.35812295854E+03  0.12996769294E+04  0.15105968625E+04  0.40000000000E+03 0. -1.
<mgrwt>
<rscale>  2 0.76981019E+03</rscale>
<asrwt>0</asrwt>
<pdfrwt beam="1">  1       21 0.38852770E+00 0.76989789E+03</pdfrwt>
<pdfrwt beam="2">  1       21 0.36555923E-01 0.76989789E+03</pdfrwt>
<totfact> 0.46586095E+01</totfact>
</mgrwt>
</event>
<event>
 6    1  0.9502611E-004  0.4372537E+03  0.7818608E-02  0.1031604E+00
         21   -1    0    0  503  502  0.00000000000E+00  0.00000000000E+00  0.10924163623E+04  0.10924163623E+04  0.00000000000E+00 0.  1.
         21   -1    0    0  501  503 -0.00000000000E+00 -0.00000000000E+00 -0.18233517288E+03  0.18233517288E+03  0.00000000000E+00 0.  1.
    9000007    2    1    2  501    0 -0.14841048411E+03  0.95734701376E+02  0.32678207861E+03  0.54576000059E+03  0.39984577839E+03 0.  0.
    9000005    1    3    3    0    0  0.12530642202E+03 -0.39820320966E+02  0.10564249820E+03  0.16866740877E+03  0.99999687468E+00 0.  0.
          4    1    3    3  501    0 -0.27371690613E+03  0.13555502234E+03  0.22113958041E+03  0.37709259182E+03  0.00000000000E+00 0.  1.
   -9000007    1    1    2    0  502  0.14841048411E+03 -0.95734701376E+02  0.58329911082E+03  0.72899153461E+03  0.40000000000E+03 0.  1.
<mgrwt>
<rscale>  2 0.43721843E+03</rscale>
<asrwt>0</asrwt>
<pdfrwt beam="1">  1       21 0.16806405E+00 0.43725371E+03</pdfrwt>
<pdfrwt beam="2">  1       21 0.28051566E-01 0.43725371E+03</pdfrwt>
<totfact> 0.22972027E+03</totfact>
</mgrwt>
</event>
<event>
 6    1  0.9502611E-004  0.4288370E+03  0.7818608E-02  0.1034257E+00
         21   -1    0    0  503  502  0.00000000000E+00  0.00000000000E+00  0.29785965166E+03  0.29785965166E+03  0.00000000000E+00 0.  1.
         21   -1    0    0  501  503 -0.00000000000E+00 -0.00000000000E+00 -0.72400088760E+03  0.72400088760E+03  0.00000000000E+00 0. -1.
    9000007    2    1    2  501    0 -0.11912921462E+03  0.98536272005E+02 -0.40952797409E+03  0.59270186564E+03  0.39960126788E+03 0.  0.
    9000005    1    3    3    0    0 -0.49881223476E+02  0.19323327324E+03 -0.42959056410E+03  0.47368374165E+03  0.99999687468E+00 0.  0.
          4    1    3    3  501    0 -0.69247991146E+02 -0.94697001234E+02  0.20062590011E+02  0.11901812399E+03  0.00000000000E+00 0.  1.
   -9000007    1    1    2    0  502  0.11912921462E+03 -0.98536272005E+02 -0.16613261849E+02  0.42915867362E+03  0.40000000000E+03 0.  1.
<mgrwt>
<rscale>  2 0.42874399E+03</rscale>
<asrwt>0</asrwt>
<pdfrwt beam="1">  1       21 0.45824562E-01 0.42883699E+03</pdfrwt>
<pdfrwt beam="2">  1       21 0.11138475E+00 0.42883699E+03</pdfrwt>
<totfact> 0.25228912E+03</totfact>
</mgrwt>
</event>
<event>
 6    1  0.9502611E-004  0.4788525E+03  0.7818608E-02  0.1019460E+00
         21   -1    0    0  503  502  0.00000000000E+00  0.00000000000E+00  0.19496733017E+03  0.19496733017E+03  0.00000000000E+00 0. -1.
         21   -1    0    0  501  503 -0.00000000000E+00 -0.00000000000E+00 -0.14540865005E+04  0.14540865005E+04  0.00000000000E+00 0. -1.
    9000007    2    1    2  501    0 -0.19373771947E+03 -0.17788171905E+03 -0.99035150442E+03  0.11000435683E+04  0.40015439521E+03 0.  0.
    9000005    1    3    3    0    0 -0.25179354669E+03 -0.23018260313E+03 -0.95532629259E+03  0.10144128086E+04  0.99999687468E+00 0.  0.
          4    1    3    3  501    0  0.58055827221E+02  0.52300884073E+02 -0.35025211828E+02  0.85630759735E+02  0.00000000000E+00 0.  1.
   -9000007    1    1    2    0  502  0.19373771947E+03  0.17788171905E+03 -0.26876766594E+03  0.54901026236E+03  0.40000000000E+03 0. -1.
<mgrwt>
<rscale>  2 0.47882028E+03</rscale>
<asrwt>0</asrwt>
<pdfrwt beam="1">  1       21 0.29994975E-01 0.47885253E+03</pdfrwt>
<pdfrwt beam="2">  1       21 0.22370561E+00 0.47885253E+03</pdfrwt>
<totfact> 0.82912980E+02</totfact>
</mgrwt>
</event>
<event>
 6    1  0.9502611E-004  0.6130399E+03  0.7818608E-02  0.9878985E-01
         21   -1    0    0  503  502  0.00000000000E+00  0.00000000000E+00  0.27253032282E+03  0.27253032282E+03  0.00000000000E+00 0.  1.
         21   -1    0    0  501  503 -0.00000000000E+00 -0.00000000000E+00 -0.22090510098E+04  0.22090510098E+04  0.00000000000E+00 0.  1.
    9000007    2    1    2  501    0 -0.21852739933E+03  0.40995577196E+03 -0.17291344705E+04  0.18344128831E+04  0.39918247651E+03 0.  0.
    9000005    1    3    3    0    0  0.47721431594E+02  0.34569254198E+02 -0.16760588392E+02  0.61272226059E+02  0.99999687468E+00 0.  0.
          4    1    3    3  501    0 -0.26624883092E+03  0.37538651776E+03 -0.17123738821E+04  0.17731406571E+04  0.00000000000E+00 0.  1.
   -9000007    1    1    2    0  502  0.21852739933E+03 -0.40995577196E+03 -0.20738621649E+03  0.64716844948E+03  0.40000000000E+03 0.  1.
<mgrwt>
<rscale>  2 0.61290661E+03</rscale>
<asrwt>0</asrwt>
<pdfrwt beam="1">  1       21 0.41927742E-01 0.61303993E+03</pdfrwt>
<pdfrwt beam="2">  1       21 0.33985400E+00 0.61303993E+03</pdfrwt>
<totfact> 0.76122701E+01</totfact>
</mgrwt>
</event>
<event>
 6    1  0.9502611E-004  0.4447406E+03  0.7818608E-02  0.1029335E+00
         21   -1    0    0  503  502  0.00000000000E+00  0.00000000000E+00  0.38668594876E+03  0.38668594876E+03  0.00000000000E+00 0. -1.
         21   -1    0    0  501  503 -0.00000000000E+00 -0.00000000000E+00 -0.52127348513E+03  0.52127348513E+03  0.00000000000E+00 0. -1.
    9000007    2    1    2  501    0  0.40572253595E+02  0.19012650278E+03 -0.13094280766E+03  0.46320390681E+03  0.39952177110E+03 0.  0.
    9000005    1    3    3    0    0  0.15100837280E+03  0.26436908317E+03 -0.53156444300E+02  0.30906495815E+03  0.99999687468E+00 0.  0.
          4    1    3    3  501    0 -0.11043611921E+03 -0.74242580390E+02 -0.77786363362E+02  0.15413894866E+03  0.00000000000E+00 0.  1.
   -9000007    1    1    2    0  502 -0.40572253595E+02 -0.19012650278E+03 -0.36447287152E+01  0.44475552708E+03  0.40000000000E+03 0. -1.
<mgrwt>
<rscale>  2 0.44463304E+03</rscale>
<asrwt>0</asrwt>
<pdfrwt beam="1">  1       21 0.59490146E-01 0.44474059E+03</pdfrwt>
<pdfrwt beam="2">  1       21 0.80195920E-01 0.44474059E+03</pdfrwt>
<totfact> 0.31519719E+03</totfact>
</mgrwt>
</event>
<event>
 6    1  0.9502611E-004  0.4071919E+03  0.7818608E-02  0.1041364E+00
         21   -1    0    0  503  502  0.00000000000E+00  0.00000000000E+00  0.10826083388E+04  0.10826083388E+04  0.00000000000E+00 0.  1.
         21   -1    0    0  501  503 -0.00000000000E+00 -0.00000000000E+00 -0.15499069582E+03  0.15499069582E+03  0.00000000000E+00 0.  1.
    9000007    2    1    2  501    0 -0.64767687568E+02 -0.34093737790E+02  0.39305337665E+03  0.56594719688E+03  0.40055965406E+03 0.  0.
    9000005    1    3    3    0    0 -0.20678785656E+03  0.83094523166E+02  0.20629605674E+03  0.30368566055E+03  0.99999687468E+00 0.  0.
          4    1    3    3  501    0  0.14202016899E+03 -0.11718826096E+03  0.18675731990E+03  0.26226153634E+03  0.00000000000E+00 0.  1.
   -9000007    1    1    2    0  502  0.64767687568E+02  0.34093737790E+02  0.53456426638E+03  0.67165183778E+03  0.40000000000E+03 0. -1.
<mgrwt>
<rscale>  2 0.40705423E+03</rscale>
<asrwt>0</asrwt>
<pdfrwt beam="1">  1       21 0.16655512E+00 0.40719194E+03</pdfrwt>
<pdfrwt beam="2">  1       21 0.23844723E-01 0.40719194E+03</pdfrwt>
<totfact> 0.32759371E+03</totfact>
</mgrwt>
</event>
<event>
 6    1  0.9502611E-004  0.4729728E+03  0.7818608E-02  0.1021115E+00
         21   -1    0    0  503  502  0.00000000000E+00  0.00000000000E+00  0.81117502447E+03  0.81117502447E+03  0.00000000000E+00 0. -1.
         21   -1    0    0  501  503 -0.00000000000E+00 -0.00000000000E+00 -0.29735560023E+03  0.29735560023E+03  0.00000000000E+00 0. -1.
    9000007    2    1    2  501    0 -0.82519047362E+02  0.23766288171E+03  0.10683511961E+03  0.48488868998E+03  0.40051249714E+03 0.  0.
    9000005    1    3    3    0    0 -0.18517831976E+03  0.47251086415E+02 -0.71988111699E+02  0.20422282805E+03  0.99999687468E+00 0.  0.
          4    1    3    3  501    0  0.10265927240E+03  0.19041179530E+03  0.17882323131E+03  0.28066586193E+03  0.00000000000E+00 0.  1.
   -9000007    1    1    2    0  502  0.82519047362E+02 -0.23766288171E+03  0.40698430463E+03  0.62364193472E+03  0.40000000000E+03 0. -1.
<mgrwt>
<rscale>  2 0.47286432E+03</rscale>
<asrwt>0</asrwt>
<pdfrwt beam="1">  1       21 0.12479616E+00 0.47297283E+03</pdfrwt>
<pdfrwt beam="2">  1       21 0.45747016E-01 0.47297283E+03</pdfrwt>
<totfact> 0.18683792E+03</totfact>
</mgrwt>
</event>
<event>
 6    1  0.9502611E-004  0.6392734E+03  0.7818608E-02  0.9827136E-01
         21   -1    0    0  503  502  0.00000000000E+00  0.00000000000E+00  0.16814826431E+04  0.16814826431E+04  0.00000000000E+00 0. -1.
         21   -1    0    0  501  503 -0.00000000000E+00 -0.00000000000E+00 -0.75056688994E+03  0.75056688994E+03  0.00000000000E+00 0.  1.
    9000007    2    1    2  501    0 -0.36274983671E+02  0.49734750786E+03 -0.53450635868E+03  0.83325861993E+03  0.39994057335E+03 0.  0.
    9000005    1    3    3    0    0 -0.70360284287E+02  0.53795340470E+03 -0.36058018580E+03  0.65143188870E+03  0.99999687468E+00 0.  0.
          4    1    3    3  501    0  0.34085300616E+02 -0.40605896843E+02 -0.17392617288E+03  0.18182673123E+03  0.00000000000E+00 0.  1.
   -9000007    1    1    2    0  502  0.36274983671E+02 -0.49734750786E+03  0.14654221119E+04  0.15987909131E+04  0.40000000000E+03 0. -1.
<mgrwt>
<rscale>  2 0.63926406E+03</rscale>
<asrwt>0</asrwt>
<pdfrwt beam="1">  1       21 0.25868964E+00 0.63927335E+03</pdfrwt>
<pdfrwt beam="2">  1       21 0.11547183E+00 0.63927335E+03</pdfrwt>
<totfact> 0.23424128E+01</totfact>
</mgrwt>
</event>
<event>
 6    1  0.9502611E-004  0.4197334E+03  0.7818608E-02  0.1037324E+00
         21   -1    0    0  503  502  0.00000000000E+00  0.00000000000E+00  0.14949549075E+03  0.14949549075E+03  0.00000000000E+00 0.  1.
         21   -1    0    0  501  503 -0.00000000000E+00 -0.00000000000E+00 -0.12916012403E+04  0.12916012403E+04  0.00000000000E+00 0.  1.
    9000007    2    1    2  501    0 -0.28350446121E+02  0.12398546660E+03 -0.78847069243E+03  0.89224894035E+03  0.39780145174E+03 0.  0.
    9000005    1    3    3    0    0 -0.16297750183E+03  0.20352403970E+03 -0.47082767090E+03  0.53820386148E+03  0.99999687468E+00 0.  0.
          4    1    3    3  501    0  0.13462705571E+03 -0.79538573101E+02 -0.31764302153E+03  0.35404507886E+03  0.00000000000E+00 0.  1.
   -9000007    1    1    2    0  502  0.28350446121E+02 -0.12398546660E+03 -0.35363505710E+03  0.54884779068E+03  0.40000000000E+03 0.  1.
<mgrwt>
<rscale>  2 0.41920877E+03</rscale>
<asrwt>0</asrwt>
<pdfrwt beam="1">  1       21 0.22999307E-01 0.41973342E+03</pdfrwt>
<pdfrwt beam="2">  1       21 0.19870788E+00 0.41973342E+03</pdfrwt>
<totfact> 0.20833156E+03</totfact>
</mgrwt>
</event>
<event>
 6    1  0.9502611E-004  0.4424495E+03  0.7818608E-02  0.1030005E+00
         21   -1    0    0  503  502  0.00000000000E+00  0.00000000000E+00  0.49100257385E+03  0.49100257385E+03  0.00000000000E+00 0. -1.
         21   -1    0    0  501  503 -0.00000000000E+00 -0.00000000000E+00 -0.39869789667E+03  0.39869789667E+03  0.00000000000E+00 0. -1.
    9000007    2    1    2  501    0 -0.13443938201E+03  0.13299486586E+03  0.39834684844E+02  0.44415060589E+03  0.39990170894E+03 0.  0.
    9000005    1    3    3    0    0 -0.23551562502E+02  0.15468789126E+03  0.19637513626E+03  0.25109204276E+03  0.99999687468E+00 0.  0.
          4    1    3    3  501    0 -0.11088781951E+03 -0.21693025400E+02 -0.15654045142E+03  0.19305856313E+03  0.00000000000E+00 0.  1.
   -9000007    1    1    2    0  502  0.13443938201E+03 -0.13299486586E+03  0.52469992339E+02  0.44554986464E+03  0.40000000000E+03 0. -1.
<mgrwt>
<rscale>  2 0.44242731E+03</rscale>
<asrwt>0</asrwt>
<pdfrwt beam="1">  1       21 0.75538858E-01 0.44244952E+03</pdfrwt>
<pdfrwt beam="2">  1       21 0.61338138E-01 0.44244952E+03</pdfrwt>
<totfact> 0.33842979E+03</totfact>
</mgrwt>
</event>
<event>
 6    1  0.9502611E-004  0.6613725E+03  0.7818608E-02  0.9785719E-01
         21   -1    0    0  503  502  0.00000000000E+00  0.00000000000E+00  0.17558091051E+04  0.17558091051E+04  0.00000000000E+00 0.  1.
         21   -1    0    0  501  503 -0.00000000000E+00 -0.00000000000E+00 -0.26721624446E+03  0.26721624446E+03  0.00000000000E+00 0.  1.
    9000007    2    1    2  501    0  0.40719222251E+03 -0.33407789255E+03  0.10077339133E+04  0.12053219366E+04  0.39982469466E+03 0.  0.
    9000005    1    3    3    0    0 -0.11574302435E+02 -0.27438000279E+02 -0.31700517708E+02  0.43505530141E+02  0.99999687468E+00 0.  0.
          4    1    3    3  501    0  0.41876652494E+03 -0.30663989228E+03  0.10394344310E+04  0.11618164064E+04  0.00000000000E+00 0.  1.
   -9000007    1    1    2    0  502 -0.40719222251E+03  0.33407789255E+03  0.48085894738E+03  0.81770341301E+03  0.40000000000E+03 0.  1.
<mgrwt>
<rscale>  2 0.66134597E+03</rscale>
<asrwt>0</asrwt>
<pdfrwt beam="1">  1       21 0.27012447E+00 0.66137247E+03</pdfrwt>
<pdfrwt beam="2">  1       21 0.41110192E-01 0.66137247E+03</pdfrwt>
<totfact> 0.20774503E+02</totfact>
</mgrwt>
</event>
<event>
 6    1  0.9502611E-004  0.4236466E+03  0.7818608E-02  0.1035891E+00
         21   -1    0    0  503  502  0.00000000000E+00  0.00000000000E+00  0.12127945648E+03  0.12127945648E+03  0.00000000000E+00 0. -1.
         21   -1    0    0  501  503 -0.00000000000E+00 -0.00000000000E+00 -0.16196475769E+04  0.16196475769E+04  0.00000000000E+00 0. -1.
    9000007    2    1    2  501    0  0.12503879081E+03  0.61981611048E+02 -0.49321346941E+03  0.65014186125E+03  0.39993561235E+03 0.  0.
    9000005    1    3    3    0    0 -0.54669447887E+02  0.38781827691E+02 -0.46130989866E+03  0.46615512578E+03  0.99999687468E+00 0.  0.
          4    1    3    3  501    0  0.17970823870E+03  0.23199783357E+02 -0.31903570750E+02  0.18398673547E+03  0.00000000000E+00 0.  1.
   -9000007    1    1    2    0  502 -0.12503879081E+03 -0.61981611048E+02 -0.10051546510E+04  0.10907851722E+04  0.40000000000E+03 0.  1.
<mgrwt>
<rscale>  2 0.42363137E+03</rscale>
<asrwt>0</asrwt>
<pdfrwt beam="1">  1       21 0.18658379E-01 0.42364657E+03</pdfrwt>
<pdfrwt beam="2">  1       21 0.24917654E+00 0.42364657E+03</pdfrwt>
<totfact> 0.14806569E+03</totfact>
</mgrwt>
</event>
<event>
 6    1  0.9502611E-004  0.4325808E+03  0.7818608E-02  0.1033049E+00
         21   -1    0    0  503  502  0.00000000000E+00  0.00000000000E+00  0.53410641890E+03  0.53410641890E+03  0.00000000000E+00 0. -1.
         21   -1    0    0  501  503 -0.00000000000E+00 -0.00000000000E+00 -0.45575570228E+03  0.45575570228E+03  0.00000000000E+00 0. -1.
    9000007    2    1    2  501    0 -0.10391247639E+03  0.12778251857E+03 -0.19885753958E+03  0.47608143635E+03  0.39997879717E+03 0.  0.
    9000005    1    3    3    0    0 -0.17654562083E+03  0.22430539171E+03 -0.21057385071E+03  0.35471624094E+03  0.99999687468E+00 0.  0.
          4    1    3    3  501    0  0.72633144444E+02 -0.96522873142E+02  0.11716311131E+02  0.12136519541E+03  0.00000000000E+00 0.  1.
   -9000007    1    1    2    0  502  0.10391247639E+03 -0.12778251857E+03  0.27720825619E+03  0.51378068483E+03  0.40000000000E+03 0. -1.
<mgrwt>
<rscale>  2 0.43257593E+03</rscale>
<asrwt>0</asrwt>
<pdfrwt beam="1">  1       21 0.82170218E-01 0.43258083E+03</pdfrwt>
<pdfrwt beam="2">  1       21 0.70116262E-01 0.43258083E+03</pdfrwt>
<totfact> 0.20783815E+03</totfact>
</mgrwt>
</event>
<event>
 6    1  0.9502611E-004  0.4175910E+03  0.7818608E-02  0.1037884E+00
         21   -1    0    0  503  502  0.00000000000E+00  0.00000000000E+00  0.22335354856E+03  0.22335354856E+03  0.00000000000E+00 0. -1.
         21   -1    0    0  501  503 -0.00000000000E+00 -0.00000000000E+00 -0.78492322224E+03  0.78492322224E+03  0.00000000000E+00 0. -1.
    9000007    2    1    2  501    0 -0.11469668627E+03 -0.30145186241E+02 -0.32070514511E+03  0.52653017432E+03  0.40039751781E+03 0.  0.
    9000005    1    3    3    0    0  0.12563185162E+03 -0.99393097295E+02 -0.78612056214E+02  0.17844664554E+03  0.99999687468E+00 0.  0.
          4    1    3    3  501    0 -0.24032853789E+03  0.69247911053E+02 -0.24209308890E+03  0.34808352877E+03  0.00000000000E+00 0.  1.
   -9000007    1    1    2    0  502  0.11469668627E+03  0.30145186241E+02 -0.24086452858E+03  0.48174659648E+03  0.40000000000E+03 0.  1.
<mgrwt>
<rscale>  2 0.41749567E+03</rscale>
<asrwt>0</asrwt>
<pdfrwt beam="1">  1       21 0.34362084E-01 0.41759099E+03</pdfrwt>
<pdfrwt beam="2">  1       21 0.12075742E+00 0.41759099E+03</pdfrwt>
<totfact> 0.37393630E+03</totfact>
</mgrwt>
</event>
<event>
 6    1  0.9502611E-004  0.4498311E+03  0.7818608E-02  0.1028091E+00
         21   -1    0    0  503  502  0.00000000000E+00  0.00000000000E+00  0.36582415558E+03  0.36582415558E+03  0.00000000000E+00 0. -1.
         21   -1    0    0  501  503 -0.00000000000E+00 -0.00000000000E+00 -0.58442453217E+03  0.58442453217E+03  0.00000000000E+00 0.  1.
    9000007    2    1    2  501    0  0.19489003220E+03  0.23650903182E+02 -0.22854029024E+03  0.50455788489E+03  0.40473016328E+03 0.  0.
    9000005    1    3    3    0    0  0.12132729355E+03  0.11658060693E+03  0.70842663461E+02  0.18256788609E+03  0.99999687468E+00 0.  0.
          4    1    3    3  501    0  0.73562738651E+02 -0.92929703751E+02 -0.29938295370E+03  0.32198999880E+03  0.00000000000E+00 0.  1.
   -9000007    1    1    2    0  502 -0.19489003220E+03 -0.23650903182E+02  0.99399136478E+01  0.44569080286E+03  0.40000000000E+03 0.  1.
<mgrwt>
<rscale>  2 0.44876450E+03</rscale>
<asrwt>0</asrwt>
<pdfrwt beam="1">  1       21 0.56280640E-01 0.44983107E+03</pdfrwt>
<pdfrwt beam="2">  1       21 0.89911465E-01 0.44983107E+03</pdfrwt>
<totfact> 0.27169356E+03</totfact>
</mgrwt>
</event>
<event>
 6    1  0.9502611E-004  0.4857903E+03  0.7818608E-02  0.1017594E+00
         21   -1    0    0  503  502  0.00000000000E+00  0.00000000000E+00  0.15779594158E+03  0.15779594158E+03  0.00000000000E+00 0. -1.
         21   -1    0    0  501  503 -0.00000000000E+00 -0.00000000000E+00 -0.21175877683E+04  0.21175877683E+04  0.00000000000E+00 0. -1.
    9000007    2    1    2  501    0  0.76768685393E+02 -0.26476181295E+03 -0.15969643311E+04  0.16690537335E+04  0.39931571713E+03 0.  0.
    9000005    1    3    3    0    0 -0.59020282623E+02 -0.19534813751E+03 -0.14236302959E+04  0.14381823625E+04  0.99999687468E+00 0.  0.
          4    1    3    3  501    0  0.13578896802E+03 -0.69413675437E+02 -0.17333403519E+03  0.23087137096E+03  0.00000000000E+00 0.  1.
   -9000007    1    1    2    0  502 -0.76768685393E+02  0.26476181295E+03 -0.36282749565E+03  0.60632997638E+03  0.40000000000E+03 0. -1.
<mgrwt>
<rscale>  2 0.48564945E+03</rscale>
<asrwt>0</asrwt>
<pdfrwt beam="1">  1       21 0.24276299E-01 0.48579033E+03</pdfrwt>
<pdfrwt beam="2">  1       21 0.32578273E+00 0.48579033E+03</pdfrwt>
<totfact> 0.29761266E+02</totfact>
</mgrwt>
</event>
<event>
 6    1  0.9502611E-004  0.5226760E+03  0.7818608E-02  0.1008039E+00
         21   -1    0    0  503  502  0.00000000000E+00  0.00000000000E+00  0.17282099620E+04  0.17282099620E+04  0.00000000000E+00 0. -1.
         21   -1    0    0  501  503 -0.00000000000E+00 -0.00000000000E+00 -0.16472859999E+03  0.16472859999E+03  0.00000000000E+00 0.  1.
    9000007    2    1    2  501    0 -0.30790400631E+03 -0.13559258114E+03  0.59029260188E+03  0.78827273561E+03  0.39967277203E+03 0.  0.
    9000005    1    3    3    0    0 -0.27256543905E+03 -0.12575317667E+03  0.65126605609E+03  0.71711523189E+03  0.99999687468E+00 0.  0.
          4    1    3    3  501    0 -0.35338567261E+02 -0.98394044665E+01 -0.60973454209E+02  0.71157503711E+02  0.00000000000E+00 0.  1.
   -9000007    1    1    2    0  502  0.30790400631E+03  0.13559258114E+03  0.97318876014E+03  0.11046658264E+04  0.40000000000E+03 0. -1.
<mgrwt>
<rscale>  2 0.52261342E+03</rscale>
<asrwt>0</asrwt>
<pdfrwt beam="1">  1       21 0.26587844E+00 0.52267602E+03</pdfrwt>
<pdfrwt beam="2">  1       21 0.25342863E-01 0.52267602E+03</pdfrwt>
<totfact> 0.61972621E+02</totfact>
</mgrwt>
</event>
<event>
 6    1  0.9502611E-004  0.6136033E+03  0.7818608E-02  0.9878203E-01
         21   -1    0    0  503  502  0.00000000000E+00  0.00000000000E+00  0.10661274641E+04  0.10661274641E+04  0.00000000000E+00 0. -1.
         21   -1    0    0  501  503 -0.00000000000E+00 -0.00000000000E+00 -0.63748198120E+03  0.63748198120E+03  0.00000000000E+00 0.  1.
    9000007    2    1    2  501    0  0.43802654166E+03  0.15207178963E+03 -0.35514078113E+03  0.70896680191E+03  0.40189037234E+03 0.  0.
    9000005    1    3    3    0    0  0.23323993579E+03 -0.48447693127E+02  0.17489290057E+02  0.23886172125E+03  0.99999687468E+00 0.  0.
          4    1    3    3  501    0  0.20478660587E+03  0.20051948276E+03 -0.37263007119E+03  0.47010508066E+03  0.00000000000E+00 0.  1.
   -9000007    1    1    2    0  502 -0.43802654166E+03 -0.15207178963E+03  0.78378626406E+03  0.99464264343E+03  0.40000000000E+03 0.  1.
<mgrwt>
<rscale>  2 0.61329390E+03</rscale>
<asrwt>0</asrwt>
<pdfrwt beam="1">  1       21 0.16401961E+00 0.61360325E+03</pdfrwt>
<pdfrwt beam="2">  1       21 0.98074151E-01 0.61360325E+03</pdfrwt>
<totfact> 0.15244469E+02</totfact>
</mgrwt>
</event>
<event>
 6    1  0.9502611E-004  0.4106997E+03  0.7818608E-02  0.1040156E+00
         21   -1    0    0  503  502  0.00000000000E+00  0.00000000000E+00  0.54435824674E+03  0.54435824674E+03  0.00000000000E+00 0. -1.
         21   -1    0    0  501  503 -0.00000000000E+00 -0.00000000000E+00 -0.31336590903E+03  0.31336590903E+03  0.00000000000E+00 0. -1.
    9000007    2    1    2  501    0  0.15930030023E+02 -0.90704834713E+02  0.16203116376E+03  0.44150693315E+03  0.40024135355E+03 0.  0.
    9000005    1    3    3    0    0  0.18414994849E+03 -0.58131543442E+02  0.18645040026E+03  0.26843105562E+03  0.99999687468E+00 0.  0.
          4    1    3    3  501    0 -0.16821991846E+03 -0.32573291271E+02 -0.24419236495E+02  0.17307587753E+03  0.00000000000E+00 0.  1.
   -9000007    1    1    2    0  502 -0.15930030023E+02  0.90704834713E+02  0.68961173953E+02  0.41621722263E+03  0.40000000000E+03 0. -1.
<mgrwt>
<rscale>  2 0.41064092E+03</rscale>
<asrwt>0</asrwt>
<pdfrwt beam="1">  1       21 0.83747422E-01 0.41069974E+03</pdfrwt>
<pdfrwt beam="2">  1       21 0.48210140E-01 0.41069974E+03</pdfrwt>
<totfact> 0.45332043E+03</totfact>
</mgrwt>
</event>
<event>
 6    1  0.9502611E-004  0.4701609E+03  0.7818608E-02  0.1021877E+00
         21   -1    0    0  503  502  0.00000000000E+00  0.00000000000E+00  0.13862979807E+04  0.13862979807E+04  0.00000000000E+00 0. -1.
         21   -1    0    0  501  503 -0.00000000000E+00 -0.00000000000E+00 -0.15975670171E+03  0.15975670171E+03  0.00000000000E+00 0.  1.
    9000007    2    1    2  501    0 -0.18951884569E+03 -0.15853671500E+03  0.57914867774E+03  0.74594939994E+03  0.39997004072E+03 0.  0.
    9000005    1    3    3    0    0 -0.34983011635E+02 -0.26809034088E+03  0.41496658543E+03  0.49527215649E+03  0.99999687468E+00 0.  0.
          4    1    3    3  501    0 -0.15453583405E+03  0.10955362588E+03  0.16418209232E+03  0.25067724346E+03  0.00000000000E+00 0.  1.
   -9000007    1    1    2    0  502  0.18951884569E+03  0.15853671500E+03  0.64739260126E+03  0.80010528247E+03  0.40000000000E+03 0. -1.
<mgrwt>
<rscale>  2 0.47015454E+03</rscale>
<asrwt>0</asrwt>
<pdfrwt beam="1">  1       21 0.21327660E+00 0.47016091E+03</pdfrwt>
<pdfrwt beam="2">  1       21 0.24577955E-01 0.47016091E+03</pdfrwt>
<totfact> 0.14370192E+03</totfact>
</mgrwt>
</event>
<event>
 6    1  0.9502611E-004  0.7628967E+03  0.7818608E-02  0.9615424E-01
         21   -1    0    0  503  502  0.00000000000E+00  0.00000000000E+00  0.35372575928E+03  0.35372575928E+03  0.00000000000E+00 0.  1.
         21   -1    0    0  501  503 -0.00000000000E+00 -0.00000000000E+00 -0.17463571773E+04  0.17463571773E+04  0.00000000000E+00 0.  1.
    9000007    2    1    2  501    0 -0.62026187205E+03 -0.19214687295E+03 -0.94956620724E+03  0.12180670684E+04  0.40045747655E+03 0.  0.
    9000005    1    3    3    0    0 -0.48440736188E+03  0.41166225199E+02 -0.53055271476E+03  0.71960567916E+03  0.99999687468E+00 0.  0.
          4    1    3    3  501    0 -0.13585451017E+03 -0.23331309815E+03 -0.41901349248E+03  0.49846138925E+03  0.00000000000E+00 0.  1.
   -9000007    1    1    2    0  502  0.62026187205E+03  0.19214687295E+03 -0.44306521080E+03  0.88201586819E+03  0.40000000000E+03 0.  1.
<mgrwt>
<rscale>  2 0.76283670E+03</rscale>
<asrwt>0</asrwt>
<pdfrwt beam="1">  1       21 0.54419348E-01 0.76289672E+03</pdfrwt>
<pdfrwt beam="2">  1       21 0.26867033E+00 0.76289672E+03</pdfrwt>
<totfact> 0.11246830E+02</totfact>
</mgrwt>
</event>
<event>
 6    1  0.9502611E-004  0.4406291E+03  0.7818608E-02  0.1030983E+00
         21   -1    0    0  503  502  0.00000000000E+00  0.00000000000E+00  0.58302419605E+03  0.58302419605E+03  0.00000000000E+00 0.  1.
         21   -1    0    0  501  503 -0.00000000000E+00 -0.00000000000E+00 -0.32941710192E+03  0.32941710192E+03  0.00000000000E+00 0. -1.
    9000007    2    1    2  501    0  0.12993090811E+03  0.13142279813E+03  0.10658081538E+03  0.44793002858E+03  0.39386272678E+03 0.  0.
    9000005    1    3    3    0    0  0.69281786081E+02  0.18037247333E+02 -0.14705624622E+03  0.16355992089E+03  0.99999687468E+00 0.  0.
          4    1    3    3  501    0  0.60649122030E+02  0.11338555080E+03  0.25363706160E+03  0.28437010770E+03  0.00000000000E+00 0.  1.
   -9000007    1    1    2    0  502 -0.12993090811E+03 -0.13142279813E+03  0.14702627875E+03  0.46451126939E+03  0.40000000000E+03 0. -1.
<mgrwt>
<rscale>  2 0.43923151E+03</rscale>
<asrwt>0</asrwt>
<pdfrwt beam="1">  1       21 0.89696030E-01 0.44062909E+03</pdfrwt>
<pdfrwt beam="2">  1       21 0.50679554E-01 0.44062909E+03</pdfrwt>
<totfact> 0.34338697E+03</totfact>
</mgrwt>
</event>
<event>
 6    1  0.9502611E-004  0.4531819E+03  0.7818608E-02  0.1026801E+00
         21   -1    0    0  503  502  0.00000000000E+00  0.00000000000E+00  0.19399717795E+03  0.19399717795E+03  0.00000000000E+00 0.  1.
         21   -1    0    0  501  503 -0.00000000000E+00 -0.00000000000E+00 -0.12345861963E+04  0.12345861963E+04  0.00000000000E+00 0.  1.
    9000007    2    1    2  501    0 -0.15302641314E+03 -0.14721106579E+03 -0.79066339260E+03  0.91133005196E+03  0.40035694348E+03 0.  0.
    9000005    1    3    3    0    0 -0.21424528455E+03 -0.35495176794E+02 -0.16476051839E+03  0.27259489712E+03  0.99999687468E+00 0.  0.
          4    1    3    3  501    0  0.61218871401E+02 -0.11171588900E+03 -0.62590287421E+03  0.63873515483E+03  0.00000000000E+00 0.  1.
   -9000007    1    1    2    0  502  0.15302641314E+03  0.14721106579E+03 -0.24992562574E+03  0.51725332228E+03  0.40000000000E+03 0.  1.
<mgrwt>
<rscale>  2 0.45310308E+03</rscale>
<asrwt>0</asrwt>
<pdfrwt beam="1">  1       21 0.29845720E-01 0.45318193E+03</pdfrwt>
<pdfrwt beam="2">  1       21 0.18993634E+00 0.45318193E+03</pdfrwt>
<totfact> 0.14136773E+03</totfact>
</mgrwt>
</event>
<event>
 6    1  0.9502611E-004  0.4529311E+03  0.7818608E-02  0.1026862E+00
         21   -1    0    0  503  502  0.00000000000E+00  0.00000000000E+00  0.23664598417E+03  0.23664598417E+03  0.00000000000E+00 0.  1.
         21   -1    0    0  501  503 -0.00000000000E+00 -0.00000000000E+00 -0.97687475266E+03  0.97687475266E+03  0.00000000000E+00 0. -1.
    9000007    2    1    2  501    0 -0.41225035534E+02  0.20812959293E+03 -0.16632227092E+03  0.48250356947E+03  0.40016142460E+03 0.  0.
    9000005    1    3    3    0    0 -0.10285790927E+03  0.22257183470E+03 -0.26767916554E+03  0.36300290186E+03  0.99999687468E+00 0.  0.
          4    1    3    3  501    0  0.61632873734E+02 -0.14442241773E+02  0.10135689462E+03  0.11950066761E+03  0.00000000000E+00 0.  1.
   -9000007    1    1    2    0  502  0.41225035534E+02 -0.20812959293E+03 -0.57390649758E+03  0.73101716736E+03  0.40000000000E+03 0.  1.
<mgrwt>
<rscale>  2 0.45289546E+03</rscale>
<asrwt>0</asrwt>
<pdfrwt beam="1">  1       21 0.36407075E-01 0.45293112E+03</pdfrwt>
<pdfrwt beam="2">  1       21 0.15028842E+00 0.45293112E+03</pdfrwt>
<totfact> 0.18474695E+03</totfact>
</mgrwt>
</event>
<event>
 6    1  0.9502611E-004  0.5363157E+03  0.7818608E-02  0.1004750E+00
         21   -1    0    0  503  502  0.00000000000E+00  0.00000000000E+00  0.22206552780E+04  0.22206552780E+04  0.00000000000E+00 0. -1.
         21   -1    0    0  501  503 -0.00000000000E+00 -0.00000000000E+00 -0.16942332484E+03  0.16942332484E+03  0.00000000000E+00 0. -1.
    9000007    2    1    2  501    0 -0.75835660196E+02  0.34911809074E+03  0.44412159082E+03  0.69584184094E+03  0.39914582740E+03 0.  0.
    9000005    1    3    3    0    0  0.52529955596E+02  0.36113074792E+03  0.43324102488E+03  0.56645705836E+03  0.99999687468E+00 0.  0.
          4    1    3    3  501    0 -0.12836561579E+03 -0.12012657176E+02  0.10880565940E+02  0.12938478259E+03  0.00000000000E+00 0.  1.
   -9000007    1    1    2    0  502  0.75835660196E+02 -0.34911809074E+03  0.16071103624E+04  0.16942367619E+04  0.40000000000E+03 0. -1.
<mgrwt>
<rscale>  2 0.53615640E+03</rscale>
<asrwt>0</asrwt>
<pdfrwt beam="1">  1       21 0.34163925E+00 0.53631566E+03</pdfrwt>
<pdfrwt beam="2">  1       21 0.26065129E-01 0.53631566E+03</pdfrwt>
<totfact> 0.20170319E+02</totfact>
</mgrwt>
</event>
<event>
 6    1  0.9502611E-004  0.4633995E+03  0.7818608E-02  0.1024021E+00
         21   -1    0    0  503  502  0.00000000000E+00  0.00000000000E+00  0.11885959537E+04  0.11885959537E+04  0.00000000000E+00 0.  1.
         21   -1    0    0  501  503 -0.00000000000E+00 -0.00000000000E+00 -0.97097804235E+03  0.97097804235E+03  0.00000000000E+00 0.  1.
    9000007    2    1    2  501    0  0.11818485072E+03  0.20191944126E+03 -0.86615928881E+03  0.98088313781E+03  0.39643498426E+03 0.  0.
    9000005    1    3    3    0    0  0.50184686454E+02  0.10461615671E+02  0.31727592726E+02  0.60295839747E+02  0.99999687468E+00 0.  0.
          4    1    3    3  501    0  0.68000164269E+02  0.19145782559E+03 -0.89788688154E+03  0.92058729806E+03  0.00000000000E+00 0.  1.
   -9000007    1    1    2    0  502 -0.11818485072E+03 -0.20191944126E+03  0.10837772001E+04  0.11786908582E+04  0.40000000000E+03 0.  1.
<mgrwt>
<rscale>  2 0.46262917E+03</rscale>
<asrwt>0</asrwt>
<pdfrwt beam="1">  1       21 0.18286092E+00 0.46339952E+03</pdfrwt>
<pdfrwt beam="2">  1       21 0.14938124E+00 0.46339952E+03</pdfrwt>
<totfact> 0.40661249E+01</totfact>
</mgrwt>
</event>
<event>
 6    1  0.9502611E-004  0.4291074E+03  0.7818608E-02  0.1034174E+00
         21   -1    0    0  503  502  0.00000000000E+00  0.00000000000E+00  0.61919430967E+03  0.61919430967E+03  0.00000000000E+00 0. -1.
         21   -1    0    0  501  503 -0.00000000000E+00 -0.00000000000E+00 -0.42431974876E+03  0.42431974876E+03  0.00000000000E+00 0.  1.
    9000007    2    1    2  501    0  0.14784270138E+03 -0.47704314327E+02 -0.18828521544E+03  0.46823622974E+03  0.39957562305E+03 0.  0.
    9000005    1    3    3    0    0  0.10152267778E+02  0.16091316681E+03 -0.10652444606E+02  0.16158771724E+03  0.99999687468E+00 0.  0.
          4    1    3    3  501    0  0.13769043360E+03 -0.20861748114E+03 -0.17763277084E+03  0.30664851250E+03  0.00000000000E+00 0.  1.
   -9000007    1    1    2    0  502 -0.14784270138E+03  0.47704314327E+02  0.38315977635E+03  0.57527782868E+03  0.40000000000E+03 0. -1.
<mgrwt>
<rscale>  2 0.42900848E+03</rscale>
<asrwt>0</asrwt>
<pdfrwt beam="1">  1       21 0.95260663E-01 0.42910741E+03</pdfrwt>
<pdfrwt beam="2">  1       21 0.65279961E-01 0.42910741E+03</pdfrwt>
<totfact> 0.17233222E+03</totfact>
</mgrwt>
</event>
<event>
 6    1  0.9502611E-004  0.4731474E+03  0.7818608E-02  0.1021529E+00
         21   -1    0    0  503  502  0.00000000000E+00  0.00000000000E+00  0.22499600364E+04  0.22499600364E+04  0.00000000000E+00 0.  1.
         21   -1    0    0  501  503 -0.00000000000E+00 -0.00000000000E+00 -0.10598617136E+03  0.10598617136E+03  0.00000000000E+00 0. -1.
    9000007    2    1    2  501    0  0.23926079740E+03  0.67465388621E+01  0.75667592447E+03  0.89242756393E+03  0.40813877202E+03 0.  0.
    9000005    1    3    3    0    0  0.34712386803E+03  0.59329112917E+02  0.53843728918E+03  0.64337441491E+03  0.99999687468E+00 0.  0.
          4    1    3    3  501    0 -0.10786307063E+03 -0.52582574055E+02  0.21823863530E+03  0.24905314902E+03  0.00000000000E+00 0.  1.
   -9000007    1    1    2    0  502 -0.23926079740E+03 -0.67465388621E+01  0.13872979406E+04  0.14635186438E+04  0.40000000000E+03 0.  1.
<mgrwt>
<rscale>  2 0.47138705E+03</rscale>
<asrwt>0</asrwt>
<pdfrwt beam="1">  1       21 0.34614766E+00 0.47314744E+03</pdfrwt>
<pdfrwt beam="2">  1       21 0.16305566E-01 0.47314744E+03</pdfrwt>
<totfact> 0.48077488E+02</totfact>
</mgrwt>
</event>
<event>
 6    1  0.9502611E-004  0.4620403E+03  0.7818608E-02  0.1024407E+00
         21   -1    0    0  503  502  0.00000000000E+00  0.00000000000E+00  0.12045428435E+03  0.12045428435E+03  0.00000000000E+00 0. -1.
         21   -1    0    0  501  503 -0.00000000000E+00 -0.00000000000E+00 -0.18371880551E+04  0.18371880551E+04  0.00000000000E+00 0. -1.
    9000007    2    1    2  501    0 -0.16212600884E+03  0.15636231900E+03 -0.10605170896E+04  0.11567963180E+04  0.40341939259E+03 0.  0.
    9000005    1    3    3    0    0 -0.16340876512E+03  0.22568868392E+03 -0.10503943120E+04  0.10867230637E+04  0.99999687468E+00 0.  0.
          4    1    3    3  501    0  0.12827562794E+01 -0.69326364920E+02 -0.10122777671E+02  0.70073254274E+02  0.00000000000E+00 0.  1.
   -9000007    1    1    2    0  502  0.16212600884E+03 -0.15636231900E+03 -0.65621668107E+03  0.80084602144E+03  0.40000000000E+03 0. -1.
<mgrwt>
<rscale>  2 0.46129284E+03</rscale>
<asrwt>0</asrwt>
<pdfrwt beam="1">  1       21 0.18531428E-01 0.46204028E+03</pdfrwt>
<pdfrwt beam="2">  1       21 0.28264433E+00 0.46204028E+03</pdfrwt>
<totfact> 0.92140197E+02</totfact>
</mgrwt>
</event>
<event>
 6    1  0.9502611E-004  0.4741686E+03  0.7818608E-02  0.1020761E+00
         21   -1    0    0  503  502  0.00000000000E+00  0.00000000000E+00  0.67669427645E+03  0.67669427645E+03  0.00000000000E+00 0. -1.
         21   -1    0    0  501  503 -0.00000000000E+00 -0.00000000000E+00 -0.47466149618E+03  0.47466149618E+03  0.00000000000E+00 0. -1.
    9000007    2    1    2  501    0  0.19418355583E+03  0.16470750351E+03  0.41644579003E+03  0.63096288853E+03  0.39981402627E+03 0.  0.
    9000005    1    3    3    0    0  0.44550639805E+02 -0.13215985112E+03  0.15089255223E+03  0.20547639297E+03  0.99999687468E+00 0.  0.
          4    1    3    3  501    0  0.14963291603E+03  0.29686735463E+03  0.26555323780E+03  0.42548649556E+03  0.00000000000E+00 0.  1.
   -9000007    1    1    2    0  502 -0.19418355583E+03 -0.16470750351E+03 -0.21441300976E+03  0.52039288410E+03  0.40000000000E+03 0. -1.
<mgrwt>
<rscale>  2 0.47412933E+03</rscale>
<asrwt>0</asrwt>
<pdfrwt beam="1">  1       21 0.10410681E+00 0.47416855E+03</pdfrwt>
<pdfrwt beam="2">  1       21 0.73024846E-01 0.47416855E+03</pdfrwt>
<totfact> 0.10606755E+03</totfact>
</mgrwt>
</event>
<event>
 6    1  0.9502611E-004  0.4215895E+03  0.7818608E-02  0.1036672E+00
         21   -1    0    0  503  502  0.00000000000E+00  0.00000000000E+00  0.12509593836E+03  0.12509593836E+03  0.00000000000E+00 0. -1.
         21   -1    0    0  501  503 -0.00000000000E+00 -0.00000000000E+00 -0.14215196666E+04  0.14215196666E+04  0.00000000000E+00 0. -1.
    9000007    2    1    2  501    0  0.12817863800E+03  0.36165416381E+02 -0.59774034525E+03  0.73059099122E+03  0.39841181649E+03 0.  0.
    9000005    1    3    3    0    0  0.80260006744E+02  0.19331307853E+03 -0.49341084642E+03  0.53597283361E+03  0.99999687468E+00 0.  0.
          4    1    3    3  501    0  0.47918631261E+02 -0.15714766215E+03 -0.10432949884E+03  0.19461815760E+03  0.00000000000E+00 0.  1.
   -9000007    1    1    2    0  502 -0.12817863800E+03 -0.36165416381E+02 -0.69868338302E+03  0.81602461377E+03  0.40000000000E+03 0. -1.
<mgrwt>
<rscale>  2 0.42121235E+03</rscale>
<asrwt>0</asrwt>
<pdfrwt beam="1">  1       21 0.19245530E-01 0.42158949E+03</pdfrwt>
<pdfrwt beam="2">  1       21 0.21869532E+00 0.42158949E+03</pdfrwt>
<totfact> 0.21667807E+03</totfact>
</mgrwt>
</event>
<event>
 6    1  0.9502611E-004  0.4004247E+03  0.7818608E-02  0.1043652E+00
         21   -1    0    0  503  502  0.00000000000E+00  0.00000000000E+00  0.40547415907E+03  0.40547415907E+03  0.00000000000E+00 0.  1.
         21   -1    0    0  501  503 -0.00000000000E+00 -0.00000000000E+00 -0.42837600895E+03  0.42837600895E+03  0.00000000000E+00 0.  1.
    9000007    2    1    2  501    0  0.61607716774E+01 -0.17377376040E+02  0.10454515284E+03  0.41363276380E+03  0.39977799589E+03 0.  0.
    9000005    1    3    3    0    0  0.65136714743E+02  0.40683377332E+02  0.24160808849E+03  0.25352198567E+03  0.99999687468E+00 0.  0.
          4    1    3    3  501    0 -0.58975943066E+02 -0.58060753372E+02 -0.13706293565E+03  0.16011077813E+03  0.00000000000E+00 0.  1.
   -9000007    1    1    2    0  502 -0.61607716774E+01  0.17377376040E+02 -0.12744700273E+03  0.42021740422E+03  0.40000000000E+03 0. -1.
<mgrwt>
<rscale>  2 0.40036923E+03</rscale>
<asrwt>0</asrwt>
<pdfrwt beam="1">  1       21 0.62380640E-01 0.40042468E+03</pdfrwt>
<pdfrwt beam="2">  1       21 0.65904001E-01 0.40042468E+03</pdfrwt>
<totfact> 0.45026384E+03</totfact>
</mgrwt>
</event>
<event>
 6    1  0.9502611E-004  0.5871113E+03  0.7818608E-02  0.9932658E-01
         21   -1    0    0  503  502  0.00000000000E+00  0.00000000000E+00  0.30469725790E+03  0.30469725790E+03  0.00000000000E+00 0. -1.
         21   -1    0    0  501  503 -0.00000000000E+00 -0.00000000000E+00 -0.11339284565E+04  0.11339284565E+04  0.00000000000E+00 0.  1.
    9000007    2    1    2  501    0  0.32168509441E+02  0.42856133959E+03 -0.45253859866E+03  0.74106069977E+03  0.39959997832E+03 0.  0.
    9000005    1    3    3    0    0 -0.69877091304E+02  0.46957066961E+03 -0.34176266472E+03  0.58496336692E+03  0.99999687468E+00 0.  0.
          4    1    3    3  501    0  0.10204560074E+03 -0.41009330027E+02 -0.11077593394E+03  0.15609733285E+03  0.00000000000E+00 0.  1.
   -9000007    1    1    2    0  502 -0.32168509441E+02 -0.42856133959E+03 -0.37669259992E+03  0.69756501462E+03  0.40000000000E+03 0. -1.
<mgrwt>
<rscale>  2 0.58704314E+03</rscale>
<asrwt>0</asrwt>
<pdfrwt beam="1">  1       21 0.46876502E-01 0.58711126E+03</pdfrwt>
<pdfrwt beam="2">  1       21 0.17445053E+00 0.58711126E+03</pdfrwt>
<totfact> 0.68415117E+02</totfact>
</mgrwt>
</event>
<event>
 6    1  0.9502611E-004  0.4382747E+03  0.7818608E-02  0.1031406E+00
         21   -1    0    0  503  502  0.00000000000E+00  0.00000000000E+00  0.50963630125E+03  0.50963630125E+03  0.00000000000E+00 0. -1.
         21   -1    0    0  501  503 -0.00000000000E+00 -0.00000000000E+00 -0.45313880449E+03  0.45313880449E+03  0.00000000000E+00 0. -1.
    9000007    2    1    2  501    0  0.33898623923E+02  0.17171335471E+03 -0.17098976260E+03  0.47044894753E+03  0.40180856191E+03 0.  0.
    9000005    1    3    3    0    0 -0.43545242032E+01  0.29807149650E+03 -0.15907034947E+03  0.33789044819E+03  0.99999687468E+00 0.  0.
          4    1    3    3  501    0  0.38253148126E+02 -0.12635814179E+03 -0.11919413135E+02  0.13255849934E+03  0.00000000000E+00 0.  1.
   -9000007    1    1    2    0  502 -0.33898623923E+02 -0.17171335471E+03  0.22748725936E+03  0.49232615821E+03  0.40000000000E+03 0. -1.
<mgrwt>
<rscale>  2 0.43785974E+03</rscale>
<asrwt>0</asrwt>
<pdfrwt beam="1">  1       21 0.78405585E-01 0.43827470E+03</pdfrwt>
<pdfrwt beam="2">  1       21 0.69713662E-01 0.43827470E+03</pdfrwt>
<totfact> 0.23412889E+03</totfact>
</mgrwt>
</event>
<event>
 6    1  0.9502611E-004  0.4056001E+03  0.7818608E-02  0.1041969E+00
         21   -1    0    0  503  502  0.00000000000E+00  0.00000000000E+00  0.54312094007E+03  0.54312094007E+03  0.00000000000E+00 0.  1.
         21   -1    0    0  501  503 -0.00000000000E+00 -0.00000000000E+00 -0.37681652555E+03  0.37681652555E+03  0.00000000000E+00 0.  1.
    9000007    2    1    2  501    0  0.32683996972E+01  0.58649173653E+02 -0.12180246368E+03  0.42349413424E+03  0.40132410041E+03 0.  0.
    9000005    1    3    3    0    0  0.20212582270E+02  0.41174833328E+02  0.14679423042E+03  0.15379681876E+03  0.99999687468E+00 0.  0.
          4    1    3    3  501    0 -0.16944182573E+02  0.17474340324E+02 -0.26859669411E+03  0.26969731548E+03  0.00000000000E+00 0.  1.
   -9000007    1    1    2    0  502 -0.32683996972E+01 -0.58649173653E+02  0.28810687820E+03  0.49644333138E+03  0.40000000000E+03 0.  1.
<mgrwt>
<rscale>  2 0.40527218E+03</rscale>
<asrwt>0</asrwt>
<pdfrwt beam="1">  1       21 0.83557068E-01 0.40560010E+03</pdfrwt>
<pdfrwt beam="2">  1       21 0.57971773E-01 0.40560010E+03</pdfrwt>
<totfact> 0.30767163E+03</totfact>
</mgrwt>
</event>
<event>
 6    1  0.9502611E-004  0.5653452E+03  0.7818608E-02  0.9980209E-01
         21   -1    0    0  503  502  0.00000000000E+00  0.00000000000E+00  0.14232120063E+04  0.14232120063E+04  0.00000000000E+00 0.  1.
         21   -1    0    0  501  503 -0.00000000000E+00 -0.00000000000E+00 -0.26748985229E+03  0.26748985229E+03  0.00000000000E+00 0. -1.
    9000007    2    1    2  501    0  0.39839171164E+03 -0.29987726117E+02  0.23862263061E+03  0.61335012613E+03  0.39955274716E+03 0.  0.
    9000005    1    3    3    0    0  0.26182072176E+01 -0.15097928613E+03  0.70463395086E+02  0.16663640025E+03  0.99999687468E+00 0.  0.
          4    1    3    3  501    0  0.39577350442E+03  0.12099156001E+03  0.16815923553E+03  0.44671372588E+03  0.00000000000E+00 0.  1.
   -9000007    1    1    2    0  502 -0.39839171164E+03  0.29987726117E+02  0.91709952338E+03  0.10773517324E+04  0.40000000000E+03 0.  1.
<mgrwt>
<rscale>  2 0.56526612E+03</rscale>
<asrwt>0</asrwt>
<pdfrwt beam="1">  1       21 0.21895569E+00 0.56534522E+03</pdfrwt>
<pdfrwt beam="2">  1       21 0.41152286E-01 0.56534522E+03</pdfrwt>
<totfact> 0.45096123E+02</totfact>
</mgrwt>
</event>
<event>
 6    1  0.9502611E-004  0.4526629E+03  0.7818608E-02  0.1026977E+00
         21   -1    0    0  503  502  0.00000000000E+00  0.00000000000E+00  0.66504632366E+03  0.66504632366E+03  0.00000000000E+00 0. -1.
         21   -1    0    0  501  503 -0.00000000000E+00 -0.00000000000E+00 -0.31876158621E+03  0.31876158621E+03  0.00000000000E+00 0. -1.
    9000007    2    1    2  501    0  0.92591596418E+01 -0.21037838387E+03  0.26495645770E+03  0.52450508436E+03  0.40069796931E+03 0.  0.
    9000005    1    3    3    0    0 -0.17304152836E+03 -0.10296133023E+03  0.22359813184E+02  0.20259656290E+03  0.99999687468E+00 0.  0.
          4    1    3    3  501    0  0.18230068800E+03 -0.10741705365E+03  0.24259664452E+03  0.32190852146E+03  0.00000000000E+00 0.  1.
   -9000007    1    1    2    0  502 -0.92591596418E+01  0.21037838387E+03  0.81328279746E+02  0.45930282551E+03  0.40000000000E+03 0. -1.
<mgrwt>
<rscale>  2 0.45250834E+03</rscale>
<asrwt>0</asrwt>
<pdfrwt beam="1">  1       21 0.10231482E+00 0.45266285E+03</pdfrwt>
<pdfrwt beam="2">  1       21 0.49040244E-01 0.45266285E+03</pdfrwt>
<totfact> 0.26722934E+03</totfact>
</mgrwt>
</event>
<event>
 6    1  0.9502611E-004  0.4598341E+03  0.7818608E-02  0.1024835E+00
         21   -1    0    0  503  502  0.00000000000E+00  0.00000000000E+00  0.39742490756E+03  0.39742490756E+03  0.00000000000E+00 0. -1.
         21   -1    0    0  501  503 -0.00000000000E+00 -0.00000000000E+00 -0.62274256788E+03  0.62274256788E+03  0.00000000000E+00 0. -1.
    9000007    2    1    2  501    0  0.98710605116E+02  0.20421463614E+03 -0.30740912176E+03  0.55306319456E+03  0.39991390056E+03 0.  0.
    9000005    1    3    3    0    0  0.67534415138E+02  0.28041833250E+03 -0.35543556306E+03  0.45774531993E+03  0.99999687468E+00 0.  0.
          4    1    3    3  501    0  0.31176189978E+02 -0.76203696359E+02  0.48026441302E+02  0.95317874633E+02  0.00000000000E+00 0.  1.
   -9000007    1    1    2    0  502 -0.98710605116E+02 -0.20421463614E+03  0.82091461438E+02  0.46710428088E+03  0.40000000000E+03 0. -1.
<mgrwt>
<rscale>  2 0.45981538E+03</rscale>
<asrwt>0</asrwt>
<pdfrwt beam="1">  1       21 0.61142293E-01 0.45983410E+03</pdfrwt>
<pdfrwt beam="2">  1       21 0.95806549E-01 0.45983410E+03</pdfrwt>
<totfact> 0.19414618E+03</totfact>
</mgrwt>
</event>
<event>
 6    1  0.9502611E-004  0.4483138E+03  0.7818608E-02  0.1028274E+00
         21   -1    0    0  503  502  0.00000000000E+00  0.00000000000E+00  0.13585614178E+03  0.13585614178E+03  0.00000000000E+00 0.  1.
         21   -1    0    0  501  503 -0.00000000000E+00 -0.00000000000E+00 -0.19276760289E+04  0.19276760289E+04  0.00000000000E+00 0.  1.
    9000007    2    1    2  501    0  0.12812759379E+03 -0.15674378284E+03 -0.39670352608E+03  0.59815339555E+03  0.39928499002E+03 0.  0.
    9000005    1    3    3    0    0 -0.12842619358E+03 -0.11736667269E+03 -0.88440843365E+02  0.19516917232E+03  0.99999687468E+00 0.  0.
          4    1    3    3  501    0  0.25655378737E+03 -0.39377110150E+02 -0.30826268271E+03  0.40298422323E+03  0.00000000000E+00 0.  1.
   -9000007    1    1    2    0  502 -0.12812759379E+03  0.15674378284E+03 -0.13951163611E+04  0.14653787751E+04  0.40000000000E+03 0.  1.
<mgrwt>
<rscale>  2 0.44815429E+03</rscale>
<asrwt>0</asrwt>
<pdfrwt beam="1">  1       21 0.20900946E-01 0.44831383E+03</pdfrwt>
<pdfrwt beam="2">  1       21 0.29656553E+00 0.44831383E+03</pdfrwt>
<totfact> 0.60884617E+02</totfact>
</mgrwt>
</event>
<event>
 6    1  0.9502611E-004  0.4305121E+03  0.7818608E-02  0.1033806E+00
         21   -1    0    0  503  502  0.00000000000E+00  0.00000000000E+00  0.20757686416E+03  0.20757686416E+03  0.00000000000E+00 0.  1.
         21   -1    0    0  501  503 -0.00000000000E+00 -0.00000000000E+00 -0.95644537331E+03  0.95644537331E+03  0.00000000000E+00 0.  1.
    9000007    2    1    2  501    0 -0.11990153391E+03  0.10471046327E+03 -0.52722487355E+03  0.67980476551E+03  0.39853204760E+03 0.  0.
    9000005    1    3    3    0    0 -0.26732952266E+02  0.55689662864E+02  0.58266668093E+02  0.84923459015E+02  0.99999687468E+00 0.  0.
          4    1    3    3  501    0 -0.93168581646E+02  0.49020800403E+02 -0.58549154165E+03  0.59488130650E+03  0.00000000000E+00 0.  1.
   -9000007    1    1    2    0  502  0.11990153391E+03 -0.10471046327E+03 -0.22164363559E+03  0.48421747196E+03  0.40000000000E+03 0.  1.
<mgrwt>
<rscale>  2 0.43017079E+03</rscale>
<asrwt>0</asrwt>
<pdfrwt beam="1">  1       21 0.31934903E-01 0.43051209E+03</pdfrwt>
<pdfrwt beam="2">  1       21 0.14714544E+00 0.43051209E+03</pdfrwt>
<totfact> 0.25708953E+03</totfact>
</mgrwt>
</event>
<event>
 6    1  0.9502611E-004  0.4518231E+03  0.7818608E-02  0.1027197E+00
         21   -1    0    0  503  502  0.00000000000E+00  0.00000000000E+00  0.25622276007E+04  0.25622276007E+04  0.00000000000E+00 0.  1.
         21   -1    0    0  501  503 -0.00000000000E+00 -0.00000000000E+00 -0.10336521222E+03  0.10336521222E+03  0.00000000000E+00 0. -1.
    9000007    2    1    2  501    0 -0.13072898922E+03  0.16384332499E+03  0.59105751234E+03  0.74397116465E+03  0.40026167336E+03 0.  0.
    9000005    1    3    3    0    0  0.74995592644E+02 -0.95067351245E+02  0.16279825137E+03  0.20289507345E+03  0.99999687468E+00 0.  0.
          4    1    3    3  501    0 -0.20572458186E+03  0.25891067624E+03  0.42825926097E+03  0.54107609119E+03  0.00000000000E+00 0.  1.
   -9000007    1    1    2    0  502  0.13072898922E+03 -0.16384332499E+03  0.18678048761E+04  0.19216216482E+04  0.40000000000E+03 0.  1.
<mgrwt>
<rscale>  2 0.45176514E+03</rscale>
<asrwt>0</asrwt>
<pdfrwt beam="1">  1       21 0.39418881E+00 0.45182310E+03</pdfrwt>
<pdfrwt beam="2">  1       21 0.15902342E-01 0.45182310E+03</pdfrwt>
<totfact> 0.25579772E+02</totfact>
</mgrwt>
</event>
<event>
 6    1  0.9502611E-004  0.4376066E+03  0.7818608E-02  0.1031525E+00
         21   -1    0    0  503  502  0.00000000000E+00  0.00000000000E+00  0.13017402232E+04  0.13017402232E+04  0.00000000000E+00 0. -1.
         21   -1    0    0  501  503 -0.00000000000E+00 -0.00000000000E+00 -0.23950331228E+03  0.23950331228E+03  0.00000000000E+00 0. -1.
    9000007    2    1    2  501    0  0.80114671634E+02 -0.15688514636E+03  0.52216712430E+02  0.44071088667E+03  0.40058481101E+03 0.  0.
    9000005    1    3    3    0    0 -0.13390326078E+03  0.43690717561E+02 -0.87491277548E+01  0.14112586325E+03  0.99999687468E+00 0.  0.
          4    1    3    3  501    0  0.21401793242E+03 -0.20057586392E+03  0.60965840185E+02  0.29958502341E+03  0.00000000000E+00 0.  1.
   -9000007    1    1    2    0  502 -0.80114671634E+02  0.15688514636E+03  0.10100201985E+04  0.11005326488E+04  0.40000000000E+03 0. -1.
<mgrwt>
<rscale>  2 0.43747268E+03</rscale>
<asrwt>0</asrwt>
<pdfrwt beam="1">  1       21 0.20026772E+00 0.43760656E+03</pdfrwt>
<pdfrwt beam="2">  1       21 0.36846664E-01 0.43760656E+03</pdfrwt>
<totfact> 0.79380383E+02</totfact>
</mgrwt>
</event>
<event>
 6    1  0.9502611E-004  0.4464011E+03  0.7818608E-02  0.1028822E+00
         21   -1    0    0  503  502  0.00000000000E+00  0.00000000000E+00  0.97755851563E+03  0.97755851563E+03  0.00000000000E+00 0. -1.
         21   -1    0    0  501  503 -0.00000000000E+00 -0.00000000000E+00 -0.24629167805E+03  0.24629167805E+03  0.00000000000E+00 0.  1.
    9000007    2    1    2  501    0 -0.18265058074E+03  0.75198958163E+02  0.11131178685E+03  0.46006986998E+03  0.40032218702E+03 0.  0.
    9000005    1    3    3    0    0 -0.65631136379E+02 -0.15822266604E+03 -0.11164576581E+02  0.17166102025E+03  0.99999687468E+00 0.  0.
          4    1    3    3  501    0 -0.11701944436E+03  0.23342162420E+03  0.12247636343E+03  0.28840884973E+03  0.00000000000E+00 0.  1.
   -9000007    1    1    2    0  502  0.18265058074E+03 -0.75198958163E+02  0.61995505072E+03  0.76378032370E+03  0.40000000000E+03 0. -1.
<mgrwt>
<rscale>  2 0.44632889E+03</rscale>
<asrwt>0</asrwt>
<pdfrwt beam="1">  1       21 0.15039362E+00 0.44640113E+03</pdfrwt>
<pdfrwt beam="2">  1       21 0.37891028E-01 0.44640113E+03</pdfrwt>
<totfact> 0.17041916E+03</totfact>
</mgrwt>
</event>
<event>
 6    1  0.9502611E-004  0.4334712E+03  0.7818608E-02  0.1032774E+00
         21   -1    0    0  503  502  0.00000000000E+00  0.00000000000E+00  0.62204181998E+03  0.62204181998E+03  0.00000000000E+00 0. -1.
         21   -1    0    0  501  503 -0.00000000000E+00 -0.00000000000E+00 -0.30756977576E+03  0.30756977576E+03  0.00000000000E+00 0. -1.
    9000007    2    1    2  501    0 -0.10355438274E+03 -0.13084052424E+03  0.94819272760E+02  0.44372056580E+03  0.40006811052E+03 0.  0.
    9000005    1    3    3    0    0  0.96092918965E+02 -0.15001415210E+03  0.15305393690E+03  0.23487145953E+03  0.99999687468E+00 0.  0.
          4    1    3    3  501    0 -0.19964730171E+03  0.19173627856E+02 -0.58234664142E+02  0.20884910627E+03  0.00000000000E+00 0.  1.
   -9000007    1    1    2    0  502  0.10355438274E+03  0.13084052424E+03  0.21965277146E+03  0.48589102994E+03  0.40000000000E+03 0.  1.
<mgrwt>
<rscale>  2 0.43345544E+03</rscale>
<asrwt>0</asrwt>
<pdfrwt beam="1">  1       21 0.95698742E-01 0.43347116E+03</pdfrwt>
<pdfrwt beam="2">  1       21 0.47318427E-01 0.43347116E+03</pdfrwt>
<totfact> 0.34123610E+03</totfact>
</mgrwt>
</event>
<event>
 6    1  0.9502611E-004  0.4233734E+03  0.7818608E-02  0.1035999E+00
         21   -1    0    0  503  502  0.00000000000E+00  0.00000000000E+00  0.32158355869E+03  0.32158355869E+03  0.00000000000E+00 0.  1.
         21   -1    0    0  501  503 -0.00000000000E+00 -0.00000000000E+00 -0.62402031310E+03  0.62402031310E+03  0.00000000000E+00 0.  1.
    9000007    2    1    2  501    0  0.78686681144E+02  0.11311210025E+03 -0.30623778834E+03  0.52251949620E+03  0.40032374385E+03 0.  0.
    9000005    1    3    3    0    0  0.12600929065E+03  0.22845199968E+03 -0.30016069205E+03  0.39770101651E+03  0.99999687468E+00 0.  0.
          4    1    3    3  501    0 -0.47322609502E+02 -0.11533989944E+03 -0.60770962866E+01  0.12481847969E+03  0.00000000000E+00 0.  1.
   -9000007    1    1    2    0  502 -0.78686681144E+02 -0.11311210025E+03  0.38010339343E+01  0.42308437559E+03  0.40000000000E+03 0.  1.
<mgrwt>
<rscale>  2 0.42329686E+03</rscale>
<asrwt>0</asrwt>
<pdfrwt beam="1">  1       21 0.49474395E-01 0.42337341E+03</pdfrwt>
<pdfrwt beam="2">  1       21 0.96003123E-01 0.42337341E+03</pdfrwt>
<totfact> 0.30935006E+03</totfact>
</mgrwt>
</event>
<event>
 6    1  0.9502611E-004  0.5291933E+03  0.7818608E-02  0.1006551E+00
         21   -1    0    0  503  502  0.00000000000E+00  0.00000000000E+00  0.31016385709E+04  0.31016385709E+04  0.00000000000E+00 0.  1.
         21   -1    0    0  501  503 -0.00000000000E+00 -0.00000000000E+00 -0.13230755598E+03  0.13230755598E+03  0.00000000000E+00 0.  1.
    9000007    2    1    2  501    0 -0.33051556596E+03 -0.93143473818E+02  0.57164406352E+03  0.77898808998E+03  0.40265278208E+03 0.  0.
    9000005    1    3    3    0    0 -0.83417649198E+02  0.18789110482E+02  0.48753829772E+03  0.49498093560E+03  0.99999687468E+00 0.  0.
          4    1    3    3  501    0 -0.24709791676E+03 -0.11193258430E+03  0.84105765797E+02  0.28400715438E+03  0.00000000000E+00 0.  1.
   -9000007    1    1    2    0  502  0.33051556596E+03  0.93143473818E+02  0.23976869514E+04  0.24549580369E+04  0.40000000000E+03 0.  1.
<mgrwt>
<rscale>  2 0.52868863E+03</rscale>
<asrwt>0</asrwt>
<pdfrwt beam="1">  1       21 0.47717511E+00 0.52919326E+03</pdfrwt>
<pdfrwt beam="2">  1       21 0.20355011E-01 0.52919326E+03</pdfrwt>
<totfact> 0.42620148E+01</totfact>
</mgrwt>
</event>
<event>
 6    1  0.9502611E-004  0.4915413E+03  0.7818608E-02  0.1016057E+00
         21   -1    0    0  503  502  0.00000000000E+00  0.00000000000E+00  0.97345556495E+03  0.97345556495E+03  0.00000000000E+00 0.  1.
         21   -1    0    0  501  503 -0.00000000000E+00 -0.00000000000E+00 -0.31093034929E+03  0.31093034929E+03  0.00000000000E+00 0.  1.
    9000007    2    1    2  501    0 -0.30843836708E+02 -0.28279932634E+03  0.42192251340E+02  0.49334875465E+03  0.40085659081E+03 0.  0.
    9000005    1    3    3    0    0  0.23984261378E+02 -0.86740072587E+02  0.21067355498E+03  0.22909262700E+03  0.99999687468E+00 0.  0.
          4    1    3    3  501    0 -0.54828098087E+02 -0.19605925375E+03 -0.16848130364E+03  0.26425612765E+03  0.00000000000E+00 0.  1.
   -9000007    1    1    2    0  502  0.30843836708E+02  0.28279932634E+03  0.62033296431E+03  0.79103715959E+03  0.40000000000E+03 0.  1.
<mgrwt>
<rscale>  2 0.49136659E+03</rscale>
<asrwt>0</asrwt>
<pdfrwt beam="1">  1       21 0.14976239E+00 0.49154126E+03</pdfrwt>
<pdfrwt beam="2">  1       21 0.47835439E-01 0.49154126E+03</pdfrwt>
<totfact> 0.10424714E+03</totfact>
</mgrwt>
</event>
<event>
 6    1  0.9502611E-004  0.4206437E+03  0.7818608E-02  0.1036939E+00
         21   -1    0    0  503  502  0.00000000000E+00  0.00000000000E+00  0.57364866912E+03  0.57364866912E+03  0.00000000000E+00 0. -1.
         21   -1    0    0  501  503 -0.00000000000E+00 -0.00000000000E+00 -0.39272003084E+03  0.39272003084E+03  0.00000000000E+00 0. -1.
    9000007    2    1    2  501    0  0.12943154002E+03 -0.13732609203E+02 -0.13442440820E+03  0.44064191537E+03  0.39894143424E+03 0.  0.
    9000005    1    3    3    0    0 -0.50317266030E+02 -0.23783120581E+02 -0.23012159490E+03  0.23675813083E+03  0.99999687468E+00 0.  0.
          4    1    3    3  501    0  0.17974880605E+03  0.10050511378E+02  0.95697186697E+02  0.20388378454E+03  0.00000000000E+00 0.  1.
   -9000007    1    1    2    0  502 -0.12943154002E+03  0.13732609203E+02  0.31535304648E+03  0.52572678458E+03  0.40000000000E+03 0. -1.
<mgrwt>
<rscale>  2 0.42039184E+03</rscale>
<asrwt>0</asrwt>
<pdfrwt beam="1">  1       21 0.88253641E-01 0.42064368E+03</pdfrwt>
<pdfrwt beam="2">  1       21 0.60418467E-01 0.42064368E+03</pdfrwt>
<totfact> 0.24590424E+03</totfact>
</mgrwt>
</event>
<event>
 6    1  0.9502611E-004  0.5527682E+03  0.7818608E-02  0.1001016E+00
         21   -1    0    0  503  502  0.00000000000E+00  0.00000000000E+00  0.10373440229E+04  0.10373440229E+04  0.00000000000E+00 0.  1.
         21   -1    0    0  501  503 -0.00000000000E+00 -0.00000000000E+00 -0.33672951559E+03  0.33672951559E+03  0.00000000000E+00 0. -1.
    9000007    2    1    2  501    0  0.24778253507E+03 -0.28474842052E+03  0.10368775983E+03  0.56240895904E+03  0.40382525675E+03 0.  0.
    9000005    1    3    3    0    0  0.17442583365E+03 -0.26151769986E+03 -0.11176417259E+03  0.33362869938E+03  0.99999687468E+00 0.  0.
          4    1    3    3  501    0  0.73356701427E+02 -0.23230720668E+02  0.21545193242E+03  0.22878025966E+03  0.00000000000E+00 0.  1.
   -9000007    1    1    2    0  502 -0.24778253507E+03  0.28474842052E+03  0.59692674748E+03  0.81166457945E+03  0.40000000000E+03 0. -1.
<mgrwt>
<rscale>  2 0.55206979E+03</rscale>
<asrwt>0</asrwt>
<pdfrwt beam="1">  1       21 0.15959139E+00 0.55276820E+03</pdfrwt>
<pdfrwt beam="2">  1       21 0.51804541E-01 0.55276820E+03</pdfrwt>
<totfact> 0.72132984E+02</totfact>
</mgrwt>
</event>
<event>
 6    1  0.9502611E-004  0.4393172E+03  0.7818608E-02  0.1030986E+00
         21   -1    0    0  503  502  0.00000000000E+00  0.00000000000E+00  0.86507317660E+03  0.86507317660E+03  0.00000000000E+00 0. -1.
         21   -1    0    0  501  503 -0.00000000000E+00 -0.00000000000E+00 -0.41814357750E+03  0.41814357750E+03  0.00000000000E+00 0. -1.
    9000007    2    1    2  501    0 -0.13033707949E+03 -0.12519217450E+03 -0.21490129836E+03  0.48906250481E+03  0.40042318954E+03 0.  0.
    9000005    1    3    3    0    0 -0.71064090724E+02  0.14245692840E+03 -0.40907178047E+02  0.16437298637E+03  0.99999687468E+00 0.  0.
          4    1    3    3  501    0 -0.59272988769E+02 -0.26764910290E+03 -0.17399412031E+03  0.32468951844E+03  0.00000000000E+00 0.  1.
   -9000007    1    1    2    0  502  0.13033707949E+03  0.12519217450E+03  0.66183089746E+03  0.79415424930E+03  0.40000000000E+03 0. -1.
<mgrwt>
<rscale>  2 0.43922070E+03</rscale>
<asrwt>0</asrwt>
<pdfrwt beam="1">  1       21 0.13308818E+00 0.43931716E+03</pdfrwt>
<pdfrwt beam="2">  1       21 0.64329781E-01 0.43931716E+03</pdfrwt>
<totfact> 0.76867914E+02</totfact>
</mgrwt>
</event>
<event>
 6    1  0.9502611E-004  0.4991846E+03  0.7818608E-02  0.1014099E+00
         21   -1    0    0  503  502  0.00000000000E+00  0.00000000000E+00  0.15997817237E+04  0.15997817237E+04  0.00000000000E+00 0. -1.
         21   -1    0    0  501  503 -0.00000000000E+00 -0.00000000000E+00 -0.50476933423E+03  0.50476933423E+03  0.00000000000E+00 0.  1.
    9000007    2    1    2  501    0  0.76475143672E+02 -0.28868119548E+03 -0.32839491406E+03  0.59615003965E+03  0.39795272329E+03 0.  0.
    9000005    1    3    3    0    0  0.12856231706E+03 -0.12117012650E+03  0.46118724576E+02  0.18258807648E+03  0.99999687468E+00 0.  0.
          4    1    3    3  501    0 -0.52087173384E+02 -0.16751106899E+03 -0.37451363863E+03  0.41356196318E+03  0.00000000000E+00 0.  1.
   -9000007    1    1    2    0  502 -0.76475143672E+02  0.28868119548E+03  0.14234073035E+04  0.15084010183E+04  0.40000000000E+03 0. -1.
<mgrwt>
<rscale>  2 0.49877436E+03</rscale>
<asrwt>0</asrwt>
<pdfrwt beam="1">  1       21 0.24612026E+00 0.49918462E+03</pdfrwt>
<pdfrwt beam="2">  1       21 0.77656822E-01 0.49918462E+03</pdfrwt>
<totfact> 0.78367285E+01</totfact>
</mgrwt>
</event>
<event>
 6    1  0.9502611E-004  0.4038962E+03  0.7818608E-02  0.1042463E+00
         21   -1    0    0  503  502  0.00000000000E+00  0.00000000000E+00  0.26736829115E+03  0.26736829115E+03  0.00000000000E+00 0.  1.
         21   -1    0    0  501  503 -0.00000000000E+00 -0.00000000000E+00 -0.77684309042E+03  0.77684309042E+03  0.00000000000E+00 0. -1.
    9000007    2    1    2  501    0  0.30561921169E+02  0.46883900134E+02 -0.49683406943E+03  0.64011743313E+03  0.39971753093E+03 0.  0.
    9000005    1    3    3    0    0  0.15342080854E+03  0.18342070280E+02 -0.49001826161E+03  0.51380275665E+03  0.99999687468E+00 0.  0.
          4    1    3    3  501    0 -0.12285888737E+03  0.28541829854E+02 -0.68158078155E+01  0.12631467648E+03  0.00000000000E+00 0.  1.
   -9000007    1    1    2    0  502 -0.30561921169E+02 -0.46883900134E+02 -0.12640729848E+02  0.40409394844E+03  0.40000000000E+03 0.  1.
<mgrwt>
<rscale>  2 0.40382623E+03</rscale>
<asrwt>0</asrwt>
<pdfrwt beam="1">  1       21 0.41133584E-01 0.40389619E+03</pdfrwt>
<pdfrwt beam="2">  1       21 0.11951432E+00 0.40389619E+03</pdfrwt>
<totfact> 0.26749705E+03</totfact>
</mgrwt>
</event>
<event>
 6    1  0.9502611E-004  0.4506401E+03  0.7818608E-02  0.1027543E+00
         21   -1    0    0  503  502  0.00000000000E+00  0.00000000000E+00  0.40720246087E+03  0.40720246087E+03  0.00000000000E+00 0. -1.
         21   -1    0    0  501  503 -0.00000000000E+00 -0.00000000000E+00 -0.86246066319E+03  0.86246066319E+03  0.00000000000E+00 0. -1.
    9000007    2    1    2  501    0 -0.16553974522E+03  0.12519222248E+03 -0.63998317346E+03  0.78263148773E+03  0.39982131441E+03 0.  0.
    9000005    1    3    3    0    0 -0.82697554679E+01 -0.11226871781E+03 -0.38234979579E+03  0.39857875030E+03  0.99999687468E+00 0.  0.
          4    1    3    3  501    0 -0.15726998975E+03  0.23746094029E+03 -0.25763337767E+03  0.38405273743E+03  0.00000000000E+00 0.  1.
   -9000007    1    1    2    0  502  0.16553974522E+03 -0.12519222248E+03  0.18472497115E+03  0.48703163633E+03  0.40000000000E+03 0. -1.
<mgrwt>
<rscale>  2 0.45060045E+03</rscale>
<asrwt>0</asrwt>
<pdfrwt beam="1">  1       21 0.62646533E-01 0.45064010E+03</pdfrwt>
<pdfrwt beam="2">  1       21 0.13268625E+00 0.45064010E+03</pdfrwt>
<totfact> 0.81750611E+02</totfact>
</mgrwt>
</event>
<event>
 6    1  0.9502611E-004  0.7278694E+03  0.7818608E-02  0.9670903E-01
         21   -1    0    0  503  502  0.00000000000E+00  0.00000000000E+00  0.80933698536E+03  0.80933698536E+03  0.00000000000E+00 0.  1.
         21   -1    0    0  501  503 -0.00000000000E+00 -0.00000000000E+00 -0.68929580342E+03  0.68929580342E+03  0.00000000000E+00 0.  1.
    9000007    2    1    2  501    0  0.67991955745E+02  0.60376454881E+03 -0.10902375217E+03  0.73598917575E+03  0.40079839302E+03 0.  0.
    9000005    1    3    3    0    0 -0.11893224624E+03  0.44613079372E+03  0.14710239784E+02  0.46194691843E+03  0.99999687468E+00 0.  0.
          4    1    3    3  501    0  0.18692420199E+03  0.15763375509E+03 -0.12373399195E+03  0.27404225732E+03  0.00000000000E+00 0.  1.
   -9000007    1    1    2    0  502 -0.67991955745E+02 -0.60376454881E+03  0.22906493411E+03  0.76264361302E+03  0.40000000000E+03 0.  1.
<mgrwt>
<rscale>  2 0.72775956E+03</rscale>
<asrwt>0</asrwt>
<pdfrwt beam="1">  1       21 0.12451338E+00 0.72786942E+03</pdfrwt>
<pdfrwt beam="2">  1       21 0.10604551E+00 0.72786942E+03</pdfrwt>
<totfact> 0.25555183E+02</totfact>
</mgrwt>
</event>
<event>
 6    1  0.9502611E-004  0.4070476E+03  0.7818608E-02  0.1041378E+00
         21   -1    0    0  503  502  0.00000000000E+00  0.00000000000E+00  0.35423776827E+03  0.35423776827E+03  0.00000000000E+00 0. -1.
         21   -1    0    0  501  503 -0.00000000000E+00 -0.00000000000E+00 -0.74975775835E+03  0.74975775835E+03  0.00000000000E+00 0. -1.
    9000007    2    1    2  501    0  0.32566181740E+02 -0.68023449303E+02 -0.53638156124E+03  0.67326390708E+03  0.39986418130E+03 0.  0.
    9000005    1    3    3    0    0 -0.66029864789E+02 -0.60823075008E+02  0.32782949465E+02  0.95577776009E+02  0.99999687468E+00 0.  0.
          4    1    3    3  501    0  0.98596046529E+02 -0.72003742951E+01 -0.56916451071E+03  0.57768613107E+03  0.00000000000E+00 0.  1.
   -9000007    1    1    2    0  502 -0.32566181740E+02  0.68023449303E+02  0.14086157116E+03  0.43073161955E+03  0.40000000000E+03 0. -1.
<mgrwt>
<rscale>  2 0.40701423E+03</rscale>
<asrwt>0</asrwt>
<pdfrwt beam="1">  1       21 0.54498119E-01 0.40704760E+03</pdfrwt>
<pdfrwt beam="2">  1       21 0.11534735E+00 0.40704760E+03</pdfrwt>
<totfact> 0.16146929E+03</totfact>
</mgrwt>
</event>
<event>
 6    1  0.9502611E-004  0.5601047E+03  0.7818608E-02  0.9992325E-01
         21   -1    0    0  503  502  0.00000000000E+00  0.00000000000E+00  0.27512885875E+03  0.27512885875E+03  0.00000000000E+00 0.  1.
         21   -1    0    0  501  503 -0.00000000000E+00 -0.00000000000E+00 -0.11486112200E+04  0.11486112200E+04  0.00000000000E+00 0. -1.
    9000007    2    1    2  501    0 -0.38984764938E+03 -0.27063447374E+02 -0.50410597356E+03  0.75355164579E+03  0.40125257680E+03 0.  0.
    9000005    1    3    3    0    0 -0.28794085123E+03 -0.31962388776E+02 -0.56484981834E+03  0.63481323661E+03  0.99999687468E+00 0.  0.
          4    1    3    3  501    0 -0.10190679815E+03  0.48989414020E+01  0.60743844782E+02  0.11873840918E+03  0.00000000000E+00 0.  1.
   -9000007    1    1    2    0  502  0.38984764938E+03  0.27063447374E+02 -0.36937638773E+03  0.67018843300E+03  0.40000000000E+03 0. -1.
<mgrwt>
<rscale>  2 0.55988038E+03</rscale>
<asrwt>0</asrwt>
<pdfrwt beam="1">  1       21 0.42327517E-01 0.56010468E+03</pdfrwt>
<pdfrwt beam="2">  1       21 0.17670942E+00 0.56010468E+03</pdfrwt>
<totfact> 0.82454266E+02</totfact>
</mgrwt>
</event>
<event>
 6    1  0.9502611E-004  0.4038358E+03  0.7818608E-02  0.1042508E+00
         21   -1    0    0  503  502  0.00000000000E+00  0.00000000000E+00  0.20320293909E+03  0.20320293909E+03  0.00000000000E+00 0.  1.
         21   -1    0    0  501  503 -0.00000000000E+00 -0.00000000000E+00 -0.95300242300E+03  0.95300242300E+03  0.00000000000E+00 0.  1.
    9000007    2    1    2  501    0 -0.51593891201E+02 -0.20528367838E+02 -0.60522005793E+03  0.72726882376E+03  0.39943119558E+03 0.  0.
    9000005    1    3    3    0    0  0.11763866865E+03 -0.20974935256E+02 -0.23963538165E+02  0.12187721455E+03  0.99999687468E+00 0.  0.
          4    1    3    3  501    0 -0.16923255985E+03  0.44656741884E+00 -0.58125651976E+03  0.60539160921E+03  0.00000000000E+00 0.  1.
   -9000007    1    1    2    0  502  0.51593891201E+02  0.20528367838E+02 -0.14457942598E+03  0.42893653833E+03  0.40000000000E+03 0.  1.
<mgrwt>
<rscale>  2 0.40369487E+03</rscale>
<asrwt>0</asrwt>
<pdfrwt beam="1">  1       21 0.31261991E-01 0.40383579E+03</pdfrwt>
<pdfrwt beam="2">  1       21 0.14661576E+00 0.40383579E+03</pdfrwt>
<totfact> 0.27386293E+03</totfact>
</mgrwt>
</event>
<event>
 6    1  0.9502611E-004  0.4280145E+03  0.7818608E-02  0.1034524E+00
         21   -1    0    0  503  502  0.00000000000E+00  0.00000000000E+00  0.79833524992E+03  0.79833524992E+03  0.00000000000E+00 0. -1.
         21   -1    0    0  501  503 -0.00000000000E+00 -0.00000000000E+00 -0.31117477589E+03  0.31117477589E+03  0.00000000000E+00 0. -1.
    9000007    2    1    2  501    0 -0.14358340133E+03 -0.46960355175E+02  0.52833977686E+03  0.67995536913E+03  0.40046837091E+03 0.  0.
    9000005    1    3    3    0    0 -0.16667997929E+03  0.13225027798E+03  0.14893840656E+03  0.25972293019E+03  0.99999687468E+00 0.  0.
          4    1    3    3  501    0  0.23096577961E+02 -0.17921063316E+03  0.37940137030E+03  0.42023243894E+03  0.00000000000E+00 0.  1.
   -9000007    1    1    2    0  502  0.14358340133E+03  0.46960355175E+02 -0.41179302831E+02  0.42955465668E+03  0.40000000000E+03 0. -1.
<mgrwt>
<rscale>  2 0.42790488E+03</rscale>
<asrwt>0</asrwt>
<pdfrwt beam="1">  1       21 0.12282081E+00 0.42801447E+03</pdfrwt>
<pdfrwt beam="2">  1       21 0.47873043E-01 0.42801447E+03</pdfrwt>
<totfact> 0.18000445E+03</totfact>
</mgrwt>
</event>
<event>
 6    1  0.9502611E-004  0.4466831E+03  0.7818608E-02  0.1028735E+00
         21   -1    0    0  503  502  0.00000000000E+00  0.00000000000E+00  0.82009509217E+03  0.82009509217E+03  0.00000000000E+00 0.  1.
         21   -1    0    0  501  503 -0.00000000000E+00 -0.00000000000E+00 -0.24384306398E+03  0.24384306398E+03  0.00000000000E+00 0. -1.
    9000007    2    1    2  501    0  0.19279166596E+03 -0.46198730108E+02  0.26005166611E+03  0.51686812580E+03  0.40027845470E+03 0.  0.
    9000005    1    3    3    0    0 -0.76073633824E+02  0.92130815007E+02  0.22251031274E+01  0.11950412509E+03  0.99999687468E+00 0.  0.
          4    1    3    3  501    0  0.26886529978E+03 -0.13832954512E+03  0.25782656299E+03  0.39736400071E+03  0.00000000000E+00 0.  1.
   -9000007    1    1    2    0  502 -0.19279166596E+03  0.46198730108E+02  0.31620036208E+03  0.54707003035E+03  0.40000000000E+03 0.  1.
<mgrwt>
<rscale>  2 0.44662071E+03</rscale>
<asrwt>0</asrwt>
<pdfrwt beam="1">  1       21 0.12616847E+00 0.44668310E+03</pdfrwt>
<pdfrwt beam="2">  1       21 0.37514318E-01 0.44668310E+03</pdfrwt>
<totfact> 0.27667256E+03</totfact>
</mgrwt>
</event>
<event>
 6    1  0.9502611E-004  0.4694139E+03  0.7818608E-02  0.1022139E+00
         21   -1    0    0  503  502  0.00000000000E+00  0.00000000000E+00  0.32419537353E+03  0.32419537353E+03  0.00000000000E+00 0.  1.
         21   -1    0    0  501  503 -0.00000000000E+00 -0.00000000000E+00 -0.11862008840E+04  0.11862008840E+04  0.00000000000E+00 0. -1.
    9000007    2    1    2  501    0 -0.24103691598E+03 -0.39220911229E+02 -0.92522930563E+03  0.10374963495E+04  0.40088942687E+03 0.  0.
    9000005    1    3    3    0    0 -0.28180900596E+03 -0.83710493112E+02 -0.93153396084E+03  0.97682152038E+03  0.99999687468E+00 0.  0.
          4    1    3    3  501    0  0.40772089974E+02  0.44489581883E+02  0.63046552029E+01  0.60674829165E+02  0.00000000000E+00 0.  1.
   -9000007    1    1    2    0  502  0.24103691598E+03  0.39220911229E+02  0.63223795120E+02  0.47289990803E+03  0.40000000000E+03 0.  1.
<mgrwt>
<rscale>  2 0.46922394E+03</rscale>
<asrwt>0</asrwt>
<pdfrwt beam="1">  1       21 0.49876212E-01 0.46941390E+03</pdfrwt>
<pdfrwt beam="2">  1       21 0.18249244E+00 0.46941390E+03</pdfrwt>
<totfact> 0.55061625E+02</totfact>
</mgrwt>
</event>
<event>
 6    1  0.9502611E-004  0.4305478E+03  0.7818608E-02  0.1033959E+00
         21   -1    0    0  503  502  0.00000000000E+00  0.00000000000E+00  0.19290705363E+04  0.19290705363E+04  0.00000000000E+00 0.  1.
         21   -1    0    0  501  503 -0.00000000000E+00 -0.00000000000E+00 -0.15160647488E+03  0.15160647488E+03  0.00000000000E+00 0.  1.
    9000007    2    1    2  501    0  0.11672889604E+03 -0.10837796549E+03  0.25264074578E+03  0.49623466055E+03  0.39629543692E+03 0.  0.
    9000005    1    3    3    0    0 -0.74147061318E+02 -0.17132340627E+03  0.18403417232E+02  0.18758779810E+03  0.99999687468E+00 0.  0.
          4    1    3    3  501    0  0.19087595736E+03  0.62945440775E+02  0.23423732855E+03  0.30864686245E+03  0.00000000000E+00 0.  1.
   -9000007    1    1    2    0  502 -0.11672889604E+03  0.10837796549E+03  0.15248233156E+04  0.15844423506E+04  0.40000000000E+03 0.  1.
<mgrwt>
<rscale>  2 0.42968534E+03</rscale>
<asrwt>0</asrwt>
<pdfrwt beam="1">  1       21 0.29678006E+00 0.43054781E+03</pdfrwt>
<pdfrwt beam="2">  1       21 0.23324074E-01 0.43054781E+03</pdfrwt>
<totfact> 0.49676160E+02</totfact>
</mgrwt>
</event>
<event>
 6    1  0.9502611E-004  0.4489626E+03  0.7818608E-02  0.1028051E+00
         21   -1    0    0  503  502  0.00000000000E+00  0.00000000000E+00  0.27092980405E+03  0.27092980405E+03  0.00000000000E+00 0. -1.
         21   -1    0    0  501  503 -0.00000000000E+00 -0.00000000000E+00 -0.80173364857E+03  0.80173364857E+03  0.00000000000E+00 0.  1.
    9000007    2    1    2  501    0 -0.18500968497E+03  0.84307955805E+02 -0.40994689907E+03  0.60796697512E+03  0.40028860566E+03 0.  0.
    9000005    1    3    3    0    0 -0.20323406060E+03 -0.12506685088E+03 -0.20984688389E+03  0.31777746183E+03  0.99999687468E+00 0.  0.
          4    1    3    3  501    0  0.18224375624E+02  0.20937480669E+03 -0.20010001518E+03  0.29018951328E+03  0.00000000000E+00 0.  1.
   -9000007    1    1    2    0  502  0.18500968497E+03 -0.84307955805E+02 -0.12085694544E+03  0.46469647751E+03  0.40000000000E+03 0. -1.
<mgrwt>
<rscale>  2 0.44889822E+03</rscale>
<asrwt>0</asrwt>
<pdfrwt beam="1">  1       21 0.41681508E-01 0.44896256E+03</pdfrwt>
<pdfrwt beam="2">  1       21 0.12334364E+00 0.44896256E+03</pdfrwt>
<totfact> 0.23593321E+03</totfact>
</mgrwt>
</event>
<event>
 6    1  0.9502611E-004  0.4972339E+03  0.7818608E-02  0.1014527E+00
         21   -1    0    0  503  502  0.00000000000E+00  0.00000000000E+00  0.12132890006E+04  0.12132890006E+04  0.00000000000E+00 0.  1.
         21   -1    0    0  501  503 -0.00000000000E+00 -0.00000000000E+00 -0.73663132592E+03  0.73663132592E+03  0.00000000000E+00 0.  1.
    9000007    2    1    2  501    0  0.17411534153E+03  0.23859041744E+03 -0.59102334095E+03  0.77213244639E+03  0.39954772652E+03 0.  0.
    9000005    1    3    3    0    0  0.29157649415E+03  0.23905666682E+03 -0.41712709050E+03  0.56228191462E+03  0.99999687468E+00 0.  0.
          4    1    3    3  501    0 -0.11746115261E+03 -0.46624938459E+00 -0.17389625045E+03  0.20985053177E+03  0.00000000000E+00 0.  1.
   -9000007    1    1    2    0  502 -0.17411534153E+03 -0.23859041744E+03  0.10676810156E+04  0.11777878801E+04  0.40000000000E+03 0.  1.
<mgrwt>
<rscale>  2 0.49714292E+03</rscale>
<asrwt>0</asrwt>
<pdfrwt beam="1">  1       21 0.18665985E+00 0.49723389E+03</pdfrwt>
<pdfrwt beam="2">  1       21 0.11332790E+00 0.49723389E+03</pdfrwt>
<totfact> 0.77077656E+01</totfact>
</mgrwt>
</event>
<event>
 6    1  0.9502611E-004  0.7988821E+03  0.7818608E-02  0.9561687E-01
         21   -1    0    0  503  502  0.00000000000E+00  0.00000000000E+00  0.10538824504E+04  0.10538824504E+04  0.00000000000E+00 0. -1.
         21   -1    0    0  501  503 -0.00000000000E+00 -0.00000000000E+00 -0.78369321326E+03  0.78369321326E+03  0.00000000000E+00 0. -1.
    9000007    2    1    2  501    0 -0.47099530924E+03 -0.50633594760E+03 -0.30305635567E+03  0.85430399072E+03  0.39972425581E+03 0.  0.
    9000005    1    3    3    0    0 -0.32131342471E+03 -0.11465023397E+03 -0.26742865331E+03  0.43348134637E+03  0.99999687468E+00 0.  0.
          4    1    3    3  501    0 -0.14968188453E+03 -0.39168571363E+03 -0.35627702362E+02  0.42082264434E+03  0.00000000000E+00 0.  1.
   -9000007    1    1    2    0  502  0.47099530924E+03  0.50633594760E+03  0.57324559284E+03  0.98327167297E+03  0.40000000000E+03 0. -1.
<mgrwt>
<rscale>  2 0.79884763E+03</rscale>
<asrwt>0</asrwt>
<pdfrwt beam="1">  1       21 0.16213576E+00 0.79888214E+03</pdfrwt>
<pdfrwt beam="2">  1       21 0.12056819E+00 0.79888214E+03</pdfrwt>
<totfact> 0.88224927E+01</totfact>
</mgrwt>
</event>
<event>
 6    1  0.9502611E-004  0.4204338E+03  0.7818608E-02  0.1036951E+00
         21   -1    0    0  503  502  0.00000000000E+00  0.00000000000E+00  0.12744405631E+04  0.12744405631E+04  0.00000000000E+00 0. -1.
         21   -1    0    0  501  503 -0.00000000000E+00 -0.00000000000E+00 -0.14905668725E+03  0.14905668725E+03  0.00000000000E+00 0.  1.
    9000007    2    1    2  501    0 -0.47135508039E+02  0.11947573432E+03  0.37432461484E+03  0.56292405721E+03  0.40033532157E+03 0.  0.
    9000005    1    3    3    0    0 -0.10633893175E+03 -0.93568595409E+01  0.40417109294E+03  0.41803204613E+03  0.99999687468E+00 0.  0.
          4    1    3    3  501    0  0.59203423707E+02  0.12883259386E+03 -0.29846478099E+02  0.14489201108E+03  0.00000000000E+00 0.  1.
   -9000007    1    1    2    0  502  0.47135508039E+02 -0.11947573432E+03  0.75105926096E+03  0.86057319310E+03  0.40000000000E+03 0. -1.
<mgrwt>
<rscale>  2 0.42035395E+03</rscale>
<asrwt>0</asrwt>
<pdfrwt beam="1">  1       21 0.19606777E+00 0.42043380E+03</pdfrwt>
<pdfrwt beam="2">  1       21 0.22931799E-01 0.42043380E+03</pdfrwt>
<totfact> 0.21815263E+03</totfact>
</mgrwt>
</event>
<event>
 6    1  0.9502611E-004  0.4427581E+03  0.7818608E-02  0.1029935E+00
         21   -1    0    0  503  502  0.00000000000E+00  0.00000000000E+00  0.80167601374E+03  0.80167601374E+03  0.00000000000E+00 0.  1.
         21   -1    0    0  501  503 -0.00000000000E+00 -0.00000000000E+00 -0.48785569290E+03  0.48785569290E+03  0.00000000000E+00 0.  1.
    9000007    2    1    2  501    0  0.10371145537E+03  0.15786513639E+03 -0.29861666684E+03  0.53404740426E+03  0.40044631228E+03 0.  0.
    9000005    1    3    3    0    0  0.57922034572E+02  0.25593554096E+03 -0.55908184668E+02  0.26829962416E+03  0.99999687468E+00 0.  0.
          4    1    3    3  501    0  0.45789420802E+02 -0.98070404577E+02 -0.24270848217E+03  0.26574778010E+03  0.00000000000E+00 0.  1.
   -9000007    1    1    2    0  502 -0.10371145537E+03 -0.15786513639E+03  0.61243698768E+03  0.75548430238E+03  0.40000000000E+03 0.  1.
<mgrwt>
<rscale>  2 0.44265714E+03</rscale>
<asrwt>0</asrwt>
<pdfrwt beam="1">  1       21 0.12333477E+00 0.44275808E+03</pdfrwt>
<pdfrwt beam="2">  1       21 0.75054722E-01 0.44275808E+03</pdfrwt>
<totfact> 0.66062616E+02</totfact>
</mgrwt>
</event>
<event>
 6    1  0.9502611E-004  0.6238728E+03  0.7818608E-02  0.9857124E-01
         21   -1    0    0  503  502  0.00000000000E+00  0.00000000000E+00  0.79647952073E+03  0.79647952073E+03  0.00000000000E+00 0.  1.
         21   -1    0    0  501  503 -0.00000000000E+00 -0.00000000000E+00 -0.71194541512E+03  0.71194541512E+03  0.00000000000E+00 0. -1.
    9000007    2    1    2  501    0  0.47544415066E+03 -0.55292990326E+02 -0.38016372756E+03  0.73057628005E+03  0.40014095772E+03 0.  0.
    9000005    1    3    3    0    0  0.48250003706E+03 -0.16030868754E+03 -0.26075307816E+03  0.57140032274E+03  0.99999687468E+00 0.  0.
          4    1    3    3  501    0 -0.70558864033E+01  0.10501569722E+03 -0.11941064940E+03  0.15917595731E+03  0.00000000000E+00 0.  1.
   -9000007    1    1    2    0  502 -0.47544415066E+03  0.55292990326E+02  0.46469783318E+03  0.77784865580E+03  0.40000000000E+03 0.  1.
<mgrwt>
<rscale>  2 0.62385018E+03</rscale>
<asrwt>0</asrwt>
<pdfrwt beam="1">  1       21 0.12253531E+00 0.62387278E+03</pdfrwt>
<pdfrwt beam="2">  1       21 0.10953006E+00 0.62387278E+03</pdfrwt>
<totfact> 0.25394777E+02</totfact>
</mgrwt>
</event>
<event>
 6    1  0.9502611E-004  0.4172963E+03  0.7818608E-02  0.1037984E+00
         21   -1    0    0  503  502  0.00000000000E+00  0.00000000000E+00  0.25788491207E+03  0.25788491207E+03  0.00000000000E+00 0.  1.
         21   -1    0    0  501  503 -0.00000000000E+00 -0.00000000000E+00 -0.11141282206E+04  0.11141282206E+04  0.00000000000E+00 0.  1.
    9000007    2    1    2  501    0  0.17763242236E+02  0.11606454673E+03  0.26406946737E+01  0.41730467313E+03  0.40043689286E+03 0.  0.
    9000005    1    3    3    0    0  0.19182721191E+03  0.10458769181E+03 -0.68410182617E+02  0.22894806745E+03  0.99999687468E+00 0.  0.
          4    1    3    3  501    0 -0.17406396968E+03  0.11476854924E+02  0.71050877291E+02  0.18835660568E+03  0.00000000000E+00 0.  1.
   -9000007    1    1    2    0  502 -0.17763242236E+02 -0.11606454673E+03 -0.85888400321E+03  0.95470845956E+03  0.40000000000E+03 0.  1.
<mgrwt>
<rscale>  2 0.41719147E+03</rscale>
<asrwt>0</asrwt>
<pdfrwt beam="1">  1       21 0.39674601E-01 0.41729632E+03</pdfrwt>
<pdfrwt beam="2">  1       21 0.17140434E+00 0.41729632E+03</pdfrwt>
<totfact> 0.10915430E+03</totfact>
</mgrwt>
</event>
<event>
 6    1  0.9502611E-004  0.5921628E+03  0.7818608E-02  0.9921827E-01
         21   -1    0    0  503  502  0.00000000000E+00  0.00000000000E+00  0.82915465296E+03  0.82915465296E+03  0.00000000000E+00 0. -1.
         21   -1    0    0  501  503 -0.00000000000E+00 -0.00000000000E+00 -0.81029742076E+03  0.81029742076E+03  0.00000000000E+00 0. -1.
    9000007    2    1    2  501    0  0.36471215240E+02  0.43504828695E+03 -0.55738454559E+03  0.81322465468E+03  0.40007455030E+03 0.  0.
    9000005    1    3    3    0    0 -0.43905741848E+02  0.43398073946E+03 -0.58366703239E+03  0.72865300457E+03  0.99999687468E+00 0.  0.
          4    1    3    3  501    0  0.80376957088E+02  0.10675474945E+01  0.26282486801E+02  0.84571650101E+02  0.00000000000E+00 0.  1.
   -9000007    1    1    2    0  502 -0.36471215240E+02 -0.43504828695E+03  0.57624177778E+03  0.82622741905E+03  0.40000000000E+03 0. -1.
<mgrwt>
<rscale>  2 0.59215023E+03</rscale>
<asrwt>0</asrwt>
<pdfrwt beam="1">  1       21 0.12756225E+00 0.59216282E+03</pdfrwt>
<pdfrwt beam="2">  1       21 0.12466114E+00 0.59216282E+03</pdfrwt>
<totfact> 0.16656865E+02</totfact>
</mgrwt>
</event>
<event>
 6    1  0.9502611E-004  0.6510370E+03  0.7818608E-02  0.9805196E-01
         21   -1    0    0  503  502  0.00000000000E+00  0.00000000000E+00  0.15208873027E+04  0.15208873027E+04  0.00000000000E+00 0.  1.
         21   -1    0    0  501  503 -0.00000000000E+00 -0.00000000000E+00 -0.28236755156E+03  0.28236755156E+03  0.00000000000E+00 0. -1.
    9000007    2    1    2  501    0  0.24108406756E+03 -0.45357210429E+03  0.51143386271E+03  0.82729221636E+03  0.39874632776E+03 0.  0.
    9000005    1    3    3    0    0  0.17688463789E+03 -0.15972955424E+03  0.51309023084E+01  0.23838840528E+03  0.99999687468E+00 0.  0.
          4    1    3    3  501    0  0.64199429669E+02 -0.29384255004E+03  0.50630296040E+03  0.58890381107E+03  0.00000000000E+00 0.  1.
   -9000007    1    1    2    0  502 -0.24108406756E+03  0.45357210429E+03  0.72708588839E+03  0.97596263787E+03  0.40000000000E+03 0. -1.
<mgrwt>
<rscale>  2 0.65084454E+03</rscale>
<asrwt>0</asrwt>
<pdfrwt beam="1">  1       21 0.23398266E+00 0.65103700E+03</pdfrwt>
<pdfrwt beam="2">  1       21 0.43441163E-01 0.65103700E+03</pdfrwt>
<totfact> 0.31236632E+02</totfact>
</mgrwt>
</event>
<event>
 6    1  0.9502611E-004  0.4080354E+03  0.7818608E-02  0.1041155E+00
         21   -1    0    0  503  502  0.00000000000E+00  0.00000000000E+00  0.87526876484E+03  0.87526876484E+03  0.00000000000E+00 0. -1.
         21   -1    0    0  501  503 -0.00000000000E+00 -0.00000000000E+00 -0.20905735088E+03  0.20905735088E+03  0.00000000000E+00 0. -1.
    9000007    2    1    2  501    0 -0.49064342976E+02  0.63918353591E+02  0.16692039591E+03  0.43951266488E+03  0.39851737521E+03 0.  0.
    9000005    1    3    3    0    0  0.11444970433E+03  0.17448760716E+03  0.96849866343E+02  0.23005555086E+03  0.99999687468E+00 0.  0.
          4    1    3    3  501    0 -0.16351404731E+03 -0.11056925357E+03  0.70070529562E+02  0.20945711403E+03  0.00000000000E+00 0.  1.
   -9000007    1    1    2    0  502  0.49064342976E+02 -0.63918353591E+02  0.49929101805E+03  0.64481345084E+03  0.40000000000E+03 0. -1.
<mgrwt>
<rscale>  2 0.40767156E+03</rscale>
<asrwt>0</asrwt>
<pdfrwt beam="1">  1       21 0.13465673E+00 0.40803537E+03</pdfrwt>
<pdfrwt beam="2">  1       21 0.32162670E-01 0.40803537E+03</pdfrwt>
<totfact> 0.32372754E+03</totfact>
</mgrwt>
</event>
<event>
 6    1  0.9502611E-004  0.4507818E+03  0.7818608E-02  0.1027503E+00
         21   -1    0    0  503  502  0.00000000000E+00  0.00000000000E+00  0.97153853788E+03  0.97153853788E+03  0.00000000000E+00 0.  1.
         21   -1    0    0  501  503 -0.00000000000E+00 -0.00000000000E+00 -0.65463469753E+03  0.65463469753E+03  0.00000000000E+00 0.  1.
    9000007    2    1    2  501    0  0.14406846214E+03 -0.14982825841E+03 -0.51235980824E+03  0.68230755234E+03  0.39978343397E+03 0.  0.
    9000005    1    3    3    0    0 -0.15086921841E+02  0.12870289025E+03 -0.13818631341E+03  0.18944262027E+03  0.99999687468E+00 0.  0.
          4    1    3    3  501    0  0.15915538398E+03 -0.27853114866E+03 -0.37417349483E+03  0.49286493206E+03  0.00000000000E+00 0.  1.
   -9000007    1    1    2    0  502 -0.14406846214E+03  0.14982825841E+03  0.82926364860E+03  0.94386568307E+03  0.40000000000E+03 0.  1.
<mgrwt>
<rscale>  2 0.45073375E+03</rscale>
<asrwt>0</asrwt>
<pdfrwt beam="1">  1       21 0.14946747E+00 0.45078180E+03</pdfrwt>
<pdfrwt beam="2">  1       21 0.10071303E+00 0.45078180E+03</pdfrwt>
<totfact> 0.19869357E+02</totfact>
</mgrwt>
</event>
<event>
 6    1  0.9502611E-004  0.4269001E+03  0.7818608E-02  0.1034845E+00
         21   -1    0    0  503  502  0.00000000000E+00  0.00000000000E+00  0.38191530854E+03  0.38191530854E+03  0.00000000000E+00 0.  1.
         21   -1    0    0  501  503 -0.00000000000E+00 -0.00000000000E+00 -0.10467366193E+04  0.10467366193E+04  0.00000000000E+00 0. -1.
    9000007    2    1    2  501    0  0.61082167503E+02  0.13606130955E+03 -0.85933796638E+03  0.95952460993E+03  0.39997753118E+03 0.  0.
    9000005    1    3    3    0    0  0.20409475976E+03  0.17622533803E+03 -0.64140662304E+03  0.69578265054E+03  0.99999687468E+00 0.  0.
          4    1    3    3  501    0 -0.14301259226E+03 -0.40164028472E+02 -0.21793134334E+03  0.26374195938E+03  0.00000000000E+00 0.  1.
   -9000007    1    1    2    0  502 -0.61082167503E+02 -0.13606130955E+03  0.19451665559E+03  0.46912731795E+03  0.40000000000E+03 0.  1.
<mgrwt>
<rscale>  2 0.42689486E+03</rscale>
<asrwt>0</asrwt>
<pdfrwt beam="1">  1       21 0.58756202E-01 0.42690012E+03</pdfrwt>
<pdfrwt beam="2">  1       21 0.16103640E+00 0.42690012E+03</pdfrwt>
<totfact> 0.56459148E+02</totfact>
</mgrwt>
</event>
<event>
 6    1  0.9502611E-004  0.4124281E+03  0.7818608E-02  0.1039650E+00
         21   -1    0    0  503  502  0.00000000000E+00  0.00000000000E+00  0.36895920455E+03  0.36895920455E+03  0.00000000000E+00 0. -1.
         21   -1    0    0  501  503 -0.00000000000E+00 -0.00000000000E+00 -0.46500484813E+03  0.46500484813E+03  0.00000000000E+00 0. -1.
    9000007    2    1    2  501    0  0.98173669527E+02 -0.21421013461E+02 -0.92057781066E+02  0.42151668361E+03  0.39887936811E+03 0.  0.
    9000005    1    3    3    0    0  0.11199316614E+02 -0.26976969448E+02 -0.24432796619E+03  0.24606978000E+03  0.99999687468E+00 0.  0.
          4    1    3    3  501    0  0.86974352913E+02  0.55559559878E+01  0.15227018512E+03  0.17544690362E+03  0.00000000000E+00 0.  1.
   -9000007    1    1    2    0  502 -0.98173669527E+02  0.21421013461E+02 -0.39878625117E+01  0.41244736907E+03  0.40000000000E+03 0. -1.
<mgrwt>
<rscale>  2 0.41215613E+03</rscale>
<asrwt>0</asrwt>
<pdfrwt beam="1">  1       21 0.56762954E-01 0.41242809E+03</pdfrwt>
<pdfrwt beam="2">  1       21 0.71539208E-01 0.41242809E+03</pdfrwt>
<totfact> 0.45839955E+03</totfact>
</mgrwt>
</event>
<event>
 6    1  0.9502611E-004  0.5836825E+03  0.7818608E-02  0.9939906E-01
         21   -1    0    0  503  502  0.00000000000E+00  0.00000000000E+00  0.35982278846E+03  0.35982278846E+03  0.00000000000E+00 0.  1.
         21   -1    0    0  501  503 -0.00000000000E+00 -0.00000000000E+00 -0.14311600935E+04  0.14311600935E+04  0.00000000000E+00 0. -1.
    9000007    2    1    2  501    0  0.18909449682E+03  0.38053621355E+03 -0.14660871242E+02  0.58386663889E+03  0.40015093691E+03 0.  0.
    9000005    1    3    3    0    0  0.29460930452E+03  0.24992898386E+03 -0.94823281495E+02  0.39780848909E+03  0.99999687468E+00 0.  0.
          4    1    3    3  501    0 -0.10551480770E+03  0.13060722968E+03  0.80162410253E+02  0.18605814980E+03  0.00000000000E+00 0.  1.
   -9000007    1    1    2    0  502 -0.18909449682E+03 -0.38053621355E+03 -0.10566764339E+04  0.12071162431E+04  0.40000000000E+03 0. -1.
<mgrwt>
<rscale>  2 0.58365667E+03</rscale>
<asrwt>0</asrwt>
<pdfrwt beam="1">  1       21 0.55357354E-01 0.58368254E+03</pdfrwt>
<pdfrwt beam="2">  1       21 0.22017847E+00 0.58368254E+03</pdfrwt>
<totfact> 0.23409491E+02</totfact>
</mgrwt>
</event>
<event>
 6    1  0.9502611E-004  0.4030941E+03  0.7818608E-02  0.1042759E+00
         21   -1    0    0  503  502  0.00000000000E+00  0.00000000000E+00  0.42277093227E+03  0.42277093227E+03  0.00000000000E+00 0. -1.
         21   -1    0    0  501  503 -0.00000000000E+00 -0.00000000000E+00 -0.43440933512E+03  0.43440933512E+03  0.00000000000E+00 0. -1.
    9000007    2    1    2  501    0  0.13594047116E+02  0.47958518423E+02 -0.15206240573E+03  0.43032699261E+03  0.39946655395E+03 0.  0.
    9000005    1    3    3    0    0 -0.73038800326E+02  0.84785379051E+02  0.10691343407E+03  0.15477308950E+03  0.99999687468E+00 0.  0.
          4    1    3    3  501    0  0.86632847442E+02 -0.36826860628E+02 -0.25897583980E+03  0.27555390311E+03  0.00000000000E+00 0.  1.
   -9000007    1    1    2    0  502 -0.13594047116E+02 -0.47958518423E+02  0.14042400287E+03  0.42685327478E+03  0.40000000000E+03 0. -1.
<mgrwt>
<rscale>  2 0.40296165E+03</rscale>
<asrwt>0</asrwt>
<pdfrwt beam="1">  1       21 0.65041682E-01 0.40309406E+03</pdfrwt>
<pdfrwt beam="2">  1       21 0.66832205E-01 0.40309406E+03</pdfrwt>
<totfact> 0.39759451E+03</totfact>
</mgrwt>
</event>
<event>
 6    1  0.9502611E-004  0.6228809E+03  0.7818608E-02  0.9859058E-01
         21   -1    0    0  503  502  0.00000000000E+00  0.00000000000E+00  0.19825406211E+04  0.19825406211E+04  0.00000000000E+00 0.  1.
         21   -1    0    0  501  503 -0.00000000000E+00 -0.00000000000E+00 -0.19569206660E+03  0.19569206660E+03  0.00000000000E+00 0. -1.
    9000007    2    1    2  501    0  0.47604144645E+03 -0.36347779603E+02  0.88823820793E+03  0.10848721914E+04  0.40005491864E+03 0.  0.
    9000005    1    3    3    0    0 -0.64467292273E+02 -0.57120947694E+01  0.32918866870E+02  0.72617570804E+02  0.99999687468E+00 0.  0.
          4    1    3    3  501    0  0.54050873872E+03 -0.30635684833E+02  0.85531934106E+03  0.10122546206E+04  0.00000000000E+00 0.  1.
   -9000007    1    1    2    0  502 -0.47604144645E+03  0.36347779603E+02  0.89861034662E+03  0.10933604963E+04  0.40000000000E+03 0.  1.
<mgrwt>
<rscale>  2 0.62287204E+03</rscale>
<asrwt>0</asrwt>
<pdfrwt beam="1">  1       21 0.30500624E+00 0.62288085E+03</pdfrwt>
<pdfrwt beam="2">  1       21 0.30106473E-01 0.62288085E+03</pdfrwt>
<totfact> 0.24371825E+02</totfact>
</mgrwt>
</event>
<event>
 6    1  0.9502611E-004  0.4474228E+03  0.7818608E-02  0.1028536E+00
         21   -1    0    0  503  502  0.00000000000E+00  0.00000000000E+00  0.79942292972E+03  0.79942292972E+03  0.00000000000E+00 0. -1.
         21   -1    0    0  501  503 -0.00000000000E+00 -0.00000000000E+00 -0.29561092526E+03  0.29561092526E+03  0.00000000000E+00 0.  1.
    9000007    2    1    2  501    0  0.55120481266E+02  0.19274040022E+03  0.36925923515E+02  0.44837340165E+03  0.39935955497E+03 0.  0.
    9000005    1    3    3    0    0  0.17144262879E+03  0.93137932322E+02  0.15966827384E+03  0.25211546377E+03  0.99999687468E+00 0.  0.
          4    1    3    3  501    0 -0.11632214753E+03  0.99602467901E+02 -0.12274235033E+03  0.19625793788E+03  0.00000000000E+00 0.  1.
   -9000007    1    1    2    0  502 -0.55120481266E+02 -0.19274040022E+03  0.46688608094E+03  0.64666045334E+03  0.40000000000E+03 0. -1.
<mgrwt>
<rscale>  2 0.44727958E+03</rscale>
<asrwt>0</asrwt>
<pdfrwt beam="1">  1       21 0.12298814E+00 0.44742276E+03</pdfrwt>
<pdfrwt beam="2">  1       21 0.45478604E-01 0.44742276E+03</pdfrwt>
<totfact> 0.19829630E+03</totfact>
</mgrwt>
</event>
<event>
 6    1  0.9502611E-004  0.6447008E+03  0.7818608E-02  0.9816786E-01
         21   -1    0    0  503  502  0.00000000000E+00  0.00000000000E+00  0.34447542894E+03  0.34447542894E+03  0.00000000000E+00 0.  1.
         21   -1    0    0  501  503 -0.00000000000E+00 -0.00000000000E+00 -0.12441722075E+04  0.12441722075E+04  0.00000000000E+00 0. -1.
    9000007    2    1    2  501    0  0.48178964473E+03  0.15335517334E+03 -0.31169352525E+03  0.71607277038E+03  0.39996035783E+03 0.  0.
    9000005    1    3    3    0    0  0.13139907462E+03  0.22982482641E+03 -0.22419760987E+03  0.34691603582E+03  0.99999687468E+00 0.  0.
          4    1    3    3  501    0  0.35039057011E+03 -0.76469653067E+02 -0.87495915381E+02  0.36915673456E+03  0.00000000000E+00 0.  1.
   -9000007    1    1    2    0  502 -0.48178964473E+03 -0.15335517334E+03 -0.58800325328E+03  0.87257486603E+03  0.40000000000E+03 0. -1.
<mgrwt>
<rscale>  2 0.64469461E+03</rscale>
<asrwt>0</asrwt>
<pdfrwt beam="1">  1       21 0.52996221E-01 0.64470076E+03</pdfrwt>
<pdfrwt beam="2">  1       21 0.19141111E+00 0.64470076E+03</pdfrwt>
<totfact> 0.39145412E+02</totfact>
</mgrwt>
</event>
<event>
 6    1  0.9502611E-004  0.4541075E+03  0.7818608E-02  0.1026526E+00
         21   -1    0    0  503  502  0.00000000000E+00  0.00000000000E+00  0.52360107112E+03  0.52360107112E+03  0.00000000000E+00 0. -1.
         21   -1    0    0  501  503 -0.00000000000E+00 -0.00000000000E+00 -0.40664964815E+03  0.40664964815E+03  0.00000000000E+00 0. -1.
    9000007    2    1    2  501    0 -0.20330889350E+03 -0.67894196613E+02 -0.24891859670E+02  0.45478921196E+03  0.40033672643E+03 0.  0.
    9000005    1    3    3    0    0 -0.29744946418E+03  0.17373558193E+01 -0.10214675158E+03  0.31450621774E+03  0.99999687468E+00 0.  0.
          4    1    3    3  501    0  0.94140570678E+02 -0.69631552433E+02  0.77254891914E+02  0.14028299422E+03  0.00000000000E+00 0.  1.
   -9000007    1    1    2    0  502  0.20330889350E+03  0.67894196613E+02  0.14184328264E+03  0.47546150732E+03  0.40000000000E+03 0. -1.
<mgrwt>
<rscale>  2 0.45403328E+03</rscale>
<asrwt>0</asrwt>
<pdfrwt beam="1">  1       21 0.80554011E-01 0.45410750E+03</pdfrwt>
<pdfrwt beam="2">  1       21 0.62561484E-01 0.45410750E+03</pdfrwt>
<totfact> 0.27836225E+03</totfact>
</mgrwt>
</event>
<event>
 6    1  0.9502611E-004  0.4146450E+03  0.7818608E-02  0.1038849E+00
         21   -1    0    0  503  502  0.00000000000E+00  0.00000000000E+00  0.12227200822E+03  0.12227200822E+03  0.00000000000E+00 0. -1.
         21   -1    0    0  501  503 -0.00000000000E+00 -0.00000000000E+00 -0.15957107388E+04  0.15957107388E+04  0.00000000000E+00 0. -1.
    9000007    2    1    2  501    0  0.33775186439E+02  0.10261240210E+03 -0.10338746464E+04  0.11139242628E+04  0.40032538070E+03 0.  0.
    9000005    1    3    3    0    0 -0.66188620946E+02  0.21192157964E+03 -0.84617335664E+03  0.87481543136E+03  0.99999687468E+00 0.  0.
          4    1    3    3  501    0  0.99963807385E+02 -0.10930917754E+03 -0.18770128979E+03  0.23910883144E+03  0.00000000000E+00 0.  1.
   -9000007    1    1    2    0  502 -0.33775186439E+02 -0.10261240210E+03 -0.43956408416E+03  0.60405848423E+03  0.40000000000E+03 0. -1.
<mgrwt>
<rscale>  2 0.41456645E+03</rscale>
<asrwt>0</asrwt>
<pdfrwt beam="1">  1       21 0.18811078E-01 0.41464500E+03</pdfrwt>
<pdfrwt beam="2">  1       21 0.24549396E+00 0.41464500E+03</pdfrwt>
<totfact> 0.15429625E+03</totfact>
</mgrwt>
</event>
<event>
 6    1  0.9502611E-004  0.5411925E+03  0.7818608E-02  0.1003593E+00
         21   -1    0    0  503  502  0.00000000000E+00  0.00000000000E+00  0.21602781968E+04  0.21602781968E+04  0.00000000000E+00 0.  1.
         21   -1    0    0  501  503 -0.00000000000E+00 -0.00000000000E+00 -0.59024852645E+03  0.59024852645E+03  0.00000000000E+00 0. -1.
    9000007    2    1    2  501    0 -0.36187155577E+03 -0.44026679097E+02 -0.42234440661E+03  0.68595804338E+03  0.39909180414E+03 0.  0.
    9000005    1    3    3    0    0 -0.42322170197E+03 -0.67090772625E+02 -0.44388136532E+03  0.61696794670E+03  0.99999687468E+00 0.  0.
          4    1    3    3  501    0  0.61350146200E+02  0.23064093528E+02  0.21536958703E+02  0.68990096675E+02  0.00000000000E+00 0.  1.
   -9000007    1    1    2    0  502  0.36187155577E+03  0.44026679097E+02  0.19923740769E+04  0.20645686799E+04  0.40000000000E+03 0.  1.
<mgrwt>
<rscale>  2 0.54102474E+03</rscale>
<asrwt>0</asrwt>
<pdfrwt beam="1">  1       21 0.33235049E+00 0.54119255E+03</pdfrwt>
<pdfrwt beam="2">  1       21 0.90807467E-01 0.54119255E+03</pdfrwt>
<totfact> 0.15825616E+01</totfact>
</mgrwt>
</event>
<event>
 6    1  0.9502611E-004  0.4340645E+03  0.7818608E-02  0.1032620E+00
         21   -1    0    0  503  502  0.00000000000E+00  0.00000000000E+00  0.59201416145E+03  0.59201416145E+03  0.00000000000E+00 0. -1.
         21   -1    0    0  501  503 -0.00000000000E+00 -0.00000000000E+00 -0.68750766888E+03  0.68750766888E+03  0.00000000000E+00 0.  1.
    9000007    2    1    2  501    0  0.16155112149E+03  0.43727131400E+02 -0.51683043399E+03  0.67492640151E+03  0.40050108999E+03 0.  0.
    9000005    1    3    3    0    0  0.12785704588E+03 -0.15343840187E+03 -0.12675341188E+03  0.23655484516E+03  0.99999687468E+00 0.  0.
          4    1    3    3  501    0  0.33694075610E+02  0.19716553327E+03 -0.39007702211E+03  0.43837155635E+03  0.00000000000E+00 0.  1.
   -9000007    1    1    2    0  502 -0.16155112149E+03 -0.43727131400E+02  0.42133692656E+03  0.60459542882E+03  0.40000000000E+03 0. -1.
<mgrwt>
<rscale>  2 0.43394883E+03</rscale>
<asrwt>0</asrwt>
<pdfrwt beam="1">  1       21 0.91079102E-01 0.43406445E+03</pdfrwt>
<pdfrwt beam="2">  1       21 0.10577041E+00 0.43406445E+03</pdfrwt>
<totfact> 0.62131050E+02</totfact>
</mgrwt>
</event>
<event>
 6    1  0.9502611E-004  0.4210371E+03  0.7818608E-02  0.1036813E+00
         21   -1    0    0  503  502  0.00000000000E+00  0.00000000000E+00  0.32674932785E+03  0.32674932785E+03  0.00000000000E+00 0.  1.
         21   -1    0    0  501  503 -0.00000000000E+00 -0.00000000000E+00 -0.59097361506E+03  0.59097361506E+03  0.00000000000E+00 0.  1.
    9000007    2    1    2  501    0  0.12103804677E+03  0.51205738979E+02 -0.26512404306E+03  0.49668488522E+03  0.39891462812E+03 0.  0.
    9000005    1    3    3    0    0 -0.13420460367E+03  0.16629478711E+02 -0.18055114567E+03  0.22558176213E+03  0.99999687468E+00 0.  0.
          4    1    3    3  501    0  0.25524265044E+03  0.34576260268E+02 -0.84572897384E+02  0.27110312309E+03  0.00000000000E+00 0.  1.
   -9000007    1    1    2    0  502 -0.12103804677E+03 -0.51205738979E+02  0.89975584788E+00  0.42103805770E+03  0.40000000000E+03 0.  1.
<mgrwt>
<rscale>  2 0.42077911E+03</rscale>
<asrwt>0</asrwt>
<pdfrwt beam="1">  1       21 0.50269128E-01 0.42103710E+03</pdfrwt>
<pdfrwt beam="2">  1       21 0.90919016E-01 0.42103710E+03</pdfrwt>
<totfact> 0.34077838E+03</totfact>
</mgrwt>
</event>
<event>
 6    1  0.9502611E-004  0.4198801E+03  0.7818608E-02  0.1037126E+00
         21   -1    0    0  503  502  0.00000000000E+00  0.00000000000E+00  0.12908565723E+03  0.12908565723E+03  0.00000000000E+00 0. -1.
         21   -1    0    0  501  503 -0.00000000000E+00 -0.00000000000E+00 -0.15923986364E+04  0.15923986364E+04  0.00000000000E+00 0. -1.
    9000007    2    1    2  501    0 -0.18378889106E+02 -0.12547876966E+03 -0.10571776671E+04  0.11375077556E+04  0.40027061993E+03 0.  0.
    9000005    1    3    3    0    0 -0.55248509597E+02 -0.16393810070E+03 -0.15060461764E+03  0.22937055069E+03  0.99999687468E+00 0.  0.
          4    1    3    3  501    0  0.36869620491E+02  0.38459331045E+02 -0.90657304943E+03  0.90813720495E+03  0.00000000000E+00 0.  1.
   -9000007    1    1    2    0  502  0.18378889106E+02  0.12547876966E+03 -0.40613531211E+03  0.58397653801E+03  0.40000000000E+03 0. -1.
<mgrwt>
<rscale>  2 0.41981556E+03</rscale>
<asrwt>0</asrwt>
<pdfrwt beam="1">  1       21 0.19859332E-01 0.41988007E+03</pdfrwt>
<pdfrwt beam="2">  1       21 0.24498441E+00 0.41988007E+03</pdfrwt>
<totfact> 0.13986598E+03</totfact>
</mgrwt>
</event>
<event>
 6    1  0.9502611E-004  0.7419389E+03  0.7818608E-02  0.9648199E-01
         21   -1    0    0  503  502  0.00000000000E+00  0.00000000000E+00  0.70592281276E+03  0.70592281276E+03  0.00000000000E+00 0. -1.
         21   -1    0    0  501  503 -0.00000000000E+00 -0.00000000000E+00 -0.13646422319E+04  0.13646422319E+04  0.00000000000E+00 0.  1.
    9000007    2    1    2  501    0  0.61824593274E+03  0.88371961667E+02 -0.10073289928E+04  0.12510735731E+04  0.40054431567E+03 0.  0.
    9000005    1    3    3    0    0  0.21451355168E+03  0.94058929275E+02 -0.93843926873E+02  0.25233079209E+03  0.99999687468E+00 0.  0.
          4    1    3    3  501    0  0.40373238105E+03 -0.56869676088E+01 -0.91348506589E+03  0.99874278106E+03  0.00000000000E+00 0.  1.
   -9000007    1    1    2    0  502 -0.61824593274E+03 -0.88371961667E+02  0.34860957367E+03  0.81949147147E+03  0.40000000000E+03 0. -1.
<mgrwt>
<rscale>  2 0.74186550E+03</rscale>
<asrwt>0</asrwt>
<pdfrwt beam="1">  1       21 0.10860351E+00 0.74193894E+03</pdfrwt>
<pdfrwt beam="2">  1       21 0.20994496E+00 0.74193894E+03</pdfrwt>
<totfact> 0.53695741E+01</totfact>
</mgrwt>
</event>
<event>
 6    1  0.9502611E-004  0.4342401E+03  0.7818608E-02  0.1032534E+00
         21   -1    0    0  503  502  0.00000000000E+00  0.00000000000E+00  0.91387449689E+02  0.91387449689E+02  0.00000000000E+00 0.  1.
         21   -1    0    0  501  503 -0.00000000000E+00 -0.00000000000E+00 -0.20872665899E+04  0.20872665899E+04  0.00000000000E+00 0.  1.
    9000007    2    1    2  501    0  0.66255968968E+02  0.15530180649E+03 -0.11153579589E+04  0.11969076083E+04  0.40006992128E+03 0.  0.
    9000005    1    3    3    0    0  0.11042243983E+03 -0.10034083497E+03 -0.62029821431E+03  0.63799080954E+03  0.99999687468E+00 0.  0.
          4    1    3    3  501    0 -0.44166470858E+02  0.25564264146E+03 -0.49505974455E+03  0.55891679878E+03  0.00000000000E+00 0.  1.
   -9000007    1    1    2    0  502 -0.66255968968E+02 -0.15530180649E+03 -0.88052118135E+03  0.98174643127E+03  0.40000000000E+03 0. -1.
<mgrwt>
<rscale>  2 0.43422397E+03</rscale>
<asrwt>0</asrwt>
<pdfrwt beam="1">  1       21 0.14059608E-01 0.43424008E+03</pdfrwt>
<pdfrwt beam="2">  1       21 0.32111792E+00 0.43424008E+03</pdfrwt>
<totfact> 0.91907762E+02</totfact>
</mgrwt>
</event>
<event>
 6    1  0.9502611E-004  0.4179284E+03  0.7818608E-02  0.1037746E+00
         21   -1    0    0  503  502  0.00000000000E+00  0.00000000000E+00  0.13977026817E+04  0.13977026817E+04  0.00000000000E+00 0.  1.
         21   -1    0    0  501  503 -0.00000000000E+00 -0.00000000000E+00 -0.20460928333E+03  0.20460928333E+03  0.00000000000E+00 0.  1.
    9000007    2    1    2  501    0 -0.12087866776E+03 -0.72466829051E+01  0.96649692575E+02  0.42891818343E+03  0.39995684551E+03 0.  0.
    9000005    1    3    3    0    0 -0.80560087527E+02  0.57472006198E+02  0.24383584235E+03  0.26315371403E+03  0.99999687468E+00 0.  0.
          4    1    3    3  501    0 -0.40318580233E+02 -0.64718689103E+02 -0.14718614977E+03  0.16576446940E+03  0.00000000000E+00 0.  1.
   -9000007    1    1    2    0  502  0.12087866776E+03  0.72466829051E+01  0.10964437057E+04  0.11733937816E+04  0.40000000000E+03 0.  1.
<mgrwt>
<rscale>  2 0.41791810E+03</rscale>
<asrwt>0</asrwt>
<pdfrwt beam="1">  1       21 0.21503118E+00 0.41792842E+03</pdfrwt>
<pdfrwt beam="2">  1       21 0.31478352E-01 0.41792842E+03</pdfrwt>
<totfact> 0.88142022E+02</totfact>
</mgrwt>
</event>
<event>
 6    1  0.9502611E-004  0.4190534E+03  0.7818608E-02  0.1037392E+00
         21   -1    0    0  503  502  0.00000000000E+00  0.00000000000E+00  0.10490327262E+04  0.10490327262E+04  0.00000000000E+00 0.  1.
         21   -1    0    0  501  503 -0.00000000000E+00 -0.00000000000E+00 -0.30615687978E+03  0.30615687978E+03  0.00000000000E+00 0.  1.
    9000007    2    1    2  501    0  0.56887061007E+02  0.11043183969E+03  0.82779714996E+03  0.92782213325E+03  0.40021801626E+03 0.  0.
    9000005    1    3    3    0    0  0.58840712305E+01 -0.10200849211E+03  0.61293600743E+03  0.62139512708E+03  0.99999687468E+00 0.  0.
          4    1    3    3  501    0  0.51002989776E+02  0.21244033180E+03  0.21486114253E+03  0.30642700617E+03  0.00000000000E+00 0.  1.
   -9000007    1    1    2    0  502 -0.56887061007E+02 -0.11043183969E+03 -0.84921303566E+02  0.42736747271E+03  0.40000000000E+03 0.  1.
<mgrwt>
<rscale>  2 0.41900138E+03</rscale>
<asrwt>0</asrwt>
<pdfrwt beam="1">  1       21 0.16138965E+00 0.41905344E+03</pdfrwt>
<pdfrwt beam="2">  1       21 0.47101059E-01 0.41905344E+03</pdfrwt>
<totfact> 0.90438089E+02</totfact>
</mgrwt>
</event>
<event>
 6    1  0.9502611E-004  0.4928125E+03  0.7818608E-02  0.1015684E+00
         21   -1    0    0  503  502  0.00000000000E+00  0.00000000000E+00  0.45798793523E+03  0.45798793523E+03  0.00000000000E+00 0. -1.
         21   -1    0    0  501  503 -0.00000000000E+00 -0.00000000000E+00 -0.53010844327E+03  0.53010844327E+03  0.00000000000E+00 0. -1.
    9000007    2    1    2  501    0 -0.27746486584E+03 -0.76664239696E+02 -0.39159328601E+02  0.49418282658E+03  0.39977375557E+03 0.  0.
    9000005    1    3    3    0    0 -0.26739405661E+03  0.14565598897E+02  0.13306315102E+03  0.29902933023E+03  0.99999687468E+00 0.  0.
          4    1    3    3  501    0 -0.10070809225E+02 -0.91229838594E+02 -0.17222247962E+03  0.19515349635E+03  0.00000000000E+00 0.  1.
   -9000007    1    1    2    0  502  0.27746486584E+03  0.76664239696E+02 -0.32961179448E+02  0.49391355192E+03  0.40000000000E+03 0. -1.
<mgrwt>
<rscale>  2 0.49276659E+03</rscale>
<asrwt>0</asrwt>
<pdfrwt beam="1">  1       21 0.70459682E-01 0.49281250E+03</pdfrwt>
<pdfrwt beam="2">  1       21 0.81555145E-01 0.49281250E+03</pdfrwt>
<totfact> 0.20463969E+03</totfact>
</mgrwt>
</event>
<event>
 6    1  0.9502611E-004  0.6100508E+03  0.7818608E-02  0.9885145E-01
         21   -1    0    0  503  502  0.00000000000E+00  0.00000000000E+00  0.80538399643E+03  0.80538399643E+03  0.00000000000E+00 0. -1.
         21   -1    0    0  501  503 -0.00000000000E+00 -0.00000000000E+00 -0.52287405841E+03  0.52287405841E+03  0.00000000000E+00 0.  1.
    9000007    2    1    2  501    0  0.36549704289E+03  0.27870381578E+03 -0.86138970139E+02  0.61610222724E+03  0.40112108763E+03 0.  0.
    9000005    1    3    3    0    0  0.17425775475E+03 -0.72503291885E+02  0.47209697404E+02  0.19455654177E+03  0.99999687468E+00 0.  0.
          4    1    3    3  501    0  0.19123928815E+03  0.35120710767E+03 -0.13334866754E+03  0.42154568547E+03  0.00000000000E+00 0.  1.
   -9000007    1    1    2    0  502 -0.36549704289E+03 -0.27870381578E+03  0.36864890816E+03  0.71215582760E+03  0.40000000000E+03 0. -1.
<mgrwt>
<rscale>  2 0.60986662E+03</rscale>
<asrwt>0</asrwt>
<pdfrwt beam="1">  1       21 0.12390523E+00 0.61005084E+03</pdfrwt>
<pdfrwt beam="2">  1       21 0.80442163E-01 0.61005084E+03</pdfrwt>
<totfact> 0.52215748E+02</totfact>
</mgrwt>
</event>
<event>
 6    1  0.9502611E-004  0.5205339E+03  0.7818608E-02  0.1008637E+00
         21   -1    0    0  503  502  0.00000000000E+00  0.00000000000E+00  0.16230096689E+04  0.16230096689E+04  0.00000000000E+00 0. -1.
         21   -1    0    0  501  503 -0.00000000000E+00 -0.00000000000E+00 -0.17153219620E+03  0.17153219620E+03  0.00000000000E+00 0. -1.
    9000007    2    1    2  501    0 -0.29966836154E+03  0.14058590413E+03  0.88005592065E+03  0.10224744370E+04  0.40173377692E+03 0.  0.
    9000005    1    3    3    0    0 -0.19005790059E+03 -0.93286442004E+02  0.62333200103E+03  0.65830703273E+03  0.99999687468E+00 0.  0.
          4    1    3    3  501    0 -0.10961046095E+03  0.23387234614E+03  0.25672391962E+03  0.36416740428E+03  0.00000000000E+00 0.  1.
   -9000007    1    1    2    0  502  0.29966836154E+03 -0.14058590413E+03  0.57142155201E+03  0.77206742805E+03  0.40000000000E+03 0. -1.
<mgrwt>
<rscale>  2 0.52019936E+03</rscale>
<asrwt>0</asrwt>
<pdfrwt beam="1">  1       21 0.24969378E+00 0.52053391E+03</pdfrwt>
<pdfrwt beam="2">  1       21 0.26389570E-01 0.52053391E+03</pdfrwt>
<totfact> 0.72046386E+02</totfact>
</mgrwt>
</event>
<event>
 6    1  0.9502611E-004  0.5006000E+03  0.7818608E-02  0.1013636E+00
         21   -1    0    0  503  502  0.00000000000E+00  0.00000000000E+00  0.35324078127E+03  0.35324078127E+03  0.00000000000E+00 0. -1.
         21   -1    0    0  501  503 -0.00000000000E+00 -0.00000000000E+00 -0.13967324214E+04  0.13967324214E+04  0.00000000000E+00 0.  1.
    9000007    2    1    2  501    0 -0.27714511123E+03  0.11656189363E+03 -0.11357164536E+04  0.12411495555E+04  0.40025525394E+03 0.  0.
    9000005    1    3    3    0    0 -0.26379071597E+03 -0.55247304768E+02 -0.37899947539E+03  0.46505850047E+03  0.99999687468E+00 0.  0.
          4    1    3    3  501    0 -0.13354395259E+02  0.17180919839E+03 -0.75671697820E+03  0.77609105498E+03  0.00000000000E+00 0.  1.
   -9000007    1    1    2    0  502  0.27714511123E+03 -0.11656189363E+03  0.92224813489E+02  0.50882364720E+03  0.40000000000E+03 0. -1.
<mgrwt>
<rscale>  2 0.50054897E+03</rscale>
<asrwt>0</asrwt>
<pdfrwt beam="1">  1       21 0.54344737E-01 0.50060000E+03</pdfrwt>
<pdfrwt beam="2">  1       21 0.21488191E+00 0.50060000E+03</pdfrwt>
<totfact> 0.27345517E+02</totfact>
</mgrwt>
</event>
<event>
 6    1  0.9502611E-004  0.4369942E+03  0.7818608E-02  0.1031678E+00
         21   -1    0    0  503  502  0.00000000000E+00  0.00000000000E+00  0.67687240635E+03  0.67687240635E+03  0.00000000000E+00 0.  1.
         21   -1    0    0  501  503 -0.00000000000E+00 -0.00000000000E+00 -0.29047919116E+03  0.29047919116E+03  0.00000000000E+00 0.  1.
    9000007    2    1    2  501    0  0.13434105884E+02  0.17527776395E+03  0.27544924441E+03  0.51656191885E+03  0.40007644273E+03 0.  0.
    9000005    1    3    3    0    0  0.30785413743E+02  0.18192603378E+03  0.37359314087E+03  0.41667452330E+03  0.99999687468E+00 0.  0.
          4    1    3    3  501    0 -0.17351307859E+02 -0.66482698279E+01 -0.98143896466E+02  0.99887395549E+02  0.00000000000E+00 0.  1.
   -9000007    1    1    2    0  502 -0.13434105884E+02 -0.17527776395E+03  0.11094397078E+03  0.45078967866E+03  0.40000000000E+03 0.  1.
<mgrwt>
<rscale>  2 0.43697670E+03</rscale>
<asrwt>0</asrwt>
<pdfrwt beam="1">  1       21 0.10413422E+00 0.43699420E+03</pdfrwt>
<pdfrwt beam="2">  1       21 0.44689107E-01 0.43699420E+03</pdfrwt>
<totfact> 0.31302768E+03</totfact>
</mgrwt>
</event>
<event>
 6    1  0.9502611E-004  0.5776493E+03  0.7818608E-02  0.9952990E-01
         21   -1    0    0  503  502  0.00000000000E+00  0.00000000000E+00  0.39361158506E+03  0.39361158506E+03  0.00000000000E+00 0. -1.
         21   -1    0    0  501  503 -0.00000000000E+00 -0.00000000000E+00 -0.86204131902E+03  0.86204131902E+03  0.00000000000E+00 0.  1.
    9000007    2    1    2  501    0  0.40876343363E+03 -0.79913716049E+02 -0.31586002654E+03  0.65836632102E+03  0.40025605505E+03 0.  0.
    9000005    1    3    3    0    0  0.40464895939E+03 -0.21660481951E+02 -0.77011714529E+02  0.41248243718E+03  0.99999687468E+00 0.  0.
          4    1    3    3  501    0  0.41144742333E+01 -0.58253234098E+02 -0.23884831201E+03  0.24588388383E+03  0.00000000000E+00 0.  1.
   -9000007    1    1    2    0  502 -0.40876343363E+03  0.79913716049E+02 -0.15256970743E+03  0.59728658306E+03  0.40000000000E+03 0.  1.
<mgrwt>
<rscale>  2 0.57760490E+03</rscale>
<asrwt>0</asrwt>
<pdfrwt beam="1">  1       21 0.60555629E-01 0.57764925E+03</pdfrwt>
<pdfrwt beam="2">  1       21 0.13262174E+00 0.57764925E+03</pdfrwt>
<totfact> 0.84115039E+02</totfact>
</mgrwt>
</event>
<event>
 6    1  0.9502611E-004  0.4478295E+03  0.7818608E-02  0.1028411E+00
         21   -1    0    0  503  502  0.00000000000E+00  0.00000000000E+00  0.15429965204E+04  0.15429965204E+04  0.00000000000E+00 0. -1.
         21   -1    0    0  501  503 -0.00000000000E+00 -0.00000000000E+00 -0.13092126421E+03  0.13092126421E+03  0.00000000000E+00 0. -1.
    9000007    2    1    2  501    0  0.19857769973E+03  0.33438287401E+02  0.78234376726E+03  0.90118693235E+03  0.39940567719E+03 0.  0.
    9000005    1    3    3    0    0  0.29375630075E+03 -0.66185282549E+02  0.61222447189E+03  0.68227051807E+03  0.99999687468E+00 0.  0.
          4    1    3    3  501    0 -0.95178601022E+02  0.99623569950E+02  0.17011929537E+03  0.21891641428E+03  0.00000000000E+00 0.  1.
   -9000007    1    1    2    0  502 -0.19857769973E+03 -0.33438287401E+02  0.62973148889E+03  0.77273085224E+03  0.40000000000E+03 0. -1.
<mgrwt>
<rscale>  2 0.44769671E+03</rscale>
<asrwt>0</asrwt>
<pdfrwt beam="1">  1       21 0.23738407E+00 0.44782946E+03</pdfrwt>
<pdfrwt beam="2">  1       21 0.20141734E-01 0.44782946E+03</pdfrwt>
<totfact> 0.14967040E+03</totfact>
</mgrwt>
</event>
<event>
 6    1  0.9502611E-004  0.4937257E+03  0.7818608E-02  0.1015442E+00
         21   -1    0    0  503  502  0.00000000000E+00  0.00000000000E+00  0.16566413142E+03  0.16566413142E+03  0.00000000000E+00 0. -1.
         21   -1    0    0  501  503 -0.00000000000E+00 -0.00000000000E+00 -0.15115300176E+04  0.15115300176E+04  0.00000000000E+00 0.  1.
    9000007    2    1    2  501    0 -0.20979668594E+03  0.19937517859E+03 -0.53527677562E+03  0.72807886758E+03  0.39976555584E+03 0.  0.
    9000005    1    3    3    0    0 -0.67400282989E+02  0.28566811430E+03 -0.20440660917E+03  0.35767601477E+03  0.99999687468E+00 0.  0.
          4    1    3    3  501    0 -0.14239640296E+03 -0.86292935707E+02 -0.33087016645E+03  0.37040285281E+03  0.00000000000E+00 0.  1.
   -9000007    1    1    2    0  502  0.20979668594E+03 -0.19937517859E+03 -0.81058911054E+03  0.94911528140E+03  0.40000000000E+03 0. -1.
<mgrwt>
<rscale>  2 0.49367826E+03</rscale>
<asrwt>0</asrwt>
<pdfrwt beam="1">  1       21 0.25486789E-01 0.49372574E+03</pdfrwt>
<pdfrwt beam="2">  1       21 0.23254308E+00 0.49372574E+03</pdfrwt>
<totfact> 0.99809937E+02</totfact>
</mgrwt>
</event>
<event>
 6    1  0.9502611E-004  0.4157628E+03  0.7818608E-02  0.1038491E+00
         21   -1    0    0  503  502  0.00000000000E+00  0.00000000000E+00  0.29660216883E+03  0.29660216883E+03  0.00000000000E+00 0. -1.
         21   -1    0    0  501  503 -0.00000000000E+00 -0.00000000000E+00 -0.84380547558E+03  0.84380547558E+03  0.00000000000E+00 0. -1.
    9000007    2    1    2  501    0 -0.97296610107E+02 -0.54961660809E+02  0.43806483510E+02  0.41806424499E+03  0.40046384411E+03 0.  0.
    9000005    1    3    3    0    0 -0.17321076826E+03 -0.19225268178E+03  0.31871761578E+02  0.26072950173E+03  0.99999687468E+00 0.  0.
          4    1    3    3  501    0  0.75914158157E+02  0.13729102097E+03  0.11934721932E+02  0.15733474325E+03  0.00000000000E+00 0.  1.
   -9000007    1    1    2    0  502  0.97296610107E+02  0.54961660809E+02 -0.59100979026E+03  0.72234339942E+03  0.40000000000E+03 0. -1.
<mgrwt>
<rscale>  2 0.41565106E+03</rscale>
<asrwt>0</asrwt>
<pdfrwt beam="1">  1       21 0.45631103E-01 0.41576280E+03</pdfrwt>
<pdfrwt beam="2">  1       21 0.12981623E+00 0.41576280E+03</pdfrwt>
<totfact> 0.17354756E+03</totfact>
</mgrwt>
</event>
<event>
 6    1  0.9502611E-004  0.4788126E+03  0.7818608E-02  0.1020328E+00
         21   -1    0    0  503  502  0.00000000000E+00  0.00000000000E+00  0.32705196126E+03  0.32705196126E+03  0.00000000000E+00 0.  1.
         21   -1    0    0  501  503 -0.00000000000E+00 -0.00000000000E+00 -0.12994406999E+04  0.12994406999E+04  0.00000000000E+00 0.  1.
    9000007    2    1    2  501    0 -0.22364774750E+03  0.13871988099E+03 -0.10429621805E+04  0.11425069889E+04  0.38508517142E+03 0.  0.
    9000005    1    3    3    0    0 -0.23602105489E+03  0.10346188296E+03 -0.28738742749E+03  0.38600885100E+03  0.99999687468E+00 0.  0.
          4    1    3    3  501    0  0.12373307389E+02  0.35257998024E+02 -0.75557475303E+03  0.75649813785E+03  0.00000000000E+00 0.  1.
   -9000007    1    1    2    0  502  0.22364774750E+03 -0.13871988099E+03  0.70573441834E+02  0.48398567235E+03  0.40000000000E+03 0.  1.
<mgrwt>
<rscale>  2 0.47568516E+03</rscale>
<asrwt>0</asrwt>
<pdfrwt beam="1">  1       21 0.50315687E-01 0.47881262E+03</pdfrwt>
<pdfrwt beam="2">  1       21 0.19991395E+00 0.47881262E+03</pdfrwt>
<totfact> 0.40895909E+02</totfact>
</mgrwt>
</event>
<event>
 6    1  0.9502611E-004  0.5859241E+03  0.7818608E-02  0.9935890E-01
         21   -1    0    0  503  502  0.00000000000E+00  0.00000000000E+00  0.65627331014E+03  0.65627331014E+03  0.00000000000E+00 0.  1.
         21   -1    0    0  501  503 -0.00000000000E+00 -0.00000000000E+00 -0.52847416395E+03  0.52847416395E+03  0.00000000000E+00 0.  1.
    9000007    2    1    2  501    0  0.27239437176E+02  0.42511439974E+03  0.13099736055E+03  0.60038930620E+03  0.40229686889E+03 0.  0.
    9000005    1    3    3    0    0 -0.13481694760E+03  0.31718075616E+03 -0.32452095246E+02  0.34616958261E+03  0.99999687468E+00 0.  0.
          4    1    3    3  501    0  0.16205638478E+03  0.10793364358E+03  0.16344945580E+03  0.25421972359E+03  0.00000000000E+00 0.  1.
   -9000007    1    1    2    0  502 -0.27239437176E+02 -0.42511439974E+03 -0.31982143554E+01  0.58435816789E+03  0.40000000000E+03 0.  1.
<mgrwt>
<rscale>  2 0.58553001E+03</rscale>
<asrwt>0</asrwt>
<pdfrwt beam="1">  1       21 0.10096513E+00 0.58592407E+03</pdfrwt>
<pdfrwt beam="2">  1       21 0.81303717E-01 0.58592407E+03</pdfrwt>
<totfact> 0.85897336E+02</totfact>
</mgrwt>
</event>
<event>
 6    1  0.9502611E-004  0.4282452E+03  0.7818608E-02  0.1034427E+00
         21   -1    0    0  503  502  0.00000000000E+00  0.00000000000E+00  0.22025755938E+03  0.22025755938E+03  0.00000000000E+00 0.  1.
         21   -1    0    0  501  503 -0.00000000000E+00 -0.00000000000E+00 -0.83583447766E+03  0.83583447766E+03  0.00000000000E+00 0.  1.
    9000007    2    1    2  501    0 -0.66042893585E+02  0.13752904390E+03 -0.34185320968E+03  0.54795763518E+03  0.40014753688E+03 0.  0.
    9000005    1    3    3    0    0  0.18002463836E+02 -0.12588981610E+03 -0.29019191084E+02  0.13044327483E+03  0.99999687468E+00 0.  0.
          4    1    3    3  501    0 -0.84045357421E+02  0.26341886000E+03 -0.31283401860E+03  0.41751436035E+03  0.00000000000E+00 0.  1.
   -9000007    1    1    2    0  502  0.66042893585E+02 -0.13752904390E+03 -0.27372370859E+03  0.50813440186E+03  0.40000000000E+03 0.  1.
<mgrwt>
<rscale>  2 0.42821073E+03</rscale>
<asrwt>0</asrwt>
<pdfrwt beam="1">  1       21 0.33885779E-01 0.42824520E+03</pdfrwt>
<pdfrwt beam="2">  1       21 0.12858992E+00 0.42824520E+03</pdfrwt>
<totfact> 0.32601805E+03</totfact>
</mgrwt>
</event>
<event>
 6    1  0.9502611E-004  0.4053249E+03  0.7818608E-02  0.1041999E+00
         21   -1    0    0  503  502  0.00000000000E+00  0.00000000000E+00  0.60701023408E+03  0.60701023408E+03  0.00000000000E+00 0. -1.
         21   -1    0    0  501  503 -0.00000000000E+00 -0.00000000000E+00 -0.29621209982E+03  0.29621209982E+03  0.00000000000E+00 0.  1.
    9000007    2    1    2  501    0  0.18065908633E+02  0.59222445656E+02  0.28912826035E+03  0.49787895039E+03  0.40056787587E+03 0.  0.
    9000005    1    3    3    0    0  0.28748833684E+02 -0.11640179424E+03  0.29849895635E+03  0.32168074247E+03  0.99999687468E+00 0.  0.
          4    1    3    3  501    0 -0.10682925051E+02  0.17562423990E+03 -0.93706959977E+01  0.17619820791E+03  0.00000000000E+00 0.  1.
   -9000007    1    1    2    0  502 -0.18065908633E+02 -0.59222445656E+02  0.21669873897E+02  0.40534338351E+03  0.40000000000E+03 0.  1.
<mgrwt>
<rscale>  2 0.40518456E+03</rscale>
<asrwt>0</asrwt>
<pdfrwt beam="1">  1       21 0.93386189E-01 0.40532493E+03</pdfrwt>
<pdfrwt beam="2">  1       21 0.45571093E-01 0.40532493E+03</pdfrwt>
<totfact> 0.39566359E+03</totfact>
</mgrwt>
</event>
<event>
 6    1  0.9502611E-004  0.4859473E+03  0.7818608E-02  0.1017534E+00
         21   -1    0    0  503  502  0.00000000000E+00  0.00000000000E+00  0.29387151221E+03  0.29387151221E+03  0.00000000000E+00 0. -1.
         21   -1    0    0  501  503 -0.00000000000E+00 -0.00000000000E+00 -0.99552197593E+03  0.99552197593E+03  0.00000000000E+00 0. -1.
    9000007    2    1    2  501    0 -0.16097812868E+03  0.22344500990E+03 -0.63439134304E+03  0.79912272654E+03  0.40037872770E+03 0.  0.
    9000005    1    3    3    0    0 -0.28896401801E+03  0.11656720420E+03 -0.47750841775E+03  0.57017839824E+03  0.99999687468E+00 0.  0.
          4    1    3    3  501    0  0.12798588933E+03  0.10687780569E+03 -0.15688292528E+03  0.22894432830E+03  0.00000000000E+00 0.  1.
   -9000007    1    1    2    0  502  0.16097812868E+03 -0.22344500990E+03 -0.67259120681E+02  0.49027076160E+03  0.40000000000E+03 0. -1.
<mgrwt>
<rscale>  2 0.48586926E+03</rscale>
<asrwt>0</asrwt>
<pdfrwt beam="1">  1       21 0.45211001E-01 0.48594728E+03</pdfrwt>
<pdfrwt beam="2">  1       21 0.15315723E+00 0.48594728E+03</pdfrwt>
<totfact> 0.11069190E+03</totfact>
</mgrwt>
</event>
<event>
 6    1  0.9502611E-004  0.4104721E+03  0.7818608E-02  0.1040298E+00
         21   -1    0    0  503  502  0.00000000000E+00  0.00000000000E+00  0.43416596517E+03  0.43416596517E+03  0.00000000000E+00 0.  1.
         21   -1    0    0  501  503 -0.00000000000E+00 -0.00000000000E+00 -0.48836497914E+03  0.48836497914E+03  0.00000000000E+00 0.  1.
    9000007    2    1    2  501    0  0.25895042795E+02 -0.88412822764E+02 -0.23710028216E+03  0.47315331428E+03  0.39896131961E+03 0.  0.
    9000005    1    3    3    0    0  0.61493423220E+02  0.54728264283E+02 -0.30125699985E+03  0.31230338449E+03  0.99999687468E+00 0.  0.
          4    1    3    3  501    0 -0.35598380425E+02 -0.14314108705E+03  0.64156717686E+02  0.16084992979E+03  0.00000000000E+00 0.  1.
   -9000007    1    1    2    0  502 -0.25895042795E+02  0.88412822764E+02  0.18290126818E+03  0.44937763003E+03  0.40000000000E+03 0.  1.
<mgrwt>
<rscale>  2 0.41021888E+03</rscale>
<asrwt>0</asrwt>
<pdfrwt beam="1">  1       21 0.66794764E-01 0.41047214E+03</pdfrwt>
<pdfrwt beam="2">  1       21 0.75133074E-01 0.41047214E+03</pdfrwt>
<totfact> 0.28708909E+03</totfact>
</mgrwt>
</event>
<event>
 6    1  0.9502611E-004  0.4582027E+03  0.7818608E-02  0.1025312E+00
         21   -1    0    0  503  502  0.00000000000E+00  0.00000000000E+00  0.90220675868E+03  0.90220675868E+03  0.00000000000E+00 0. -1.
         21   -1    0    0  501  503 -0.00000000000E+00 -0.00000000000E+00 -0.36173166124E+03  0.36173166124E+03  0.00000000000E+00 0. -1.
    9000007    2    1    2  501    0  0.53014224606E+01  0.22319943252E+03 -0.10725747040E+03  0.47058883039E+03  0.40012946727E+03 0.  0.
    9000005    1    3    3    0    0 -0.99751489677E+02  0.29063888344E+03 -0.14555103684E+03  0.34001091832E+03  0.99999687468E+00 0.  0.
          4    1    3    3  501    0  0.10505291214E+03 -0.67439450924E+02  0.38293566441E+02  0.13057791207E+03  0.00000000000E+00 0.  1.
   -9000007    1    1    2    0  502 -0.53014224606E+01 -0.22319943252E+03  0.64773256784E+03  0.79334958952E+03  0.40000000000E+03 0. -1.
<mgrwt>
<rscale>  2 0.45817440E+03</rscale>
<asrwt>0</asrwt>
<pdfrwt beam="1">  1       21 0.13880104E+00 0.45820267E+03</pdfrwt>
<pdfrwt beam="2">  1       21 0.55651025E-01 0.45820267E+03</pdfrwt>
<totfact> 0.93773844E+02</totfact>
</mgrwt>
</event>
<event>
 6    1  0.9502611E-004  0.5356587E+03  0.7818608E-02  0.1004896E+00
         21   -1    0    0  503  502  0.00000000000E+00  0.00000000000E+00  0.17461363928E+04  0.17461363928E+04  0.00000000000E+00 0.  1.
         21   -1    0    0  501  503 -0.00000000000E+00 -0.00000000000E+00 -0.57702780071E+03  0.57702780071E+03  0.00000000000E+00 0.  1.
    9000007    2    1    2  501    0 -0.35495916017E+03 -0.21237650544E+02 -0.39790181049E+03  0.66727511359E+03  0.40060352374E+03 0.  0.
    9000005    1    3    3    0    0 -0.33399546695E+02  0.11859461094E+03  0.16629914315E+02  0.12432926247E+03  0.99999687468E+00 0.  0.
          4    1    3    3  501    0 -0.32155961347E+03 -0.13983226148E+03 -0.41453172480E+03  0.54294585111E+03  0.00000000000E+00 0.  1.
   -9000007    1    1    2    0  502  0.35495916017E+03  0.21237650544E+02  0.15670104026E+04  0.16558890799E+04  0.40000000000E+03 0.  1.
<mgrwt>
<rscale>  2 0.53554585E+03</rscale>
<asrwt>0</asrwt>
<pdfrwt beam="1">  1       21 0.26863637E+00 0.53565868E+03</pdfrwt>
<pdfrwt beam="2">  1       21 0.88773509E-01 0.53565868E+03</pdfrwt>
<totfact> 0.40869459E+01</totfact>
</mgrwt>
</event>
<event>
 6    1  0.9502611E-004  0.4300178E+03  0.7818608E-02  0.1033917E+00
         21   -1    0    0  503  502  0.00000000000E+00  0.00000000000E+00  0.21577405197E+03  0.21577405197E+03  0.00000000000E+00 0. -1.
         21   -1    0    0  501  503 -0.00000000000E+00 -0.00000000000E+00 -0.10626868126E+04  0.10626868126E+04  0.00000000000E+00 0. -1.
    9000007    2    1    2  501    0 -0.12255630037E+03  0.99474768476E+02 -0.70546126030E+03  0.82577576070E+03  0.39914250694E+03 0.  0.
    9000005    1    3    3    0    0  0.29651437975E+02 -0.16238276175E+02 -0.61204188222E+03  0.61297565610E+03  0.99999687468E+00 0.  0.
          4    1    3    3  501    0 -0.15220773834E+03  0.11571304465E+03 -0.93419378077E+02  0.21280010459E+03  0.00000000000E+00 0.  1.
   -9000007    1    1    2    0  502  0.12255630037E+03 -0.99474768476E+02 -0.14145150034E+03  0.45268510388E+03  0.40000000000E+03 0. -1.
<mgrwt>
<rscale>  2 0.42981824E+03</rscale>
<asrwt>0</asrwt>
<pdfrwt beam="1">  1       21 0.33196009E-01 0.43001776E+03</pdfrwt>
<pdfrwt beam="2">  1       21 0.16349028E+00 0.43001776E+03</pdfrwt>
<totfact> 0.17815032E+03</totfact>
</mgrwt>
</event>
<event>
 6    1  0.9502611E-004  0.4454205E+03  0.7818608E-02  0.1029099E+00
         21   -1    0    0  503  502  0.00000000000E+00  0.00000000000E+00  0.12770109630E+04  0.12770109630E+04  0.00000000000E+00 0.  1.
         21   -1    0    0  501  503 -0.00000000000E+00 -0.00000000000E+00 -0.18496292312E+03  0.18496292312E+03  0.00000000000E+00 0. -1.
    9000007    2    1    2  501    0  0.77339972959E+02  0.18004974622E+03  0.25351426636E+03  0.51248019375E+03  0.39995885189E+03 0.  0.
    9000005    1    3    3    0    0  0.14380051021E+03 -0.86538044117E+02  0.68663693183E+02  0.18133704137E+03  0.99999687468E+00 0.  0.
          4    1    3    3  501    0 -0.66460537250E+02  0.26658779033E+03  0.18485057317E+03  0.33114315238E+03  0.00000000000E+00 0.  1.
   -9000007    1    1    2    0  502 -0.77339972959E+02 -0.18004974622E+03  0.83853377351E+03  0.94949369236E+03  0.40000000000E+03 0.  1.
<mgrwt>
<rscale>  2 0.44541122E+03</rscale>
<asrwt>0</asrwt>
<pdfrwt beam="1">  1       21 0.19646322E+00 0.44542046E+03</pdfrwt>
<pdfrwt beam="2">  1       21 0.28455835E-01 0.44542046E+03</pdfrwt>
<totfact> 0.14078239E+03</totfact>
</mgrwt>
</event>
<event>
 6    1  0.9502611E-004  0.4088399E+03  0.7818608E-02  0.1040867E+00
         21   -1    0    0  503  502  0.00000000000E+00  0.00000000000E+00  0.14078265060E+04  0.14078265060E+04  0.00000000000E+00 0.  1.
         21   -1    0    0  501  503 -0.00000000000E+00 -0.00000000000E+00 -0.13295045519E+03  0.13295045519E+03  0.00000000000E+00 0.  1.
    9000007    2    1    2  501    0  0.72391978987E+02  0.29765799165E+02  0.38314594017E+03  0.56031319764E+03  0.40127729386E+03 0.  0.
    9000005    1    3    3    0    0  0.10173456865E+03 -0.10565687274E+01  0.46072654603E+03  0.47182728726E+03  0.99999687468E+00 0.  0.
          4    1    3    3  501    0 -0.29342589665E+02  0.30822367892E+02 -0.77580605859E+02  0.88485910382E+02  0.00000000000E+00 0.  1.
   -9000007    1    1    2    0  502 -0.72391978987E+02 -0.29765799165E+02  0.89173011065E+03  0.98046376356E+03  0.40000000000E+03 0.  1.
<mgrwt>
<rscale>  2 0.40852615E+03</rscale>
<asrwt>0</asrwt>
<pdfrwt beam="1">  1       21 0.21658868E+00 0.40883991E+03</pdfrwt>
<pdfrwt beam="2">  1       21 0.20453917E-01 0.40883991E+03</pdfrwt>
<totfact> 0.20030454E+03</totfact>
</mgrwt>
</event>
<event>
 6    1  0.9502611E-004  0.5126361E+03  0.7818608E-02  0.1010536E+00
         21   -1    0    0  503  502  0.00000000000E+00  0.00000000000E+00  0.36766858800E+03  0.36766858800E+03  0.00000000000E+00 0. -1.
         21   -1    0    0  501  503 -0.00000000000E+00 -0.00000000000E+00 -0.12555471530E+04  0.12555471530E+04  0.00000000000E+00 0.  1.
    9000007    2    1    2  501    0 -0.30597271018E+03 -0.95457416650E+02 -0.97664776434E+03  0.11030125225E+04  0.40008043129E+03 0.  0.
    9000005    1    3    3    0    0  0.43047871167E+02 -0.14887769791E+03 -0.23351817254E+03  0.28026670342E+03  0.99999687468E+00 0.  0.
          4    1    3    3  501    0 -0.34902058135E+03  0.53420281260E+02 -0.74312959180E+03  0.82274581911E+03  0.00000000000E+00 0.  1.
   -9000007    1    1    2    0  502  0.30597271018E+03  0.95457416650E+02  0.88769199322E+02  0.52020321848E+03  0.40000000000E+03 0. -1.
<mgrwt>
<rscale>  2 0.51262041E+03</rscale>
<asrwt>0</asrwt>
<pdfrwt beam="1">  1       21 0.56564399E-01 0.51263610E+03</pdfrwt>
<pdfrwt beam="2">  1       21 0.19316110E+00 0.51263610E+03</pdfrwt>
<totfact> 0.34770143E+02</totfact>
</mgrwt>
</event>
<event>
 6    1  0.9502611E-004  0.4033034E+03  0.7818608E-02  0.1042711E+00
         21   -1    0    0  503  502  0.00000000000E+00  0.00000000000E+00  0.12582474616E+04  0.12582474616E+04  0.00000000000E+00 0. -1.
         21   -1    0    0  501  503 -0.00000000000E+00 -0.00000000000E+00 -0.13519533828E+03  0.13519533828E+03  0.00000000000E+00 0. -1.
    9000007    2    1    2  501    0  0.43142428897E+02  0.11750418237E+02  0.41303888745E+03  0.57728219275E+03  0.40081699818E+03 0.  0.
    9000005    1    3    3    0    0  0.29989594197E+02  0.20567014640E+03  0.23460543113E+03  0.31343307609E+03  0.99999687468E+00 0.  0.
          4    1    3    3  501    0  0.13152834699E+02 -0.19391972816E+03  0.17843345632E+03  0.26384911666E+03  0.00000000000E+00 0.  1.
   -9000007    1    1    2    0  502 -0.43142428897E+02 -0.11750418237E+02  0.71001323583E+03  0.81616060708E+03  0.40000000000E+03 0. -1.
<mgrwt>
<rscale>  2 0.40310023E+03</rscale>
<asrwt>0</asrwt>
<pdfrwt beam="1">  1       21 0.19357652E+00 0.40330337E+03</pdfrwt>
<pdfrwt beam="2">  1       21 0.20799284E-01 0.40330337E+03</pdfrwt>
<totfact> 0.27552159E+03</totfact>
</mgrwt>
</event>
<event>
 6    1  0.9502611E-004  0.5427859E+03  0.7818608E-02  0.1003184E+00
         21   -1    0    0  503  502  0.00000000000E+00  0.00000000000E+00  0.54564479775E+03  0.54564479775E+03  0.00000000000E+00 0. -1.
         21   -1    0    0  501  503 -0.00000000000E+00 -0.00000000000E+00 -0.77809238681E+03  0.77809238681E+03  0.00000000000E+00 0. -1.
    9000007    2    1    2  501    0  0.14793164574E+03  0.33557890747E+03 -0.48248541066E+03  0.72622912003E+03  0.40014945749E+03 0.  0.
    9000005    1    3    3    0    0  0.12134168842E+03  0.37797385405E+03 -0.20982873017E+03  0.44901796812E+03  0.99999687468E+00 0.  0.
          4    1    3    3  501    0  0.26589957320E+02 -0.42394946586E+02 -0.27265668049E+03  0.27721115191E+03  0.00000000000E+00 0.  1.
   -9000007    1    1    2    0  502 -0.14793164574E+03 -0.33557890747E+03  0.25003782160E+03  0.59750806453E+03  0.40000000000E+03 0. -1.
<mgrwt>
<rscale>  2 0.54275838E+03</rscale>
<asrwt>0</asrwt>
<pdfrwt beam="1">  1       21 0.83945354E-01 0.54278593E+03</pdfrwt>
<pdfrwt beam="2">  1       21 0.11970652E+00 0.54278593E+03</pdfrwt>
<totfact> 0.52868864E+02</totfact>
</mgrwt>
</event>
<event>
 6    1  0.9502611E-004  0.5020950E+03  0.7818608E-02  0.1013241E+00
         21   -1    0    0  503  502  0.00000000000E+00  0.00000000000E+00  0.37195879204E+03  0.37195879204E+03  0.00000000000E+00 0.  1.
         21   -1    0    0  501  503 -0.00000000000E+00 -0.00000000000E+00 -0.71596979886E+03  0.71596979886E+03  0.00000000000E+00 0.  1.
    9000007    2    1    2  501    0  0.20787500061E+03 -0.22110489551E+03 -0.46071304362E+02  0.50409003702E+03  0.39985598613E+03 0.  0.
    9000005    1    3    3    0    0  0.10987015358E+03  0.89084850859E+02 -0.10149687863E+03  0.17409818398E+03  0.99999687468E+00 0.  0.
          4    1    3    3  501    0  0.98004847031E+02 -0.31018974636E+03  0.55425574270E+02  0.32999185304E+03  0.00000000000E+00 0.  1.
   -9000007    1    1    2    0  502 -0.20787500061E+03  0.22110489551E+03 -0.29793970245E+03  0.58383855388E+03  0.40000000000E+03 0.  1.
<mgrwt>
<rscale>  2 0.50206632E+03</rscale>
<asrwt>0</asrwt>
<pdfrwt beam="1">  1       21 0.57224431E-01 0.50209500E+03</pdfrwt>
<pdfrwt beam="2">  1       21 0.11014920E+00 0.50209500E+03</pdfrwt>
<totfact> 0.15705181E+03</totfact>
</mgrwt>
</event>
<event>
 6    1  0.9502611E-004  0.5548907E+03  0.7818608E-02  0.1000382E+00
         21   -1    0    0  503  502  0.00000000000E+00  0.00000000000E+00  0.21307684044E+04  0.21307684044E+04  0.00000000000E+00 0. -1.
         21   -1    0    0  501  503 -0.00000000000E+00 -0.00000000000E+00 -0.21485418656E+03  0.21485418656E+03  0.00000000000E+00 0.  1.
    9000007    2    1    2  501    0  0.17251899973E+03  0.34371628347E+03  0.28640444538E+03  0.62422612665E+03  0.39965868196E+03 0.  0.
    9000005    1    3    3    0    0  0.83151426305E+02  0.17759242296E+03  0.36933445926E+03  0.41816524387E+03  0.99999687468E+00 0.  0.
          4    1    3    3  501    0  0.89367573425E+02  0.16612386051E+03 -0.82930013875E+02  0.20606088278E+03  0.00000000000E+00 0.  1.
   -9000007    1    1    2    0  502 -0.17251899973E+03 -0.34371628347E+03  0.16295097725E+04  0.17213964643E+04  0.40000000000E+03 0. -1.
<mgrwt>
<rscale>  2 0.55482919E+03</rscale>
<asrwt>0</asrwt>
<pdfrwt beam="1">  1       21 0.32781051E+00 0.55489070E+03</pdfrwt>
<pdfrwt beam="2">  1       21 0.33054492E-01 0.55489070E+03</pdfrwt>
<totfact> 0.15133685E+02</totfact>
</mgrwt>
</event>
<event>
 6    1  0.9502611E-004  0.4939421E+03  0.7818608E-02  0.1015415E+00
         21   -1    0    0  503  502  0.00000000000E+00  0.00000000000E+00  0.24039734160E+03  0.24039734160E+03  0.00000000000E+00 0.  1.
         21   -1    0    0  501  503 -0.00000000000E+00 -0.00000000000E+00 -0.10779985639E+04  0.10779985639E+04  0.00000000000E+00 0. -1.
    9000007    2    1    2  501    0  0.23555361543E+03 -0.16690704262E+03 -0.25790928749E+03  0.55722167714E+03  0.40079337605E+03 0.  0.
    9000005    1    3    3    0    0 -0.60020235038E+02  0.83054713358E+02 -0.85518190989E+02  0.13347237545E+03  0.99999687468E+00 0.  0.
          4    1    3    3  501    0  0.29557385047E+03 -0.24996175598E+03 -0.17239109650E+03  0.42374930169E+03  0.00000000000E+00 0.  1.
   -9000007    1    1    2    0  502 -0.23555361543E+03  0.16690704262E+03 -0.57969193479E+03  0.76117422834E+03  0.40000000000E+03 0. -1.
<mgrwt>
<rscale>  2 0.49378113E+03</rscale>
<asrwt>0</asrwt>
<pdfrwt beam="1">  1       21 0.36984206E-01 0.49394210E+03</pdfrwt>
<pdfrwt beam="2">  1       21 0.16584593E+00 0.49394210E+03</pdfrwt>
<totfact> 0.13394603E+03</totfact>
</mgrwt>
</event>
<event>
 6    1  0.9502611E-004  0.4320440E+03  0.7818608E-02  0.1033241E+00
         21   -1    0    0  503  502  0.00000000000E+00  0.00000000000E+00  0.31226258020E+04  0.31226258020E+04  0.00000000000E+00 0. -1.
         21   -1    0    0  501  503 -0.00000000000E+00 -0.00000000000E+00 -0.62623690110E+02  0.62623690110E+02  0.00000000000E+00 0. -1.
    9000007    2    1    2  501    0 -0.30431823833E+02  0.16042414506E+03  0.18715941723E+04  0.19207434885E+04  0.39966085711E+03 0.  0.
    9000005    1    3    3    0    0  0.17660117368E+03  0.13048842232E+03  0.10704484637E+04  0.10927378992E+04  0.99999687468E+00 0.  0.
          4    1    3    3  501    0 -0.20703299751E+03  0.29935722739E+02  0.80114570860E+03  0.82800558933E+03  0.00000000000E+00 0.  1.
   -9000007    1    1    2    0  502  0.30431823833E+02 -0.16042414506E+03  0.11884079396E+04  0.12645060036E+04  0.40000000000E+03 0. -1.
<mgrwt>
<rscale>  2 0.43196547E+03</rscale>
<asrwt>0</asrwt>
<pdfrwt beam="1">  1       21 0.48040385E+00 0.43204398E+03</pdfrwt>
<pdfrwt beam="2">  1       21 0.96344163E-02 0.43204398E+03</pdfrwt>
<totfact> 0.17211209E+02</totfact>
</mgrwt>
</event>
<event>
 6    1  0.9502611E-004  0.4223692E+03  0.7818608E-02  0.1036311E+00
         21   -1    0    0  503  502  0.00000000000E+00  0.00000000000E+00  0.10879701878E+04  0.10879701878E+04  0.00000000000E+00 0.  1.
         21   -1    0    0  501  503 -0.00000000000E+00 -0.00000000000E+00 -0.37688976311E+03  0.37688976311E+03  0.00000000000E+00 0.  1.
    9000007    2    1    2  501    0  0.78243162918E+02 -0.11078693011E+03 -0.19507778439E+03  0.46510076175E+03  0.39983451601E+03 0.  0.
    9000005    1    3    3    0    0  0.15704366997E+03 -0.70012552401E+02  0.69939393813E+02  0.18562594262E+03  0.99999687468E+00 0.  0.
          4    1    3    3  501    0 -0.78800507051E+02 -0.40774377709E+02 -0.26501717820E+03  0.27947481913E+03  0.00000000000E+00 0.  1.
   -9000007    1    1    2    0  502 -0.78243162918E+02  0.11078693011E+03  0.90615820912E+03  0.99975918920E+03  0.40000000000E+03 0.  1.
<mgrwt>
<rscale>  2 0.42233001E+03</rscale>
<asrwt>0</asrwt>
<pdfrwt beam="1">  1       21 0.16738003E+00 0.42236919E+03</pdfrwt>
<pdfrwt beam="2">  1       21 0.57983041E-01 0.42236919E+03</pdfrwt>
<totfact> 0.52258577E+02</totfact>
</mgrwt>
</event>
<event>
 6    1  0.9502611E-004  0.5854351E+03  0.7818608E-02  0.9936435E-01
         21   -1    0    0  503  502  0.00000000000E+00  0.00000000000E+00  0.62393378434E+03  0.62393378434E+03  0.00000000000E+00 0.  1.
         21   -1    0    0  501  503 -0.00000000000E+00 -0.00000000000E+00 -0.55615529848E+03  0.55615529848E+03  0.00000000000E+00 0.  1.
    9000007    2    1    2  501    0 -0.41305693292E+03  0.11008286061E+03  0.10213289648E+03  0.59364685075E+03  0.39906288831E+03 0.  0.
    9000005    1    3    3    0    0 -0.29394691199E+03  0.24029646462E+03 -0.18114005741E+02  0.38010037513E+03  0.99999687468E+00 0.  0.
          4    1    3    3  501    0 -0.11911002094E+03 -0.13021360401E+03  0.12024690222E+03  0.21354647562E+03  0.00000000000E+00 0.  1.
   -9000007    1    1    2    0  502  0.41305693292E+03 -0.11008286061E+03 -0.34354410622E+02  0.58644223208E+03  0.40000000000E+03 0.  1.
<mgrwt>
<rscale>  2 0.58527507E+03</rscale>
<asrwt>0</asrwt>
<pdfrwt beam="1">  1       21 0.95989813E-01 0.58543511E+03</pdfrwt>
<pdfrwt beam="2">  1       21 0.85562353E-01 0.58543511E+03</pdfrwt>
<totfact> 0.86196492E+02</totfact>
</mgrwt>
</event>
<event>
 6    1  0.9502611E-004  0.4858932E+03  0.7818608E-02  0.1017535E+00
         21   -1    0    0  503  502  0.00000000000E+00  0.00000000000E+00  0.68879881313E+03  0.68879881313E+03  0.00000000000E+00 0.  1.
         21   -1    0    0  501  503 -0.00000000000E+00 -0.00000000000E+00 -0.35013960551E+03  0.35013960551E+03  0.00000000000E+00 0. -1.
    9000007    2    1    2  501    0  0.26098154844E+03  0.89335689358E+02  0.93525445251E+02  0.49471163184E+03  0.39987542528E+03 0.  0.
    9000005    1    3    3    0    0  0.47814518643E+02  0.87217775993E+02 -0.14434258392E+03  0.17529674888E+03  0.99999687468E+00 0.  0.
          4    1    3    3  501    0  0.21316702980E+03  0.21179133656E+01  0.23786802917E+03  0.31941488295E+03  0.00000000000E+00 0.  1.
   -9000007    1    1    2    0  502 -0.26098154844E+03 -0.89335689358E+02  0.24513376237E+03  0.54422678680E+03  0.40000000000E+03 0.  1.
<mgrwt>
<rscale>  2 0.48586759E+03</rscale>
<asrwt>0</asrwt>
<pdfrwt beam="1">  1       21 0.10596905E+00 0.48589323E+03</pdfrwt>
<pdfrwt beam="2">  1       21 0.53867632E-01 0.48589323E+03</pdfrwt>
<totfact> 0.19817403E+03</totfact>
</mgrwt>
</event>
<event>
 6    1  0.9502611E-004  0.4797829E+03  0.7818608E-02  0.1019230E+00
         21   -1    0    0  503  502  0.00000000000E+00  0.00000000000E+00  0.63350557612E+03  0.63350557612E+03  0.00000000000E+00 0.  1.
         21   -1    0    0  501  503 -0.00000000000E+00 -0.00000000000E+00 -0.91327992978E+03  0.91327992978E+03  0.00000000000E+00 0.  1.
    9000007    2    1    2  501    0 -0.26028514851E+03  0.44201354123E+02 -0.74026018521E+03  0.88214325679E+03  0.40061136462E+03 0.  0.
    9000005    1    3    3    0    0 -0.63364586532E+02 -0.15473772321E+03 -0.13364107743E+03  0.21405553340E+03  0.99999687468E+00 0.  0.
          4    1    3    3  501    0 -0.19692056198E+03  0.19893907733E+03 -0.60661910778E+03  0.66808772339E+03  0.00000000000E+00 0.  1.
   -9000007    1    1    2    0  502  0.26028514851E+03 -0.44201354123E+02  0.46048583155E+03  0.66464224911E+03  0.40000000000E+03 0.  1.
<mgrwt>
<rscale>  2 0.47965521E+03</rscale>
<asrwt>0</asrwt>
<pdfrwt beam="1">  1       21 0.97462396E-01 0.47978285E+03</pdfrwt>
<pdfrwt beam="2">  1       21 0.14050460E+00 0.47978285E+03</pdfrwt>
<totfact> 0.25050806E+02</totfact>
</mgrwt>
</event>
<event>
 6    1  0.9502611E-004  0.4103484E+03  0.7818608E-02  0.1040296E+00
         21   -1    0    0  503  502  0.00000000000E+00  0.00000000000E+00  0.40562141949E+03  0.40562141949E+03  0.00000000000E+00 0. -1.
         21   -1    0    0  501  503 -0.00000000000E+00 -0.00000000000E+00 -0.52023549701E+03  0.52023549701E+03  0.00000000000E+00 0. -1.
    9000007    2    1    2  501    0  0.87526965462E+02 -0.17683609112E+02  0.15124509281E+03  0.43733385854E+03  0.40051485117E+03 0.  0.
    9000005    1    3    3    0    0  0.58243803034E+02 -0.20806873431E+03  0.99513870156E+02  0.23788431881E+03  0.99999687468E+00 0.  0.
          4    1    3    3  501    0  0.29283162427E+02  0.19038512520E+03  0.51731222652E+02  0.19944953972E+03  0.00000000000E+00 0.  1.
   -9000007    1    1    2    0  502 -0.87526965462E+02  0.17683609112E+02 -0.26585917033E+03  0.48852305797E+03  0.40000000000E+03 0. -1.
<mgrwt>
<rscale>  2 0.41022274E+03</rscale>
<asrwt>0</asrwt>
<pdfrwt beam="1">  1       21 0.62403296E-01 0.41034842E+03</pdfrwt>
<pdfrwt beam="2">  1       21 0.80036230E-01 0.41034842E+03</pdfrwt>
<totfact> 0.28877308E+03</totfact>
</mgrwt>
</event>
<event>
 6    1  0.9502611E-004  0.4269183E+03  0.7818608E-02  0.1034913E+00
         21   -1    0    0  503  502  0.00000000000E+00  0.00000000000E+00  0.57121156666E+03  0.57121156666E+03  0.00000000000E+00 0.  1.
         21   -1    0    0  501  503 -0.00000000000E+00 -0.00000000000E+00 -0.39835293871E+03  0.39835293871E+03  0.00000000000E+00 0.  1.
    9000007    2    1    2  501    0 -0.13338628126E+03 -0.60507857243E+02 -0.13072146023E+03  0.44648327768E+03  0.40100637933E+03 0.  0.
    9000005    1    3    3    0    0 -0.35854214144E+02 -0.94466478969E+02 -0.26120877355E+03  0.28007224727E+03  0.99999687468E+00 0.  0.
          4    1    3    3  501    0 -0.97532067116E+02  0.33958621727E+02  0.13048731331E+03  0.16641103041E+03  0.00000000000E+00 0.  1.
   -9000007    1    1    2    0  502  0.13338628126E+03  0.60507857243E+02  0.30358008818E+03  0.52308122769E+03  0.40000000000E+03 0.  1.
<mgrwt>
<rscale>  2 0.42668179E+03</rscale>
<asrwt>0</asrwt>
<pdfrwt beam="1">  1       21 0.87878703E-01 0.42691828E+03</pdfrwt>
<pdfrwt beam="2">  1       21 0.61285067E-01 0.42691828E+03</pdfrwt>
<totfact> 0.24015587E+03</totfact>
</mgrwt>
</event>
<event>
 6    1  0.9502611E-004  0.4774028E+03  0.7818608E-02  0.1019999E+00
         21   -1    0    0  503  502  0.00000000000E+00  0.00000000000E+00  0.19923384134E+03  0.19923384134E+03  0.00000000000E+00 0. -1.
         21   -1    0    0  501  503 -0.00000000000E+00 -0.00000000000E+00 -0.11750080172E+04  0.11750080172E+04  0.00000000000E+00 0.  1.
    9000007    2    1    2  501    0  0.12647913683E+03  0.22336897125E+03 -0.60944725553E+03  0.77417012790E+03  0.40252050915E+03 0.  0.
    9000005    1    3    3    0    0  0.27311166785E+03  0.13733759374E+03 -0.35978014348E+03  0.47211688109E+03  0.99999687468E+00 0.  0.
          4    1    3    3  501    0 -0.14663253102E+03  0.86031377516E+02 -0.24966711204E+03  0.30205324681E+03  0.00000000000E+00 0.  1.
   -9000007    1    1    2    0  502 -0.12647913683E+03 -0.22336897125E+03 -0.36632692035E+03  0.60007173067E+03  0.40000000000E+03 0. -1.
<mgrwt>
<rscale>  2 0.47687110E+03</rscale>
<asrwt>0</asrwt>
<pdfrwt beam="1">  1       21 0.30651360E-01 0.47740280E+03</pdfrwt>
<pdfrwt beam="2">  1       21 0.18077047E+00 0.47740280E+03</pdfrwt>
<totfact> 0.15365432E+03</totfact>
</mgrwt>
</event>
<event>
 6    1  0.9502611E-004  0.4307499E+03  0.7818608E-02  0.1033667E+00
         21   -1    0    0  503  502  0.00000000000E+00  0.00000000000E+00  0.60531513306E+03  0.60531513306E+03  0.00000000000E+00 0.  1.
         21   -1    0    0  501  503 -0.00000000000E+00 -0.00000000000E+00 -0.32241116882E+03  0.32241116882E+03  0.00000000000E+00 0.  1.
    9000007    2    1    2  501    0 -0.55751820056E+02  0.14979061435E+03  0.24558069865E+03  0.49536242765E+03  0.39941026725E+03 0.  0.
    9000005    1    3    3    0    0 -0.89318599789E+02 -0.54790290045E+02  0.26711161833E+03  0.28693101051E+03  0.99999687468E+00 0.  0.
          4    1    3    3  501    0  0.33566779733E+02  0.20458090440E+03 -0.21530919684E+02  0.20843141713E+03  0.00000000000E+00 0.  1.
   -9000007    1    1    2    0  502  0.55751820056E+02 -0.14979061435E+03  0.37323265596E+02  0.43236387423E+03  0.40000000000E+03 0.  1.
<mgrwt>
<rscale>  2 0.43061296E+03</rscale>
<asrwt>0</asrwt>
<pdfrwt beam="1">  1       21 0.93125405E-01 0.43074992E+03</pdfrwt>
<pdfrwt beam="2">  1       21 0.49601718E-01 0.43074992E+03</pdfrwt>
<totfact> 0.32998618E+03</totfact>
</mgrwt>
</event>
<event>
 6    1  0.9502611E-004  0.4578750E+03  0.7818608E-02  0.1025453E+00
         21   -1    0    0  503  502  0.00000000000E+00  0.00000000000E+00  0.50931062521E+03  0.50931062521E+03  0.00000000000E+00 0. -1.
         21   -1    0    0  501  503 -0.00000000000E+00 -0.00000000000E+00 -0.41200463523E+03  0.41200463523E+03  0.00000000000E+00 0. -1.
    9000007    2    1    2  501    0  0.20032160854E+03 -0.94060537102E+02  0.25636460578E+02  0.45859217593E+03  0.40084089640E+03 0.  0.
    9000005    1    3    3    0    0  0.18489616219E+03  0.66825905427E+02  0.15597523335E+03  0.25096128355E+03  0.99999687468E+00 0.  0.
          4    1    3    3  501    0  0.15425446350E+02 -0.16088644253E+03 -0.13033877277E+03  0.20763089239E+03  0.00000000000E+00 0.  1.
   -9000007    1    1    2    0  502 -0.20032160854E+03  0.94060537102E+02  0.71669529405E+02  0.46272308450E+03  0.40000000000E+03 0. -1.
<mgrwt>
<rscale>  2 0.45769094E+03</rscale>
<asrwt>0</asrwt>
<pdfrwt beam="1">  1       21 0.78355481E-01 0.45787504E+03</pdfrwt>
<pdfrwt beam="2">  1       21 0.63385328E-01 0.45787504E+03</pdfrwt>
<totfact> 0.28787667E+03</totfact>
</mgrwt>
</event>
<event>
 6    1  0.9502611E-004  0.4474986E+03  0.7818608E-02  0.1028547E+00
         21   -1    0    0  503  502  0.00000000000E+00  0.00000000000E+00  0.16656968633E+03  0.16656968633E+03  0.00000000000E+00 0. -1.
         21   -1    0    0  501  503 -0.00000000000E+00 -0.00000000000E+00 -0.18069053627E+04  0.18069053627E+04  0.00000000000E+00 0. -1.
    9000007    2    1    2  501    0  0.18533449620E+03 -0.70723809463E+02 -0.13928789265E+04  0.14629992163E+04  0.40112874539E+03 0.  0.
    9000005    1    3    3    0    0 -0.58520645338E+02  0.12047548008E+03 -0.51100565797E+03  0.52826772540E+03  0.99999687468E+00 0.  0.
          4    1    3    3  501    0  0.24385514154E+03 -0.19119928954E+03 -0.88187326853E+03  0.93473149092E+03  0.00000000000E+00 0.  1.
   -9000007    1    1    2    0  502 -0.18533449620E+03  0.70723809463E+02 -0.24745674984E+03  0.51047583268E+03  0.40000000000E+03 0. -1.
<mgrwt>
<rscale>  2 0.44724552E+03</rscale>
<asrwt>0</asrwt>
<pdfrwt beam="1">  1       21 0.25626105E-01 0.44749861E+03</pdfrwt>
<pdfrwt beam="2">  1       21 0.27798545E+00 0.44749861E+03</pdfrwt>
<totfact> 0.53164440E+02</totfact>
</mgrwt>
</event>
<event>
 6    1  0.9502611E-004  0.4147842E+03  0.7818608E-02  0.1038988E+00
         21   -1    0    0  503  502  0.00000000000E+00  0.00000000000E+00  0.92815772706E+03  0.92815772706E+03  0.00000000000E+00 0. -1.
         21   -1    0    0  501  503 -0.00000000000E+00 -0.00000000000E+00 -0.23525266041E+03  0.23525266041E+03  0.00000000000E+00 0. -1.
    9000007    2    1    2  501    0 -0.81800057068E+02 -0.57080706413E+02  0.76384587870E+02  0.42175888094E+03  0.40261208627E+03 0.  0.
    9000005    1    3    3    0    0  0.50763499093E+02 -0.77681514349E+02 -0.13952236021E+03  0.16756741779E+03  0.99999687468E+00 0.  0.
          4    1    3    3  501    0 -0.13256355616E+03  0.20600807936E+02  0.21590694808E+03  0.25419146315E+03  0.00000000000E+00 0.  1.
   -9000007    1    1    2    0  502  0.81800057068E+02  0.57080706413E+02  0.61652047878E+03  0.74165150653E+03  0.40000000000E+03 0. -1.
<mgrwt>
<rscale>  2 0.41414902E+03</rscale>
<asrwt>0</asrwt>
<pdfrwt beam="1">  1       21 0.14279349E+00 0.41478422E+03</pdfrwt>
<pdfrwt beam="2">  1       21 0.36192717E-01 0.41478422E+03</pdfrwt>
<totfact> 0.21796639E+03</totfact>
</mgrwt>
</event>
<event>
 6    1  0.9502611E-004  0.8081820E+03  0.7818608E-02  0.9549117E-01
         21   -1    0    0  503  502  0.00000000000E+00  0.00000000000E+00  0.19850690437E+04  0.19850690437E+04  0.00000000000E+00 0.  1.
         21   -1    0    0  501  503 -0.00000000000E+00 -0.00000000000E+00 -0.75116516641E+03  0.75116516641E+03  0.00000000000E+00 0. -1.
    9000007    2    1    2  501    0  0.45303379310E+03 -0.53658038132E+03 -0.41025202144E+03  0.90418433561E+03  0.39507526922E+03 0.  0.
    9000005    1    3    3    0    0  0.19363142976E+03 -0.21557694185E+03 -0.39668176136E+03  0.49124735952E+03  0.99999687468E+00 0.  0.
          4    1    3    3  501    0  0.25940236334E+03 -0.32100343947E+03 -0.13570260082E+02  0.41293697609E+03  0.00000000000E+00 0.  1.
   -9000007    1    1    2    0  502 -0.45303379310E+03  0.53658038132E+03  0.16441558988E+04  0.18320498745E+04  0.40000000000E+03 0.  1.
<mgrwt>
<rscale>  2 0.80757478E+03</rscale>
<asrwt>0</asrwt>
<pdfrwt beam="1">  1       21 0.30539524E+00 0.80818199E+03</pdfrwt>
<pdfrwt beam="2">  1       21 0.11556387E+00 0.80818199E+03</pdfrwt>
<totfact> 0.11207123E+01</totfact>
</mgrwt>
</event>
<event>
 6    1  0.9502611E-004  0.4091833E+03  0.7818608E-02  0.1040832E+00
         21   -1    0    0  503  502  0.00000000000E+00  0.00000000000E+00  0.19690696238E+04  0.19690696238E+04  0.00000000000E+00 0.  1.
         21   -1    0    0  501  503 -0.00000000000E+00 -0.00000000000E+00 -0.96157159451E+02  0.96157159451E+02  0.00000000000E+00 0.  1.
    9000007    2    1    2  501    0 -0.43283155244E+02  0.61255234356E+02  0.58025659618E+03  0.71002022011E+03  0.40225037016E+03 0.  0.
    9000005    1    3    3    0    0 -0.86564689024E+02 -0.12981553716E+03  0.44603635437E+03  0.47254094900E+03  0.99999687468E+00 0.  0.
          4    1    3    3  501    0  0.43281533780E+02  0.19107077152E+03  0.13422024181E+03  0.23747927111E+03  0.00000000000E+00 0.  1.
   -9000007    1    1    2    0  502  0.43283155244E+02 -0.61255234356E+02  0.12926558681E+04  0.13552065631E+04  0.40000000000E+03 0.  1.
<mgrwt>
<rscale>  2 0.40862919E+03</rscale>
<asrwt>0</asrwt>
<pdfrwt beam="1">  1       21 0.30293376E+00 0.40918333E+03</pdfrwt>
<pdfrwt beam="2">  1       21 0.14793411E-01 0.40918333E+03</pdfrwt>
<totfact> 0.10915626E+03</totfact>
</mgrwt>
</event>
<event>
 6    1  0.9502611E-004  0.4307695E+03  0.7818608E-02  0.1033622E+00
         21   -1    0    0  503  502  0.00000000000E+00  0.00000000000E+00  0.80217750909E+03  0.80217750909E+03  0.00000000000E+00 0.  1.
         21   -1    0    0  501  503 -0.00000000000E+00 -0.00000000000E+00 -0.57246373913E+03  0.57246373913E+03  0.00000000000E+00 0. -1.
    9000007    2    1    2  501    0  0.70424309997E+02  0.14334114307E+03 -0.41574816007E+03  0.59867258270E+03  0.40007007130E+03 0.  0.
    9000005    1    3    3    0    0 -0.85281424427E+02  0.10233618432E+03 -0.41688658284E+03  0.43765401737E+03  0.99999687468E+00 0.  0.
          4    1    3    3  501    0  0.15570573442E+03  0.41004958757E+02  0.11384227777E+01  0.16101856533E+03  0.00000000000E+00 0.  1.
   -9000007    1    1    2    0  502 -0.70424309997E+02 -0.14334114307E+03  0.64546193003E+03  0.77596866551E+03  0.40000000000E+03 0.  1.
<mgrwt>
<rscale>  2 0.43075319E+03</rscale>
<asrwt>0</asrwt>
<pdfrwt beam="1">  1       21 0.12341192E+00 0.43076946E+03</pdfrwt>
<pdfrwt beam="2">  1       21 0.88071345E-01 0.43076946E+03</pdfrwt>
<totfact> 0.45787845E+02</totfact>
</mgrwt>
</event>
<event>
 6    1  0.9502611E-004  0.4009687E+03  0.7818608E-02  0.1043516E+00
         21   -1    0    0  503  502  0.00000000000E+00  0.00000000000E+00  0.32060984622E+03  0.32060984622E+03  0.00000000000E+00 0. -1.
         21   -1    0    0  501  503 -0.00000000000E+00 -0.00000000000E+00 -0.93525237644E+03  0.93525237644E+03  0.00000000000E+00 0. -1.
    9000007    2    1    2  501    0  0.63726184010E+01 -0.27116734698E+02 -0.73530620590E+03  0.83713122285E+03  0.39917106643E+03 0.  0.
    9000005    1    3    3    0    0  0.81839342896E+02  0.22128432821E+02 -0.74194563891E+03  0.74677418051E+03  0.99999687468E+00 0.  0.
          4    1    3    3  501    0 -0.75466724495E+02 -0.49245167519E+02  0.66394330098E+01  0.90357042342E+02  0.00000000000E+00 0.  1.
   -9000007    1    1    2    0  502 -0.63726184010E+01  0.27116734698E+02  0.12066367569E+03  0.41873099980E+03  0.40000000000E+03 0. -1.
<mgrwt>
<rscale>  2 0.40076184E+03</rscale>
<asrwt>0</asrwt>
<pdfrwt beam="1">  1       21 0.49324592E-01 0.40096874E+03</pdfrwt>
<pdfrwt beam="2">  1       21 0.14388498E+00 0.40096874E+03</pdfrwt>
<totfact> 0.11315957E+03</totfact>
</mgrwt>
</event>
<event>
 6    1  0.9502611E-004  0.4095259E+03  0.7818608E-02  0.1040533E+00
         21   -1    0    0  503  502  0.00000000000E+00  0.00000000000E+00  0.10461326971E+04  0.10461326971E+04  0.00000000000E+00 0. -1.
         21   -1    0    0  501  503 -0.00000000000E+00 -0.00000000000E+00 -0.36106979977E+03  0.36106979977E+03  0.00000000000E+00 0. -1.
    9000007    2    1    2  501    0 -0.24754089755E+02 -0.84084847312E+02 -0.18212214684E+03  0.44819627826E+03  0.40003549964E+03 0.  0.
    9000005    1    3    3    0    0 -0.50655525657E+02 -0.22203913717E+03 -0.20446720545E+03  0.30606404365E+03  0.99999687468E+00 0.  0.
          4    1    3    3  501    0  0.25901435902E+02  0.13795428986E+03  0.22345058613E+02  0.14213223461E+03  0.00000000000E+00 0.  1.
   -9000007    1    1    2    0  502  0.24754089755E+02  0.84084847312E+02  0.86718504420E+03  0.95900621864E+03  0.40000000000E+03 0. -1.
<mgrwt>
<rscale>  2 0.40951719E+03</rscale>
<asrwt>0</asrwt>
<pdfrwt beam="1">  1       21 0.16094349E+00 0.40952586E+03</pdfrwt>
<pdfrwt beam="2">  1       21 0.55549200E-01 0.40952586E+03</pdfrwt>
<totfact> 0.64420586E+02</totfact>
</mgrwt>
</event>
<event>
 6    1  0.9502611E-004  0.5093648E+03  0.7818608E-02  0.1011397E+00
         21   -1    0    0  503  502  0.00000000000E+00  0.00000000000E+00  0.36262537458E+03  0.36262537458E+03  0.00000000000E+00 0. -1.
         21   -1    0    0  501  503 -0.00000000000E+00 -0.00000000000E+00 -0.71996466086E+03  0.71996466086E+03  0.00000000000E+00 0.  1.
    9000007    2    1    2  501    0  0.65057599787E+01  0.31529371722E+03 -0.22468271243E+03  0.55623443357E+03  0.39932689716E+03 0.  0.
    9000005    1    3    3    0    0 -0.11140645483E+03  0.35023756813E+03 -0.22925129889E+03  0.43316845493E+03  0.99999687468E+00 0.  0.
          4    1    3    3  501    0  0.11791221481E+03 -0.34943850915E+02  0.45685864645E+01  0.12306597864E+03  0.00000000000E+00 0.  1.
   -9000007    1    1    2    0  502 -0.65057599787E+01 -0.31529371722E+03 -0.13265657386E+03  0.52635560187E+03  0.40000000000E+03 0. -1.
<mgrwt>
<rscale>  2 0.50923260E+03</rscale>
<asrwt>0</asrwt>
<pdfrwt beam="1">  1       21 0.55788520E-01 0.50936475E+03</pdfrwt>
<pdfrwt beam="2">  1       21 0.11076379E+00 0.50936475E+03</pdfrwt>
<totfact> 0.16328094E+03</totfact>
</mgrwt>
</event>
<event>
 6    1  0.9502611E-004  0.4924899E+03  0.7818608E-02  0.1015843E+00
         21   -1    0    0  503  502  0.00000000000E+00  0.00000000000E+00  0.15290416158E+03  0.15290416158E+03  0.00000000000E+00 0.  1.
         21   -1    0    0  501  503 -0.00000000000E+00 -0.00000000000E+00 -0.16421898419E+04  0.16421898419E+04  0.00000000000E+00 0. -1.
    9000007    2    1    2  501    0  0.22170986652E+03  0.18273212120E+03 -0.91534864104E+03  0.10388202316E+04  0.39841943454E+03 0.  0.
    9000005    1    3    3    0    0  0.29113911260E+03  0.12474316847E+02 -0.68264103345E+03  0.74223808311E+03  0.99999687468E+00 0.  0.
          4    1    3    3  501    0 -0.69429246077E+02  0.17025780435E+03 -0.23270760759E+03  0.29658214846E+03  0.00000000000E+00 0.  1.
   -9000007    1    1    2    0  502 -0.22170986652E+03 -0.18273212120E+03 -0.57393703930E+03  0.75627377194E+03  0.40000000000E+03 0. -1.
<mgrwt>
<rscale>  2 0.49216886E+03</rscale>
<asrwt>0</asrwt>
<pdfrwt beam="1">  1       21 0.23523717E-01 0.49248989E+03</pdfrwt>
<pdfrwt beam="2">  1       21 0.25264459E+00 0.49248989E+03</pdfrwt>
<totfact> 0.87523068E+02</totfact>
</mgrwt>
</event>
<event>
 6    1  0.9502611E-004  0.4280719E+03  0.7818608E-02  0.1034483E+00
         21   -1    0    0  503  502  0.00000000000E+00  0.00000000000E+00  0.22150916726E+03  0.22150916726E+03  0.00000000000E+00 0. -1.
         21   -1    0    0  501  503 -0.00000000000E+00 -0.00000000000E+00 -0.20269505138E+04  0.20269505138E+04  0.00000000000E+00 0. -1.
    9000007    2    1    2  501    0  0.15176530921E+03 -0.90524262316E+01 -0.17677976433E+04  0.18188881458E+04  0.40016362104E+03 0.  0.
    9000005    1    3    3    0    0  0.20541118277E+03 -0.13608871599E+03 -0.69750941681E+03  0.73975285005E+03  0.99999687468E+00 0.  0.
          4    1    3    3  501    0 -0.53645873564E+02  0.12703628975E+03 -0.10702882265E+04  0.10791352957E+04  0.00000000000E+00 0.  1.
   -9000007    1    1    2    0  502 -0.15176530921E+03  0.90524262316E+01 -0.37643703177E+02  0.42957153524E+03  0.40000000000E+03 0. -1.
<mgrwt>
<rscale>  2 0.42803369E+03</rscale>
<asrwt>0</asrwt>
<pdfrwt beam="1">  1       21 0.34078333E-01 0.42807193E+03</pdfrwt>
<pdfrwt beam="2">  1       21 0.31183855E+00 0.42807193E+03</pdfrwt>
<totfact> 0.19134735E+02</totfact>
</mgrwt>
</event>
<event>
 6    1  0.9502611E-004  0.5093796E+03  0.7818608E-02  0.1011367E+00
         21   -1    0    0  503  502  0.00000000000E+00  0.00000000000E+00  0.14848113909E+04  0.14848113909E+04  0.00000000000E+00 0. -1.
         21   -1    0    0  501  503 -0.00000000000E+00 -0.00000000000E+00 -0.30691400907E+03  0.30691400907E+03  0.00000000000E+00 0. -1.
    9000007    2    1    2  501    0  0.31335776014E+03  0.33897673580E+02  0.10091217695E+01  0.50938062778E+03  0.40015680366E+03 0.  0.
    9000005    1    3    3    0    0  0.39055391838E+03  0.42698702402E+02 -0.75799253567E+02  0.40012756614E+03  0.99999687468E+00 0.  0.
          4    1    3    3  501    0 -0.77196158241E+02 -0.88010288227E+01  0.76808375337E+02  0.10925306164E+03  0.00000000000E+00 0.  1.
   -9000007    1    1    2    0  502 -0.31335776014E+03 -0.33897673580E+02  0.11768882600E+04  0.12823447722E+04  0.40000000000E+03 0. -1.
<mgrwt>
<rscale>  2 0.50934883E+03</rscale>
<asrwt>0</asrwt>
<pdfrwt beam="1">  1       21 0.22843252E+00 0.50937963E+03</pdfrwt>
<pdfrwt beam="2">  1       21 0.47217541E-01 0.50937963E+03</pdfrwt>
<totfact> 0.30111911E+02</totfact>
</mgrwt>
</event>
<event>
 6    1  0.9502611E-004  0.4228127E+03  0.7818608E-02  0.1036211E+00
         21   -1    0    0  503  502  0.00000000000E+00  0.00000000000E+00  0.21742526677E+03  0.21742526677E+03  0.00000000000E+00 0.  1.
         21   -1    0    0  501  503 -0.00000000000E+00 -0.00000000000E+00 -0.88506151179E+03  0.88506151179E+03  0.00000000000E+00 0.  1.
    9000007    2    1    2  501    0 -0.10526744783E+03 -0.84277413460E+02 -0.48253176996E+03  0.64156641160E+03  0.40073262094E+03 0.  0.
    9000005    1    3    3    0    0 -0.14315456616E+03 -0.19780275136E+03 -0.14624663884E+03  0.28461946107E+03  0.99999687468E+00 0.  0.
          4    1    3    3  501    0  0.37887118329E+02  0.11352533790E+03 -0.33628513112E+03  0.35694695053E+03  0.00000000000E+00 0.  1.
   -9000007    1    1    2    0  502  0.10526744783E+03  0.84277413460E+02 -0.18510447506E+03  0.46092036696E+03  0.40000000000E+03 0.  1.
<mgrwt>
<rscale>  2 0.42263899E+03</rscale>
<asrwt>0</asrwt>
<pdfrwt beam="1">  1       21 0.33450042E-01 0.42281267E+03</pdfrwt>
<pdfrwt beam="2">  1       21 0.13616331E+00 0.42281267E+03</pdfrwt>
<totfact> 0.28895260E+03</totfact>
</mgrwt>
</event>
<event>
 6    1  0.9502611E-004  0.4113176E+03  0.7818608E-02  0.1040003E+00
         21   -1    0    0  503  502  0.00000000000E+00  0.00000000000E+00  0.76878579293E+03  0.76878579293E+03  0.00000000000E+00 0.  1.
         21   -1    0    0  501  503 -0.00000000000E+00 -0.00000000000E+00 -0.33397379107E+03  0.33397379107E+03  0.00000000000E+00 0.  1.
    9000007    2    1    2  501    0  0.94650598593E+02  0.14947004280E+02 -0.10541603941E+03  0.42376879959E+03  0.39910563187E+03 0.  0.
    9000005    1    3    3    0    0 -0.28831823556E+02  0.19204962491E+03 -0.41282081243E+02  0.19854355367E+03  0.99999687468E+00 0.  0.
          4    1    3    3  501    0  0.12348242215E+03 -0.17710262063E+03 -0.64133958163E+02  0.22522524593E+03  0.00000000000E+00 0.  1.
   -9000007    1    1    2    0  502 -0.94650598593E+02 -0.14947004280E+02  0.54022804126E+03  0.67899078441E+03  0.40000000000E+03 0.  1.
<mgrwt>
<rscale>  2 0.41109998E+03</rscale>
<asrwt>0</asrwt>
<pdfrwt beam="1">  1       21 0.11827474E+00 0.41131758E+03</pdfrwt>
<pdfrwt beam="2">  1       21 0.51380583E-01 0.41131758E+03</pdfrwt>
<totfact> 0.17172434E+03</totfact>
</mgrwt>
</event>
<event>
 6    1  0.9502611E-004  0.5932979E+03  0.7818608E-02  0.9919500E-01
         21   -1    0    0  503  502  0.00000000000E+00  0.00000000000E+00  0.44562409297E+03  0.44562409297E+03  0.00000000000E+00 0.  1.
         21   -1    0    0  501  503 -0.00000000000E+00 -0.00000000000E+00 -0.95473336034E+03  0.95473336034E+03  0.00000000000E+00 0. -1.
    9000007    2    1    2  501    0 -0.24145568639E+03 -0.36565226714E+03 -0.54565125107E+03  0.80593525863E+03  0.39974232245E+03 0.  0.
    9000005    1    3    3    0    0 -0.99668241994E+02 -0.16428915087E+03 -0.52468976905E+03  0.55877100613E+03  0.99999687468E+00 0.  0.
          4    1    3    3  501    0 -0.14178744439E+03 -0.20136311628E+03 -0.20961482019E+02  0.24716425250E+03  0.00000000000E+00 0.  1.
   -9000007    1    1    2    0  502  0.24145568639E+03  0.36565226714E+03  0.36541983705E+02  0.59442219468E+03  0.40000000000E+03 0. -1.
<mgrwt>
<rscale>  2 0.59325450E+03</rscale>
<asrwt>0</asrwt>
<pdfrwt beam="1">  1       21 0.68557552E-01 0.59329793E+03</pdfrwt>
<pdfrwt beam="2">  1       21 0.14688206E+00 0.59329793E+03</pdfrwt>
<totfact> 0.48250987E+02</totfact>
</mgrwt>
</event>
<event>
 6    1  0.9502611E-004  0.4208782E+03  0.7818608E-02  0.1036826E+00
         21   -1    0    0  503  502  0.00000000000E+00  0.00000000000E+00  0.10585229717E+04  0.10585229717E+04  0.00000000000E+00 0. -1.
         21   -1    0    0  501  503 -0.00000000000E+00 -0.00000000000E+00 -0.18748322826E+03  0.18748322826E+03  0.00000000000E+00 0.  1.
    9000007    2    1    2  501    0  0.35345387655E+02 -0.12420246441E+03  0.23048464716E+03  0.47985583615E+03  0.40057820999E+03 0.  0.
    9000005    1    3    3    0    0 -0.34876834459E+02 -0.25566603025E+03  0.20296247984E+03  0.32829298016E+03  0.99999687468E+00 0.  0.
          4    1    3    3  501    0  0.70222222113E+02  0.13146356584E+03  0.27522167319E+02  0.15156285599E+03  0.00000000000E+00 0.  1.
   -9000007    1    1    2    0  502 -0.35345387655E+02  0.12420246441E+03  0.64055509627E+03  0.76615036380E+03  0.40000000000E+03 0. -1.
<mgrwt>
<rscale>  2 0.42074055E+03</rscale>
<asrwt>0</asrwt>
<pdfrwt beam="1">  1       21 0.16284968E+00 0.42087819E+03</pdfrwt>
<pdfrwt beam="2">  1       21 0.28843574E-01 0.42087819E+03</pdfrwt>
<totfact> 0.23923034E+03</totfact>
</mgrwt>
</event>
<event>
 6    1  0.9502611E-004  0.4362105E+03  0.7818608E-02  0.1032060E+00
         21   -1    0    0  503  502  0.00000000000E+00  0.00000000000E+00  0.46223075487E+03  0.46223075487E+03  0.00000000000E+00 0. -1.
         21   -1    0    0  501  503 -0.00000000000E+00 -0.00000000000E+00 -0.46838269817E+03  0.46838269817E+03  0.00000000000E+00 0.  1.
    9000007    2    1    2  501    0  0.66950074435E+02 -0.15550517278E+03  0.16132918508E+03  0.46508783656E+03  0.40201420190E+03 0.  0.
    9000005    1    3    3    0    0  0.11238872993E+03 -0.55700078621E+02  0.27798781740E+03  0.30497860907E+03  0.99999687468E+00 0.  0.
          4    1    3    3  501    0 -0.45438655499E+02 -0.99805094161E+02 -0.11665863232E+03  0.16010922749E+03  0.00000000000E+00 0.  1.
   -9000007    1    1    2    0  502 -0.66950074435E+02  0.15550517278E+03 -0.16748112838E+03  0.46552561647E+03  0.40000000000E+03 0.  1.
<mgrwt>
<rscale>  2 0.43574585E+03</rscale>
<asrwt>0</asrwt>
<pdfrwt beam="1">  1       21 0.71112424E-01 0.43621049E+03</pdfrwt>
<pdfrwt beam="2">  1       21 0.72058876E-01 0.43621049E+03</pdfrwt>
<totfact> 0.27162011E+03</totfact>
</mgrwt>
</event>
<event>
 6    1  0.9502611E-004  0.4091720E+03  0.7818608E-02  0.1040665E+00
         21   -1    0    0  503  502  0.00000000000E+00  0.00000000000E+00  0.24014673929E+04  0.24014673929E+04  0.00000000000E+00 0.  1.
         21   -1    0    0  501  503 -0.00000000000E+00 -0.00000000000E+00 -0.13459045098E+03  0.13459045098E+03  0.00000000000E+00 0.  1.
    9000007    2    1    2  501    0 -0.79621149718E+02 -0.32896379897E+02  0.25272441585E+03  0.48076416717E+03  0.39980352021E+03 0.  0.
    9000005    1    3    3    0    0 -0.36938371459E+02 -0.11172860591E+02  0.36063906731E+03  0.36269934238E+03  0.99999687468E+00 0.  0.
          4    1    3    3  501    0 -0.42682778259E+02 -0.21723519306E+02 -0.10791465146E+03  0.11806482478E+03  0.00000000000E+00 0.  1.
   -9000007    1    1    2    0  502  0.79621149718E+02  0.32896379897E+02  0.20141525261E+04  0.20552936767E+04  0.40000000000E+03 0.  1.
<mgrwt>
<rscale>  2 0.40912394E+03</rscale>
<asrwt>0</asrwt>
<pdfrwt beam="1">  1       21 0.36945649E+00 0.40917197E+03</pdfrwt>
<pdfrwt beam="2">  1       21 0.20706225E-01 0.40917197E+03</pdfrwt>
<totfact> 0.22913944E+02</totfact>
</mgrwt>
</event>
<event>
 6    1  0.9502611E-004  0.4252488E+03  0.7818608E-02  0.1035386E+00
         21   -1    0    0  503  502  0.00000000000E+00  0.00000000000E+00  0.25391773730E+03  0.25391773730E+03  0.00000000000E+00 0. -1.
         21   -1    0    0  501  503 -0.00000000000E+00 -0.00000000000E+00 -0.78368773974E+03  0.78368773974E+03  0.00000000000E+00 0.  1.
    9000007    2    1    2  501    0  0.12921480337E+03 -0.63123486087E+02 -0.10789389668E+03  0.43872277691E+03  0.40019438044E+03 0.  0.
    9000005    1    3    3    0    0  0.26703701223E+03  0.85357843008E+01 -0.92008697899E+02  0.28257428403E+03  0.99999687468E+00 0.  0.
          4    1    3    3  501    0 -0.13782220886E+03 -0.71659270387E+02 -0.15885198778E+02  0.15614849288E+03  0.00000000000E+00 0.  1.
   -9000007    1    1    2    0  502 -0.12921480337E+03  0.63123486087E+02 -0.42187610575E+03  0.59888270013E+03  0.40000000000E+03 0.  1.
<mgrwt>
<rscale>  2 0.42520311E+03</rscale>
<asrwt>0</asrwt>
<pdfrwt beam="1">  1       21 0.39064268E-01 0.42524885E+03</pdfrwt>
<pdfrwt beam="2">  1       21 0.12056734E+00 0.42524885E+03</pdfrwt>
<totfact> 0.28843498E+03</totfact>
</mgrwt>
</event>
<event>
 6    1  0.9502611E-004  0.4737158E+03  0.7818608E-02  0.1021025E+00
         21   -1    0    0  503  502  0.00000000000E+00  0.00000000000E+00  0.40732309712E+03  0.40732309712E+03  0.00000000000E+00 0. -1.
         21   -1    0    0  501  503 -0.00000000000E+00 -0.00000000000E+00 -0.55140109955E+03  0.55140109955E+03  0.00000000000E+00 0. -1.
    9000007    2    1    2  501    0 -0.23081699924E+03 -0.95537731421E+02 -0.37245124482E+02  0.47517770555E+03  0.40249559909E+03 0.  0.
    9000005    1    3    3    0    0 -0.16698964331E+03 -0.23317495644E+03  0.62596400875E+02  0.29355648635E+03  0.99999687468E+00 0.  0.
          4    1    3    3  501    0 -0.63827355935E+02  0.13763722502E+03 -0.99841525357E+02  0.18162121920E+03  0.00000000000E+00 0.  1.
   -9000007    1    1    2    0  502  0.23081699924E+03  0.95537731421E+02 -0.10683287795E+03  0.48354649112E+03  0.40000000000E+03 0. -1.
<mgrwt>
<rscale>  2 0.47318526E+03</rscale>
<asrwt>0</asrwt>
<pdfrwt beam="1">  1       21 0.62665092E-01 0.47371579E+03</pdfrwt>
<pdfrwt beam="2">  1       21 0.84830938E-01 0.47371579E+03</pdfrwt>
<totfact> 0.24419258E+03</totfact>
</mgrwt>
</event>
<event>
 6    1  0.9502611E-004  0.4328237E+03  0.7818608E-02  0.1033062E+00
         21   -1    0    0  503  502  0.00000000000E+00  0.00000000000E+00  0.40398489112E+03  0.40398489112E+03  0.00000000000E+00 0.  1.
         21   -1    0    0  501  503 -0.00000000000E+00 -0.00000000000E+00 -0.66543916244E+03  0.66543916244E+03  0.00000000000E+00 0.  1.
    9000007    2    1    2  501    0 -0.33798972144E+02 -0.16184551553E+03 -0.42590413986E+03  0.60641206594E+03  0.39875420494E+03 0.  0.
    9000005    1    3    3    0    0 -0.27267652727E+02 -0.52529445698E+02  0.73938186464E+02  0.94713900574E+02  0.99999687468E+00 0.  0.
          4    1    3    3  501    0 -0.65313194164E+01 -0.10931606984E+03 -0.49984232632E+03  0.51169816537E+03  0.00000000000E+00 0.  1.
   -9000007    1    1    2    0  502  0.33798972144E+02  0.16184551553E+03  0.16444986854E+03  0.46301198762E+03  0.40000000000E+03 0.  1.
<mgrwt>
<rscale>  2 0.43253563E+03</rscale>
<asrwt>0</asrwt>
<pdfrwt beam="1">  1       21 0.62151522E-01 0.43282368E+03</pdfrwt>
<pdfrwt beam="2">  1       21 0.10237525E+00 0.43282368E+03</pdfrwt>
<totfact> 0.16114848E+03</totfact>
</mgrwt>
</event>
<event>
 6    1  0.9502611E-004  0.4673504E+03  0.7818608E-02  0.1022671E+00
         21   -1    0    0  503  502  0.00000000000E+00  0.00000000000E+00  0.35971019526E+03  0.35971019526E+03  0.00000000000E+00 0.  1.
         21   -1    0    0  501  503 -0.00000000000E+00 -0.00000000000E+00 -0.61026117087E+03  0.61026117087E+03  0.00000000000E+00 0.  1.
    9000007    2    1    2  501    0  0.23309369915E+03 -0.63870463567E+02 -0.90899630980E+02  0.47610836838E+03  0.40000540849E+03 0.  0.
    9000005    1    3    3    0    0  0.12487377134E+03 -0.23320137494E+03 -0.30592216629E+02  0.26629536938E+03  0.99999687468E+00 0.  0.
          4    1    3    3  501    0  0.10821992781E+03  0.16933091137E+03 -0.60307414351E+02  0.20981299899E+03  0.00000000000E+00 0.  1.
   -9000007    1    1    2    0  502 -0.23309369915E+03  0.63870463567E+02 -0.15965134463E+03  0.49386299775E+03  0.40000000000E+03 0.  1.
<mgrwt>
<rscale>  2 0.46734928E+03</rscale>
<asrwt>0</asrwt>
<pdfrwt beam="1">  1       21 0.55340031E-01 0.46735044E+03</pdfrwt>
<pdfrwt beam="2">  1       21 0.93886333E-01 0.46735044E+03</pdfrwt>
<totfact> 0.25263370E+03</totfact>
</mgrwt>
</event>
<event>
 6    1  0.9502611E-004  0.7641472E+03  0.7818608E-02  0.9613438E-01
         21   -1    0    0  503  502  0.00000000000E+00  0.00000000000E+00  0.11394015584E+04  0.11394015584E+04  0.00000000000E+00 0.  1.
         21   -1    0    0  501  503 -0.00000000000E+00 -0.00000000000E+00 -0.86132650142E+03  0.86132650142E+03  0.00000000000E+00 0.  1.
    9000007    2    1    2  501    0  0.99683083487E+02 -0.64334037500E+03 -0.49763393136E+03  0.91189933600E+03  0.40012162414E+03 0.  0.
    9000005    1    3    3    0    0  0.56979412446E+02  0.31299115734E+02 -0.12278055489E+03  0.13893290734E+03  0.99999687468E+00 0.  0.
          4    1    3    3  501    0  0.42703671042E+02 -0.67463949074E+03 -0.37485337647E+03  0.77296642866E+03  0.00000000000E+00 0.  1.
   -9000007    1    1    2    0  502 -0.99683083487E+02  0.64334037500E+03  0.77570898839E+03  0.10888287239E+04  0.40000000000E+03 0.  1.
<mgrwt>
<rscale>  2 0.76413123E+03</rscale>
<asrwt>0</asrwt>
<pdfrwt beam="1">  1       21 0.17529255E+00 0.76414715E+03</pdfrwt>
<pdfrwt beam="2">  1       21 0.13251177E+00 0.76414715E+03</pdfrwt>
<totfact> 0.55561444E+01</totfact>
</mgrwt>
</event>
<event>
 6    1  0.9502611E-004  0.4115443E+03  0.7818608E-02  0.1040008E+00
         21   -1    0    0  503  502  0.00000000000E+00  0.00000000000E+00  0.68758523329E+03  0.68758523329E+03  0.00000000000E+00 0.  1.
         21   -1    0    0  501  503 -0.00000000000E+00 -0.00000000000E+00 -0.29231806674E+03  0.29231806674E+03  0.00000000000E+00 0.  1.
    9000007    2    1    2  501    0  0.96789401185E+02  0.72856347716E+00  0.60791888267E+00  0.40970628079E+03  0.39810821138E+03 0.  0.
    9000005    1    3    3    0    0  0.13394614593E+03  0.17762675247E+03 -0.35753989621E+02  0.22532683145E+03  0.99999687468E+00 0.  0.
          4    1    3    3  501    0 -0.37156744749E+02 -0.17689818899E+03  0.36361908504E+02  0.18437944934E+03  0.00000000000E+00 0.  1.
   -9000007    1    1    2    0  502 -0.96789401185E+02 -0.72856347716E+00  0.39465924766E+03  0.57019701924E+03  0.40000000000E+03 0.  1.
<mgrwt>
<rscale>  2 0.41108392E+03</rscale>
<asrwt>0</asrwt>
<pdfrwt beam="1">  1       21 0.10578234E+00 0.41154431E+03</pdfrwt>
<pdfrwt beam="2">  1       21 0.44972010E-01 0.41154431E+03</pdfrwt>
<totfact> 0.30011162E+03</totfact>
</mgrwt>
</event>
<event>
 6    1  0.9502611E-004  0.4171315E+03  0.7818608E-02  0.1038022E+00
         21   -1    0    0  503  502  0.00000000000E+00  0.00000000000E+00  0.22807831316E+04  0.22807831316E+04  0.00000000000E+00 0.  1.
         21   -1    0    0  501  503 -0.00000000000E+00 -0.00000000000E+00 -0.79146017384E+02  0.79146017384E+02  0.00000000000E+00 0.  1.
    9000007    2    1    2  501    0 -0.11268215745E+03  0.36074808443E+02  0.13262993865E+04  0.13902824102E+04  0.39977050562E+03 0.  0.
    9000005    1    3    3    0    0  0.74542946300E+02  0.12650507694E+03  0.94168980427E+03  0.95306918574E+03  0.99999687468E+00 0.  0.
          4    1    3    3  501    0 -0.18722510375E+03 -0.90430268498E+02  0.38460958220E+03  0.43721322447E+03  0.00000000000E+00 0.  1.
   -9000007    1    1    2    0  502  0.11268215745E+03 -0.36074808443E+02  0.87533772777E+03  0.96964673880E+03  0.40000000000E+03 0. -1.
<mgrwt>
<rscale>  2 0.41707644E+03</rscale>
<asrwt>0</asrwt>
<pdfrwt beam="1">  1       21 0.35088966E+00 0.41713147E+03</pdfrwt>
<pdfrwt beam="2">  1       21 0.12176312E-01 0.41713147E+03</pdfrwt>
<totfact> 0.79715042E+02</totfact>
</mgrwt>
</event>
<event>
 6    1  0.9502611E-004  0.4239328E+03  0.7818608E-02  0.1035856E+00
         21   -1    0    0  503  502  0.00000000000E+00  0.00000000000E+00  0.24165841321E+03  0.24165841321E+03  0.00000000000E+00 0. -1.
         21   -1    0    0  501  503 -0.00000000000E+00 -0.00000000000E+00 -0.11158084749E+04  0.11158084749E+04  0.00000000000E+00 0.  1.
    9000007    2    1    2  501    0 -0.67050115541E+02  0.12338273084E+03 -0.82948167950E+03  0.93118730779E+03  0.39918783712E+03 0.  0.
    9000005    1    3    3    0    0  0.14989175612E+03  0.12461893451E+03 -0.28705790781E+03  0.34698798224E+03  0.99999687468E+00 0.  0.
          4    1    3    3  501    0 -0.21694187166E+03 -0.12362036714E+01 -0.54242377169E+03  0.58419932555E+03  0.00000000000E+00 0.  1.
   -9000007    1    1    2    0  502  0.67050115541E+02 -0.12338273084E+03 -0.44668382237E+02  0.42627958036E+03  0.40000000000E+03 0. -1.
<mgrwt>
<rscale>  2 0.42374111E+03</rscale>
<asrwt>0</asrwt>
<pdfrwt beam="1">  1       21 0.37178218E-01 0.42393280E+03</pdfrwt>
<pdfrwt beam="2">  1       21 0.17166284E+00 0.42393280E+03</pdfrwt>
<totfact> 0.12375543E+03</totfact>
</mgrwt>
</event>
<event>
 6    1  0.9502611E-004  0.4224605E+03  0.7818608E-02  0.1036281E+00
         21   -1    0    0  503  502  0.00000000000E+00  0.00000000000E+00  0.30900387864E+03  0.30900387864E+03  0.00000000000E+00 0.  1.
         21   -1    0    0  501  503 -0.00000000000E+00 -0.00000000000E+00 -0.14400321649E+04  0.14400321649E+04  0.00000000000E+00 0.  1.
    9000007    2    1    2  501    0  0.21070363110E+02 -0.13378081946E+03 -0.12424256717E+04  0.13122859487E+04  0.40016445814E+03 0.  0.
    9000005    1    3    3    0    0  0.42829975576E+02 -0.27524703096E+03 -0.78250407101E+03  0.83060758244E+03  0.99999687468E+00 0.  0.
          4    1    3    3  501    0 -0.21759612466E+02  0.14146621150E+03 -0.45992160066E+03  0.48167836622E+03  0.00000000000E+00 0.  1.
   -9000007    1    1    2    0  502 -0.21070363110E+02  0.13378081946E+03  0.11139738546E+03  0.43675009484E+03  0.40000000000E+03 0.  1.
<mgrwt>
<rscale>  2 0.42242154E+03</rscale>
<asrwt>0</asrwt>
<pdfrwt beam="1">  1       21 0.47539059E-01 0.42246049E+03</pdfrwt>
<pdfrwt beam="2">  1       21 0.22154341E+00 0.42246049E+03</pdfrwt>
<totfact> 0.34325767E+02</totfact>
</mgrwt>
</event>
<event>
 6    1  0.9502611E-004  0.5913834E+03  0.7818608E-02  0.9923502E-01
         21   -1    0    0  503  502  0.00000000000E+00  0.00000000000E+00  0.12750089688E+04  0.12750089688E+04  0.00000000000E+00 0. -1.
         21   -1    0    0  501  503 -0.00000000000E+00 -0.00000000000E+00 -0.43290510167E+03  0.43290510167E+03  0.00000000000E+00 0.  1.
    9000007    2    1    2  501    0  0.23893105999E+02 -0.43492922885E+03 -0.95943511428E+02  0.59901046824E+03  0.39984255533E+03 0.  0.
    9000005    1    3    3    0    0  0.56307552592E+02 -0.54630753227E+02  0.13264794277E+03  0.15411533471E+03  0.99999687468E+00 0.  0.
          4    1    3    3  501    0 -0.32414446594E+02 -0.38029847563E+03 -0.22859145420E+03  0.44489513354E+03  0.00000000000E+00 0.  1.
   -9000007    1    1    2    0  502 -0.23893105999E+02  0.43492922885E+03  0.93804737855E+03  0.11089036022E+04  0.40000000000E+03 0. -1.
<mgrwt>
<rscale>  2 0.59135677E+03</rscale>
<asrwt>0</asrwt>
<pdfrwt beam="1">  1       21 0.19615522E+00 0.59138339E+03</pdfrwt>
<pdfrwt beam="2">  1       21 0.66600785E-01 0.59138339E+03</pdfrwt>
<totfact> 0.22376275E+02</totfact>
</mgrwt>
</event>
<event>
 6    1  0.9502611E-004  0.4298033E+03  0.7818608E-02  0.1033948E+00
         21   -1    0    0  503  502  0.00000000000E+00  0.00000000000E+00  0.45746286819E+03  0.45746286819E+03  0.00000000000E+00 0.  1.
         21   -1    0    0  501  503 -0.00000000000E+00 -0.00000000000E+00 -0.62336898816E+03  0.62336898816E+03  0.00000000000E+00 0.  1.
    9000007    2    1    2  501    0  0.44828449122E+02  0.15073595862E+03 -0.40387337425E+03  0.58954850309E+03  0.39965336981E+03 0.  0.
    9000005    1    3    3    0    0  0.11766333127E+03 -0.50053059089E+02  0.53009827016E+01  0.12798073550E+03  0.99999687468E+00 0.  0.
          4    1    3    3  501    0 -0.72834882145E+02  0.20078901771E+03 -0.40917435695E+03  0.46156776759E+03  0.00000000000E+00 0.  1.
   -9000007    1    1    2    0  502 -0.44828449122E+02 -0.15073595862E+03  0.23796725429E+03  0.49128335325E+03  0.40000000000E+03 0.  1.
<mgrwt>
<rscale>  2 0.42972268E+03</rscale>
<asrwt>0</asrwt>
<pdfrwt beam="1">  1       21 0.70378903E-01 0.42980335E+03</pdfrwt>
<pdfrwt beam="2">  1       21 0.95902921E-01 0.42980335E+03</pdfrwt>
<totfact> 0.14328420E+03</totfact>
</mgrwt>
</event>
<event>
 6    1  0.9502611E-004  0.4640837E+03  0.7818608E-02  0.1023655E+00
         21   -1    0    0  503  502  0.00000000000E+00  0.00000000000E+00  0.19811659410E+03  0.19811659410E+03  0.00000000000E+00 0.  1.
         21   -1    0    0  501  503 -0.00000000000E+00 -0.00000000000E+00 -0.11070571400E+04  0.11070571400E+04  0.00000000000E+00 0.  1.
    9000007    2    1    2  501    0 -0.20415476864E+03 -0.11702371132E+03 -0.54534614943E+03  0.71561915332E+03  0.39916742267E+03 0.  0.
    9000005    1    3    3    0    0 -0.71894475760E+02  0.80690423591E+02  0.12862543483E+02  0.10884027344E+03  0.99999687468E+00 0.  0.
          4    1    3    3  501    0 -0.13226029288E+03 -0.19771413491E+03 -0.55820869291E+03  0.60677887987E+03  0.00000000000E+00 0.  1.
   -9000007    1    1    2    0  502  0.20415476864E+03  0.11702371132E+03 -0.36359439644E+03  0.58955458076E+03  0.40000000000E+03 0.  1.
<mgrwt>
<rscale>  2 0.46390428E+03</rscale>
<asrwt>0</asrwt>
<pdfrwt beam="1">  1       21 0.30479476E-01 0.46408374E+03</pdfrwt>
<pdfrwt beam="2">  1       21 0.17031649E+00 0.46408374E+03</pdfrwt>
<totfact> 0.18561862E+03</totfact>
</mgrwt>
</event>
<event>
 6    1  0.9502611E-004  0.5427335E+03  0.7818608E-02  0.1003208E+00
         21   -1    0    0  503  502  0.00000000000E+00  0.00000000000E+00  0.19021148328E+04  0.19021148328E+04  0.00000000000E+00 0. -1.
         21   -1    0    0  501  503 -0.00000000000E+00 -0.00000000000E+00 -0.19485293375E+03  0.19485293375E+03  0.00000000000E+00 0.  1.
    9000007    2    1    2  501    0 -0.35140280747E+03  0.10368730615E+03  0.37829855887E+03  0.66156588901E+03  0.40040558850E+03 0.  0.
    9000005    1    3    3    0    0 -0.25252880359E+03  0.58873065176E+02  0.45839893179E+03  0.52665682860E+03  0.99999687468E+00 0.  0.
          4    1    3    3  501    0 -0.98874003881E+02  0.44814240974E+02 -0.80100372925E+02  0.13490906041E+03  0.00000000000E+00 0.  1.
   -9000007    1    1    2    0  502  0.35140280747E+03 -0.10368730615E+03  0.13289633402E+04  0.14354018776E+04  0.40000000000E+03 0. -1.
<mgrwt>
<rscale>  2 0.54265867E+03</rscale>
<asrwt>0</asrwt>
<pdfrwt beam="1">  1       21 0.29263304E+00 0.54273348E+03</pdfrwt>
<pdfrwt beam="2">  1       21 0.29977376E-01 0.54273348E+03</pdfrwt>
<totfact> 0.30303924E+02</totfact>
</mgrwt>
</event>
<event>
 6    1  0.9502611E-004  0.5053210E+03  0.7818608E-02  0.1012448E+00
         21   -1    0    0  503  502  0.00000000000E+00  0.00000000000E+00  0.26716579603E+03  0.26716579603E+03  0.00000000000E+00 0. -1.
         21   -1    0    0  501  503 -0.00000000000E+00 -0.00000000000E+00 -0.25314238659E+04  0.25314238659E+04  0.00000000000E+00 0. -1.
    9000007    2    1    2  501    0 -0.22780130105E+03  0.20660824113E+03 -0.22369243832E+04  0.22932902175E+04  0.40096000752E+03 0.  0.
    9000005    1    3    3    0    0 -0.15192574768E+03  0.10585905991E+03 -0.20960177799E+04  0.21041813390E+04  0.99999687468E+00 0.  0.
          4    1    3    3  501    0 -0.75875553368E+02  0.10074918122E+03 -0.14090660324E+03  0.18910887856E+03  0.00000000000E+00 0.  1.
   -9000007    1    1    2    0  502  0.22780130105E+03 -0.20660824113E+03 -0.27333686662E+02  0.50529944438E+03  0.40000000000E+03 0. -1.
<mgrwt>
<rscale>  2 0.50513055E+03</rscale>
<asrwt>0</asrwt>
<pdfrwt beam="1">  1       21 0.41102430E-01 0.50532101E+03</pdfrwt>
<pdfrwt beam="2">  1       21 0.38944983E+00 0.50532101E+03</pdfrwt>
<totfact> 0.41224229E+01</totfact>
</mgrwt>
</event>
<event>
 6    1  0.9502611E-004  0.5275753E+03  0.7818608E-02  0.1006972E+00
         21   -1    0    0  503  502  0.00000000000E+00  0.00000000000E+00  0.83831245747E+03  0.83831245747E+03  0.00000000000E+00 0.  1.
         21   -1    0    0  501  503 -0.00000000000E+00 -0.00000000000E+00 -0.42754937013E+03  0.42754937013E+03  0.00000000000E+00 0.  1.
    9000007    2    1    2  501    0  0.67926557100E+02 -0.33338211486E+03 -0.95830364003E+02  0.53620809013E+03  0.40320962983E+03 0.  0.
    9000005    1    3    3    0    0  0.14275145250E+03  0.33891007734E+02  0.90246264523E+01  0.14700007303E+03  0.99999687468E+00 0.  0.
          4    1    3    3  501    0 -0.74824895397E+02 -0.36727312259E+03 -0.10485499046E+03  0.38920801710E+03  0.00000000000E+00 0.  1.
   -9000007    1    1    2    0  502 -0.67926557100E+02  0.33338211486E+03  0.50659345134E+03  0.72965373747E+03  0.40000000000E+03 0.  1.
<mgrwt>
<rscale>  2 0.52696196E+03</rscale>
<asrwt>0</asrwt>
<pdfrwt beam="1">  1       21 0.12897115E+00 0.52757526E+03</pdfrwt>
<pdfrwt beam="2">  1       21 0.65776827E-01 0.52757526E+03</pdfrwt>
<totfact> 0.76616680E+02</totfact>
</mgrwt>
</event>
<event>
 6    1  0.9502611E-004  0.4074604E+03  0.7818608E-02  0.1041236E+00
         21   -1    0    0  503  502  0.00000000000E+00  0.00000000000E+00  0.46995986471E+03  0.46995986471E+03  0.00000000000E+00 0.  1.
         21   -1    0    0  501  503 -0.00000000000E+00 -0.00000000000E+00 -0.11733678617E+04  0.11733678617E+04  0.00000000000E+00 0.  1.
    9000007    2    1    2  501    0  0.28094236870E+02 -0.71706086878E+02 -0.10386850674E+04  0.11157466777E+04  0.40011614623E+03 0.  0.
    9000005    1    3    3    0    0 -0.38830296668E+02 -0.10155750268E+03 -0.42300013548E+02  0.11667051654E+03  0.99999687468E+00 0.  0.
          4    1    3    3  501    0  0.66924533538E+02  0.29851415799E+02 -0.99638505390E+03  0.99907616118E+03  0.00000000000E+00 0.  1.
   -9000007    1    1    2    0  502 -0.28094236870E+02  0.71706086878E+02  0.33527707041E+03  0.52758104873E+03  0.40000000000E+03 0.  1.
<mgrwt>
<rscale>  2 0.40743189E+03</rscale>
<asrwt>0</asrwt>
<pdfrwt beam="1">  1       21 0.72301518E-01 0.40746040E+03</pdfrwt>
<pdfrwt beam="2">  1       21 0.18051813E+00 0.40746040E+03</pdfrwt>
<totfact> 0.25999144E+02</totfact>
</mgrwt>
</event>
<event>
 6    1  0.9502611E-004  0.4829114E+03  0.7818608E-02  0.1018363E+00
         21   -1    0    0  503  502  0.00000000000E+00  0.00000000000E+00  0.60288823100E+03  0.60288823100E+03  0.00000000000E+00 0. -1.
         21   -1    0    0  501  503 -0.00000000000E+00 -0.00000000000E+00 -0.61365773969E+03  0.61365773969E+03  0.00000000000E+00 0. -1.
    9000007    2    1    2  501    0 -0.24253137439E+02  0.26947213203E+03 -0.37545265713E+03  0.61140363755E+03  0.39955758740E+03 0.  0.
    9000005    1    3    3    0    0 -0.57578073456E+02  0.30079890560E+03 -0.43767057619E+03  0.53418325452E+03  0.99999687468E+00 0.  0.
          4    1    3    3  501    0  0.33324936017E+02 -0.31326773572E+02  0.62217919062E+02  0.77220383031E+02  0.00000000000E+00 0.  1.
   -9000007    1    1    2    0  502  0.24253137439E+02 -0.26947213203E+03  0.36468314843E+03  0.60514233314E+03  0.40000000000E+03 0. -1.
<mgrwt>
<rscale>  2 0.48281980E+03</rscale>
<asrwt>0</asrwt>
<pdfrwt beam="1">  1       21 0.92752036E-01 0.48291143E+03</pdfrwt>
<pdfrwt beam="2">  1       21 0.94408883E-01 0.48291143E+03</pdfrwt>
<totfact> 0.76808700E+02</totfact>
</mgrwt>
</event>
<event>
 6    1  0.9502611E-004  0.4880423E+03  0.7818608E-02  0.1016977E+00
         21   -1    0    0  503  502  0.00000000000E+00  0.00000000000E+00  0.30876176308E+03  0.30876176308E+03  0.00000000000E+00 0.  1.
         21   -1    0    0  501  503 -0.00000000000E+00 -0.00000000000E+00 -0.12944506043E+04  0.12944506043E+04  0.00000000000E+00 0.  1.
    9000007    2    1    2  501    0 -0.14980033205E+03  0.23610413891E+03 -0.10025906361E+04  0.11148774674E+04  0.39947275226E+03 0.  0.
    9000005    1    3    3    0    0  0.83881846746E+02  0.95915217226E+02 -0.74495326365E+02  0.14760232638E+03  0.99999687468E+00 0.  0.
          4    1    3    3  501    0 -0.23368217880E+03  0.14018892168E+03 -0.92809530975E+03  0.96727514102E+03  0.00000000000E+00 0.  1.
   -9000007    1    1    2    0  502  0.14980033205E+03 -0.23610413891E+03  0.16901794871E+02  0.48833490000E+03  0.40000000000E+03 0.  1.
<mgrwt>
<rscale>  2 0.48793427E+03</rscale>
<asrwt>0</asrwt>
<pdfrwt beam="1">  1       21 0.47501808E-01 0.48804232E+03</pdfrwt>
<pdfrwt beam="2">  1       21 0.19914625E+00 0.48804232E+03</pdfrwt>
<totfact> 0.46560581E+02</totfact>
</mgrwt>
</event>
<event>
 6    1  0.9502611E-004  0.4708626E+03  0.7818608E-02  0.1021679E+00
         21   -1    0    0  503  502  0.00000000000E+00  0.00000000000E+00  0.60453393375E+03  0.60453393375E+03  0.00000000000E+00 0.  1.
         21   -1    0    0  501  503 -0.00000000000E+00 -0.00000000000E+00 -0.76831342645E+03  0.76831342645E+03  0.00000000000E+00 0.  1.
    9000007    2    1    2  501    0  0.22324736252E+03 -0.10883794986E+03 -0.57815525526E+03  0.74563738196E+03  0.40003315110E+03 0.  0.
    9000005    1    3    3    0    0  0.44914217053E+02  0.12608333129E+03 -0.34376085734E+03  0.36889947189E+03  0.99999687468E+00 0.  0.
          4    1    3    3  501    0  0.17833314547E+03 -0.23492128115E+03 -0.23439439792E+03  0.37673791007E+03  0.00000000000E+00 0.  1.
   -9000007    1    1    2    0  502 -0.22324736252E+03  0.10883794986E+03  0.41437576256E+03  0.62720997824E+03  0.40000000000E+03 0.  1.
<mgrwt>
<rscale>  2 0.47085558E+03</rscale>
<asrwt>0</asrwt>
<pdfrwt beam="1">  1       21 0.93005221E-01 0.47086262E+03</pdfrwt>
<pdfrwt beam="2">  1       21 0.11820207E+00 0.47086262E+03</pdfrwt>
<totfact> 0.44094114E+02</totfact>
</mgrwt>
</event>
<event>
 6    1  0.9502611E-004  0.5045199E+03  0.7818608E-02  0.1012717E+00
         21   -1    0    0  503  502  0.00000000000E+00  0.00000000000E+00  0.52260028485E+03  0.52260028485E+03  0.00000000000E+00 0. -1.
         21   -1    0    0  501  503 -0.00000000000E+00 -0.00000000000E+00 -0.12848350400E+04  0.12848350400E+04  0.00000000000E+00 0. -1.
    9000007    2    1    2  501    0  0.29386900805E+03  0.80321915127E+02 -0.10942127006E+04  0.12049239472E+04  0.40215628847E+03 0.  0.
    9000005    1    3    3    0    0  0.31547301951E+03  0.89029249918E+02 -0.11218622226E+04  0.11687708414E+04  0.99999687468E+00 0.  0.
          4    1    3    3  501    0 -0.21604011456E+02 -0.87073347901E+01  0.27649521956E+02  0.36153105738E+02  0.00000000000E+00 0.  1.
   -9000007    1    1    2    0  502 -0.29386900805E+03 -0.80321915127E+02  0.33197794547E+03  0.60251137767E+03  0.40000000000E+03 0. -1.
<mgrwt>
<rscale>  2 0.50409003E+03</rscale>
<asrwt>0</asrwt>
<pdfrwt beam="1">  1       21 0.80400044E-01 0.50451986E+03</pdfrwt>
<pdfrwt beam="2">  1       21 0.19766693E+00 0.50451986E+03</pdfrwt>
<totfact> 0.14772781E+02</totfact>
</mgrwt>
</event>
<event>
 6    1  0.9502611E-004  0.5976925E+03  0.7818608E-02  0.9910309E-01
         21   -1    0    0  503  502  0.00000000000E+00  0.00000000000E+00  0.14691813468E+04  0.14691813468E+04  0.00000000000E+00 0. -1.
         21   -1    0    0  501  503 -0.00000000000E+00 -0.00000000000E+00 -0.29948784508E+03  0.29948784508E+03  0.00000000000E+00 0.  1.
    9000007    2    1    2  501    0 -0.34371270619E+03 -0.28081711155E+03  0.20110565772E+03  0.63061862794E+03  0.40029950512E+03 0.  0.
    9000005    1    3    3    0    0 -0.21717606196E+03 -0.33922020334E+03  0.25990119534E+03  0.47935938457E+03  0.99999687468E+00 0.  0.
          4    1    3    3  501    0 -0.12653664423E+03  0.58403091785E+02 -0.58795537615E+02  0.15125924337E+03  0.00000000000E+00 0.  1.
   -9000007    1    1    2    0  502  0.34371270619E+03  0.28081711155E+03  0.96858784395E+03  0.11380505639E+04  0.40000000000E+03 0. -1.
<mgrwt>
<rscale>  2 0.59764239E+03</rscale>
<asrwt>0</asrwt>
<pdfrwt beam="1">  1       21 0.22602790E+00 0.59769254E+03</pdfrwt>
<pdfrwt beam="2">  1       21 0.46075054E-01 0.59769254E+03</pdfrwt>
<totfact> 0.31632204E+02</totfact>
</mgrwt>
</event>
<event>
 6    1  0.9502611E-004  0.4153955E+03  0.7818608E-02  0.1038697E+00
         21   -1    0    0  503  502  0.00000000000E+00  0.00000000000E+00  0.51906081091E+03  0.51906081091E+03  0.00000000000E+00 0. -1.
         21   -1    0    0  501  503 -0.00000000000E+00 -0.00000000000E+00 -0.54796174458E+03  0.54796174458E+03  0.00000000000E+00 0. -1.
    9000007    2    1    2  501    0 -0.10250621546E+03  0.45231671998E+02 -0.34994216432E+03  0.54202646014E+03  0.39847175152E+03 0.  0.
    9000005    1    3    3    0    0 -0.31804420307E+02 -0.17743651069E+03 -0.14899206906E+03  0.23386935052E+03  0.99999687468E+00 0.  0.
          4    1    3    3  501    0 -0.70701795153E+02  0.22266818269E+03 -0.20095009526E+03  0.30815710962E+03  0.00000000000E+00 0.  1.
   -9000007    1    1    2    0  502  0.10250621546E+03 -0.45231671998E+02  0.32104123065E+03  0.52499609535E+03  0.40000000000E+03 0. -1.
<mgrwt>
<rscale>  2 0.41502717E+03</rscale>
<asrwt>0</asrwt>
<pdfrwt beam="1">  1       21 0.79855510E-01 0.41539551E+03</pdfrwt>
<pdfrwt beam="2">  1       21 0.84301807E-01 0.41539551E+03</pdfrwt>
<totfact> 0.14663550E+03</totfact>
</mgrwt>
</event>
<event>
 6    1  0.9502611E-004  0.5781958E+03  0.7818608E-02  0.9951773E-01
         21   -1    0    0  503  502  0.00000000000E+00  0.00000000000E+00  0.13155325263E+03  0.13155325263E+03  0.00000000000E+00 0.  1.
         21   -1    0    0  501  503 -0.00000000000E+00 -0.00000000000E+00 -0.26544797213E+04  0.26544797213E+04  0.00000000000E+00 0.  1.
    9000007    2    1    2  501    0  0.24744802130E+03 -0.33605645625E+03 -0.15499965866E+04  0.16543276145E+04  0.40018242437E+03 0.  0.
    9000005    1    3    3    0    0  0.16957594072E+02  0.84442044907E+02 -0.13359049880E+03  0.15895106262E+03  0.99999687468E+00 0.  0.
          4    1    3    3  501    0  0.23049042723E+03 -0.42049850116E+03 -0.14164060878E+04  0.14953765519E+04  0.00000000000E+00 0.  1.
   -9000007    1    1    2    0  502 -0.24744802130E+03  0.33605645625E+03 -0.97292988213E+03  0.11317053594E+04  0.40000000000E+03 0.  1.
<mgrwt>
<rscale>  2 0.57816428E+03</rscale>
<asrwt>0</asrwt>
<pdfrwt beam="1">  1       21 0.20238962E-01 0.57819585E+03</pdfrwt>
<pdfrwt beam="2">  1       21 0.40838149E+00 0.57819585E+03</pdfrwt>
<totfact> 0.12199298E+02</totfact>
</mgrwt>
</event>
<event>
 6    1  0.9502611E-004  0.5062576E+03  0.7818608E-02  0.1012165E+00
         21   -1    0    0  503  502  0.00000000000E+00  0.00000000000E+00  0.13631754339E+03  0.13631754339E+03  0.00000000000E+00 0.  1.
         21   -1    0    0  501  503 -0.00000000000E+00 -0.00000000000E+00 -0.23899738220E+04  0.23899738220E+04  0.00000000000E+00 0. -1.
    9000007    2    1    2  501    0 -0.13156259333E+02 -0.31003812027E+03 -0.17103646869E+04  0.17836861696E+04  0.39986531014E+03 0.  0.
    9000005    1    3    3    0    0 -0.18560352687E+03 -0.16201950496E+03 -0.11996792890E+04  0.12247164511E+04  0.99999687468E+00 0.  0.
          4    1    3    3  501    0  0.17244726754E+03 -0.14801861531E+03 -0.51068539790E+03  0.55896971849E+03  0.00000000000E+00 0.  1.
   -9000007    1    1    2    0  502  0.13156259333E+02  0.31003812027E+03 -0.54329159170E+03  0.74260519577E+03  0.40000000000E+03 0.  1.
<mgrwt>
<rscale>  2 0.50623096E+03</rscale>
<asrwt>0</asrwt>
<pdfrwt beam="1">  1       21 0.20971929E-01 0.50625757E+03</pdfrwt>
<pdfrwt beam="2">  1       21 0.36768829E+00 0.50625757E+03</pdfrwt>
<totfact> 0.21550514E+02</totfact>
</mgrwt>
</event>
<event>
 6    1  0.9502611E-004  0.6655296E+03  0.7818608E-02  0.9778141E-01
         21   -1    0    0  503  502  0.00000000000E+00  0.00000000000E+00  0.55065978152E+03  0.55065978152E+03  0.00000000000E+00 0. -1.
         21   -1    0    0  501  503 -0.00000000000E+00 -0.00000000000E+00 -0.12378339972E+04  0.12378339972E+04  0.00000000000E+00 0.  1.
    9000007    2    1    2  501    0  0.20671604154E+03  0.48988082022E+03 -0.87291754153E+03  0.10976860465E+04  0.40026851305E+03 0.  0.
    9000005    1    3    3    0    0  0.13652880879E+03  0.50661201000E+03 -0.88066402422E+03  0.10251175386E+04  0.99999687468E+00 0.  0.
          4    1    3    3  501    0  0.70187232753E+02 -0.16731189779E+02  0.77464826880E+01  0.72568507956E+02  0.00000000000E+00 0.  1.
   -9000007    1    1    2    0  502 -0.20671604154E+03 -0.48988082022E+03  0.18574332581E+03  0.69080773225E+03  0.40000000000E+03 0. -1.
<mgrwt>
<rscale>  2 0.66548921E+03</rscale>
<asrwt>0</asrwt>
<pdfrwt beam="1">  1       21 0.84716891E-01 0.66552958E+03</pdfrwt>
<pdfrwt beam="2">  1       21 0.19043600E+00 0.66552958E+03</pdfrwt>
<totfact> 0.13701278E+02</totfact>
</mgrwt>
</event>
<event>
 6    1  0.9502611E-004  0.5357228E+03  0.7818608E-02  0.1004864E+00
         21   -1    0    0  503  502  0.00000000000E+00  0.00000000000E+00  0.11434121491E+03  0.11434121491E+03  0.00000000000E+00 0.  1.
         21   -1    0    0  501  503 -0.00000000000E+00 -0.00000000000E+00 -0.28756110960E+04  0.28756110960E+04  0.00000000000E+00 0.  1.
    9000007    2    1    2  501    0  0.12866731666E+03  0.33233058656E+03 -0.84677210140E+03  0.10019129135E+04  0.39975942444E+03 0.  0.
    9000005    1    3    3    0    0 -0.26614022897E+02  0.12643275127E+03 -0.13810729301E+02  0.12994338401E+03  0.99999687468E+00 0.  0.
          4    1    3    3  501    0  0.15528133956E+03  0.20589783529E+03 -0.83296137210E+03  0.87196952952E+03  0.00000000000E+00 0.  1.
   -9000007    1    1    2    0  502 -0.12866731666E+03 -0.33233058656E+03 -0.19144977797E+04  0.19880393974E+04  0.40000000000E+03 0.  1.
<mgrwt>
<rscale>  2 0.53567787E+03</rscale>
<asrwt>0</asrwt>
<pdfrwt beam="1">  1       21 0.17590956E-01 0.53572278E+03</pdfrwt>
<pdfrwt beam="2">  1       21 0.44240170E+00 0.53572278E+03</pdfrwt>
<totfact> 0.97046085E+01</totfact>
</mgrwt>
</event>
<event>
 6    1  0.9502611E-004  0.4780315E+03  0.7818608E-02  0.1019725E+00
         21   -1    0    0  503  502  0.00000000000E+00  0.00000000000E+00  0.12820690857E+03  0.12820690857E+03  0.00000000000E+00 0.  1.
         21   -1    0    0  501  503 -0.00000000000E+00 -0.00000000000E+00 -0.20235398116E+04  0.20235398116E+04  0.00000000000E+00 0. -1.
    9000007    2    1    2  501    0 -0.45257395712E+01  0.26171287473E+03 -0.13204343280E+04  0.14040686593E+04  0.39918401065E+03 0.  0.
    9000005    1    3    3    0    0  0.56457661289E+02 -0.93936091763E+02 -0.21657435870E+03  0.24272805708E+03  0.99999687468E+00 0.  0.
          4    1    3    3  501    0 -0.60983400860E+02  0.35564896650E+03 -0.11038599693E+04  0.11613406023E+04  0.00000000000E+00 0.  1.
   -9000007    1    1    2    0  502  0.45257395712E+01 -0.26171287473E+03 -0.57489857496E+03  0.74767806081E+03  0.40000000000E+03 0.  1.
<mgrwt>
<rscale>  2 0.47786076E+03</rscale>
<asrwt>0</asrwt>
<pdfrwt beam="1">  1       21 0.19724141E-01 0.47803150E+03</pdfrwt>
<pdfrwt beam="2">  1       21 0.31131380E+00 0.47803150E+03</pdfrwt>
<totfact> 0.54517681E+02</totfact>
</mgrwt>
</event>
<event>
 6    1  0.9502611E-004  0.4562624E+03  0.7818608E-02  0.1025887E+00
         21   -1    0    0  503  502  0.00000000000E+00  0.00000000000E+00  0.43759981530E+03  0.43759981530E+03  0.00000000000E+00 0.  1.
         21   -1    0    0  501  503 -0.00000000000E+00 -0.00000000000E+00 -0.48114940321E+03  0.48114940321E+03  0.00000000000E+00 0. -1.
    9000007    2    1    2  501    0 -0.21863258309E+03 -0.13251619876E+02 -0.71588426066E+02  0.46184442726E+03  0.40024937279E+03 0.  0.
    9000005    1    3    3    0    0  0.57957264193E+02 -0.11590228145E+03  0.55039789906E+02  0.14079333004E+03  0.99999687468E+00 0.  0.
          4    1    3    3  501    0 -0.27658984728E+03  0.10265066157E+03 -0.12662821597E+03  0.32105109721E+03  0.00000000000E+00 0.  1.
   -9000007    1    1    2    0  502  0.21863258309E+03  0.13251619876E+02  0.28038838157E+02  0.45690479125E+03  0.40000000000E+03 0.  1.
<mgrwt>
<rscale>  2 0.45620770E+03</rscale>
<asrwt>0</asrwt>
<pdfrwt beam="1">  1       21 0.67323049E-01 0.45626239E+03</pdfrwt>
<pdfrwt beam="2">  1       21 0.74022985E-01 0.45626239E+03</pdfrwt>
<totfact> 0.28691440E+03</totfact>
</mgrwt>
</event>
<event>
 6    1  0.9502611E-004  0.4586705E+03  0.7818608E-02  0.1025190E+00
         21   -1    0    0  503  502  0.00000000000E+00  0.00000000000E+00  0.13008491645E+04  0.13008491645E+04  0.00000000000E+00 0. -1.
         21   -1    0    0  501  503 -0.00000000000E+00 -0.00000000000E+00 -0.16161745242E+03  0.16161745242E+03  0.00000000000E+00 0.  1.
    9000007    2    1    2  501    0 -0.21823042445E+03 -0.49760517936E+02  0.57071155890E+03  0.73218188349E+03  0.40034734887E+03 0.  0.
    9000005    1    3    3    0    0 -0.13013830805E+03 -0.56616798572E+02  0.61652701129E+03  0.63265156030E+03  0.99999687468E+00 0.  0.
          4    1    3    3  501    0 -0.88092116400E+02  0.68562806367E+01 -0.45815452393E+02  0.99530323189E+02  0.00000000000E+00 0.  1.
   -9000007    1    1    2    0  502  0.21823042445E+03  0.49760517936E+02  0.56852015317E+03  0.73028473342E+03  0.40000000000E+03 0.  1.
<mgrwt>
<rscale>  2 0.45859469E+03</rscale>
<asrwt>0</asrwt>
<pdfrwt beam="1">  1       21 0.20013063E+00 0.45867050E+03</pdfrwt>
<pdfrwt beam="2">  1       21 0.24864224E-01 0.45867050E+03</pdfrwt>
<totfact> 0.17229793E+03</totfact>
</mgrwt>
</event>
<event>
 6    1  0.9502611E-004  0.4129131E+03  0.7818608E-02  0.1039454E+00
         21   -1    0    0  503  502  0.00000000000E+00  0.00000000000E+00  0.16584300860E+03  0.16584300860E+03  0.00000000000E+00 0. -1.
         21   -1    0    0  501  503 -0.00000000000E+00 -0.00000000000E+00 -0.10667258792E+04  0.10667258792E+04  0.00000000000E+00 0. -1.
    9000007    2    1    2  501    0  0.52127269509E+02 -0.88204317827E+02 -0.56993361781E+03  0.70339532288E+03  0.39930364089E+03 0.  0.
    9000005    1    3    3    0    0  0.99893024213E+02 -0.23556943810E+03 -0.38308311111E+03  0.46067911442E+03  0.99999687468E+00 0.  0.
          4    1    3    3  501    0 -0.47765754704E+02  0.14736512027E+03 -0.18685050670E+03  0.24271620846E+03  0.00000000000E+00 0.  1.
   -9000007    1    1    2    0  502 -0.52127269509E+02  0.88204317827E+02 -0.33094925283E+03  0.52917356497E+03  0.40000000000E+03 0. -1.
<mgrwt>
<rscale>  2 0.41274439E+03</rscale>
<asrwt>0</asrwt>
<pdfrwt beam="1">  1       21 0.25514309E-01 0.41291313E+03</pdfrwt>
<pdfrwt beam="2">  1       21 0.16411167E+00 0.41291313E+03</pdfrwt>
<totfact> 0.29875201E+03</totfact>
</mgrwt>
</event>
<event>
 6    1  0.9502611E-004  0.5959956E+03  0.7818608E-02  0.9914135E-01
         21   -1    0    0  503  502  0.00000000000E+00  0.00000000000E+00  0.17077913352E+04  0.17077913352E+04  0.00000000000E+00 0. -1.
         21   -1    0    0  501  503 -0.00000000000E+00 -0.00000000000E+00 -0.31874557281E+03  0.31874557281E+03  0.00000000000E+00 0.  1.
    9000007    2    1    2  501    0  0.38923560869E+03  0.20906061994E+03  0.96270731095E+02  0.60299274521E+03  0.39890035752E+03 0.  0.
    9000005    1    3    3    0    0  0.29125439498E+03  0.31075154044E+03  0.15051256668E+03  0.45171968653E+03  0.99999687468E+00 0.  0.
          4    1    3    3  501    0  0.97981213717E+02 -0.10169092051E+03 -0.54241835582E+02  0.15127305868E+03  0.00000000000E+00 0.  1.
   -9000007    1    1    2    0  502 -0.38923560869E+03 -0.20906061994E+03  0.12927750313E+04  0.14235441628E+04  0.40000000000E+03 0. -1.
<mgrwt>
<rscale>  2 0.59581110E+03</rscale>
<asrwt>0</asrwt>
<pdfrwt beam="1">  1       21 0.26273712E+00 0.59599556E+03</pdfrwt>
<pdfrwt beam="2">  1       21 0.49037782E-01 0.59599556E+03</pdfrwt>
<totfact> 0.16328008E+02</totfact>
</mgrwt>
</event>
<event>
 6    1  0.9502611E-004  0.4127452E+03  0.7818608E-02  0.1039517E+00
         21   -1    0    0  503  502  0.00000000000E+00  0.00000000000E+00  0.82626936982E+03  0.82626936982E+03  0.00000000000E+00 0. -1.
         21   -1    0    0  501  503 -0.00000000000E+00 -0.00000000000E+00 -0.45452476794E+03  0.45452476794E+03  0.00000000000E+00 0. -1.
    9000007    2    1    2  501    0  0.94838900541E+02 -0.27230940386E+02 -0.28777862632E+03  0.50316515828E+03  0.40077761611E+03 0.  0.
    9000005    1    3    3    0    0 -0.88547108363E+02 -0.84597077433E+01 -0.30529475900E+03  0.31799063968E+03  0.99999687468E+00 0.  0.
          4    1    3    3  501    0  0.18338600890E+03 -0.18771232643E+02  0.17516132682E+02  0.18517451861E+03  0.00000000000E+00 0.  1.
   -9000007    1    1    2    0  502 -0.94838900541E+02  0.27230940386E+02  0.65952322821E+03  0.77762897947E+03  0.40000000000E+03 0. -1.
<mgrwt>
<rscale>  2 0.41255636E+03</rscale>
<asrwt>0</asrwt>
<pdfrwt beam="1">  1       21 0.12711836E+00 0.41274525E+03</pdfrwt>
<pdfrwt beam="2">  1       21 0.69926888E-01 0.41274525E+03</pdfrwt>
<totfact> 0.72744868E+02</totfact>
</mgrwt>
</event>
<event>
 6    1  0.9502611E-004  0.4153966E+03  0.7818608E-02  0.1038616E+00
         21   -1    0    0  503  502  0.00000000000E+00  0.00000000000E+00  0.13849995674E+04  0.13849995674E+04  0.00000000000E+00 0. -1.
         21   -1    0    0  501  503 -0.00000000000E+00 -0.00000000000E+00 -0.12462087645E+03  0.12462087645E+03  0.00000000000E+00 0. -1.
    9000007    2    1    2  501    0 -0.10882783273E+03 -0.17191188542E+02  0.60165655574E+03  0.73112581603E+03  0.40051880563E+03 0.  0.
    9000005    1    3    3    0    0 -0.66245482766E+02 -0.14319599761E+03  0.57398030465E+03  0.59527132287E+03  0.99999687468E+00 0.  0.
          4    1    3    3  501    0 -0.42582349960E+02  0.12600480907E+03  0.27676251089E+02  0.13585449316E+03  0.00000000000E+00 0.  1.
   -9000007    1    1    2    0  502  0.10882783273E+03  0.17191188542E+02  0.65872213526E+03  0.77849462787E+03  0.40000000000E+03 0.  1.
<mgrwt>
<rscale>  2 0.41527151E+03</rscale>
<asrwt>0</asrwt>
<pdfrwt beam="1">  1       21 0.21307685E+00 0.41539662E+03</pdfrwt>
<pdfrwt beam="2">  1       21 0.19172444E-01 0.41539662E+03</pdfrwt>
<totfact> 0.23784681E+03</totfact>
</mgrwt>
</event>
<event>
 6    1  0.9502611E-004  0.4970000E+03  0.7818608E-02  0.1014598E+00
         21   -1    0    0  503  502  0.00000000000E+00  0.00000000000E+00  0.18069433630E+04  0.18069433630E+04  0.00000000000E+00 0. -1.
         21   -1    0    0  501  503 -0.00000000000E+00 -0.00000000000E+00 -0.32006193573E+03  0.32006193573E+03  0.00000000000E+00 0. -1.
    9000007    2    1    2  501    0 -0.16626095904E+03 -0.24262925416E+03 -0.61665134217E+02  0.50081093318E+03  0.40062119333E+03 0.  0.
    9000005    1    3    3    0    0  0.72453931624E+02 -0.22973686282E+03  0.34071681912E+02  0.24329093252E+03  0.99999687468E+00 0.  0.
          4    1    3    3  501    0 -0.23871489066E+03 -0.12892391340E+02 -0.95736816129E+02  0.25752000066E+03  0.00000000000E+00 0.  1.
   -9000007    1    1    2    0  502  0.16626095904E+03  0.24262925416E+03  0.15485465615E+04  0.16261943656E+04  0.40000000000E+03 0. -1.
<mgrwt>
<rscale>  2 0.49687481E+03</rscale>
<asrwt>0</asrwt>
<pdfrwt beam="1">  1       21 0.27799128E+00 0.49700000E+03</pdfrwt>
<pdfrwt beam="2">  1       21 0.49240299E-01 0.49700000E+03</pdfrwt>
<totfact> 0.13706894E+02</totfact>
</mgrwt>
</event>
<event>
 6    1  0.9502611E-004  0.4789339E+03  0.7818608E-02  0.1019451E+00
         21   -1    0    0  503  502  0.00000000000E+00  0.00000000000E+00  0.23940771221E+04  0.23940771221E+04  0.00000000000E+00 0.  1.
         21   -1    0    0  501  503 -0.00000000000E+00 -0.00000000000E+00 -0.22138318534E+03  0.22138318534E+03  0.00000000000E+00 0.  1.
    9000007    2    1    2  501    0 -0.17918322228E+03 -0.19224366305E+03  0.10134791682E+03  0.48953966277E+03  0.40039159338E+03 0.  0.
    9000005    1    3    3    0    0 -0.86615410320E+02 -0.30609819376E+03  0.13263235973E+02  0.31839479731E+03  0.99999687468E+00 0.  0.
          4    1    3    3  501    0 -0.92567811958E+02  0.11385453071E+03  0.88084680846E+02  0.17114486546E+03  0.00000000000E+00 0.  1.
   -9000007    1    1    2    0  502  0.17918322228E+03  0.19224366305E+03  0.20713460200E+04  0.21259206447E+04  0.40000000000E+03 0.  1.
<mgrwt>
<rscale>  2 0.47885205E+03</rscale>
<asrwt>0</asrwt>
<pdfrwt beam="1">  1       21 0.36831954E+00 0.47893390E+03</pdfrwt>
<pdfrwt beam="2">  1       21 0.34058953E-01 0.47893390E+03</pdfrwt>
<totfact> 0.83726187E+01</totfact>
</mgrwt>
</event>
<event>
 6    1  0.9502611E-004  0.4921954E+03  0.7818608E-02  0.1015847E+00
         21   -1    0    0  503  502  0.00000000000E+00  0.00000000000E+00  0.11125372524E+04  0.11125372524E+04  0.00000000000E+00 0. -1.
         21   -1    0    0  501  503 -0.00000000000E+00 -0.00000000000E+00 -0.24247658318E+03  0.24247658318E+03  0.00000000000E+00 0. -1.
    9000007    2    1    2  501    0  0.18611017580E+03  0.21784835302E+03  0.21843138622E+03  0.53848727453E+03  0.40020166403E+03 0.  0.
    9000005    1    3    3    0    0  0.11245986347E+03  0.28216942673E+03  0.50838846738E+01  0.30379870334E+03  0.99999687468E+00 0.  0.
          4    1    3    3  501    0  0.73650312330E+02 -0.64321073714E+02  0.21334750155E+03  0.23468857119E+03  0.00000000000E+00 0.  1.
   -9000007    1    1    2    0  502 -0.18611017580E+03 -0.21784835302E+03  0.65162928299E+03  0.81652656104E+03  0.40000000000E+03 0. -1.
<mgrwt>
<rscale>  2 0.49215437E+03</rscale>
<asrwt>0</asrwt>
<pdfrwt beam="1">  1       21 0.17115957E+00 0.49219536E+03</pdfrwt>
<pdfrwt beam="2">  1       21 0.37304090E-01 0.49219536E+03</pdfrwt>
<totfact> 0.12039091E+03</totfact>
</mgrwt>
</event>
<event>
 6    1  0.9502611E-004  0.4053695E+03  0.7818608E-02  0.1041966E+00
         21   -1    0    0  503  502  0.00000000000E+00  0.00000000000E+00  0.99710067384E+03  0.99710067384E+03  0.00000000000E+00 0.  1.
         21   -1    0    0  501  503 -0.00000000000E+00 -0.00000000000E+00 -0.19259647482E+03  0.19259647482E+03  0.00000000000E+00 0.  1.
    9000007    2    1    2  501    0 -0.21918930811E+02  0.62000117243E+02  0.17555513650E+03  0.44143156926E+03  0.39964705719E+03 0.  0.
    9000005    1    3    3    0    0  0.11750448106E+03 -0.81090037613E+02  0.19391599610E+03  0.24080554563E+03  0.99999687468E+00 0.  0.
          4    1    3    3  501    0 -0.13942341187E+03  0.14309015486E+03 -0.18360859601E+02  0.20062602363E+03  0.00000000000E+00 0.  1.
   -9000007    1    1    2    0  502  0.21918930811E+02 -0.62000117243E+02  0.62894906252E+03  0.74826557939E+03  0.40000000000E+03 0.  1.
<mgrwt>
<rscale>  2 0.40528243E+03</rscale>
<asrwt>0</asrwt>
<pdfrwt beam="1">  1       21 0.15340010E+00 0.40536953E+03</pdfrwt>
<pdfrwt beam="2">  1       21 0.29630227E-01 0.40536953E+03</pdfrwt>
<totfact> 0.26935992E+03</totfact>
</mgrwt>
</event>
<event>
 6    1  0.9502611E-004  0.4966439E+03  0.7818608E-02  0.1014758E+00
         21   -1    0    0  503  502  0.00000000000E+00  0.00000000000E+00  0.99574845651E+03  0.99574845651E+03  0.00000000000E+00 0. -1.
         21   -1    0    0  501  503 -0.00000000000E+00 -0.00000000000E+00 -0.29908258342E+03  0.29908258342E+03  0.00000000000E+00 0.  1.
    9000007    2    1    2  501    0 -0.13862627624E+03 -0.25680475398E+03  0.78496855300E+02  0.50280903222E+03  0.40185723891E+03 0.  0.
    9000005    1    3    3    0    0  0.10016156189E+03 -0.19265814808E+03  0.12597481507E+03  0.25103815353E+03  0.99999687468E+00 0.  0.
          4    1    3    3  501    0 -0.23878783814E+03 -0.64146605897E+02 -0.47477959771E+02  0.25177087869E+03  0.00000000000E+00 0.  1.
   -9000007    1    1    2    0  502  0.13862627624E+03  0.25680475398E+03  0.61816901779E+03  0.79202200771E+03  0.40000000000E+03 0.  1.
<mgrwt>
<rscale>  2 0.49626808E+03</rscale>
<asrwt>0</asrwt>
<pdfrwt beam="1">  1       21 0.15319207E+00 0.49664390E+03</pdfrwt>
<pdfrwt beam="2">  1       21 0.46012706E-01 0.49664390E+03</pdfrwt>
<totfact> 0.10616315E+03</totfact>
</mgrwt>
</event>
<event>
 6    1  0.9502611E-004  0.4183342E+03  0.7818608E-02  0.1037647E+00
         21   -1    0    0  503  502  0.00000000000E+00  0.00000000000E+00  0.78740638129E+03  0.78740638129E+03  0.00000000000E+00 0. -1.
         21   -1    0    0  501  503 -0.00000000000E+00 -0.00000000000E+00 -0.22715900230E+03  0.22715900230E+03  0.00000000000E+00 0. -1.
    9000007    2    1    2  501    0 -0.11187539872E+03 -0.49873816749E+02  0.20362352228E+03  0.46485266078E+03  0.39952716425E+03 0.  0.
    9000005    1    3    3    0    0  0.61370094768E+02 -0.17229565386E+03  0.17069104138E+03  0.25017696231E+03  0.99999687468E+00 0.  0.
          4    1    3    3  501    0 -0.17324549349E+03  0.12242183711E+03  0.32932480904E+02  0.21467569847E+03  0.00000000000E+00 0.  1.
   -9000007    1    1    2    0  502  0.11187539872E+03  0.49873816749E+02  0.35662385671E+03  0.54971272281E+03  0.40000000000E+03 0. -1.
<mgrwt>
<rscale>  2 0.41822113E+03</rscale>
<asrwt>0</asrwt>
<pdfrwt beam="1">  1       21 0.12113944E+00 0.41833420E+03</pdfrwt>
<pdfrwt beam="2">  1       21 0.34947539E-01 0.41833420E+03</pdfrwt>
<totfact> 0.35840515E+03</totfact>
</mgrwt>
</event>
<event>
 6    1  0.9502611E-004  0.5720624E+03  0.7818608E-02  0.9965240E-01
         21   -1    0    0  503  502  0.00000000000E+00  0.00000000000E+00  0.42371996544E+03  0.42371996544E+03  0.00000000000E+00 0. -1.
         21   -1    0    0  501  503 -0.00000000000E+00 -0.00000000000E+00 -0.78445761078E+03  0.78445761078E+03  0.00000000000E+00 0. -1.
    9000007    2    1    2  501    0  0.33115331271E+02 -0.40762581676E+03 -0.25628613462E+03  0.62665754239E+03  0.39970196519E+03 0.  0.
    9000005    1    3    3    0    0  0.68254388125E+02 -0.33553735036E+03  0.16022521364E+02  0.34278520413E+03  0.99999687468E+00 0.  0.
          4    1    3    3  501    0 -0.35139056854E+02 -0.72088466402E+02 -0.27230865599E+03  0.28387233826E+03  0.00000000000E+00 0.  1.
   -9000007    1    1    2    0  502 -0.33115331271E+02  0.40762581676E+03 -0.10445151071E+03  0.58152003383E+03  0.40000000000E+03 0. -1.
<mgrwt>
<rscale>  2 0.57201034E+03</rscale>
<asrwt>0</asrwt>
<pdfrwt beam="1">  1       21 0.65187688E-01 0.57206244E+03</pdfrwt>
<pdfrwt beam="2">  1       21 0.12068579E+00 0.57206244E+03</pdfrwt>
<totfact> 0.91402489E+02</totfact>
</mgrwt>
</event>
<event>
 6    1  0.9502611E-004  0.4963466E+03  0.7818608E-02  0.1014784E+00
         21   -1    0    0  503  502  0.00000000000E+00  0.00000000000E+00  0.11813001588E+04  0.11813001588E+04  0.00000000000E+00 0. -1.
         21   -1    0    0  501  503 -0.00000000000E+00 -0.00000000000E+00 -0.36418479903E+03  0.36418479903E+03  0.00000000000E+00 0. -1.
    9000007    2    1    2  501    0  0.18081849636E+03 -0.23012376310E+03 -0.96918541923E+02  0.50572044199E+03  0.40088363238E+03 0.  0.
    9000005    1    3    3    0    0  0.87923430465E+02 -0.17312792212E+03 -0.25078120504E+03  0.31716875609E+03  0.99999687468E+00 0.  0.
          4    1    3    3  501    0  0.92895065894E+02 -0.56995840974E+02  0.15386266311E+03  0.18855168590E+03  0.00000000000E+00 0.  1.
   -9000007    1    1    2    0  502 -0.18081849636E+03  0.23012376310E+03  0.91403390172E+03  0.10397645159E+04  0.40000000000E+03 0. -1.
<mgrwt>
<rscale>  2 0.49616817E+03</rscale>
<asrwt>0</asrwt>
<pdfrwt beam="1">  1       21 0.18173848E+00 0.49634661E+03</pdfrwt>
<pdfrwt beam="2">  1       21 0.56028431E-01 0.49634661E+03</pdfrwt>
<totfact> 0.42885718E+02</totfact>
</mgrwt>
</event>
<event>
 6    1  0.9502611E-004  0.5755069E+03  0.7818608E-02  0.9958033E-01
         21   -1    0    0  503  502  0.00000000000E+00  0.00000000000E+00  0.20675186591E+03  0.20675186591E+03  0.00000000000E+00 0.  1.
         21   -1    0    0  501  503 -0.00000000000E+00 -0.00000000000E+00 -0.16002261650E+04  0.16002261650E+04  0.00000000000E+00 0. -1.
    9000007    2    1    2  501    0 -0.41172721641E+03 -0.41096577648E+02 -0.67811572508E+03  0.88885705912E+03  0.39877024152E+03 0.  0.
    9000005    1    3    3    0    0 -0.22334805539E+03 -0.16954249890E+03 -0.57270184740E+03  0.63766560107E+03  0.99999687468E+00 0.  0.
          4    1    3    3  501    0 -0.18837916101E+03  0.12844592125E+03 -0.10541387768E+03  0.25119145805E+03  0.00000000000E+00 0.  1.
   -9000007    1    1    2    0  502  0.41172721641E+03  0.41096577648E+02 -0.71535857405E+03  0.91812097182E+03  0.40000000000E+03 0.  1.
<mgrwt>
<rscale>  2 0.57529330E+03</rscale>
<asrwt>0</asrwt>
<pdfrwt beam="1">  1       21 0.31807979E-01 0.57550693E+03</pdfrwt>
<pdfrwt beam="2">  1       21 0.24618864E+00 0.57550693E+03</pdfrwt>
<totfact> 0.51077342E+02</totfact>
</mgrwt>
</event>
<event>
 6    1  0.9502611E-004  0.4352286E+03  0.7818608E-02  0.1032328E+00
         21   -1    0    0  503  502  0.00000000000E+00  0.00000000000E+00  0.80969040693E+03  0.80969040693E+03  0.00000000000E+00 0. -1.
         21   -1    0    0  501  503 -0.00000000000E+00 -0.00000000000E+00 -0.32335923926E+03  0.32335923926E+03  0.00000000000E+00 0. -1.
    9000007    2    1    2  501    0  0.10432284823E+03  0.13170791416E+03 -0.55687816598E+02  0.43877678152E+03  0.40148935200E+03 0.  0.
    9000005    1    3    3    0    0 -0.83050549086E+02 -0.90089730887E+02 -0.81685680591E+02  0.14726541930E+03  0.99999687468E+00 0.  0.
          4    1    3    3  501    0  0.18737339732E+03  0.22179764504E+03  0.25997863993E+02  0.29151136221E+03  0.00000000000E+00 0.  1.
   -9000007    1    1    2    0  502 -0.10432284823E+03 -0.13170791416E+03  0.54201898427E+03  0.69427286468E+03  0.40000000000E+03 0. -1.
<mgrwt>
<rscale>  2 0.43488481E+03</rscale>
<asrwt>0</asrwt>
<pdfrwt beam="1">  1       21 0.12456775E+00 0.43522860E+03</pdfrwt>
<pdfrwt beam="2">  1       21 0.49747576E-01 0.43522860E+03</pdfrwt>
<totfact> 0.15957392E+03</totfact>
</mgrwt>
</event>
<event>
 6    1  0.9502611E-004  0.5146453E+03  0.7818608E-02  0.1010062E+00
         21   -1    0    0  503  502  0.00000000000E+00  0.00000000000E+00  0.44233008542E+03  0.44233008542E+03  0.00000000000E+00 0. -1.
         21   -1    0    0  501  503 -0.00000000000E+00 -0.00000000000E+00 -0.59969053239E+03  0.59969053239E+03  0.00000000000E+00 0. -1.
    9000007    2    1    2  501    0  0.36213285654E+02  0.32178936068E+03 -0.10533905237E+03  0.52475277598E+03  0.39926102394E+03 0.  0.
    9000005    1    3    3    0    0 -0.12137337034E+03  0.31839037329E+03 -0.13099668854E+03  0.36505486880E+03  0.99999687468E+00 0.  0.
          4    1    3    3  501    0  0.15758665600E+03  0.33989873874E+01  0.25657636170E+02  0.15969790718E+03  0.00000000000E+00 0.  1.
   -9000007    1    1    2    0  502 -0.36213285654E+02 -0.32178936068E+03 -0.52021394602E+02  0.51726784184E+03  0.40000000000E+03 0. -1.
<mgrwt>
<rscale>  2 0.51450171E+03</rscale>
<asrwt>0</asrwt>
<pdfrwt beam="1">  1       21 0.68050783E-01 0.51464531E+03</pdfrwt>
<pdfrwt beam="2">  1       21 0.92260082E-01 0.51464531E+03</pdfrwt>
<totfact> 0.16430248E+03</totfact>
</mgrwt>
</event>
<event>
 6    1  0.9502611E-004  0.4048801E+03  0.7818608E-02  0.1042135E+00
         21   -1    0    0  503  502  0.00000000000E+00  0.00000000000E+00  0.18235831153E+03  0.18235831153E+03  0.00000000000E+00 0. -1.
         21   -1    0    0  501  503 -0.00000000000E+00 -0.00000000000E+00 -0.94905276075E+03  0.94905276075E+03  0.00000000000E+00 0. -1.
    9000007    2    1    2  501    0  0.17701407023E+02 -0.57523305175E+02 -0.51460089158E+03  0.65478393053E+03  0.40038187724E+03 0.  0.
    9000005    1    3    3    0    0 -0.30391683398E+02 -0.14134858486E+03 -0.14360414350E+02  0.14529383454E+03  0.99999687468E+00 0.  0.
          4    1    3    3  501    0  0.48093090422E+02  0.83825279682E+02 -0.50024047723E+03  0.50949009599E+03  0.00000000000E+00 0.  1.
   -9000007    1    1    2    0  502 -0.17701407023E+02  0.57523305175E+02 -0.25209355764E+03  0.47662714175E+03  0.40000000000E+03 0. -1.
<mgrwt>
<rscale>  2 0.40478569E+03</rscale>
<asrwt>0</asrwt>
<pdfrwt beam="1">  1       21 0.28055125E-01 0.40488013E+03</pdfrwt>
<pdfrwt beam="2">  1       21 0.14600812E+00 0.40488013E+03</pdfrwt>
<totfact> 0.34295317E+03</totfact>
</mgrwt>
</event>
<event>
 6    1  0.9502611E-004  0.4054131E+03  0.7818608E-02  0.1041934E+00
         21   -1    0    0  503  502  0.00000000000E+00  0.00000000000E+00  0.19399340123E+03  0.19399340123E+03  0.00000000000E+00 0. -1.
         21   -1    0    0  501  503 -0.00000000000E+00 -0.00000000000E+00 -0.12434779588E+04  0.12434779588E+04  0.00000000000E+00 0. -1.
    9000007    2    1    2  501    0 -0.52835682374E+02 -0.39600162217E+02 -0.93055866397E+03  0.10149750283E+04  0.39984384294E+03 0.  0.
    9000005    1    3    3    0    0  0.11157696618E+03 -0.16185264605E+03 -0.52505467985E+03  0.56065061780E+03  0.99999687468E+00 0.  0.
          4    1    3    3  501    0 -0.16441264856E+03  0.12225248383E+03 -0.40550398412E+03  0.45432441046E+03  0.00000000000E+00 0.  1.
   -9000007    1    1    2    0  502  0.52835682374E+02  0.39600162217E+02 -0.11892589361E+03  0.42249633176E+03  0.40000000000E+03 0. -1.
<mgrwt>
<rscale>  2 0.40537458E+03</rscale>
<asrwt>0</asrwt>
<pdfrwt beam="1">  1       21 0.29845139E-01 0.40541310E+03</pdfrwt>
<pdfrwt beam="2">  1       21 0.19130430E+00 0.40541310E+03</pdfrwt>
<totfact> 0.14143260E+03</totfact>
</mgrwt>
</event>
<event>
 6    1  0.9502611E-004  0.6394409E+03  0.7818608E-02  0.9826938E-01
         21   -1    0    0  503  502  0.00000000000E+00  0.00000000000E+00  0.41857641905E+03  0.41857641905E+03  0.00000000000E+00 0.  1.
         21   -1    0    0  501  503 -0.00000000000E+00 -0.00000000000E+00 -0.98003041559E+03  0.98003041559E+03  0.00000000000E+00 0. -1.
    9000007    2    1    2  501    0  0.66020832083E+02  0.49449559868E+03 -0.23807625434E+03  0.68204712915E+03  0.39952889273E+03 0.  0.
    9000005    1    3    3    0    0 -0.59329548650E+02  0.33671700105E+03 -0.31640769471E+03  0.46584671664E+03  0.99999687468E+00 0.  0.
          4    1    3    3  501    0  0.12535038073E+03  0.15777859763E+03  0.78331440372E+02  0.21620041251E+03  0.00000000000E+00 0.  1.
   -9000007    1    1    2    0  502 -0.66020832083E+02 -0.49449559868E+03 -0.32337774220E+03  0.71655970549E+03  0.40000000000E+03 0. -1.
<mgrwt>
<rscale>  2 0.63936723E+03</rscale>
<asrwt>0</asrwt>
<pdfrwt beam="1">  1       21 0.64396372E-01 0.63944089E+03</pdfrwt>
<pdfrwt beam="2">  1       21 0.15077391E+00 0.63944089E+03</pdfrwt>
<totfact> 0.50931890E+02</totfact>
</mgrwt>
</event>
<event>
 6    1  0.9502611E-004  0.4663591E+03  0.7818608E-02  0.1022969E+00
         21   -1    0    0  503  502  0.00000000000E+00  0.00000000000E+00  0.80827874934E+03  0.80827874934E+03  0.00000000000E+00 0.  1.
         21   -1    0    0  501  503 -0.00000000000E+00 -0.00000000000E+00 -0.26900641048E+03  0.26900641048E+03  0.00000000000E+00 0.  1.
    9000007    2    1    2  501    0 -0.19954956731E+03  0.13214180342E+03  0.26186244567E+03  0.53484831109E+03  0.40026152626E+03 0.  0.
    9000005    1    3    3    0    0 -0.15488697342E+03  0.81365062485E+02  0.36887209810E+03  0.40826201474E+03  0.99999687468E+00 0.  0.
          4    1    3    3  501    0 -0.44662593882E+02  0.50776740936E+02 -0.10700965243E+03  0.12658629635E+03  0.00000000000E+00 0.  1.
   -9000007    1    1    2    0  502  0.19954956731E+03 -0.13214180342E+03  0.27740989319E+03  0.54243684873E+03  0.40000000000E+03 0. -1.
<mgrwt>
<rscale>  2 0.46630294E+03</rscale>
<asrwt>0</asrwt>
<pdfrwt beam="1">  1       21 0.12435058E+00 0.46635906E+03</pdfrwt>
<pdfrwt beam="2">  1       21 0.41385602E-01 0.46635906E+03</pdfrwt>
<totfact> 0.23298461E+03</totfact>
</mgrwt>
</event>
<event>
 6    1  0.9502611E-004  0.4506276E+03  0.7818608E-02  0.1027926E+00
         21   -1    0    0  503  502  0.00000000000E+00  0.00000000000E+00  0.26190818707E+03  0.26190818707E+03  0.00000000000E+00 0. -1.
         21   -1    0    0  501  503 -0.00000000000E+00 -0.00000000000E+00 -0.85961090428E+03  0.85961090428E+03  0.00000000000E+00 0.  1.
    9000007    2    1    2  501    0  0.19490982232E+03  0.19840921033E+02 -0.11571997800E+03  0.46524867309E+03  0.40580994754E+03 0.  0.
    9000005    1    3    3    0    0  0.22189208838E+03  0.92970337896E+02 -0.22607736296E+03  0.33013869305E+03  0.99999687468E+00 0.  0.
          4    1    3    3  501    0 -0.26982266061E+02 -0.73129416863E+02  0.11035738496E+03  0.13510998004E+03  0.00000000000E+00 0.  1.
   -9000007    1    1    2    0  502 -0.19490982232E+03 -0.19840921033E+02 -0.48198273922E+03  0.65627041826E+03  0.40000000000E+03 0.  1.
<mgrwt>
<rscale>  2 0.44931562E+03</rscale>
<asrwt>0</asrwt>
<pdfrwt beam="1">  1       21 0.40293568E-01 0.45062758E+03</pdfrwt>
<pdfrwt beam="2">  1       21 0.13224783E+00 0.45062758E+03</pdfrwt>
<totfact> 0.21120072E+03</totfact>
</mgrwt>
</event>
<event>
 6    1  0.9502611E-004  0.4862162E+03  0.7818608E-02  0.1017464E+00
         21   -1    0    0  503  502  0.00000000000E+00  0.00000000000E+00  0.14597040371E+03  0.14597040371E+03  0.00000000000E+00 0. -1.
         21   -1    0    0  501  503 -0.00000000000E+00 -0.00000000000E+00 -0.19708678276E+04  0.19708678276E+04  0.00000000000E+00 0. -1.
    9000007    2    1    2  501    0 -0.22821528993E+03 -0.15596145312E+03 -0.13597760900E+04  0.14439756534E+04  0.39958538440E+03 0.  0.
    9000005    1    3    3    0    0 -0.35084745173E+02 -0.10798027311E+03 -0.11471359690E+04  0.11527413457E+04  0.99999687468E+00 0.  0.
          4    1    3    3  501    0 -0.19313054476E+03 -0.47981180015E+02 -0.21264012098E+03  0.29123430774E+03  0.00000000000E+00 0.  1.
   -9000007    1    1    2    0  502  0.22821528993E+03  0.15596145312E+03 -0.46512133389E+03  0.67286257784E+03  0.40000000000E+03 0. -1.
<mgrwt>
<rscale>  2 0.48613092E+03</rscale>
<asrwt>0</asrwt>
<pdfrwt beam="1">  1       21 0.22456988E-01 0.48621620E+03</pdfrwt>
<pdfrwt beam="2">  1       21 0.30321040E+00 0.48621620E+03</pdfrwt>
<totfact> 0.47378271E+02</totfact>
</mgrwt>
</event>
<event>
 6    1  0.9502611E-004  0.5896813E+03  0.7818608E-02  0.9927191E-01
         21   -1    0    0  503  502  0.00000000000E+00  0.00000000000E+00  0.21429077572E+03  0.21429077572E+03  0.00000000000E+00 0. -1.
         21   -1    0    0  501  503 -0.00000000000E+00 -0.00000000000E+00 -0.18049336363E+04  0.18049336363E+04  0.00000000000E+00 0.  1.
    9000007    2    1    2  501    0 -0.11300310023E+03 -0.41827545117E+03 -0.11166347284E+04  0.12626480688E+04  0.39960352266E+03 0.  0.
    9000005    1    3    3    0    0 -0.23610463030E+03 -0.34080467620E+03 -0.62550929858E+03  0.75043727677E+03  0.99999687468E+00 0.  0.
          4    1    3    3  501    0  0.12310153007E+03 -0.77470774971E+02 -0.49112542979E+03  0.51221079203E+03  0.00000000000E+00 0.  1.
   -9000007    1    1    2    0  502  0.11300310023E+03  0.41827545117E+03 -0.47400813221E+03  0.75657634322E+03  0.40000000000E+03 0. -1.
<mgrwt>
<rscale>  2 0.58961409E+03</rscale>
<asrwt>0</asrwt>
<pdfrwt beam="1">  1       21 0.32967813E-01 0.58968132E+03</pdfrwt>
<pdfrwt beam="2">  1       21 0.27768209E+00 0.58968132E+03</pdfrwt>
<totfact> 0.30218616E+02</totfact>
</mgrwt>
</event>
<event>
 6    1  0.9502611E-004  0.4162056E+03  0.7818608E-02  0.1038314E+00
         21   -1    0    0  503  502  0.00000000000E+00  0.00000000000E+00  0.79812005159E+03  0.79812005159E+03  0.00000000000E+00 0. -1.
         21   -1    0    0  501  503 -0.00000000000E+00 -0.00000000000E+00 -0.23656000047E+03  0.23656000047E+03  0.00000000000E+00 0. -1.
    9000007    2    1    2  501    0 -0.11460600968E+03  0.63450029984E+01  0.42951833146E+03  0.59809121545E+03  0.40006538019E+03 0.  0.
    9000005    1    3    3    0    0 -0.98012026822E+02  0.19951185511E+03  0.22536223223E+03  0.31654458366E+03  0.99999687468E+00 0.  0.
          4    1    3    3  501    0 -0.16593982857E+02 -0.19316685211E+03  0.20415609923E+03  0.28154663180E+03  0.00000000000E+00 0.  1.
   -9000007    1    1    2    0  502  0.11460600968E+03 -0.63450029984E+01  0.13204171966E+03  0.43658883661E+03  0.40000000000E+03 0. -1.
<mgrwt>
<rscale>  2 0.41618989E+03</rscale>
<asrwt>0</asrwt>
<pdfrwt beam="1">  1       21 0.12278770E+00 0.41620560E+03</pdfrwt>
<pdfrwt beam="2">  1       21 0.36393847E-01 0.41620560E+03</pdfrwt>
<totfact> 0.31921760E+03</totfact>
</mgrwt>
</event>
<event>
 6    1  0.9502611E-004  0.4918083E+03  0.7818608E-02  0.1015953E+00
         21   -1    0    0  503  502  0.00000000000E+00  0.00000000000E+00  0.10659186890E+04  0.10659186890E+04  0.00000000000E+00 0.  1.
         21   -1    0    0  501  503 -0.00000000000E+00 -0.00000000000E+00 -0.17468423549E+04  0.17468423549E+04  0.00000000000E+00 0.  1.
    9000007    2    1    2  501    0  0.56178510728E+02 -0.28021926150E+03 -0.16523693373E+04  0.17240069155E+04  0.40024562280E+03 0.  0.
    9000005    1    3    3    0    0 -0.16361494896E+03 -0.44875580953E+02 -0.55149876816E+03  0.57700568503E+03  0.99999687468E+00 0.  0.
          4    1    3    3  501    0  0.21979345969E+03 -0.23534368055E+03 -0.11008705691E+04  0.11470012305E+04  0.00000000000E+00 0.  1.
   -9000007    1    1    2    0  502 -0.56178510728E+02  0.28021926150E+03  0.97144567138E+03  0.10887541284E+04  0.40000000000E+03 0.  1.
<mgrwt>
<rscale>  2 0.49175834E+03</rscale>
<asrwt>0</asrwt>
<pdfrwt beam="1">  1       21 0.16398749E+00 0.49180831E+03</pdfrwt>
<pdfrwt beam="2">  1       21 0.26874497E+00 0.49180831E+03</pdfrwt>
<totfact> 0.86729965E+00</totfact>
</mgrwt>
</event>
<event>
 6    1  0.9502611E-004  0.4341646E+03  0.7818608E-02  0.1032639E+00
         21   -1    0    0  503  502  0.00000000000E+00  0.00000000000E+00  0.33647451746E+03  0.33647451746E+03  0.00000000000E+00 0.  1.
         21   -1    0    0  501  503 -0.00000000000E+00 -0.00000000000E+00 -0.10825977124E+04  0.10825977124E+04  0.00000000000E+00 0.  1.
    9000007    2    1    2  501    0 -0.24435763446E+02 -0.16703839301E+03 -0.86635939937E+03  0.96856620752E+03  0.39880190346E+03 0.  0.
    9000005    1    3    3    0    0 -0.47711307156E+02 -0.20840364042E+03 -0.17695352783E+03  0.27752837184E+03  0.99999687468E+00 0.  0.
          4    1    3    3  501    0  0.23275543710E+02  0.41365247411E+02 -0.68940587154E+03  0.69103783568E+03  0.00000000000E+00 0.  1.
   -9000007    1    1    2    0  502  0.24435763446E+02  0.16703839301E+03  0.12023620446E+03  0.45050602231E+03  0.40000000000E+03 0.  1.
<mgrwt>
<rscale>  2 0.43388848E+03</rscale>
<asrwt>0</asrwt>
<pdfrwt beam="1">  1       21 0.51765310E-01 0.43416464E+03</pdfrwt>
<pdfrwt beam="2">  1       21 0.16655350E+00 0.43416464E+03</pdfrwt>
<totfact> 0.67285227E+02</totfact>
</mgrwt>
</event>
<event>
 6    1  0.9502611E-004  0.5052124E+03  0.7818608E-02  0.1012679E+00
         21   -1    0    0  503  502  0.00000000000E+00  0.00000000000E+00  0.67698876295E+03  0.67698876295E+03  0.00000000000E+00 0. -1.
         21   -1    0    0  501  503 -0.00000000000E+00 -0.00000000000E+00 -0.40676356148E+03  0.40676356148E+03  0.00000000000E+00 0. -1.
    9000007    2    1    2  501    0 -0.34187947165E-01 -0.30219767190E+03 -0.17903441311E+02  0.50552957421E+03  0.40486563588E+03 0.  0.
    9000005    1    3    3    0    0 -0.29689900993E+02 -0.22608857910E+03 -0.20167681153E+03  0.30442087990E+03  0.99999687468E+00 0.  0.
          4    1    3    3  501    0  0.29655713046E+02 -0.76109092808E+02  0.18377337022E+03  0.20110869431E+03  0.00000000000E+00 0.  1.
   -9000007    1    1    2    0  502  0.34187947165E-01  0.30219767190E+03  0.28812864278E+03  0.57822275021E+03  0.40000000000E+03 0. -1.
<mgrwt>
<rscale>  2 0.50423694E+03</rscale>
<asrwt>0</asrwt>
<pdfrwt beam="1">  1       21 0.10415212E+00 0.50521245E+03</pdfrwt>
<pdfrwt beam="2">  1       21 0.62579010E-01 0.50521245E+03</pdfrwt>
<totfact> 0.14807636E+03</totfact>
</mgrwt>
</event>
<event>
 6    1  0.9502611E-004  0.5195864E+03  0.7818608E-02  0.1008795E+00
         21   -1    0    0  503  502  0.00000000000E+00  0.00000000000E+00  0.18213439693E+03  0.18213439693E+03  0.00000000000E+00 0.  1.
         21   -1    0    0  501  503 -0.00000000000E+00 -0.00000000000E+00 -0.14989770084E+04  0.14989770084E+04  0.00000000000E+00 0.  1.
    9000007    2    1    2  501    0  0.32173801965E+03 -0.79777195001E+02 -0.74790499340E+03  0.91067661420E+03  0.40011281205E+03 0.  0.
    9000005    1    3    3    0    0 -0.83670894264E+02 -0.61665552266E+02 -0.89059967572E+02  0.13688000840E+03  0.99999687468E+00 0.  0.
          4    1    3    3  501    0  0.40540891391E+03 -0.18111642735E+02 -0.65884502583E+03  0.77379660580E+03  0.00000000000E+00 0.  1.
   -9000007    1    1    2    0  502 -0.32173801965E+03  0.79777195001E+02 -0.56893761804E+03  0.77043479111E+03  0.40000000000E+03 0.  1.
<mgrwt>
<rscale>  2 0.51956467E+03</rscale>
<asrwt>0</asrwt>
<pdfrwt beam="1">  1       21 0.28020676E-01 0.51958639E+03</pdfrwt>
<pdfrwt beam="2">  1       21 0.23061185E+00 0.51958639E+03</pdfrwt>
<totfact> 0.84285572E+02</totfact>
</mgrwt>
</event>
<event>
 6    1  0.9502611E-004  0.5363682E+03  0.7818608E-02  0.1004789E+00
         21   -1    0    0  503  502  0.00000000000E+00  0.00000000000E+00  0.35756224577E+03  0.35756224577E+03  0.00000000000E+00 0. -1.
         21   -1    0    0  501  503 -0.00000000000E+00 -0.00000000000E+00 -0.83145840044E+03  0.83145840044E+03  0.00000000000E+00 0. -1.
    9000007    2    1    2  501    0  0.33007036370E+03  0.13691004664E+03 -0.34788507652E+03  0.63804914270E+03  0.39798476878E+03 0.  0.
    9000005    1    3    3    0    0  0.40999183062E+03  0.51102556322E+02 -0.30354330917E+03  0.51268344324E+03  0.99999687468E+00 0.  0.
          4    1    3    3  501    0 -0.79921466924E+02  0.85807490318E+02 -0.44341767349E+02  0.12536569946E+03  0.00000000000E+00 0.  1.
   -9000007    1    1    2    0  502 -0.33007036370E+03 -0.13691004664E+03 -0.12601107816E+03  0.55097150351E+03  0.40000000000E+03 0. -1.
<mgrwt>
<rscale>  2 0.53599247E+03</rscale>
<asrwt>0</asrwt>
<pdfrwt beam="1">  1       21 0.55009577E-01 0.53636816E+03</pdfrwt>
<pdfrwt beam="2">  1       21 0.12791668E+00 0.53636816E+03</pdfrwt>
<totfact> 0.11564148E+03</totfact>
</mgrwt>
</event>
<event>
 6    1  0.9502611E-004  0.4022112E+03  0.7818608E-02  0.1043033E+00
         21   -1    0    0  503  502  0.00000000000E+00  0.00000000000E+00  0.14960460642E+03  0.14960460642E+03  0.00000000000E+00 0. -1.
         21   -1    0    0  501  503 -0.00000000000E+00 -0.00000000000E+00 -0.12323879737E+04  0.12323879737E+04  0.00000000000E+00 0. -1.
    9000007    2    1    2  501    0  0.84113226153E+01  0.39434790239E+02 -0.29919356419E+03  0.50128897926E+03  0.40018495580E+03 0.  0.
    9000005    1    3    3    0    0 -0.21191494642E+02  0.17316606009E+02  0.98319461189E+02  0.10206204354E+03  0.99999687468E+00 0.  0.
          4    1    3    3  501    0  0.29602817257E+02  0.22118184230E+02 -0.39751302538E+03  0.39922693573E+03  0.00000000000E+00 0.  1.
   -9000007    1    1    2    0  502 -0.84113226153E+01 -0.39434790239E+02 -0.78358980305E+03  0.88070360081E+03  0.40000000000E+03 0. -1.
<mgrwt>
<rscale>  2 0.40216519E+03</rscale>
<asrwt>0</asrwt>
<pdfrwt beam="1">  1       21 0.23016093E-01 0.40221120E+03</pdfrwt>
<pdfrwt beam="2">  1       21 0.18959815E+00 0.40221120E+03</pdfrwt>
<totfact> 0.24160472E+03</totfact>
</mgrwt>
</event>
<event>
 6    1  0.9502611E-004  0.5275389E+03  0.7818608E-02  0.1006856E+00
         21   -1    0    0  503  502  0.00000000000E+00  0.00000000000E+00  0.23049762225E+03  0.23049762225E+03  0.00000000000E+00 0. -1.
         21   -1    0    0  501  503 -0.00000000000E+00 -0.00000000000E+00 -0.12156315200E+04  0.12156315200E+04  0.00000000000E+00 0.  1.
    9000007    2    1    2  501    0 -0.51341032286E+02 -0.33945022325E+03 -0.42985783286E+03  0.68049615973E+03  0.40054327017E+03 0.  0.
    9000005    1    3    3    0    0  0.15716263020E+02 -0.39603802630E+03 -0.22064345369E+03  0.45362721793E+03  0.99999687468E+00 0.  0.
          4    1    3    3  501    0 -0.67057295306E+02  0.56587803042E+02 -0.20921437916E+03  0.22686894180E+03  0.00000000000E+00 0.  1.
   -9000007    1    1    2    0  502  0.51341032286E+02  0.33945022325E+03 -0.55527606489E+03  0.76563298251E+03  0.40000000000E+03 0. -1.
<mgrwt>
<rscale>  2 0.52743575E+03</rscale>
<asrwt>0</asrwt>
<pdfrwt beam="1">  1       21 0.35461173E-01 0.52753888E+03</pdfrwt>
<pdfrwt beam="2">  1       21 0.18702023E+00 0.52753888E+03</pdfrwt>
<totfact> 0.10160330E+03</totfact>
</mgrwt>
</event>
<event>
 6    1  0.9502611E-004  0.5186980E+03  0.7818608E-02  0.1009058E+00
         21   -1    0    0  503  502  0.00000000000E+00  0.00000000000E+00  0.33426166713E+03  0.33426166713E+03  0.00000000000E+00 0. -1.
         21   -1    0    0  501  503 -0.00000000000E+00 -0.00000000000E+00 -0.96876742914E+03  0.96876742914E+03  0.00000000000E+00 0.  1.
    9000007    2    1    2  501    0  0.61808400361E+02 -0.32438769416E+03 -0.58597407348E+03  0.78206558577E+03  0.39901542724E+03 0.  0.
    9000005    1    3    3    0    0 -0.39082193459E+02 -0.23805380549E+03 -0.72796759694E+02  0.25198690516E+03  0.99999687468E+00 0.  0.
          4    1    3    3  501    0  0.10089059382E+03 -0.86333888671E+02 -0.51317731379E+03  0.53007868062E+03  0.00000000000E+00 0.  1.
   -9000007    1    1    2    0  502 -0.61808400361E+02  0.32438769416E+03 -0.48531688519E+02  0.52096351050E+03  0.40000000000E+03 0. -1.
<mgrwt>
<rscale>  2 0.51850821E+03</rscale>
<asrwt>0</asrwt>
<pdfrwt beam="1">  1       21 0.51424872E-01 0.51869804E+03</pdfrwt>
<pdfrwt beam="2">  1       21 0.14904114E+00 0.51869804E+03</pdfrwt>
<totfact> 0.89618650E+02</totfact>
</mgrwt>
</event>
<event>
 6    1  0.9502611E-004  0.4749316E+03  0.7818608E-02  0.1020588E+00
         21   -1    0    0  503  502  0.00000000000E+00  0.00000000000E+00  0.74068516465E+03  0.74068516465E+03  0.00000000000E+00 0. -1.
         21   -1    0    0  501  503 -0.00000000000E+00 -0.00000000000E+00 -0.30873141344E+03  0.30873141344E+03  0.00000000000E+00 0. -1.
    9000007    2    1    2  501    0  0.12829108675E+03 -0.22002498022E+03  0.15161484578E+03  0.49854499891E+03  0.40086214540E+03 0.  0.
    9000005    1    3    3    0    0 -0.13773937444E+03 -0.10816280261E+03  0.11039252779E+03  0.20702376030E+03  0.99999687468E+00 0.  0.
          4    1    3    3  501    0  0.26603046119E+03 -0.11186217761E+03  0.41222317990E+02  0.29152123861E+03  0.00000000000E+00 0.  1.
   -9000007    1    1    2    0  502 -0.12829108675E+03  0.22002498022E+03  0.28033890543E+03  0.55087157919E+03  0.40000000000E+03 0.  1.
<mgrwt>
<rscale>  2 0.47474966E+03</rscale>
<asrwt>0</asrwt>
<pdfrwt beam="1">  1       21 0.11395156E+00 0.47493163E+03</pdfrwt>
<pdfrwt beam="2">  1       21 0.47497141E-01 0.47493163E+03</pdfrwt>
<totfact> 0.21727021E+03</totfact>
</mgrwt>
</event>
<event>
 6    1  0.9502611E-004  0.4328209E+03  0.7818608E-02  0.1033037E+00
         21   -1    0    0  503  502  0.00000000000E+00  0.00000000000E+00  0.72196019127E+03  0.72196019127E+03  0.00000000000E+00 0.  1.
         21   -1    0    0  501  503 -0.00000000000E+00 -0.00000000000E+00 -0.57989819265E+03  0.57989819265E+03  0.00000000000E+00 0.  1.
    9000007    2    1    2  501    0 -0.12229213827E+03  0.10800194466E+03 -0.41316875799E+03  0.59836639376E+03  0.40089167049E+03 0.  0.
    9000005    1    3    3    0    0 -0.91129948986E+01  0.15532757837E+03  0.11800889937E+02  0.15604475088E+03  0.99999687468E+00 0.  0.
          4    1    3    3  501    0 -0.11317914337E+03 -0.47325633712E+02 -0.42496964792E+03  0.44232164288E+03  0.00000000000E+00 0.  1.
   -9000007    1    1    2    0  502  0.12229213827E+03 -0.10800194466E+03  0.55523075662E+03  0.70349199016E+03  0.40000000000E+03 0.  1.
<mgrwt>
<rscale>  2 0.43261430E+03</rscale>
<asrwt>0</asrwt>
<pdfrwt beam="1">  1       21 0.11107080E+00 0.43282089E+03</pdfrwt>
<pdfrwt beam="2">  1       21 0.89215107E-01 0.43282089E+03</pdfrwt>
<totfact> 0.57850394E+02</totfact>
</mgrwt>
</event>
<event>
 6    1  0.9502611E-004  0.4371525E+03  0.7818608E-02  0.1031646E+00
         21   -1    0    0  503  502  0.00000000000E+00  0.00000000000E+00  0.70742319995E+03  0.70742319995E+03  0.00000000000E+00 0. -1.
         21   -1    0    0  501  503 -0.00000000000E+00 -0.00000000000E+00 -0.32279859869E+03  0.32279859869E+03  0.00000000000E+00 0.  1.
    9000007    2    1    2  501    0 -0.96767093687E+02  0.14743975550E+03 -0.16144810732E+02  0.43716322353E+03  0.39968572300E+03 0.  0.
    9000005    1    3    3    0    0 -0.75554486510E+02 -0.13310083087E+03 -0.27903956691E+02  0.15557616271E+03  0.99999687468E+00 0.  0.
          4    1    3    3  501    0 -0.21212607177E+02  0.28054058637E+03  0.11759145959E+02  0.28158706081E+03  0.00000000000E+00 0.  1.
   -9000007    1    1    2    0  502  0.96767093687E+02 -0.14743975550E+03  0.40076941200E+03  0.59305857511E+03  0.40000000000E+03 0. -1.
<mgrwt>
<rscale>  2 0.43708064E+03</rscale>
<asrwt>0</asrwt>
<pdfrwt beam="1">  1       21 0.10883434E+00 0.43715255E+03</pdfrwt>
<pdfrwt beam="2">  1       21 0.49661323E-01 0.43715255E+03</pdfrwt>
<totfact> 0.22476996E+03</totfact>
</mgrwt>
</event>
<event>
 6    1  0.9502611E-004  0.6042584E+03  0.7818608E-02  0.9896868E-01
         21   -1    0    0  503  502  0.00000000000E+00  0.00000000000E+00  0.50364322649E+03  0.50364322649E+03  0.00000000000E+00 0.  1.
         21   -1    0    0  501  503 -0.00000000000E+00 -0.00000000000E+00 -0.73273701080E+03  0.73273701080E+03  0.00000000000E+00 0.  1.
    9000007    2    1    2  501    0  0.18577064470E+03 -0.41232678746E+03 -0.18063664323E+03  0.63068047123E+03  0.40075447325E+03 0.  0.
    9000005    1    3    3    0    0  0.51341886514E+02 -0.38597899699E+03 -0.26389208215E+03  0.47037836520E+03  0.99999687468E+00 0.  0.
          4    1    3    3  501    0  0.13442875819E+03 -0.26347790470E+02  0.83255438919E+02  0.16030210604E+03  0.00000000000E+00 0.  1.
   -9000007    1    1    2    0  502 -0.18577064470E+03  0.41232678746E+03 -0.48457141077E+02  0.60569976606E+03  0.40000000000E+03 0.  1.
<mgrwt>
<rscale>  2 0.60413337E+03</rscale>
<asrwt>0</asrwt>
<pdfrwt beam="1">  1       21 0.77483574E-01 0.60425844E+03</pdfrwt>
<pdfrwt beam="2">  1       21 0.11272877E+00 0.60425844E+03</pdfrwt>
<totfact> 0.72608962E+02</totfact>
</mgrwt>
</event>
<event>
 6    1  0.9502611E-004  0.4588709E+03  0.7818608E-02  0.1025122E+00
         21   -1    0    0  503  502  0.00000000000E+00  0.00000000000E+00  0.78002227444E+03  0.78002227444E+03  0.00000000000E+00 0. -1.
         21   -1    0    0  501  503 -0.00000000000E+00 -0.00000000000E+00 -0.12728166468E+04  0.12728166468E+04  0.00000000000E+00 0. -1.
    9000007    2    1    2  501    0  0.16944174112E+03  0.14782432395E+03 -0.11575324400E+04  0.12451018149E+04  0.39979325346E+03 0.  0.
    9000005    1    3    3    0    0 -0.56621198892E+02  0.21532440327E+03 -0.54785498157E+03  0.59136844660E+03  0.99999687468E+00 0.  0.
          4    1    3    3  501    0  0.22606294001E+03 -0.67500079321E+02 -0.60967745843E+03  0.65373336833E+03  0.00000000000E+00 0.  1.
   -9000007    1    1    2    0  502 -0.16944174112E+03 -0.14782432395E+03  0.66473806762E+03  0.80773710632E+03  0.40000000000E+03 0. -1.
<mgrwt>
<rscale>  2 0.45882588E+03</rscale>
<asrwt>0</asrwt>
<pdfrwt beam="1">  1       21 0.12000343E+00 0.45887093E+03</pdfrwt>
<pdfrwt beam="2">  1       21 0.19581794E+00 0.45887093E+03</pdfrwt>
<totfact> 0.59034515E+01</totfact>
</mgrwt>
</event>
<event>
 6    1  0.9502611E-004  0.6346280E+03  0.7818608E-02  0.9836238E-01
         21   -1    0    0  503  502  0.00000000000E+00  0.00000000000E+00  0.69537914473E+03  0.69537914473E+03  0.00000000000E+00 0. -1.
         21   -1    0    0  501  503 -0.00000000000E+00 -0.00000000000E+00 -0.11529655151E+04  0.11529655151E+04  0.00000000000E+00 0.  1.
    9000007    2    1    2  501    0  0.27087594299E+03 -0.41155666360E+03 -0.88090675434E+03  0.10854863431E+04  0.39941360443E+03 0.  0.
    9000005    1    3    3    0    0 -0.56994925283E+02 -0.78827437160E+02 -0.41305681620E+03  0.42435730200E+03  0.99999687468E+00 0.  0.
          4    1    3    3  501    0  0.32787086827E+03 -0.33272922645E+03 -0.46784993815E+03  0.66112904112E+03  0.00000000000E+00 0.  1.
   -9000007    1    1    2    0  502 -0.27087594299E+03  0.41155666360E+03  0.42332038399E+03  0.76285831670E+03  0.40000000000E+03 0. -1.
<mgrwt>
<rscale>  2 0.63453559E+03</rscale>
<asrwt>0</asrwt>
<pdfrwt beam="1">  1       21 0.10698141E+00 0.63462797E+03</pdfrwt>
<pdfrwt beam="2">  1       21 0.17737931E+00 0.63462797E+03</pdfrwt>
<totfact> 0.97339770E+01</totfact>
</mgrwt>
</event>
<event>
 6    1  0.9502611E-004  0.4002480E+03  0.7818608E-02  0.1043707E+00
         21   -1    0    0  503  502  0.00000000000E+00  0.00000000000E+00  0.16420055875E+03  0.16420055875E+03  0.00000000000E+00 0. -1.
         21   -1    0    0  501  503 -0.00000000000E+00 -0.00000000000E+00 -0.12925875212E+04  0.12925875212E+04  0.00000000000E+00 0. -1.
    9000007    2    1    2  501    0  0.71425256295E+01 -0.48466836069E+01 -0.92518476489E+03  0.10080502510E+04  0.40015491178E+03 0.  0.
    9000005    1    3    3    0    0 -0.17088840200E+03  0.48477739768E+02 -0.24299574320E+03  0.30099978139E+03  0.99999687468E+00 0.  0.
          4    1    3    3  501    0  0.17803092763E+03 -0.53324423375E+02 -0.68218902169E+03  0.70705046965E+03  0.00000000000E+00 0.  1.
   -9000007    1    1    2    0  502 -0.71425256295E+01  0.48466836069E+01 -0.20320219757E+03  0.44873782893E+03  0.40000000000E+03 0. -1.
<mgrwt>
<rscale>  2 0.40020927E+03</rscale>
<asrwt>0</asrwt>
<pdfrwt beam="1">  1       21 0.25261624E-01 0.40024800E+03</pdfrwt>
<pdfrwt beam="2">  1       21 0.19885962E+00 0.40024800E+03</pdfrwt>
<totfact> 0.17495376E+03</totfact>
</mgrwt>
</event>
<event>
 6    1  0.9502611E-004  0.4053149E+03  0.7818608E-02  0.1042065E+00
         21   -1    0    0  503  502  0.00000000000E+00  0.00000000000E+00  0.13122486458E+04  0.13122486458E+04  0.00000000000E+00 0. -1.
         21   -1    0    0  501  503 -0.00000000000E+00 -0.00000000000E+00 -0.24133753495E+03  0.24133753495E+03  0.00000000000E+00 0. -1.
    9000007    2    1    2  501    0 -0.17944385435E+00 -0.65422618645E+02 -0.48002073458E+01  0.40404932126E+03  0.39868867653E+03 0.  0.
    9000005    1    3    3    0    0 -0.31497557853E+01  0.89177144038E+02 -0.16111383016E+03  0.18417695362E+03  0.99999687468E+00 0.  0.
          4    1    3    3  501    0  0.29703119309E+01 -0.15459976268E+03  0.15631362282E+03  0.21987236764E+03  0.00000000000E+00 0.  1.
   -9000007    1    1    2    0  502  0.17944385435E+00  0.65422618645E+02  0.10757113182E+04  0.11495368595E+04  0.40000000000E+03 0. -1.
<mgrwt>
<rscale>  2 0.40499097E+03</rscale>
<asrwt>0</asrwt>
<pdfrwt beam="1">  1       21 0.20188440E+00 0.40531488E+03</pdfrwt>
<pdfrwt beam="2">  1       21 0.37128852E-01 0.40531488E+03</pdfrwt>
<totfact> 0.77499828E+02</totfact>
</mgrwt>
</event>
<event>
 6    1  0.9502611E-004  0.5018166E+03  0.7818608E-02  0.1013406E+00
         21   -1    0    0  503  502  0.00000000000E+00  0.00000000000E+00  0.16008614476E+03  0.16008614476E+03  0.00000000000E+00 0.  1.
         21   -1    0    0  501  503 -0.00000000000E+00 -0.00000000000E+00 -0.16714928583E+04  0.16714928583E+04  0.00000000000E+00 0.  1.
    9000007    2    1    2  501    0 -0.30301723440E+03 -0.70218878586E+00 -0.52699153354E+03  0.72663864991E+03  0.39807501015E+03 0.  0.
    9000005    1    3    3    0    0 -0.25135237698E+03  0.16783261948E+03 -0.22435319890E+03  0.37640558368E+03  0.99999687468E+00 0.  0.
          4    1    3    3  501    0 -0.51664857422E+02 -0.16853480826E+03 -0.30263833464E+03  0.35023306623E+03  0.00000000000E+00 0.  1.
   -9000007    1    1    2    0  502  0.30301723440E+03  0.70218878586E+00 -0.98441518005E+03  0.11049403532E+04  0.40000000000E+03 0.  1.
<mgrwt>
<rscale>  2 0.50143293E+03</rscale>
<asrwt>0</asrwt>
<pdfrwt beam="1">  1       21 0.24628637E-01 0.50181664E+03</pdfrwt>
<pdfrwt beam="2">  1       21 0.25715275E+00 0.50181664E+03</pdfrwt>
<totfact> 0.74794745E+02</totfact>
</mgrwt>
</event>
<event>
 6    1  0.9502611E-004  0.6341476E+03  0.7818608E-02  0.9837047E-01
         21   -1    0    0  503  502  0.00000000000E+00  0.00000000000E+00  0.10272971195E+04  0.10272971195E+04  0.00000000000E+00 0. -1.
         21   -1    0    0  501  503 -0.00000000000E+00 -0.00000000000E+00 -0.49510374815E+03  0.49510374815E+03  0.00000000000E+00 0. -1.
    9000007    2    1    2  501    0  0.41146643397E+03 -0.26960221839E+03 -0.82287831659E+02  0.63946421574E+03  0.40019147109E+03 0.  0.
    9000005    1    3    3    0    0  0.29297414919E+03 -0.37477768901E+03 -0.60360184243E+02  0.47951696540E+03  0.99999687468E+00 0.  0.
          4    1    3    3  501    0  0.11849228478E+03  0.10517547061E+03 -0.21927647416E+02  0.15994725035E+03  0.00000000000E+00 0.  1.
   -9000007    1    1    2    0  502 -0.41146643397E+03  0.26960221839E+03  0.61448120302E+03  0.88293665193E+03  0.40000000000E+03 0. -1.
<mgrwt>
<rscale>  2 0.63411741E+03</rscale>
<asrwt>0</asrwt>
<pdfrwt beam="1">  1       21 0.15804571E+00 0.63414761E+03</pdfrwt>
<pdfrwt beam="2">  1       21 0.76169808E-01 0.63414761E+03</pdfrwt>
<totfact> 0.30575529E+02</totfact>
</mgrwt>
</event>
<event>
 6    1  0.9502611E-004  0.4893549E+03  0.7818608E-02  0.1016621E+00
         21   -1    0    0  503  502  0.00000000000E+00  0.00000000000E+00  0.29721404437E+03  0.29721404437E+03  0.00000000000E+00 0. -1.
         21   -1    0    0  501  503 -0.00000000000E+00 -0.00000000000E+00 -0.83853435941E+03  0.83853435941E+03  0.00000000000E+00 0. -1.
    9000007    2    1    2  501    0 -0.10241540724E+03 -0.26263905299E+03 -0.38399921198E+03  0.62172688937E+03  0.39952564670E+03 0.  0.
    9000005    1    3    3    0    0  0.11908716911E+03 -0.23643489196E+03 -0.22988650608E+03  0.35061662490E+03  0.99999687468E+00 0.  0.
          4    1    3    3  501    0 -0.22150257635E+03 -0.26204161030E+02 -0.15411270589E+03  0.27111026447E+03  0.00000000000E+00 0.  1.
   -9000007    1    1    2    0  502  0.10241540724E+03  0.26263905299E+03 -0.15732110306E+03  0.51402151440E+03  0.40000000000E+03 0. -1.
<mgrwt>
<rscale>  2 0.48925792E+03</rscale>
<asrwt>0</asrwt>
<pdfrwt beam="1">  1       21 0.45725238E-01 0.48935487E+03</pdfrwt>
<pdfrwt beam="2">  1       21 0.12900528E+00 0.48935487E+03</pdfrwt>
<totfact> 0.17062026E+03</totfact>
</mgrwt>
</event>
<event>
 6    1  0.9502611E-004  0.4236892E+03  0.7818608E-02  0.1035885E+00
         21   -1    0    0  503  502  0.00000000000E+00  0.00000000000E+00  0.26612371589E+03  0.26612371589E+03  0.00000000000E+00 0.  1.
         21   -1    0    0  501  503 -0.00000000000E+00 -0.00000000000E+00 -0.81483786128E+03  0.81483786128E+03  0.00000000000E+00 0.  1.
    9000007    2    1    2  501    0 -0.57234201104E+02  0.12742347967E+03 -0.49878027518E+03  0.65434009583E+03  0.39983334171E+03 0.  0.
    9000005    1    3    3    0    0 -0.40541597117E+02  0.25081249202E+03 -0.17793440310E+03  0.31018088118E+03  0.99999687468E+00 0.  0.
          4    1    3    3  501    0 -0.16692603986E+02 -0.12338901234E+03 -0.32084587208E+03  0.34415921464E+03  0.00000000000E+00 0.  1.
   -9000007    1    1    2    0  502  0.57234201104E+02 -0.12742347967E+03 -0.49933870208E+02  0.42662148134E+03  0.40000000000E+03 0.  1.
<mgrwt>
<rscale>  2 0.42364981E+03</rscale>
<asrwt>0</asrwt>
<pdfrwt beam="1">  1       21 0.40942111E-01 0.42368915E+03</pdfrwt>
<pdfrwt beam="2">  1       21 0.12535967E+00 0.42368915E+03</pdfrwt>
<totfact> 0.23716910E+03</totfact>
</mgrwt>
</event>
<event>
 6    1  0.9502611E-004  0.4172851E+03  0.7818608E-02  0.1037974E+00
         21   -1    0    0  503  502  0.00000000000E+00  0.00000000000E+00  0.82048260359E+02  0.82048260359E+02  0.00000000000E+00 0.  1.
         21   -1    0    0  501  503 -0.00000000000E+00 -0.00000000000E+00 -0.21245483149E+04  0.21245483149E+04  0.00000000000E+00 0.  1.
    9000007    2    1    2  501    0 -0.97450194438E+00  0.11885242772E+03 -0.97583777827E+03  0.10612166117E+04  0.39974301530E+03 0.  0.
    9000005    1    3    3    0    0  0.29218819993E+02  0.16993836022E+03 -0.98604060842E+03  0.10010044291E+04  0.99999687468E+00 0.  0.
          4    1    3    3  501    0 -0.30193321937E+02 -0.51085932498E+02  0.10202830150E+02  0.60212182587E+02  0.00000000000E+00 0.  1.
   -9000007    1    1    2    0  502  0.97450194438E+00 -0.11885242772E+03 -0.10666622762E+04  0.11453799635E+04  0.40000000000E+03 0.  1.
<mgrwt>
<rscale>  2 0.41722350E+03</rscale>
<asrwt>0</asrwt>
<pdfrwt beam="1">  1       21 0.12622808E-01 0.41728509E+03</pdfrwt>
<pdfrwt beam="2">  1       21 0.32685361E+00 0.41728509E+03</pdfrwt>
<totfact> 0.10446570E+03</totfact>
</mgrwt>
</event>
<event>
 6    1  0.9502611E-004  0.6449748E+03  0.7818608E-02  0.9816341E-01
         21   -1    0    0  503  502  0.00000000000E+00  0.00000000000E+00  0.12703372528E+04  0.12703372528E+04  0.00000000000E+00 0. -1.
         21   -1    0    0  501  503 -0.00000000000E+00 -0.00000000000E+00 -0.15757774673E+04  0.15757774673E+04  0.00000000000E+00 0. -1.
    9000007    2    1    2  501    0  0.49391694659E+03  0.10972017960E+03 -0.14193538025E+04  0.15589488607E+04  0.39970472319E+03 0.  0.
    9000005    1    3    3    0    0  0.18650275269E+03  0.18981184137E+03 -0.98819109764E+03  0.10233935984E+04  0.99999687468E+00 0.  0.
          4    1    3    3  501    0  0.30741419390E+03 -0.80091661771E+02 -0.43116270487E+03  0.53555526229E+03  0.00000000000E+00 0.  1.
   -9000007    1    1    2    0  502 -0.49391694659E+03 -0.10972017960E+03  0.11139135880E+04  0.12871658594E+04  0.40000000000E+03 0. -1.
<mgrwt>
<rscale>  2 0.64492901E+03</rscale>
<asrwt>0</asrwt>
<pdfrwt beam="1">  1       21 0.19543650E+00 0.64497478E+03</pdfrwt>
<pdfrwt beam="2">  1       21 0.24242730E+00 0.64497478E+03</pdfrwt>
<totfact> 0.68666749E+00</totfact>
</mgrwt>
</event>
<event>
 6    1  0.9502611E-004  0.4423751E+03  0.7818608E-02  0.1030042E+00
         21   -1    0    0  503  502  0.00000000000E+00  0.00000000000E+00  0.11170292517E+03  0.11170292517E+03  0.00000000000E+00 0. -1.
         21   -1    0    0  501  503 -0.00000000000E+00 -0.00000000000E+00 -0.18546480509E+04  0.18546480509E+04  0.00000000000E+00 0.  1.
    9000007    2    1    2  501    0  0.13959084521E+03  0.12731888981E+03 -0.11038559390E+04  0.11890925297E+04  0.39968413341E+03 0.  0.
    9000005    1    3    3    0    0 -0.85014816789E+02 -0.80873453005E+02 -0.17210037890E+03  0.20829684320E+03  0.99999687468E+00 0.  0.
          4    1    3    3  501    0  0.22460566200E+03  0.20819234281E+03 -0.93175556008E+03  0.98079568655E+03  0.00000000000E+00 0.  1.
   -9000007    1    1    2    0  502 -0.13959084521E+03 -0.12731888981E+03 -0.63908918672E+03  0.77725844630E+03  0.40000000000E+03 0. -1.
<mgrwt>
<rscale>  2 0.44230366E+03</rscale>
<asrwt>0</asrwt>
<pdfrwt beam="1">  1       21 0.17185065E-01 0.44237507E+03</pdfrwt>
<pdfrwt beam="2">  1       21 0.28533047E+00 0.44237507E+03</pdfrwt>
<totfact> 0.10337655E+03</totfact>
</mgrwt>
</event>
<event>
 6    1  0.9502611E-004  0.4038562E+03  0.7818608E-02  0.1042460E+00
         21   -1    0    0  503  502  0.00000000000E+00  0.00000000000E+00  0.87923846269E+03  0.87923846269E+03  0.00000000000E+00 0.  1.
         21   -1    0    0  501  503 -0.00000000000E+00 -0.00000000000E+00 -0.68969213601E+03  0.68969213601E+03  0.00000000000E+00 0.  1.
    9000007    2    1    2  501    0 -0.17184385623E+02 -0.52273390713E+02 -0.57597488794E+03  0.70345353920E+03  0.40008998963E+03 0.  0.
    9000005    1    3    3    0    0  0.11553846451E+03 -0.98086445165E+02 -0.50824183094E+02  0.15985676428E+03  0.99999687468E+00 0.  0.
          4    1    3    3  501    0 -0.13272285013E+03  0.45813054452E+02 -0.52515070484E+03  0.54359677492E+03  0.00000000000E+00 0.  1.
   -9000007    1    1    2    0  502  0.17184385623E+02  0.52273390713E+02  0.76552121462E+03  0.86547705950E+03  0.40000000000E+03 0.  1.
<mgrwt>
<rscale>  2 0.40383389E+03</rscale>
<asrwt>0</asrwt>
<pdfrwt beam="1">  1       21 0.13526746E+00 0.40385618E+03</pdfrwt>
<pdfrwt beam="2">  1       21 0.10610648E+00 0.40385618E+03</pdfrwt>
<totfact> 0.23400682E+02</totfact>
</mgrwt>
</event>
<event>
 6    1  0.9502611E-004  0.8110781E+03  0.7818608E-02  0.9544401E-01
         21   -1    0    0  503  502  0.00000000000E+00  0.00000000000E+00  0.10535897110E+04  0.10535897110E+04  0.00000000000E+00 0. -1.
         21   -1    0    0  501  503 -0.00000000000E+00 -0.00000000000E+00 -0.62769861041E+03  0.62769861041E+03  0.00000000000E+00 0.  1.
    9000007    2    1    2  501    0  0.58608251022E+03 -0.39123908257E+03  0.14659558007E+03  0.82421964487E+03  0.40160556567E+03 0.  0.
    9000005    1    3    3    0    0  0.17685737097E+03 -0.13597217338E+03  0.24565893485E+03  0.33183772219E+03  0.99999687468E+00 0.  0.
          4    1    3    3  501    0  0.40922513926E+03 -0.25526690919E+03 -0.99063354783E+02  0.49238192269E+03  0.00000000000E+00 0.  1.
   -9000007    1    1    2    0  502 -0.58608251022E+03  0.39123908257E+03  0.27929552051E+03  0.85706867654E+03  0.40000000000E+03 0. -1.
<mgrwt>
<rscale>  2 0.81087962E+03</rscale>
<asrwt>0</asrwt>
<pdfrwt beam="1">  1       21 0.16209072E+00 0.81107815E+03</pdfrwt>
<pdfrwt beam="2">  1       21 0.96569017E-01 0.81107815E+03</pdfrwt>
<totfact> 0.15360666E+02</totfact>
</mgrwt>
</event>
<event>
 6    1  0.9502611E-004  0.5291870E+03  0.7818608E-02  0.1006714E+00
         21   -1    0    0  503  502  0.00000000000E+00  0.00000000000E+00  0.18496216589E+03  0.18496216589E+03  0.00000000000E+00 0.  1.
         21   -1    0    0  501  503 -0.00000000000E+00 -0.00000000000E+00 -0.23449638032E+04  0.23449638032E+04  0.00000000000E+00 0.  1.
    9000007    2    1    2  501    0  0.62784348198E+02  0.33343398020E+03 -0.18420671346E+04  0.19165725298E+04  0.40610200681E+03 0.  0.
    9000005    1    3    3    0    0  0.19932790853E+03  0.15353606958E+03 -0.54873125727E+03  0.60366541435E+03  0.99999687468E+00 0.  0.
          4    1    3    3  501    0 -0.13654356034E+03  0.17989791062E+03 -0.12933358773E+04  0.13129071154E+04  0.00000000000E+00 0.  1.
   -9000007    1    1    2    0  502 -0.62784348198E+02 -0.33343398020E+03 -0.31793450272E+03  0.61335343934E+03  0.40000000000E+03 0.  1.
<mgrwt>
<rscale>  2 0.52801614E+03</rscale>
<asrwt>0</asrwt>
<pdfrwt beam="1">  1       21 0.28455717E-01 0.52918705E+03</pdfrwt>
<pdfrwt beam="2">  1       21 0.36076368E+00 0.52918705E+03</pdfrwt>
<totfact> 0.12971645E+02</totfact>
</mgrwt>
</event>
<event>
 6    1  0.9502611E-004  0.5110593E+03  0.7818608E-02  0.1010933E+00
         21   -1    0    0  503  502  0.00000000000E+00  0.00000000000E+00  0.76590307661E+03  0.76590307661E+03  0.00000000000E+00 0.  1.
         21   -1    0    0  501  503 -0.00000000000E+00 -0.00000000000E+00 -0.69917621735E+03  0.69917621735E+03  0.00000000000E+00 0.  1.
    9000007    2    1    2  501    0  0.30368783466E+02 -0.31660257466E+03 -0.49094619003E+03  0.70866757856E+03  0.40002765167E+03 0.  0.
    9000005    1    3    3    0    0  0.11278973051E+03  0.20247205581E+02 -0.90372113559E+01  0.11495278955E+03  0.99999687468E+00 0.  0.
          4    1    3    3  501    0 -0.82420947041E+02 -0.33684978025E+03 -0.48190897868E+03  0.59371478901E+03  0.00000000000E+00 0.  1.
   -9000007    1    1    2    0  502 -0.30368783466E+02  0.31660257466E+03  0.55767304929E+03  0.75641171540E+03  0.40000000000E+03 0.  1.
<mgrwt>
<rscale>  2 0.51105386E+03</rscale>
<asrwt>0</asrwt>
<pdfrwt beam="1">  1       21 0.11783124E+00 0.51105927E+03</pdfrwt>
<pdfrwt beam="2">  1       21 0.10756557E+00 0.51105927E+03</pdfrwt>
<totfact> 0.30652433E+02</totfact>
</mgrwt>
</event>
<event>
 6    1  0.9502611E-004  0.5206805E+03  0.7818608E-02  0.1008531E+00
         21   -1    0    0  503  502  0.00000000000E+00  0.00000000000E+00  0.44968683839E+03  0.44968683839E+03  0.00000000000E+00 0.  1.
         21   -1    0    0  501  503 -0.00000000000E+00 -0.00000000000E+00 -0.10179069905E+04  0.10179069905E+04  0.00000000000E+00 0. -1.
    9000007    2    1    2  501    0  0.25287920121E+02 -0.33236834726E+03 -0.75276845705E+03  0.91517526108E+03  0.39972141723E+03 0.  0.
    9000005    1    3    3    0    0 -0.11714123270E+03  0.37404257609E+02 -0.15236399816E+03  0.19579819921E+03  0.99999687468E+00 0.  0.
          4    1    3    3  501    0  0.14242915282E+03 -0.36977260487E+03 -0.60040445889E+03  0.71937706187E+03  0.00000000000E+00 0.  1.
   -9000007    1    1    2    0  502 -0.25287920121E+02  0.33236834726E+03  0.18454830497E+03  0.55241856778E+03  0.40000000000E+03 0. -1.
<mgrwt>
<rscale>  2 0.52062701E+03</rscale>
<asrwt>0</asrwt>
<pdfrwt beam="1">  1       21 0.69182591E-01 0.52068051E+03</pdfrwt>
<pdfrwt beam="2">  1       21 0.15660107E+00 0.52068051E+03</pdfrwt>
<totfact> 0.40740781E+02</totfact>
</mgrwt>
</event>
<event>
 6    1  0.9502611E-004  0.4946364E+03  0.7818608E-02  0.1015190E+00
         21   -1    0    0  503  502  0.00000000000E+00  0.00000000000E+00  0.10621302524E+04  0.10621302524E+04  0.00000000000E+00 0. -1.
         21   -1    0    0  501  503 -0.00000000000E+00 -0.00000000000E+00 -0.28265700124E+03  0.28265700124E+03  0.00000000000E+00 0. -1.
    9000007    2    1    2  501    0 -0.28816772974E+03 -0.40305002263E+02  0.10045202701E+03  0.50470692620E+03  0.39996667106E+03 0.  0.
    9000005    1    3    3    0    0 -0.10349550683E+03 -0.97330191164E+02  0.23119658927E+03  0.27136202558E+03  0.99999687468E+00 0.  0.
          4    1    3    3  501    0 -0.18467222291E+03  0.57025188901E+02 -0.13074456226E+03  0.23334490062E+03  0.00000000000E+00 0.  1.
   -9000007    1    1    2    0  502  0.28816772974E+03  0.40305002263E+02  0.67902122412E+03  0.84008032739E+03  0.40000000000E+03 0. -1.
<mgrwt>
<rscale>  2 0.49462963E+03</rscale>
<asrwt>0</asrwt>
<pdfrwt beam="1">  1       21 0.16340465E+00 0.49463637E+03</pdfrwt>
<pdfrwt beam="2">  1       21 0.43485693E-01 0.49463637E+03</pdfrwt>
<totfact> 0.99944334E+02</totfact>
</mgrwt>
</event>
<event>
 6    1  0.9502611E-004  0.4972760E+03  0.7818608E-02  0.1014493E+00
         21   -1    0    0  503  502  0.00000000000E+00  0.00000000000E+00  0.19681354212E+04  0.19681354212E+04  0.00000000000E+00 0.  1.
         21   -1    0    0  501  503 -0.00000000000E+00 -0.00000000000E+00 -0.14305925358E+03  0.14305925358E+03  0.00000000000E+00 0.  1.
    9000007    2    1    2  501    0 -0.88543128338E+01 -0.29530495188E+03  0.12808501222E+04  0.13739936154E+04  0.39999750770E+03 0.  0.
    9000005    1    3    3    0    0 -0.10879341965E+01  0.52310507768E+02  0.61134125833E+01  0.52687253021E+02  0.99999687468E+00 0.  0.
          4    1    3    3  501    0 -0.77663786372E+01 -0.34761545965E+03  0.12747367096E+04  0.13213063624E+04  0.00000000000E+00 0.  1.
   -9000007    1    1    2    0  502  0.88543128338E+01  0.29530495188E+03  0.54422604545E+03  0.73720105941E+03  0.40000000000E+03 0.  1.
<mgrwt>
<rscale>  2 0.49727549E+03</rscale>
<asrwt>0</asrwt>
<pdfrwt beam="1">  1       21 0.30279004E+00 0.49727599E+03</pdfrwt>
<pdfrwt beam="2">  1       21 0.22009117E-01 0.49727599E+03</pdfrwt>
<totfact> 0.49254625E+02</totfact>
</mgrwt>
</event>
<event>
 6    1  0.9502611E-004  0.4793753E+03  0.7818608E-02  0.1019312E+00
         21   -1    0    0  503  502  0.00000000000E+00  0.00000000000E+00  0.20523466530E+04  0.20523466530E+04  0.00000000000E+00 0.  1.
         21   -1    0    0  501  503 -0.00000000000E+00 -0.00000000000E+00 -0.15041005203E+03  0.15041005203E+03  0.00000000000E+00 0.  1.
    9000007    2    1    2  501    0 -0.12249234373E+03 -0.23394021627E+03  0.39411000571E+03  0.62058306082E+03  0.40008529055E+03 0.  0.
    9000005    1    3    3    0    0 -0.19984368499E+03 -0.31103124951E+03  0.29253960714E+03  0.47144284737E+03  0.99999687468E+00 0.  0.
          4    1    3    3  501    0  0.77351341258E+02  0.77091033239E+02  0.10157039857E+03  0.14914021344E+03  0.00000000000E+00 0.  1.
   -9000007    1    1    2    0  502  0.12249234373E+03  0.23394021627E+03  0.15078265952E+04  0.15821736442E+04  0.40000000000E+03 0. -1.
<mgrwt>
<rscale>  2 0.47935746E+03</rscale>
<asrwt>0</asrwt>
<pdfrwt beam="1">  1       21 0.31574562E+00 0.47937526E+03</pdfrwt>
<pdfrwt beam="2">  1       21 0.23140009E-01 0.47937526E+03</pdfrwt>
<totfact> 0.37704245E+02</totfact>
</mgrwt>
</event>
<event>
 6    1  0.9502611E-004  0.4166709E+03  0.7818608E-02  0.1038395E+00
         21   -1    0    0  503  502  0.00000000000E+00  0.00000000000E+00  0.64706111663E+03  0.64706111663E+03  0.00000000000E+00 0. -1.
         21   -1    0    0  501  503 -0.00000000000E+00 -0.00000000000E+00 -0.27160404597E+03  0.27160404597E+03  0.00000000000E+00 0. -1.
    9000007    2    1    2  501    0 -0.86571001201E-01 -0.10582966315E+03  0.12505814436E+03  0.43503353895E+03  0.40300709106E+03 0.  0.
    9000005    1    3    3    0    0 -0.11780779997E+03 -0.15549823433E+03  0.20605196719E+03  0.28375480928E+03  0.99999687468E+00 0.  0.
          4    1    3    3  501    0  0.11772122897E+03  0.49668571186E+02 -0.80993822833E+02  0.15127872967E+03  0.00000000000E+00 0.  1.
   -9000007    1    1    2    0  502  0.86571001201E-01  0.10582966315E+03  0.25039892631E+03  0.48363162365E+03  0.40000000000E+03 0.  1.
<mgrwt>
<rscale>  2 0.41594205E+03</rscale>
<asrwt>0</asrwt>
<pdfrwt beam="1">  1       21 0.99547864E-01 0.41667090E+03</pdfrwt>
<pdfrwt beam="2">  1       21 0.41785238E-01 0.41667090E+03</pdfrwt>
<totfact> 0.40485146E+03</totfact>
</mgrwt>
</event>
<event>
 6    1  0.9502611E-004  0.4244312E+03  0.7818608E-02  0.1035669E+00
         21   -1    0    0  503  502  0.00000000000E+00  0.00000000000E+00  0.11472382334E+04  0.11472382334E+04  0.00000000000E+00 0. -1.
         21   -1    0    0  501  503 -0.00000000000E+00 -0.00000000000E+00 -0.17026497042E+03  0.17026497042E+03  0.00000000000E+00 0. -1.
    9000007    2    1    2  501    0 -0.73480316302E+02 -0.11986518590E+03  0.67356765882E+03  0.79613770790E+03  0.40046827497E+03 0.  0.
    9000005    1    3    3    0    0 -0.24266701907E+02 -0.18817255631E+03  0.68534949571E+03  0.71112777687E+03  0.99999687468E+00 0.  0.
          4    1    3    3  501    0 -0.49213614395E+02  0.68307370413E+02 -0.11781836883E+02  0.85009931037E+02  0.00000000000E+00 0.  1.
   -9000007    1    1    2    0  502  0.73480316302E+02  0.11986518590E+03  0.30340560413E+03  0.52136549588E+03  0.40000000000E+03 0. -1.
<mgrwt>
<rscale>  2 0.42432072E+03</rscale>
<asrwt>0</asrwt>
<pdfrwt beam="1">  1       21 0.17649818E+00 0.42443122E+03</pdfrwt>
<pdfrwt beam="2">  1       21 0.26194612E-01 0.42443122E+03</pdfrwt>
<totfact> 0.22964791E+03</totfact>
</mgrwt>
</event>
<event>
 6    1  0.9502611E-004  0.4685347E+03  0.7818608E-02  0.1022463E+00
         21   -1    0    0  503  502  0.00000000000E+00  0.00000000000E+00  0.22642538120E+04  0.22642538120E+04  0.00000000000E+00 0.  1.
         21   -1    0    0  501  503 -0.00000000000E+00 -0.00000000000E+00 -0.22015552708E+03  0.22015552708E+03  0.00000000000E+00 0. -1.
    9000007    2    1    2  501    0 -0.24396749340E+03 -0.21571121079E+01  0.90502410534E+02  0.47541415954E+03  0.39787327858E+03 0.  0.
    9000005    1    3    3    0    0  0.74957967432E+02 -0.46792435007E+02 -0.72659040618E+02  0.11440526663E+03  0.99999687468E+00 0.  0.
          4    1    3    3  501    0 -0.31892546083E+03  0.44635322899E+02  0.16316145115E+03  0.36100889291E+03  0.00000000000E+00 0.  1.
   -9000007    1    1    2    0  502  0.24396749340E+03  0.21571121079E+01  0.19535958744E+04  0.20089951795E+04  0.40000000000E+03 0.  1.
<mgrwt>
<rscale>  2 0.46808049E+03</rscale>
<asrwt>0</asrwt>
<pdfrwt beam="1">  1       21 0.34834672E+00 0.46853473E+03</pdfrwt>
<pdfrwt beam="2">  1       21 0.33870083E-01 0.46853473E+03</pdfrwt>
<totfact> 0.11332089E+02</totfact>
</mgrwt>
</event>
<event>
 6    1  0.9502611E-004  0.4180582E+03  0.7818608E-02  0.1037782E+00
         21   -1    0    0  503  502  0.00000000000E+00  0.00000000000E+00  0.19919998411E+03  0.19919998411E+03  0.00000000000E+00 0.  1.
         21   -1    0    0  501  503 -0.00000000000E+00 -0.00000000000E+00 -0.88917268744E+03  0.88917268744E+03  0.00000000000E+00 0.  1.
    9000007    2    1    2  501    0  0.55214988472E+02  0.10436342236E+03 -0.27737644588E+03  0.50170744288E+03  0.40103895899E+03 0.  0.
    9000005    1    3    3    0    0  0.56850642297E+02 -0.11084272084E+03 -0.25691470480E+03  0.28552455206E+03  0.99999687468E+00 0.  0.
          4    1    3    3  501    0 -0.16356538242E+01  0.21520614320E+03 -0.20461741083E+02  0.21618289082E+03  0.00000000000E+00 0.  1.
   -9000007    1    1    2    0  502 -0.55214988472E+02 -0.10436342236E+03 -0.41259625745E+03  0.58666522868E+03  0.40000000000E+03 0.  1.
<mgrwt>
<rscale>  2 0.41780885E+03</rscale>
<asrwt>0</asrwt>
<pdfrwt beam="1">  1       21 0.30646152E-01 0.41805821E+03</pdfrwt>
<pdfrwt beam="2">  1       21 0.13679580E+00 0.41805821E+03</pdfrwt>
<totfact> 0.34070246E+03</totfact>
</mgrwt>
</event>
<event>
 6    1  0.9502611E-004  0.4498018E+03  0.7818608E-02  0.1027796E+00
         21   -1    0    0  503  502  0.00000000000E+00  0.00000000000E+00  0.94991064135E+03  0.94991064135E+03  0.00000000000E+00 0.  1.
         21   -1    0    0  501  503 -0.00000000000E+00 -0.00000000000E+00 -0.29250805397E+03  0.29250805397E+03  0.00000000000E+00 0.  1.
    9000007    2    1    2  501    0  0.19782108843E+03  0.56466497954E+02  0.45560882464E+01  0.44961972973E+03  0.39976930223E+03 0.  0.
    9000005    1    3    3    0    0 -0.56077286582E+02 -0.26724337833E+02  0.13772655069E+03  0.15109088345E+03  0.99999687468E+00 0.  0.
          4    1    3    3  501    0  0.25389837501E+03  0.83190835787E+02 -0.13317046245E+03  0.29852884628E+03  0.00000000000E+00 0.  1.
   -9000007    1    1    2    0  502 -0.19782108843E+03 -0.56466497954E+02  0.65284649912E+03  0.79279896559E+03  0.40000000000E+03 0.  1.
<mgrwt>
<rscale>  2 0.44975049E+03</rscale>
<asrwt>0</asrwt>
<pdfrwt beam="1">  1       21 0.14614010E+00 0.44980179E+03</pdfrwt>
<pdfrwt beam="2">  1       21 0.45001240E-01 0.44980179E+03</pdfrwt>
<totfact> 0.12884391E+03</totfact>
</mgrwt>
</event>
<event>
 6    1  0.9502611E-004  0.4764522E+03  0.7818608E-02  0.1020130E+00
         21   -1    0    0  503  502  0.00000000000E+00  0.00000000000E+00  0.96247628973E+03  0.96247628973E+03  0.00000000000E+00 0. -1.
         21   -1    0    0  501  503 -0.00000000000E+00 -0.00000000000E+00 -0.23574798195E+03  0.23574798195E+03  0.00000000000E+00 0. -1.
    9000007    2    1    2  501    0  0.20700411550E+03  0.15542196102E+03  0.36149740310E+03  0.59789077808E+03  0.39973281109E+03 0.  0.
    9000005    1    3    3    0    0 -0.45253536623E+02  0.90668889070E+02 -0.48360680174E+02  0.11228751223E+03  0.99999687468E+00 0.  0.
          4    1    3    3  501    0  0.25225765212E+03  0.64753071955E+02  0.40985808327E+03  0.48560326585E+03  0.00000000000E+00 0.  1.
   -9000007    1    1    2    0  502 -0.20700411550E+03 -0.15542196102E+03  0.36523090468E+03  0.60033349360E+03  0.40000000000E+03 0. -1.
<mgrwt>
<rscale>  2 0.47639611E+03</rscale>
<asrwt>0</asrwt>
<pdfrwt beam="1">  1       21 0.14807327E+00 0.47645219E+03</pdfrwt>
<pdfrwt beam="2">  1       21 0.36268921E-01 0.47645219E+03</pdfrwt>
<totfact> 0.19207759E+03</totfact>
</mgrwt>
</event>
<event>
 6    1  0.9502611E-004  0.5100921E+03  0.7818608E-02  0.1011207E+00
         21   -1    0    0  503  502  0.00000000000E+00  0.00000000000E+00  0.10456809468E+04  0.10456809468E+04  0.00000000000E+00 0. -1.
         21   -1    0    0  501  503 -0.00000000000E+00 -0.00000000000E+00 -0.25201465417E+03  0.25201465417E+03  0.00000000000E+00 0. -1.
    9000007    2    1    2  501    0  0.30310748428E+03 -0.88620175427E+02  0.32152867769E+03  0.60297147591E+03  0.40058236065E+03 0.  0.
    9000005    1    3    3    0    0  0.75424340773E+02 -0.22357547602E+03  0.20958465509E+03  0.31559713608E+03  0.99999687468E+00 0.  0.
          4    1    3    3  501    0  0.22768314351E+03  0.13495530059E+03  0.11194402260E+03  0.28737433983E+03  0.00000000000E+00 0.  1.
   -9000007    1    1    2    0  502 -0.30310748428E+03  0.88620175427E+02  0.47213761498E+03  0.69472412510E+03  0.40000000000E+03 0. -1.
<mgrwt>
<rscale>  2 0.50997772E+03</rscale>
<asrwt>0</asrwt>
<pdfrwt beam="1">  1       21 0.16087399E+00 0.51009206E+03</pdfrwt>
<pdfrwt beam="2">  1       21 0.38771486E-01 0.51009206E+03</pdfrwt>
<totfact> 0.13170107E+03</totfact>
</mgrwt>
</event>
<event>
 6    1  0.9502611E-004  0.4914371E+03  0.7818608E-02  0.1016104E+00
         21   -1    0    0  503  502  0.00000000000E+00  0.00000000000E+00  0.13051391651E+04  0.13051391651E+04  0.00000000000E+00 0.  1.
         21   -1    0    0  501  503 -0.00000000000E+00 -0.00000000000E+00 -0.38074843276E+03  0.38074843276E+03  0.00000000000E+00 0.  1.
    9000007    2    1    2  501    0 -0.28338925981E+03 -0.34654903495E+02 -0.14293379557E+03  0.51085905233E+03  0.39879376440E+03 0.  0.
    9000005    1    3    3    0    0  0.55654401010E+02 -0.69201661332E+02 -0.14502035982E+03  0.17005348288E+03  0.99999687468E+00 0.  0.
          4    1    3    3  501    0 -0.33904366082E+03  0.34546757836E+02  0.20865642535E+01  0.34080556946E+03  0.00000000000E+00 0.  1.
   -9000007    1    1    2    0  502  0.28338925981E+03  0.34654903495E+02  0.10673245279E+04  0.11750285455E+04  0.40000000000E+03 0.  1.
<mgrwt>
<rscale>  2 0.49119160E+03</rscale>
<asrwt>0</asrwt>
<pdfrwt beam="1">  1       21 0.20079064E+00 0.49143711E+03</pdfrwt>
<pdfrwt beam="2">  1       21 0.58576683E-01 0.49143711E+03</pdfrwt>
<totfact> 0.28886366E+02</totfact>
</mgrwt>
</event>
<event>
 6    1  0.9502611E-004  0.7595987E+03  0.7818608E-02  0.9620561E-01
         21   -1    0    0  503  502  0.00000000000E+00  0.00000000000E+00  0.37767871604E+03  0.37767871604E+03  0.00000000000E+00 0. -1.
         21   -1    0    0  501  503 -0.00000000000E+00 -0.00000000000E+00 -0.15362918268E+04  0.15362918268E+04  0.00000000000E+00 0.  1.
    9000007    2    1    2  501    0  0.23339208508E+03  0.60209492526E+03 -0.65379778821E+03  0.10019241217E+04  0.39926211114E+03 0.  0.
    9000005    1    3    3    0    0  0.17623148105E+03  0.40840008756E+03 -0.16738766985E+03  0.47525550859E+03  0.99999687468E+00 0.  0.
          4    1    3    3  501    0  0.57160604027E+02  0.19369483770E+03 -0.48641011836E+03  0.52666861312E+03  0.00000000000E+00 0.  1.
   -9000007    1    1    2    0  502 -0.23339208508E+03 -0.60209492526E+03 -0.50481532254E+03  0.91204642112E+03  0.40000000000E+03 0. -1.
<mgrwt>
<rscale>  2 0.75950159E+03</rscale>
<asrwt>0</asrwt>
<pdfrwt beam="1">  1       21 0.58104419E-01 0.75959869E+03</pdfrwt>
<pdfrwt beam="2">  1       21 0.23635258E+00 0.75959869E+03</pdfrwt>
<totfact> 0.15559437E+02</totfact>
</mgrwt>
</event>
<event>
 6    1  0.9502611E-004  0.4373602E+03  0.7818608E-02  0.1031588E+00
         21   -1    0    0  503  502  0.00000000000E+00  0.00000000000E+00  0.29510129903E+03  0.29510129903E+03  0.00000000000E+00 0. -1.
         21   -1    0    0  501  503 -0.00000000000E+00 -0.00000000000E+00 -0.72395129628E+03  0.72395129628E+03  0.00000000000E+00 0. -1.
    9000007    2    1    2  501    0  0.46079630293E+02 -0.17076487041E+03 -0.37974373184E+03  0.57894420117E+03  0.39960869973E+03 0.  0.
    9000005    1    3    3    0    0 -0.78388426659E+02 -0.18198333981E+03 -0.40551857130E+03  0.45134132656E+03  0.99999687468E+00 0.  0.
          4    1    3    3  501    0  0.12446805695E+03  0.11218469400E+02  0.25774839463E+02  0.12760287460E+03  0.00000000000E+00 0.  1.
   -9000007    1    1    2    0  502 -0.46079630293E+02  0.17076487041E+03 -0.49106265415E+02  0.44010839415E+03  0.40000000000E+03 0.  1.
<mgrwt>
<rscale>  2 0.43727074E+03</rscale>
<asrwt>0</asrwt>
<pdfrwt beam="1">  1       21 0.45400201E-01 0.43736023E+03</pdfrwt>
<pdfrwt beam="2">  1       21 0.11137712E+00 0.43736023E+03</pdfrwt>
<totfact> 0.25646574E+03</totfact>
</mgrwt>
</event>
<event>
 6    1  0.9502611E-004  0.5690106E+03  0.7818608E-02  0.9971883E-01
         21   -1    0    0  503  502  0.00000000000E+00  0.00000000000E+00  0.47470922986E+03  0.47470922986E+03  0.00000000000E+00 0. -1.
         21   -1    0    0  501  503 -0.00000000000E+00 -0.00000000000E+00 -0.97960572045E+03  0.97960572045E+03  0.00000000000E+00 0.  1.
    9000007    2    1    2  501    0  0.24011917411E+03 -0.32571597352E+03 -0.65323507546E+03  0.86630776588E+03  0.40003120907E+03 0.  0.
    9000005    1    3    3    0    0 -0.72073316718E+02 -0.18749743142E+03 -0.12263198733E+03  0.23534964220E+03  0.99999687468E+00 0.  0.
          4    1    3    3  501    0  0.31219249082E+03 -0.13821854210E+03 -0.53060308812E+03  0.63095812368E+03  0.00000000000E+00 0.  1.
   -9000007    1    1    2    0  502 -0.24011917411E+03  0.32571597352E+03  0.14833858487E+03  0.58800718443E+03  0.40000000000E+03 0. -1.
<mgrwt>
<rscale>  2 0.56900513E+03</rscale>
<asrwt>0</asrwt>
<pdfrwt beam="1">  1       21 0.73032189E-01 0.56901062E+03</pdfrwt>
<pdfrwt beam="2">  1       21 0.15070857E+00 0.56901062E+03</pdfrwt>
<totfact> 0.39307013E+02</totfact>
</mgrwt>
</event>
<event>
 6    1  0.9502611E-004  0.4539322E+03  0.7818608E-02  0.1026625E+00
         21   -1    0    0  503  502  0.00000000000E+00  0.00000000000E+00  0.10978785837E+04  0.10978785837E+04  0.00000000000E+00 0.  1.
         21   -1    0    0  501  503 -0.00000000000E+00 -0.00000000000E+00 -0.19344275767E+03  0.19344275767E+03  0.00000000000E+00 0.  1.
    9000007    2    1    2  501    0  0.23619059334E+02  0.21130181938E+03  0.56774684876E+03  0.72690501785E+03  0.40105872620E+03 0.  0.
    9000005    1    3    3    0    0  0.10238411751E+02 -0.11309639478E+03  0.24029244776E+03  0.26577637222E+03  0.99999687468E+00 0.  0.
          4    1    3    3  501    0  0.13380647584E+02  0.32439821417E+03  0.32745440100E+03  0.46112864563E+03  0.00000000000E+00 0.  1.
   -9000007    1    1    2    0  502 -0.23619059334E+02 -0.21130181938E+03  0.33668897729E+03  0.56441632353E+03  0.40000000000E+03 0.  1.
<mgrwt>
<rscale>  2 0.45369821E+03</rscale>
<asrwt>0</asrwt>
<pdfrwt beam="1">  1       21 0.16890439E+00 0.45393218E+03</pdfrwt>
<pdfrwt beam="2">  1       21 0.29760425E-01 0.45393218E+03</pdfrwt>
<totfact> 0.20012667E+03</totfact>
</mgrwt>
</event>
<event>
 6    1  0.9502611E-004  0.6282274E+03  0.7818608E-02  0.9849054E-01
         21   -1    0    0  503  502  0.00000000000E+00  0.00000000000E+00  0.14299215625E+03  0.14299215625E+03  0.00000000000E+00 0. -1.
         21   -1    0    0  501  503 -0.00000000000E+00 -0.00000000000E+00 -0.30885655701E+04  0.30885655701E+04  0.00000000000E+00 0.  1.
    9000007    2    1    2  501    0  0.33018238774E+03 -0.35447046739E+03 -0.20024409767E+04  0.20983461330E+04  0.39826738136E+03 0.  0.
    9000005    1    3    3    0    0  0.97789538444E+02 -0.81138918629E+02 -0.98178073193E+02  0.16058098267E+03  0.99999687468E+00 0.  0.
          4    1    3    3  501    0  0.23239284929E+03 -0.27333154876E+03 -0.19042629035E+04  0.19377651503E+04  0.00000000000E+00 0.  1.
   -9000007    1    1    2    0  502 -0.33018238774E+03  0.35447046739E+03 -0.94313243714E+03  0.11332115934E+04  0.40000000000E+03 0. -1.
<mgrwt>
<rscale>  2 0.62795182E+03</rscale>
<asrwt>0</asrwt>
<pdfrwt beam="1">  1       21 0.21998794E-01 0.62822744E+03</pdfrwt>
<pdfrwt beam="2">  1       21 0.47516392E+00 0.62822744E+03</pdfrwt>
<totfact> 0.35844992E+01</totfact>
</mgrwt>
</event>
<event>
 6    1  0.9502611E-004  0.4454673E+03  0.7818608E-02  0.1029086E+00
         21   -1    0    0  503  502  0.00000000000E+00  0.00000000000E+00  0.60512054717E+03  0.60512054717E+03  0.00000000000E+00 0.  1.
         21   -1    0    0  501  503 -0.00000000000E+00 -0.00000000000E+00 -0.47997957627E+03  0.47997957627E+03  0.00000000000E+00 0.  1.
    9000007    2    1    2  501    0  0.15454960835E+03 -0.12064635648E+03 -0.24282640088E+03  0.50731027284E+03  0.39994740553E+03 0.  0.
    9000005    1    3    3    0    0 -0.11231513692E+03 -0.70059104647E+02  0.14480356375E+02  0.13316774700E+03  0.99999687468E+00 0.  0.
          4    1    3    3  501    0  0.26686474527E+03 -0.50587251835E+02 -0.25730675725E+03  0.37414252584E+03  0.00000000000E+00 0.  1.
   -9000007    1    1    2    0  502 -0.15454960835E+03  0.12064635648E+03  0.36796737178E+03  0.57778985061E+03  0.40000000000E+03 0.  1.
<mgrwt>
<rscale>  2 0.44545550E+03</rscale>
<asrwt>0</asrwt>
<pdfrwt beam="1">  1       21 0.93095469E-01 0.44546731E+03</pdfrwt>
<pdfrwt beam="2">  1       21 0.73843011E-01 0.44546731E+03</pdfrwt>
<totfact> 0.13711739E+03</totfact>
</mgrwt>
</event>
<event>
 6    1  0.9502611E-004  0.4221582E+03  0.7818608E-02  0.1036460E+00
         21   -1    0    0  503  502  0.00000000000E+00  0.00000000000E+00  0.94131956221E+03  0.94131956221E+03  0.00000000000E+00 0. -1.
         21   -1    0    0  501  503 -0.00000000000E+00 -0.00000000000E+00 -0.19317332436E+03  0.19317332436E+03  0.00000000000E+00 0. -1.
    9000007    2    1    2  501    0  0.40676722328E+02 -0.12484050588E+03  0.28930019431E+03  0.51177349606E+03  0.40122033995E+03 0.  0.
    9000005    1    3    3    0    0 -0.22042956664E+02 -0.18446773592E+03 -0.23462993202E+02  0.18725851003E+03  0.99999687468E+00 0.  0.
          4    1    3    3  501    0  0.62719678993E+02  0.59627230039E+02  0.31276318751E+03  0.32451498603E+03  0.00000000000E+00 0.  1.
   -9000007    1    1    2    0  502 -0.40676722328E+02  0.12484050588E+03  0.45884604355E+03  0.62271939052E+03  0.40000000000E+03 0. -1.
<mgrwt>
<rscale>  2 0.42186795E+03</rscale>
<asrwt>0</asrwt>
<pdfrwt beam="1">  1       21 0.14481839E+00 0.42215816E+03</pdfrwt>
<pdfrwt beam="2">  1       21 0.29718973E-01 0.42215816E+03</pdfrwt>
<totfact> 0.31068494E+03</totfact>
</mgrwt>
</event>
<event>
 6    1  0.9502611E-004  0.4960459E+03  0.7818608E-02  0.1015045E+00
         21   -1    0    0  503  502  0.00000000000E+00  0.00000000000E+00  0.33491943506E+03  0.33491943506E+03  0.00000000000E+00 0.  1.
         21   -1    0    0  501  503 -0.00000000000E+00 -0.00000000000E+00 -0.72984195574E+03  0.72984195574E+03  0.00000000000E+00 0.  1.
    9000007    2    1    2  501    0 -0.24082651747E+03 -0.16752344568E+03 -0.18650013200E+03  0.52670803984E+03  0.39569880417E+03 0.  0.
    9000005    1    3    3    0    0 -0.22296536120E+03 -0.26532031878E+03 -0.38892092606E+02  0.34874348555E+03  0.99999687468E+00 0.  0.
          4    1    3    3  501    0 -0.17861156269E+02  0.97796873096E+02 -0.14760803939E+03  0.17796455429E+03  0.00000000000E+00 0.  1.
   -9000007    1    1    2    0  502  0.24082651747E+03  0.16752344568E+03 -0.20842238868E+03  0.53805335096E+03  0.40000000000E+03 0.  1.
<mgrwt>
<rscale>  2 0.49517815E+03</rscale>
<asrwt>0</asrwt>
<pdfrwt beam="1">  1       21 0.51526067E-01 0.49604588E+03</pdfrwt>
<pdfrwt beam="2">  1       21 0.11228338E+00 0.49604588E+03</pdfrwt>
<totfact> 0.18816205E+03</totfact>
</mgrwt>
</event>
<event>
 6    1  0.9502611E-004  0.6042091E+03  0.7818608E-02  0.9896754E-01
         21   -1    0    0  503  502  0.00000000000E+00  0.00000000000E+00  0.66887458816E+03  0.66887458816E+03  0.00000000000E+00 0.  1.
         21   -1    0    0  501  503 -0.00000000000E+00 -0.00000000000E+00 -0.71762870180E+03  0.71762870180E+03  0.00000000000E+00 0.  1.
    9000007    2    1    2  501    0  0.38544506014E+03 -0.23769888826E+03 -0.36367941493E+03  0.70514684781E+03  0.39987586106E+03 0.  0.
    9000005    1    3    3    0    0  0.40115057842E+03 -0.64114391428E+02 -0.33901497481E+03  0.52911680647E+03  0.99999687468E+00 0.  0.
          4    1    3    3  501    0 -0.15705518275E+02 -0.17358449684E+03 -0.24664440126E+02  0.17603004134E+03  0.00000000000E+00 0.  1.
   -9000007    1    1    2    0  502 -0.38544506014E+03  0.23769888826E+03  0.31492530129E+03  0.68135644215E+03  0.40000000000E+03 0.  1.
<mgrwt>
<rscale>  2 0.60418857E+03</rscale>
<asrwt>0</asrwt>
<pdfrwt beam="1">  1       21 0.10290378E+00 0.60420912E+03</pdfrwt>
<pdfrwt beam="2">  1       21 0.11040442E+00 0.60420912E+03</pdfrwt>
<totfact> 0.38894646E+02</totfact>
</mgrwt>
</event>
<event>
 6    1  0.9502611E-004  0.4385162E+03  0.7818608E-02  0.1031211E+00
         21   -1    0    0  503  502  0.00000000000E+00  0.00000000000E+00  0.18527364200E+03  0.18527364200E+03  0.00000000000E+00 0. -1.
         21   -1    0    0  501  503 -0.00000000000E+00 -0.00000000000E+00 -0.15075225892E+04  0.15075225892E+04  0.00000000000E+00 0. -1.
    9000007    2    1    2  501    0 -0.17197466802E+03 -0.51284218530E+02 -0.11337074809E+04  0.12155612346E+04  0.40011386523E+03 0.  0.
    9000005    1    3    3    0    0  0.25071206234E+02  0.12658278392E+03 -0.15598762898E+03  0.20244729427E+03  0.99999687468E+00 0.  0.
          4    1    3    3  501    0 -0.19704587426E+03 -0.17786700245E+03 -0.97771985196E+03  0.10131139403E+04  0.00000000000E+00 0.  1.
   -9000007    1    1    2    0  502  0.17197466802E+03  0.51284218530E+02 -0.18854146627E+03  0.47723499664E+03  0.40000000000E+03 0. -1.
<mgrwt>
<rscale>  2 0.43849023E+03</rscale>
<asrwt>0</asrwt>
<pdfrwt beam="1">  1       21 0.28503638E-01 0.43851621E+03</pdfrwt>
<pdfrwt beam="2">  1       21 0.23192655E+00 0.43851621E+03</pdfrwt>
<totfact> 0.82988050E+02</totfact>
</mgrwt>
</event>
<event>
 6    1  0.9502611E-004  0.4488160E+03  0.7818608E-02  0.1028168E+00
         21   -1    0    0  503  502  0.00000000000E+00  0.00000000000E+00  0.10354838292E+04  0.10354838292E+04  0.00000000000E+00 0.  1.
         21   -1    0    0  501  503 -0.00000000000E+00 -0.00000000000E+00 -0.66951151186E+03  0.66951151186E+03  0.00000000000E+00 0.  1.
    9000007    2    1    2  501    0  0.16870715481E+03  0.11390210665E+03 -0.53553550059E+03  0.69794413096E+03  0.39861252308E+03 0.  0.
    9000005    1    3    3    0    0 -0.61475544309E+02 -0.89817973734E+02 -0.27229784852E+03  0.29324670374E+03  0.99999687468E+00 0.  0.
          4    1    3    3  501    0  0.23018269912E+03  0.20372008039E+03 -0.26323765208E+03  0.40469742722E+03  0.00000000000E+00 0.  1.
   -9000007    1    1    2    0  502 -0.16870715481E+03 -0.11390210665E+03  0.90150781794E+03  0.10070512101E+04  0.40000000000E+03 0.  1.
<mgrwt>
<rscale>  2 0.44850664E+03</rscale>
<asrwt>0</asrwt>
<pdfrwt beam="1">  1       21 0.15930520E+00 0.44881599E+03</pdfrwt>
<pdfrwt beam="2">  1       21 0.10300177E+00 0.44881599E+03</pdfrwt>
<totfact> 0.15803930E+02</totfact>
</mgrwt>
</event>
<event>
 6    1  0.9502611E-004  0.4075461E+03  0.7818608E-02  0.1041342E+00
         21   -1    0    0  503  502  0.00000000000E+00  0.00000000000E+00  0.28287029815E+03  0.28287029815E+03  0.00000000000E+00 0. -1.
         21   -1    0    0  501  503 -0.00000000000E+00 -0.00000000000E+00 -0.11380102458E+04  0.11380102458E+04  0.00000000000E+00 0. -1.
    9000007    2    1    2  501    0  0.67592279518E+02 -0.11644751543E+02 -0.92340479761E+03  0.10093414739E+04  0.40173308818E+03 0.  0.
    9000005    1    3    3    0    0  0.22418606801E+03  0.50362512970E+02 -0.42337299697E+03  0.48170683030E+03  0.99999687468E+00 0.  0.
          4    1    3    3  501    0 -0.15659378849E+03 -0.62007264512E+02 -0.50003180064E+03  0.52763464357E+03  0.00000000000E+00 0.  1.
   -9000007    1    1    2    0  502 -0.67592279518E+02  0.11644751543E+02  0.68264849930E+02  0.41153907011E+03  0.40000000000E+03 0. -1.
<mgrwt>
<rscale>  2 0.40711832E+03</rscale>
<asrwt>0</asrwt>
<pdfrwt beam="1">  1       21 0.43518508E-01 0.40754606E+03</pdfrwt>
<pdfrwt beam="2">  1       21 0.17507850E+00 0.40754606E+03</pdfrwt>
<totfact> 0.85247579E+02</totfact>
</mgrwt>
</event>
<event>
 6    1  0.9502611E-004  0.4694556E+03  0.7818608E-02  0.1022092E+00
         21   -1    0    0  503  502  0.00000000000E+00  0.00000000000E+00  0.97843029104E+03  0.97843029104E+03  0.00000000000E+00 0. -1.
         21   -1    0    0  501  503 -0.00000000000E+00 -0.00000000000E+00 -0.59668749794E+03  0.59668749794E+03  0.00000000000E+00 0.  1.
    9000007    2    1    2  501    0  0.19723570310E+03 -0.14658315222E+03 -0.43062887043E+03  0.63685542546E+03  0.39969371498E+03 0.  0.
    9000005    1    3    3    0    0  0.25527574760E+03 -0.24335981654E+03 -0.29041675201E+03  0.45687262718E+03  0.99999687468E+00 0.  0.
          4    1    3    3  501    0 -0.58040044505E+02  0.96776664325E+02 -0.14021211842E+03  0.17998279828E+03  0.00000000000E+00 0.  1.
   -9000007    1    1    2    0  502 -0.19723570310E+03  0.14658315222E+03  0.81237166353E+03  0.93826236352E+03  0.40000000000E+03 0. -1.
<mgrwt>
<rscale>  2 0.46939033E+03</rscale>
<asrwt>0</asrwt>
<pdfrwt beam="1">  1       21 0.15052774E+00 0.46945558E+03</pdfrwt>
<pdfrwt beam="2">  1       21 0.91798077E-01 0.46945558E+03</pdfrwt>
<totfact> 0.24134516E+02</totfact>
</mgrwt>
</event>
<event>
 6    1  0.9502611E-004  0.5398340E+03  0.7818608E-02  0.1003913E+00
         21   -1    0    0  503  502  0.00000000000E+00  0.00000000000E+00  0.45311573329E+03  0.45311573329E+03  0.00000000000E+00 0. -1.
         21   -1    0    0  501  503 -0.00000000000E+00 -0.00000000000E+00 -0.19422856063E+04  0.19422856063E+04  0.00000000000E+00 0.  1.
    9000007    2    1    2  501    0  0.13105548420E+03 -0.33695991277E+03 -0.17245595537E+04  0.18070767485E+04  0.40087803406E+03 0.  0.
    9000005    1    3    3    0    0 -0.10426298128E+03 -0.22842510444E+02 -0.73188563445E+03  0.73962837389E+03  0.99999687468E+00 0.  0.
          4    1    3    3  501    0  0.23531846549E+03 -0.31411740233E+03 -0.99267391922E+03  0.10674483747E+04  0.00000000000E+00 0.  1.
   -9000007    1    1    2    0  502 -0.13105548420E+03  0.33695991277E+03  0.23538968062E+03  0.58832459110E+03  0.40000000000E+03 0. -1.
<mgrwt>
<rscale>  2 0.53967098E+03</rscale>
<asrwt>0</asrwt>
<pdfrwt beam="1">  1       21 0.69710113E-01 0.53983398E+03</pdfrwt>
<pdfrwt beam="2">  1       21 0.29881317E+00 0.53983398E+03</pdfrwt>
<totfact> 0.46768355E+01</totfact>
</mgrwt>
</event>
<event>
 6    1  0.9502611E-004  0.4499075E+03  0.7818608E-02  0.1027771E+00
         21   -1    0    0  503  502  0.00000000000E+00  0.00000000000E+00  0.30838853184E+03  0.30838853184E+03  0.00000000000E+00 0. -1.
         21   -1    0    0  501  503 -0.00000000000E+00 -0.00000000000E+00 -0.78417656988E+03  0.78417656988E+03  0.00000000000E+00 0. -1.
    9000007    2    1    2  501    0 -0.17188261981E+03  0.11231406603E+03 -0.45885970900E+03  0.64262660288E+03  0.40032316167E+03 0.  0.
    9000005    1    3    3    0    0 -0.10040398492E+02  0.24217507105E+03 -0.24412385390E+03  0.34401603259E+03  0.99999687468E+00 0.  0.
          4    1    3    3  501    0 -0.16184222132E+03 -0.12986100502E+03 -0.21473585509E+03  0.29861057029E+03  0.00000000000E+00 0.  1.
   -9000007    1    1    2    0  502  0.17188261981E+03 -0.11231406603E+03 -0.16928329042E+02  0.44993849885E+03  0.40000000000E+03 0. -1.
<mgrwt>
<rscale>  2 0.44983556E+03</rscale>
<asrwt>0</asrwt>
<pdfrwt beam="1">  1       21 0.47444390E-01 0.44990746E+03</pdfrwt>
<pdfrwt beam="2">  1       21 0.12064255E+00 0.44990746E+03</pdfrwt>
<totfact> 0.19037276E+03</totfact>
</mgrwt>
</event>
<event>
 6    1  0.9502611E-004  0.4729002E+03  0.7818608E-02  0.1021115E+00
         21   -1    0    0  503  502  0.00000000000E+00  0.00000000000E+00  0.97250433600E+03  0.97250433600E+03  0.00000000000E+00 0.  1.
         21   -1    0    0  501  503 -0.00000000000E+00 -0.00000000000E+00 -0.23597010874E+03  0.23597010874E+03  0.00000000000E+00 0. -1.
    9000007    2    1    2  501    0  0.24984575091E+03 -0.34810129750E+02  0.27121869818E+03  0.54503402844E+03  0.39983479780E+03 0.  0.
    9000005    1    3    3    0    0  0.14957827519E+03 -0.30127919456E+02 -0.85192894355E+02  0.17475749249E+03  0.99999687468E+00 0.  0.
          4    1    3    3  501    0  0.10026747572E+03 -0.46822102941E+01  0.35641159254E+03  0.37027653595E+03  0.00000000000E+00 0.  1.
   -9000007    1    1    2    0  502 -0.24984575091E+03  0.34810129750E+02  0.46531552907E+03  0.66344041630E+03  0.40000000000E+03 0. -1.
<mgrwt>
<rscale>  2 0.47286531E+03</rscale>
<asrwt>0</asrwt>
<pdfrwt beam="1">  1       21 0.14961605E+00 0.47290025E+03</pdfrwt>
<pdfrwt beam="2">  1       21 0.36303094E-01 0.47290025E+03</pdfrwt>
<totfact> 0.18664401E+03</totfact>
</mgrwt>
</event>
<event>
 6    1  0.9502611E-004  0.6003578E+03  0.7818608E-02  0.9905012E-01
         21   -1    0    0  503  502  0.00000000000E+00  0.00000000000E+00  0.21255503283E+04  0.21255503283E+04  0.00000000000E+00 0. -1.
         21   -1    0    0  501  503 -0.00000000000E+00 -0.00000000000E+00 -0.18433317058E+03  0.18433317058E+03  0.00000000000E+00 0.  1.
    9000007    2    1    2  501    0 -0.34580780609E+03 -0.28291476129E+03  0.13000496703E+04  0.14319771555E+04  0.40100577002E+03 0.  0.
    9000005    1    3    3    0    0 -0.20531601779E+03  0.62761332532E+01  0.87634999920E+03  0.90010242645E+03  0.99999687468E+00 0.  0.
          4    1    3    3  501    0 -0.14049178830E+03 -0.28919089455E+03  0.42369967114E+03  0.53187472904E+03  0.00000000000E+00 0.  1.
   -9000007    1    1    2    0  502  0.34580780609E+03  0.28291476129E+03  0.64116748742E+03  0.87790634344E+03  0.40000000000E+03 0.  1.
<mgrwt>
<rscale>  2 0.60018985E+03</rscale>
<asrwt>0</asrwt>
<pdfrwt beam="1">  1       21 0.32700772E+00 0.60035775E+03</pdfrwt>
<pdfrwt beam="2">  1       21 0.28358951E-01 0.60035775E+03</pdfrwt>
<totfact> 0.20342641E+02</totfact>
</mgrwt>
</event>
<event>
 6    1  0.9502611E-004  0.4921078E+03  0.7818608E-02  0.1016012E+00
         21   -1    0    0  503  502  0.00000000000E+00  0.00000000000E+00  0.33268284287E+03  0.33268284287E+03  0.00000000000E+00 0.  1.
         21   -1    0    0  501  503 -0.00000000000E+00 -0.00000000000E+00 -0.10704185825E+04  0.10704185825E+04  0.00000000000E+00 0. -1.
    9000007    2    1    2  501    0 -0.48017709987E+02 -0.27862004069E+03 -0.76821999958E+03  0.91232233281E+03  0.40278436370E+03 0.  0.
    9000005    1    3    3    0    0 -0.12686397214E+03 -0.10982963035E+03 -0.57174693620E+02  0.17727650920E+03  0.99999687468E+00 0.  0.
          4    1    3    3  501    0  0.78846262151E+02 -0.16879041034E+03 -0.71104530596E+03  0.73504582361E+03  0.00000000000E+00 0.  1.
   -9000007    1    1    2    0  502  0.48017709987E+02  0.27862004069E+03  0.30484259988E+02  0.49077909252E+03  0.40000000000E+03 0.  1.
<mgrwt>
<rscale>  2 0.49153771E+03</rscale>
<asrwt>0</asrwt>
<pdfrwt beam="1">  1       21 0.51181975E-01 0.49210778E+03</pdfrwt>
<pdfrwt beam="2">  1       21 0.16467978E+00 0.49210778E+03</pdfrwt>
<totfact> 0.69359989E+02</totfact>
</mgrwt>
</event>
<event>
 6    1  0.9502611E-004  0.4477907E+03  0.7818608E-02  0.1028430E+00
         21   -1    0    0  503  502  0.00000000000E+00  0.00000000000E+00  0.18426462417E+03  0.18426462417E+03  0.00000000000E+00 0. -1.
         21   -1    0    0  501  503 -0.00000000000E+00 -0.00000000000E+00 -0.20228504195E+04  0.20228504195E+04  0.00000000000E+00 0. -1.
    9000007    2    1    2  501    0 -0.19987396757E+03  0.19124651508E+01 -0.16703859161E+04  0.17293656744E+04  0.40070346493E+03 0.  0.
    9000005    1    3    3    0    0 -0.32004394290E+03 -0.35250845973E+02 -0.12092317106E+04  0.12513644863E+04  0.99999687468E+00 0.  0.
          4    1    3    3  501    0  0.12016997533E+03  0.37163311124E+02 -0.46115420542E+03  0.47800118812E+03  0.00000000000E+00 0.  1.
   -9000007    1    1    2    0  502  0.19987396757E+03 -0.19124651508E+01 -0.16819987925E+03  0.47774936925E+03  0.40000000000E+03 0. -1.
<mgrwt>
<rscale>  2 0.44763329E+03</rscale>
<asrwt>0</asrwt>
<pdfrwt beam="1">  1       21 0.28348404E-01 0.44779072E+03</pdfrwt>
<pdfrwt beam="2">  1       21 0.31120775E+00 0.44779072E+03</pdfrwt>
<totfact> 0.27520917E+02</totfact>
</mgrwt>
</event>
<event>
 6    1  0.9502611E-004  0.5842767E+03  0.7818608E-02  0.9942635E-01
         21   -1    0    0  503  502  0.00000000000E+00  0.00000000000E+00  0.24168007446E+04  0.24168007446E+04  0.00000000000E+00 0. -1.
         21   -1    0    0  501  503 -0.00000000000E+00 -0.00000000000E+00 -0.14142202192E+03  0.14142202192E+03  0.00000000000E+00 0.  1.
    9000007    2    1    2  501    0  0.36140684902E+03  0.22530941307E+03  0.97901359648E+03  0.11362727735E+04  0.38893309404E+03 0.  0.
    9000005    1    3    3    0    0 -0.76218619314E+02  0.73359289605E+02  0.11751516193E+03  0.15811918473E+03  0.99999687468E+00 0.  0.
          4    1    3    3  501    0  0.43762546834E+03  0.15195012347E+03  0.86149843455E+03  0.97815358880E+03  0.00000000000E+00 0.  1.
   -9000007    1    1    2    0  502 -0.36140684902E+03 -0.22530941307E+03  0.12963651262E+04  0.14219499930E+04  0.40000000000E+03 0. -1.
<mgrwt>
<rscale>  2 0.58238752E+03</rscale>
<asrwt>0</asrwt>
<pdfrwt beam="1">  1       21 0.37181547E+00 0.58427668E+03</pdfrwt>
<pdfrwt beam="2">  1       21 0.21757236E-01 0.58427668E+03</pdfrwt>
<totfact> 0.18148469E+02</totfact>
</mgrwt>
</event>
<event>
 6    1  0.9502611E-004  0.5435389E+03  0.7818608E-02  0.1003057E+00
         21   -1    0    0  503  502  0.00000000000E+00  0.00000000000E+00  0.11756117035E+04  0.11756117035E+04  0.00000000000E+00 0. -1.
         21   -1    0    0  501  503 -0.00000000000E+00 -0.00000000000E+00 -0.34268146360E+03  0.34268146360E+03  0.00000000000E+00 0.  1.
    9000007    2    1    2  501    0 -0.63140322584E+02  0.36255740584E+03  0.23221186642E+02  0.54306841156E+03  0.39868471661E+03 0.  0.
    9000005    1    3    3    0    0  0.75051515604E+02  0.22178424545E+03  0.17653120133E+03  0.29323241049E+03  0.99999687468E+00 0.  0.
          4    1    3    3  501    0 -0.13819183819E+03  0.14077316039E+03 -0.15331001469E+03  0.24983600107E+03  0.00000000000E+00 0.  1.
   -9000007    1    1    2    0  502  0.63140322584E+02 -0.36255740584E+03  0.80970905325E+03  0.97522475552E+03  0.40000000000E+03 0. -1.
<mgrwt>
<rscale>  2 0.54329697E+03</rscale>
<asrwt>0</asrwt>
<pdfrwt beam="1">  1       21 0.18086334E+00 0.54353893E+03</pdfrwt>
<pdfrwt beam="2">  1       21 0.52720226E-01 0.54353893E+03</pdfrwt>
<totfact> 0.48664142E+02</totfact>
</mgrwt>
</event>
<event>
 6    1  0.9502611E-004  0.4225994E+03  0.7818608E-02  0.1036365E+00
         21   -1    0    0  503  502  0.00000000000E+00  0.00000000000E+00  0.93711001467E+03  0.93711001467E+03  0.00000000000E+00 0. -1.
         21   -1    0    0  501  503 -0.00000000000E+00 -0.00000000000E+00 -0.19040783913E+03  0.19040783913E+03  0.00000000000E+00 0. -1.
    9000007    2    1    2  501    0 -0.41851311161E+02 -0.12976402185E+03  0.34035745876E+03  0.54125318450E+03  0.39814768163E+03 0.  0.
    9000005    1    3    3    0    0  0.14166578860E+03 -0.17772437695E+03  0.22178794578E+03  0.31756265950E+03  0.99999687468E+00 0.  0.
          4    1    3    3  501    0 -0.18351709976E+03  0.47960355102E+02  0.11856951298E+03  0.22369052500E+03  0.00000000000E+00 0.  1.
   -9000007    1    1    2    0  502  0.41851311161E+02  0.12976402185E+03  0.40634471678E+03  0.58626466930E+03  0.40000000000E+03 0.  1.
<mgrwt>
<rscale>  2 0.42216048E+03</rscale>
<asrwt>0</asrwt>
<pdfrwt beam="1">  1       21 0.14417077E+00 0.42259938E+03</pdfrwt>
<pdfrwt beam="2">  1       21 0.29293514E-01 0.42259938E+03</pdfrwt>
<totfact> 0.32349317E+03</totfact>
</mgrwt>
</event>
<event>
 6    1  0.9502611E-004  0.4359610E+03  0.7818608E-02  0.1032089E+00
         21   -1    0    0  503  502  0.00000000000E+00  0.00000000000E+00  0.13732007231E+04  0.13732007231E+04  0.00000000000E+00 0.  1.
         21   -1    0    0  501  503 -0.00000000000E+00 -0.00000000000E+00 -0.20535540871E+03  0.20535540871E+03  0.00000000000E+00 0. -1.
    9000007    2    1    2  501    0 -0.16495882552E+03  0.42185703411E+02  0.13251124474E+03  0.45565467421E+03  0.40133639812E+03 0.  0.
    9000005    1    3    3    0    0 -0.26242098382E+03  0.13176810639E+03  0.45273454944E+02  0.29711663085E+03  0.99999687468E+00 0.  0.
          4    1    3    3  501    0  0.97462158302E+02 -0.89582402974E+02  0.87237789794E+02  0.15853804336E+03  0.00000000000E+00 0.  1.
   -9000007    1    1    2    0  502  0.16495882552E+03 -0.42185703411E+02  0.10353340696E+04  0.11229014576E+04  0.40000000000E+03 0.  1.
<mgrwt>
<rscale>  2 0.43565314E+03</rscale>
<asrwt>0</asrwt>
<pdfrwt beam="1">  1       21 0.21126164E+00 0.43596095E+03</pdfrwt>
<pdfrwt beam="2">  1       21 0.31593141E-01 0.43596095E+03</pdfrwt>
<totfact> 0.91732484E+02</totfact>
</mgrwt>
</event>
<event>
 6    1  0.9502611E-004  0.5184133E+03  0.7818608E-02  0.1009091E+00
         21   -1    0    0  503  502  0.00000000000E+00  0.00000000000E+00  0.26733717857E+03  0.26733717857E+03  0.00000000000E+00 0. -1.
         21   -1    0    0  501  503 -0.00000000000E+00 -0.00000000000E+00 -0.12776822027E+04  0.12776822027E+04  0.00000000000E+00 0. -1.
    9000007    2    1    2  501    0  0.27281751629E+03  0.18526457855E+03 -0.86199993025E+03  0.10057989921E+04  0.39979416132E+03 0.  0.
    9000005    1    3    3    0    0  0.32308058357E+01  0.23552274294E+03 -0.30902614425E+03  0.38856088117E+03  0.99999687468E+00 0.  0.
          4    1    3    3  501    0  0.26958671046E+03 -0.50258164388E+02 -0.55297378599E+03  0.61723811089E+03  0.00000000000E+00 0.  1.
   -9000007    1    1    2    0  502 -0.27281751629E+03 -0.18526457855E+03 -0.14834509390E+03  0.53922038922E+03  0.40000000000E+03 0. -1.
<mgrwt>
<rscale>  2 0.51837361E+03</rscale>
<asrwt>0</asrwt>
<pdfrwt beam="1">  1       21 0.41128796E-01 0.51841331E+03</pdfrwt>
<pdfrwt beam="2">  1       21 0.19656649E+00 0.51841331E+03</pdfrwt>
<totfact> 0.64687254E+02</totfact>
</mgrwt>
</event>
<event>
 6    1  0.9502611E-004  0.4050008E+03  0.7818608E-02  0.1042302E+00
         21   -1    0    0  503  502  0.00000000000E+00  0.00000000000E+00  0.43682208010E+03  0.43682208010E+03  0.00000000000E+00 0. -1.
         21   -1    0    0  501  503 -0.00000000000E+00 -0.00000000000E+00 -0.37296638485E+03  0.37296638485E+03  0.00000000000E+00 0. -1.
    9000007    2    1    2  501    0  0.39775137848E+02  0.13257312950E+02  0.37549808630E+02  0.40673782594E+03  0.40282484157E+03 0.  0.
    9000005    1    3    3    0    0 -0.14978563399E+03  0.43617427494E+02 -0.86289648670E+02  0.17828381753E+03  0.99999687468E+00 0.  0.
          4    1    3    3  501    0  0.18956077184E+03 -0.30360114545E+02  0.12383945730E+03  0.22845400841E+03  0.00000000000E+00 0.  1.
   -9000007    1    1    2    0  502 -0.39775137848E+02 -0.13257312950E+02  0.26305886629E+02  0.40305063901E+03  0.40000000000E+03 0.  1.
<mgrwt>
<rscale>  2 0.40429660E+03</rscale>
<asrwt>0</asrwt>
<pdfrwt beam="1">  1       21 0.67203397E-01 0.40500083E+03</pdfrwt>
<pdfrwt beam="2">  1       21 0.57379444E-01 0.40500083E+03</pdfrwt>
<totfact> 0.51661021E+03</totfact>
</mgrwt>
</event>
<event>
 6    1  0.9502611E-004  0.4183584E+03  0.7818608E-02  0.1037603E+00
         21   -1    0    0  503  502  0.00000000000E+00  0.00000000000E+00  0.15969994436E+03  0.15969994436E+03  0.00000000000E+00 0. -1.
         21   -1    0    0  501  503 -0.00000000000E+00 -0.00000000000E+00 -0.11340537288E+04  0.11340537288E+04  0.00000000000E+00 0. -1.
    9000007    2    1    2  501    0  0.87540182229E+02 -0.85793046561E+02 -0.36853567111E+03  0.55752047859E+03  0.39998351569E+03 0.  0.
    9000005    1    3    3    0    0 -0.98718234923E+02 -0.82782164748E+02  0.16402137054E+02  0.12987766090E+03  0.99999687468E+00 0.  0.
          4    1    3    3  501    0  0.18625841715E+03 -0.30108818121E+01 -0.38493780816E+03  0.42764281769E+03  0.00000000000E+00 0.  1.
   -9000007    1    1    2    0  502 -0.87540182229E+02  0.85793046561E+02 -0.60581811331E+03  0.73623319455E+03  0.40000000000E+03 0. -1.
<mgrwt>
<rscale>  2 0.41835444E+03</rscale>
<asrwt>0</asrwt>
<pdfrwt beam="1">  1       21 0.24569224E-01 0.41835838E+03</pdfrwt>
<pdfrwt beam="2">  1       21 0.17446979E+00 0.41835838E+03</pdfrwt>
<totfact> 0.26965687E+03</totfact>
</mgrwt>
</event>
<event>
 6    1  0.9502611E-004  0.4449234E+03  0.7818608E-02  0.1029263E+00
         21   -1    0    0  503  502  0.00000000000E+00  0.00000000000E+00  0.20911846089E+04  0.20911846089E+04  0.00000000000E+00 0. -1.
         21   -1    0    0  501  503 -0.00000000000E+00 -0.00000000000E+00 -0.11452400900E+03  0.11452400900E+03  0.00000000000E+00 0. -1.
    9000007    2    1    2  501    0  0.11124666097E+03 -0.15994075077E+03  0.52832627552E+03  0.69057523152E+03  0.39976072050E+03 0.  0.
    9000005    1    3    3    0    0  0.16535332548E+03 -0.17667844813E+03  0.10552136904E+03  0.26399385523E+03  0.99999687468E+00 0.  0.
          4    1    3    3  501    0 -0.54106664513E+02  0.16737697361E+02  0.42280490648E+03  0.42658137629E+03  0.00000000000E+00 0.  1.
   -9000007    1    1    2    0  502 -0.11124666097E+03  0.15994075077E+03  0.14483343244E+04  0.15151333864E+04  0.40000000000E+03 0. -1.
<mgrwt>
<rscale>  2 0.44486965E+03</rscale>
<asrwt>0</asrwt>
<pdfrwt beam="1">  1       21 0.32172068E+00 0.44492344E+03</pdfrwt>
<pdfrwt beam="2">  1       21 0.17619080E-01 0.44492344E+03</pdfrwt>
<totfact> 0.59506124E+02</totfact>
</mgrwt>
</event>
<event>
 6    1  0.9502611E-004  0.4270099E+03  0.7818608E-02  0.1034812E+00
         21   -1    0    0  503  502  0.00000000000E+00  0.00000000000E+00  0.47281796432E+03  0.47281796432E+03  0.00000000000E+00 0. -1.
         21   -1    0    0  501  503 -0.00000000000E+00 -0.00000000000E+00 -0.56261178355E+03  0.56261178355E+03  0.00000000000E+00 0. -1.
    9000007    2    1    2  501    0 -0.60486355506E-01  0.14945708403E+03 -0.33529055768E+03  0.54287916955E+03  0.39995076076E+03 0.  0.
    9000005    1    3    3    0    0 -0.10894142866E+03  0.34035928334E+02 -0.36413615344E+03  0.38160557848E+03  0.99999687468E+00 0.  0.
          4    1    3    3  501    0  0.10888094230E+03  0.11542115570E+03  0.28845595762E+02  0.16127359106E+03  0.00000000000E+00 0.  1.
   -9000007    1    1    2    0  502  0.60486355506E-01 -0.14945708403E+03  0.24549673845E+03  0.49255057833E+03  0.40000000000E+03 0. -1.
<mgrwt>
<rscale>  2 0.42699833E+03</rscale>
<asrwt>0</asrwt>
<pdfrwt beam="1">  1       21 0.72741225E-01 0.42700986E+03</pdfrwt>
<pdfrwt beam="2">  1       21 0.86555659E-01 0.42700986E+03</pdfrwt>
<totfact> 0.16980566E+03</totfact>
</mgrwt>
</event>
<event>
 6    1  0.9502611E-004  0.5059103E+03  0.7818608E-02  0.1012262E+00
         21   -1    0    0  503  502  0.00000000000E+00  0.00000000000E+00  0.14632752628E+04  0.14632752628E+04  0.00000000000E+00 0. -1.
         21   -1    0    0  501  503 -0.00000000000E+00 -0.00000000000E+00 -0.19057348564E+03  0.19057348564E+03  0.00000000000E+00 0. -1.
    9000007    2    1    2  501    0  0.13278865040E+03  0.27945053410E+03  0.87409592911E+03  0.10099449911E+04  0.40027461202E+03 0.  0.
    9000005    1    3    3    0    0 -0.12112986118E+02  0.34471537098E+03  0.55475490569E+03  0.65324529604E+03  0.99999687468E+00 0.  0.
          4    1    3    3  501    0  0.14490163651E+03 -0.65264836880E+02  0.31934102342E+03  0.35669969503E+03  0.00000000000E+00 0.  1.
   -9000007    1    1    2    0  502 -0.13278865040E+03 -0.27945053410E+03  0.39860584810E+03  0.64390375742E+03  0.40000000000E+03 0. -1.
<mgrwt>
<rscale>  2 0.50585594E+03</rscale>
<asrwt>0</asrwt>
<pdfrwt beam="1">  1       21 0.22511926E+00 0.50591026E+03</pdfrwt>
<pdfrwt beam="2">  1       21 0.29318999E-01 0.50591026E+03</pdfrwt>
<totfact> 0.83967386E+02</totfact>
</mgrwt>
</event>
<event>
 6    1  0.9502611E-004  0.4213462E+03  0.7818608E-02  0.1036920E+00
         21   -1    0    0  503  502  0.00000000000E+00  0.00000000000E+00  0.69030130083E+03  0.69030130083E+03  0.00000000000E+00 0.  1.
         21   -1    0    0  501  503 -0.00000000000E+00 -0.00000000000E+00 -0.25647911008E+03  0.25647911008E+03  0.00000000000E+00 0.  1.
    9000007    2    1    2  501    0 -0.11784092819E+03 -0.25514233755E+02  0.18196771064E+03  0.45896062898E+03  0.40372657921E+03 0.  0.
    9000005    1    3    3    0    0 -0.45731180052E+02  0.16820541013E+03  0.18233798279E+03  0.25225491231E+03  0.99999687468E+00 0.  0.
          4    1    3    3  501    0 -0.72109748141E+02 -0.19371964388E+03 -0.37027215048E+00  0.20670571667E+03  0.00000000000E+00 0.  1.
   -9000007    1    1    2    0  502  0.11784092819E+03  0.25514233755E+02  0.25185448012E+03  0.48781978192E+03  0.40000000000E+03 0.  1.
<mgrwt>
<rscale>  2 0.42045099E+03</rscale>
<asrwt>0</asrwt>
<pdfrwt beam="1">  1       21 0.10620020E+00 0.42134619E+03</pdfrwt>
<pdfrwt beam="2">  1       21 0.39458325E-01 0.42134619E+03</pdfrwt>
<totfact> 0.38829156E+03</totfact>
</mgrwt>
</event>
<event>
 6    1  0.9502611E-004  0.4356279E+03  0.7818608E-02  0.1032099E+00
         21   -1    0    0  503  502  0.00000000000E+00  0.00000000000E+00  0.21519619459E+03  0.21519619459E+03  0.00000000000E+00 0.  1.
         21   -1    0    0  501  503 -0.00000000000E+00 -0.00000000000E+00 -0.88901196634E+03  0.88901196634E+03  0.00000000000E+00 0. -1.
    9000007    2    1    2  501    0 -0.80268972855E+02  0.15273694481E+03 -0.38659895509E+03  0.58241779874E+03  0.39997507159E+03 0.  0.
    9000005    1    3    3    0    0  0.47338828525E+02  0.18605919912E+03 -0.40600562316E+03  0.44911085079E+03  0.99999687468E+00 0.  0.
          4    1    3    3  501    0 -0.12760780138E+03 -0.33322254312E+02  0.19406668074E+02  0.13330694795E+03  0.00000000000E+00 0.  1.
   -9000007    1    1    2    0  502  0.80268972855E+02 -0.15273694481E+03 -0.28721681666E+03  0.52179036220E+03  0.40000000000E+03 0.  1.
<mgrwt>
<rscale>  2 0.43562219E+03</rscale>
<asrwt>0</asrwt>
<pdfrwt beam="1">  1       21 0.33107107E-01 0.43562792E+03</pdfrwt>
<pdfrwt beam="2">  1       21 0.13677107E+00 0.43562792E+03</pdfrwt>
<totfact> 0.29012252E+03</totfact>
</mgrwt>
</event>
<event>
 6    1  0.9502611E-004  0.5025748E+03  0.7818608E-02  0.1013235E+00
         21   -1    0    0  503  502  0.00000000000E+00  0.00000000000E+00  0.15558918917E+03  0.15558918917E+03  0.00000000000E+00 0. -1.
         21   -1    0    0  501  503 -0.00000000000E+00 -0.00000000000E+00 -0.17260073084E+04  0.17260073084E+04  0.00000000000E+00 0.  1.
    9000007    2    1    2  501    0 -0.27408818862E+03 -0.13212520838E+03 -0.54748363780E+03  0.74187005708E+03  0.39755684135E+03 0.  0.
    9000005    1    3    3    0    0 -0.32227626843E+02  0.12462649967E+03 -0.65024193179E+02  0.14422042173E+03  0.99999687468E+00 0.  0.
          4    1    3    3  501    0 -0.24186056178E+03 -0.25675170805E+03 -0.48245944462E+03  0.59764963535E+03  0.00000000000E+00 0.  1.
   -9000007    1    1    2    0  502  0.27408818862E+03  0.13212520838E+03 -0.10229344814E+04  0.11397264405E+04  0.40000000000E+03 0. -1.
<mgrwt>
<rscale>  2 0.50208849E+03</rscale>
<asrwt>0</asrwt>
<pdfrwt beam="1">  1       21 0.23936798E-01 0.50257478E+03</pdfrwt>
<pdfrwt beam="2">  1       21 0.26553958E+00 0.50257478E+03</pdfrwt>
<totfact> 0.70227001E+02</totfact>
</mgrwt>
</event>
<event>
 6    1  0.9502611E-004  0.4177620E+03  0.7818608E-02  0.1037841E+00
         21   -1    0    0  503  502  0.00000000000E+00  0.00000000000E+00  0.12724578560E+04  0.12724578560E+04  0.00000000000E+00 0. -1.
         21   -1    0    0  501  503 -0.00000000000E+00 -0.00000000000E+00 -0.26288405516E+03  0.26288405516E+03  0.00000000000E+00 0. -1.
    9000007    2    1    2  501    0 -0.70227206140E+02 -0.97944951205E+02 -0.26652120993E+02  0.41807326172E+03  0.39943690699E+03 0.  0.
    9000005    1    3    3    0    0 -0.45530286782E+02  0.14577743258E+03 -0.72155220881E+02  0.16891252990E+03  0.99999687468E+00 0.  0.
          4    1    3    3  501    0 -0.24696919359E+02 -0.24372238378E+03  0.45503099888E+02  0.24916073182E+03  0.00000000000E+00 0.  1.
   -9000007    1    1    2    0  502  0.70227206140E+02  0.97944951205E+02  0.10362259219E+04  0.11172686495E+04  0.40000000000E+03 0. -1.
<mgrwt>
<rscale>  2 0.41762714E+03</rscale>
<asrwt>0</asrwt>
<pdfrwt beam="1">  1       21 0.19576274E+00 0.41776198E+03</pdfrwt>
<pdfrwt beam="2">  1       21 0.40443701E-01 0.41776198E+03</pdfrwt>
<totfact> 0.71004755E+02</totfact>
</mgrwt>
</event>
<event>
 6    1  0.9502611E-004  0.4380609E+03  0.7818608E-02  0.1031371E+00
         21   -1    0    0  503  502  0.00000000000E+00  0.00000000000E+00  0.24795441680E+03  0.24795441680E+03  0.00000000000E+00 0. -1.
         21   -1    0    0  501  503 -0.00000000000E+00 -0.00000000000E+00 -0.77430521321E+03  0.77430521321E+03  0.00000000000E+00 0. -1.
    9000007    2    1    2  501    0  0.12181205014E+03 -0.13061090650E+03 -0.28156445972E+03  0.52044518713E+03  0.39960888800E+03 0.  0.
    9000005    1    3    3    0    0  0.20379058966E+03 -0.13907817507E+03 -0.21532095278E+02  0.24766504464E+03  0.99999687468E+00 0.  0.
          4    1    3    3  501    0 -0.81978539518E+02  0.84672685631E+01 -0.26003236444E+03  0.27278014249E+03  0.00000000000E+00 0.  1.
   -9000007    1    1    2    0  502 -0.12181205014E+03  0.13061090650E+03 -0.24478633669E+03  0.50181444289E+03  0.40000000000E+03 0. -1.
<mgrwt>
<rscale>  2 0.43797163E+03</rscale>
<asrwt>0</asrwt>
<pdfrwt beam="1">  1       21 0.38146834E-01 0.43806094E+03</pdfrwt>
<pdfrwt beam="2">  1       21 0.11912388E+00 0.43806094E+03</pdfrwt>
<totfact> 0.31072551E+03</totfact>
</mgrwt>
</event>
<event>
 6    1  0.9502611E-004  0.4898244E+03  0.7818608E-02  0.1016510E+00
         21   -1    0    0  503  502  0.00000000000E+00  0.00000000000E+00  0.99696564369E+03  0.99696564369E+03  0.00000000000E+00 0. -1.
         21   -1    0    0  501  503 -0.00000000000E+00 -0.00000000000E+00 -0.26302237359E+03  0.26302237359E+03  0.00000000000E+00 0. -1.
    9000007    2    1    2  501    0  0.12394200524E+03  0.25409910458E+03  0.18183496245E+03  0.52191514893E+03  0.39925367061E+03 0.  0.
    9000005    1    3    3    0    0  0.22666906699E+03  0.28896332475E+03  0.18930155300E+03  0.41317641141E+03  0.99999687468E+00 0.  0.
          4    1    3    3  501    0 -0.10272706174E+03 -0.34864220169E+02 -0.74665905557E+01  0.10873873752E+03  0.00000000000E+00 0.  1.
   -9000007    1    1    2    0  502 -0.12394200524E+03 -0.25409910458E+03  0.55210830766E+03  0.73807286835E+03  0.40000000000E+03 0. -1.
<mgrwt>
<rscale>  2 0.48967204E+03</rscale>
<asrwt>0</asrwt>
<pdfrwt beam="1">  1       21 0.15337933E+00 0.48982443E+03</pdfrwt>
<pdfrwt beam="2">  1       21 0.40464981E-01 0.48982443E+03</pdfrwt>
<totfact> 0.13870421E+03</totfact>
</mgrwt>
</event>
<event>
 6    1  0.9502611E-004  0.5081755E+03  0.7818608E-02  0.1011754E+00
         21   -1    0    0  503  502  0.00000000000E+00  0.00000000000E+00  0.85138219722E+03  0.85138219722E+03  0.00000000000E+00 0.  1.
         21   -1    0    0  501  503 -0.00000000000E+00 -0.00000000000E+00 -0.33811993407E+03  0.33811993407E+03  0.00000000000E+00 0.  1.
    9000007    2    1    2  501    0 -0.29528262432E+03  0.10512158032E+03  0.63307285797E+02  0.51075191469E+03  0.39826791366E+03 0.  0.
    9000005    1    3    3    0    0  0.37219898654E+01  0.19382250344E+03  0.81795348661E+01  0.19403329826E+03  0.99999687468E+00 0.  0.
          4    1    3    3  501    0 -0.29900461419E+03 -0.88700923125E+02  0.55127750931E+02  0.31671861643E+03  0.00000000000E+00 0.  1.
   -9000007    1    1    2    0  502  0.29528262432E+03 -0.10512158032E+03  0.44995497735E+03  0.67875021659E+03  0.40000000000E+03 0.  1.
<mgrwt>
<rscale>  2 0.50783463E+03</rscale>
<asrwt>0</asrwt>
<pdfrwt beam="1">  1       21 0.13098188E+00 0.50817554E+03</pdfrwt>
<pdfrwt beam="2">  1       21 0.52018452E-01 0.50817554E+03</pdfrwt>
<totfact> 0.12386708E+03</totfact>
</mgrwt>
</event>
<event>
 6    1  0.9502611E-004  0.4660068E+03  0.7818608E-02  0.1023118E+00
         21   -1    0    0  503  502  0.00000000000E+00  0.00000000000E+00  0.98152775929E+03  0.98152775929E+03  0.00000000000E+00 0. -1.
         21   -1    0    0  501  503 -0.00000000000E+00 -0.00000000000E+00 -0.89217278158E+03  0.89217278158E+03  0.00000000000E+00 0. -1.
    9000007    2    1    2  501    0  0.15603797723E+02  0.23680527271E+03 -0.76799445475E+03  0.89831945380E+03  0.40105129706E+03 0.  0.
    9000005    1    3    3    0    0 -0.19099184593E+03  0.12515676769E+03 -0.32931773593E+03  0.40074090495E+03  0.99999687468E+00 0.  0.
          4    1    3    3  501    0  0.20659564365E+03  0.11164850501E+03 -0.43867671882E+03  0.49757854885E+03  0.00000000000E+00 0.  1.
   -9000007    1    1    2    0  502 -0.15603797723E+02 -0.23680527271E+03  0.85734943245E+03  0.97538108707E+03  0.40000000000E+03 0. -1.
<mgrwt>
<rscale>  2 0.46578054E+03</rscale>
<asrwt>0</asrwt>
<pdfrwt beam="1">  1       21 0.15100427E+00 0.46600682E+03</pdfrwt>
<pdfrwt beam="2">  1       21 0.13725735E+00 0.46600682E+03</pdfrwt>
<totfact> 0.87587306E+01</totfact>
</mgrwt>
</event>
<event>
 6    1  0.9502611E-004  0.4208421E+03  0.7818608E-02  0.1036843E+00
         21   -1    0    0  503  502  0.00000000000E+00  0.00000000000E+00  0.37884102523E+03  0.37884102523E+03  0.00000000000E+00 0.  1.
         21   -1    0    0  501  503 -0.00000000000E+00 -0.00000000000E+00 -0.66381910286E+03  0.66381910286E+03  0.00000000000E+00 0. -1.
    9000007    2    1    2  501    0 -0.34305621001E+02  0.12621900414E+03 -0.42642571447E+03  0.59868316179E+03  0.39934261682E+03 0.  0.
    9000005    1    3    3    0    0 -0.18168912070E+03  0.38755908555E+02 -0.61799192052E+02  0.19578839895E+03  0.99999687468E+00 0.  0.
          4    1    3    3  501    0  0.14738349970E+03  0.87463095581E+02 -0.36462652242E+03  0.40289476284E+03  0.00000000000E+00 0.  1.
   -9000007    1    1    2    0  502  0.34305621001E+02 -0.12621900414E+03  0.14144763685E+03  0.44397696630E+03  0.40000000000E+03 0. -1.
<mgrwt>
<rscale>  2 0.42068587E+03</rscale>
<asrwt>0</asrwt>
<pdfrwt beam="1">  1       21 0.58283235E-01 0.42084215E+03</pdfrwt>
<pdfrwt beam="2">  1       21 0.10212602E+00 0.42084215E+03</pdfrwt>
<totfact> 0.18752192E+03</totfact>
</mgrwt>
</event>
<event>
 6    1  0.9502611E-004  0.4081262E+03  0.7818608E-02  0.1041038E+00
         21   -1    0    0  503  502  0.00000000000E+00  0.00000000000E+00  0.30983045044E+03  0.30983045044E+03  0.00000000000E+00 0.  1.
         21   -1    0    0  501  503 -0.00000000000E+00 -0.00000000000E+00 -0.59366593627E+03  0.59366593627E+03  0.00000000000E+00 0.  1.
    9000007    2    1    2  501    0  0.80745328704E+02 -0.68717146714E+01 -0.28137652171E+03  0.49536273816E+03  0.39955533637E+03 0.  0.
    9000005    1    3    3    0    0  0.18104859961E+03 -0.14721700119E+03 -0.18480899372E+03  0.29766895205E+03  0.99999687468E+00 0.  0.
          4    1    3    3  501    0 -0.10030327091E+03  0.14034528652E+03 -0.96567527987E+02  0.19769378611E+03  0.00000000000E+00 0.  1.
   -9000007    1    1    2    0  502 -0.80745328704E+02  0.68717146714E+01 -0.24589641221E+01  0.40813364854E+03  0.40000000000E+03 0.  1.
<mgrwt>
<rscale>  2 0.40801725E+03</rscale>
<asrwt>0</asrwt>
<pdfrwt beam="1">  1       21 0.47666224E-01 0.40812624E+03</pdfrwt>
<pdfrwt beam="2">  1       21 0.91333220E-01 0.40812624E+03</pdfrwt>
<totfact> 0.37912256E+03</totfact>
</mgrwt>
</event>
<event>
 6    1  0.9502611E-004  0.4234704E+03  0.7818608E-02  0.1035959E+00
         21   -1    0    0  503  502  0.00000000000E+00  0.00000000000E+00  0.29344329823E+03  0.29344329823E+03  0.00000000000E+00 0. -1.
         21   -1    0    0  501  503 -0.00000000000E+00 -0.00000000000E+00 -0.78464543274E+03  0.78464543274E+03  0.00000000000E+00 0. -1.
    9000007    2    1    2  501    0 -0.85116208414E+02 -0.10915061603E+03  0.80634118271E+01  0.42354712673E+03  0.40021059961E+03 0.  0.
    9000005    1    3    3    0    0 -0.22364081916E+03  0.10299919148E+02  0.62975075049E+02  0.23256862299E+03  0.99999687468E+00 0.  0.
          4    1    3    3  501    0  0.13852461074E+03 -0.11945053517E+03 -0.54911663222E+02  0.19097850375E+03  0.00000000000E+00 0.  1.
   -9000007    1    1    2    0  502  0.85116208414E+02  0.10915061603E+03 -0.49926554634E+03  0.65454160424E+03  0.40000000000E+03 0. -1.
<mgrwt>
<rscale>  2 0.42342060E+03</rscale>
<asrwt>0</asrwt>
<pdfrwt beam="1">  1       21 0.45145123E-01 0.42347036E+03</pdfrwt>
<pdfrwt beam="2">  1       21 0.12071468E+00 0.42347036E+03</pdfrwt>
<totfact> 0.21321440E+03</totfact>
</mgrwt>
</event>
<event>
 6    1  0.9502611E-004  0.5309520E+03  0.7818608E-02  0.1006005E+00
         21   -1    0    0  503  502  0.00000000000E+00  0.00000000000E+00  0.10824621583E+04  0.10824621583E+04  0.00000000000E+00 0. -1.
         21   -1    0    0  501  503 -0.00000000000E+00 -0.00000000000E+00 -0.73936572753E+03  0.73936572753E+03  0.00000000000E+00 0.  1.
    9000007    2    1    2  501    0  0.34897300928E+03 -0.11309659440E+02 -0.56160962313E+03  0.77282687840E+03  0.39993242626E+03 0.  0.
    9000005    1    3    3    0    0  0.77120484038E+02 -0.14066355325E+01 -0.48376298194E+03  0.48987464761E+03  0.99999687468E+00 0.  0.
          4    1    3    3  501    0  0.27185252524E+03 -0.99030239071E+01 -0.77846641193E+02  0.28295223079E+03  0.00000000000E+00 0.  1.
   -9000007    1    1    2    0  502 -0.34897300928E+03  0.11309659440E+02  0.90470605388E+03  0.10490010074E+04  0.40000000000E+03 0. -1.
<mgrwt>
<rscale>  2 0.53093931E+03</rscale>
<asrwt>0</asrwt>
<pdfrwt beam="1">  1       21 0.16653264E+00 0.53095204E+03</pdfrwt>
<pdfrwt beam="2">  1       21 0.11374857E+00 0.53095204E+03</pdfrwt>
<totfact> 0.10470115E+02</totfact>
</mgrwt>
</event>
<event>
 6    1  0.9502611E-004  0.4366026E+03  0.7818608E-02  0.1031859E+00
         21   -1    0    0  503  502  0.00000000000E+00  0.00000000000E+00  0.39589052334E+03  0.39589052334E+03  0.00000000000E+00 0. -1.
         21   -1    0    0  501  503 -0.00000000000E+00 -0.00000000000E+00 -0.93345172538E+03  0.93345172538E+03  0.00000000000E+00 0. -1.
    9000007    2    1    2  501    0 -0.13429976011E+03 -0.11218469729E+03 -0.73161313956E+03  0.85155779280E+03  0.39908778061E+03 0.  0.
    9000005    1    3    3    0    0  0.13922602241E+03 -0.19354825719E+02 -0.17504757061E+03  0.22450199679E+03  0.99999687468E+00 0.  0.
          4    1    3    3  501    0 -0.27352578252E+03 -0.92829871568E+02 -0.55656556895E+03  0.62705579601E+03  0.00000000000E+00 0.  1.
   -9000007    1    1    2    0  502  0.13429976011E+03  0.11218469729E+03  0.19405193752E+03  0.47778445593E+03  0.40000000000E+03 0. -1.
<mgrwt>
<rscale>  2 0.43639355E+03</rscale>
<asrwt>0</asrwt>
<pdfrwt beam="1">  1       21 0.60906235E-01 0.43660260E+03</pdfrwt>
<pdfrwt beam="2">  1       21 0.14360796E+00 0.43660260E+03</pdfrwt>
<totfact> 0.71008624E+02</totfact>
</mgrwt>
</event>
<event>
 6    1  0.9502611E-004  0.6050192E+03  0.7818608E-02  0.9895149E-01
         21   -1    0    0  503  502  0.00000000000E+00  0.00000000000E+00  0.11232820202E+04  0.11232820202E+04  0.00000000000E+00 0.  1.
         21   -1    0    0  501  503 -0.00000000000E+00 -0.00000000000E+00 -0.32818327572E+03  0.32818327572E+03  0.00000000000E+00 0.  1.
    9000007    2    1    2  501    0 -0.39199255747E+02  0.45222967994E+03  0.45975103041E+03  0.75972375862E+03  0.39970103124E+03 0.  0.
    9000005    1    3    3    0    0 -0.20191045166E+03  0.16090827613E+03  0.12421136114E+03  0.28651137159E+03  0.99999687468E+00 0.  0.
          4    1    3    3  501    0  0.16271119591E+03  0.29132140381E+03  0.33553966926E+03  0.47321238703E+03  0.00000000000E+00 0.  1.
   -9000007    1    1    2    0  502  0.39199255747E+02 -0.45222967994E+03  0.33534771403E+03  0.69174153726E+03  0.40000000000E+03 0.  1.
<mgrwt>
<rscale>  2 0.60496982E+03</rscale>
<asrwt>0</asrwt>
<pdfrwt beam="1">  1       21 0.17281262E+00 0.60501923E+03</pdfrwt>
<pdfrwt beam="2">  1       21 0.50489735E-01 0.60501923E+03</pdfrwt>
<totfact> 0.59658083E+02</totfact>
</mgrwt>
</event>
<event>
 6    1  0.9502611E-004  0.4027863E+03  0.7818608E-02  0.1042839E+00
         21   -1    0    0  503  502  0.00000000000E+00  0.00000000000E+00  0.54857044519E+03  0.54857044519E+03  0.00000000000E+00 0. -1.
         21   -1    0    0  501  503 -0.00000000000E+00 -0.00000000000E+00 -0.38134972837E+03  0.38134972837E+03  0.00000000000E+00 0. -1.
    9000007    2    1    2  501    0 -0.46488407986E+02  0.86952267479E+01 -0.13692226268E+03  0.42520269713E+03  0.39976599228E+03 0.  0.
    9000005    1    3    3    0    0  0.97467081895E+01  0.17000821712E+03 -0.18126425772E+03  0.24870770661E+03  0.99999687468E+00 0.  0.
          4    1    3    3  501    0 -0.56235116175E+02 -0.16131299037E+03  0.44341995037E+02  0.17649499052E+03  0.00000000000E+00 0.  1.
   -9000007    1    1    2    0  502  0.46488407986E+02 -0.86952267479E+01  0.30414297950E+03  0.50471747644E+03  0.40000000000E+03 0. -1.
<mgrwt>
<rscale>  2 0.40272816E+03</rscale>
<asrwt>0</asrwt>
<pdfrwt beam="1">  1       21 0.84395454E-01 0.40278627E+03</pdfrwt>
<pdfrwt beam="2">  1       21 0.58669188E-01 0.40278627E+03</pdfrwt>
<totfact> 0.29321365E+03</totfact>
</mgrwt>
</event>
<event>
 6    1  0.9502611E-004  0.4369946E+03  0.7818608E-02  0.1031705E+00
         21   -1    0    0  503  502  0.00000000000E+00  0.00000000000E+00  0.92406854282E+02  0.92406854282E+02  0.00000000000E+00 0.  1.
         21   -1    0    0  501  503 -0.00000000000E+00 -0.00000000000E+00 -0.20663917348E+04  0.20663917348E+04  0.00000000000E+00 0. -1.
    9000007    2    1    2  501    0 -0.10848241994E+03  0.13854900478E+03 -0.10184505492E+04  0.11080797301E+04  0.39954337069E+03 0.  0.
    9000005    1    3    3    0    0  0.31161536459E+02 -0.69207449728E+01 -0.83456926434E+03  0.83518009737E+03  0.99999687468E+00 0.  0.
          4    1    3    3  501    0 -0.13964395639E+03  0.14546974975E+03 -0.18388128482E+03  0.27289963276E+03  0.00000000000E+00 0.  1.
   -9000007    1    1    2    0  502  0.10848241994E+03 -0.13854900478E+03 -0.95553433131E+03  0.10507188589E+04  0.40000000000E+03 0. -1.
<mgrwt>
<rscale>  2 0.43689006E+03</rscale>
<asrwt>0</asrwt>
<pdfrwt beam="1">  1       21 0.14216439E-01 0.43699458E+03</pdfrwt>
<pdfrwt beam="2">  1       21 0.31790642E+00 0.43699458E+03</pdfrwt>
<totfact> 0.94000527E+02</totfact>
</mgrwt>
</event>
<event>
 6    1  0.9502611E-004  0.5066799E+03  0.7818608E-02  0.1012061E+00
         21   -1    0    0  503  502  0.00000000000E+00  0.00000000000E+00  0.19092761600E+04  0.19092761600E+04  0.00000000000E+00 0.  1.
         21   -1    0    0  501  503 -0.00000000000E+00 -0.00000000000E+00 -0.13808758269E+03  0.13808758269E+03  0.00000000000E+00 0.  1.
    9000007    2    1    2  501    0 -0.29197675956E+03 -0.10628635540E+03  0.71880437215E+03  0.87943406469E+03  0.40022160267E+03 0.  0.
    9000005    1    3    3    0    0 -0.44446969449E+02 -0.10615214483E+03  0.58860502532E+03  0.59975052044E+03  0.99999687468E+00 0.  0.
          4    1    3    3  501    0 -0.24752979012E+03 -0.13421057686E+00  0.13019934683E+03  0.27968354424E+03  0.00000000000E+00 0.  1.
   -9000007    1    1    2    0  502  0.29197675956E+03  0.10628635540E+03  0.10523842052E+04  0.11679296780E+04  0.40000000000E+03 0.  1.
<mgrwt>
<rscale>  2 0.50663617E+03</rscale>
<asrwt>0</asrwt>
<pdfrwt beam="1">  1       21 0.29373477E+00 0.50667993E+03</pdfrwt>
<pdfrwt beam="2">  1       21 0.21244245E-01 0.50667993E+03</pdfrwt>
<totfact> 0.59523083E+02</totfact>
</mgrwt>
</event>
<event>
 6    1  0.9502611E-004  0.5462412E+03  0.7818608E-02  0.1002368E+00
         21   -1    0    0  503  502  0.00000000000E+00  0.00000000000E+00  0.15606658536E+03  0.15606658536E+03  0.00000000000E+00 0.  1.
         21   -1    0    0  501  503 -0.00000000000E+00 -0.00000000000E+00 -0.21690354709E+04  0.21690354709E+04  0.00000000000E+00 0.  1.
    9000007    2    1    2  501    0  0.35078386688E+03 -0.12381499072E+03 -0.14067853484E+04  0.15091131140E+04  0.39999737656E+03 0.  0.
    9000005    1    3    3    0    0 -0.37118267495E+01  0.19872714548E+02  0.22068647250E+02  0.29945410776E+02  0.99999687468E+00 0.  0.
          4    1    3    3  501    0  0.35449569363E+03 -0.14368770527E+03 -0.14288539956E+04  0.14791677032E+04  0.00000000000E+00 0.  1.
   -9000007    1    1    2    0  502 -0.35078386688E+03  0.12381499072E+03 -0.60618353719E+03  0.81598894230E+03  0.40000000000E+03 0.  1.
<mgrwt>
<rscale>  2 0.54624074E+03</rscale>
<asrwt>0</asrwt>
<pdfrwt beam="1">  1       21 0.24010245E-01 0.54624122E+03</pdfrwt>
<pdfrwt beam="2">  1       21 0.33369775E+00 0.54624122E+03</pdfrwt>
<totfact> 0.26355327E+02</totfact>
</mgrwt>
</event>
<event>
 6    1  0.9502611E-004  0.5132988E+03  0.7818608E-02  0.1010379E+00
         21   -1    0    0  503  502  0.00000000000E+00  0.00000000000E+00  0.38564793809E+03  0.38564793809E+03  0.00000000000E+00 0. -1.
         21   -1    0    0  501  503 -0.00000000000E+00 -0.00000000000E+00 -0.29558102161E+04  0.29558102161E+04  0.00000000000E+00 0. -1.
    9000007    2    1    2  501    0  0.32090744736E+03 -0.22227161791E+02 -0.27500862751E+04  0.27975387841E+04  0.39971626387E+03 0.  0.
    9000005    1    3    3    0    0  0.50518139806E+02 -0.11982078158E+03 -0.18055670976E+04  0.18102438085E+04  0.99999687468E+00 0.  0.
          4    1    3    3  501    0  0.27038930755E+03  0.97593619788E+02 -0.94451917742E+03  0.98729497557E+03  0.00000000000E+00 0.  1.
   -9000007    1    1    2    0  502 -0.32090744736E+03  0.22227161791E+02  0.17992399705E+03  0.54391937013E+03  0.40000000000E+03 0. -1.
<mgrwt>
<rscale>  2 0.51324350E+03</rscale>
<asrwt>0</asrwt>
<pdfrwt beam="1">  1       21 0.59330452E-01 0.51329878E+03</pdfrwt>
<pdfrwt beam="2">  1       21 0.45474003E+00 0.51329878E+03</pdfrwt>
<totfact> 0.69642910E+00</totfact>
</mgrwt>
</event>
<event>
 6    1  0.9502611E-004  0.5470947E+03  0.7818608E-02  0.1002170E+00
         21   -1    0    0  503  502  0.00000000000E+00  0.00000000000E+00  0.60612291671E+03  0.60612291671E+03  0.00000000000E+00 0. -1.
         21   -1    0    0  501  503 -0.00000000000E+00 -0.00000000000E+00 -0.65173467022E+03  0.65173467022E+03  0.00000000000E+00 0. -1.
    9000007    2    1    2  501    0  0.32905657180E+03  0.17616593126E+03  0.28680811813E+03  0.61768914517E+03  0.39996039885E+03 0.  0.
    9000005    1    3    3    0    0  0.26256014256E+03  0.30142002829E+03  0.24890651803E+03  0.47090053793E+03  0.99999687468E+00 0.  0.
          4    1    3    3  501    0  0.66496429240E+02 -0.12525409703E+03  0.37901600103E+02  0.14678860723E+03  0.00000000000E+00 0.  1.
   -9000007    1    1    2    0  502 -0.32905657180E+03 -0.17616593126E+03 -0.33241987164E+03  0.64016844177E+03  0.40000000000E+03 0. -1.
<mgrwt>
<rscale>  2 0.54708751E+03</rscale>
<asrwt>0</asrwt>
<pdfrwt beam="1">  1       21 0.93249680E-01 0.54709475E+03</pdfrwt>
<pdfrwt beam="2">  1       21 0.10026687E+00 0.54709475E+03</pdfrwt>
<totfact> 0.64006606E+02</totfact>
</mgrwt>
</event>
<event>
 6    1  0.9502611E-004  0.1059720E+04  0.7818608E-02  0.9245494E-01
         21   -1    0    0  503  502  0.00000000000E+00  0.00000000000E+00  0.70423936890E+03  0.70423936890E+03  0.00000000000E+00 0.  1.
         21   -1    0    0  501  503 -0.00000000000E+00 -0.00000000000E+00 -0.15984184464E+04  0.15984184464E+04  0.00000000000E+00 0. -1.
    9000007    2    1    2  501    0 -0.50461581558E+03 -0.84164682250E+03 -0.38565504523E+03  0.11272416394E+04  0.39866954296E+03 0.  0.
    9000005    1    3    3    0    0 -0.25687316075E+03 -0.75364940319E+03 -0.29618607592E+03  0.84952836044E+03  0.99999687468E+00 0.  0.
          4    1    3    3  501    0 -0.24774265483E+03 -0.87997419319E+02 -0.89468969313E+02  0.27771327894E+03  0.00000000000E+00 0.  1.
   -9000007    1    1    2    0  502  0.50461581558E+03  0.84164682250E+03 -0.50852403223E+03  0.11754161759E+04  0.40000000000E+03 0.  1.
<mgrwt>
<rscale>  2 0.10595946E+04</rscale>
<asrwt>0</asrwt>
<pdfrwt beam="1">  1       21 0.10834452E+00 0.10597200E+04</pdfrwt>
<pdfrwt beam="2">  1       21 0.24591053E+00 0.10597200E+04</pdfrwt>
<totfact> 0.28641570E+01</totfact>
</mgrwt>
</event>
<event>
 6    1  0.9502611E-004  0.4097728E+03  0.7818608E-02  0.1040453E+00
         21   -1    0    0  503  502  0.00000000000E+00  0.00000000000E+00  0.16067224101E+03  0.16067224101E+03  0.00000000000E+00 0.  1.
         21   -1    0    0  501  503 -0.00000000000E+00 -0.00000000000E+00 -0.21091764083E+04  0.21091764083E+04  0.00000000000E+00 0.  1.
    9000007    2    1    2  501    0 -0.16052662230E+02 -0.87193044833E+02 -0.17804795573E+04  0.18270252256E+04  0.40006675173E+03 0.  0.
    9000005    1    3    3    0    0  0.70647602928E+01  0.13832469101E+03 -0.31489147343E+03  0.34400766127E+03  0.99999687468E+00 0.  0.
          4    1    3    3  501    0 -0.23117422523E+02 -0.22551773584E+03 -0.14655880839E+04  0.14830175643E+04  0.00000000000E+00 0.  1.
   -9000007    1    1    2    0  502  0.16052662230E+02  0.87193044833E+02 -0.16802460992E+03  0.44282342369E+03  0.40000000000E+03 0.  1.
<mgrwt>
<rscale>  2 0.40975647E+03</rscale>
<asrwt>0</asrwt>
<pdfrwt beam="1">  1       21 0.24718805E-01 0.40977277E+03</pdfrwt>
<pdfrwt beam="2">  1       21 0.32448870E+00 0.40977277E+03</pdfrwt>
<totfact> 0.30660023E+02</totfact>
</mgrwt>
</event>
<event>
 6    1  0.9502611E-004  0.4363558E+03  0.7818608E-02  0.1031930E+00
         21   -1    0    0  503  502  0.00000000000E+00  0.00000000000E+00  0.66083413563E+03  0.66083413563E+03  0.00000000000E+00 0. -1.
         21   -1    0    0  501  503 -0.00000000000E+00 -0.00000000000E+00 -0.44731686856E+03  0.44731686856E+03  0.00000000000E+00 0. -1.
    9000007    2    1    2  501    0  0.30596165598E+02 -0.17166902447E+03 -0.22435528357E+03  0.48997728273E+03  0.39916921852E+03 0.  0.
    9000005    1    3    3    0    0 -0.10040581935E+03 -0.15006071502E+03 -0.29019259166E+03  0.34177812539E+03  0.99999687468E+00 0.  0.
          4    1    3    3  501    0  0.13100198495E+03 -0.21608309453E+02  0.65837308086E+02  0.14819915733E+03  0.00000000000E+00 0.  1.
   -9000007    1    1    2    0  502 -0.30596165598E+02  0.17166902447E+03  0.43787255063E+03  0.61817372146E+03  0.40000000000E+03 0. -1.
<mgrwt>
<rscale>  2 0.43616531E+03</rscale>
<asrwt>0</asrwt>
<pdfrwt beam="1">  1       21 0.10166679E+00 0.43635579E+03</pdfrwt>
<pdfrwt beam="2">  1       21 0.68817980E-01 0.43635579E+03</pdfrwt>
<totfact> 0.13049914E+03</totfact>
</mgrwt>
</event>
<event>
 6    1  0.9502611E-004  0.4157609E+03  0.7818608E-02  0.1038483E+00
         21   -1    0    0  503  502  0.00000000000E+00  0.00000000000E+00  0.15351422873E+04  0.15351422873E+04  0.00000000000E+00 0. -1.
         21   -1    0    0  501  503 -0.00000000000E+00 -0.00000000000E+00 -0.20247647073E+03  0.20247647073E+03  0.00000000000E+00 0. -1.
    9000007    2    1    2  501    0 -0.40663777230E+00 -0.11338835815E+03  0.87043647307E+02  0.42444258034E+03  0.39964712228E+03 0.  0.
    9000005    1    3    3    0    0 -0.17282811470E+03  0.46413190263E+02  0.20534171337E+02  0.18012882514E+03  0.99999687468E+00 0.  0.
          4    1    3    3  501    0  0.17242147693E+03 -0.15980154842E+03  0.66509475970E+02  0.24431375519E+03  0.00000000000E+00 0.  1.
   -9000007    1    1    2    0  502  0.40663777230E+00  0.11338835815E+03  0.12456221693E+04  0.13131761777E+04  0.40000000000E+03 0. -1.
<mgrwt>
<rscale>  2 0.41567595E+03</rscale>
<asrwt>0</asrwt>
<pdfrwt beam="1">  1       21 0.23617573E+00 0.41576085E+03</pdfrwt>
<pdfrwt beam="2">  1       21 0.31150227E-01 0.41576085E+03</pdfrwt>
<totfact> 0.66247317E+02</totfact>
</mgrwt>
</event>
<event>
 6    1  0.9502611E-004  0.5858657E+03  0.7818608E-02  0.9936101E-01
         21   -1    0    0  503  502  0.00000000000E+00  0.00000000000E+00  0.32735892054E+04  0.32735892054E+04  0.00000000000E+00 0. -1.
         21   -1    0    0  501  503 -0.00000000000E+00 -0.00000000000E+00 -0.25466337478E+03  0.25466337478E+03  0.00000000000E+00 0.  1.
    9000007    2    1    2  501    0  0.41687398315E+03  0.86167870954E+02  0.15591124919E+03  0.60625646225E+03  0.40252920463E+03 0.  0.
    9000005    1    3    3    0    0  0.20082586996E+02  0.15871320579E+03 -0.28890817163E+02  0.16256958910E+03  0.99999687468E+00 0.  0.
          4    1    3    3  501    0  0.39679139615E+03 -0.72545334833E+02  0.18480206636E+03  0.44368687314E+03  0.00000000000E+00 0.  1.
   -9000007    1    1    2    0  502 -0.41687398315E+03 -0.86167870954E+02  0.28630145814E+04  0.29219961179E+04  0.40000000000E+03 0. -1.
<mgrwt>
<rscale>  2 0.58543147E+03</rscale>
<asrwt>0</asrwt>
<pdfrwt beam="1">  1       21 0.50362908E+00 0.58586567E+03</pdfrwt>
<pdfrwt beam="2">  1       21 0.39178983E-01 0.58586567E+03</pdfrwt>
<totfact> 0.72905844E+00</totfact>
</mgrwt>
</event>
<event>
 6    1  0.9502611E-004  0.4738528E+03  0.7818608E-02  0.1020841E+00
         21   -1    0    0  503  502  0.00000000000E+00  0.00000000000E+00  0.39056526789E+03  0.39056526789E+03  0.00000000000E+00 0. -1.
         21   -1    0    0  501  503 -0.00000000000E+00 -0.00000000000E+00 -0.78853516759E+03  0.78853516759E+03  0.00000000000E+00 0.  1.
    9000007    2    1    2  501    0 -0.23222325303E+03  0.10299931400E+03 -0.50587378744E+03  0.69311715704E+03  0.39995825611E+03 0.  0.
    9000005    1    3    3    0    0 -0.91256785082E+02 -0.14134770799E+03 -0.90601559921E+02  0.19109321817E+03  0.99999687468E+00 0.  0.
          4    1    3    3  501    0 -0.14096646795E+03  0.24434702199E+03 -0.41527222752E+03  0.50202393886E+03  0.00000000000E+00 0.  1.
   -9000007    1    1    2    0  502  0.23222325303E+03 -0.10299931400E+03  0.10790388775E+03  0.48598327844E+03  0.40000000000E+03 0. -1.
<mgrwt>
<rscale>  2 0.47384401E+03</rscale>
<asrwt>0</asrwt>
<pdfrwt beam="1">  1       21 0.60086965E-01 0.47385282E+03</pdfrwt>
<pdfrwt beam="2">  1       21 0.12131310E+00 0.47385282E+03</pdfrwt>
<totfact> 0.11187298E+03</totfact>
</mgrwt>
</event>
<event>
 6    1  0.9502611E-004  0.5083065E+03  0.7818608E-02  0.1011669E+00
         21   -1    0    0  503  502  0.00000000000E+00  0.00000000000E+00  0.59822080925E+03  0.59822080925E+03  0.00000000000E+00 0. -1.
         21   -1    0    0  501  503 -0.00000000000E+00 -0.00000000000E+00 -0.43152836329E+03  0.43152836329E+03  0.00000000000E+00 0.  1.
    9000007    2    1    2  501    0  0.30210491631E+03 -0.84309919692E+02  0.90970507549E+02  0.51583346450E+03  0.39929060449E+03 0.  0.
    9000005    1    3    3    0    0  0.29067199335E+03  0.10539958516E+03  0.10166749601E+03  0.32547897015E+03  0.99999687468E+00 0.  0.
          4    1    3    3  501    0  0.11432922963E+02 -0.18970950485E+03 -0.10696988459E+02  0.19035449436E+03  0.00000000000E+00 0.  1.
   -9000007    1    1    2    0  502 -0.30210491631E+03  0.84309919692E+02  0.75721938407E+02  0.51391570804E+03  0.40000000000E+03 0. -1.
<mgrwt>
<rscale>  2 0.50816697E+03</rscale>
<asrwt>0</asrwt>
<pdfrwt beam="1">  1       21 0.92033971E-01 0.50830654E+03</pdfrwt>
<pdfrwt beam="2">  1       21 0.66388978E-01 0.50830654E+03</pdfrwt>
<totfact> 0.17505528E+03</totfact>
</mgrwt>
</event>
<event>
 6    1  0.9502611E-004  0.5109301E+03  0.7818608E-02  0.1010982E+00
         21   -1    0    0  503  502  0.00000000000E+00  0.00000000000E+00  0.42020823376E+03  0.42020823376E+03  0.00000000000E+00 0.  1.
         21   -1    0    0  501  503 -0.00000000000E+00 -0.00000000000E+00 -0.10843778945E+04  0.10843778945E+04  0.00000000000E+00 0.  1.
    9000007    2    1    2  501    0  0.23658937036E+03 -0.21166518844E+03 -0.82395290634E+03  0.96950915456E+03  0.40034101308E+03 0.  0.
    9000005    1    3    3    0    0  0.20850368775E+03  0.30108913911E+02 -0.16673277477E+03  0.26866550333E+03  0.99999687468E+00 0.  0.
          4    1    3    3  501    0  0.28085682605E+02 -0.24177410235E+03 -0.65722013157E+03  0.70084365124E+03  0.00000000000E+00 0.  1.
   -9000007    1    1    2    0  502 -0.23658937036E+03  0.21166518844E+03  0.15978324563E+03  0.53507697367E+03  0.40000000000E+03 0.  1.
<mgrwt>
<rscale>  2 0.51086334E+03</rscale>
<asrwt>0</asrwt>
<pdfrwt beam="1">  1       21 0.64647421E-01 0.51093014E+03</pdfrwt>
<pdfrwt beam="2">  1       21 0.16682737E+00 0.51093014E+03</pdfrwt>
<totfact> 0.39859552E+02</totfact>
</mgrwt>
</event>
<event>
 6    1  0.9502611E-004  0.4491983E+03  0.7818608E-02  0.1028079E+00
         21   -1    0    0  503  502  0.00000000000E+00  0.00000000000E+00  0.14546861713E+03  0.14546861713E+03  0.00000000000E+00 0. -1.
         21   -1    0    0  501  503 -0.00000000000E+00 -0.00000000000E+00 -0.13891935761E+04  0.13891935761E+04  0.00000000000E+00 0.  1.
    9000007    2    1    2  501    0  0.80262806163E+02  0.18798146804E+03 -0.67498701669E+03  0.80992638112E+03  0.39823877228E+03 0.  0.
    9000005    1    3    3    0    0  0.13888359433E+03 -0.78018541384E+02 -0.15161520434E+03  0.21991752035E+03  0.99999687468E+00 0.  0.
          4    1    3    3  501    0 -0.58620788171E+02  0.26600000943E+03 -0.52337181235E+03  0.59000886077E+03  0.00000000000E+00 0.  1.
   -9000007    1    1    2    0  502 -0.80262806163E+02 -0.18798146804E+03 -0.56873794225E+03  0.72473581210E+03  0.40000000000E+03 0. -1.
<mgrwt>
<rscale>  2 0.44880592E+03</rscale>
<asrwt>0</asrwt>
<pdfrwt beam="1">  1       21 0.22379786E-01 0.44919834E+03</pdfrwt>
<pdfrwt beam="2">  1       21 0.21372210E+00 0.44919834E+03</pdfrwt>
<totfact> 0.17269450E+03</totfact>
</mgrwt>
</event>
<event>
 6    1  0.9502611E-004  0.4157087E+03  0.7818608E-02  0.1038504E+00
         21   -1    0    0  503  502  0.00000000000E+00  0.00000000000E+00  0.21889075609E+03  0.21889075609E+03  0.00000000000E+00 0.  1.
         21   -1    0    0  501  503 -0.00000000000E+00 -0.00000000000E+00 -0.11129738235E+04  0.11129738235E+04  0.00000000000E+00 0.  1.
    9000007    2    1    2  501    0  0.81496061263E+02 -0.76515768865E+02 -0.80660123943E+03  0.90742454718E+03  0.40039665145E+03 0.  0.
    9000005    1    3    3    0    0  0.50025880627E+02 -0.20680750042E+03 -0.71265683718E+03  0.74374236032E+03  0.99999687468E+00 0.  0.
          4    1    3    3  501    0  0.31470180636E+02  0.13029173156E+03 -0.93944402250E+02  0.16368218686E+03  0.00000000000E+00 0.  1.
   -9000007    1    1    2    0  502 -0.81496061263E+02  0.76515768865E+02 -0.87481827995E+02  0.42444003241E+03  0.40000000000E+03 0.  1.
<mgrwt>
<rscale>  2 0.41561319E+03</rscale>
<asrwt>0</asrwt>
<pdfrwt beam="1">  1       21 0.33675502E-01 0.41570873E+03</pdfrwt>
<pdfrwt beam="2">  1       21 0.17122674E+00 0.41570873E+03</pdfrwt>
<totfact> 0.15285975E+03</totfact>
</mgrwt>
</event>
<event>
 6    1  0.9502611E-004  0.6223777E+03  0.7818608E-02  0.9860185E-01
         21   -1    0    0  503  502  0.00000000000E+00  0.00000000000E+00  0.59761654360E+03  0.59761654360E+03  0.00000000000E+00 0. -1.
         21   -1    0    0  501  503 -0.00000000000E+00 -0.00000000000E+00 -0.65033483114E+03  0.65033483114E+03  0.00000000000E+00 0. -1.
    9000007    2    1    2  501    0  0.45712192935E+03 -0.13424257970E+03 -0.64910703214E+02  0.62575350951E+03  0.40046538774E+03 0.  0.
    9000005    1    3    3    0    0  0.49642434315E+03 -0.20669620682E+03 -0.74088134263E+02  0.54281719024E+03  0.99999687468E+00 0.  0.
          4    1    3    3  501    0 -0.39302413803E+02  0.72453627121E+02  0.91774310484E+01  0.82936319272E+02  0.00000000000E+00 0.  1.
   -9000007    1    1    2    0  502 -0.45712192935E+03  0.13424257970E+03  0.12192415669E+02  0.62219786523E+03  0.40000000000E+03 0. -1.
<mgrwt>
<rscale>  2 0.62230289E+03</rscale>
<asrwt>0</asrwt>
<pdfrwt beam="1">  1       21 0.91941007E-01 0.62237774E+03</pdfrwt>
<pdfrwt beam="2">  1       21 0.10005151E+00 0.62237774E+03</pdfrwt>
<totfact> 0.64934081E+02</totfact>
</mgrwt>
</event>
<event>
 6    1  0.9502611E-004  0.5149214E+03  0.7818608E-02  0.1010021E+00
         21   -1    0    0  503  502  0.00000000000E+00  0.00000000000E+00  0.25033784021E+03  0.25033784021E+03  0.00000000000E+00 0. -1.
         21   -1    0    0  501  503 -0.00000000000E+00 -0.00000000000E+00 -0.14377649227E+04  0.14377649227E+04  0.00000000000E+00 0. -1.
    9000007    2    1    2  501    0 -0.32391193879E+03 -0.15001760402E+02 -0.10276312096E+04  0.11489564767E+04  0.39866161780E+03 0.  0.
    9000005    1    3    3    0    0 -0.94340224871E+02  0.17827017615E+03 -0.29615219953E+03  0.35831195768E+03  0.99999687468E+00 0.  0.
          4    1    3    3  501    0 -0.22957171392E+03 -0.19327193655E+03 -0.73147901012E+03  0.79064451907E+03  0.00000000000E+00 0.  1.
   -9000007    1    1    2    0  502  0.32391193879E+03  0.15001760402E+02 -0.15979587285E+03  0.53914628616E+03  0.40000000000E+03 0. -1.
<mgrwt>
<rscale>  2 0.51466141E+03</rscale>
<asrwt>0</asrwt>
<pdfrwt beam="1">  1       21 0.38513515E-01 0.51492135E+03</pdfrwt>
<pdfrwt beam="2">  1       21 0.22119460E+00 0.51492135E+03</pdfrwt>
<totfact> 0.51085463E+02</totfact>
</mgrwt>
</event>
<event>
 6    1  0.9502611E-004  0.4155366E+03  0.7818608E-02  0.1038546E+00
         21   -1    0    0  503  502  0.00000000000E+00  0.00000000000E+00  0.19389647023E+03  0.19389647023E+03  0.00000000000E+00 0.  1.
         21   -1    0    0  501  503 -0.00000000000E+00 -0.00000000000E+00 -0.10070407330E+04  0.10070407330E+04  0.00000000000E+00 0.  1.
    9000007    2    1    2  501    0  0.11121895435E+03  0.11529842083E+02 -0.20203596859E+03  0.46204888942E+03  0.40021000806E+03 0.  0.
    9000005    1    3    3    0    0 -0.19352231123E+02  0.15994746368E+03 -0.20942823466E+03  0.26423263510E+03  0.99999687468E+00 0.  0.
          4    1    3    3  501    0  0.13057118548E+03 -0.14841762159E+03  0.73922660723E+01  0.19781625432E+03  0.00000000000E+00 0.  1.
   -9000007    1    1    2    0  502 -0.11121895435E+03 -0.11529842083E+02 -0.61110829419E+03  0.73888831382E+03  0.40000000000E+03 0.  1.
<mgrwt>
<rscale>  2 0.41548600E+03</rscale>
<asrwt>0</asrwt>
<pdfrwt beam="1">  1       21 0.29830226E-01 0.41553657E+03</pdfrwt>
<pdfrwt beam="2">  1       21 0.15492934E+00 0.41553657E+03</pdfrwt>
<totfact> 0.25757869E+03</totfact>
</mgrwt>
</event>
<event>
 6    1  0.9502611E-004  0.4404571E+03  0.7818608E-02  0.1030665E+00
         21   -1    0    0  503  502  0.00000000000E+00  0.00000000000E+00  0.67213596531E+03  0.67213596531E+03  0.00000000000E+00 0.  1.
         21   -1    0    0  501  503 -0.00000000000E+00 -0.00000000000E+00 -0.44079691099E+03  0.44079691099E+03  0.00000000000E+00 0.  1.
    9000007    2    1    2  501    0 -0.99918688778E+01  0.18228908091E+03 -0.21174528091E+03  0.48871106109E+03  0.40084072995E+03 0.  0.
    9000005    1    3    3    0    0  0.61493501569E+02 -0.10519122579E+03  0.45181080179E+01  0.12193464648E+03  0.99999687468E+00 0.  0.
          4    1    3    3  501    0 -0.71485370447E+02  0.28748030670E+03 -0.21626338893E+03  0.36677641461E+03  0.00000000000E+00 0.  1.
   -9000007    1    1    2    0  502  0.99918688778E+01 -0.18228908091E+03  0.44308433523E+03  0.62422181521E+03  0.40000000000E+03 0.  1.
<mgrwt>
<rscale>  2 0.44026571E+03</rscale>
<asrwt>0</asrwt>
<pdfrwt beam="1">  1       21 0.10340553E+00 0.44045708E+03</pdfrwt>
<pdfrwt beam="2">  1       21 0.67814910E-01 0.44045708E+03</pdfrwt>
<totfact> 0.12916259E+03</totfact>
</mgrwt>
</event>
<event>
 6    1  0.9502611E-004  0.4025541E+03  0.7818608E-02  0.1042914E+00
         21   -1    0    0  503  502  0.00000000000E+00  0.00000000000E+00  0.11399362441E+04  0.11399362441E+04  0.00000000000E+00 0.  1.
         21   -1    0    0  501  503 -0.00000000000E+00 -0.00000000000E+00 -0.22224874163E+03  0.22224874163E+03  0.00000000000E+00 0.  1.
    9000007    2    1    2  501    0 -0.23657241413E+02 -0.38601798383E+02  0.86780269489E+03  0.95655182892E+03  0.39982511206E+03 0.  0.
    9000005    1    3    3    0    0 -0.11962354131E+02  0.17053454427E+03  0.23951573337E+03  0.29426844076E+03  0.99999687468E+00 0.  0.
          4    1    3    3  501    0 -0.11694887281E+02 -0.20913634265E+03  0.62828696152E+03  0.66228338816E+03  0.00000000000E+00 0.  1.
   -9000007    1    1    2    0  502  0.23657241413E+02  0.38601798383E+02  0.49884807613E+02  0.40563315686E+03  0.40000000000E+03 0.  1.
<mgrwt>
<rscale>  2 0.40251060E+03</rscale>
<asrwt>0</asrwt>
<pdfrwt beam="1">  1       21 0.17537480E+00 0.40255405E+03</pdfrwt>
<pdfrwt beam="2">  1       21 0.34192115E-01 0.40255405E+03</pdfrwt>
<totfact> 0.13929375E+03</totfact>
</mgrwt>
</event>
<event>
 6    1  0.9502611E-004  0.6227562E+03  0.7818608E-02  0.9859501E-01
         21   -1    0    0  503  502  0.00000000000E+00  0.00000000000E+00  0.59022190695E+03  0.59022190695E+03  0.00000000000E+00 0. -1.
         21   -1    0    0  501  503 -0.00000000000E+00 -0.00000000000E+00 -0.66428639732E+03  0.66428639732E+03  0.00000000000E+00 0.  1.
    9000007    2    1    2  501    0 -0.19275073119E+03  0.43666052686E+03 -0.10436381360E+03  0.63101547426E+03  0.39932876565E+03 0.  0.
    9000005    1    3    3    0    0  0.71006645074E+02  0.91112956445E+02 -0.15506133127E+03  0.19336114120E+03  0.99999687468E+00 0.  0.
          4    1    3    3  501    0 -0.26375737626E+03  0.34554757041E+03  0.50697517663E+02  0.43765433306E+03  0.00000000000E+00 0.  1.
   -9000007    1    1    2    0  502  0.19275073119E+03 -0.43666052686E+03  0.30299323230E+02  0.62349283001E+03  0.40000000000E+03 0. -1.
<mgrwt>
<rscale>  2 0.62264842E+03</rscale>
<asrwt>0</asrwt>
<pdfrwt beam="1">  1       21 0.90803370E-01 0.62275618E+03</pdfrwt>
<pdfrwt beam="2">  1       21 0.10219791E+00 0.62275618E+03</pdfrwt>
<totfact> 0.63484368E+02</totfact>
</mgrwt>
</event>
<event>
 6    1  0.9502611E-004  0.5338018E+03  0.7818608E-02  0.1005318E+00
         21   -1    0    0  503  502  0.00000000000E+00  0.00000000000E+00  0.13553958155E+04  0.13553958155E+04  0.00000000000E+00 0. -1.
         21   -1    0    0  501  503 -0.00000000000E+00 -0.00000000000E+00 -0.24564375772E+03  0.24564375772E+03  0.00000000000E+00 0. -1.
    9000007    2    1    2  501    0 -0.34030802713E+03 -0.95213859814E+02  0.85896800997E+03  0.10113211056E+04  0.40008637075E+03 0.  0.
    9000005    1    3    3    0    0 -0.17608461953E+03 -0.72437484021E+01  0.79506774928E+03  0.81436600560E+03  0.99999687468E+00 0.  0.
          4    1    3    3  501    0 -0.16422340760E+03 -0.87970111412E+02  0.63900260691E+02  0.19695510001E+03  0.00000000000E+00 0.  1.
   -9000007    1    1    2    0  502  0.34030802713E+03  0.95213859814E+02  0.25078404785E+03  0.58971846765E+03  0.40000000000E+03 0. -1.
<mgrwt>
<rscale>  2 0.53378559E+03</rscale>
<asrwt>0</asrwt>
<pdfrwt beam="1">  1       21 0.20852243E+00 0.53380178E+03</pdfrwt>
<pdfrwt beam="2">  1       21 0.37791348E-01 0.53380178E+03</pdfrwt>
<totfact> 0.63702661E+02</totfact>
</mgrwt>
</event>
<event>
 6    1  0.9502611E-004  0.5049576E+03  0.7818608E-02  0.1012570E+00
         21   -1    0    0  503  502  0.00000000000E+00  0.00000000000E+00  0.75476050203E+03  0.75476050203E+03  0.00000000000E+00 0.  1.
         21   -1    0    0  501  503 -0.00000000000E+00 -0.00000000000E+00 -0.34123594431E+03  0.34123594431E+03  0.00000000000E+00 0.  1.
    9000007    2    1    2  501    0 -0.87062338930E+02 -0.29563877000E+03  0.26733577249E+03  0.57030329048E+03  0.39849127304E+03 0.  0.
    9000005    1    3    3    0    0 -0.19214215216E+02  0.47780092964E+02  0.20920480611E+03  0.21545248720E+03  0.99999687468E+00 0.  0.
          4    1    3    3  501    0 -0.67848123714E+02 -0.34341886297E+03  0.58130966385E+02  0.35485080328E+03  0.00000000000E+00 0.  1.
   -9000007    1    1    2    0  502  0.87062338930E+02  0.29563877000E+03  0.14618878523E+03  0.52569315586E+03  0.40000000000E+03 0. -1.
<mgrwt>
<rscale>  2 0.50465872E+03</rscale>
<asrwt>0</asrwt>
<pdfrwt beam="1">  1       21 0.11611700E+00 0.50495756E+03</pdfrwt>
<pdfrwt beam="2">  1       21 0.52497838E-01 0.50495756E+03</pdfrwt>
<totfact> 0.16568429E+03</totfact>
</mgrwt>
</event>
<event>
 6    1  0.9502611E-004  0.4012432E+03  0.7818608E-02  0.1043352E+00
         21   -1    0    0  503  502  0.00000000000E+00  0.00000000000E+00  0.10040128780E+04  0.10040128780E+04  0.00000000000E+00 0.  1.
         21   -1    0    0  501  503 -0.00000000000E+00 -0.00000000000E+00 -0.36087187165E+03  0.36087187165E+03  0.00000000000E+00 0.  1.
    9000007    2    1    2  501    0 -0.25163634277E+02 -0.19049855384E+02 -0.18715416595E+03  0.44272089293E+03  0.39997375130E+03 0.  0.
    9000005    1    3    3    0    0 -0.15670945199E+03 -0.11146398898E+02  0.55473154821E+02  0.16661442150E+03  0.99999687468E+00 0.  0.
          4    1    3    3  501    0  0.13154581772E+03 -0.79034564857E+01 -0.24262732077E+03  0.27610647143E+03  0.00000000000E+00 0.  1.
   -9000007    1    1    2    0  502  0.25163634277E+02  0.19049855384E+02  0.83029517225E+03  0.92216385667E+03  0.40000000000E+03 0.  1.
<mgrwt>
<rscale>  2 0.40123666E+03</rscale>
<asrwt>0</asrwt>
<pdfrwt beam="1">  1       21 0.15446352E+00 0.40124320E+03</pdfrwt>
<pdfrwt beam="2">  1       21 0.55518750E-01 0.40124320E+03</pdfrwt>
<totfact> 0.72555544E+02</totfact>
</mgrwt>
</event>
<event>
 6    1  0.9502611E-004  0.6630839E+03  0.7818608E-02  0.9782633E-01
         21   -1    0    0  503  502  0.00000000000E+00  0.00000000000E+00  0.15319637955E+04  0.15319637955E+04  0.00000000000E+00 0.  1.
         21   -1    0    0  501  503 -0.00000000000E+00 -0.00000000000E+00 -0.50996273716E+03  0.50996273716E+03  0.00000000000E+00 0. -1.
    9000007    2    1    2  501    0 -0.22712939437E+03  0.47728819750E+03 -0.16417105194E+03  0.68310496215E+03  0.40036042483E+03 0.  0.
    9000005    1    3    3    0    0 -0.34333525612E+03  0.36650271762E+03 -0.11510264322E+03  0.51522127149E+03  0.99999687468E+00 0.  0.
          4    1    3    3  501    0  0.11620586176E+03  0.11078547988E+03 -0.49068408718E+02  0.16788369067E+03  0.00000000000E+00 0.  1.
   -9000007    1    1    2    0  502  0.22712939437E+03 -0.47728819750E+03  0.11861721102E+04  0.13588215705E+04  0.40000000000E+03 0.  1.
<mgrwt>
<rscale>  2 0.66302950E+03</rscale>
<asrwt>0</asrwt>
<pdfrwt beam="1">  1       21 0.23568674E+00 0.66308390E+03</pdfrwt>
<pdfrwt beam="2">  1       21 0.78455806E-01 0.66308390E+03</pdfrwt>
<totfact> 0.82468506E+01</totfact>
</mgrwt>
</event>
<event>
 6    1  0.9502611E-004  0.4764086E+03  0.7818608E-02  0.1020131E+00
         21   -1    0    0  503  502  0.00000000000E+00  0.00000000000E+00  0.30816830889E+03  0.30816830889E+03  0.00000000000E+00 0. -1.
         21   -1    0    0  501  503 -0.00000000000E+00 -0.00000000000E+00 -0.81381648343E+03  0.81381648343E+03  0.00000000000E+00 0. -1.
    9000007    2    1    2  501    0 -0.10888246504E+03  0.23475478047E+03 -0.42583298167E+03  0.63893648919E+03  0.39992613167E+03 0.  0.
    9000005    1    3    3    0    0 -0.20396535151E+03  0.26417352922E+03 -0.42372730785E+03  0.53938423185E+03  0.99999687468E+00 0.  0.
          4    1    3    3  501    0  0.95082886469E+02 -0.29418748751E+02 -0.21056738125E+01  0.99552257330E+02  0.00000000000E+00 0.  1.
   -9000007    1    1    2    0  502  0.10888246504E+03 -0.23475478047E+03 -0.79815192878E+02  0.48304830313E+03  0.40000000000E+03 0. -1.
<mgrwt>
<rscale>  2 0.47639314E+03</rscale>
<asrwt>0</asrwt>
<pdfrwt beam="1">  1       21 0.47410510E-01 0.47640865E+03</pdfrwt>
<pdfrwt beam="2">  1       21 0.12520253E+00 0.47640865E+03</pdfrwt>
<totfact> 0.17162499E+03</totfact>
</mgrwt>
</event>
<event>
 6    1  0.9502611E-004  0.5243563E+03  0.7818608E-02  0.1007632E+00
         21   -1    0    0  503  502  0.00000000000E+00  0.00000000000E+00  0.21064100627E+03  0.21064100627E+03  0.00000000000E+00 0. -1.
         21   -1    0    0  501  503 -0.00000000000E+00 -0.00000000000E+00 -0.16542426928E+04  0.16542426928E+04  0.00000000000E+00 0.  1.
    9000007    2    1    2  501    0 -0.18379430628E+03 -0.28490211442E+03 -0.11503971087E+04  0.12641187814E+04  0.39954126696E+03 0.  0.
    9000005    1    3    3    0    0 -0.99004937614E+02 -0.26180241396E+03 -0.30422723384E+03  0.41339774000E+03  0.99999687468E+00 0.  0.
          4    1    3    3  501    0 -0.84789368665E+02 -0.23099700453E+02 -0.84616987485E+03  0.85072104141E+03  0.00000000000E+00 0.  1.
   -9000007    1    1    2    0  502  0.18379430628E+03  0.28490211442E+03 -0.29320457784E+03  0.60076491766E+03  0.40000000000E+03 0. -1.
<mgrwt>
<rscale>  2 0.52426885E+03</rscale>
<asrwt>0</asrwt>
<pdfrwt beam="1">  1       21 0.32406310E-01 0.52435633E+03</pdfrwt>
<pdfrwt beam="2">  1       21 0.25449887E+00 0.52435633E+03</pdfrwt>
<totfact> 0.44663329E+02</totfact>
</mgrwt>
</event>
<event>
 6    1  0.9502611E-004  0.4126634E+03  0.7818608E-02  0.1039487E+00
         21   -1    0    0  503  502  0.00000000000E+00  0.00000000000E+00  0.76558251865E+03  0.76558251865E+03  0.00000000000E+00 0. -1.
         21   -1    0    0  501  503 -0.00000000000E+00 -0.00000000000E+00 -0.29477155582E+03  0.29477155582E+03  0.00000000000E+00 0.  1.
    9000007    2    1    2  501    0 -0.89312395225E+02 -0.47437957044E+02 -0.27294379743E+02  0.41356508568E+03  0.40008003352E+03 0.  0.
    9000005    1    3    3    0    0  0.14386622586E+03  0.40352541208E+02  0.41513269003E+02  0.15508117237E+03  0.99999687468E+00 0.  0.
          4    1    3    3  501    0 -0.23317862109E+03 -0.87790498252E+02 -0.68807648746E+02  0.25848391331E+03  0.00000000000E+00 0.  1.
   -9000007    1    1    2    0  502  0.89312395225E+02  0.47437957044E+02  0.49810534258E+03  0.64678898879E+03  0.40000000000E+03 0. -1.
<mgrwt>
<rscale>  2 0.41264402E+03</rscale>
<asrwt>0</asrwt>
<pdfrwt beam="1">  1       21 0.11778192E+00 0.41266342E+03</pdfrwt>
<pdfrwt beam="2">  1       21 0.45349471E-01 0.41266342E+03</pdfrwt>
<totfact> 0.22577445E+03</totfact>
</mgrwt>
</event>
<event>
 6    1  0.9502611E-004  0.6815760E+03  0.7818608E-02  0.9749303E-01
         21   -1    0    0  503  502  0.00000000000E+00  0.00000000000E+00  0.70299371212E+03  0.70299371212E+03  0.00000000000E+00 0.  1.
         21   -1    0    0  501  503 -0.00000000000E+00 -0.00000000000E+00 -0.92140822591E+03  0.92140822591E+03  0.00000000000E+00 0. -1.
    9000007    2    1    2  501    0 -0.43722575617E+03 -0.33656113405E+03 -0.54121335856E+03  0.87032047492E+03  0.40013256650E+03 0.  0.
    9000005    1    3    3    0    0 -0.46112273866E+03 -0.29890529461E+03 -0.58859729910E+03  0.80524923829E+03  0.99999687468E+00 0.  0.
          4    1    3    3  501    0  0.23896982488E+02 -0.37655839437E+02  0.47383940545E+02  0.65071236636E+02  0.00000000000E+00 0.  1.
   -9000007    1    1    2    0  502  0.43722575617E+03  0.33656113405E+03  0.32279884477E+03  0.75408146310E+03  0.40000000000E+03 0.  1.
<mgrwt>
<rscale>  2 0.68155653E+03</rscale>
<asrwt>0</asrwt>
<pdfrwt beam="1">  1       21 0.10815288E+00 0.68157599E+03</pdfrwt>
<pdfrwt beam="2">  1       21 0.14175511E+00 0.68157599E+03</pdfrwt>
<totfact> 0.17504498E+02</totfact>
</mgrwt>
</event>
<event>
 6    1  0.9502611E-004  0.5014666E+03  0.7818608E-02  0.1013448E+00
         21   -1    0    0  503  502  0.00000000000E+00  0.00000000000E+00  0.79718990184E+03  0.79718990184E+03  0.00000000000E+00 0.  1.
         21   -1    0    0  501  503 -0.00000000000E+00 -0.00000000000E+00 -0.44572154335E+03  0.44572154335E+03  0.00000000000E+00 0. -1.
    9000007    2    1    2  501    0 -0.11769964384E+03 -0.27716547513E+03 -0.16078974316E+03  0.52661383284E+03  0.40099236984E+03 0.  0.
    9000005    1    3    3    0    0 -0.49390890487E+02  0.10083400825E+02 -0.21980579644E+03  0.22551435249E+03  0.99999687468E+00 0.  0.
          4    1    3    3  501    0 -0.68308753349E+02 -0.28724887595E+03  0.59016053285E+02  0.30109948035E+03  0.00000000000E+00 0.  1.
   -9000007    1    1    2    0  502  0.11769964384E+03  0.27716547513E+03  0.51225810164E+03  0.71629761235E+03  0.40000000000E+03 0.  1.
<mgrwt>
<rscale>  2 0.50126822E+03</rscale>
<asrwt>0</asrwt>
<pdfrwt beam="1">  1       21 0.12264460E+00 0.50146664E+03</pdfrwt>
<pdfrwt beam="2">  1       21 0.68572545E-01 0.50146664E+03</pdfrwt>
<totfact> 0.80253991E+02</totfact>
</mgrwt>
</event>
<event>
 6    1  0.9502611E-004  0.4262959E+03  0.7818608E-02  0.1035063E+00
         21   -1    0    0  503  502  0.00000000000E+00  0.00000000000E+00  0.61280978767E+02  0.61280978767E+02  0.00000000000E+00 0. -1.
         21   -1    0    0  501  503 -0.00000000000E+00 -0.00000000000E+00 -0.29792768391E+04  0.29792768391E+04  0.00000000000E+00 0.  1.
    9000007    2    1    2  501    0 -0.14735804710E+03 -0.37165505574E+01 -0.13467246934E+04  0.14124849428E+04  0.39964747812E+03 0.  0.
    9000005    1    3    3    0    0 -0.25506794965E+03  0.65743099878E+02 -0.60625210019E+03  0.66100258933E+03  0.99999687468E+00 0.  0.
          4    1    3    3  501    0  0.10770990255E+03 -0.69459650435E+02 -0.74047259325E+03  0.75148235342E+03  0.00000000000E+00 0.  1.
   -9000007    1    1    2    0  502  0.14735804710E+03  0.37165505574E+01 -0.15712711669E+04  0.16280728751E+04  0.40000000000E+03 0.  1.
<mgrwt>
<rscale>  2 0.42621320E+03</rscale>
<asrwt>0</asrwt>
<pdfrwt beam="1">  1       21 0.94278436E-02 0.42629591E+03</pdfrwt>
<pdfrwt beam="2">  1       21 0.45835025E+00 0.42629591E+03</pdfrwt>
<totfact> 0.25512030E+02</totfact>
</mgrwt>
</event>
<event>
 6    1  0.9502611E-004  0.4601850E+03  0.7818608E-02  0.1024737E+00
         21   -1    0    0  503  502  0.00000000000E+00  0.00000000000E+00  0.81111058379E+03  0.81111058379E+03  0.00000000000E+00 0.  1.
         21   -1    0    0  501  503 -0.00000000000E+00 -0.00000000000E+00 -0.34600519796E+03  0.34600519796E+03  0.00000000000E+00 0.  1.
    9000007    2    1    2  501    0 -0.14852724280E+03  0.17203622307E+03 -0.54161812201E+02  0.46336133899E+03  0.40014175572E+03 0.  0.
    9000005    1    3    3    0    0  0.33184255385E+02 -0.91271861732E+02  0.70496398383E+02  0.12001037342E+03  0.99999687468E+00 0.  0.
          4    1    3    3  501    0 -0.18171149818E+03  0.26330808480E+03 -0.12465821058E+03  0.34335096557E+03  0.00000000000E+00 0.  1.
   -9000007    1    1    2    0  502  0.14852724280E+03 -0.17203622307E+03  0.51926719804E+03  0.69375444276E+03  0.40000000000E+03 0.  1.
<mgrwt>
<rscale>  2 0.46015418E+03</rscale>
<asrwt>0</asrwt>
<pdfrwt beam="1">  1       21 0.12478624E+00 0.46018499E+03</pdfrwt>
<pdfrwt beam="2">  1       21 0.53231569E-01 0.46018499E+03</pdfrwt>
<totfact> 0.13609655E+03</totfact>
</mgrwt>
</event>
<event>
 6    1  0.9502611E-004  0.4758157E+03  0.7818608E-02  0.1020302E+00
         21   -1    0    0  503  502  0.00000000000E+00  0.00000000000E+00  0.48380802084E+03  0.48380802084E+03  0.00000000000E+00 0.  1.
         21   -1    0    0  501  503 -0.00000000000E+00 -0.00000000000E+00 -0.54554443250E+03  0.54554443250E+03  0.00000000000E+00 0. -1.
    9000007    2    1    2  501    0 -0.23631767935E+03 -0.10273503755E+03 -0.22515402133E+03  0.52625619151E+03  0.39981334679E+03 0.  0.
    9000005    1    3    3    0    0 -0.99044088205E+02 -0.20202030048E+03  0.22588319518E+02  0.22612643672E+03  0.99999687468E+00 0.  0.
          4    1    3    3  501    0 -0.13727359114E+03  0.99285262924E+02 -0.24774234085E+03  0.30012975479E+03  0.00000000000E+00 0.  1.
   -9000007    1    1    2    0  502  0.23631767935E+03  0.10273503755E+03  0.16341760968E+03  0.50309626183E+03  0.40000000000E+03 0.  1.
<mgrwt>
<rscale>  2 0.47577642E+03</rscale>
<asrwt>0</asrwt>
<pdfrwt beam="1">  1       21 0.74432004E-01 0.47581565E+03</pdfrwt>
<pdfrwt beam="2">  1       21 0.83929912E-01 0.47581565E+03</pdfrwt>
<totfact> 0.17001105E+03</totfact>
</mgrwt>
</event>
<event>
 6    1  0.9502611E-004  0.4458913E+03  0.7818608E-02  0.1028967E+00
         21   -1    0    0  503  502  0.00000000000E+00  0.00000000000E+00  0.66074770817E+03  0.66074770817E+03  0.00000000000E+00 0. -1.
         21   -1    0    0  501  503 -0.00000000000E+00 -0.00000000000E+00 -0.57638528589E+03  0.57638528589E+03  0.00000000000E+00 0. -1.
    9000007    2    1    2  501    0 -0.19373255747E+03 -0.33658710210E+02  0.46991654328E+03  0.64779676336E+03  0.40019229924E+03 0.  0.
    9000005    1    3    3    0    0 -0.10584787762E+03 -0.20744209658E+03  0.34564422897E+03  0.41678163305E+03  0.99999687468E+00 0.  0.
          4    1    3    3  501    0 -0.87884679849E+02  0.17378338637E+03  0.12427231431E+03  0.23101513031E+03  0.00000000000E+00 0.  1.
   -9000007    1    1    2    0  502  0.19373255747E+03  0.33658710210E+02 -0.38555412100E+03  0.58933623070E+03  0.40000000000E+03 0. -1.
<mgrwt>
<rscale>  2 0.44584819E+03</rscale>
<asrwt>0</asrwt>
<pdfrwt beam="1">  1       21 0.10165349E+00 0.44589134E+03</pdfrwt>
<pdfrwt beam="2">  1       21 0.88674659E-01 0.44589134E+03</pdfrwt>
<totfact> 0.72581149E+02</totfact>
</mgrwt>
</event>
<event>
 6    1  0.9502611E-004  0.4213312E+03  0.7818608E-02  0.1036645E+00
         21   -1    0    0  503  502  0.00000000000E+00  0.00000000000E+00  0.38652997855E+03  0.38652997855E+03  0.00000000000E+00 0. -1.
         21   -1    0    0  501  503 -0.00000000000E+00 -0.00000000000E+00 -0.52860424179E+03  0.52860424179E+03  0.00000000000E+00 0. -1.
    9000007    2    1    2  501    0  0.13035972931E+02  0.13127601338E+03 -0.23694816340E+03  0.48338847895E+03  0.40014579988E+03 0.  0.
    9000005    1    3    3    0    0  0.15433190560E+02  0.11346286824E+03 -0.35034056854E+03  0.36858041157E+03  0.99999687468E+00 0.  0.
          4    1    3    3  501    0 -0.23972176282E+01  0.17813145143E+02  0.11339240513E+03  0.11480806737E+03  0.00000000000E+00 0.  1.
   -9000007    1    1    2    0  502 -0.13035972931E+02 -0.13127601338E+03  0.94873900159E+02  0.43174574139E+03  0.40000000000E+03 0. -1.
<mgrwt>
<rscale>  2 0.42129659E+03</rscale>
<asrwt>0</asrwt>
<pdfrwt beam="1">  1       21 0.59466151E-01 0.42133121E+03</pdfrwt>
<pdfrwt beam="2">  1       21 0.81323729E-01 0.42133121E+03</pdfrwt>
<totfact> 0.30807481E+03</totfact>
</mgrwt>
</event>
<event>
 6    1  0.9502611E-004  0.4066820E+03  0.7818608E-02  0.1041678E+00
         21   -1    0    0  503  502  0.00000000000E+00  0.00000000000E+00  0.22210554507E+04  0.22210554507E+04  0.00000000000E+00 0. -1.
         21   -1    0    0  501  503 -0.00000000000E+00 -0.00000000000E+00 -0.10595803363E+03  0.10595803363E+03  0.00000000000E+00 0. -1.
    9000007    2    1    2  501    0  0.19363756188E+02 -0.70818632060E+02  0.41714999849E+03  0.58104221597E+03  0.39775080364E+03 0.  0.
    9000005    1    3    3    0    0  0.16709779623E+03  0.41741039859E+02  0.33759516573E+03  0.37899272266E+03  0.99999687468E+00 0.  0.
          4    1    3    3  501    0 -0.14773404004E+03 -0.11255967192E+03  0.79554832762E+02  0.20204949331E+03  0.00000000000E+00 0.  1.
   -9000007    1    1    2    0  502 -0.19363756188E+02  0.70818632060E+02  0.16979474186E+04  0.17459712684E+04  0.40000000000E+03 0.  1.
<mgrwt>
<rscale>  2 0.40612784E+03</rscale>
<asrwt>0</asrwt>
<pdfrwt beam="1">  1       21 0.34170080E+00 0.40668198E+03</pdfrwt>
<pdfrwt beam="2">  1       21 0.16301238E-01 0.40668198E+03</pdfrwt>
<totfact> 0.53340549E+02</totfact>
</mgrwt>
</event>
<event>
 6    1  0.9502611E-004  0.4894820E+03  0.7818608E-02  0.1016611E+00
         21   -1    0    0  503  502  0.00000000000E+00  0.00000000000E+00  0.30942717026E+03  0.30942717026E+03  0.00000000000E+00 0. -1.
         21   -1    0    0  501  503 -0.00000000000E+00 -0.00000000000E+00 -0.84366787062E+03  0.84366787062E+03  0.00000000000E+00 0. -1.
    9000007    2    1    2  501    0 -0.17311739656E+02  0.28159002805E+03 -0.10023788340E+03  0.49891533671E+03  0.39909427421E+03 0.  0.
    9000005    1    3    3    0    0 -0.20329856890E+03  0.19793194621E+03 -0.74534290277E+02  0.29336619414E+03  0.99999687468E+00 0.  0.
          4    1    3    3  501    0  0.18598682924E+03  0.83658081837E+02 -0.25703593125E+02  0.20554914256E+03  0.00000000000E+00 0.  1.
   -9000007    1    1    2    0  502  0.17311739656E+02 -0.28159002805E+03 -0.43400281696E+03  0.65417970418E+03  0.40000000000E+03 0. -1.
<mgrwt>
<rscale>  2 0.48929694E+03</rscale>
<asrwt>0</asrwt>
<pdfrwt beam="1">  1       21 0.47604181E-01 0.48948201E+03</pdfrwt>
<pdfrwt beam="2">  1       21 0.12979505E+00 0.48948201E+03</pdfrwt>
<totfact> 0.15425122E+03</totfact>
</mgrwt>
</event>
<event>
 6    1  0.9502611E-004  0.4160683E+03  0.7818608E-02  0.1038379E+00
         21   -1    0    0  503  502  0.00000000000E+00  0.00000000000E+00  0.10491368334E+04  0.10491368334E+04  0.00000000000E+00 0.  1.
         21   -1    0    0  501  503 -0.00000000000E+00 -0.00000000000E+00 -0.30517774113E+03  0.30517774113E+03  0.00000000000E+00 0.  1.
    9000007    2    1    2  501    0  0.40625390666E+02 -0.10706260480E+03  0.83103520155E+03  0.92923214429E+03  0.39967492797E+03 0.  0.
    9000005    1    3    3    0    0  0.11869280099E+03 -0.19596308735E+03  0.26207235934E+03  0.34809831102E+03  0.99999687468E+00 0.  0.
          4    1    3    3  501    0 -0.78067410324E+02  0.88900482553E+02  0.56896284221E+03  0.58113383327E+03  0.00000000000E+00 0.  1.
   -9000007    1    1    2    0  502 -0.40625390666E+02  0.10706260480E+03 -0.87076109262E+02  0.42508243026E+03  0.40000000000E+03 0.  1.
<mgrwt>
<rscale>  2 0.41599014E+03</rscale>
<asrwt>0</asrwt>
<pdfrwt beam="1">  1       21 0.16140566E+00 0.41606829E+03</pdfrwt>
<pdfrwt beam="2">  1       21 0.46950422E-01 0.41606829E+03</pdfrwt>
<totfact> 0.91152824E+02</totfact>
</mgrwt>
</event>
<event>
 6    1  0.9502611E-004  0.4070443E+03  0.7818608E-02  0.1041638E+00
         21   -1    0    0  503  502  0.00000000000E+00  0.00000000000E+00  0.15670698813E+04  0.15670698813E+04  0.00000000000E+00 0. -1.
         21   -1    0    0  501  503 -0.00000000000E+00 -0.00000000000E+00 -0.12553688966E+03  0.12553688966E+03  0.00000000000E+00 0. -1.
    9000007    2    1    2  501    0  0.22055676084E+02 -0.72101228131E+02  0.37531909497E+03  0.55133681455E+03  0.39676544719E+03 0.  0.
    9000005    1    3    3    0    0  0.14039249249E+03  0.97312339601E+02  0.74469217387E+02  0.18635022865E+03  0.99999687468E+00 0.  0.
          4    1    3    3  501    0 -0.11833681640E+03 -0.16941356773E+03  0.30084987758E+03  0.36498658590E+03  0.00000000000E+00 0.  1.
   -9000007    1    1    2    0  502 -0.22055676084E+02  0.72101228131E+02  0.10662138966E+04  0.11412699564E+04  0.40000000000E+03 0. -1.
<mgrwt>
<rscale>  2 0.40624740E+03</rscale>
<asrwt>0</asrwt>
<pdfrwt beam="1">  1       21 0.24108766E+00 0.40704427E+03</pdfrwt>
<pdfrwt beam="2">  1       21 0.19313369E-01 0.40704427E+03</pdfrwt>
<totfact> 0.15687109E+03</totfact>
</mgrwt>
</event>
<event>
 6    1  0.9502611E-004  0.5604068E+03  0.7818608E-02  0.9991251E-01
         21   -1    0    0  503  502  0.00000000000E+00  0.00000000000E+00  0.15282570901E+04  0.15282570901E+04  0.00000000000E+00 0.  1.
         21   -1    0    0  501  503 -0.00000000000E+00 -0.00000000000E+00 -0.20628147528E+03  0.20628147528E+03  0.00000000000E+00 0. -1.
    9000007    2    1    2  501    0 -0.39035576668E+03  0.38046096268E+02  0.71702965781E+03  0.91004797057E+03  0.40028820685E+03 0.  0.
    9000005    1    3    3    0    0 -0.37483973607E+03 -0.62562033472E+02  0.71325727915E+03  0.80818053801E+03  0.99999687468E+00 0.  0.
          4    1    3    3  501    0 -0.15516030611E+02  0.10060812974E+03  0.37723786609E+01  0.10186743256E+03  0.00000000000E+00 0.  1.
   -9000007    1    1    2    0  502  0.39035576668E+03 -0.38046096268E+02  0.60494595701E+03  0.82449059481E+03  0.40000000000E+03 0.  1.
<mgrwt>
<rscale>  2 0.56035533E+03</rscale>
<asrwt>0</asrwt>
<pdfrwt beam="1">  1       21 0.23511647E+00 0.56040680E+03</pdfrwt>
<pdfrwt beam="2">  1       21 0.31735613E-01 0.56040680E+03</pdfrwt>
<totfact> 0.60571720E+02</totfact>
</mgrwt>
</event>
<event>
 6    1  0.9502611E-004  0.4013668E+03  0.7818608E-02  0.1043342E+00
         21   -1    0    0  503  502  0.00000000000E+00  0.00000000000E+00  0.15975846307E+04  0.15975846307E+04  0.00000000000E+00 0.  1.
         21   -1    0    0  501  503 -0.00000000000E+00 -0.00000000000E+00 -0.10348841527E+03  0.10348841527E+03  0.00000000000E+00 0.  1.
    9000007    2    1    2  501    0  0.91059485295E+01 -0.31818659127E+02  0.60794186912E+03  0.72826018070E+03  0.39959257900E+03 0.  0.
    9000005    1    3    3    0    0  0.92597086426E+01  0.17760428675E+03  0.18680862010E+03  0.25792922559E+03  0.99999687468E+00 0.  0.
          4    1    3    3  501    0 -0.15376011310E+00 -0.20942294588E+03  0.42113324902E+03  0.47033095511E+03  0.00000000000E+00 0.  1.
   -9000007    1    1    2    0  502 -0.91059485295E+01  0.31818659127E+02  0.88615434634E+03  0.97281286531E+03  0.40000000000E+03 0.  1.
<mgrwt>
<rscale>  2 0.40126530E+03</rscale>
<asrwt>0</asrwt>
<pdfrwt beam="1">  1       21 0.24578223E+00 0.40136685E+03</pdfrwt>
<pdfrwt beam="2">  1       21 0.15921296E-01 0.40136685E+03</pdfrwt>
<totfact> 0.21151059E+03</totfact>
</mgrwt>
</event>
<event>
 6    1  0.9502611E-004  0.4850930E+03  0.7818608E-02  0.1017758E+00
         21   -1    0    0  503  502  0.00000000000E+00  0.00000000000E+00  0.36063879128E+03  0.36063879128E+03  0.00000000000E+00 0.  1.
         21   -1    0    0  501  503 -0.00000000000E+00 -0.00000000000E+00 -0.13664964174E+04  0.13664964174E+04  0.00000000000E+00 0. -1.
    9000007    2    1    2  501    0 -0.99949437016E+01  0.27390961996E+03 -0.11273168580E+04  0.12272564995E+04  0.40023597845E+03 0.  0.
    9000005    1    3    3    0    0 -0.15614909767E+03  0.11843532035E+03 -0.87559447921E+03  0.89726036234E+03  0.99999687468E+00 0.  0.
          4    1    3    3  501    0  0.14615415397E+03  0.15547429961E+03 -0.25172237880E+03  0.32999613717E+03  0.00000000000E+00 0.  1.
   -9000007    1    1    2    0  502  0.99949437016E+01 -0.27390961996E+03  0.12145923193E+03  0.49987870912E+03  0.40000000000E+03 0.  1.
<mgrwt>
<rscale>  2 0.48504432E+03</rscale>
<asrwt>0</asrwt>
<pdfrwt beam="1">  1       21 0.55482890E-01 0.48509300E+03</pdfrwt>
<pdfrwt beam="2">  1       21 0.21023022E+00 0.48509300E+03</pdfrwt>
<totfact> 0.28247346E+02</totfact>
</mgrwt>
</event>
<event>
 6    1  0.9502611E-004  0.5540020E+03  0.7818608E-02  0.1000581E+00
         21   -1    0    0  503  502  0.00000000000E+00  0.00000000000E+00  0.12450117116E+04  0.12450117116E+04  0.00000000000E+00 0.  1.
         21   -1    0    0  501  503 -0.00000000000E+00 -0.00000000000E+00 -0.24916782158E+03  0.24916782158E+03  0.00000000000E+00 0.  1.
    9000007    2    1    2  501    0 -0.36043513591E+03 -0.13040230196E+03  0.41978699376E+03  0.69495503701E+03  0.39977885860E+03 0.  0.
    9000005    1    3    3    0    0 -0.23206622360E+03  0.67655172857E+02  0.38753003874E+03  0.45674115806E+03  0.99999687468E+00 0.  0.
          4    1    3    3  501    0 -0.12836891231E+03 -0.19805747481E+03  0.32256955022E+02  0.23821387895E+03  0.00000000000E+00 0.  1.
   -9000007    1    1    2    0  502  0.36043513591E+03  0.13040230196E+03  0.57605689626E+03  0.79922449617E+03  0.40000000000E+03 0.  1.
<mgrwt>
<rscale>  2 0.55396211E+03</rscale>
<asrwt>0</asrwt>
<pdfrwt beam="1">  1       21 0.19154026E+00 0.55400203E+03</pdfrwt>
<pdfrwt beam="2">  1       21 0.38333512E-01 0.55400203E+03</pdfrwt>
<totfact> 0.79847583E+02</totfact>
</mgrwt>
</event>
<event>
 6    1  0.9502611E-004  0.4452298E+03  0.7818608E-02  0.1029163E+00
         21   -1    0    0  503  502  0.00000000000E+00  0.00000000000E+00  0.22402203994E+03  0.22402203994E+03  0.00000000000E+00 0. -1.
         21   -1    0    0  501  503 -0.00000000000E+00 -0.00000000000E+00 -0.11845713223E+04  0.11845713223E+04  0.00000000000E+00 0. -1.
    9000007    2    1    2  501    0 -0.11261750631E+03 -0.15950807252E+03 -0.83471880526E+03  0.94603651503E+03  0.40013007383E+03 0.  0.
    9000005    1    3    3    0    0  0.62627813797E+02  0.64036559569E+02 -0.49580127674E+03  0.50382817511E+03  0.99999687468E+00 0.  0.
          4    1    3    3  501    0 -0.17524532011E+03 -0.22354463209E+03 -0.33891752853E+03  0.44220833993E+03  0.00000000000E+00 0.  1.
   -9000007    1    1    2    0  502  0.11261750631E+03  0.15950807252E+03 -0.12583047710E+03  0.46255684721E+03  0.40000000000E+03 0. -1.
<mgrwt>
<rscale>  2 0.44520061E+03</rscale>
<asrwt>0</asrwt>
<pdfrwt beam="1">  1       21 0.34464929E-01 0.44522983E+03</pdfrwt>
<pdfrwt beam="2">  1       21 0.18224174E+00 0.44522983E+03</pdfrwt>
<totfact> 0.12020732E+03</totfact>
</mgrwt>
</event>
<event>
 6    1  0.9502611E-004  0.4457361E+03  0.7818608E-02  0.1029011E+00
         21   -1    0    0  503  502  0.00000000000E+00  0.00000000000E+00  0.13217134027E+04  0.13217134027E+04  0.00000000000E+00 0.  1.
         21   -1    0    0  501  503 -0.00000000000E+00 -0.00000000000E+00 -0.15216026001E+03  0.15216026001E+03  0.00000000000E+00 0.  1.
    9000007    2    1    2  501    0  0.13492410250E+03 -0.14309483132E+03  0.50266111170E+03  0.67173550428E+03  0.39984965964E+03 0.  0.
    9000005    1    3    3    0    0  0.16148115734E+03 -0.23960524909E+03  0.49265838286E+03  0.57113931905E+03  0.99999687468E+00 0.  0.
          4    1    3    3  501    0 -0.26557054846E+02  0.96510417766E+02  0.10002728838E+02  0.10059618523E+03  0.00000000000E+00 0.  1.
   -9000007    1    1    2    0  502 -0.13492410250E+03  0.14309483132E+03  0.66689203096E+03  0.80213815839E+03  0.40000000000E+03 0.  1.
<mgrwt>
<rscale>  2 0.44570234E+03</rscale>
<asrwt>0</asrwt>
<pdfrwt beam="1">  1       21 0.20334052E+00 0.44573607E+03</pdfrwt>
<pdfrwt beam="2">  1       21 0.23409272E-01 0.44573607E+03</pdfrwt>
<totfact> 0.18542126E+03</totfact>
</mgrwt>
</event>
<event>
 6    1  0.9502611E-004  0.4058164E+03  0.7818608E-02  0.1041794E+00
         21   -1    0    0  503  502  0.00000000000E+00  0.00000000000E+00  0.25317578612E+03  0.25317578612E+03  0.00000000000E+00 0.  1.
         21   -1    0    0  501  503 -0.00000000000E+00 -0.00000000000E+00 -0.14390380501E+04  0.14390380501E+04  0.00000000000E+00 0.  1.
    9000007    2    1    2  501    0 -0.65967078163E+02 -0.18311850248E+02  0.33518701774E+02  0.40707691009E+03  0.39987639103E+03 0.  0.
    9000005    1    3    3    0    0  0.14496861440E+03 -0.29213796553E+02  0.10798738754E+03  0.18311641360E+03  0.99999687468E+00 0.  0.
          4    1    3    3  501    0 -0.21093569256E+03  0.10901946305E+02 -0.74468685767E+02  0.22396049649E+03  0.00000000000E+00 0.  1.
   -9000007    1    1    2    0  502  0.65967078163E+02  0.18311850248E+02 -0.12193809657E+04  0.12851369261E+04  0.40000000000E+03 0.  1.
<mgrwt>
<rscale>  2 0.40578597E+03</rscale>
<asrwt>0</asrwt>
<pdfrwt beam="1">  1       21 0.38950121E-01 0.40581644E+03</pdfrwt>
<pdfrwt beam="2">  1       21 0.22139047E+00 0.40581644E+03</pdfrwt>
<totfact> 0.52538797E+02</totfact>
</mgrwt>
</event>
<event>
 6    1  0.9502611E-004  0.4031466E+03  0.7818608E-02  0.1042796E+00
         21   -1    0    0  503  502  0.00000000000E+00  0.00000000000E+00  0.35442046593E+03  0.35442046593E+03  0.00000000000E+00 0. -1.
         21   -1    0    0  501  503 -0.00000000000E+00 -0.00000000000E+00 -0.88130809501E+03  0.88130809501E+03  0.00000000000E+00 0. -1.
    9000007    2    1    2  501    0  0.48146280083E+02  0.14459780700E+02 -0.69184059182E+03  0.80014087808E+03  0.39881683858E+03 0.  0.
    9000005    1    3    3    0    0  0.13195640895E+03  0.15395542606E+03 -0.21157304480E+03  0.29305105418E+03  0.99999687468E+00 0.  0.
          4    1    3    3  501    0 -0.83810128866E+02 -0.13949564536E+03 -0.48026754703E+03  0.50708982390E+03  0.00000000000E+00 0.  1.
   -9000007    1    1    2    0  502 -0.48146280083E+02 -0.14459780700E+02  0.16495296275E+03  0.43558768286E+03  0.40000000000E+03 0. -1.
<mgrwt>
<rscale>  2 0.40285276E+03</rscale>
<asrwt>0</asrwt>
<pdfrwt beam="1">  1       21 0.54526226E-01 0.40314656E+03</pdfrwt>
<pdfrwt beam="2">  1       21 0.13558586E+00 0.40314656E+03</pdfrwt>
<totfact> 0.10681978E+03</totfact>
</mgrwt>
</event>
<event>
 6    1  0.9502611E-004  0.5339247E+03  0.7818608E-02  0.1005309E+00
         21   -1    0    0  503  502  0.00000000000E+00  0.00000000000E+00  0.92210309395E+02  0.92210309395E+02  0.00000000000E+00 0. -1.
         21   -1    0    0  501  503 -0.00000000000E+00 -0.00000000000E+00 -0.34199280125E+04  0.34199280125E+04  0.00000000000E+00 0. -1.
    9000007    2    1    2  501    0  0.34588864139E+03 -0.73733544689E+02 -0.22093409259E+04  0.22728473134E+04  0.39946463608E+03 0.  0.
    9000005    1    3    3    0    0  0.23478245911E+03 -0.32936287756E+02 -0.20946862294E+04  0.21080604834E+04  0.99999687468E+00 0.  0.
          4    1    3    3  501    0  0.11110618229E+03 -0.40797256933E+02 -0.11465469651E+03  0.16478683002E+03  0.00000000000E+00 0.  1.
   -9000007    1    1    2    0  502 -0.34588864139E+03  0.73733544689E+02 -0.11183767772E+04  0.12392910085E+04  0.40000000000E+03 0. -1.
<mgrwt>
<rscale>  2 0.53382443E+03</rscale>
<asrwt>0</asrwt>
<pdfrwt beam="1">  1       21 0.14186202E-01 0.53392470E+03</pdfrwt>
<pdfrwt beam="2">  1       21 0.52614275E+00 0.53392470E+03</pdfrwt>
<totfact> 0.37388530E+01</totfact>
</mgrwt>
</event>
<event>
 6    1  0.9502611E-004  0.7619019E+03  0.7818608E-02  0.9616929E-01
         21   -1    0    0  503  502  0.00000000000E+00  0.00000000000E+00  0.41072682453E+03  0.41072682453E+03  0.00000000000E+00 0. -1.
         21   -1    0    0  501  503 -0.00000000000E+00 -0.00000000000E+00 -0.14408014305E+04  0.14408014305E+04  0.00000000000E+00 0. -1.
    9000007    2    1    2  501    0 -0.12980566180E+03 -0.63533066688E+03 -0.64356431473E+03  0.99719531559E+03  0.39966098652E+03 0.  0.
    9000005    1    3    3    0    0 -0.10677161936E+03 -0.47890668738E+03 -0.20638667042E+03  0.53230466054E+03  0.99999687468E+00 0.  0.
          4    1    3    3  501    0 -0.23034042432E+02 -0.15642397950E+03 -0.43717764430E+03  0.46489065505E+03  0.00000000000E+00 0.  1.
   -9000007    1    1    2    0  502  0.12980566180E+03  0.63533066688E+03 -0.38651029120E+03  0.85433293938E+03  0.40000000000E+03 0. -1.
<mgrwt>
<rscale>  2 0.76185745E+03</rscale>
<asrwt>0</asrwt>
<pdfrwt beam="1">  1       21 0.63188744E-01 0.76190194E+03</pdfrwt>
<pdfrwt beam="2">  1       21 0.22166175E+00 0.76190194E+03</pdfrwt>
<totfact> 0.16049982E+02</totfact>
</mgrwt>
</event>
<event>
 6    1  0.9502611E-004  0.4287714E+03  0.7818608E-02  0.1034266E+00
         21   -1    0    0  503  502  0.00000000000E+00  0.00000000000E+00  0.10756999319E+04  0.10756999319E+04  0.00000000000E+00 0. -1.
         21   -1    0    0  501  503 -0.00000000000E+00 -0.00000000000E+00 -0.51295501117E+03  0.51295501117E+03  0.00000000000E+00 0. -1.
    9000007    2    1    2  501    0 -0.14064360680E+03  0.63751663199E+02 -0.36737431150E+03  0.56446419675E+03  0.39976373768E+03 0.  0.
    9000005    1    3    3    0    0  0.11969607828E+03 -0.32290032852E+02 -0.21423324353E+03  0.24752106982E+03  0.99999687468E+00 0.  0.
          4    1    3    3  501    0 -0.26033968508E+03  0.96041696051E+02 -0.15314106797E+03  0.31694312693E+03  0.00000000000E+00 0.  1.
   -9000007    1    1    2    0  502  0.14064360680E+03 -0.63751663199E+02  0.93011923225E+03  0.10241907463E+04  0.40000000000E+03 0. -1.
<mgrwt>
<rscale>  2 0.42871627E+03</rscale>
<asrwt>0</asrwt>
<pdfrwt beam="1">  1       21 0.16549230E+00 0.42877138E+03</pdfrwt>
<pdfrwt beam="2">  1       21 0.78916156E-01 0.42877138E+03</pdfrwt>
<totfact> 0.26993213E+02</totfact>
</mgrwt>
</event>
<event>
 6    1  0.9502611E-004  0.4128905E+03  0.7818608E-02  0.1039417E+00
         21   -1    0    0  503  502  0.00000000000E+00  0.00000000000E+00  0.72622287703E+03  0.72622287703E+03  0.00000000000E+00 0.  1.
         21   -1    0    0  501  503 -0.00000000000E+00 -0.00000000000E+00 -0.15504925607E+04  0.15504925607E+04  0.00000000000E+00 0.  1.
    9000007    2    1    2  501    0  0.16566919484E+02 -0.10043642362E+03 -0.14608258813E+04  0.15180549532E+04  0.40014578260E+03 0.  0.
    9000005    1    3    3    0    0 -0.14672409338E+03 -0.46253758600E+01 -0.23070703977E+03  0.27345217474E+03  0.99999687468E+00 0.  0.
          4    1    3    3  501    0  0.16329101286E+03 -0.95811047763E+02 -0.12301188415E+04  0.12446027784E+04  0.00000000000E+00 0.  1.
   -9000007    1    1    2    0  502 -0.16566919484E+02  0.10043642362E+03  0.63655619767E+03  0.75866048454E+03  0.40000000000E+03 0.  1.
<mgrwt>
<rscale>  2 0.41285520E+03</rscale>
<asrwt>0</asrwt>
<pdfrwt beam="1">  1       21 0.11172660E+00 0.41289052E+03</pdfrwt>
<pdfrwt beam="2">  1       21 0.23853731E+00 0.41289052E+03</pdfrwt>
<totfact> 0.38628207E+01</totfact>
</mgrwt>
</event>
<event>
 6    1  0.9502611E-004  0.4658356E+03  0.7818608E-02  0.1023119E+00
         21   -1    0    0  503  502  0.00000000000E+00  0.00000000000E+00  0.76247835137E+03  0.76247835137E+03  0.00000000000E+00 0.  1.
         21   -1    0    0  501  503 -0.00000000000E+00 -0.00000000000E+00 -0.28955897537E+03  0.28955897537E+03  0.00000000000E+00 0. -1.
    9000007    2    1    2  501    0  0.60516567013E+02 -0.23047340706E+03  0.16668860138E+03  0.49476043545E+03  0.40027809385E+03 0.  0.
    9000005    1    3    3    0    0 -0.14009545094E+03 -0.21072164425E+03  0.14594177508E+03  0.29211358825E+03  0.99999687468E+00 0.  0.
          4    1    3    3  501    0  0.20061201795E+03 -0.19751762808E+02  0.20746826294E+02  0.20264684720E+03  0.00000000000E+00 0.  1.
   -9000007    1    1    2    0  502 -0.60516567013E+02  0.23047340706E+03  0.30623077462E+03  0.55727689129E+03  0.40000000000E+03 0. -1.
<mgrwt>
<rscale>  2 0.46577585E+03</rscale>
<asrwt>0</asrwt>
<pdfrwt beam="1">  1       21 0.11730436E+00 0.46583559E+03</pdfrwt>
<pdfrwt beam="2">  1       21 0.44547535E-01 0.46583559E+03</pdfrwt>
<totfact> 0.23196808E+03</totfact>
</mgrwt>
</event>
<event>
 6    1  0.9502611E-004  0.4232541E+03  0.7818608E-02  0.1036026E+00
         21   -1    0    0  503  502  0.00000000000E+00  0.00000000000E+00  0.11664816402E+03  0.11664816402E+03  0.00000000000E+00 0. -1.
         21   -1    0    0  501  503 -0.00000000000E+00 -0.00000000000E+00 -0.16717989607E+04  0.16717989607E+04  0.00000000000E+00 0. -1.
    9000007    2    1    2  501    0  0.86892059911E+02  0.10767459333E+03 -0.10330805355E+04  0.11163597749E+04  0.39982459418E+03 0.  0.
    9000005    1    3    3    0    0 -0.11557387581E+03 -0.49112117605E+02 -0.60198314468E+03  0.61494229594E+03  0.99999687468E+00 0.  0.
          4    1    3    3  501    0  0.20246593573E+03  0.15678671094E+03 -0.43109739084E+03  0.50141747900E+03  0.00000000000E+00 0.  1.
   -9000007    1    1    2    0  502 -0.86892059911E+02 -0.10767459333E+03 -0.52207026114E+03  0.67208734975E+03  0.40000000000E+03 0.  1.
<mgrwt>
<rscale>  2 0.42321267E+03</rscale>
<asrwt>0</asrwt>
<pdfrwt beam="1">  1       21 0.17945871E-01 0.42325412E+03</pdfrwt>
<pdfrwt beam="2">  1       21 0.25719984E+00 0.42325412E+03</pdfrwt>
<totfact> 0.14236004E+03</totfact>
</mgrwt>
</event>
<event>
 6    1  0.9502611E-004  0.5934564E+03  0.7818608E-02  0.9919113E-01
         21   -1    0    0  503  502  0.00000000000E+00  0.00000000000E+00  0.45720174710E+03  0.45720174710E+03  0.00000000000E+00 0. -1.
         21   -1    0    0  501  503 -0.00000000000E+00 -0.00000000000E+00 -0.78105336626E+03  0.78105336626E+03  0.00000000000E+00 0.  1.
    9000007    2    1    2  501    0  0.33876350657E+03  0.27826201740E+03 -0.89014771242E+02  0.60002411375E+03  0.39989354068E+03 0.  0.
    9000005    1    3    3    0    0  0.17469835020E+03 -0.85365480891E+02 -0.31233242398E+02  0.19693474634E+03  0.99999687468E+00 0.  0.
          4    1    3    3  501    0  0.16406515637E+03  0.36362749829E+03 -0.57781528844E+02  0.40308936742E+03  0.00000000000E+00 0.  1.
   -9000007    1    1    2    0  502 -0.33876350657E+03 -0.27826201740E+03 -0.23483684792E+03  0.63823099960E+03  0.40000000000E+03 0. -1.
<mgrwt>
<rscale>  2 0.59343843E+03</rscale>
<asrwt>0</asrwt>
<pdfrwt beam="1">  1       21 0.70338731E-01 0.59345637E+03</pdfrwt>
<pdfrwt beam="2">  1       21 0.12016206E+00 0.59345637E+03</pdfrwt>
<totfact> 0.77342280E+02</totfact>
</mgrwt>
</event>
<event>
 6    1  0.9502611E-004  0.6105796E+03  0.7818608E-02  0.9883986E-01
         21   -1    0    0  503  502  0.00000000000E+00  0.00000000000E+00  0.43292818429E+03  0.43292818429E+03  0.00000000000E+00 0.  1.
         21   -1    0    0  501  503 -0.00000000000E+00 -0.00000000000E+00 -0.86131302642E+03  0.86131302642E+03  0.00000000000E+00 0.  1.
    9000007    2    1    2  501    0  0.40685252060E+03  0.21583091172E+03 -0.19239173401E+03  0.64017339844E+03  0.40086836341E+03 0.  0.
    9000005    1    3    3    0    0  0.80271289093E+01 -0.58264326103E+02  0.68585931234E+02  0.90355943091E+02  0.99999687468E+00 0.  0.
          4    1    3    3  501    0  0.39882539169E+03  0.27409523782E+03 -0.26097766524E+03  0.54981745535E+03  0.00000000000E+00 0.  1.
   -9000007    1    1    2    0  502 -0.40685252060E+03 -0.21583091172E+03 -0.23599310811E+03  0.65406781227E+03  0.40000000000E+03 0.  1.
<mgrwt>
<rscale>  2 0.61043707E+03</rscale>
<asrwt>0</asrwt>
<pdfrwt beam="1">  1       21 0.66604336E-01 0.61057956E+03</pdfrwt>
<pdfrwt beam="2">  1       21 0.13250970E+00 0.61057956E+03</pdfrwt>
<totfact> 0.67474494E+02</totfact>
</mgrwt>
</event>
<event>
 6    1  0.9502611E-004  0.5399999E+03  0.7818608E-02  0.1003838E+00
         21   -1    0    0  503  502  0.00000000000E+00  0.00000000000E+00  0.75684086560E+03  0.75684086560E+03  0.00000000000E+00 0.  1.
         21   -1    0    0  501  503 -0.00000000000E+00 -0.00000000000E+00 -0.39135001925E+03  0.39135001925E+03  0.00000000000E+00 0.  1.
    9000007    2    1    2  501    0 -0.12896793080E+03  0.33901075938E+03  0.11113505530E+03  0.55131745556E+03  0.40004863971E+03 0.  0.
    9000005    1    3    3    0    0 -0.20473182013E+03  0.12176660046E+03  0.19354739711E+03  0.30692640500E+03  0.99999687468E+00 0.  0.
          4    1    3    3  501    0  0.75763889331E+02  0.21724415892E+03 -0.82412341808E+02  0.24439105056E+03  0.00000000000E+00 0.  1.
   -9000007    1    1    2    0  502  0.12896793080E+03 -0.33901075938E+03  0.25435579105E+03  0.59687342929E+03  0.40000000000E+03 0.  1.
<mgrwt>
<rscale>  2 0.53999093E+03</rscale>
<asrwt>0</asrwt>
<pdfrwt beam="1">  1       21 0.11643706E+00 0.53999994E+03</pdfrwt>
<pdfrwt beam="2">  1       21 0.60207695E-01 0.53999994E+03</pdfrwt>
<totfact> 0.12070836E+03</totfact>
</mgrwt>
</event>
<event>
 6    1  0.9502611E-004  0.4464442E+03  0.7818608E-02  0.1028795E+00
         21   -1    0    0  503  502  0.00000000000E+00  0.00000000000E+00  0.57762029505E+03  0.57762029505E+03  0.00000000000E+00 0. -1.
         21   -1    0    0  501  503 -0.00000000000E+00 -0.00000000000E+00 -0.55588985117E+03  0.55588985117E+03  0.00000000000E+00 0. -1.
    9000007    2    1    2  501    0 -0.54731837091E+02  0.19056970692E+03 -0.33823389285E+03  0.56002369398E+03  0.39988996533E+03 0.  0.
    9000005    1    3    3    0    0  0.97801408106E+02  0.23799374174E+03 -0.30102993725E+03  0.39601282763E+03  0.99999687468E+00 0.  0.
          4    1    3    3  501    0 -0.15253324520E+03 -0.47424034827E+02 -0.37203955601E+02  0.16401086635E+03  0.00000000000E+00 0.  1.
   -9000007    1    1    2    0  502  0.54731837091E+02 -0.19056970692E+03  0.35996433673E+03  0.57348645224E+03  0.40000000000E+03 0. -1.
<mgrwt>
<rscale>  2 0.44641951E+03</rscale>
<asrwt>0</asrwt>
<pdfrwt beam="1">  1       21 0.88864661E-01 0.44644416E+03</pdfrwt>
<pdfrwt beam="2">  1       21 0.85521515E-01 0.44644416E+03</pdfrwt>
<totfact> 0.10907972E+03</totfact>
</mgrwt>
</event>
<event>
 6    1  0.9502611E-004  0.4402710E+03  0.7818608E-02  0.1030737E+00
         21   -1    0    0  503  502  0.00000000000E+00  0.00000000000E+00  0.29438584544E+03  0.29438584544E+03  0.00000000000E+00 0.  1.
         21   -1    0    0  501  503 -0.00000000000E+00 -0.00000000000E+00 -0.92527793779E+03  0.92527793779E+03  0.00000000000E+00 0. -1.
    9000007    2    1    2  501    0  0.86183744956E+02 -0.16251430166E+03 -0.64355892192E+03  0.77921062487E+03  0.39895184647E+03 0.  0.
    9000005    1    3    3    0    0  0.16402628121E+03 -0.26038831629E+03 -0.51441280294E+03  0.59943992861E+03  0.99999687468E+00 0.  0.
          4    1    3    3  501    0 -0.77842536249E+02  0.97874014631E+02 -0.12914611898E+03  0.17977069627E+03  0.00000000000E+00 0.  1.
   -9000007    1    1    2    0  502 -0.86183744956E+02  0.16251430166E+03  0.12666829570E+02  0.44045315836E+03  0.40000000000E+03 0.  1.
<mgrwt>
<rscale>  2 0.44003277E+03</rscale>
<asrwt>0</asrwt>
<pdfrwt beam="1">  1       21 0.45290131E-01 0.44027098E+03</pdfrwt>
<pdfrwt beam="2">  1       21 0.14235045E+00 0.44027098E+03</pdfrwt>
<totfact> 0.13695963E+03</totfact>
</mgrwt>
</event>
<event>
 6    1  0.9502611E-004  0.4920127E+03  0.7818608E-02  0.1015999E+00
         21   -1    0    0  503  502  0.00000000000E+00  0.00000000000E+00  0.28384099061E+03  0.28384099061E+03  0.00000000000E+00 0. -1.
         21   -1    0    0  501  503 -0.00000000000E+00 -0.00000000000E+00 -0.95477374514E+03  0.95477374514E+03  0.00000000000E+00 0.  1.
    9000007    2    1    2  501    0  0.17464338178E+03 -0.22710389407E+03 -0.54019901510E+03  0.72952947754E+03  0.39789671170E+03 0.  0.
    9000005    1    3    3    0    0  0.25253715493E+03 -0.41507586977E+02 -0.42909646281E+03  0.49962252630E+03  0.99999687468E+00 0.  0.
          4    1    3    3  501    0 -0.77893773154E+02 -0.18559630710E+03 -0.11110255229E+03  0.22990695124E+03  0.00000000000E+00 0.  1.
   -9000007    1    1    2    0  502 -0.17464338178E+03  0.22710389407E+03 -0.13073373942E+03  0.50908525821E+03  0.40000000000E+03 0. -1.
<mgrwt>
<rscale>  2 0.49158503E+03</rscale>
<asrwt>0</asrwt>
<pdfrwt beam="1">  1       21 0.43667845E-01 0.49201269E+03</pdfrwt>
<pdfrwt beam="2">  1       21 0.14688827E+00 0.49201269E+03</pdfrwt>
<totfact> 0.13307705E+03</totfact>
</mgrwt>
</event>
<event>
 6    1  0.9502611E-004  0.5300600E+03  0.7818608E-02  0.1006227E+00
         21   -1    0    0  503  502  0.00000000000E+00  0.00000000000E+00  0.83360666890E+03  0.83360666890E+03  0.00000000000E+00 0.  1.
         21   -1    0    0  501  503 -0.00000000000E+00 -0.00000000000E+00 -0.34653408635E+03  0.34653408635E+03  0.00000000000E+00 0. -1.
    9000007    2    1    2  501    0 -0.34085658950E+03  0.67952497833E+02  0.34171149921E+03  0.63065863442E+03  0.40020345813E+03 0.  0.
    9000005    1    3    3    0    0 -0.32998532940E+03  0.14585044473E+03  0.96966006756E+02  0.37358543375E+03  0.99999687468E+00 0.  0.
          4    1    3    3  501    0 -0.10871260102E+02 -0.77897946895E+02  0.24474549245E+03  0.25707320067E+03  0.00000000000E+00 0.  1.
   -9000007    1    1    2    0  502  0.34085658950E+03 -0.67952497833E+02  0.14536108333E+03  0.54948212084E+03  0.40000000000E+03 0.  1.
<mgrwt>
<rscale>  2 0.53002156E+03</rscale>
<asrwt>0</asrwt>
<pdfrwt beam="1">  1       21 0.12824718E+00 0.53005996E+03</pdfrwt>
<pdfrwt beam="2">  1       21 0.53312937E-01 0.53005996E+03</pdfrwt>
<totfact> 0.12318065E+03</totfact>
</mgrwt>
</event>
<event>
 6    1  0.9502611E-004  0.4594962E+03  0.7818608E-02  0.1024972E+00
         21   -1    0    0  503  502  0.00000000000E+00  0.00000000000E+00  0.23500176753E+03  0.23500176753E+03  0.00000000000E+00 0.  1.
         21   -1    0    0  501  503 -0.00000000000E+00 -0.00000000000E+00 -0.90999871757E+03  0.90999871757E+03  0.00000000000E+00 0.  1.
    9000007    2    1    2  501    0 -0.66285199662E+02  0.21488623194E+03 -0.26993533356E+03  0.53291819201E+03  0.40070799180E+03 0.  0.
    9000005    1    3    3    0    0 -0.20074344402E+03  0.47782260765E+01 -0.17384995081E+03  0.26560415499E+03  0.99999687468E+00 0.  0.
          4    1    3    3  501    0  0.13445824436E+03  0.21010800586E+03 -0.96085382759E+02  0.26731403701E+03  0.00000000000E+00 0.  1.
   -9000007    1    1    2    0  502  0.66285199662E+02 -0.21488623194E+03 -0.40506161647E+03  0.61208229309E+03  0.40000000000E+03 0.  1.
<mgrwt>
<rscale>  2 0.45934176E+03</rscale>
<asrwt>0</asrwt>
<pdfrwt beam="1">  1       21 0.36154117E-01 0.45949615E+03</pdfrwt>
<pdfrwt beam="2">  1       21 0.13999981E+00 0.45949615E+03</pdfrwt>
<totfact> 0.22619642E+03</totfact>
</mgrwt>
</event>
<event>
 6    1  0.9502611E-004  0.4116899E+03  0.7818608E-02  0.1039839E+00
         21   -1    0    0  503  502  0.00000000000E+00  0.00000000000E+00  0.26203680988E+03  0.26203680988E+03  0.00000000000E+00 0. -1.
         21   -1    0    0  501  503 -0.00000000000E+00 -0.00000000000E+00 -0.84355915856E+03  0.84355915856E+03  0.00000000000E+00 0. -1.
    9000007    2    1    2  501    0  0.32747747737E+02  0.91739719087E+02 -0.55805236324E+03  0.69323759123E+03  0.39958394204E+03 0.  0.
    9000005    1    3    3    0    0 -0.29074190562E+02  0.24393034325E+03 -0.30646534809E+03  0.39277134631E+03  0.99999687468E+00 0.  0.
          4    1    3    3  501    0  0.61821938298E+02 -0.15219062416E+03 -0.25158701516E+03  0.30046624492E+03  0.00000000000E+00 0.  1.
   -9000007    1    1    2    0  502 -0.32747747737E+02 -0.91739719087E+02 -0.23469985434E+02  0.41235837721E+03  0.40000000000E+03 0. -1.
<mgrwt>
<rscale>  2 0.41158883E+03</rscale>
<asrwt>0</asrwt>
<pdfrwt beam="1">  1       21 0.40313356E-01 0.41168992E+03</pdfrwt>
<pdfrwt beam="2">  1       21 0.12977833E+00 0.41168992E+03</pdfrwt>
<totfact> 0.22503835E+03</totfact>
</mgrwt>
</event>
<event>
 6    1  0.9502611E-004  0.4135127E+03  0.7818608E-02  0.1039239E+00
         21   -1    0    0  503  502  0.00000000000E+00  0.00000000000E+00  0.14552851725E+04  0.14552851725E+04  0.00000000000E+00 0.  1.
         21   -1    0    0  501  503 -0.00000000000E+00 -0.00000000000E+00 -0.17949613150E+03  0.17949613150E+03  0.00000000000E+00 0.  1.
    9000007    2    1    2  501    0  0.38179197926E+02  0.95592928585E+02  0.15722045510E+03  0.44239238233E+03  0.40049605403E+03 0.  0.
    9000005    1    3    3    0    0 -0.28971429915E+02 -0.25254649371E+02  0.26457527042E+03  0.26735409998E+03  0.99999687468E+00 0.  0.
          4    1    3    3  501    0  0.67150627840E+02  0.12084757796E+03 -0.10735481532E+03  0.17503828235E+03  0.00000000000E+00 0.  1.
   -9000007    1    1    2    0  502 -0.38179197926E+02 -0.95592928585E+02  0.11185685859E+04  0.11923889216E+04  0.40000000000E+03 0.  1.
<mgrwt>
<rscale>  2 0.41339254E+03</rscale>
<asrwt>0</asrwt>
<pdfrwt beam="1">  1       21 0.22389002E+00 0.41351269E+03</pdfrwt>
<pdfrwt beam="2">  1       21 0.27614790E-01 0.41351269E+03</pdfrwt>
<totfact> 0.10051532E+03</totfact>
</mgrwt>
</event>
<event>
 6    1  0.9502611E-004  0.4126242E+03  0.7818608E-02  0.1039532E+00
         21   -1    0    0  503  502  0.00000000000E+00  0.00000000000E+00  0.80133721754E+03  0.80133721754E+03  0.00000000000E+00 0. -1.
         21   -1    0    0  501  503 -0.00000000000E+00 -0.00000000000E+00 -0.28032371955E+03  0.28032371955E+03  0.00000000000E+00 0. -1.
    9000007    2    1    2  501    0  0.25581751725E+02 -0.98001609853E+02 -0.61429297816E+01  0.41221890010E+03  0.39953465990E+03 0.  0.
    9000005    1    3    3    0    0  0.19770967502E+03 -0.87008665725E+02  0.65097938470E+02  0.22560666013E+03  0.99999687468E+00 0.  0.
          4    1    3    3  501    0 -0.17212792329E+03 -0.10992944128E+02 -0.71240868252E+02  0.18661223997E+03  0.00000000000E+00 0.  1.
   -9000007    1    1    2    0  502 -0.25581751725E+02  0.98001609853E+02  0.52715642776E+03  0.66944203699E+03  0.40000000000E+03 0. -1.
<mgrwt>
<rscale>  2 0.41251140E+03</rscale>
<asrwt>0</asrwt>
<pdfrwt beam="1">  1       21 0.12328265E+00 0.41262421E+03</pdfrwt>
<pdfrwt beam="2">  1       21 0.43126726E-01 0.41262421E+03</pdfrwt>
<totfact> 0.22327205E+03</totfact>
</mgrwt>
</event>
<event>
 6    1  0.9502611E-004  0.4033858E+03  0.7818608E-02  0.1042848E+00
         21   -1    0    0  503  502  0.00000000000E+00  0.00000000000E+00  0.34262129316E+03  0.34262129316E+03  0.00000000000E+00 0.  1.
         21   -1    0    0  501  503 -0.00000000000E+00 -0.00000000000E+00 -0.66575519769E+03  0.66575519769E+03  0.00000000000E+00 0.  1.
    9000007    2    1    2  501    0 -0.23194435217E+02 -0.46713554993E+02 -0.43336901583E+03  0.59019959310E+03  0.39724893678E+03 0.  0.
    9000005    1    3    3    0    0  0.81344507833E+02  0.21029522690E+02 -0.45592636189E+03  0.46360437578E+03  0.99999687468E+00 0.  0.
          4    1    3    3  501    0 -0.10453894305E+03 -0.67743077684E+02  0.22557346059E+02  0.12659521732E+03  0.00000000000E+00 0.  1.
   -9000007    1    1    2    0  502  0.23194435217E+02  0.46713554993E+02  0.11023511130E+03  0.41817689775E+03  0.40000000000E+03 0.  1.
<mgrwt>
<rscale>  2 0.40270215E+03</rscale>
<asrwt>0</asrwt>
<pdfrwt beam="1">  1       21 0.52710969E-01 0.40338584E+03</pdfrwt>
<pdfrwt beam="2">  1       21 0.10242388E+00 0.40338584E+03</pdfrwt>
<totfact> 0.23294669E+03</totfact>
</mgrwt>
</event>
<event>
 6    1  0.9502611E-004  0.4679635E+03  0.7818608E-02  0.1022508E+00
         21   -1    0    0  503  502  0.00000000000E+00  0.00000000000E+00  0.33983487647E+03  0.33983487647E+03  0.00000000000E+00 0.  1.
         21   -1    0    0  501  503 -0.00000000000E+00 -0.00000000000E+00 -0.67971779393E+03  0.67971779393E+03  0.00000000000E+00 0.  1.
    9000007    2    1    2  501    0 -0.51759304919E+02 -0.23729892882E+03 -0.53339427326E+02  0.47082962641E+03  0.39980699761E+03 0.  0.
    9000005    1    3    3    0    0 -0.20196384365E+03 -0.84104105376E+02 -0.11558756396E+03  0.24743560702E+03  0.99999687468E+00 0.  0.
          4    1    3    3  501    0  0.15020453873E+03 -0.15319482344E+03  0.62248136637E+02  0.22339401939E+03  0.00000000000E+00 0.  1.
   -9000007    1    1    2    0  502  0.51759304919E+02  0.23729892882E+03 -0.28654349013E+03  0.54872304399E+03  0.40000000000E+03 0.  1.
<mgrwt>
<rscale>  2 0.46792222E+03</rscale>
<asrwt>0</asrwt>
<pdfrwt beam="1">  1       21 0.52282289E-01 0.46796347E+03</pdfrwt>
<pdfrwt beam="2">  1       21 0.10457197E+00 0.46796347E+03</pdfrwt>
<totfact> 0.21974923E+03</totfact>
</mgrwt>
</event>
<event>
 6    1  0.9502611E-004  0.4060611E+03  0.7818608E-02  0.1041792E+00
         21   -1    0    0  503  502  0.00000000000E+00  0.00000000000E+00  0.35348397560E+03  0.35348397560E+03  0.00000000000E+00 0.  1.
         21   -1    0    0  501  503 -0.00000000000E+00 -0.00000000000E+00 -0.46670694343E+03  0.46670694343E+03  0.00000000000E+00 0.  1.
    9000007    2    1    2  501    0 -0.42887826005E+02 -0.46688402283E+02 -0.79738934922E+02  0.41381627294E+03  0.40108158457E+03 0.  0.
    9000005    1    3    3    0    0  0.24851925114E+02  0.78538013728E+02  0.13382262100E+03  0.15714748381E+03  0.99999687468E+00 0.  0.
          4    1    3    3  501    0 -0.67739751119E+02 -0.12522641601E+03 -0.21356155592E+03  0.25666878913E+03  0.00000000000E+00 0.  1.
   -9000007    1    1    2    0  502  0.42887826005E+02  0.46688402283E+02 -0.33484032911E+02  0.40637464609E+03  0.40000000000E+03 0.  1.
<mgrwt>
<rscale>  2 0.40579376E+03</rscale>
<asrwt>0</asrwt>
<pdfrwt beam="1">  1       21 0.54382151E-01 0.40606109E+03</pdfrwt>
<pdfrwt beam="2">  1       21 0.71801068E-01 0.40606109E+03</pdfrwt>
<totfact> 0.49983502E+03</totfact>
</mgrwt>
</event>
<event>
 6    1  0.9502611E-004  0.5809290E+03  0.7818608E-02  0.9945888E-01
         21   -1    0    0  503  502  0.00000000000E+00  0.00000000000E+00  0.34431279046E+03  0.34431279046E+03  0.00000000000E+00 0. -1.
         21   -1    0    0  501  503 -0.00000000000E+00 -0.00000000000E+00 -0.10160996622E+04  0.10160996622E+04  0.00000000000E+00 0.  1.
    9000007    2    1    2  501    0  0.29741740504E+03  0.29836453727E+03 -0.46437112816E+03  0.74356579372E+03  0.39971369130E+03 0.  0.
    9000005    1    3    3    0    0  0.22576289380E+03 -0.33603743923E+02 -0.11226679352E+03  0.25436770382E+03  0.99999687468E+00 0.  0.
          4    1    3    3  501    0  0.71654511237E+02  0.33196828119E+03 -0.35210433464E+03  0.48919808991E+03  0.00000000000E+00 0.  1.
   -9000007    1    1    2    0  502 -0.29741740504E+03 -0.29836453727E+03 -0.20741574355E+03  0.61684665890E+03  0.40000000000E+03 0. -1.
<mgrwt>
<rscale>  2 0.58087972E+03</rscale>
<asrwt>0</asrwt>
<pdfrwt beam="1">  1       21 0.52971199E-01 0.58092901E+03</pdfrwt>
<pdfrwt beam="2">  1       21 0.15632302E+00 0.58092901E+03</pdfrwt>
<totfact> 0.72133489E+02</totfact>
</mgrwt>
</event>
<event>
 6    1  0.9502611E-004  0.5459430E+03  0.7818608E-02  0.1002445E+00
         21   -1    0    0  503  502  0.00000000000E+00  0.00000000000E+00  0.27634470518E+03  0.27634470518E+03  0.00000000000E+00 0. -1.
         21   -1    0    0  501  503 -0.00000000000E+00 -0.00000000000E+00 -0.11219956970E+04  0.11219956970E+04  0.00000000000E+00 0.  1.
    9000007    2    1    2  501    0  0.45332932572E+02 -0.36877997821E+03 -0.28478784108E+03  0.61563916864E+03  0.39981711374E+03 0.  0.
    9000005    1    3    3    0    0  0.45723331677E+02 -0.39562123761E+03 -0.76385604525E+02  0.40551516283E+03  0.99999687468E+00 0.  0.
          4    1    3    3  501    0 -0.39039910457E+00  0.26841259407E+02 -0.20840223656E+03  0.21012400582E+03  0.00000000000E+00 0.  1.
   -9000007    1    1    2    0  502 -0.45332932572E+02  0.36877997821E+03 -0.56086315071E+03  0.78270123351E+03  0.40000000000E+03 0. -1.
<mgrwt>
<rscale>  2 0.54590949E+03</rscale>
<asrwt>0</asrwt>
<pdfrwt beam="1">  1       21 0.42514569E-01 0.54594299E+03</pdfrwt>
<pdfrwt beam="2">  1       21 0.17261473E+00 0.54594299E+03</pdfrwt>
<totfact> 0.87909523E+02</totfact>
</mgrwt>
</event>
<event>
 6    1  0.9502611E-004  0.5886491E+03  0.7818608E-02  0.9929338E-01
         21   -1    0    0  503  502  0.00000000000E+00  0.00000000000E+00  0.72393638386E+03  0.72393638386E+03  0.00000000000E+00 0.  1.
         21   -1    0    0  501  503 -0.00000000000E+00 -0.00000000000E+00 -0.51789378521E+03  0.51789378521E+03  0.00000000000E+00 0.  1.
    9000007    2    1    2  501    0  0.35763426940E+03  0.24208576027E+03 -0.68257017337E+02  0.59240883796E+03  0.39972668776E+03 0.  0.
    9000005    1    3    3    0    0  0.40162669313E+03  0.22136264538E+03  0.53114895082E+02  0.46165746336E+03  0.99999687468E+00 0.  0.
          4    1    3    3  501    0 -0.43992423725E+02  0.20723114886E+02 -0.12137191242E+03  0.13075137460E+03  0.00000000000E+00 0.  1.
   -9000007    1    1    2    0  502 -0.35763426940E+03 -0.24208576027E+03  0.27429961599E+03  0.64942133111E+03  0.40000000000E+03 0.  1.
<mgrwt>
<rscale>  2 0.58860269E+03</rscale>
<asrwt>0</asrwt>
<pdfrwt beam="1">  1       21 0.11137483E+00 0.58864912E+03</pdfrwt>
<pdfrwt beam="2">  1       21 0.79675967E-01 0.58864912E+03</pdfrwt>
<totfact> 0.70507014E+02</totfact>
</mgrwt>
</event>
<event>
 6    1  0.9502611E-004  0.4105355E+03  0.7818608E-02  0.1040370E+00
         21   -1    0    0  503  502  0.00000000000E+00  0.00000000000E+00  0.47761703473E+03  0.47761703473E+03  0.00000000000E+00 0.  1.
         21   -1    0    0  501  503 -0.00000000000E+00 -0.00000000000E+00 -0.13083441743E+04  0.13083441743E+04  0.00000000000E+00 0.  1.
    9000007    2    1    2  501    0 -0.31335844072E+02  0.86933878770E+02 -0.11789144679E+04  0.12476547442E+04  0.39782358338E+03 0.  0.
    9000005    1    3    3    0    0 -0.18929692647E+03 -0.14585599402E+02 -0.82984336969E+03  0.85128554804E+03  0.99999687468E+00 0.  0.
          4    1    3    3  501    0  0.15796108240E+03  0.10151947817E+03 -0.34907109826E+03  0.39636919613E+03  0.00000000000E+00 0.  1.
   -9000007    1    1    2    0  502  0.31335844072E+02 -0.86933878770E+02  0.34818732842E+03  0.53830646483E+03  0.40000000000E+03 0.  1.
<mgrwt>
<rscale>  2 0.41000445E+03</rscale>
<asrwt>0</asrwt>
<pdfrwt beam="1">  1       21 0.73479544E-01 0.41053555E+03</pdfrwt>
<pdfrwt beam="2">  1       21 0.20128372E+00 0.41053555E+03</pdfrwt>
<totfact> 0.18069555E+02</totfact>
</mgrwt>
</event>
<event>
 6    1  0.9502611E-004  0.6197684E+03  0.7818608E-02  0.9865312E-01
         21   -1    0    0  503  502  0.00000000000E+00  0.00000000000E+00  0.12053390219E+04  0.12053390219E+04  0.00000000000E+00 0.  1.
         21   -1    0    0  501  503 -0.00000000000E+00 -0.00000000000E+00 -0.36413723658E+03  0.36413723658E+03  0.00000000000E+00 0. -1.
    9000007    2    1    2  501    0 -0.43670163772E+03 -0.18276926265E+03  0.14298465148E+03  0.63587029784E+03  0.39971677642E+03 0.  0.
    9000005    1    3    3    0    0 -0.40870746786E+03 -0.14048935220E+01  0.18337898364E+03  0.44796497591E+03  0.99999687468E+00 0.  0.
          4    1    3    3  501    0 -0.27994169864E+02 -0.18136436913E+03 -0.40394332167E+02  0.18790532192E+03  0.00000000000E+00 0.  1.
   -9000007    1    1    2    0  502  0.43670163772E+03  0.18276926265E+03  0.69821713382E+03  0.93360596062E+03  0.40000000000E+03 0.  1.
<mgrwt>
<rscale>  2 0.61972275E+03</rscale>
<asrwt>0</asrwt>
<pdfrwt beam="1">  1       21 0.18543677E+00 0.61976844E+03</pdfrwt>
<pdfrwt beam="2">  1       21 0.56021114E-01 0.61976844E+03</pdfrwt>
<totfact> 0.38510822E+02</totfact>
</mgrwt>
</event>
<event>
 6    1  0.9502611E-004  0.4395902E+03  0.7818608E-02  0.1030889E+00
         21   -1    0    0  503  502  0.00000000000E+00  0.00000000000E+00  0.32800601276E+03  0.32800601276E+03  0.00000000000E+00 0.  1.
         21   -1    0    0  501  503 -0.00000000000E+00 -0.00000000000E+00 -0.13113622101E+04  0.13113622101E+04  0.00000000000E+00 0.  1.
    9000007    2    1    2  501    0  0.92256112027E+02  0.15666592767E+03 -0.11001553008E+04  0.11847283284E+04  0.40023008776E+03 0.  0.
    9000005    1    3    3    0    0 -0.14259425126E+03 -0.55105821530E+01 -0.50338899323E+03  0.52322553981E+03  0.99999687468E+00 0.  0.
          4    1    3    3  501    0  0.23485036329E+03  0.16217650982E+03 -0.59676630758E+03  0.66150278861E+03  0.00000000000E+00 0.  1.
   -9000007    1    1    2    0  502 -0.92256112027E+02 -0.15666592767E+03  0.11679910343E+03  0.45463989449E+03  0.40000000000E+03 0.  1.
<mgrwt>
<rscale>  2 0.43953780E+03</rscale>
<asrwt>0</asrwt>
<pdfrwt beam="1">  1       21 0.50462463E-01 0.43959018E+03</pdfrwt>
<pdfrwt beam="2">  1       21 0.20174803E+00 0.43959018E+03</pdfrwt>
<totfact> 0.40289523E+02</totfact>
</mgrwt>
</event>
<event>
 6    1  0.9502611E-004  0.4695144E+03  0.7818608E-02  0.1022061E+00
         21   -1    0    0  503  502  0.00000000000E+00  0.00000000000E+00  0.50308542457E+03  0.50308542457E+03  0.00000000000E+00 0.  1.
         21   -1    0    0  501  503 -0.00000000000E+00 -0.00000000000E+00 -0.79175567631E+03  0.79175567631E+03  0.00000000000E+00 0.  1.
    9000007    2    1    2  501    0  0.38853205513E+02  0.24266743451E+03 -0.57701098229E+03  0.74389878788E+03  0.40005834273E+03 0.  0.
    9000005    1    3    3    0    0  0.84609504597E+02 -0.95068954554E+02 -0.13192252586E+03  0.18330692080E+03  0.99999687468E+00 0.  0.
          4    1    3    3  501    0 -0.45756299084E+02  0.33773638907E+03 -0.44508845642E+03  0.56059186709E+03  0.00000000000E+00 0.  1.
   -9000007    1    1    2    0  502 -0.38853205513E+02 -0.24266743451E+03  0.28834073055E+03  0.55094231299E+03  0.40000000000E+03 0.  1.
<mgrwt>
<rscale>  2 0.46950193E+03</rscale>
<asrwt>0</asrwt>
<pdfrwt beam="1">  1       21 0.77397759E-01 0.46951436E+03</pdfrwt>
<pdfrwt beam="2">  1       21 0.12180856E+00 0.46951436E+03</pdfrwt>
<totfact> 0.62832404E+02</totfact>
</mgrwt>
</event>
<event>
 6    1  0.9502611E-004  0.5349172E+03  0.7818608E-02  0.1005068E+00
         21   -1    0    0  503  502  0.00000000000E+00  0.00000000000E+00  0.89805531843E+03  0.89805531843E+03  0.00000000000E+00 0. -1.
         21   -1    0    0  501  503 -0.00000000000E+00 -0.00000000000E+00 -0.33602715866E+03  0.33602715866E+03  0.00000000000E+00 0.  1.
    9000007    2    1    2  501    0 -0.11188180246E+03  0.33650988204E+03  0.13980275930E+03  0.55288446826E+03  0.40047469996E+03 0.  0.
    9000005    1    3    3    0    0 -0.10956187715E+03  0.42223153664E+03  0.16026341308E+03  0.46472425913E+03  0.99999687468E+00 0.  0.
          4    1    3    3  501    0 -0.23199253160E+01 -0.85721654604E+02 -0.20460653782E+02  0.88160209135E+02  0.00000000000E+00 0.  1.
   -9000007    1    1    2    0  502  0.11188180246E+03 -0.33650988204E+03  0.42222540047E+03  0.68119800883E+03  0.40000000000E+03 0. -1.
<mgrwt>
<rscale>  2 0.53482837E+03</rscale>
<asrwt>0</asrwt>
<pdfrwt beam="1">  1       21 0.13816236E+00 0.53491721E+03</pdfrwt>
<pdfrwt beam="2">  1       21 0.51696486E-01 0.53491721E+03</pdfrwt>
<totfact> 0.10806178E+03</totfact>
</mgrwt>
</event>
<event>
 6    1  0.9502611E-004  0.4461265E+03  0.7818608E-02  0.1028906E+00
         21   -1    0    0  503  502  0.00000000000E+00  0.00000000000E+00  0.89977462208E+03  0.89977462208E+03  0.00000000000E+00 0. -1.
         21   -1    0    0  501  503 -0.00000000000E+00 -0.00000000000E+00 -0.22708406782E+03  0.22708406782E+03  0.00000000000E+00 0. -1.
    9000007    2    1    2  501    0  0.18296380404E+03  0.74519202700E+02  0.42807508701E+03  0.61807033314E+03  0.39966710075E+03 0.  0.
    9000005    1    3    3    0    0 -0.72939676384E+02 -0.10807759368E+03  0.14538647941E+03  0.19529257803E+03  0.99999687468E+00 0.  0.
          4    1    3    3  501    0  0.25590348043E+03  0.18259679638E+03  0.28268860760E+03  0.42277775510E+03  0.00000000000E+00 0.  1.
   -9000007    1    1    2    0  502 -0.18296380404E+03 -0.74519202700E+02  0.24461546725E+03  0.50878835677E+03  0.40000000000E+03 0. -1.
<mgrwt>
<rscale>  2 0.44605188E+03</rscale>
<asrwt>0</asrwt>
<pdfrwt beam="1">  1       21 0.13842686E+00 0.44612651E+03</pdfrwt>
<pdfrwt beam="2">  1       21 0.34936011E-01 0.44612651E+03</pdfrwt>
<totfact> 0.25114571E+03</totfact>
</mgrwt>
</event>
<event>
 6    1  0.9502611E-004  0.4064994E+03  0.7818608E-02  0.1041610E+00
         21   -1    0    0  503  502  0.00000000000E+00  0.00000000000E+00  0.69571430973E+03  0.69571430973E+03  0.00000000000E+00 0. -1.
         21   -1    0    0  501  503 -0.00000000000E+00 -0.00000000000E+00 -0.23789436765E+03  0.23789436765E+03  0.00000000000E+00 0. -1.
    9000007    2    1    2  501    0 -0.19524538197E+02 -0.65604698658E+02  0.20236038182E+03  0.45408310871E+03  0.40069509781E+03 0.  0.
    9000005    1    3    3    0    0 -0.16578389274E+03  0.17891941414E+02 -0.27630173296E+02  0.16902321477E+03  0.99999687468E+00 0.  0.
          4    1    3    3  501    0  0.14625935454E+03 -0.83496640072E+02  0.22999055512E+03  0.28505989395E+03  0.00000000000E+00 0.  1.
   -9000007    1    1    2    0  502  0.19524538197E+02  0.65604698658E+02  0.25545956025E+03  0.47952556866E+03  0.40000000000E+03 0. -1.
<mgrwt>
<rscale>  2 0.40632798E+03</rscale>
<asrwt>0</asrwt>
<pdfrwt beam="1">  1       21 0.10703297E+00 0.40649938E+03</pdfrwt>
<pdfrwt beam="2">  1       21 0.36599134E-01 0.40649938E+03</pdfrwt>
<totfact> 0.44658487E+03</totfact>
</mgrwt>
</event>
<event>
 6    1  0.9502611E-004  0.5506208E+03  0.7818608E-02  0.1001467E+00
         21   -1    0    0  503  502  0.00000000000E+00  0.00000000000E+00  0.48014388222E+03  0.48014388222E+03  0.00000000000E+00 0.  1.
         21   -1    0    0  501  503 -0.00000000000E+00 -0.00000000000E+00 -0.66085442964E+03  0.66085442964E+03  0.00000000000E+00 0.  1.
    9000007    2    1    2  501    0  0.35982526932E+03  0.10723858097E+03  0.34464069418E+02  0.55169834289E+03  0.40275172473E+03 0.  0.
    9000005    1    3    3    0    0  0.94942980803E+02  0.23568290373E+03 -0.83084725184E+01  0.25422555226E+03  0.99999687468E+00 0.  0.
          4    1    3    3  501    0  0.26488228852E+03 -0.12844432276E+03  0.42772541936E+02  0.29747279063E+03  0.00000000000E+00 0.  1.
   -9000007    1    1    2    0  502 -0.35982526932E+03 -0.10723858097E+03 -0.21517461684E+03  0.58929996897E+03  0.40000000000E+03 0.  1.
<mgrwt>
<rscale>  2 0.55011775E+03</rscale>
<asrwt>0</asrwt>
<pdfrwt beam="1">  1       21 0.73868290E-01 0.55062082E+03</pdfrwt>
<pdfrwt beam="2">  1       21 0.10166991E+00 0.55062082E+03</pdfrwt>
<totfact> 0.10658111E+03</totfact>
</mgrwt>
</event>
<event>
 6    1  0.9502611E-004  0.6477773E+03  0.7818608E-02  0.9810988E-01
         21   -1    0    0  503  502  0.00000000000E+00  0.00000000000E+00  0.47545534414E+03  0.47545534414E+03  0.00000000000E+00 0.  1.
         21   -1    0    0  501  503 -0.00000000000E+00 -0.00000000000E+00 -0.91720165751E+03  0.91720165751E+03  0.00000000000E+00 0.  1.
    9000007    2    1    2  501    0  0.24925169447E+03  0.44439744255E+03 -0.35636118259E+03  0.73927647339E+03  0.39990113467E+03 0.  0.
    9000005    1    3    3    0    0  0.28108263803E+03  0.10246110168E+03 -0.11980930588E+03  0.32227472214E+03  0.99999687468E+00 0.  0.
          4    1    3    3  501    0 -0.31830943560E+02  0.34193634087E+03 -0.23655187671E+03  0.41700175125E+03  0.00000000000E+00 0.  1.
   -9000007    1    1    2    0  502 -0.24925169447E+03 -0.44439744255E+03 -0.85385130782E+02  0.65338052825E+03  0.40000000000E+03 0.  1.
<mgrwt>
<rscale>  2 0.64776209E+03</rscale>
<asrwt>0</asrwt>
<pdfrwt beam="1">  1       21 0.73146977E-01 0.64777735E+03</pdfrwt>
<pdfrwt beam="2">  1       21 0.14110795E+00 0.64777735E+03</pdfrwt>
<totfact> 0.45612698E+02</totfact>
</mgrwt>
</event>
<event>
 6    1  0.9502611E-004  0.6978904E+03  0.7818608E-02  0.9720982E-01
         21   -1    0    0  503  502  0.00000000000E+00  0.00000000000E+00  0.19820048492E+04  0.19820048492E+04  0.00000000000E+00 0.  1.
         21   -1    0    0  501  503 -0.00000000000E+00 -0.00000000000E+00 -0.24601630224E+03  0.24601630224E+03  0.00000000000E+00 0. -1.
    9000007    2    1    2  501    0 -0.11117624925E+03  0.56058151686E+03  0.82380190816E+03  0.10796761425E+04  0.40054861560E+03 0.  0.
    9000005    1    3    3    0    0  0.48654621802E+02  0.53074405458E+03  0.66711161820E+03  0.85387085371E+03  0.99999687468E+00 0.  0.
          4    1    3    3  501    0 -0.15983087105E+03  0.29837462274E+02  0.15669028996E+03  0.22580528883E+03  0.00000000000E+00 0.  1.
   -9000007    1    1    2    0  502  0.11117624925E+03 -0.56058151686E+03  0.91218663879E+03  0.11483450089E+04  0.40000000000E+03 0.  1.
<mgrwt>
<rscale>  2 0.69781169E+03</rscale>
<asrwt>0</asrwt>
<pdfrwt beam="1">  1       21 0.30492381E+00 0.69789038E+03</pdfrwt>
<pdfrwt beam="2">  1       21 0.37848663E-01 0.69789038E+03</pdfrwt>
<totfact> 0.14872754E+02</totfact>
</mgrwt>
</event>
<event>
 6    1  0.9502611E-004  0.6770162E+03  0.7818608E-02  0.9757385E-01
         21   -1    0    0  503  502  0.00000000000E+00  0.00000000000E+00  0.88567184677E+03  0.88567184677E+03  0.00000000000E+00 0.  1.
         21   -1    0    0  501  503 -0.00000000000E+00 -0.00000000000E+00 -0.75505920959E+03  0.75505920959E+03  0.00000000000E+00 0.  1.
    9000007    2    1    2  501    0  0.36866361898E+03  0.40303607875E+03 -0.39486325743E+03  0.78371538524E+03  0.39992732872E+03 0.  0.
    9000005    1    3    3    0    0 -0.32346579042E+02  0.21472842847E+03 -0.51415209627E+02  0.22315717095E+03  0.99999687468E+00 0.  0.
          4    1    3    3  501    0  0.40101019802E+03  0.18830765028E+03 -0.34344804781E+03  0.56055821430E+03  0.00000000000E+00 0.  1.
   -9000007    1    1    2    0  502 -0.36866361898E+03 -0.40303607875E+03  0.52547589460E+03  0.85701567112E+03  0.40000000000E+03 0.  1.
<mgrwt>
<rscale>  2 0.67700547E+03</rscale>
<asrwt>0</asrwt>
<pdfrwt beam="1">  1       21 0.13625721E+00 0.67701621E+03</pdfrwt>
<pdfrwt beam="2">  1       21 0.11616296E+00 0.67701621E+03</pdfrwt>
<totfact> 0.16289172E+02</totfact>
</mgrwt>
</event>
<event>
 6    1  0.9502611E-004  0.4239211E+03  0.7818608E-02  0.1035810E+00
         21   -1    0    0  503  502  0.00000000000E+00  0.00000000000E+00  0.86532307013E+03  0.86532307013E+03  0.00000000000E+00 0. -1.
         21   -1    0    0  501  503 -0.00000000000E+00 -0.00000000000E+00 -0.30244211947E+03  0.30244211947E+03  0.00000000000E+00 0. -1.
    9000007    2    1    2  501    0 -0.12703696002E+03 -0.58628556606E+02 -0.45488793855E+02  0.42635474801E+03  0.40016677014E+03 0.  0.
    9000005    1    3    3    0    0 -0.46660448771E+02  0.14916259215E+03 -0.11378687264E+03  0.19332648229E+03  0.99999687468E+00 0.  0.
          4    1    3    3  501    0 -0.80376511253E+02 -0.20779114875E+03  0.68298078780E+02  0.23302826573E+03  0.00000000000E+00 0.  1.
   -9000007    1    1    2    0  502  0.12703696002E+03  0.58628556606E+02  0.60836974451E+03  0.74141044159E+03  0.40000000000E+03 0. -1.
<mgrwt>
<rscale>  2 0.42388179E+03</rscale>
<asrwt>0</asrwt>
<pdfrwt beam="1">  1       21 0.13312663E+00 0.42392115E+03</pdfrwt>
<pdfrwt beam="2">  1       21 0.46529557E-01 0.42392115E+03</pdfrwt>
<totfact> 0.15551078E+03</totfact>
</mgrwt>
</event>
<event>
 6    1  0.9502611E-004  0.5587660E+03  0.7818608E-02  0.9995043E-01
         21   -1    0    0  503  502  0.00000000000E+00  0.00000000000E+00  0.51819344117E+03  0.51819344117E+03  0.00000000000E+00 0. -1.
         21   -1    0    0  501  503 -0.00000000000E+00 -0.00000000000E+00 -0.60215553092E+03  0.60215553092E+03  0.00000000000E+00 0. -1.
    9000007    2    1    2  501    0  0.34802210808E+03  0.17635209313E+03 -0.43639974495E+02  0.56012997790E+03  0.39952684053E+03 0.  0.
    9000005    1    3    3    0    0  0.42055109998E+02 -0.65336323529E+02 -0.13853366099E+03  0.15883967600E+03  0.99999687468E+00 0.  0.
          4    1    3    3  501    0  0.30596699808E+03  0.24168841666E+03  0.94893686498E+02  0.40129030190E+03  0.00000000000E+00 0.  1.
   -9000007    1    1    2    0  502 -0.34802210808E+03 -0.17635209313E+03 -0.40322115255E+02  0.56021899418E+03  0.40000000000E+03 0. -1.
<mgrwt>
<rscale>  2 0.55868133E+03</rscale>
<asrwt>0</asrwt>
<pdfrwt beam="1">  1       21 0.79722068E-01 0.55876601E+03</pdfrwt>
<pdfrwt beam="2">  1       21 0.92639312E-01 0.55876601E+03</pdfrwt>
<totfact> 0.11173153E+03</totfact>
</mgrwt>
</event>
<event>
 6    1  0.9502611E-004  0.4865608E+03  0.7818608E-02  0.1017421E+00
         21   -1    0    0  503  502  0.00000000000E+00  0.00000000000E+00  0.32869174503E+03  0.32869174503E+03  0.00000000000E+00 0.  1.
         21   -1    0    0  501  503 -0.00000000000E+00 -0.00000000000E+00 -0.73366944558E+03  0.73366944558E+03  0.00000000000E+00 0.  1.
    9000007    2    1    2  501    0  0.85298918335E+02  0.26155813327E+03 -0.27870788255E+03  0.56073121794E+03  0.40131390759E+03 0.  0.
    9000005    1    3    3    0    0  0.11049855081E+02  0.54856443026E+02  0.10478656385E+03  0.11879626507E+03  0.99999687468E+00 0.  0.
          4    1    3    3  501    0  0.74249063254E+02  0.20670169024E+03 -0.38349444640E+03  0.44193495286E+03  0.00000000000E+00 0.  1.
   -9000007    1    1    2    0  502 -0.85298918335E+02 -0.26155813327E+03 -0.12626981800E+03  0.50162997268E+03  0.40000000000E+03 0.  1.
<mgrwt>
<rscale>  2 0.48628979E+03</rscale>
<asrwt>0</asrwt>
<pdfrwt beam="1">  1       21 0.50567961E-01 0.48656080E+03</pdfrwt>
<pdfrwt beam="2">  1       21 0.11287222E+00 0.48656080E+03</pdfrwt>
<totfact> 0.19396989E+03</totfact>
</mgrwt>
</event>
<event>
 6    1  0.9502611E-004  0.4274562E+03  0.7818608E-02  0.1034685E+00
         21   -1    0    0  503  502  0.00000000000E+00  0.00000000000E+00  0.12370961518E+04  0.12370961518E+04  0.00000000000E+00 0. -1.
         21   -1    0    0  501  503 -0.00000000000E+00 -0.00000000000E+00 -0.21885773333E+03  0.21885773333E+03  0.00000000000E+00 0. -1.
    9000007    2    1    2  501    0 -0.14871505457E+03 -0.24548838623E+02  0.92435266599E+03  0.10183086550E+04  0.39975724229E+03 0.  0.
    9000005    1    3    3    0    0 -0.25677359165E+03 -0.11959799837E+03  0.60525791866E+03  0.66826230380E+03  0.99999687468E+00 0.  0.
          4    1    3    3  501    0  0.10805853708E+03  0.95049159747E+02  0.31909474733E+03  0.35004635118E+03  0.00000000000E+00 0.  1.
   -9000007    1    1    2    0  502  0.14871505457E+03  0.24548838623E+02  0.93885752460E+02  0.43764523012E+03  0.40000000000E+03 0. -1.
<mgrwt>
<rscale>  2 0.42739941E+03</rscale>
<asrwt>0</asrwt>
<pdfrwt beam="1">  1       21 0.19032248E+00 0.42745621E+03</pdfrwt>
<pdfrwt beam="2">  1       21 0.33670421E-01 0.42745621E+03</pdfrwt>
<totfact> 0.11170670E+03</totfact>
</mgrwt>
</event>
<event>
 6    1  0.9502611E-004  0.7617006E+03  0.7818608E-02  0.9617252E-01
         21   -1    0    0  503  502  0.00000000000E+00  0.00000000000E+00  0.35268272345E+03  0.35268272345E+03  0.00000000000E+00 0.  1.
         21   -1    0    0  501  503 -0.00000000000E+00 -0.00000000000E+00 -0.16500518208E+04  0.16500518208E+04  0.00000000000E+00 0.  1.
    9000007    2    1    2  501    0 -0.57305107404E+03 -0.30298563165E+03 -0.59109293117E+03  0.96397863002E+03  0.39959494418E+03 0.  0.
    9000005    1    3    3    0    0 -0.20581534906E+03  0.24852288496E+02 -0.37044887228E+03  0.42451261597E+03  0.99999687468E+00 0.  0.
          4    1    3    3  501    0 -0.36723572498E+03 -0.32783792015E+03 -0.22064405889E+03  0.53946601405E+03  0.00000000000E+00 0.  1.
   -9000007    1    1    2    0  502  0.57305107404E+03  0.30298563165E+03 -0.70627616621E+03  0.10387559143E+04  0.40000000000E+03 0.  1.
<mgrwt>
<rscale>  2 0.76164745E+03</rscale>
<asrwt>0</asrwt>
<pdfrwt beam="1">  1       21 0.54258882E-01 0.76170061E+03</pdfrwt>
<pdfrwt beam="2">  1       21 0.25385412E+00 0.76170061E+03</pdfrwt>
<totfact> 0.14004946E+02</totfact>
</mgrwt>
</event>
<event>
 6    1  0.9502611E-004  0.4235128E+03  0.7818608E-02  0.1035951E+00
         21   -1    0    0  503  502  0.00000000000E+00  0.00000000000E+00  0.19380732376E+03  0.19380732376E+03  0.00000000000E+00 0. -1.
         21   -1    0    0  501  503 -0.00000000000E+00 -0.00000000000E+00 -0.14213238881E+04  0.14213238881E+04  0.00000000000E+00 0. -1.
    9000007    2    1    2  501    0 -0.49414847982E+02 -0.12919869606E+03 -0.10911580996E+04  0.11704653135E+04  0.40028604958E+03 0.  0.
    9000005    1    3    3    0    0 -0.13789823936E+03 -0.13105708222E+03 -0.10595400890E+04  0.10764841306E+04  0.99999687468E+00 0.  0.
          4    1    3    3  501    0  0.88483391379E+02  0.18583861616E+01 -0.31618010639E+02  0.93981182935E+02  0.00000000000E+00 0.  1.
   -9000007    1    1    2    0  502  0.49414847982E+02  0.12919869606E+03 -0.13635846473E+03  0.44466589836E+03  0.40000000000E+03 0. -1.
<mgrwt>
<rscale>  2 0.42344515E+03</rscale>
<asrwt>0</asrwt>
<pdfrwt beam="1">  1       21 0.29816511E-01 0.42351275E+03</pdfrwt>
<pdfrwt beam="2">  1       21 0.21866522E+00 0.42351275E+03</pdfrwt>
<totfact> 0.92787825E+02</totfact>
</mgrwt>
</event>
<event>
 6    1  0.9502611E-004  0.4405691E+03  0.7818608E-02  0.1030573E+00
         21   -1    0    0  503  502  0.00000000000E+00  0.00000000000E+00  0.51938086248E+03  0.51938086248E+03  0.00000000000E+00 0.  1.
         21   -1    0    0  501  503 -0.00000000000E+00 -0.00000000000E+00 -0.84542248581E+03  0.84542248581E+03  0.00000000000E+00 0.  1.
    9000007    2    1    2  501    0  0.55246448343E+02 -0.17620722201E+03 -0.67275357978E+03  0.80416947856E+03  0.39998751980E+03 0.  0.
    9000005    1    3    3    0    0  0.82130140350E+02 -0.27990152290E+03 -0.30885986020E+03  0.42483601038E+03  0.99999687468E+00 0.  0.
          4    1    3    3  501    0 -0.26883692007E+02  0.10369430090E+03 -0.36389371957E+03  0.37933346818E+03  0.00000000000E+00 0.  1.
   -9000007    1    1    2    0  502 -0.55246448343E+02  0.17620722201E+03  0.34671195646E+03  0.56063386973E+03  0.40000000000E+03 0.  1.
<mgrwt>
<rscale>  2 0.44056629E+03</rscale>
<asrwt>0</asrwt>
<pdfrwt beam="1">  1       21 0.79904749E-01 0.44056913E+03</pdfrwt>
<pdfrwt beam="2">  1       21 0.13006500E+00 0.44056913E+03</pdfrwt>
<totfact> 0.49946976E+02</totfact>
</mgrwt>
</event>
<event>
 6    1  0.9502611E-004  0.4669560E+03  0.7818608E-02  0.1022783E+00
         21   -1    0    0  503  502  0.00000000000E+00  0.00000000000E+00  0.40249168029E+03  0.40249168029E+03  0.00000000000E+00 0.  1.
         21   -1    0    0  501  503 -0.00000000000E+00 -0.00000000000E+00 -0.10166948021E+04  0.10166948021E+04  0.00000000000E+00 0.  1.
    9000007    2    1    2  501    0 -0.50522312811E+01  0.24087828065E+03 -0.79209889131E+03  0.91949179971E+03  0.39999580622E+03 0.  0.
    9000005    1    3    3    0    0 -0.12722975561E+03  0.18652542717E+03 -0.74379933701E+03  0.77731435045E+03  0.99999687468E+00 0.  0.
          4    1    3    3  501    0  0.12217752433E+03  0.54352853478E+02 -0.48299554304E+02  0.14217744926E+03  0.00000000000E+00 0.  1.
   -9000007    1    1    2    0  502  0.50522312811E+01 -0.24087828065E+03  0.17789576947E+03  0.49969468271E+03  0.40000000000E+03 0.  1.
<mgrwt>
<rscale>  2 0.46695506E+03</rscale>
<asrwt>0</asrwt>
<pdfrwt beam="1">  1       21 0.61921797E-01 0.46695596E+03</pdfrwt>
<pdfrwt beam="2">  1       21 0.15641459E+00 0.46695596E+03</pdfrwt>
<totfact> 0.53550458E+02</totfact>
</mgrwt>
</event>
<event>
 6    1  0.9502611E-004  0.4083534E+03  0.7818608E-02  0.1040931E+00
         21   -1    0    0  503  502  0.00000000000E+00  0.00000000000E+00  0.29129895025E+03  0.29129895025E+03  0.00000000000E+00 0. -1.
         21   -1    0    0  501  503 -0.00000000000E+00 -0.00000000000E+00 -0.11699912819E+04  0.11699912819E+04  0.00000000000E+00 0. -1.
    9000007    2    1    2  501    0 -0.46613683799E+02 -0.67271858034E+02 -0.96156124525E+03  0.10446781881E+04  0.40006768169E+03 0.  0.
    9000005    1    3    3    0    0 -0.18885197923E+03 -0.14216540416E+03 -0.68687655620E+03  0.72641343301E+03  0.99999687468E+00 0.  0.
          4    1    3    3  501    0  0.14223829544E+03  0.74893546125E+02 -0.27468468905E+03  0.31826475510E+03  0.00000000000E+00 0.  1.
   -9000007    1    1    2    0  502  0.46613683799E+02  0.67271858034E+02  0.82868913598E+02  0.41661204404E+03  0.40000000000E+03 0. -1.
<mgrwt>
<rscale>  2 0.40833681E+03</rscale>
<asrwt>0</asrwt>
<pdfrwt beam="1">  1       21 0.44815223E-01 0.40835339E+03</pdfrwt>
<pdfrwt beam="2">  1       21 0.17999866E+00 0.40835339E+03</pdfrwt>
<totfact> 0.73971874E+02</totfact>
</mgrwt>
</event>
<event>
 6    1  0.9502611E-004  0.4455091E+03  0.7818608E-02  0.1029087E+00
         21   -1    0    0  503  502  0.00000000000E+00  0.00000000000E+00  0.12776532556E+04  0.12776532556E+04  0.00000000000E+00 0.  1.
         21   -1    0    0  501  503 -0.00000000000E+00 -0.00000000000E+00 -0.15585484021E+03  0.15585484021E+03  0.00000000000E+00 0.  1.
    9000007    2    1    2  501    0  0.67204018371E+01  0.19551712287E+03  0.51696171703E+03  0.68244249227E+03  0.40025770354E+03 0.  0.
    9000005    1    3    3    0    0  0.10074987638E+03  0.16157656383E+02  0.46125542721E+03  0.47240784982E+03  0.99999687468E+00 0.  0.
          4    1    3    3  501    0 -0.94029474543E+02  0.17935946649E+03  0.55706289816E+02  0.21003464244E+03  0.00000000000E+00 0.  1.
   -9000007    1    1    2    0  502 -0.67204018371E+01 -0.19551712287E+03  0.60483669836E+03  0.75106560354E+03  0.40000000000E+03 0.  1.
<mgrwt>
<rscale>  2 0.44545119E+03</rscale>
<asrwt>0</asrwt>
<pdfrwt beam="1">  1       21 0.19656203E+00 0.44550908E+03</pdfrwt>
<pdfrwt beam="2">  1       21 0.23977669E-01 0.44550908E+03</pdfrwt>
<totfact> 0.19645024E+03</totfact>
</mgrwt>
</event>
<event>
 6    1  0.9502611E-004  0.4811848E+03  0.7818608E-02  0.1018830E+00
         21   -1    0    0  503  502  0.00000000000E+00  0.00000000000E+00  0.32135844137E+03  0.32135844137E+03  0.00000000000E+00 0.  1.
         21   -1    0    0  501  503 -0.00000000000E+00 -0.00000000000E+00 -0.73581693833E+03  0.73581693833E+03  0.00000000000E+00 0.  1.
    9000007    2    1    2  501    0 -0.14069679380E+03  0.22685073856E+03 -0.12994302209E+03  0.49842149756E+03  0.40035228845E+03 0.  0.
    9000005    1    3    3    0    0  0.19841101016E+02 -0.49670059204E+02  0.93929215461E+02  0.10809478055E+03  0.99999687468E+00 0.  0.
          4    1    3    3  501    0 -0.16053789482E+03  0.27652079776E+03 -0.22387223755E+03  0.39032671701E+03  0.00000000000E+00 0.  1.
   -9000007    1    1    2    0  502  0.14069679380E+03 -0.22685073856E+03 -0.28451547487E+03  0.55875388214E+03  0.40000000000E+03 0.  1.
<mgrwt>
<rscale>  2 0.48111150E+03</rscale>
<asrwt>0</asrwt>
<pdfrwt beam="1">  1       21 0.49439760E-01 0.48118479E+03</pdfrwt>
<pdfrwt beam="2">  1       21 0.11320261E+00 0.48118479E+03</pdfrwt>
<totfact> 0.20242996E+03</totfact>
</mgrwt>
</event>
<event>
 6    1  0.9502611E-004  0.4003499E+03  0.7818608E-02  0.1043679E+00
         21   -1    0    0  503  502  0.00000000000E+00  0.00000000000E+00  0.11482270505E+04  0.11482270505E+04  0.00000000000E+00 0. -1.
         21   -1    0    0  501  503 -0.00000000000E+00 -0.00000000000E+00 -0.56275934811E+03  0.56275934811E+03  0.00000000000E+00 0. -1.
    9000007    2    1    2  501    0 -0.30723153966E+01 -0.90821121585E+01 -0.44916088905E+03  0.60168560707E+03  0.40023510793E+03 0.  0.
    9000005    1    3    3    0    0  0.15629229553E+02  0.30372127822E+02 -0.51856503680E+03  0.51968975010E+03  0.99999687468E+00 0.  0.
          4    1    3    3  501    0 -0.18701544950E+02 -0.39454239980E+02  0.69404147752E+02  0.81995856975E+02  0.00000000000E+00 0.  1.
   -9000007    1    1    2    0  502  0.30723153966E+01  0.90821121585E+01  0.10346285915E+04  0.11093007916E+04  0.40000000000E+03 0. -1.
<mgrwt>
<rscale>  2 0.40029116E+03</rscale>
<asrwt>0</asrwt>
<pdfrwt beam="1">  1       21 0.17665032E+00 0.40034993E+03</pdfrwt>
<pdfrwt beam="2">  1       21 0.86578361E-01 0.40034993E+03</pdfrwt>
<totfact> 0.18369708E+02</totfact>
</mgrwt>
</event>
<event>
 6    1  0.9502611E-004  0.8045618E+03  0.7818608E-02  0.9553619E-01
         21   -1    0    0  503  502  0.00000000000E+00  0.00000000000E+00  0.71585549109E+03  0.71585549109E+03  0.00000000000E+00 0.  1.
         21   -1    0    0  501  503 -0.00000000000E+00 -0.00000000000E+00 -0.10190999171E+04  0.10190999171E+04  0.00000000000E+00 0. -1.
    9000007    2    1    2  501    0 -0.27009026290E+03  0.64371650983E+03 -0.44350151821E+03  0.91825978121E+03  0.39898337558E+03 0.  0.
    9000005    1    3    3    0    0 -0.33512842979E+03  0.46432478584E+03 -0.44851613453E+03  0.72737630847E+03  0.99999687468E+00 0.  0.
          4    1    3    3  501    0  0.65038166888E+02  0.17939172399E+03  0.50146163125E+01  0.19088347274E+03  0.00000000000E+00 0.  1.
   -9000007    1    1    2    0  502  0.27009026290E+03 -0.64371650983E+03  0.14025709225E+03  0.81669562694E+03  0.40000000000E+03 0.  1.
<mgrwt>
<rscale>  2 0.80443554E+03</rscale>
<asrwt>0</asrwt>
<pdfrwt beam="1">  1       21 0.11013161E+00 0.80456180E+03</pdfrwt>
<pdfrwt beam="2">  1       21 0.15678460E+00 0.80456180E+03</pdfrwt>
<totfact> 0.12200532E+02</totfact>
</mgrwt>
</event>
<event>
 6    1  0.9502611E-004  0.4820765E+03  0.7818608E-02  0.1018634E+00
         21   -1    0    0  503  502  0.00000000000E+00  0.00000000000E+00  0.16934209034E+03  0.16934209034E+03  0.00000000000E+00 0.  1.
         21   -1    0    0  501  503 -0.00000000000E+00 -0.00000000000E+00 -0.13742965201E+04  0.13742965201E+04  0.00000000000E+00 0.  1.
    9000007    2    1    2  501    0 -0.23106695399E+03  0.13432466285E+03 -0.64863697475E+03  0.80816314314E+03  0.40120155612E+03 0.  0.
    9000005    1    3    3    0    0  0.48384486076E+02 -0.89392971927E+02 -0.26314181694E+03  0.28209356203E+03  0.99999687468E+00 0.  0.
          4    1    3    3  501    0 -0.27945144007E+03  0.22371763478E+03 -0.38549515781E+03  0.52606958111E+03  0.00000000000E+00 0.  1.
   -9000007    1    1    2    0  502  0.23106695399E+03 -0.13432466285E+03 -0.55631745505E+03  0.73547546735E+03  0.40000000000E+03 0.  1.
<mgrwt>
<rscale>  2 0.48182641E+03</rscale>
<asrwt>0</asrwt>
<pdfrwt beam="1">  1       21 0.26052630E-01 0.48207649E+03</pdfrwt>
<pdfrwt beam="2">  1       21 0.21143023E+00 0.48207649E+03</pdfrwt>
<totfact> 0.13118575E+03</totfact>
</mgrwt>
</event>
<event>
 6    1  0.9502611E-004  0.6888981E+03  0.7818608E-02  0.9736422E-01
         21   -1    0    0  503  502  0.00000000000E+00  0.00000000000E+00  0.74389678441E+03  0.74389678441E+03  0.00000000000E+00 0. -1.
         21   -1    0    0  501  503 -0.00000000000E+00 -0.00000000000E+00 -0.68746679736E+03  0.68746679736E+03  0.00000000000E+00 0.  1.
    9000007    2    1    2  501    0 -0.16009394218E+03 -0.53754117593E+03 -0.16388604944E+03  0.70809340951E+03  0.39994631295E+03 0.  0.
    9000005    1    3    3    0    0  0.32767143870E+02 -0.30607277760E+03  0.82727606682E+02  0.31874611810E+03  0.99999687468E+00 0.  0.
          4    1    3    3  501    0 -0.19286108605E+03 -0.23146839833E+03 -0.24661365612E+03  0.38934729140E+03  0.00000000000E+00 0.  1.
   -9000007    1    1    2    0  502  0.16009394218E+03  0.53754117593E+03  0.22031603649E+03  0.72327017226E+03  0.40000000000E+03 0. -1.
<mgrwt>
<rscale>  2 0.68889030E+03</rscale>
<asrwt>0</asrwt>
<pdfrwt beam="1">  1       21 0.11444566E+00 0.68889810E+03</pdfrwt>
<pdfrwt beam="2">  1       21 0.10576412E+00 0.68889810E+03</pdfrwt>
<totfact> 0.32315421E+02</totfact>
</mgrwt>
</event>
<event>
 6    1  0.9502611E-004  0.4124026E+03  0.7818608E-02  0.1039915E+00
         21   -1    0    0  503  502  0.00000000000E+00  0.00000000000E+00  0.21835047347E+04  0.21835047347E+04  0.00000000000E+00 0.  1.
         21   -1    0    0  501  503 -0.00000000000E+00 -0.00000000000E+00 -0.93165817867E+02  0.93165817867E+02  0.00000000000E+00 0.  1.
    9000007    2    1    2  501    0 -0.57778900776E+02  0.82082189158E+02  0.56823388092E+03  0.69968620657E+03  0.39572105970E+03 0.  0.
    9000005    1    3    3    0    0  0.13805817425E+03 -0.59901312370E+02  0.31711359930E+03  0.35101319285E+03  0.99999687468E+00 0.  0.
          4    1    3    3  501    0 -0.19583707502E+03  0.14198350153E+03  0.25112028162E+03  0.34867301373E+03  0.00000000000E+00 0.  1.
   -9000007    1    1    2    0  502  0.57778900776E+02 -0.82082189158E+02  0.15221050359E+04  0.15769843460E+04  0.40000000000E+03 0.  1.
<mgrwt>
<rscale>  2 0.41136141E+03</rscale>
<asrwt>0</asrwt>
<pdfrwt beam="1">  1       21 0.33592377E+00 0.41240258E+03</pdfrwt>
<pdfrwt beam="2">  1       21 0.14333204E-01 0.41240258E+03</pdfrwt>
<totfact> 0.73131565E+02</totfact>
</mgrwt>
</event>
<event>
 6    1  0.9502611E-004  0.4089060E+03  0.7818608E-02  0.1040913E+00
         21   -1    0    0  503  502  0.00000000000E+00  0.00000000000E+00  0.44763193897E+03  0.44763193897E+03  0.00000000000E+00 0. -1.
         21   -1    0    0  501  503 -0.00000000000E+00 -0.00000000000E+00 -0.10043806794E+04  0.10043806794E+04  0.00000000000E+00 0. -1.
    9000007    2    1    2  501    0  0.80756791244E+02 -0.26124292779E+02 -0.85435097932E+03  0.94627431589E+03  0.39788861135E+03 0.  0.
    9000005    1    3    3    0    0 -0.14790577746E+03 -0.45309135282E+02 -0.50616028128E+03  0.52927144934E+03  0.99999687468E+00 0.  0.
          4    1    3    3  501    0  0.22866256871E+03  0.19184842503E+02 -0.34819069804E+03  0.41700286655E+03  0.00000000000E+00 0.  1.
   -9000007    1    1    2    0  502 -0.80756791244E+02  0.26124292779E+02  0.29760223889E+03  0.50573830248E+03  0.40000000000E+03 0. -1.
<mgrwt>
<rscale>  2 0.40838875E+03</rscale>
<asrwt>0</asrwt>
<pdfrwt beam="1">  1       21 0.68866453E-01 0.40890603E+03</pdfrwt>
<pdfrwt beam="2">  1       21 0.15452010E+00 0.40890603E+03</pdfrwt>
<totfact> 0.44959909E+02</totfact>
</mgrwt>
</event>
<event>
 6    1  0.9502611E-004  0.4651006E+03  0.7818608E-02  0.1023369E+00
         21   -1    0    0  503  502  0.00000000000E+00  0.00000000000E+00  0.67263696302E+03  0.67263696302E+03  0.00000000000E+00 0. -1.
         21   -1    0    0  501  503 -0.00000000000E+00 -0.00000000000E+00 -0.37018704330E+03  0.37018704330E+03  0.00000000000E+00 0.  1.
    9000007    2    1    2  501    0 -0.23207120424E+03  0.49613535198E+02  0.34107407185E+03  0.57612241875E+03  0.39908266334E+03 0.  0.
    9000005    1    3    3    0    0 -0.17466160068E+03  0.22176850656E+03  0.19390878235E+03  0.34247563580E+03  0.99999687468E+00 0.  0.
          4    1    3    3  501    0 -0.57409603566E+02 -0.17215497136E+03  0.14716528950E+03  0.23364678294E+03  0.00000000000E+00 0.  1.
   -9000007    1    1    2    0  502  0.23207120424E+03 -0.49613535198E+02 -0.38624152135E+02  0.46670158757E+03  0.40000000000E+03 0.  1.
<mgrwt>
<rscale>  2 0.46490328E+03</rscale>
<asrwt>0</asrwt>
<pdfrwt beam="1">  1       21 0.10348261E+00 0.46510058E+03</pdfrwt>
<pdfrwt beam="2">  1       21 0.56951853E-01 0.46510058E+03</pdfrwt>
<totfact> 0.18767093E+03</totfact>
</mgrwt>
</event>
<event>
 6    1  0.9502611E-004  0.4126226E+03  0.7818608E-02  0.1039545E+00
         21   -1    0    0  503  502  0.00000000000E+00  0.00000000000E+00  0.83839944119E+03  0.83839944119E+03  0.00000000000E+00 0.  1.
         21   -1    0    0  501  503 -0.00000000000E+00 -0.00000000000E+00 -0.23522048738E+03  0.23522048738E+03  0.00000000000E+00 0.  1.
    9000007    2    1    2  501    0 -0.15173039468E+02  0.10013565013E+03  0.10202961837E+03  0.42446045203E+03  0.39937358796E+03 0.  0.
    9000005    1    3    3    0    0  0.88813161401E+02  0.74500958974E+02 -0.12680102385E+03  0.17180707252E+03  0.99999687468E+00 0.  0.
          4    1    3    3  501    0 -0.10398620087E+03  0.25634691155E+02  0.22883064221E+03  0.25265337951E+03  0.00000000000E+00 0.  1.
   -9000007    1    1    2    0  502  0.15173039468E+02 -0.10013565013E+03  0.50114933545E+03  0.64915947653E+03  0.40000000000E+03 0. -1.
<mgrwt>
<rscale>  2 0.41247066E+03</rscale>
<asrwt>0</asrwt>
<pdfrwt beam="1">  1       21 0.12898453E+00 0.41262255E+03</pdfrwt>
<pdfrwt beam="2">  1       21 0.36187768E-01 0.41262255E+03</pdfrwt>
<totfact> 0.28494881E+03</totfact>
</mgrwt>
</event>
<event>
 6    1  0.9502611E-004  0.4164441E+03  0.7818608E-02  0.1038232E+00
         21   -1    0    0  503  502  0.00000000000E+00  0.00000000000E+00  0.45150801421E+03  0.45150801421E+03  0.00000000000E+00 0.  1.
         21   -1    0    0  501  503 -0.00000000000E+00 -0.00000000000E+00 -0.70781451285E+03  0.70781451285E+03  0.00000000000E+00 0.  1.
    9000007    2    1    2  501    0  0.41834738335E+02  0.10796350112E+03 -0.52017488469E+03  0.66633896946E+03  0.40002431008E+03 0.  0.
    9000005    1    3    3    0    0  0.19840065566E+03  0.11827948817E+03 -0.18387011953E+03  0.29523224475E+03  0.99999687468E+00 0.  0.
          4    1    3    3  501    0 -0.15656591733E+03 -0.10315987051E+02 -0.33630476516E+03  0.37110672471E+03  0.00000000000E+00 0.  1.
   -9000007    1    1    2    0  502 -0.41834738335E+02 -0.10796350112E+03  0.26386838605E+03  0.49298355760E+03  0.40000000000E+03 0.  1.
<mgrwt>
<rscale>  2 0.41643829E+03</rscale>
<asrwt>0</asrwt>
<pdfrwt beam="1">  1       21 0.69462772E-01 0.41644413E+03</pdfrwt>
<pdfrwt beam="2">  1       21 0.10889454E+00 0.41644413E+03</pdfrwt>
<totfact> 0.10886377E+03</totfact>
</mgrwt>
</event>
<event>
 6    1  0.9502611E-004  0.4500693E+03  0.7818608E-02  0.1028134E+00
         21   -1    0    0  503  502  0.00000000000E+00  0.00000000000E+00  0.33099173890E+03  0.33099173890E+03  0.00000000000E+00 0. -1.
         21   -1    0    0  501  503 -0.00000000000E+00 -0.00000000000E+00 -0.10617646600E+04  0.10617646600E+04  0.00000000000E+00 0.  1.
    9000007    2    1    2  501    0  0.17250835443E+03 -0.11315152049E+03 -0.82120353452E+03  0.93369202997E+03  0.39350115982E+03 0.  0.
    9000005    1    3    3    0    0 -0.59008601985E+02 -0.14495741594E+03 -0.12809469217E+03  0.20224716982E+03  0.99999687468E+00 0.  0.
          4    1    3    3  501    0  0.23151695642E+03  0.31805895451E+02 -0.69310884235E+03  0.73144486015E+03  0.00000000000E+00 0.  1.
   -9000007    1    1    2    0  502 -0.17250835443E+03  0.11315152049E+03  0.90430613453E+02  0.45906436889E+03  0.40000000000E+03 0. -1.
<mgrwt>
<rscale>  2 0.44862088E+03</rscale>
<asrwt>0</asrwt>
<pdfrwt beam="1">  1       21 0.50921806E-01 0.45006933E+03</pdfrwt>
<pdfrwt beam="2">  1       21 0.16334841E+00 0.45006933E+03</pdfrwt>
<totfact> 0.73065055E+02</totfact>
</mgrwt>
</event>
<event>
 6    1  0.9502611E-004  0.4220715E+03  0.7818608E-02  0.1036529E+00
         21   -1    0    0  503  502  0.00000000000E+00  0.00000000000E+00  0.83201854316E+03  0.83201854316E+03  0.00000000000E+00 0.  1.
         21   -1    0    0  501  503 -0.00000000000E+00 -0.00000000000E+00 -0.25854000985E+03  0.25854000985E+03  0.00000000000E+00 0. -1.
    9000007    2    1    2  501    0 -0.81172968666E+02 -0.10749556464E+03  0.51444427427E+03  0.66437855466E+03  0.39824817050E+03 0.  0.
    9000005    1    3    3    0    0 -0.11073972211E+03  0.13584229861E+03  0.21126304621E+03  0.27449861718E+03  0.99999687468E+00 0.  0.
          4    1    3    3  501    0  0.29566753448E+02 -0.24333786325E+03  0.30318122806E+03  0.38987993748E+03  0.00000000000E+00 0.  1.
   -9000007    1    1    2    0  502  0.81172968666E+02  0.10749556464E+03  0.59034259036E+02  0.42617999836E+03  0.40000000000E+03 0. -1.
<mgrwt>
<rscale>  2 0.42165592E+03</rscale>
<asrwt>0</asrwt>
<pdfrwt beam="1">  1       21 0.12800285E+00 0.42207150E+03</pdfrwt>
<pdfrwt beam="2">  1       21 0.39775386E-01 0.42207150E+03</pdfrwt>
<totfact> 0.23871528E+03</totfact>
</mgrwt>
</event>
<event>
 6    1  0.9502611E-004  0.4740219E+03  0.7818608E-02  0.1020868E+00
         21   -1    0    0  503  502  0.00000000000E+00  0.00000000000E+00  0.10039101403E+04  0.10039101403E+04  0.00000000000E+00 0. -1.
         21   -1    0    0  501  503 -0.00000000000E+00 -0.00000000000E+00 -0.24328624188E+03  0.24328624188E+03  0.00000000000E+00 0.  1.
    9000007    2    1    2  501    0  0.58128730495E+01 -0.25428909129E+03  0.55862933164E+03  0.73193088126E+03  0.39869706963E+03 0.  0.
    9000005    1    3    3    0    0 -0.10395315051E+02 -0.29013063237E+03  0.60504326968E+03  0.67109031031E+03  0.99999687468E+00 0.  0.
          4    1    3    3  501    0  0.16208188101E+02  0.35841541087E+02 -0.46413938038E+02  0.60840570947E+02  0.00000000000E+00 0.  1.
   -9000007    1    1    2    0  502 -0.58128730495E+01  0.25428909129E+03  0.20199456681E+03  0.51526550094E+03  0.40000000000E+03 0.  1.
<mgrwt>
<rscale>  2 0.47374689E+03</rscale>
<asrwt>0</asrwt>
<pdfrwt beam="1">  1       21 0.15444771E+00 0.47402187E+03</pdfrwt>
<pdfrwt beam="2">  1       21 0.37428653E-01 0.47402187E+03</pdfrwt>
<totfact> 0.16072890E+03</totfact>
</mgrwt>
</event>
<event>
 6    1  0.9502611E-004  0.4507864E+03  0.7818608E-02  0.1027510E+00
         21   -1    0    0  503  502  0.00000000000E+00  0.00000000000E+00  0.51188100828E+03  0.51188100828E+03  0.00000000000E+00 0.  1.
         21   -1    0    0  501  503 -0.00000000000E+00 -0.00000000000E+00 -0.40147523136E+03  0.40147523136E+03  0.00000000000E+00 0.  1.
    9000007    2    1    2  501    0 -0.13510351784E+03  0.15797276529E+03  0.10485671774E+03  0.46253571308E+03  0.39966986315E+03 0.  0.
    9000005    1    3    3    0    0  0.35633283383E+02  0.17364428284E+03 -0.93447514625E+02  0.20038838746E+03  0.99999687468E+00 0.  0.
          4    1    3    3  501    0 -0.17073680122E+03 -0.15671517544E+02  0.19830423237E+03  0.26214732562E+03  0.00000000000E+00 0.  1.
   -9000007    1    1    2    0  502  0.13510351784E+03 -0.15797276529E+03  0.55490591759E+01  0.45082052656E+03  0.40000000000E+03 0.  1.
<mgrwt>
<rscale>  2 0.45071313E+03</rscale>
<asrwt>0</asrwt>
<pdfrwt beam="1">  1       21 0.78750924E-01 0.45078637E+03</pdfrwt>
<pdfrwt beam="2">  1       21 0.61765421E-01 0.45078637E+03</pdfrwt>
<totfact> 0.30205206E+03</totfact>
</mgrwt>
</event>
<event>
 6    1  0.9502611E-004  0.4346171E+03  0.7818608E-02  0.1032421E+00
         21   -1    0    0  503  502  0.00000000000E+00  0.00000000000E+00  0.16159790909E+04  0.16159790909E+04  0.00000000000E+00 0. -1.
         21   -1    0    0  501  503 -0.00000000000E+00 -0.00000000000E+00 -0.14775266033E+03  0.14775266033E+03  0.00000000000E+00 0. -1.
    9000007    2    1    2  501    0  0.63875116212E+02 -0.15718226881E+03  0.33093867044E+03  0.54627138413E+03  0.40013213496E+03 0.  0.
    9000005    1    3    3    0    0  0.12459049004E+03 -0.17514510307E+02 -0.50483122668E+02  0.13556951703E+03  0.99999687468E+00 0.  0.
          4    1    3    3  501    0 -0.60715373829E+02 -0.13966775850E+03  0.38142179311E+03  0.41070186710E+03  0.00000000000E+00 0.  1.
   -9000007    1    1    2    0  502 -0.63875116212E+02  0.15718226881E+03  0.11372877601E+04  0.12174603671E+04  0.40000000000E+03 0. -1.
<mgrwt>
<rscale>  2 0.43458668E+03</rscale>
<asrwt>0</asrwt>
<pdfrwt beam="1">  1       21 0.24861216E+00 0.43461710E+03</pdfrwt>
<pdfrwt beam="2">  1       21 0.22731180E-01 0.43461710E+03</pdfrwt>
<totfact> 0.10185221E+03</totfact>
</mgrwt>
</event>
<event>
 6    1  0.9502611E-004  0.4087917E+03  0.7818608E-02  0.1040836E+00
         21   -1    0    0  503  502  0.00000000000E+00  0.00000000000E+00  0.10486753364E+04  0.10486753364E+04  0.00000000000E+00 0. -1.
         21   -1    0    0  501  503 -0.00000000000E+00 -0.00000000000E+00 -0.29781534211E+03  0.29781534211E+03  0.00000000000E+00 0. -1.
    9000007    2    1    2  501    0 -0.72896895291E+02  0.35012044165E+02 -0.83903779239E+02  0.41731343054E+03  0.40071293285E+03 0.  0.
    9000005    1    3    3    0    0 -0.10978604750E+02 -0.10189765534E+03 -0.20179095947E+03  0.22632775624E+03  0.99999687468E+00 0.  0.
          4    1    3    3  501    0 -0.61918290541E+02  0.13690969951E+03  0.11788718023E+03  0.19098567429E+03  0.00000000000E+00 0.  1.
   -9000007    1    1    2    0  502  0.72896895291E+02 -0.35012044165E+02  0.83476377355E+03  0.92917724800E+03  0.40000000000E+03 0. -1.
<mgrwt>
<rscale>  2 0.40861688E+03</rscale>
<asrwt>0</asrwt>
<pdfrwt beam="1">  1       21 0.16133467E+00 0.40879170E+03</pdfrwt>
<pdfrwt beam="2">  1       21 0.45817746E-01 0.40879170E+03</pdfrwt>
<totfact> 0.96400585E+02</totfact>
</mgrwt>
</event>
<event>
 6    1  0.9502611E-004  0.4359079E+03  0.7818608E-02  0.1032082E+00
         21   -1    0    0  503  502  0.00000000000E+00  0.00000000000E+00  0.33776614440E+03  0.33776614440E+03  0.00000000000E+00 0. -1.
         21   -1    0    0  501  503 -0.00000000000E+00 -0.00000000000E+00 -0.75856247703E+03  0.75856247703E+03  0.00000000000E+00 0.  1.
    9000007    2    1    2  501    0  0.16914203197E+03 -0.37505261341E+02 -0.48972275089E+03  0.65500501822E+03  0.39898311938E+03 0.  0.
    9000005    1    3    3    0    0 -0.19150290581E+02 -0.16638733703E+03 -0.79063996814E+02  0.18521229748E+03  0.99999687468E+00 0.  0.
          4    1    3    3  501    0  0.18829232255E+03  0.12888207569E+03 -0.41065875407E+03  0.46979272074E+03  0.00000000000E+00 0.  1.
   -9000007    1    1    2    0  502 -0.16914203197E+03  0.37505261341E+02  0.68926418260E+02  0.44132360320E+03  0.40000000000E+03 0. -1.
<mgrwt>
<rscale>  2 0.43567445E+03</rscale>
<asrwt>0</asrwt>
<pdfrwt beam="1">  1       21 0.51964022E-01 0.43590787E+03</pdfrwt>
<pdfrwt beam="2">  1       21 0.11670192E+00 0.43590787E+03</pdfrwt>
<totfact> 0.17160516E+03</totfact>
</mgrwt>
</event>
<event>
 6    1  0.9502611E-004  0.4716445E+03  0.7818608E-02  0.1021509E+00
         21   -1    0    0  503  502  0.00000000000E+00  0.00000000000E+00  0.93433015280E+03  0.93433015280E+03  0.00000000000E+00 0.  1.
         21   -1    0    0  501  503 -0.00000000000E+00 -0.00000000000E+00 -0.26441392404E+03  0.26441392404E+03  0.00000000000E+00 0. -1.
    9000007    2    1    2  501    0  0.71756921544E+02  0.23937309947E+03  0.52520544280E+03  0.70539861157E+03  0.39912141952E+03 0.  0.
    9000005    1    3    3    0    0  0.18564580493E+03  0.20812880402E+03  0.15990958186E+03  0.32148722885E+03  0.99999687468E+00 0.  0.
          4    1    3    3  501    0 -0.11388888339E+03  0.31244295448E+02  0.36529586094E+03  0.38391138272E+03  0.00000000000E+00 0.  1.
   -9000007    1    1    2    0  502 -0.71756921544E+02 -0.23937309947E+03  0.14471078596E+03  0.49334546528E+03  0.40000000000E+03 0. -1.
<mgrwt>
<rscale>  2 0.47145817E+03</rscale>
<asrwt>0</asrwt>
<pdfrwt beam="1">  1       21 0.14374310E+00 0.47164450E+03</pdfrwt>
<pdfrwt beam="2">  1       21 0.40679066E-01 0.47164450E+03</pdfrwt>
<totfact> 0.16476024E+03</totfact>
</mgrwt>
</event>
<event>
 6    1  0.9502611E-004  0.4838092E+03  0.7818608E-02  0.1018588E+00
         21   -1    0    0  503  502  0.00000000000E+00  0.00000000000E+00  0.90359850133E+03  0.90359850133E+03  0.00000000000E+00 0. -1.
         21   -1    0    0  501  503 -0.00000000000E+00 -0.00000000000E+00 -0.27486251927E+03  0.27486251927E+03  0.00000000000E+00 0. -1.
    9000007    2    1    2  501    0  0.25683368995E+03 -0.90043493385E+02  0.15455823369E+03  0.50102769396E+03  0.39124049830E+03 0.  0.
    9000005    1    3    3    0    0  0.17032503758E+03 -0.23172361016E+03  0.17038306225E+03  0.33427210148E+03  0.99999687468E+00 0.  0.
          4    1    3    3  501    0  0.86508652373E+02  0.14168011677E+03 -0.15824828556E+02  0.16675559248E+03  0.00000000000E+00 0.  1.
   -9000007    1    1    2    0  502 -0.25683368995E+03  0.90043493385E+02  0.47417774838E+03  0.67743332665E+03  0.40000000000E+03 0. -1.
<mgrwt>
<rscale>  2 0.48199489E+03</rscale>
<asrwt>0</asrwt>
<pdfrwt beam="1">  1       21 0.13901515E+00 0.48380923E+03</pdfrwt>
<pdfrwt beam="2">  1       21 0.42286542E-01 0.48380923E+03</pdfrwt>
<totfact> 0.16549791E+03</totfact>
</mgrwt>
</event>
<event>
 6    1  0.9502611E-004  0.4613741E+03  0.7818608E-02  0.1024390E+00
         21   -1    0    0  503  502  0.00000000000E+00  0.00000000000E+00  0.46704579934E+03  0.46704579934E+03  0.00000000000E+00 0.  1.
         21   -1    0    0  501  503 -0.00000000000E+00 -0.00000000000E+00 -0.71258035257E+03  0.71258035257E+03  0.00000000000E+00 0. -1.
    9000007    2    1    2  501    0 -0.20572323593E+03  0.10268384591E+03 -0.47689991560E+03  0.66349055644E+03  0.39990019627E+03 0.  0.
    9000005    1    3    3    0    0 -0.65670126788E+02 -0.14612778868E+03 -0.93639800743E+02  0.18556753071E+03  0.99999687468E+00 0.  0.
          4    1    3    3  501    0 -0.14005310914E+03  0.24881163459E+03 -0.38326011485E+03  0.47792302573E+03  0.00000000000E+00 0.  1.
   -9000007    1    1    2    0  502  0.20572323593E+03 -0.10268384591E+03  0.23136536236E+03  0.51613559547E+03  0.40000000000E+03 0. -1.
<mgrwt>
<rscale>  2 0.46135243E+03</rscale>
<asrwt>0</asrwt>
<pdfrwt beam="1">  1       21 0.71853200E-01 0.46137406E+03</pdfrwt>
<pdfrwt beam="2">  1       21 0.10962775E+00 0.46137406E+03</pdfrwt>
<totfact> 0.97335861E+02</totfact>
</mgrwt>
</event>
<event>
 6    1  0.9502611E-004  0.5289010E+03  0.7818608E-02  0.1006553E+00
         21   -1    0    0  503  502  0.00000000000E+00  0.00000000000E+00  0.47654810155E+03  0.47654810155E+03  0.00000000000E+00 0. -1.
         21   -1    0    0  501  503 -0.00000000000E+00 -0.00000000000E+00 -0.83788204203E+03  0.83788204203E+03  0.00000000000E+00 0. -1.
    9000007    2    1    2  501    0  0.34459939007E+03 -0.68585716870E+01 -0.54110212601E+03  0.75665565494E+03  0.40117388964E+03 0.  0.
    9000005    1    3    3    0    0  0.22951636626E+03 -0.17423434979E+03 -0.44926406637E+03  0.53373642592E+03  0.99999687468E+00 0.  0.
          4    1    3    3  501    0  0.11508302381E+03  0.16737577811E+03 -0.91838059639E+02  0.22291922901E+03  0.00000000000E+00 0.  1.
   -9000007    1    1    2    0  502 -0.34459939007E+03  0.68585716870E+01  0.17976818553E+03  0.55777448864E+03  0.40000000000E+03 0. -1.
<mgrwt>
<rscale>  2 0.52867840E+03</rscale>
<asrwt>0</asrwt>
<pdfrwt beam="1">  1       21 0.73315094E-01 0.52890100E+03</pdfrwt>
<pdfrwt beam="2">  1       21 0.12890493E+00 0.52890100E+03</pdfrwt>
<totfact> 0.60025742E+02</totfact>
</mgrwt>
</event>
<event>
 6    1  0.9502611E-004  0.5175323E+03  0.7818608E-02  0.1009328E+00
         21   -1    0    0  503  502  0.00000000000E+00  0.00000000000E+00  0.24652297292E+03  0.24652297292E+03  0.00000000000E+00 0.  1.
         21   -1    0    0  501  503 -0.00000000000E+00 -0.00000000000E+00 -0.17884049131E+04  0.17884049131E+04  0.00000000000E+00 0.  1.
    9000007    2    1    2  501    0 -0.12058505704E+03 -0.30472545847E+03 -0.14089734454E+04  0.15010149446E+04  0.40055128647E+03 0.  0.
    9000005    1    3    3    0    0  0.11564415763E+03 -0.25408800666E+02 -0.15671104662E+03  0.19641418094E+03  0.99999687468E+00 0.  0.
          4    1    3    3  501    0 -0.23622921467E+03 -0.27931665780E+03 -0.12522623988E+04  0.13046007637E+04  0.00000000000E+00 0.  1.
   -9000007    1    1    2    0  502  0.12058505704E+03  0.30472545847E+03 -0.13290849479E+03  0.53391294141E+03  0.40000000000E+03 0.  1.
<mgrwt>
<rscale>  2 0.51742564E+03</rscale>
<asrwt>0</asrwt>
<pdfrwt beam="1">  1       21 0.37926613E-01 0.51753231E+03</pdfrwt>
<pdfrwt beam="2">  1       21 0.27513921E+00 0.51753231E+03</pdfrwt>
<totfact> 0.24346470E+02</totfact>
</mgrwt>
</event>
<event>
 6    1  0.9502611E-004  0.6154937E+03  0.7818608E-02  0.9877514E-01
         21   -1    0    0  503  502  0.00000000000E+00  0.00000000000E+00  0.58129270427E+03  0.58129270427E+03  0.00000000000E+00 0. -1.
         21   -1    0    0  501  503 -0.00000000000E+00 -0.00000000000E+00 -0.64476210045E+03  0.64476210045E+03  0.00000000000E+00 0. -1.
    9000007    2    1    2  501    0  0.42113773649E+03  0.18005760775E+03 -0.94444257087E+01  0.61556612126E+03  0.41116264090E+03 0.  0.
    9000005    1    3    3    0    0  0.13104879848E+03  0.27654886789E+03  0.29191447602E+02  0.30741861447E+03  0.99999687468E+00 0.  0.
          4    1    3    3  501    0  0.29008893801E+03 -0.96491260142E+02 -0.38635873311E+02  0.30814750680E+03  0.00000000000E+00 0.  1.
   -9000007    1    1    2    0  502 -0.42113773649E+03 -0.18005760775E+03 -0.54024970470E+02  0.61048868346E+03  0.40000000000E+03 0. -1.
<mgrwt>
<rscale>  2 0.61363523E+03</rscale>
<asrwt>0</asrwt>
<pdfrwt beam="1">  1       21 0.89429647E-01 0.61549367E+03</pdfrwt>
<pdfrwt beam="2">  1       21 0.99194169E-01 0.61549367E+03</pdfrwt>
<totfact> 0.71002813E+02</totfact>
</mgrwt>
</event>
<event>
 6    1  0.9502611E-004  0.5686447E+03  0.7818608E-02  0.9972692E-01
         21   -1    0    0  503  502  0.00000000000E+00  0.00000000000E+00  0.60333479597E+03  0.60333479597E+03  0.00000000000E+00 0.  1.
         21   -1    0    0  501  503 -0.00000000000E+00 -0.00000000000E+00 -0.14058397509E+04  0.14058397509E+04  0.00000000000E+00 0.  1.
    9000007    2    1    2  501    0  0.15027173034E+03 -0.37520017144E+03 -0.11914848228E+04  0.13202172919E+04  0.39997606593E+03 0.  0.
    9000005    1    3    3    0    0 -0.13548094106E+03 -0.77986455998E+02 -0.32592528832E+03  0.36147650860E+03  0.99999687468E+00 0.  0.
          4    1    3    3  501    0  0.28575267140E+03 -0.29721371544E+03 -0.86555953449E+03  0.95874078333E+03  0.00000000000E+00 0.  1.
   -9000007    1    1    2    0  502 -0.15027173034E+03  0.37520017144E+03  0.38897986785E+03  0.68895725497E+03  0.40000000000E+03 0.  1.
<mgrwt>
<rscale>  2 0.56864046E+03</rscale>
<asrwt>0</asrwt>
<pdfrwt beam="1">  1       21 0.92820739E-01 0.56864467E+03</pdfrwt>
<pdfrwt beam="2">  1       21 0.21628304E+00 0.56864467E+03</pdfrwt>
<totfact> 0.76918491E+01</totfact>
</mgrwt>
</event>
<event>
 6    1  0.9502611E-004  0.4576578E+03  0.7818608E-02  0.1025607E+00
         21   -1    0    0  503  502  0.00000000000E+00  0.00000000000E+00  0.68925205311E+03  0.68925205311E+03  0.00000000000E+00 0.  1.
         21   -1    0    0  501  503 -0.00000000000E+00 -0.00000000000E+00 -0.53176267558E+03  0.53176267558E+03  0.00000000000E+00 0.  1.
    9000007    2    1    2  501    0 -0.84836302300E+02 -0.20555644641E+03 -0.32215516519E+03  0.55805957319E+03  0.39773846422E+03 0.  0.
    9000005    1    3    3    0    0  0.86099917103E+02 -0.16088823934E+03  0.90210374271E+01  0.18270358615E+03  0.99999687468E+00 0.  0.
          4    1    3    3  501    0 -0.17093621940E+03 -0.44668207071E+02 -0.33117620262E+03  0.37535598704E+03  0.00000000000E+00 0.  1.
   -9000007    1    1    2    0  502  0.84836302300E+02  0.20555644641E+03  0.47964454272E+03  0.66295515550E+03  0.40000000000E+03 0.  1.
<mgrwt>
<rscale>  2 0.45716316E+03</rscale>
<asrwt>0</asrwt>
<pdfrwt beam="1">  1       21 0.10603878E+00 0.45765779E+03</pdfrwt>
<pdfrwt beam="2">  1       21 0.81809642E-01 0.45765779E+03</pdfrwt>
<totfact> 0.78617337E+02</totfact>
</mgrwt>
</event>
<event>
 6    1  0.9502611E-004  0.5510262E+03  0.7818608E-02  0.1001262E+00
         21   -1    0    0  503  502  0.00000000000E+00  0.00000000000E+00  0.64749641739E+03  0.64749641739E+03  0.00000000000E+00 0. -1.
         21   -1    0    0  501  503 -0.00000000000E+00 -0.00000000000E+00 -0.56276395586E+03  0.56276395586E+03  0.00000000000E+00 0.  1.
    9000007    2    1    2  501    0 -0.20327647740E+03  0.31985702527E+03 -0.20483218369E+03  0.58778344465E+03  0.39987912105E+03 0.  0.
    9000005    1    3    3    0    0  0.59544908497E+02  0.21874555376E+03  0.19790744941E+02  0.22756952124E+03  0.99999687468E+00 0.  0.
          4    1    3    3  501    0 -0.26282138590E+03  0.10111147151E+03 -0.22462292863E+03  0.36021392341E+03  0.00000000000E+00 0.  1.
   -9000007    1    1    2    0  502  0.20327647740E+03 -0.31985702527E+03  0.28956464521E+03  0.62247692860E+03  0.40000000000E+03 0. -1.
<mgrwt>
<rscale>  2 0.55100424E+03</rscale>
<asrwt>0</asrwt>
<pdfrwt beam="1">  1       21 0.99614834E-01 0.55102617E+03</pdfrwt>
<pdfrwt beam="2">  1       21 0.86579070E-01 0.55102617E+03</pdfrwt>
<totfact> 0.77491590E+02</totfact>
</mgrwt>
</event>
<event>
 6    1  0.9502611E-004  0.4337148E+03  0.7818608E-02  0.1032998E+00
         21   -1    0    0  503  502  0.00000000000E+00  0.00000000000E+00  0.11289412169E+04  0.11289412169E+04  0.00000000000E+00 0. -1.
         21   -1    0    0  501  503 -0.00000000000E+00 -0.00000000000E+00 -0.20872056933E+03  0.20872056933E+03  0.00000000000E+00 0. -1.
    9000007    2    1    2  501    0  0.56279602771E+02 -0.14692646097E+03  0.76738092317E+03  0.88146581960E+03  0.40417042353E+03 0.  0.
    9000005    1    3    3    0    0  0.96176134990E+02  0.25167577753E+02  0.67467380649E+03  0.68195967701E+03  0.99999687468E+00 0.  0.
          4    1    3    3  501    0 -0.39896532219E+02 -0.17209403873E+03  0.92707116684E+02  0.19950614259E+03  0.00000000000E+00 0.  1.
   -9000007    1    1    2    0  502 -0.56279602771E+02  0.14692646097E+03  0.15283972440E+03  0.45619596664E+03  0.40000000000E+03 0. -1.
<mgrwt>
<rscale>  2 0.43274058E+03</rscale>
<asrwt>0</asrwt>
<pdfrwt beam="1">  1       21 0.17368326E+00 0.43371478E+03</pdfrwt>
<pdfrwt beam="2">  1       21 0.32110857E-01 0.43371478E+03</pdfrwt>
<totfact> 0.16017779E+03</totfact>
</mgrwt>
</event>
<event>
 6    1  0.9502611E-004  0.4960632E+03  0.7818608E-02  0.1014819E+00
         21   -1    0    0  503  502  0.00000000000E+00  0.00000000000E+00  0.14413688339E+04  0.14413688339E+04  0.00000000000E+00 0. -1.
         21   -1    0    0  501  503 -0.00000000000E+00 -0.00000000000E+00 -0.21278889717E+03  0.21278889717E+03  0.00000000000E+00 0. -1.
    9000007    2    1    2  501    0  0.29245712144E+03 -0.23400198614E+02  0.24634723177E+03  0.55376697145E+03  0.39986518091E+03 0.  0.
    9000005    1    3    3    0    0  0.13983570848E+03 -0.20839937772E+03  0.86097596031E+02  0.26532644428E+03  0.99999687468E+00 0.  0.
          4    1    3    3  501    0  0.15262141295E+03  0.18499917910E+03  0.16024963573E+03  0.28844052717E+03  0.00000000000E+00 0.  1.
   -9000007    1    1    2    0  502 -0.29245712144E+03  0.23400198614E+02  0.98223270501E+03  0.11003907597E+04  0.40000000000E+03 0. -1.
<mgrwt>
<rscale>  2 0.49603606E+03</rscale>
<asrwt>0</asrwt>
<pdfrwt beam="1">  1       21 0.22174905E+00 0.49606324E+03</pdfrwt>
<pdfrwt beam="2">  1       21 0.32736754E-01 0.49606324E+03</pdfrwt>
<totfact> 0.71077409E+02</totfact>
</mgrwt>
</event>
<event>
 6    1  0.9502611E-004  0.4301802E+03  0.7818608E-02  0.1033838E+00
         21   -1    0    0  503  502  0.00000000000E+00  0.00000000000E+00  0.80657258970E+03  0.80657258970E+03  0.00000000000E+00 0.  1.
         21   -1    0    0  501  503 -0.00000000000E+00 -0.00000000000E+00 -0.22958219831E+03  0.22958219831E+03  0.00000000000E+00 0.  1.
    9000007    2    1    2  501    0 -0.12166498986E+03  0.99367668520E+02  0.30980989328E+03  0.53012937177E+03  0.40047306718E+03 0.  0.
    9000005    1    3    3    0    0  0.13871880109E+03 -0.22505824717E+02  0.12712558598E+03  0.18950285625E+03  0.99999687468E+00 0.  0.
          4    1    3    3  501    0 -0.26038379095E+03  0.12187349324E+03  0.18268430730E+03  0.34062651553E+03  0.00000000000E+00 0.  1.
   -9000007    1    1    2    0  502  0.12166498986E+03 -0.99367668520E+02  0.26718049811E+03  0.50602541624E+03  0.40000000000E+03 0.  1.
<mgrwt>
<rscale>  2 0.43007004E+03</rscale>
<asrwt>0</asrwt>
<pdfrwt beam="1">  1       21 0.12408809E+00 0.43018017E+03</pdfrwt>
<pdfrwt beam="2">  1       21 0.35320339E-01 0.43018017E+03</pdfrwt>
<totfact> 0.32840493E+03</totfact>
</mgrwt>
</event>
<event>
 6    1  0.9502611E-004  0.4005485E+03  0.7818608E-02  0.1043657E+00
         21   -1    0    0  503  502  0.00000000000E+00  0.00000000000E+00  0.66184254910E+03  0.66184254910E+03  0.00000000000E+00 0. -1.
         21   -1    0    0  501  503 -0.00000000000E+00 -0.00000000000E+00 -0.32505377108E+03  0.32505377108E+03  0.00000000000E+00 0. -1.
    9000007    2    1    2  501    0  0.20661887253E+02  0.34857216748E+01 -0.81232895499E+02  0.40794797760E+03  0.39922888832E+03 0.  0.
    9000005    1    3    3    0    0  0.17840056205E+03 -0.37544983636E+02 -0.14498706255E+03  0.23293482917E+03  0.99999687468E+00 0.  0.
          4    1    3    3  501    0 -0.15773867480E+03  0.41030705310E+02  0.63754167053E+02  0.17501314843E+03  0.00000000000E+00 0.  1.
   -9000007    1    1    2    0  502 -0.20661887253E+02 -0.34857216748E+01  0.41802167352E+03  0.57894834258E+03  0.40000000000E+03 0. -1.
<mgrwt>
<rscale>  2 0.40035580E+03</rscale>
<asrwt>0</asrwt>
<pdfrwt beam="1">  1       21 0.10182193E+00 0.40054845E+03</pdfrwt>
<pdfrwt beam="2">  1       21 0.50008273E-01 0.40054845E+03</pdfrwt>
<totfact> 0.26468067E+03</totfact>
</mgrwt>
</event>
<event>
 6    1  0.9502611E-004  0.4576891E+03  0.7818608E-02  0.1025466E+00
         21   -1    0    0  503  502  0.00000000000E+00  0.00000000000E+00  0.21851025313E+03  0.21851025313E+03  0.00000000000E+00 0.  1.
         21   -1    0    0  501  503 -0.00000000000E+00 -0.00000000000E+00 -0.95859295467E+03  0.95859295467E+03  0.00000000000E+00 0.  1.
    9000007    2    1    2  501    0 -0.15913851441E+03  0.15491614215E+03 -0.36009137649E+03  0.58236167992E+03  0.40019401414E+03 0.  0.
    9000005    1    3    3    0    0 -0.14973546414E+03 -0.87000656344E+02 -0.34427875652E+02  0.17656755659E+03  0.99999687468E+00 0.  0.
          4    1    3    3  501    0 -0.94030502696E+01  0.24191679850E+03 -0.32566350084E+03  0.40579412333E+03  0.00000000000E+00 0.  1.
   -9000007    1    1    2    0  502  0.15913851441E+03 -0.15491614215E+03 -0.37999132505E+03  0.59474152788E+03  0.40000000000E+03 0. -1.
<mgrwt>
<rscale>  2 0.45764670E+03</rscale>
<asrwt>0</asrwt>
<pdfrwt beam="1">  1       21 0.33616963E-01 0.45768912E+03</pdfrwt>
<pdfrwt beam="2">  1       21 0.14747584E+00 0.45768912E+03</pdfrwt>
<totfact> 0.22808504E+03</totfact>
</mgrwt>
</event>
<event>
 6    1  0.9502611E-004  0.5430076E+03  0.7818608E-02  0.1003148E+00
         21   -1    0    0  503  502  0.00000000000E+00  0.00000000000E+00  0.47761739935E+03  0.47761739935E+03  0.00000000000E+00 0. -1.
         21   -1    0    0  501  503 -0.00000000000E+00 -0.00000000000E+00 -0.11580286441E+04  0.11580286441E+04  0.00000000000E+00 0.  1.
    9000007    2    1    2  501    0  0.22470579004E+03 -0.28974281086E+03 -0.89930940467E+03  0.10505306763E+04  0.40051680105E+03 0.  0.
    9000005    1    3    3    0    0  0.21971830433E+02 -0.32930304006E+03 -0.47231634360E+03  0.57620047027E+03  0.99999687468E+00 0.  0.
          4    1    3    3  501    0  0.20273395960E+03  0.39560229195E+02 -0.42699306108E+03  0.47433020600E+03  0.00000000000E+00 0.  1.
   -9000007    1    1    2    0  502 -0.22470579004E+03  0.28974281086E+03  0.21889815990E+03  0.58511536720E+03  0.40000000000E+03 0. -1.
<mgrwt>
<rscale>  2 0.54291235E+03</rscale>
<asrwt>0</asrwt>
<pdfrwt beam="1">  1       21 0.73479600E-01 0.54300764E+03</pdfrwt>
<pdfrwt beam="2">  1       21 0.17815825E+00 0.54300764E+03</pdfrwt>
<totfact> 0.24382648E+02</totfact>
</mgrwt>
</event>
<event>
 6    1  0.9502611E-004  0.5185703E+03  0.7818608E-02  0.1009065E+00
         21   -1    0    0  503  502  0.00000000000E+00  0.00000000000E+00  0.48872294177E+03  0.48872294177E+03  0.00000000000E+00 0. -1.
         21   -1    0    0  501  503 -0.00000000000E+00 -0.00000000000E+00 -0.55231201842E+03  0.55231201842E+03  0.00000000000E+00 0. -1.
    9000007    2    1    2  501    0 -0.59918359439E+02 -0.32453806388E+03  0.29355955676E+01  0.51821501345E+03  0.39952849427E+03 0.  0.
    9000005    1    3    3    0    0  0.40781265845E+02 -0.31670388967E+03 -0.13547441721E+03  0.34686998009E+03  0.99999687468E+00 0.  0.
          4    1    3    3  501    0 -0.10069962528E+03 -0.78341742113E+01  0.13841001278E+03  0.17134503335E+03  0.00000000000E+00 0.  1.
   -9000007    1    1    2    0  502  0.59918359439E+02  0.32453806388E+03 -0.66524672217E+02  0.52281994675E+03  0.40000000000E+03 0. -1.
<mgrwt>
<rscale>  2 0.51847938E+03</rscale>
<asrwt>0</asrwt>
<pdfrwt beam="1">  1       21 0.75188145E-01 0.51857031E+03</pdfrwt>
<pdfrwt beam="2">  1       21 0.84971080E-01 0.51857031E+03</pdfrwt>
<totfact> 0.15903177E+03</totfact>
</mgrwt>
</event>
<event>
 6    1  0.9502611E-004  0.4129430E+03  0.7818608E-02  0.1039500E+00
         21   -1    0    0  503  502  0.00000000000E+00  0.00000000000E+00  0.11620370955E+04  0.11620370955E+04  0.00000000000E+00 0.  1.
         21   -1    0    0  501  503 -0.00000000000E+00 -0.00000000000E+00 -0.21011587971E+03  0.21011587971E+03  0.00000000000E+00 0.  1.
    9000007    2    1    2  501    0  0.96336955264E+02 -0.11451428562E+02  0.98300399542E+02  0.42448191302E+03  0.40138507915E+03 0.  0.
    9000005    1    3    3    0    0  0.33574588508E+02 -0.16659913344E+03  0.17183030747E+03  0.24167990983E+03  0.99999687468E+00 0.  0.
          4    1    3    3  501    0  0.62762366756E+02  0.15514770488E+03 -0.73529907929E+02  0.18280200319E+03  0.00000000000E+00 0.  1.
   -9000007    1    1    2    0  502 -0.96336955264E+02  0.11451428562E+02  0.85362081620E+03  0.94767106214E+03  0.40000000000E+03 0.  1.
<mgrwt>
<rscale>  2 0.41260605E+03</rscale>
<asrwt>0</asrwt>
<pdfrwt beam="1">  1       21 0.17877493E+00 0.41294301E+03</pdfrwt>
<pdfrwt beam="2">  1       21 0.32325521E-01 0.41294301E+03</pdfrwt>
<totfact> 0.14675061E+03</totfact>
</mgrwt>
</event>
<event>
 6    1  0.9502611E-004  0.4342055E+03  0.7818608E-02  0.1032607E+00
         21   -1    0    0  503  502  0.00000000000E+00  0.00000000000E+00  0.15876846122E+04  0.15876846122E+04  0.00000000000E+00 0.  1.
         21   -1    0    0  501  503 -0.00000000000E+00 -0.00000000000E+00 -0.12826985350E+03  0.12826985350E+03  0.00000000000E+00 0.  1.
    9000007    2    1    2  501    0 -0.16255468364E+03  0.36862541032E+02  0.49373022909E+03  0.65749828670E+03  0.40093838154E+03 0.  0.
    9000005    1    3    3    0    0 -0.64118004342E+01  0.17679613194E+03  0.81026360345E+02  0.19458739558E+03  0.99999687468E+00 0.  0.
          4    1    3    3  501    0 -0.15614288321E+03 -0.13993359091E+03  0.41270386875E+03  0.46291089112E+03  0.00000000000E+00 0.  1.
   -9000007    1    1    2    0  502  0.16255468364E+03 -0.36862541032E+02  0.96568452958E+03  0.10584561790E+04  0.40000000000E+03 0. -1.
<mgrwt>
<rscale>  2 0.43398880E+03</rscale>
<asrwt>0</asrwt>
<pdfrwt beam="1">  1       21 0.24425916E+00 0.43420555E+03</pdfrwt>
<pdfrwt beam="2">  1       21 0.19733825E-01 0.43420555E+03</pdfrwt>
<totfact> 0.14200306E+03</totfact>
</mgrwt>
</event>
<event>
 6    1  0.9502611E-004  0.4061368E+03  0.7818608E-02  0.1041769E+00
         21   -1    0    0  503  502  0.00000000000E+00  0.00000000000E+00  0.73266828728E+03  0.73266828728E+03  0.00000000000E+00 0.  1.
         21   -1    0    0  501  503 -0.00000000000E+00 -0.00000000000E+00 -0.31114235471E+03  0.31114235471E+03  0.00000000000E+00 0.  1.
    9000007    2    1    2  501    0 -0.28516184300E+02 -0.56886308176E+02 -0.64407809511E+02  0.41121217020E+03  0.40112075260E+03 0.  0.
    9000005    1    3    3    0    0 -0.79810064782E+02 -0.12968013500E+03 -0.19853965423E+03  0.25021106720E+03  0.99999687468E+00 0.  0.
          4    1    3    3  501    0  0.51293880481E+02  0.72793826822E+02  0.13413184472E+03  0.16100110300E+03  0.00000000000E+00 0.  1.
   -9000007    1    1    2    0  502  0.28516184300E+02  0.56886308176E+02  0.48593374208E+03  0.63259847179E+03  0.40000000000E+03 0.  1.
<mgrwt>
<rscale>  2 0.40585978E+03</rscale>
<asrwt>0</asrwt>
<pdfrwt beam="1">  1       21 0.11271820E+00 0.40613678E+03</pdfrwt>
<pdfrwt beam="2">  1       21 0.47868055E-01 0.40613678E+03</pdfrwt>
<totfact> 0.22550809E+03</totfact>
</mgrwt>
</event>
<event>
 6    1  0.9502611E-004  0.6715208E+03  0.7818608E-02  0.9767309E-01
         21   -1    0    0  503  502  0.00000000000E+00  0.00000000000E+00  0.48607089110E+03  0.48607089110E+03  0.00000000000E+00 0. -1.
         21   -1    0    0  501  503 -0.00000000000E+00 -0.00000000000E+00 -0.93196923229E+03  0.93196923229E+03  0.00000000000E+00 0.  1.
    9000007    2    1    2  501    0 -0.46510669375E+03 -0.27264157897E+03 -0.17352645380E+03  0.69357886687E+03  0.40035302827E+03 0.  0.
    9000005    1    3    3    0    0 -0.30555099338E+03 -0.11571683963E+02 -0.22977816262E+03  0.38248440156E+03  0.99999687468E+00 0.  0.
          4    1    3    3  501    0 -0.15955570037E+03 -0.26106989501E+03  0.56251708822E+02  0.31109446531E+03  0.00000000000E+00 0.  1.
   -9000007    1    1    2    0  502  0.46510669375E+03  0.27264157897E+03 -0.27237188739E+03  0.72446125652E+03  0.40000000000E+03 0.  1.
<mgrwt>
<rscale>  2 0.67146821E+03</rscale>
<asrwt>0</asrwt>
<pdfrwt beam="1">  1       21 0.74780138E-01 0.67152082E+03</pdfrwt>
<pdfrwt beam="2">  1       21 0.14337988E+00 0.67152082E+03</pdfrwt>
<totfact> 0.41221383E+02</totfact>
</mgrwt>
</event>
<event>
 6    1  0.9502611E-004  0.4508365E+03  0.7818608E-02  0.1027474E+00
         21   -1    0    0  503  502  0.00000000000E+00  0.00000000000E+00  0.56871718534E+03  0.56871718534E+03  0.00000000000E+00 0. -1.
         21   -1    0    0  501  503 -0.00000000000E+00 -0.00000000000E+00 -0.38129352916E+03  0.38129352916E+03  0.00000000000E+00 0. -1.
    9000007    2    1    2  501    0 -0.20309917054E+03  0.44585006908E+02 -0.25255905926E+02  0.45154337149E+03  0.40002057402E+03 0.  0.
    9000005    1    3    3    0    0 -0.28719110834E+03 -0.62099351935E+02  0.47182747798E+02  0.29759414292E+03  0.99999687468E+00 0.  0.
          4    1    3    3  501    0  0.84091937793E+02  0.10668435884E+03 -0.72438653724E+02  0.15394922857E+03  0.00000000000E+00 0.  1.
   -9000007    1    1    2    0  502  0.20309917054E+03 -0.44585006908E+02  0.21267956210E+03  0.49846734301E+03  0.40000000000E+03 0. -1.
<mgrwt>
<rscale>  2 0.45083194E+03</rscale>
<asrwt>0</asrwt>
<pdfrwt beam="1">  1       21 0.87494952E-01 0.45083651E+03</pdfrwt>
<pdfrwt beam="2">  1       21 0.58660543E-01 0.45083651E+03</pdfrwt>
<totfact> 0.26468649E+03</totfact>
</mgrwt>
</event>
<event>
 6    1  0.9502611E-004  0.4497789E+03  0.7818608E-02  0.1027850E+00
         21   -1    0    0  503  502  0.00000000000E+00  0.00000000000E+00  0.15111377243E+04  0.15111377243E+04  0.00000000000E+00 0.  1.
         21   -1    0    0  501  503 -0.00000000000E+00 -0.00000000000E+00 -0.15037611292E+03  0.15037611292E+03  0.00000000000E+00 0.  1.
    9000007    2    1    2  501    0 -0.19266341514E+03 -0.71984942891E+02  0.40255303772E+03  0.60299378820E+03  0.39906332441E+03 0.  0.
    9000005    1    3    3    0    0 -0.14165300053E+03 -0.23624811752E+03  0.22369018061E+03  0.35484791459E+03  0.99999687468E+00 0.  0.
          4    1    3    3  501    0 -0.51010414608E+02  0.16426317463E+03  0.17886285711E+03  0.24814587361E+03  0.00000000000E+00 0.  1.
   -9000007    1    1    2    0  502  0.19266341514E+03  0.71984942891E+02  0.95820857366E+03  0.10585200490E+04  0.40000000000E+03 0.  1.
<mgrwt>
<rscale>  2 0.44957051E+03</rscale>
<asrwt>0</asrwt>
<pdfrwt beam="1">  1       21 0.23248272E+00 0.44977886E+03</pdfrwt>
<pdfrwt beam="2">  1       21 0.23134788E-01 0.44977886E+03</pdfrwt>
<totfact> 0.12302706E+03</totfact>
</mgrwt>
</event>
<event>
 6    1  0.9502611E-004  0.4096199E+03  0.7818608E-02  0.1040542E+00
         21   -1    0    0  503  502  0.00000000000E+00  0.00000000000E+00  0.28850139564E+03  0.28850139564E+03  0.00000000000E+00 0.  1.
         21   -1    0    0  501  503 -0.00000000000E+00 -0.00000000000E+00 -0.58430994222E+03  0.58430994222E+03  0.00000000000E+00 0.  1.
    9000007    2    1    2  501    0 -0.33828857712E+02  0.78854171509E+02 -0.18159069076E+03  0.44806660208E+03  0.40053230700E+03 0.  0.
    9000005    1    3    3    0    0 -0.28669955515E+02 -0.14280981669E+03  0.21679514998E+02  0.14726714316E+03  0.99999687468E+00 0.  0.
          4    1    3    3  501    0 -0.51589021970E+01  0.22166398820E+03 -0.20327020576E+03  0.30079945892E+03  0.00000000000E+00 0.  1.
   -9000007    1    1    2    0  502  0.33828857712E+02 -0.78854171509E+02 -0.11421785582E+03  0.42474473577E+03  0.40000000000E+03 0.  1.
<mgrwt>
<rscale>  2 0.40948976E+03</rscale>
<asrwt>0</asrwt>
<pdfrwt beam="1">  1       21 0.44384830E-01 0.40961995E+03</pdfrwt>
<pdfrwt beam="2">  1       21 0.89893837E-01 0.40961995E+03</pdfrwt>
<totfact> 0.45689348E+03</totfact>
</mgrwt>
</event>
<event>
 6    1  0.9502611E-004  0.4527536E+03  0.7818608E-02  0.1026910E+00
         21   -1    0    0  503  502  0.00000000000E+00  0.00000000000E+00  0.24065735353E+03  0.24065735353E+03  0.00000000000E+00 0. -1.
         21   -1    0    0  501  503 -0.00000000000E+00 -0.00000000000E+00 -0.10105052243E+04  0.10105052243E+04  0.00000000000E+00 0. -1.
    9000007    2    1    2  501    0 -0.47644578482E+02  0.20649444827E+03 -0.63301600134E+03  0.77826414953E+03  0.40009482059E+03 0.  0.
    9000005    1    3    3    0    0 -0.18045533513E+03  0.67645774516E+02 -0.11189189223E+03  0.22284719950E+03  0.99999687468E+00 0.  0.
          4    1    3    3  501    0  0.13281075664E+03  0.13884867376E+03 -0.52112410911E+03  0.55541695003E+03  0.00000000000E+00 0.  1.
   -9000007    1    1    2    0  502  0.47644578482E+02 -0.20649444827E+03 -0.13683186946E+03  0.47289842834E+03  0.40000000000E+03 0. -1.
<mgrwt>
<rscale>  2 0.45273266E+03</rscale>
<asrwt>0</asrwt>
<pdfrwt beam="1">  1       21 0.37024208E-01 0.45275361E+03</pdfrwt>
<pdfrwt beam="2">  1       21 0.15546234E+00 0.45275361E+03</pdfrwt>
<totfact> 0.16277344E+03</totfact>
</mgrwt>
</event>
<event>
 6    1  0.9502611E-004  0.4423678E+03  0.7818608E-02  0.1030099E+00
         21   -1    0    0  503  502  0.00000000000E+00  0.00000000000E+00  0.47811021626E+03  0.47811021626E+03  0.00000000000E+00 0. -1.
         21   -1    0    0  501  503 -0.00000000000E+00 -0.00000000000E+00 -0.62480364468E+03  0.62480364468E+03  0.00000000000E+00 0. -1.
    9000007    2    1    2  501    0  0.18201417393E+03  0.50597565037E+02 -0.39785887136E+03  0.59421615815E+03  0.39888831518E+03 0.  0.
    9000005    1    3    3    0    0  0.12872164740E+03 -0.89679739905E+02 -0.41453880026E+03  0.44323259714E+03  0.99999687468E+00 0.  0.
          4    1    3    3  501    0  0.53292526529E+02  0.14027730494E+03  0.16679928896E+02  0.15098356100E+03  0.00000000000E+00 0.  1.
   -9000007    1    1    2    0  502 -0.18201417393E+03 -0.50597565037E+02  0.25116544294E+03  0.50869770279E+03  0.40000000000E+03 0. -1.
<mgrwt>
<rscale>  2 0.44211635E+03</rscale>
<asrwt>0</asrwt>
<pdfrwt beam="1">  1       21 0.73555419E-01 0.44236780E+03</pdfrwt>
<pdfrwt beam="2">  1       21 0.96123637E-01 0.44236780E+03</pdfrwt>
<totfact> 0.12829487E+03</totfact>
</mgrwt>
</event>
<event>
 6    1  0.9502611E-004  0.5267285E+03  0.7818608E-02  0.1007037E+00
         21   -1    0    0  503  502  0.00000000000E+00  0.00000000000E+00  0.10897543789E+04  0.10897543789E+04  0.00000000000E+00 0. -1.
         21   -1    0    0  501  503 -0.00000000000E+00 -0.00000000000E+00 -0.25654490881E+03  0.25654490881E+03  0.00000000000E+00 0. -1.
    9000007    2    1    2  501    0  0.26052901154E+03 -0.22263778057E+03  0.35688346419E+03  0.63613774898E+03  0.39982806488E+03 0.  0.
    9000005    1    3    3    0    0  0.16504785326E+03 -0.31916991893E+03  0.15154844659E+03  0.38997200242E+03  0.99999687468E+00 0.  0.
          4    1    3    3  501    0  0.95481158283E+02  0.96532138363E+02  0.20533501760E+03  0.24616574656E+03  0.00000000000E+00 0.  1.
   -9000007    1    1    2    0  502 -0.26052901154E+03  0.22263778057E+03  0.47632600585E+03  0.71016153869E+03  0.40000000000E+03 0. -1.
<mgrwt>
<rscale>  2 0.52669589E+03</rscale>
<asrwt>0</asrwt>
<pdfrwt beam="1">  1       21 0.16765452E+00 0.52672853E+03</pdfrwt>
<pdfrwt beam="2">  1       21 0.39468448E-01 0.52672853E+03</pdfrwt>
<totfact> 0.11229447E+03</totfact>
</mgrwt>
</event>
<event>
 6    1  0.9502611E-004  0.5566832E+03  0.7818608E-02  0.9999719E-01
         21   -1    0    0  503  502  0.00000000000E+00  0.00000000000E+00  0.13752930712E+04  0.13752930712E+04  0.00000000000E+00 0. -1.
         21   -1    0    0  501  503 -0.00000000000E+00 -0.00000000000E+00 -0.22729997405E+03  0.22729997405E+03  0.00000000000E+00 0. -1.
    9000007    2    1    2  501    0 -0.32136896705E+03 -0.21591249525E+03  0.49755715854E+03  0.74646038683E+03  0.39967957730E+03 0.  0.
    9000005    1    3    3    0    0 -0.22694914821E+03  0.80347539878E+02  0.16936077602E+03  0.29435644292E+03  0.99999687468E+00 0.  0.
          4    1    3    3  501    0 -0.94419818834E+02 -0.29626003513E+03  0.32819638252E+03  0.45210394391E+03  0.00000000000E+00 0.  1.
   -9000007    1    1    2    0  502  0.32136896705E+03  0.21591249525E+03  0.65043593866E+03  0.85613265847E+03  0.40000000000E+03 0. -1.
<mgrwt>
<rscale>  2 0.55662567E+03</rscale>
<asrwt>0</asrwt>
<pdfrwt beam="1">  1       21 0.21158354E+00 0.55668323E+03</pdfrwt>
<pdfrwt beam="2">  1       21 0.34969228E-01 0.55668323E+03</pdfrwt>
<totfact> 0.70622458E+02</totfact>
</mgrwt>
</event>
<event>
 6    1  0.9502611E-004  0.5416632E+03  0.7818608E-02  0.1003447E+00
         21   -1    0    0  503  502  0.00000000000E+00  0.00000000000E+00  0.11613058905E+04  0.11613058905E+04  0.00000000000E+00 0.  1.
         21   -1    0    0  501  503 -0.00000000000E+00 -0.00000000000E+00 -0.26762229704E+03  0.26762229704E+03  0.00000000000E+00 0.  1.
    9000007    2    1    2  501    0 -0.22848881481E+03 -0.28494182142E+03  0.27759499167E+03  0.60858426860E+03  0.39989605213E+03 0.  0.
    9000005    1    3    3    0    0  0.75169505465E+02 -0.74729602010E+02 -0.47880514951E+02  0.11631213038E+03  0.99999687468E+00 0.  0.
          4    1    3    3  501    0 -0.30365832027E+03 -0.21021221941E+03  0.32547550662E+03  0.49227213822E+03  0.00000000000E+00 0.  1.
   -9000007    1    1    2    0  502  0.22848881481E+03  0.28494182142E+03  0.61608860181E+03  0.82034391895E+03  0.40000000000E+03 0.  1.
<mgrwt>
<rscale>  2 0.54164397E+03</rscale>
<asrwt>0</asrwt>
<pdfrwt beam="1">  1       21 0.17866244E+00 0.54166316E+03</pdfrwt>
<pdfrwt beam="2">  1       21 0.41172662E-01 0.54166316E+03</pdfrwt>
<totfact> 0.85144850E+02</totfact>
</mgrwt>
</event>
<event>
 6    1  0.9502611E-004  0.4210434E+03  0.7818608E-02  0.1036879E+00
         21   -1    0    0  503  502  0.00000000000E+00  0.00000000000E+00  0.19213036713E+03  0.19213036713E+03  0.00000000000E+00 0.  1.
         21   -1    0    0  501  503 -0.00000000000E+00 -0.00000000000E+00 -0.92697707943E+03  0.92697707943E+03  0.00000000000E+00 0.  1.
    9000007    2    1    2  501    0  0.19809929428E+02  0.12374460119E+03 -0.31503361017E+03  0.52585522335E+03  0.40196067067E+03 0.  0.
    9000005    1    3    3    0    0 -0.12174115303E+03  0.68018125393E+02  0.35353859669E+02  0.14386893031E+03  0.99999687468E+00 0.  0.
          4    1    3    3  501    0  0.14155108246E+03  0.55726475798E+02 -0.35038746984E+03  0.38198629304E+03  0.00000000000E+00 0.  1.
   -9000007    1    1    2    0  502 -0.19809929428E+02 -0.12374460119E+03 -0.41981310213E+03  0.59325222321E+03  0.40000000000E+03 0.  1.
<mgrwt>
<rscale>  2 0.42057476E+03</rscale>
<asrwt>0</asrwt>
<pdfrwt beam="1">  1       21 0.29558517E-01 0.42104339E+03</pdfrwt>
<pdfrwt beam="2">  1       21 0.14261186E+00 0.42104339E+03</pdfrwt>
<totfact> 0.32735255E+03</totfact>
</mgrwt>
</event>
<event>
 6    1  0.9502611E-004  0.4259169E+03  0.7818608E-02  0.1035160E+00
         21   -1    0    0  503  502  0.00000000000E+00  0.00000000000E+00  0.34801145210E+03  0.34801145210E+03  0.00000000000E+00 0. -1.
         21   -1    0    0  501  503 -0.00000000000E+00 -0.00000000000E+00 -0.53124295348E+03  0.53124295348E+03  0.00000000000E+00 0. -1.
    9000007    2    1    2  501    0  0.13745570641E+03 -0.49902064883E+02 -0.15196763336E+03  0.45221609729E+03  0.40002618633E+03 0.  0.
    9000005    1    3    3    0    0  0.64117011226E+00 -0.37967262485E+02  0.13169141651E+03  0.13706040017E+03  0.99999687468E+00 0.  0.
          4    1    3    3  501    0  0.13681453630E+03 -0.11934802398E+02 -0.28365904987E+03  0.31515569712E+03  0.00000000000E+00 0.  1.
   -9000007    1    1    2    0  502 -0.13745570641E+03  0.49902064883E+02 -0.31263868014E+02  0.42703830829E+03  0.40000000000E+03 0. -1.
<mgrwt>
<rscale>  2 0.42591079E+03</rscale>
<asrwt>0</asrwt>
<pdfrwt beam="1">  1       21 0.53540223E-01 0.42591694E+03</pdfrwt>
<pdfrwt beam="2">  1       21 0.81729685E-01 0.42591694E+03</pdfrwt>
<totfact> 0.38163071E+03</totfact>
</mgrwt>
</event>
<event>
 6    1  0.9502611E-004  0.6919954E+03  0.7818608E-02  0.9731087E-01
         21   -1    0    0  503  502  0.00000000000E+00  0.00000000000E+00  0.14095575334E+04  0.14095575334E+04  0.00000000000E+00 0.  1.
         21   -1    0    0  501  503 -0.00000000000E+00 -0.00000000000E+00 -0.36206259794E+03  0.36206259794E+03  0.00000000000E+00 0. -1.
    9000007    2    1    2  501    0 -0.24822776856E+03  0.50718887479E+03  0.30328148295E+03  0.75539611929E+03  0.39973248471E+03 0.  0.
    9000005    1    3    3    0    0 -0.12219635292E+03  0.20152253843E+03 -0.80303653403E+02  0.24898385270E+03  0.99999687468E+00 0.  0.
          4    1    3    3  501    0 -0.12603141565E+03  0.30566633637E+03  0.38358513636E+03  0.50641226659E+03  0.00000000000E+00 0.  1.
   -9000007    1    1    2    0  502  0.24822776856E+03 -0.50718887479E+03  0.74421345256E+03  0.10162240121E+04  0.40000000000E+03 0.  1.
<mgrwt>
<rscale>  2 0.69195671E+03</rscale>
<asrwt>0</asrwt>
<pdfrwt beam="1">  1       21 0.21685500E+00 0.69199536E+03</pdfrwt>
<pdfrwt beam="2">  1       21 0.55701939E-01 0.69199536E+03</pdfrwt>
<totfact> 0.23323072E+02</totfact>
</mgrwt>
</event>
<event>
 6    1  0.9502611E-004  0.4569013E+03  0.7818608E-02  0.1025700E+00
         21   -1    0    0  503  502  0.00000000000E+00  0.00000000000E+00  0.57657772415E+03  0.57657772415E+03  0.00000000000E+00 0.  1.
         21   -1    0    0  501  503 -0.00000000000E+00 -0.00000000000E+00 -0.36544274494E+03  0.36544274494E+03  0.00000000000E+00 0. -1.
    9000007    2    1    2  501    0  0.12574036187E+03 -0.18094003609E+03  0.15207274767E+03  0.48154432154E+03  0.40026101204E+03 0.  0.
    9000005    1    3    3    0    0  0.94581652106E+02 -0.12899524049E+03 -0.12180092447E+03  0.20105204843E+03  0.99999687468E+00 0.  0.
          4    1    3    3  501    0  0.31158709769E+02 -0.51944795604E+02  0.27387367214E+03  0.28049227311E+03  0.00000000000E+00 0.  1.
   -9000007    1    1    2    0  502 -0.12574036187E+03  0.18094003609E+03  0.59062231541E+02  0.46047614755E+03  0.40000000000E+03 0.  1.
<mgrwt>
<rscale>  2 0.45684415E+03</rscale>
<asrwt>0</asrwt>
<pdfrwt beam="1">  1       21 0.88704265E-01 0.45690132E+03</pdfrwt>
<pdfrwt beam="2">  1       21 0.56221961E-01 0.45690132E+03</pdfrwt>
<totfact> 0.28044526E+03</totfact>
</mgrwt>
</event>
<event>
 6    1  0.9502611E-004  0.4814451E+03  0.7818608E-02  0.1018855E+00
         21   -1    0    0  503  502  0.00000000000E+00  0.00000000000E+00  0.27864297618E+03  0.27864297618E+03  0.00000000000E+00 0.  1.
         21   -1    0    0  501  503 -0.00000000000E+00 -0.00000000000E+00 -0.13935280664E+04  0.13935280664E+04  0.00000000000E+00 0.  1.
    9000007    2    1    2  501    0 -0.24180581633E+03 -0.10814343978E+03 -0.10902082389E+04  0.11917816138E+04  0.40202531558E+03 0.  0.
    9000005    1    3    3    0    0 -0.31441644452E+03 -0.14948609401E+03 -0.59334038295E+03  0.68793720856E+03  0.99999687468E+00 0.  0.
          4    1    3    3  501    0  0.72610628193E+02  0.41342654221E+02 -0.49686785593E+03  0.50384440519E+03  0.00000000000E+00 0.  1.
   -9000007    1    1    2    0  502  0.24180581633E+03  0.10814343978E+03 -0.24676851382E+02  0.48038942887E+03  0.40000000000E+03 0.  1.
<mgrwt>
<rscale>  2 0.48102209E+03</rscale>
<asrwt>0</asrwt>
<pdfrwt beam="1">  1       21 0.42868152E-01 0.48144513E+03</pdfrwt>
<pdfrwt beam="2">  1       21 0.21438893E+00 0.48144513E+03</pdfrwt>
<totfact> 0.45973443E+02</totfact>
</mgrwt>
</event>
<event>
 6    1  0.9502611E-004  0.5606676E+03  0.7818608E-02  0.9990590E-01
         21   -1    0    0  503  502  0.00000000000E+00  0.00000000000E+00  0.59354962681E+03  0.59354962681E+03  0.00000000000E+00 0.  1.
         21   -1    0    0  501  503 -0.00000000000E+00 -0.00000000000E+00 -0.65802772979E+03  0.65802772979E+03  0.00000000000E+00 0.  1.
    9000007    2    1    2  501    0  0.12088056131E+03 -0.37369407531E+03 -0.30877529976E+03  0.64007061716E+03  0.40011103107E+03 0.  0.
    9000005    1    3    3    0    0 -0.14115855543E+03 -0.11079710250E+03 -0.45904202841E+02  0.18522940244E+03  0.99999687468E+00 0.  0.
          4    1    3    3  501    0  0.26203911674E+03 -0.26289697281E+03 -0.26287109692E+03  0.45484121472E+03  0.00000000000E+00 0.  1.
   -9000007    1    1    2    0  502 -0.12088056131E+03  0.37369407531E+03  0.24429719678E+03  0.61150673944E+03  0.40000000000E+03 0.  1.
<mgrwt>
<rscale>  2 0.56064784E+03</rscale>
<asrwt>0</asrwt>
<pdfrwt beam="1">  1       21 0.91315327E-01 0.56066765E+03</pdfrwt>
<pdfrwt beam="2">  1       21 0.10123504E+00 0.56066765E+03</pdfrwt>
<totfact> 0.65420929E+02</totfact>
</mgrwt>
</event>
<event>
 6    1  0.9502611E-004  0.4265685E+03  0.7818608E-02  0.1034995E+00
         21   -1    0    0  503  502  0.00000000000E+00  0.00000000000E+00  0.52849100258E+03  0.52849100258E+03  0.00000000000E+00 0.  1.
         21   -1    0    0  501  503 -0.00000000000E+00 -0.00000000000E+00 -0.34729609601E+03  0.34729609601E+03  0.00000000000E+00 0. -1.
    9000007    2    1    2  501    0 -0.64542089444E+02  0.13156239245E+03  0.46987384296E+02  0.42914853840E+03  0.40060742543E+03 0.  0.
    9000005    1    3    3    0    0 -0.17958691999E+02 -0.13964275390E+03  0.61383655458E+02  0.15359546375E+03  0.99999687468E+00 0.  0.
          4    1    3    3  501    0 -0.46583397445E+02  0.27120514634E+03 -0.14396271162E+02  0.27555307464E+03  0.00000000000E+00 0.  1.
   -9000007    1    1    2    0  502  0.64542089444E+02 -0.13156239245E+03  0.13420752227E+03  0.44663856019E+03  0.40000000000E+03 0. -1.
<mgrwt>
<rscale>  2 0.42642579E+03</rscale>
<asrwt>0</asrwt>
<pdfrwt beam="1">  1       21 0.81306308E-01 0.42656846E+03</pdfrwt>
<pdfrwt beam="2">  1       21 0.53430169E-01 0.42656846E+03</pdfrwt>
<totfact> 0.38786760E+03</totfact>
</mgrwt>
</event>
<event>
 6    1  0.9502611E-004  0.4523506E+03  0.7818608E-02  0.1027102E+00
         21   -1    0    0  503  502  0.00000000000E+00  0.00000000000E+00  0.11204345292E+03  0.11204345292E+03  0.00000000000E+00 0.  1.
         21   -1    0    0  501  503 -0.00000000000E+00 -0.00000000000E+00 -0.18496634057E+04  0.18496634057E+04  0.00000000000E+00 0.  1.
    9000007    2    1    2  501    0 -0.14943560635E+03  0.14606980462E+03 -0.98974725197E+03  0.10882190425E+04  0.40119032074E+03 0.  0.
    9000005    1    3    3    0    0 -0.25474183034E+03 -0.19637197397E+02 -0.58523417039E+03  0.63857580117E+03  0.99999687468E+00 0.  0.
          4    1    3    3  501    0  0.10530622399E+03  0.16570700201E+03 -0.40451308158E+03  0.44964324135E+03  0.00000000000E+00 0.  1.
   -9000007    1    1    2    0  502  0.14943560635E+03 -0.14606980462E+03 -0.74787270086E+03  0.87348781614E+03  0.40000000000E+03 0. -1.
<mgrwt>
<rscale>  2 0.45208652E+03</rscale>
<asrwt>0</asrwt>
<pdfrwt beam="1">  1       21 0.17237455E-01 0.45235060E+03</pdfrwt>
<pdfrwt beam="2">  1       21 0.28456359E+00 0.45235060E+03</pdfrwt>
<totfact> 0.10334120E+03</totfact>
</mgrwt>
</event>
<event>
 6    1  0.9502611E-004  0.4879214E+03  0.7818608E-02  0.1017087E+00
         21   -1    0    0  503  502  0.00000000000E+00  0.00000000000E+00  0.35882584675E+03  0.35882584675E+03  0.00000000000E+00 0. -1.
         21   -1    0    0  501  503 -0.00000000000E+00 -0.00000000000E+00 -0.69197426351E+03  0.69197426351E+03  0.00000000000E+00 0. -1.
    9000007    2    1    2  501    0 -0.24971618521E+03  0.12533585735E+03 -0.27689324365E+03  0.55964647361E+03  0.39807920915E+03 0.  0.
    9000005    1    3    3    0    0 -0.64616807446E+02 -0.58382434613E+02 -0.28572343113E+03  0.29870172340E+03  0.99999687468E+00 0.  0.
          4    1    3    3  501    0 -0.18509937777E+03  0.18371829196E+03  0.88301874827E+01  0.26094475021E+03  0.00000000000E+00 0.  1.
   -9000007    1    1    2    0  502  0.24971618521E+03 -0.12533585735E+03 -0.56255173112E+02  0.49115363665E+03  0.40000000000E+03 0. -1.
<mgrwt>
<rscale>  2 0.48752752E+03</rscale>
<asrwt>0</asrwt>
<pdfrwt beam="1">  1       21 0.55203977E-01 0.48792136E+03</pdfrwt>
<pdfrwt beam="2">  1       21 0.10645758E+00 0.48792136E+03</pdfrwt>
<totfact> 0.18570109E+03</totfact>
</mgrwt>
</event>
<event>
 6    1  0.9502611E-004  0.4878564E+03  0.7818608E-02  0.1017029E+00
         21   -1    0    0  503  502  0.00000000000E+00  0.00000000000E+00  0.75025733090E+02  0.75025733090E+02  0.00000000000E+00 0. -1.
         21   -1    0    0  501  503 -0.00000000000E+00 -0.00000000000E+00 -0.31737397098E+04  0.31737397098E+04  0.00000000000E+00 0. -1.
    9000007    2    1    2  501    0 -0.24490603996E+03 -0.13425690094E+03 -0.14877735507E+04  0.15655741466E+04  0.39943508406E+03 0.  0.
    9000005    1    3    3    0    0 -0.35061752239E+03 -0.54982312037E+02 -0.11102337935E+04  0.11655795888E+04  0.99999687468E+00 0.  0.
          4    1    3    3  501    0  0.10571148243E+03 -0.79274588898E+02 -0.37753975721E+03  0.39999455776E+03  0.00000000000E+00 0.  1.
   -9000007    1    1    2    0  502  0.24490603996E+03  0.13425690094E+03 -0.16109404260E+04  0.16831912963E+04  0.40000000000E+03 0. -1.
<mgrwt>
<rscale>  2 0.48774061E+03</rscale>
<asrwt>0</asrwt>
<pdfrwt beam="1">  1       21 0.11542424E-01 0.48785642E+03</pdfrwt>
<pdfrwt beam="2">  1       21 0.48826751E+00 0.48785642E+03</pdfrwt>
<totfact> 0.10523542E+02</totfact>
</mgrwt>
</event>
<event>
 6    1  0.9502611E-004  0.4375529E+03  0.7818608E-02  0.1031504E+00
         21   -1    0    0  503  502  0.00000000000E+00  0.00000000000E+00  0.64410579691E+03  0.64410579691E+03  0.00000000000E+00 0. -1.
         21   -1    0    0  501  503 -0.00000000000E+00 -0.00000000000E+00 -0.37547897053E+03  0.37547897053E+03  0.00000000000E+00 0. -1.
    9000007    2    1    2  501    0  0.17700345979E+03 -0.90096787617E+01 -0.98440184504E+02  0.44848968817E+03  0.40005141092E+03 0.  0.
    9000005    1    3    3    0    0  0.84373999648E+02  0.19412697126E+03 -0.23424953165E+02  0.21296474171E+03  0.99999687468E+00 0.  0.
          4    1    3    3  501    0  0.92629460139E+02 -0.20313665002E+03 -0.75015231339E+02  0.23552494645E+03  0.00000000000E+00 0.  1.
   -9000007    1    1    2    0  502 -0.17700345979E+03  0.90096787617E+01  0.36706701088E+03  0.57109507927E+03  0.40000000000E+03 0. -1.
<mgrwt>
<rscale>  2 0.43754114E+03</rscale>
<asrwt>0</asrwt>
<pdfrwt beam="1">  1       21 0.99093199E-01 0.43755289E+03</pdfrwt>
<pdfrwt beam="2">  1       21 0.57765996E-01 0.43755289E+03</pdfrwt>
<totfact> 0.20439184E+03</totfact>
</mgrwt>
</event>
<event>
 6    1  0.9502611E-004  0.4713838E+03  0.7818608E-02  0.1021533E+00
         21   -1    0    0  503  502  0.00000000000E+00  0.00000000000E+00  0.54000950492E+03  0.54000950492E+03  0.00000000000E+00 0. -1.
         21   -1    0    0  501  503 -0.00000000000E+00 -0.00000000000E+00 -0.41869902599E+03  0.41869902599E+03  0.00000000000E+00 0. -1.
    9000007    2    1    2  501    0 -0.18986543158E+03  0.16161097794E+03 -0.24325239047E+01  0.47139003029E+03  0.40004456400E+03 0.  0.
    9000005    1    3    3    0    0 -0.30760067982E+02  0.87080034481E+02 -0.19191682586E+03  0.21298399525E+03  0.99999687468E+00 0.  0.
          4    1    3    3  501    0 -0.15910536360E+03  0.74530943454E+02  0.18948430196E+03  0.25840603505E+03  0.00000000000E+00 0.  1.
   -9000007    1    1    2    0  502  0.18986543158E+03 -0.16161097794E+03  0.12374300284E+03  0.48731850062E+03  0.40000000000E+03 0. -1.
<mgrwt>
<rscale>  2 0.47137430E+03</rscale>
<asrwt>0</asrwt>
<pdfrwt beam="1">  1       21 0.83078385E-01 0.47138375E+03</pdfrwt>
<pdfrwt beam="2">  1       21 0.64415235E-01 0.47138375E+03</pdfrwt>
<totfact> 0.24141448E+03</totfact>
</mgrwt>
</event>
<event>
 6    1  0.9502611E-004  0.4791661E+03  0.7818608E-02  0.1019387E+00
         21   -1    0    0  503  502  0.00000000000E+00  0.00000000000E+00  0.42130284558E+03  0.42130284558E+03  0.00000000000E+00 0. -1.
         21   -1    0    0  501  503 -0.00000000000E+00 -0.00000000000E+00 -0.54475331589E+03  0.54475331589E+03  0.00000000000E+00 0.  1.
    9000007    2    1    2  501    0  0.16878615210E+02  0.26327800925E+03 -0.53949471168E+02  0.48187583691E+03  0.39961679013E+03 0.  0.
    9000005    1    3    3    0    0 -0.48394185229E+02  0.48496085251E+02  0.15857832191E+03  0.17274823189E+03  0.99999687468E+00 0.  0.
          4    1    3    3  501    0  0.65272800439E+02  0.21478192400E+03 -0.21252779308E+03  0.30912760502E+03  0.00000000000E+00 0.  1.
   -9000007    1    1    2    0  502 -0.16878615210E+02 -0.26327800925E+03 -0.69500999148E+02  0.48418032456E+03  0.40000000000E+03 0.  1.
<mgrwt>
<rscale>  2 0.47908617E+03</rscale>
<asrwt>0</asrwt>
<pdfrwt beam="1">  1       21 0.64815823E-01 0.47916615E+03</pdfrwt>
<pdfrwt beam="2">  1       21 0.83808202E-01 0.47916615E+03</pdfrwt>
<totfact> 0.23266757E+03</totfact>
</mgrwt>
</event>
<event>
 6    1  0.9502611E-004  0.4316498E+03  0.7818608E-02  0.1033632E+00
         21   -1    0    0  503  502  0.00000000000E+00  0.00000000000E+00  0.14163421608E+03  0.14163421608E+03  0.00000000000E+00 0.  1.
         21   -1    0    0  501  503 -0.00000000000E+00 -0.00000000000E+00 -0.15148558261E+04  0.15148558261E+04  0.00000000000E+00 0.  1.
    9000007    2    1    2  501    0 -0.13068487839E+02  0.15155332396E+03 -0.99797377259E+03  0.10873238671E+04  0.40395834656E+03 0.  0.
    9000005    1    3    3    0    0  0.11913278265E+03  0.98486932320E+02 -0.11430672339E+03  0.19224807605E+03  0.99999687468E+00 0.  0.
          4    1    3    3  501    0 -0.13220127048E+03  0.53066391643E+02 -0.88366704920E+03  0.89507579103E+03  0.00000000000E+00 0.  1.
   -9000007    1    1    2    0  502  0.13068487839E+02 -0.15155332396E+03 -0.37524783743E+03  0.56916617510E+03  0.40000000000E+03 0.  1.
<mgrwt>
<rscale>  2 0.43072126E+03</rscale>
<asrwt>0</asrwt>
<pdfrwt beam="1">  1       21 0.21789879E-01 0.43164979E+03</pdfrwt>
<pdfrwt beam="2">  1       21 0.23305475E+00 0.43164979E+03</pdfrwt>
<totfact> 0.13811683E+03</totfact>
</mgrwt>
</event>
<event>
 6    1  0.9502611E-004  0.4198911E+03  0.7818608E-02  0.1037116E+00
         21   -1    0    0  503  502  0.00000000000E+00  0.00000000000E+00  0.88417009955E+02  0.88417009955E+02  0.00000000000E+00 0.  1.
         21   -1    0    0  501  503 -0.00000000000E+00 -0.00000000000E+00 -0.27420010439E+04  0.27420010439E+04  0.00000000000E+00 0.  1.
    9000007    2    1    2  501    0  0.14425352485E+02  0.12688741277E+03 -0.20661339932E+04  0.21083335320E+04  0.39981507977E+03 0.  0.
    9000005    1    3    3    0    0  0.19783157521E+03  0.90836269316E+02 -0.13856217987E+04  0.14026180268E+04  0.99999687468E+00 0.  0.
          4    1    3    3  501    0 -0.18340622272E+03  0.36051143457E+02 -0.68051219447E+03  0.70571550521E+03  0.00000000000E+00 0.  1.
   -9000007    1    1    2    0  502 -0.14425352485E+02 -0.12688741277E+03 -0.58745004072E+03  0.72208452182E+03  0.40000000000E+03 0.  1.
<mgrwt>
<rscale>  2 0.41984702E+03</rscale>
<asrwt>0</asrwt>
<pdfrwt beam="1">  1       21 0.13602620E-01 0.41989106E+03</pdfrwt>
<pdfrwt beam="2">  1       21 0.42184623E+00 0.41989106E+03</pdfrwt>
<totfact> 0.23129810E+02</totfact>
</mgrwt>
</event>
<event>
 6    1  0.9502611E-004  0.4575806E+03  0.7818608E-02  0.1025488E+00
         21   -1    0    0  503  502  0.00000000000E+00  0.00000000000E+00  0.23982725313E+03  0.23982725313E+03  0.00000000000E+00 0. -1.
         21   -1    0    0  501  503 -0.00000000000E+00 -0.00000000000E+00 -0.88978037499E+03  0.88978037499E+03  0.00000000000E+00 0. -1.
    9000007    2    1    2  501    0 -0.13906486481E+03 -0.17332326299E+03 -0.24736274815E+03  0.52013326515E+03  0.39996286606E+03 0.  0.
    9000005    1    3    3    0    0 -0.97634461794E+00  0.18877862193E+01  0.10394897524E+03  0.10397550881E+03  0.99999687468E+00 0.  0.
          4    1    3    3  501    0 -0.13808852019E+03 -0.17521104921E+03 -0.35131172338E+03  0.41615775634E+03  0.00000000000E+00 0.  1.
   -9000007    1    1    2    0  502  0.13906486481E+03  0.17332326299E+03 -0.40259037371E+03  0.60947436298E+03  0.40000000000E+03 0. -1.
<mgrwt>
<rscale>  2 0.45757247E+03</rscale>
<asrwt>0</asrwt>
<pdfrwt beam="1">  1       21 0.36896501E-01 0.45758058E+03</pdfrwt>
<pdfrwt beam="2">  1       21 0.13688929E+00 0.45758058E+03</pdfrwt>
<totfact> 0.23053821E+03</totfact>
</mgrwt>
</event>
<event>
 6    1  0.9502611E-004  0.9395563E+03  0.7818608E-02  0.9377607E-01
         21   -1    0    0  503  502  0.00000000000E+00  0.00000000000E+00  0.90303162797E+03  0.90303162797E+03  0.00000000000E+00 0. -1.
         21   -1    0    0  501  503 -0.00000000000E+00 -0.00000000000E+00 -0.10360766012E+04  0.10360766012E+04  0.00000000000E+00 0.  1.
    9000007    2    1    2  501    0  0.25920497696E+02 -0.84914397042E+03 -0.29810255305E+03  0.98571357875E+03  0.40130882435E+03 0.  0.
    9000005    1    3    3    0    0  0.60390034546E+02 -0.44044015754E+03  0.50509745780E+02  0.44742230952E+03  0.99999687468E+00 0.  0.
          4    1    3    3  501    0 -0.34469536850E+02 -0.40870381288E+03 -0.34861229883E+03  0.53829126923E+03  0.00000000000E+00 0.  1.
   -9000007    1    1    2    0  502 -0.25920497696E+02  0.84914397042E+03  0.16505757986E+03  0.95339465038E+03  0.40000000000E+03 0. -1.
<mgrwt>
<rscale>  2 0.93941674E+03</rscale>
<asrwt>0</asrwt>
<pdfrwt beam="1">  1       21 0.13892794E+00 0.93955635E+03</pdfrwt>
<pdfrwt beam="2">  1       21 0.15939640E+00 0.93955635E+03</pdfrwt>
<totfact> 0.61212078E+01</totfact>
</mgrwt>
</event>
<event>
 6    1  0.9502611E-004  0.4395784E+03  0.7818608E-02  0.1030926E+00
         21   -1    0    0  503  502  0.00000000000E+00  0.00000000000E+00  0.49187046392E+03  0.49187046392E+03  0.00000000000E+00 0.  1.
         21   -1    0    0  501  503 -0.00000000000E+00 -0.00000000000E+00 -0.58446347902E+03  0.58446347902E+03  0.00000000000E+00 0.  1.
    9000007    2    1    2  501    0 -0.12672312441E+03  0.12885238866E+03 -0.35492881106E+03  0.56498107245E+03  0.40070870091E+03 0.  0.
    9000005    1    3    3    0    0  0.91921395323E+02 -0.84868138997E+00 -0.28768740353E+03  0.30201871684E+03  0.99999687468E+00 0.  0.
          4    1    3    3  501    0 -0.21864451973E+03  0.12970107005E+03 -0.67241407528E+02  0.26296235561E+03  0.00000000000E+00 0.  1.
   -9000007    1    1    2    0  502  0.12672312441E+03 -0.12885238866E+03  0.26233579596E+03  0.51135287050E+03  0.40000000000E+03 0.  1.
<mgrwt>
<rscale>  2 0.43941681E+03</rscale>
<asrwt>0</asrwt>
<pdfrwt beam="1">  1       21 0.75672380E-01 0.43957838E+03</pdfrwt>
<pdfrwt beam="2">  1       21 0.89917457E-01 0.43957838E+03</pdfrwt>
<totfact> 0.14116902E+03</totfact>
</mgrwt>
</event>
<event>
 6    1  0.9502611E-004  0.5262662E+03  0.7818608E-02  0.1007158E+00
         21   -1    0    0  503  502  0.00000000000E+00  0.00000000000E+00  0.63086218941E+03  0.63086218941E+03  0.00000000000E+00 0. -1.
         21   -1    0    0  501  503 -0.00000000000E+00 -0.00000000000E+00 -0.44071807055E+03  0.44071807055E+03  0.00000000000E+00 0. -1.
    9000007    2    1    2  501    0 -0.46370672436E+02  0.33841911648E+03  0.13052111089E+03  0.54221021856E+03  0.40034787756E+03 0.  0.
    9000005    1    3    3    0    0  0.14995849573E+03  0.21197840000E+03 -0.26192745379E+02  0.26097787725E+03  0.99999687468E+00 0.  0.
          4    1    3    3  501    0 -0.19632916816E+03  0.12644071647E+03  0.15671385627E+03  0.28123234131E+03  0.00000000000E+00 0.  1.
   -9000007    1    1    2    0  502  0.46370672436E+02 -0.33841911648E+03  0.59623007972E+02  0.52937004141E+03  0.40000000000E+03 0. -1.
<mgrwt>
<rscale>  2 0.52620008E+03</rscale>
<asrwt>0</asrwt>
<pdfrwt beam="1">  1       21 0.97055721E-01 0.52626625E+03</pdfrwt>
<pdfrwt beam="2">  1       21 0.67802781E-01 0.52626625E+03</pdfrwt>
<totfact> 0.14609611E+03</totfact>
</mgrwt>
</event>
<event>
 6    1  0.9502611E-004  0.5373902E+03  0.7818608E-02  0.1004470E+00
         21   -1    0    0  503  502  0.00000000000E+00  0.00000000000E+00  0.78988369265E+03  0.78988369265E+03  0.00000000000E+00 0.  1.
         21   -1    0    0  501  503 -0.00000000000E+00 -0.00000000000E+00 -0.55012586441E+03  0.55012586441E+03  0.00000000000E+00 0.  1.
    9000007    2    1    2  501    0  0.30938787093E+03  0.18113826592E+03 -0.26830409345E+03  0.60064574787E+03  0.40032024906E+03 0.  0.
    9000005    1    3    3    0    0 -0.62111933487E+02  0.10643537365E+03 -0.16855318412E+03  0.20880027997E+03  0.99999687468E+00 0.  0.
          4    1    3    3  501    0  0.37149980442E+03  0.74702892272E+02 -0.99750909333E+02  0.39184546790E+03  0.00000000000E+00 0.  1.
   -9000007    1    1    2    0  502 -0.30938787093E+03 -0.18113826592E+03  0.50806192170E+03  0.73936380919E+03  0.40000000000E+03 0.  1.
<mgrwt>
<rscale>  2 0.53733056E+03</rscale>
<asrwt>0</asrwt>
<pdfrwt beam="1">  1       21 0.12152057E+00 0.53739020E+03</pdfrwt>
<pdfrwt beam="2">  1       21 0.84634749E-01 0.53739020E+03</pdfrwt>
<totfact> 0.50001629E+02</totfact>
</mgrwt>
</event>
<event>
 6    1  0.9502611E-004  0.4124949E+03  0.7818608E-02  0.1039546E+00
         21   -1    0    0  503  502  0.00000000000E+00  0.00000000000E+00  0.11108050584E+03  0.11108050584E+03  0.00000000000E+00 0. -1.
         21   -1    0    0  501  503 -0.00000000000E+00 -0.00000000000E+00 -0.16808613237E+04  0.16808613237E+04  0.00000000000E+00 0. -1.
    9000007    2    1    2  501    0  0.75755295990E+02  0.66431806984E+02 -0.51762956820E+03  0.66182046349E+03  0.39989236822E+03 0.  0.
    9000005    1    3    3    0    0  0.14743380131E+03  0.17963858198E+03 -0.16618951658E+03  0.28570386998E+03  0.99999687468E+00 0.  0.
          4    1    3    3  501    0 -0.71678505319E+02 -0.11320677500E+03 -0.35144005162E+03  0.37611659351E+03  0.00000000000E+00 0.  1.
   -9000007    1    1    2    0  502 -0.75755295990E+02 -0.66431806984E+02 -0.10521512497E+04  0.11301213661E+04  0.40000000000E+03 0. -1.
<mgrwt>
<rscale>  2 0.41246881E+03</rscale>
<asrwt>0</asrwt>
<pdfrwt beam="1">  1       21 0.17089307E-01 0.41249491E+03</pdfrwt>
<pdfrwt beam="2">  1       21 0.25859407E+00 0.41249491E+03</pdfrwt>
<totfact> 0.15388258E+03</totfact>
</mgrwt>
</event>
<event>
 6    1  0.9502611E-004  0.4027291E+03  0.7818608E-02  0.1042843E+00
         21   -1    0    0  503  502  0.00000000000E+00  0.00000000000E+00  0.18363964505E+03  0.18363964505E+03  0.00000000000E+00 0. -1.
         21   -1    0    0  501  503 -0.00000000000E+00 -0.00000000000E+00 -0.13990037952E+04  0.13990037952E+04  0.00000000000E+00 0. -1.
    9000007    2    1    2  501    0 -0.18337843976E+02 -0.43062931140E+02 -0.10881987455E+04  0.11603145012E+04  0.39995317170E+03 0.  0.
    9000005    1    3    3    0    0  0.15958146600E+02 -0.19981210966E+03 -0.84857711971E+03  0.87193100054E+03  0.99999687468E+00 0.  0.
          4    1    3    3  501    0 -0.34295990576E+02  0.15674917852E+03 -0.23962162578E+03  0.28838350070E+03  0.00000000000E+00 0.  1.
   -9000007    1    1    2    0  502  0.18337843976E+02  0.43062931140E+02 -0.12716540462E+03  0.42232893897E+03  0.40000000000E+03 0. -1.
<mgrwt>
<rscale>  2 0.40271743E+03</rscale>
<asrwt>0</asrwt>
<pdfrwt beam="1">  1       21 0.28252253E-01 0.40272906E+03</pdfrwt>
<pdfrwt beam="2">  1       21 0.21523136E+00 0.40272906E+03</pdfrwt>
<totfact> 0.10974853E+03</totfact>
</mgrwt>
</event>
<event>
 6    1  0.9502611E-004  0.4186170E+03  0.7818608E-02  0.1037519E+00
         21   -1    0    0  503  502  0.00000000000E+00  0.00000000000E+00  0.55746082975E+03  0.55746082975E+03  0.00000000000E+00 0.  1.
         21   -1    0    0  501  503 -0.00000000000E+00 -0.00000000000E+00 -0.15059793171E+04  0.15059793171E+04  0.00000000000E+00 0.  1.
    9000007    2    1    2  501    0  0.11247210139E+03  0.50894547265E+02 -0.13920071451E+04  0.14535857231E+04  0.39998416696E+03 0.  0.
    9000005    1    3    3    0    0  0.22329558553E+02 -0.17382664976E+03 -0.53046588296E+03  0.55866749174E+03  0.99999687468E+00 0.  0.
          4    1    3    3  501    0  0.90142542840E+02  0.22472119703E+03 -0.86154126218E+03  0.89491823138E+03  0.00000000000E+00 0.  1.
   -9000007    1    1    2    0  502 -0.11247210139E+03 -0.50894547265E+02  0.44348865780E+03  0.60985442372E+03  0.40000000000E+03 0.  1.
<mgrwt>
<rscale>  2 0.41861326E+03</rscale>
<asrwt>0</asrwt>
<pdfrwt beam="1">  1       21 0.85763205E-01 0.41861704E+03</pdfrwt>
<pdfrwt beam="2">  1       21 0.23168912E+00 0.41861704E+03</pdfrwt>
<totfact> 0.80338947E+01</totfact>
</mgrwt>
</event>
<event>
 6    1  0.9502611E-004  0.4447886E+03  0.7818608E-02  0.1029310E+00
         21   -1    0    0  503  502  0.00000000000E+00  0.00000000000E+00  0.13905977363E+04  0.13905977363E+04  0.00000000000E+00 0.  1.
         21   -1    0    0  501  503 -0.00000000000E+00 -0.00000000000E+00 -0.17053563530E+03  0.17053563530E+03  0.00000000000E+00 0. -1.
    9000007    2    1    2  501    0  0.47583599949E+02  0.18790579020E+03  0.29186977926E+03  0.53200083829E+03  0.40033003750E+03 0.  0.
    9000005    1    3    3    0    0  0.19194302469E+03  0.21891618397E+03  0.23355517034E+03  0.37324983311E+03  0.99999687468E+00 0.  0.
          4    1    3    3  501    0 -0.14435942474E+03 -0.31010393778E+02  0.58314608922E+02  0.15875100518E+03  0.00000000000E+00 0.  1.
   -9000007    1    1    2    0  502 -0.47583599949E+02 -0.18790579020E+03  0.92819232173E+03  0.10291325333E+04  0.40000000000E+03 0.  1.
<mgrwt>
<rscale>  2 0.44471435E+03</rscale>
<asrwt>0</asrwt>
<pdfrwt beam="1">  1       21 0.21393811E+00 0.44478863E+03</pdfrwt>
<pdfrwt beam="2">  1       21 0.26236253E-01 0.44478863E+03</pdfrwt>
<totfact> 0.12671875E+03</totfact>
</mgrwt>
</event>
<event>
 6    1  0.9502611E-004  0.4162423E+03  0.7818608E-02  0.1038300E+00
         21   -1    0    0  503  502  0.00000000000E+00  0.00000000000E+00  0.10677242095E+04  0.10677242095E+04  0.00000000000E+00 0. -1.
         21   -1    0    0  501  503 -0.00000000000E+00 -0.00000000000E+00 -0.24471283393E+03  0.24471283393E+03  0.00000000000E+00 0. -1.
    9000007    2    1    2  501    0 -0.11481779472E+03 -0.86344083584E+01  0.30565758514E+02  0.41732379083E+03  0.39995900016E+03 0.  0.
    9000005    1    3    3    0    0 -0.22337463730E+03  0.11407661013E+03  0.36035459327E+02  0.25339545357E+03  0.99999687468E+00 0.  0.
          4    1    3    3  501    0  0.10855684258E+03 -0.12271101849E+03 -0.54697008130E+01  0.16392833726E+03  0.00000000000E+00 0.  1.
   -9000007    1    1    2    0  502  0.11481779472E+03  0.86344083584E+01  0.79244561710E+03  0.89511325264E+03  0.40000000000E+03 0. -1.
<mgrwt>
<rscale>  2 0.41623248E+03</rscale>
<asrwt>0</asrwt>
<pdfrwt beam="1">  1       21 0.16426526E+00 0.41624233E+03</pdfrwt>
<pdfrwt beam="2">  1       21 0.37648129E-01 0.41624233E+03</pdfrwt>
<totfact> 0.13710322E+03</totfact>
</mgrwt>
</event>
<event>
 6    1  0.9502611E-004  0.5290004E+03  0.7818608E-02  0.1006485E+00
         21   -1    0    0  503  502  0.00000000000E+00  0.00000000000E+00  0.78377658672E+03  0.78377658672E+03  0.00000000000E+00 0.  1.
         21   -1    0    0  501  503 -0.00000000000E+00 -0.00000000000E+00 -0.78106083327E+03  0.78106083327E+03  0.00000000000E+00 0.  1.
    9000007    2    1    2  501    0  0.78391813306E+01  0.34582587136E+03 -0.57520859076E+03  0.78147700889E+03  0.40023044171E+03 0.  0.
    9000005    1    3    3    0    0 -0.22838062979E+02  0.22840065508E+03 -0.40399646307E+02  0.23306987746E+03  0.99999687468E+00 0.  0.
          4    1    3    3  501    0  0.30677244310E+02  0.11742521628E+03 -0.53480894445E+03  0.54840713143E+03  0.00000000000E+00 0.  1.
   -9000007    1    1    2    0  502 -0.78391813306E+01 -0.34582587136E+03  0.57792434420E+03  0.78336041110E+03  0.40000000000E+03 0.  1.
<mgrwt>
<rscale>  2 0.52895678E+03</rscale>
<asrwt>0</asrwt>
<pdfrwt beam="1">  1       21 0.12058101E+00 0.52900037E+03</pdfrwt>
<pdfrwt beam="2">  1       21 0.12016320E+00 0.52900037E+03</pdfrwt>
<totfact> 0.21725172E+02</totfact>
</mgrwt>
</event>
<event>
 6    1  0.9502611E-004  0.4571825E+03  0.7818608E-02  0.1025619E+00
         21   -1    0    0  503  502  0.00000000000E+00  0.00000000000E+00  0.22198333276E+03  0.22198333276E+03  0.00000000000E+00 0.  1.
         21   -1    0    0  501  503 -0.00000000000E+00 -0.00000000000E+00 -0.15088758287E+04  0.15088758287E+04  0.00000000000E+00 0.  1.
    9000007    2    1    2  501    0 -0.10701225253E+03 -0.19325363397E+03 -0.11744297790E+04  0.12602781887E+04  0.40027143033E+03 0.  0.
    9000005    1    3    3    0    0 -0.21268794238E+02  0.45123478643E+02  0.84241550371E+01  0.50600951721E+02  0.99999687468E+00 0.  0.
          4    1    3    3  501    0 -0.85743458290E+02 -0.23837711261E+03 -0.11828539340E+04  0.12096772370E+04  0.00000000000E+00 0.  1.
   -9000007    1    1    2    0  502  0.10701225253E+03  0.19325363397E+03 -0.11246271698E+03  0.47058097278E+03  0.40000000000E+03 0.  1.
<mgrwt>
<rscale>  2 0.45712305E+03</rscale>
<asrwt>0</asrwt>
<pdfrwt beam="1">  1       21 0.34151282E-01 0.45718247E+03</pdfrwt>
<pdfrwt beam="2">  1       21 0.23213474E+00 0.45718247E+03</pdfrwt>
<totfact> 0.57138835E+02</totfact>
</mgrwt>
</event>
<event>
 6    1  0.9502611E-004  0.4508980E+03  0.7818608E-02  0.1027508E+00
         21   -1    0    0  503  502  0.00000000000E+00  0.00000000000E+00  0.59861251872E+03  0.59861251872E+03  0.00000000000E+00 0. -1.
         21   -1    0    0  501  503 -0.00000000000E+00 -0.00000000000E+00 -0.46063307835E+03  0.46063307835E+03  0.00000000000E+00 0. -1.
    9000007    2    1    2  501    0  0.19509332972E+03 -0.67849316629E+02 -0.20301714702E+03  0.49449466994E+03  0.40080429083E+03 0.  0.
    9000005    1    3    3    0    0  0.23934066860E+03 -0.63467709856E+02 -0.29929439849E+03  0.38844593292E+03  0.99999687468E+00 0.  0.
          4    1    3    3  501    0 -0.44247338873E+02 -0.43816067725E+01  0.96277251466E+02  0.10604873703E+03  0.00000000000E+00 0.  1.
   -9000007    1    1    2    0  502 -0.19509332972E+03  0.67849316629E+02  0.34099658740E+03  0.56475092713E+03  0.40000000000E+03 0. -1.
<mgrwt>
<rscale>  2 0.45071921E+03</rscale>
<asrwt>0</asrwt>
<pdfrwt beam="1">  1       21 0.92094234E-01 0.45089801E+03</pdfrwt>
<pdfrwt beam="2">  1       21 0.70866627E-01 0.45089801E+03</pdfrwt>
<totfact> 0.15411044E+03</totfact>
</mgrwt>
</event>
<event>
 6    1  0.9502611E-004  0.5353109E+03  0.7818608E-02  0.1004958E+00
         21   -1    0    0  503  502  0.00000000000E+00  0.00000000000E+00  0.25415117744E+03  0.25415117744E+03  0.00000000000E+00 0. -1.
         21   -1    0    0  501  503 -0.00000000000E+00 -0.00000000000E+00 -0.11526997230E+04  0.11526997230E+04  0.00000000000E+00 0. -1.
    9000007    2    1    2  501    0 -0.28382875872E+03  0.21423489441E+03 -0.55371551795E+03  0.77016795642E+03  0.40012804453E+03 0.  0.
    9000005    1    3    3    0    0 -0.34864929121E+03  0.83177949588E+02 -0.49826651960E+03  0.61379591405E+03  0.99999687468E+00 0.  0.
          4    1    3    3  501    0  0.64820532486E+02  0.13105694482E+03 -0.55448998350E+02  0.15637204237E+03  0.00000000000E+00 0.  1.
   -9000007    1    1    2    0  502  0.28382875872E+03 -0.21423489441E+03 -0.34483302759E+03  0.63668294399E+03  0.40000000000E+03 0. -1.
<mgrwt>
<rscale>  2 0.53528702E+03</rscale>
<asrwt>0</asrwt>
<pdfrwt beam="1">  1       21 0.39100181E-01 0.53531094E+03</pdfrwt>
<pdfrwt beam="2">  1       21 0.17733842E+00 0.53531094E+03</pdfrwt>
<totfact> 0.97062502E+02</totfact>
</mgrwt>
</event>
<event>
 6    1  0.9502611E-004  0.4106539E+03  0.7818608E-02  0.1040164E+00
         21   -1    0    0  503  502  0.00000000000E+00  0.00000000000E+00  0.73696336389E+03  0.73696336389E+03  0.00000000000E+00 0.  1.
         21   -1    0    0  501  503 -0.00000000000E+00 -0.00000000000E+00 -0.22874807409E+03  0.22874807409E+03  0.00000000000E+00 0.  1.
    9000007    2    1    2  501    0 -0.52072915125E+02 -0.76974178687E+02  0.25231645881E+03  0.48185110237E+03  0.39985031799E+03 0.  0.
    9000005    1    3    3    0    0  0.29953147801E+02  0.72316405663E+02  0.29585357456E+03  0.30603462413E+03  0.99999687468E+00 0.  0.
          4    1    3    3  501    0 -0.82026062926E+02 -0.14929058435E+03 -0.43537115747E+02  0.17581647824E+03  0.00000000000E+00 0.  1.
   -9000007    1    1    2    0  502  0.52072915125E+02  0.76974178687E+02  0.25589883099E+03  0.48386033561E+03  0.40000000000E+03 0.  1.
<mgrwt>
<rscale>  2 0.41061743E+03</rscale>
<asrwt>0</asrwt>
<pdfrwt beam="1">  1       21 0.11337898E+00 0.41065388E+03</pdfrwt>
<pdfrwt beam="2">  1       21 0.35192012E-01 0.41065388E+03</pdfrwt>
<totfact> 0.41858361E+03</totfact>
</mgrwt>
</event>
<event>
 6    1  0.9502611E-004  0.5282068E+03  0.7818608E-02  0.1006685E+00
         21   -1    0    0  503  502  0.00000000000E+00  0.00000000000E+00  0.20478503525E+04  0.20478503525E+04  0.00000000000E+00 0.  1.
         21   -1    0    0  501  503 -0.00000000000E+00 -0.00000000000E+00 -0.18962720846E+03  0.18962720846E+03  0.00000000000E+00 0.  1.
    9000007    2    1    2  501    0  0.40542085597E+02 -0.34213341770E+03  0.15233002279E+04  0.16122797555E+04  0.40037918210E+03 0.  0.
    9000005    1    3    3    0    0 -0.96118348054E+02  0.10854055529E+02  0.98499799044E+02  0.13805708153E+03  0.99999687468E+00 0.  0.
          4    1    3    3  501    0  0.13666043365E+03 -0.35298747323E+03  0.14248004289E+04  0.14742226740E+04  0.00000000000E+00 0.  1.
   -9000007    1    1    2    0  502 -0.40542085597E+02  0.34213341770E+03  0.33492291616E+03  0.62519780548E+03  0.40000000000E+03 0.  1.
<mgrwt>
<rscale>  2 0.52813495E+03</rscale>
<asrwt>0</asrwt>
<pdfrwt beam="1">  1       21 0.31505389E+00 0.52820680E+03</pdfrwt>
<pdfrwt beam="2">  1       21 0.29173418E-01 0.52820680E+03</pdfrwt>
<totfact> 0.23560219E+02</totfact>
</mgrwt>
</event>
<event>
 6    1  0.9502611E-004  0.6144621E+03  0.7818608E-02  0.9875929E-01
         21   -1    0    0  503  502  0.00000000000E+00  0.00000000000E+00  0.15143298022E+04  0.15143298022E+04  0.00000000000E+00 0.  1.
         21   -1    0    0  501  503 -0.00000000000E+00 -0.00000000000E+00 -0.29474037671E+03  0.29474037671E+03  0.00000000000E+00 0. -1.
    9000007    2    1    2  501    0  0.91456177012E+02  0.45716570323E+03  0.96517501519E+03  0.11441706341E+04  0.40024856964E+03 0.  0.
    9000005    1    3    3    0    0  0.22397337808E+03  0.13619691816E+03  0.34360136579E+03  0.43217655325E+03  0.99999687468E+00 0.  0.
          4    1    3    3  501    0 -0.13251720107E+03  0.32096878507E+03  0.62157364940E+03  0.71199408087E+03  0.00000000000E+00 0.  1.
   -9000007    1    1    2    0  502 -0.91456177012E+02 -0.45716570323E+03  0.25441441034E+03  0.66489954483E+03  0.40000000000E+03 0. -1.
<mgrwt>
<rscale>  2 0.61442159E+03</rscale>
<asrwt>0</asrwt>
<pdfrwt beam="1">  1       21 0.23297381E+00 0.61446207E+03</pdfrwt>
<pdfrwt beam="2">  1       21 0.45344674E-01 0.61446207E+03</pdfrwt>
<totfact> 0.29356488E+02</totfact>
</mgrwt>
</event>
<event>
 6    1  0.9502611E-004  0.4095924E+03  0.7818608E-02  0.1040603E+00
         21   -1    0    0  503  502  0.00000000000E+00  0.00000000000E+00  0.38104466048E+03  0.38104466048E+03  0.00000000000E+00 0. -1.
         21   -1    0    0  501  503 -0.00000000000E+00 -0.00000000000E+00 -0.47748405119E+03  0.47748405119E+03  0.00000000000E+00 0. -1.
    9000007    2    1    2  501    0  0.43643066012E+02 -0.70225410376E+02 -0.17005582195E+03  0.44349172004E+03  0.40116031420E+03 0.  0.
    9000005    1    3    3    0    0  0.10314348702E+03  0.14823179730E+03 -0.10030920208E+03  0.20657729948E+03  0.99999687468E+00 0.  0.
          4    1    3    3  501    0 -0.59500421013E+02 -0.21845720767E+03 -0.69746619871E+02  0.23691442056E+03  0.00000000000E+00 0.  1.
   -9000007    1    1    2    0  502 -0.43643066012E+02  0.70225410376E+02  0.73616431242E+02  0.41503699163E+03  0.40000000000E+03 0.  1.
<mgrwt>
<rscale>  2 0.40930800E+03</rscale>
<asrwt>0</asrwt>
<pdfrwt beam="1">  1       21 0.58622256E-01 0.40959239E+03</pdfrwt>
<pdfrwt beam="2">  1       21 0.73459084E-01 0.40959239E+03</pdfrwt>
<totfact> 0.40296735E+03</totfact>
</mgrwt>
</event>
<event>
 6    1  0.9502611E-004  0.5352414E+03  0.7818608E-02  0.1005584E+00
         21   -1    0    0  503  502  0.00000000000E+00  0.00000000000E+00  0.28875972916E+04  0.28875972916E+04  0.00000000000E+00 0. -1.
         21   -1    0    0  501  503 -0.00000000000E+00 -0.00000000000E+00 -0.99411358719E+02  0.99411358719E+02  0.00000000000E+00 0.  1.
    9000007    2    1    2  501    0 -0.27028958096E+03 -0.20648861343E+03  0.16230536539E+04  0.17090308600E+04  0.41326663535E+03 0.  0.
    9000005    1    3    3    0    0  0.25648078396E+02  0.10293990301E+03  0.36548543610E+03  0.38057200574E+03  0.99999687468E+00 0.  0.
          4    1    3    3  501    0 -0.29593765936E+03 -0.30942851644E+03  0.12575682178E+04  0.13284588543E+04  0.00000000000E+00 0.  1.
   -9000007    1    1    2    0  502  0.27028958096E+03  0.20648861343E+03  0.11651322790E+04  0.12779777903E+04  0.40000000000E+03 0. -1.
<mgrwt>
<rscale>  2 0.53267911E+03</rscale>
<asrwt>0</asrwt>
<pdfrwt beam="1">  1       21 0.44424567E+00 0.53524136E+03</pdfrwt>
<pdfrwt beam="2">  1       21 0.15294057E-01 0.53524136E+03</pdfrwt>
<totfact> 0.12263783E+02</totfact>
</mgrwt>
</event>
<event>
 6    1  0.9502611E-004  0.5233344E+03  0.7818608E-02  0.1007883E+00
         21   -1    0    0  503  502  0.00000000000E+00  0.00000000000E+00  0.27713240660E+03  0.27713240660E+03  0.00000000000E+00 0. -1.
         21   -1    0    0  501  503 -0.00000000000E+00 -0.00000000000E+00 -0.10732245247E+04  0.10732245247E+04  0.00000000000E+00 0. -1.
    9000007    2    1    2  501    0  0.10294463902E+03 -0.32137413841E+03 -0.20723195622E+03  0.56255287838E+03  0.39955190120E+03 0.  0.
    9000005    1    3    3    0    0  0.12722955972E+03 -0.33630166580E+03 -0.29825844993E+03  0.46716728721E+03  0.99999687468E+00 0.  0.
          4    1    3    3  501    0 -0.24284920701E+02  0.14927527386E+02  0.91026493711E+02  0.95385591179E+02  0.00000000000E+00 0.  1.
   -9000007    1    1    2    0  502 -0.10294463902E+03  0.32137413841E+03 -0.58886016187E+03  0.78780405291E+03  0.40000000000E+03 0. -1.
<mgrwt>
<rscale>  2 0.52324881E+03</rscale>
<asrwt>0</asrwt>
<pdfrwt beam="1">  1       21 0.42635755E-01 0.52333444E+03</pdfrwt>
<pdfrwt beam="2">  1       21 0.16511146E+00 0.52333444E+03</pdfrwt>
<totfact> 0.10004562E+03</totfact>
</mgrwt>
</event>
<event>
 6    1  0.9502611E-004  0.4103780E+03  0.7818608E-02  0.1040258E+00
         21   -1    0    0  503  502  0.00000000000E+00  0.00000000000E+00  0.17337624083E+04  0.17337624083E+04  0.00000000000E+00 0.  1.
         21   -1    0    0  501  503 -0.00000000000E+00 -0.00000000000E+00 -0.10026113000E+03  0.10026113000E+03  0.00000000000E+00 0.  1.
    9000007    2    1    2  501    0 -0.86924799700E+02  0.29226548990E+02  0.65371108814E+03  0.77176230457E+03  0.39983591138E+03 0.  0.
    9000005    1    3    3    0    0 -0.14642380149E+03  0.97244994643E+02  0.65821417108E+03  0.68128071573E+03  0.99999687468E+00 0.  0.
          4    1    3    3  501    0  0.59499001786E+02 -0.68018445654E+02 -0.45030829397E+01  0.90481588838E+02  0.00000000000E+00 0.  1.
   -9000007    1    1    2    0  502  0.86924799700E+02 -0.29226548990E+02  0.97979019019E+03  0.10622612338E+04  0.40000000000E+03 0. -1.
<mgrwt>
<rscale>  2 0.41033802E+03</rscale>
<asrwt>0</asrwt>
<pdfrwt beam="1">  1       21 0.26673266E+00 0.41037801E+03</pdfrwt>
<pdfrwt beam="2">  1       21 0.15424791E-01 0.41037801E+03</pdfrwt>
<totfact> 0.16648026E+03</totfact>
</mgrwt>
</event>
<event>
 6    1  0.9502611E-004  0.4023614E+03  0.7818608E-02  0.1043056E+00
         21   -1    0    0  503  502  0.00000000000E+00  0.00000000000E+00  0.10874664477E+04  0.10874664477E+04  0.00000000000E+00 0.  1.
         21   -1    0    0  501  503 -0.00000000000E+00 -0.00000000000E+00 -0.17985023637E+03  0.17985023637E+03  0.00000000000E+00 0.  1.
    9000007    2    1    2  501    0  0.32130436186E+02 -0.30145334881E+01  0.18966442630E+03  0.44482278258E+03  0.40106515799E+03 0.  0.
    9000005    1    3    3    0    0 -0.95539956711E+02 -0.16146191940E+03  0.38977568042E+02  0.19161963770E+03  0.99999687468E+00 0.  0.
          4    1    3    3  501    0  0.12767039290E+03  0.15844738592E+03  0.15068685826E+03  0.25320314488E+03  0.00000000000E+00 0.  1.
   -9000007    1    1    2    0  502 -0.32130436186E+02  0.30145334881E+01  0.71795178499E+03  0.82249390145E+03  0.40000000000E+03 0.  1.
<mgrwt>
<rscale>  2 0.40209573E+03</rscale>
<asrwt>0</asrwt>
<pdfrwt beam="1">  1       21 0.16730253E+00 0.40236142E+03</pdfrwt>
<pdfrwt beam="2">  1       21 0.27669268E-01 0.40236142E+03</pdfrwt>
<totfact> 0.24264943E+03</totfact>
</mgrwt>
</event>
<event>
 6    1  0.9502611E-004  0.5120136E+03  0.7818608E-02  0.1010705E+00
         21   -1    0    0  503  502  0.00000000000E+00  0.00000000000E+00  0.16585991223E+04  0.16585991223E+04  0.00000000000E+00 0.  1.
         21   -1    0    0  501  503 -0.00000000000E+00 -0.00000000000E+00 -0.20942148261E+03  0.20942148261E+03  0.00000000000E+00 0.  1.
    9000007    2    1    2  501    0  0.26864074008E+03  0.17247625706E+03  0.26183466517E+03  0.57507851587E+03  0.40030238702E+03 0.  0.
    9000005    1    3    3    0    0 -0.28244834425E+02 -0.10307638251E+03  0.50638792618E+02  0.11827002416E+03  0.99999687468E+00 0.  0.
          4    1    3    3  501    0  0.29688557450E+03  0.27555263957E+03  0.21119587255E+03  0.45680849172E+03  0.00000000000E+00 0.  1.
   -9000007    1    1    2    0  502 -0.26864074008E+03 -0.17247625706E+03  0.11873429745E+04  0.12929420890E+04  0.40000000000E+03 0.  1.
<mgrwt>
<rscale>  2 0.51195448E+03</rscale>
<asrwt>0</asrwt>
<pdfrwt beam="1">  1       21 0.25516909E+00 0.51201358E+03</pdfrwt>
<pdfrwt beam="2">  1       21 0.32218691E-01 0.51201358E+03</pdfrwt>
<totfact> 0.45012861E+02</totfact>
</mgrwt>
</event>
<event>
 6    1  0.9502611E-004  0.5123921E+03  0.7818608E-02  0.1010603E+00
         21   -1    0    0  503  502  0.00000000000E+00  0.00000000000E+00  0.13178366289E+04  0.13178366289E+04  0.00000000000E+00 0.  1.
         21   -1    0    0  501  503 -0.00000000000E+00 -0.00000000000E+00 -0.20335003052E+03  0.20335003052E+03  0.00000000000E+00 0. -1.
    9000007    2    1    2  501    0  0.18658273076E+03 -0.25998809299E+03  0.44829398125E+03  0.68081797424E+03  0.40017333309E+03 0.  0.
    9000005    1    3    3    0    0  0.39223658084E+02 -0.27117935243E+03  0.82272756303E+02  0.28608834817E+03  0.99999687468E+00 0.  0.
          4    1    3    3  501    0  0.14735907267E+03  0.11191259440E+02  0.36602122494E+03  0.39472962607E+03  0.00000000000E+00 0.  1.
   -9000007    1    1    2    0  502 -0.18658273076E+03  0.25998809299E+03  0.66619261713E+03  0.84036868518E+03  0.40000000000E+03 0.  1.
<mgrwt>
<rscale>  2 0.51235821E+03</rscale>
<asrwt>0</asrwt>
<pdfrwt beam="1">  1       21 0.20274409E+00 0.51239206E+03</pdfrwt>
<pdfrwt beam="2">  1       21 0.31284621E-01 0.51239206E+03</pdfrwt>
<totfact> 0.10288744E+03</totfact>
</mgrwt>
</event>
<event>
 6    1  0.9502611E-004  0.4216473E+03  0.7818608E-02  0.1036580E+00
         21   -1    0    0  503  502  0.00000000000E+00  0.00000000000E+00  0.77773944203E+03  0.77773944203E+03  0.00000000000E+00 0.  1.
         21   -1    0    0  501  503 -0.00000000000E+00 -0.00000000000E+00 -0.31342525283E+03  0.31342525283E+03  0.00000000000E+00 0.  1.
    9000007    2    1    2  501    0 -0.63551550166E+02 -0.11725030134E+03 -0.52338890234E+02  0.42429376494E+03  0.39937376835E+03 0.  0.
    9000005    1    3    3    0    0  0.15384592148E+03 -0.51899185777E+02  0.57319644189E+02  0.17218778890E+03  0.99999687468E+00 0.  0.
          4    1    3    3  501    0 -0.21739747165E+03 -0.65351115565E+02 -0.10965853442E+03  0.25210597604E+03  0.00000000000E+00 0.  1.
   -9000007    1    1    2    0  502  0.63551550166E+02  0.11725030134E+03  0.51665307943E+03  0.66687092992E+03  0.40000000000E+03 0.  1.
<mgrwt>
<rscale>  2 0.42149870E+03</rscale>
<asrwt>0</asrwt>
<pdfrwt beam="1">  1       21 0.11965222E+00 0.42164728E+03</pdfrwt>
<pdfrwt beam="2">  1       21 0.48219270E-01 0.42164728E+03</pdfrwt>
<totfact> 0.18999518E+03</totfact>
</mgrwt>
</event>
<event>
 6    1  0.9502611E-004  0.4437632E+03  0.7818608E-02  0.1029738E+00
         21   -1    0    0  503  502  0.00000000000E+00  0.00000000000E+00  0.53743181703E+03  0.53743181703E+03  0.00000000000E+00 0.  1.
         21   -1    0    0  501  503 -0.00000000000E+00 -0.00000000000E+00 -0.51852808454E+03  0.51852808454E+03  0.00000000000E+00 0.  1.
    9000007    2    1    2  501    0  0.18770970893E+03 -0.41120092849E+02 -0.27793938534E+03  0.52206699708E+03  0.39796714771E+03 0.  0.
    9000005    1    3    3    0    0  0.10527504626E+03  0.14227321723E+03  0.24842889247E+01  0.17700755745E+03  0.99999687468E+00 0.  0.
          4    1    3    3  501    0  0.82434662665E+02 -0.18339331008E+03 -0.28042367427E+03  0.34505943964E+03  0.00000000000E+00 0.  1.
   -9000007    1    1    2    0  502 -0.18770970893E+03  0.41120092849E+02  0.29684311783E+03  0.53389290449E+03  0.40000000000E+03 0.  1.
<mgrwt>
<rscale>  2 0.44330464E+03</rscale>
<asrwt>0</asrwt>
<pdfrwt beam="1">  1       21 0.82681818E-01 0.44376322E+03</pdfrwt>
<pdfrwt beam="2">  1       21 0.79773552E-01 0.44376322E+03</pdfrwt>
<totfact> 0.15200679E+03</totfact>
</mgrwt>
</event>
<event>
 6    1  0.9502611E-004  0.4777471E+03  0.7818608E-02  0.1019783E+00
         21   -1    0    0  503  502  0.00000000000E+00  0.00000000000E+00  0.13174196157E+04  0.13174196157E+04  0.00000000000E+00 0.  1.
         21   -1    0    0  501  503 -0.00000000000E+00 -0.00000000000E+00 -0.22048409484E+03  0.22048409484E+03  0.00000000000E+00 0.  1.
    9000007    2    1    2  501    0  0.23977625632E+03 -0.10188645383E+03  0.19220452615E+03  0.51496105556E+03  0.40046074252E+03 0.  0.
    9000005    1    3    3    0    0  0.11669842893E+03  0.15186064545E+03  0.11151983222E+03  0.22162547670E+03  0.99999687468E+00 0.  0.
          4    1    3    3  501    0  0.12307782740E+03 -0.25374709928E+03  0.80684693923E+02  0.29333557885E+03  0.00000000000E+00 0.  1.
   -9000007    1    1    2    0  502 -0.23977625632E+03  0.10188645383E+03  0.90473099470E+03  0.10229426550E+04  0.40000000000E+03 0.  1.
<mgrwt>
<rscale>  2 0.47765055E+03</rscale>
<asrwt>0</asrwt>
<pdfrwt beam="1">  1       21 0.20267994E+00 0.47774712E+03</pdfrwt>
<pdfrwt beam="2">  1       21 0.33920631E-01 0.47774712E+03</pdfrwt>
<totfact> 0.88807547E+02</totfact>
</mgrwt>
</event>
<event>
 6    1  0.9502611E-004  0.5095995E+03  0.7818608E-02  0.1011341E+00
         21   -1    0    0  503  502  0.00000000000E+00  0.00000000000E+00  0.39092711451E+03  0.39092711451E+03  0.00000000000E+00 0.  1.
         21   -1    0    0  501  503 -0.00000000000E+00 -0.00000000000E+00 -0.70543354580E+03  0.70543354580E+03  0.00000000000E+00 0. -1.
    9000007    2    1    2  501    0  0.27395795770E+03  0.15696721183E+03 -0.29079465325E+03  0.58620978401E+03  0.39923515919E+03 0.  0.
    9000005    1    3    3    0    0  0.23926102714E+02  0.86760874084E+02 -0.31288237547E+03  0.32557071204E+03  0.99999687468E+00 0.  0.
          4    1    3    3  501    0  0.25003185498E+03  0.70206337741E+02  0.22087722219E+02  0.26063907197E+03  0.00000000000E+00 0.  1.
   -9000007    1    1    2    0  502 -0.27395795770E+03 -0.15696721183E+03 -0.23711778035E+02  0.51015087630E+03  0.40000000000E+03 0.  1.
<mgrwt>
<rscale>  2 0.50944942E+03</rscale>
<asrwt>0</asrwt>
<pdfrwt beam="1">  1       21 0.60142634E-01 0.50959952E+03</pdfrwt>
<pdfrwt beam="2">  1       21 0.10852824E+00 0.50959952E+03</pdfrwt>
<totfact> 0.14576208E+03</totfact>
</mgrwt>
</event>
<event>
 6    1  0.9502611E-004  0.4152058E+03  0.7818608E-02  0.1038763E+00
         21   -1    0    0  503  502  0.00000000000E+00  0.00000000000E+00  0.43950224980E+03  0.43950224980E+03  0.00000000000E+00 0.  1.
         21   -1    0    0  501  503 -0.00000000000E+00 -0.00000000000E+00 -0.39084132701E+03  0.39084132701E+03  0.00000000000E+00 0.  1.
    9000007    2    1    2  501    0 -0.89255082710E+02  0.56329582145E+02  0.21449368172E+02  0.41575949569E+03  0.40156741806E+03 0.  0.
    9000005    1    3    3    0    0 -0.17990007929E+03 -0.11335754117E+03 -0.34476499633E+02  0.21541494769E+03  0.99999687468E+00 0.  0.
          4    1    3    3  501    0  0.90644996583E+02  0.16968712331E+03  0.55925867806E+02  0.20034454800E+03  0.00000000000E+00 0.  1.
   -9000007    1    1    2    0  502  0.89255082710E+02 -0.56329582145E+02  0.27211554613E+02  0.41458408112E+03  0.40000000000E+03 0.  1.
<mgrwt>
<rscale>  2 0.41482638E+03</rscale>
<asrwt>0</asrwt>
<pdfrwt beam="1">  1       21 0.67615731E-01 0.41520583E+03</pdfrwt>
<pdfrwt beam="2">  1       21 0.60129435E-01 0.41520583E+03</pdfrwt>
<totfact> 0.45847132E+03</totfact>
</mgrwt>
</event>
<event>
 6    1  0.9502611E-004  0.4100886E+03  0.7818608E-02  0.1040663E+00
         21   -1    0    0  503  502  0.00000000000E+00  0.00000000000E+00  0.36900476871E+03  0.36900476871E+03  0.00000000000E+00 0.  1.
         21   -1    0    0  501  503 -0.00000000000E+00 -0.00000000000E+00 -0.54903407873E+03  0.54903407873E+03  0.00000000000E+00 0.  1.
    9000007    2    1    2  501    0 -0.49239345557E+01  0.70917366514E+02 -0.28381735602E+03  0.49872336180E+03  0.40388015799E+03 0.  0.
    9000005    1    3    3    0    0  0.12036353662E+03 -0.89571046265E+02 -0.25109902150E+03  0.29250995175E+03  0.99999687468E+00 0.  0.
          4    1    3    3  501    0 -0.12528747118E+03  0.16048841278E+03 -0.32718334519E+02  0.20621341005E+03  0.00000000000E+00 0.  1.
   -9000007    1    1    2    0  502  0.49239345557E+01 -0.70917366514E+02  0.10378804600E+03  0.41931548564E+03  0.40000000000E+03 0.  1.
<mgrwt>
<rscale>  2 0.40913008E+03</rscale>
<asrwt>0</asrwt>
<pdfrwt beam="1">  1       21 0.56769965E-01 0.41008865E+03</pdfrwt>
<pdfrwt beam="2">  1       21 0.84466781E-01 0.41008865E+03</pdfrwt>
<totfact> 0.31340531E+03</totfact>
</mgrwt>
</event>
<event>
 6    1  0.9502611E-004  0.4761764E+03  0.7818608E-02  0.1020224E+00
         21   -1    0    0  503  502  0.00000000000E+00  0.00000000000E+00  0.26791095100E+04  0.26791095100E+04  0.00000000000E+00 0. -1.
         21   -1    0    0  501  503 -0.00000000000E+00 -0.00000000000E+00 -0.31349394843E+03  0.31349394843E+03  0.00000000000E+00 0.  1.
    9000007    2    1    2  501    0 -0.25635741358E+03 -0.23948949186E+02 -0.95735255174E+02  0.48570487278E+03  0.40056373862E+03 0.  0.
    9000005    1    3    3    0    0  0.69505784752E+02  0.10479088501E+03 -0.22076909394E+02  0.12767369978E+03  0.99999687468E+00 0.  0.
          4    1    3    3  501    0 -0.32586319833E+03 -0.12873983419E+03 -0.73658345779E+02  0.35803117300E+03  0.00000000000E+00 0.  1.
   -9000007    1    1    2    0  502  0.25635741358E+03  0.23948949186E+02  0.24613508168E+04  0.25068985857E+04  0.40000000000E+03 0. -1.
<mgrwt>
<rscale>  2 0.47605785E+03</rscale>
<asrwt>0</asrwt>
<pdfrwt beam="1">  1       21 0.41217068E+00 0.47617642E+03</pdfrwt>
<pdfrwt beam="2">  1       21 0.48229840E-01 0.47617642E+03</pdfrwt>
<totfact> 0.21483883E+01</totfact>
</mgrwt>
</event>
<event>
 6    1  0.9502611E-004  0.4510456E+03  0.7818608E-02  0.1027418E+00
         21   -1    0    0  503  502  0.00000000000E+00  0.00000000000E+00  0.41064809038E+03  0.41064809038E+03  0.00000000000E+00 0. -1.
         21   -1    0    0  501  503 -0.00000000000E+00 -0.00000000000E+00 -0.53115323603E+03  0.53115323603E+03  0.00000000000E+00 0. -1.
    9000007    2    1    2  501    0  0.20034079872E+03  0.57495311583E+02 -0.18257811535E+03  0.48650450010E+03  0.39988712648E+03 0.  0.
    9000005    1    3    3    0    0  0.22879657417E+03 -0.40416010471E+02 -0.26713757665E+03  0.35404069131E+03  0.99999687468E+00 0.  0.
          4    1    3    3  501    0 -0.28455775446E+02  0.97911322055E+02  0.84559461295E+02  0.13246380878E+03  0.00000000000E+00 0.  1.
   -9000007    1    1    2    0  502 -0.20034079872E+03 -0.57495311583E+02  0.62072969700E+02  0.45529682632E+03  0.40000000000E+03 0. -1.
<mgrwt>
<rscale>  2 0.45102059E+03</rscale>
<asrwt>0</asrwt>
<pdfrwt beam="1">  1       21 0.63176630E-01 0.45104561E+03</pdfrwt>
<pdfrwt beam="2">  1       21 0.81715882E-01 0.45104561E+03</pdfrwt>
<totfact> 0.26380659E+03</totfact>
</mgrwt>
</event>
<event>
 6    1  0.9502611E-004  0.4481273E+03  0.7818608E-02  0.1028331E+00
         21   -1    0    0  503  502  0.00000000000E+00  0.00000000000E+00  0.51520800045E+03  0.51520800045E+03  0.00000000000E+00 0. -1.
         21   -1    0    0  501  503 -0.00000000000E+00 -0.00000000000E+00 -0.38963695700E+03  0.38963695700E+03  0.00000000000E+00 0. -1.
    9000007    2    1    2  501    0  0.20017095532E+03 -0.27380160648E+02  0.47788695620E+02  0.45001732176E+03  0.39926650988E+03 0.  0.
    9000005    1    3    3    0    0  0.14311199900E+02 -0.18328881504E+03 -0.46674613159E+02  0.18968162712E+03  0.99999687468E+00 0.  0.
          4    1    3    3  501    0  0.18585975542E+03  0.15590865439E+03  0.94463308779E+02  0.26033569464E+03  0.00000000000E+00 0.  1.
   -9000007    1    1    2    0  502 -0.20017095532E+03  0.27380160648E+02  0.77782347831E+02  0.45482763569E+03  0.40000000000E+03 0.  1.
<mgrwt>
<rscale>  2 0.44796357E+03</rscale>
<asrwt>0</asrwt>
<pdfrwt beam="1">  1       21 0.79262769E-01 0.44812731E+03</pdfrwt>
<pdfrwt beam="2">  1       21 0.59944147E-01 0.44812731E+03</pdfrwt>
<totfact> 0.31810022E+03</totfact>
</mgrwt>
</event>
<event>
 6    1  0.9502611E-004  0.4381720E+03  0.7818608E-02  0.1031513E+00
         21   -1    0    0  503  502  0.00000000000E+00  0.00000000000E+00  0.25230555979E+03  0.25230555979E+03  0.00000000000E+00 0.  1.
         21   -1    0    0  501  503 -0.00000000000E+00 -0.00000000000E+00 -0.82618480370E+03  0.82618480370E+03  0.00000000000E+00 0. -1.
    9000007    2    1    2  501    0 -0.15789598853E+03 -0.69010072501E+02 -0.44445899378E+03  0.62413022611E+03  0.40286624168E+03 0.  0.
    9000005    1    3    3    0    0 -0.26158719504E+02  0.13382228618E+03 -0.32897378404E+03  0.35611435447E+03  0.99999687468E+00 0.  0.
          4    1    3    3  501    0 -0.13173726903E+03 -0.20283235868E+03 -0.11548520974E+03  0.26801587163E+03  0.00000000000E+00 0.  1.
   -9000007    1    1    2    0  502  0.15789598853E+03  0.69010072501E+02 -0.12942025013E+03  0.45436013739E+03  0.40000000000E+03 0.  1.
<mgrwt>
<rscale>  2 0.43751210E+03</rscale>
<asrwt>0</asrwt>
<pdfrwt beam="1">  1       21 0.38816241E-01 0.43817205E+03</pdfrwt>
<pdfrwt beam="2">  1       21 0.12710535E+00 0.43817205E+03</pdfrwt>
<totfact> 0.25396777E+03</totfact>
</mgrwt>
</event>
<event>
 6    1  0.9502611E-004  0.4036903E+03  0.7818608E-02  0.1042552E+00
         21   -1    0    0  503  502  0.00000000000E+00  0.00000000000E+00  0.51547769193E+03  0.51547769193E+03  0.00000000000E+00 0. -1.
         21   -1    0    0  501  503 -0.00000000000E+00 -0.00000000000E+00 -0.31635826047E+03  0.31635826047E+03  0.00000000000E+00 0. -1.
    9000007    2    1    2  501    0  0.50451365658E+02  0.39976782891E+01  0.81426217606E+02  0.41182045945E+03  0.40050535600E+03 0.  0.
    9000005    1    3    3    0    0  0.16344766815E+03 -0.34094930498E+02  0.18831855481E+03  0.25167932491E+03  0.99999687468E+00 0.  0.
          4    1    3    3  501    0 -0.11299630249E+03  0.38092608787E+02 -0.10689233720E+03  0.16014113454E+03  0.00000000000E+00 0.  1.
   -9000007    1    1    2    0  502 -0.50451365658E+02 -0.39976782891E+01  0.11769321385E+03  0.42001549295E+03  0.40000000000E+03 0. -1.
<mgrwt>
<rscale>  2 0.40356491E+03</rscale>
<asrwt>0</asrwt>
<pdfrwt beam="1">  1       21 0.79304260E-01 0.40369030E+03</pdfrwt>
<pdfrwt beam="2">  1       21 0.48670502E-01 0.40369030E+03</pdfrwt>
<totfact> 0.50534426E+03</totfact>
</mgrwt>
</event>
<event>
 6    1  0.9502611E-004  0.4287538E+03  0.7818608E-02  0.1035035E+00
         21   -1    0    0  503  502  0.00000000000E+00  0.00000000000E+00  0.86480990463E+03  0.86480990463E+03  0.00000000000E+00 0. -1.
         21   -1    0    0  501  503 -0.00000000000E+00 -0.00000000000E+00 -0.22921395065E+03  0.22921395065E+03  0.00000000000E+00 0. -1.
    9000007    2    1    2  501    0  0.58316227484E+02  0.14293013055E+03  0.48178825259E+03  0.63851687004E+03  0.38955624546E+03 0.  0.
    9000005    1    3    3    0    0  0.76418636847E+02 -0.12713797291E+03  0.17295311896E+03  0.22785445698E+03  0.99999687468E+00 0.  0.
          4    1    3    3  501    0 -0.18102409363E+02  0.27006810346E+03  0.30883513363E+03  0.41066241305E+03  0.00000000000E+00 0.  1.
   -9000007    1    1    2    0  502 -0.58316227484E+02 -0.14293013055E+03  0.15380770139E+03  0.45550698525E+03  0.40000000000E+03 0.  1.
<mgrwt>
<rscale>  2 0.42630120E+03</rscale>
<asrwt>0</asrwt>
<pdfrwt beam="1">  1       21 0.13304768E+00 0.42875378E+03</pdfrwt>
<pdfrwt beam="2">  1       21 0.35263685E-01 0.42875378E+03</pdfrwt>
<totfact> 0.27530841E+03</totfact>
</mgrwt>
</event>
<event>
 6    1  0.9502611E-004  0.5003955E+03  0.7818608E-02  0.1013763E+00
         21   -1    0    0  503  502  0.00000000000E+00  0.00000000000E+00  0.46927340174E+03  0.46927340174E+03  0.00000000000E+00 0.  1.
         21   -1    0    0  501  503 -0.00000000000E+00 -0.00000000000E+00 -0.53348475648E+03  0.53348475648E+03  0.00000000000E+00 0.  1.
    9000007    2    1    2  501    0 -0.20556105328E+03 -0.21633061151E+03 -0.57213560066E+02  0.50365571460E+03  0.40167325937E+03 0.  0.
    9000005    1    3    3    0    0 -0.40688617278E+02  0.11396913243E+03 -0.58669971173E+02  0.13449049124E+03  0.99999687468E+00 0.  0.
          4    1    3    3  501    0 -0.16487243600E+03 -0.33029974394E+03  0.14564111069E+01  0.36916522335E+03  0.00000000000E+00 0.  1.
   -9000007    1    1    2    0  502  0.20556105328E+03  0.21633061151E+03 -0.69977946704E+01  0.49910244362E+03  0.40000000000E+03 0.  1.
<mgrwt>
<rscale>  2 0.50005966E+03</rscale>
<asrwt>0</asrwt>
<pdfrwt beam="1">  1       21 0.72195908E-01 0.50039553E+03</pdfrwt>
<pdfrwt beam="2">  1       21 0.82074578E-01 0.50039553E+03</pdfrwt>
<totfact> 0.19033939E+03</totfact>
</mgrwt>
</event>
<event>
 6    1  0.9502611E-004  0.4234553E+03  0.7818608E-02  0.1036213E+00
         21   -1    0    0  503  502  0.00000000000E+00  0.00000000000E+00  0.81224421464E+03  0.81224421464E+03  0.00000000000E+00 0. -1.
         21   -1    0    0  501  503 -0.00000000000E+00 -0.00000000000E+00 -0.23538112644E+03  0.23538112644E+03  0.00000000000E+00 0. -1.
    9000007    2    1    2  501    0 -0.80046071354E+02 -0.10066199268E+03  0.15151759848E+03  0.44974659423E+03  0.40345285483E+03 0.  0.
    9000005    1    3    3    0    0 -0.17981918492E+03 -0.83412139258E+02  0.24278593304E+03  0.31343026899E+03  0.99999687468E+00 0.  0.
          4    1    3    3  501    0  0.99773113570E+02 -0.17249853419E+02 -0.91268334561E+02  0.13631632524E+03  0.00000000000E+00 0.  1.
   -9000007    1    1    2    0  502  0.80046071354E+02  0.10066199268E+03  0.42534548972E+03  0.59787874685E+03  0.40000000000E+03 0. -1.
<mgrwt>
<rscale>  2 0.42263081E+03</rscale>
<asrwt>0</asrwt>
<pdfrwt beam="1">  1       21 0.12496065E+00 0.42345533E+03</pdfrwt>
<pdfrwt beam="2">  1       21 0.36212481E-01 0.42345533E+03</pdfrwt>
<totfact> 0.30743828E+03</totfact>
</mgrwt>
</event>
<event>
 6    1  0.9502611E-004  0.4048892E+03  0.7818608E-02  0.1042217E+00
         21   -1    0    0  503  502  0.00000000000E+00  0.00000000000E+00  0.12350489373E+04  0.12350489373E+04  0.00000000000E+00 0.  1.
         21   -1    0    0  501  503 -0.00000000000E+00 -0.00000000000E+00 -0.26238955713E+03  0.26238955713E+03  0.00000000000E+00 0. -1.
    9000007    2    1    2  501    0 -0.51990795312E+02 -0.35103313156E+02 -0.41305463818E+02  0.40562349625E+03  0.39860882326E+03 0.  0.
    9000005    1    3    3    0    0 -0.19558301903E+03  0.55281409968E+02 -0.99439873064E+02  0.22626983884E+03  0.99999687468E+00 0.  0.
          4    1    3    3  501    0  0.14359222372E+03 -0.90384723124E+02  0.58134409245E+02  0.17935365741E+03  0.00000000000E+00 0.  1.
   -9000007    1    1    2    0  502  0.51990795312E+02  0.35103313156E+02  0.10139648440E+04  0.10918149981E+04  0.40000000000E+03 0.  1.
<mgrwt>
<rscale>  2 0.40454521E+03</rscale>
<asrwt>0</asrwt>
<pdfrwt beam="1">  1       21 0.19000753E+00 0.40488923E+03</pdfrwt>
<pdfrwt beam="2">  1       21 0.40367625E-01 0.40488923E+03</pdfrwt>
<totfact> 0.78488000E+02</totfact>
</mgrwt>
</event>
<event>
 6    1  0.9502611E-004  0.4281265E+03  0.7818608E-02  0.1034494E+00
         21   -1    0    0  503  502  0.00000000000E+00  0.00000000000E+00  0.17661370180E+03  0.17661370180E+03  0.00000000000E+00 0.  1.
         21   -1    0    0  501  503 -0.00000000000E+00 -0.00000000000E+00 -0.14873116766E+04  0.14873116766E+04  0.00000000000E+00 0.  1.
    9000007    2    1    2  501    0 -0.44601890672E+02 -0.14595528358E+03 -0.11130696308E+04  0.11923861586E+04  0.39946022914E+03 0.  0.
    9000005    1    3    3    0    0  0.31340764714E+02 -0.25804912104E+03 -0.48901628025E+03  0.55381361011E+03  0.99999687468E+00 0.  0.
          4    1    3    3  501    0 -0.75942655386E+02  0.11209383746E+03 -0.62405335058E+03  0.63857254848E+03  0.00000000000E+00 0.  1.
   -9000007    1    1    2    0  502  0.44601890672E+02  0.14595528358E+03 -0.19762834394E+03  0.47153921978E+03  0.40000000000E+03 0.  1.
<mgrwt>
<rscale>  2 0.42800035E+03</rscale>
<asrwt>0</asrwt>
<pdfrwt beam="1">  1       21 0.27171340E-01 0.42812647E+03</pdfrwt>
<pdfrwt beam="2">  1       21 0.22881717E+00 0.42812647E+03</pdfrwt>
<totfact> 0.95884824E+02</totfact>
</mgrwt>
</event>
<event>
 6    1  0.9502611E-004  0.4121981E+03  0.7818608E-02  0.1039674E+00
         21   -1    0    0  503  502  0.00000000000E+00  0.00000000000E+00  0.17520583443E+03  0.17520583443E+03  0.00000000000E+00 0. -1.
         21   -1    0    0  501  503 -0.00000000000E+00 -0.00000000000E+00 -0.98867832936E+03  0.98867832936E+03  0.00000000000E+00 0. -1.
    9000007    2    1    2  501    0  0.98704897323E+02  0.12831789187E+02 -0.48928439352E+03  0.63947474676E+03  0.39952649779E+03 0.  0.
    9000005    1    3    3    0    0  0.23903098426E+03 -0.38157858968E+02 -0.39381296501E+03  0.46225694699E+03  0.99999687468E+00 0.  0.
          4    1    3    3  501    0 -0.14032608694E+03  0.50989648156E+02 -0.95471428509E+02  0.17721779977E+03  0.00000000000E+00 0.  1.
   -9000007    1    1    2    0  502 -0.98704897323E+02 -0.12831789187E+02 -0.32418810142E+03  0.52440941703E+03  0.40000000000E+03 0. -1.
<mgrwt>
<rscale>  2 0.41208323E+03</rscale>
<asrwt>0</asrwt>
<pdfrwt beam="1">  1       21 0.26954744E-01 0.41219815E+03</pdfrwt>
<pdfrwt beam="2">  1       21 0.15210436E+00 0.41219815E+03</pdfrwt>
<totfact> 0.33116759E+03</totfact>
</mgrwt>
</event>
<event>
 6    1  0.9502611E-004  0.4685186E+03  0.7818608E-02  0.1022343E+00
         21   -1    0    0  503  502  0.00000000000E+00  0.00000000000E+00  0.41021218017E+03  0.41021218017E+03  0.00000000000E+00 0. -1.
         21   -1    0    0  501  503 -0.00000000000E+00 -0.00000000000E+00 -0.53812720843E+03  0.53812720843E+03  0.00000000000E+00 0. -1.
    9000007    2    1    2  501    0  0.20896835327E+03  0.12586449270E+03 -0.99783451378E+02  0.47897702452E+03  0.39994075769E+03 0.  0.
    9000005    1    3    3    0    0  0.15091675354E+03 -0.31745295323E+02  0.12489845656E+03  0.19845466666E+03  0.99999687468E+00 0.  0.
          4    1    3    3  501    0  0.58051599729E+02  0.15760978802E+03 -0.22468190793E+03  0.28052235787E+03  0.00000000000E+00 0.  1.
   -9000007    1    1    2    0  502 -0.20896835327E+03 -0.12586449270E+03 -0.28131576879E+02  0.46936236407E+03  0.40000000000E+03 0. -1.
<mgrwt>
<rscale>  2 0.46850592E+03</rscale>
<asrwt>0</asrwt>
<pdfrwt beam="1">  1       21 0.63109566E-01 0.46851856E+03</pdfrwt>
<pdfrwt beam="2">  1       21 0.82788801E-01 0.46851856E+03</pdfrwt>
<totfact> 0.25494564E+03</totfact>
</mgrwt>
</event>
<event>
 6    1  0.9502611E-004  0.5256730E+03  0.7818608E-02  0.1007304E+00
         21   -1    0    0  503  502  0.00000000000E+00  0.00000000000E+00  0.55311262543E+03  0.55311262543E+03  0.00000000000E+00 0.  1.
         21   -1    0    0  501  503 -0.00000000000E+00 -0.00000000000E+00 -0.50471993591E+03  0.50471993591E+03  0.00000000000E+00 0. -1.
    9000007    2    1    2  501    0  0.56462821145E+02  0.33594284675E+03 -0.30426859935E+02  0.52655281598E+03  0.40035787461E+03 0.  0.
    9000005    1    3    3    0    0  0.22592422587E+03  0.22108574370E+03  0.16468529945E+02  0.31653258027E+03  0.99999687468E+00 0.  0.
          4    1    3    3  501    0 -0.16946140473E+03  0.11485710306E+03 -0.46895389880E+02  0.21002023571E+03  0.00000000000E+00 0.  1.
   -9000007    1    1    2    0  502 -0.56462821145E+02 -0.33594284675E+03  0.78819549457E+02  0.53127974536E+03  0.40000000000E+03 0.  1.
<mgrwt>
<rscale>  2 0.52560483E+03</rscale>
<asrwt>0</asrwt>
<pdfrwt beam="1">  1       21 0.85094250E-01 0.52567297E+03</pdfrwt>
<pdfrwt beam="2">  1       21 0.77649221E-01 0.52567297E+03</pdfrwt>
<totfact> 0.14684395E+03</totfact>
</mgrwt>
</event>
<event>
 6    1  0.9502611E-004  0.5169789E+03  0.7818608E-02  0.1009451E+00
         21   -1    0    0  503  502  0.00000000000E+00  0.00000000000E+00  0.73773797558E+03  0.73773797558E+03  0.00000000000E+00 0.  1.
         21   -1    0    0  501  503 -0.00000000000E+00 -0.00000000000E+00 -0.93683066890E+03  0.93683066890E+03  0.00000000000E+00 0.  1.
    9000007    2    1    2  501    0 -0.25908139903E+03  0.20035973125E+03 -0.75531254754E+03  0.91519540327E+03  0.39977292112E+03 0.  0.
    9000005    1    3    3    0    0  0.73067552885E+02 -0.56052973408E+02 -0.19029005295E+03  0.21140507884E+03  0.99999687468E+00 0.  0.
          4    1    3    3  501    0 -0.33214895192E+03  0.25641270465E+03 -0.56502249459E+03  0.70379032443E+03  0.00000000000E+00 0.  1.
   -9000007    1    1    2    0  502  0.25908139903E+03 -0.20035973125E+03  0.55621985422E+03  0.75937324121E+03  0.40000000000E+03 0.  1.
<mgrwt>
<rscale>  2 0.51693499E+03</rscale>
<asrwt>0</asrwt>
<pdfrwt beam="1">  1       21 0.11349815E+00 0.51697891E+03</pdfrwt>
<pdfrwt beam="2">  1       21 0.14412779E+00 0.51697891E+03</pdfrwt>
<totfact> 0.15800402E+02</totfact>
</mgrwt>
</event>
<event>
 6    1  0.9502611E-004  0.4208068E+03  0.7818608E-02  0.1036821E+00
         21   -1    0    0  503  502  0.00000000000E+00  0.00000000000E+00  0.20576542954E+03  0.20576542954E+03  0.00000000000E+00 0.  1.
         21   -1    0    0  501  503 -0.00000000000E+00 -0.00000000000E+00 -0.86018281694E+03  0.86018281694E+03  0.00000000000E+00 0.  1.
    9000007    2    1    2  501    0  0.13645803636E+02  0.12996987641E+03 -0.33070747178E+03  0.53503724998E+03  0.39977374882E+03 0.  0.
    9000005    1    3    3    0    0  0.32973957178E+02 -0.14301376511E+03 -0.12241670275E+03  0.19112055873E+03  0.99999687468E+00 0.  0.
          4    1    3    3  501    0 -0.19328153542E+02  0.27298364152E+03 -0.20829076903E+03  0.34391669125E+03  0.00000000000E+00 0.  1.
   -9000007    1    1    2    0  502 -0.13645803636E+02 -0.12996987641E+03 -0.32370991562E+03  0.53091099650E+03  0.40000000000E+03 0.  1.
<mgrwt>
<rscale>  2 0.42075304E+03</rscale>
<asrwt>0</asrwt>
<pdfrwt beam="1">  1       21 0.31656220E-01 0.42080682E+03</pdfrwt>
<pdfrwt beam="2">  1       21 0.13233582E+00 0.42080682E+03</pdfrwt>
<totfact> 0.34787490E+03</totfact>
</mgrwt>
</event>
<event>
 6    1  0.9502611E-004  0.4011622E+03  0.7818608E-02  0.1043422E+00
         21   -1    0    0  503  502  0.00000000000E+00  0.00000000000E+00  0.64319436115E+03  0.64319436115E+03  0.00000000000E+00 0. -1.
         21   -1    0    0  501  503 -0.00000000000E+00 -0.00000000000E+00 -0.33440409607E+03  0.33440409607E+03  0.00000000000E+00 0. -1.
    9000007    2    1    2  501    0  0.34854255782E+01 -0.30314838780E+02 -0.91409597720E+02  0.41094947609E+03  0.39949045007E+03 0.  0.
    9000005    1    3    3    0    0  0.18940651934E+03 -0.31306065477E+02  0.21891621334E+02  0.19322303792E+03  0.99999687468E+00 0.  0.
          4    1    3    3  501    0 -0.18592109376E+03  0.99122669648E+00 -0.11330121905E+03  0.21772643816E+03  0.00000000000E+00 0.  1.
   -9000007    1    1    2    0  502 -0.34854255782E+01  0.30314838780E+02  0.40019986280E+03  0.56664898114E+03  0.40000000000E+03 0. -1.
<mgrwt>
<rscale>  2 0.40103516E+03</rscale>
<asrwt>0</asrwt>
<pdfrwt beam="1">  1       21 0.98952978E-01 0.40116223E+03</pdfrwt>
<pdfrwt beam="2">  1       21 0.51446784E-01 0.40116223E+03</pdfrwt>
<totfact> 0.26702087E+03</totfact>
</mgrwt>
</event>
<event>
 6    1  0.9502611E-004  0.4585771E+03  0.7818608E-02  0.1025227E+00
         21   -1    0    0  503  502  0.00000000000E+00  0.00000000000E+00  0.86469260557E+03  0.86469260557E+03  0.00000000000E+00 0. -1.
         21   -1    0    0  501  503 -0.00000000000E+00 -0.00000000000E+00 -0.33849158748E+03  0.33849158748E+03  0.00000000000E+00 0. -1.
    9000007    2    1    2  501    0 -0.18512485878E+03  0.12657715803E+03 -0.56575109618E+02  0.46161760447E+03  0.39949603184E+03 0.  0.
    9000005    1    3    3    0    0 -0.27078009663E+03  0.20655813593E+03 -0.33920910067E+02  0.34225685148E+03  0.99999687468E+00 0.  0.
          4    1    3    3  501    0  0.85655237850E+02 -0.79980977900E+02 -0.22654199550E+02  0.11936075299E+03  0.00000000000E+00 0.  1.
   -9000007    1    1    2    0  502  0.18512485878E+03 -0.12657715803E+03  0.58277612771E+03  0.74156658858E+03  0.40000000000E+03 0. -1.
<mgrwt>
<rscale>  2 0.45846722E+03</rscale>
<asrwt>0</asrwt>
<pdfrwt beam="1">  1       21 0.13302963E+00 0.45857714E+03</pdfrwt>
<pdfrwt beam="2">  1       21 0.52075629E-01 0.45857714E+03</pdfrwt>
<totfact> 0.12094768E+03</totfact>
</mgrwt>
</event>
<event>
 6    1  0.9502611E-004  0.5376154E+03  0.7818608E-02  0.1004443E+00
         21   -1    0    0  503  502  0.00000000000E+00  0.00000000000E+00  0.24679866374E+03  0.24679866374E+03  0.00000000000E+00 0.  1.
         21   -1    0    0  501  503 -0.00000000000E+00 -0.00000000000E+00 -0.11741923540E+04  0.11741923540E+04  0.00000000000E+00 0. -1.
    9000007    2    1    2  501    0 -0.22196847696E+03  0.28110179977E+03 -0.50836002028E+03  0.73990552885E+03  0.40092649551E+03 0.  0.
    9000005    1    3    3    0    0 -0.51530451828E+02 -0.10422711050E+03 -0.10933036209E+03  0.15960202410E+03  0.99999687468E+00 0.  0.
          4    1    3    3  501    0 -0.17043802513E+03  0.38532891028E+03 -0.39902965820E+03  0.58030350475E+03  0.00000000000E+00 0.  1.
   -9000007    1    1    2    0  502  0.22196847696E+03 -0.28110179977E+03 -0.41903366998E+03  0.68108548889E+03  0.40000000000E+03 0.  1.
<mgrwt>
<rscale>  2 0.53744264E+03</rscale>
<asrwt>0</asrwt>
<pdfrwt beam="1">  1       21 0.37969025E-01 0.53761537E+03</pdfrwt>
<pdfrwt beam="2">  1       21 0.18064498E+00 0.53761537E+03</pdfrwt>
<totfact> 0.97576796E+02</totfact>
</mgrwt>
</event>
<event>
 6    1  0.9502611E-004  0.4542306E+03  0.7818608E-02  0.1026487E+00
         21   -1    0    0  503  502  0.00000000000E+00  0.00000000000E+00  0.21825885375E+03  0.21825885375E+03  0.00000000000E+00 0. -1.
         21   -1    0    0  501  503 -0.00000000000E+00 -0.00000000000E+00 -0.95704412453E+03  0.95704412453E+03  0.00000000000E+00 0. -1.
    9000007    2    1    2  501    0 -0.20310673511E+03 -0.71225735259E+02 -0.43578145010E+03  0.62928396160E+03  0.39970912033E+03 0.  0.
    9000005    1    3    3    0    0 -0.26314789296E+03  0.86240286040E+02 -0.20999120712E+03  0.34753633992E+03  0.99999687468E+00 0.  0.
          4    1    3    3  501    0  0.60041157847E+02 -0.15746602130E+03 -0.22579024298E+03  0.28174762168E+03  0.00000000000E+00 0.  1.
   -9000007    1    1    2    0  502  0.20310673511E+03  0.71225735259E+02 -0.30300382068E+03  0.54601901667E+03  0.40000000000E+03 0. -1.
<mgrwt>
<rscale>  2 0.45416657E+03</rscale>
<asrwt>0</asrwt>
<pdfrwt beam="1">  1       21 0.33578285E-01 0.45423061E+03</pdfrwt>
<pdfrwt beam="2">  1       21 0.14723756E+00 0.45423061E+03</pdfrwt>
<totfact> 0.22992102E+03</totfact>
</mgrwt>
</event>
<event>
 6    1  0.9502611E-004  0.4881028E+03  0.7818608E-02  0.1016939E+00
         21   -1    0    0  503  502  0.00000000000E+00  0.00000000000E+00  0.75744592612E+03  0.75744592612E+03  0.00000000000E+00 0.  1.
         21   -1    0    0  501  503 -0.00000000000E+00 -0.00000000000E+00 -0.31842282790E+03  0.31842282790E+03  0.00000000000E+00 0. -1.
    9000007    2    1    2  501    0 -0.93763741614E+01 -0.27956472590E+03  0.15954925724E+03  0.51341877388E+03  0.39987312929E+03 0.  0.
    9000005    1    3    3    0    0  0.13618621895E+03 -0.18975583099E+03 -0.54086447599E+02  0.23975050663E+03  0.99999687468E+00 0.  0.
          4    1    3    3  501    0 -0.14556259311E+03 -0.89808894914E+02  0.21363570484E+03  0.27366826725E+03  0.00000000000E+00 0.  1.
   -9000007    1    1    2    0  502  0.93763741614E+01  0.27956472590E+03  0.27947384098E+03  0.56244998013E+03  0.40000000000E+03 0.  1.
<mgrwt>
<rscale>  2 0.48807682E+03</rscale>
<asrwt>0</asrwt>
<pdfrwt beam="1">  1       21 0.11653014E+00 0.48810281E+03</pdfrwt>
<pdfrwt beam="2">  1       21 0.48988127E-01 0.48810281E+03</pdfrwt>
<totfact> 0.19149128E+03</totfact>
</mgrwt>
</event>
<event>
 6    1  0.9502611E-004  0.5505410E+03  0.7818608E-02  0.1001386E+00
         21   -1    0    0  503  502  0.00000000000E+00  0.00000000000E+00  0.13391734560E+04  0.13391734560E+04  0.00000000000E+00 0. -1.
         21   -1    0    0  501  503 -0.00000000000E+00 -0.00000000000E+00 -0.29713080947E+03  0.29713080947E+03  0.00000000000E+00 0.  1.
    9000007    2    1    2  501    0  0.33975330017E+03  0.16632212636E+03  0.12119452188E+03  0.56343119593E+03  0.39958884583E+03 0.  0.
    9000005    1    3    3    0    0  0.11970583195E+03 -0.25802956075E+02  0.22272597966E+03  0.25417147904E+03  0.99999687468E+00 0.  0.
          4    1    3    3  501    0  0.22004746822E+03  0.19212508244E+03 -0.10153145778E+03  0.30925971689E+03  0.00000000000E+00 0.  1.
   -9000007    1    1    2    0  502 -0.33975330017E+03 -0.16632212636E+03  0.92084812464E+03  0.10728730695E+04  0.40000000000E+03 0. -1.
<mgrwt>
<rscale>  2 0.55046629E+03</rscale>
<asrwt>0</asrwt>
<pdfrwt beam="1">  1       21 0.20602668E+00 0.55054097E+03</pdfrwt>
<pdfrwt beam="2">  1       21 0.45712433E-01 0.55054097E+03</pdfrwt>
<totfact> 0.44242924E+02</totfact>
</mgrwt>
</event>
<event>
 6    1  0.9502611E-004  0.4429060E+03  0.7818608E-02  0.1029864E+00
         21   -1    0    0  503  502  0.00000000000E+00  0.00000000000E+00  0.43640883687E+03  0.43640883687E+03  0.00000000000E+00 0. -1.
         21   -1    0    0  501  503 -0.00000000000E+00 -0.00000000000E+00 -0.65286422212E+03  0.65286422212E+03  0.00000000000E+00 0. -1.
    9000007    2    1    2  501    0  0.16225569154E+03  0.99190849530E+02 -0.41224781355E+03  0.60502063612E+03  0.39991996236E+03 0.  0.
    9000005    1    3    3    0    0  0.67594635122E+02  0.22357527087E+03 -0.37903505999E+03  0.44522299260E+03  0.99999687468E+00 0.  0.
          4    1    3    3  501    0  0.94661056423E+02 -0.12438442134E+03 -0.33212753554E+02  0.15979764352E+03  0.00000000000E+00 0.  1.
   -9000007    1    1    2    0  502 -0.16225569154E+03 -0.99190849530E+02  0.19579242830E+03  0.48425242286E+03  0.40000000000E+03 0. -1.
<mgrwt>
<rscale>  2 0.44288794E+03</rscale>
<asrwt>0</asrwt>
<pdfrwt beam="1">  1       21 0.67139821E-01 0.44290601E+03</pdfrwt>
<pdfrwt beam="2">  1       21 0.10044065E+00 0.44290601E+03</pdfrwt>
<totfact> 0.14168282E+03</totfact>
</mgrwt>
</event>
<event>
 6    1  0.9502611E-004  0.4321062E+03  0.7818608E-02  0.1033212E+00
         21   -1    0    0  503  502  0.00000000000E+00  0.00000000000E+00  0.14529328547E+04  0.14529328547E+04  0.00000000000E+00 0. -1.
         21   -1    0    0  501  503 -0.00000000000E+00 -0.00000000000E+00 -0.15358347411E+03  0.15358347411E+03  0.00000000000E+00 0. -1.
    9000007    2    1    2  501    0  0.99222261647E+02  0.12924395230E+03  0.32486576012E+03  0.54060480201E+03  0.40020836254E+03 0.  0.
    9000005    1    3    3    0    0 -0.11829953885E+03  0.16472640323E+03  0.10141593457E+03  0.22675043681E+03  0.99999687468E+00 0.  0.
          4    1    3    3  501    0  0.21752180050E+03 -0.35482450935E+02  0.22344982555E+03  0.31385436520E+03  0.00000000000E+00 0.  1.
   -9000007    1    1    2    0  502 -0.99222261647E+02 -0.12924395230E+03  0.97448362050E+03  0.10659115268E+04  0.40000000000E+03 0. -1.
<mgrwt>
<rscale>  2 0.43205797E+03</rscale>
<asrwt>0</asrwt>
<pdfrwt beam="1">  1       21 0.22352812E+00 0.43210623E+03</pdfrwt>
<pdfrwt beam="2">  1       21 0.23628228E-01 0.43210623E+03</pdfrwt>
<totfact> 0.13564867E+03</totfact>
</mgrwt>
</event>
<event>
 6    1  0.9502611E-004  0.4492397E+03  0.7818608E-02  0.1027977E+00
         21   -1    0    0  503  502  0.00000000000E+00  0.00000000000E+00  0.29572113348E+03  0.29572113348E+03  0.00000000000E+00 0.  1.
         21   -1    0    0  501  503 -0.00000000000E+00 -0.00000000000E+00 -0.80759600631E+03  0.80759600631E+03  0.00000000000E+00 0.  1.
    9000007    2    1    2  501    0  0.49708992729E+02  0.19750127015E+03 -0.47368113499E+03  0.65283240388E+03  0.40042301913E+03 0.  0.
    9000005    1    3    3    0    0  0.18778311585E+03  0.32212935390E+00 -0.30757130045E+03  0.36036607390E+03  0.99999687468E+00 0.  0.
          4    1    3    3  501    0 -0.13807412312E+03  0.19717914080E+03 -0.16610983454E+03  0.29246632998E+03  0.00000000000E+00 0.  1.
   -9000007    1    1    2    0  502 -0.49708992729E+02 -0.19750127015E+03 -0.38193737850E+02  0.45048473590E+03  0.40000000000E+03 0.  1.
<mgrwt>
<rscale>  2 0.44914544E+03</rscale>
<asrwt>0</asrwt>
<pdfrwt beam="1">  1       21 0.45495559E-01 0.44923972E+03</pdfrwt>
<pdfrwt beam="2">  1       21 0.12424554E+00 0.44923972E+03</pdfrwt>
<totfact> 0.19290265E+03</totfact>
</mgrwt>
</event>
<event>
 6    1  0.9502611E-004  0.4480877E+03  0.7818608E-02  0.1028302E+00
         21   -1    0    0  503  502  0.00000000000E+00  0.00000000000E+00  0.28095849813E+03  0.28095849813E+03  0.00000000000E+00 0.  1.
         21   -1    0    0  501  503 -0.00000000000E+00 -0.00000000000E+00 -0.13223058361E+04  0.13223058361E+04  0.00000000000E+00 0.  1.
    9000007    2    1    2  501    0 -0.17657982050E+03  0.97990752173E+02 -0.10641494676E+04  0.11545967985E+04  0.39987130084E+03 0.  0.
    9000005    1    3    3    0    0  0.90345815985E+02  0.44558017981E+02 -0.67072545095E+02  0.12102689673E+03  0.99999687468E+00 0.  0.
          4    1    3    3  501    0 -0.26692563649E+03  0.53432734192E+02 -0.99707692250E+03  0.10335699018E+04  0.00000000000E+00 0.  1.
   -9000007    1    1    2    0  502  0.17657982050E+03 -0.97990752173E+02  0.22802129585E+02  0.44866753575E+03  0.40000000000E+03 0.  1.
<mgrwt>
<rscale>  2 0.44805901E+03</rscale>
<asrwt>0</asrwt>
<pdfrwt beam="1">  1       21 0.43224384E-01 0.44808774E+03</pdfrwt>
<pdfrwt beam="2">  1       21 0.20343167E+00 0.44808774E+03</pdfrwt>
<totfact> 0.54169768E+02</totfact>
</mgrwt>
</event>
<event>
 6    1  0.9502611E-004  0.5318073E+03  0.7818608E-02  0.1005821E+00
         21   -1    0    0  503  502  0.00000000000E+00  0.00000000000E+00  0.73444528299E+03  0.73444528299E+03  0.00000000000E+00 0. -1.
         21   -1    0    0  501  503 -0.00000000000E+00 -0.00000000000E+00 -0.49651924896E+03  0.49651924896E+03  0.00000000000E+00 0. -1.
    9000007    2    1    2  501    0 -0.30465036631E+03  0.17190630614E+03 -0.17299326448E+03  0.55923668998E+03  0.40056882316E+03 0.  0.
    9000005    1    3    3    0    0 -0.12101857979E+03 -0.90550528281E+02 -0.18475056852E+03  0.23870204731E+03  0.99999687468E+00 0.  0.
          4    1    3    3  501    0 -0.18363178652E+03  0.26245683442E+03  0.11757304045E+02  0.32053464267E+03  0.00000000000E+00 0.  1.
   -9000007    1    1    2    0  502  0.30465036631E+03 -0.17190630614E+03  0.41091929851E+03  0.67172784197E+03  0.40000000000E+03 0. -1.
<mgrwt>
<rscale>  2 0.53170019E+03</rscale>
<asrwt>0</asrwt>
<pdfrwt beam="1">  1       21 0.11299158E+00 0.53180730E+03</pdfrwt>
<pdfrwt beam="2">  1       21 0.76387577E-01 0.53180730E+03</pdfrwt>
<totfact> 0.76433695E+02</totfact>
</mgrwt>
</event>
<event>
 6    1  0.9502611E-004  0.4646957E+03  0.7818608E-02  0.1023461E+00
         21   -1    0    0  503  502  0.00000000000E+00  0.00000000000E+00  0.63280594488E+03  0.63280594488E+03  0.00000000000E+00 0.  1.
         21   -1    0    0  501  503 -0.00000000000E+00 -0.00000000000E+00 -0.70098197125E+03  0.70098197125E+03  0.00000000000E+00 0.  1.
    9000007    2    1    2  501    0  0.73495443730E+02 -0.22481220382E+03 -0.51205000227E+03  0.69116344280E+03  0.39946162844E+03 0.  0.
    9000005    1    3    3    0    0 -0.64754388789E+02  0.16655461456E+02 -0.37515292640E+03  0.38106594370E+03  0.99999687468E+00 0.  0.
          4    1    3    3  501    0  0.13824983252E+03 -0.24146766528E+03 -0.13689707587E+03  0.31009749910E+03  0.00000000000E+00 0.  1.
   -9000007    1    1    2    0  502 -0.73495443730E+02  0.22481220382E+03  0.44387397590E+03  0.64262447333E+03  0.40000000000E+03 0.  1.
<mgrwt>
<rscale>  2 0.46457984E+03</rscale>
<asrwt>0</asrwt>
<pdfrwt beam="1">  1       21 0.97354761E-01 0.46469571E+03</pdfrwt>
<pdfrwt beam="2">  1       21 0.10784338E+00 0.46469571E+03</pdfrwt>
<totfact> 0.49810892E+02</totfact>
</mgrwt>
</event>
<event>
 6    1  0.9502611E-004  0.5038572E+03  0.7818608E-02  0.1012779E+00
         21   -1    0    0  503  502  0.00000000000E+00  0.00000000000E+00  0.37026988861E+03  0.37026988861E+03  0.00000000000E+00 0. -1.
         21   -1    0    0  501  503 -0.00000000000E+00 -0.00000000000E+00 -0.16663634422E+04  0.16663634422E+04  0.00000000000E+00 0. -1.
    9000007    2    1    2  501    0 -0.30397101920E+03 -0.38389301887E+02 -0.14292724126E+04  0.15154723887E+04  0.39995601345E+03 0.  0.
    9000005    1    3    3    0    0 -0.25732011736E+03 -0.20292015416E+03 -0.83243427380E+03  0.89461614782E+03  0.99999687468E+00 0.  0.
          4    1    3    3  501    0 -0.46650901840E+02  0.16453085227E+03 -0.59683813878E+03  0.62085624092E+03  0.00000000000E+00 0.  1.
   -9000007    1    1    2    0  502  0.30397101920E+03  0.38389301887E+02  0.13317885901E+03  0.52116094203E+03  0.40000000000E+03 0. -1.
<mgrwt>
<rscale>  2 0.50384851E+03</rscale>
<asrwt>0</asrwt>
<pdfrwt beam="1">  1       21 0.56964599E-01 0.50385724E+03</pdfrwt>
<pdfrwt beam="2">  1       21 0.25636360E+00 0.50385724E+03</pdfrwt>
<totfact> 0.13522365E+02</totfact>
</mgrwt>
</event>
<event>
 6    1  0.9502611E-004  0.4211847E+03  0.7818608E-02  0.1036761E+00
         21   -1    0    0  503  502  0.00000000000E+00  0.00000000000E+00  0.15386953487E+04  0.15386953487E+04  0.00000000000E+00 0.  1.
         21   -1    0    0  501  503 -0.00000000000E+00 -0.00000000000E+00 -0.13712430049E+03  0.13712430049E+03  0.00000000000E+00 0.  1.
    9000007    2    1    2  501    0  0.32203204987E+02 -0.12465274400E+03  0.36507467082E+03  0.55738319890E+03  0.40102513904E+03 0.  0.
    9000005    1    3    3    0    0  0.19282292034E+02 -0.23943488951E+03  0.85648905039E+02  0.25502472043E+03  0.99999687468E+00 0.  0.
          4    1    3    3  501    0  0.12920912954E+02  0.11478214551E+03  0.27942576578E+03  0.30235847847E+03  0.00000000000E+00 0.  1.
   -9000007    1    1    2    0  502 -0.32203204987E+02  0.12465274400E+03  0.10364963774E+04  0.11184364503E+04  0.40000000000E+03 0. -1.
<mgrwt>
<rscale>  2 0.42094046E+03</rscale>
<asrwt>0</asrwt>
<pdfrwt beam="1">  1       21 0.23672235E+00 0.42118466E+03</pdfrwt>
<pdfrwt beam="2">  1       21 0.21096047E-01 0.42118466E+03</pdfrwt>
<totfact> 0.14012512E+03</totfact>
</mgrwt>
</event>
<event>
 6    1  0.9502611E-004  0.5145480E+03  0.7818608E-02  0.1010101E+00
         21   -1    0    0  503  502  0.00000000000E+00  0.00000000000E+00  0.13991107096E+04  0.13991107096E+04  0.00000000000E+00 0. -1.
         21   -1    0    0  501  503 -0.00000000000E+00 -0.00000000000E+00 -0.65516577911E+03  0.65516577911E+03  0.00000000000E+00 0. -1.
    9000007    2    1    2  501    0 -0.16006323169E+03  0.28131727109E+03 -0.49458298122E+03  0.71311615780E+03  0.39895198213E+03 0.  0.
    9000005    1    3    3    0    0 -0.10993156382E+03  0.27596515390E+03 -0.55797351850E+03  0.63212116104E+03  0.99999687468E+00 0.  0.
          4    1    3    3  501    0 -0.50131667872E+02  0.53521171871E+01  0.63390537283E+02  0.80994996753E+02  0.00000000000E+00 0.  1.
   -9000007    1    1    2    0  502  0.16006323169E+03 -0.28131727109E+03  0.12385279117E+04  0.13411603309E+04  0.40000000000E+03 0. -1.
<mgrwt>
<rscale>  2 0.51434431E+03</rscale>
<asrwt>0</asrwt>
<pdfrwt beam="1">  1       21 0.21524780E+00 0.51454800E+03</pdfrwt>
<pdfrwt beam="2">  1       21 0.10079474E+00 0.51454800E+03</pdfrwt>
<totfact> 0.65721801E+01</totfact>
</mgrwt>
</event>
<event>
 6    1  0.9502611E-004  0.4645219E+03  0.7818608E-02  0.1023496E+00
         21   -1    0    0  503  502  0.00000000000E+00  0.00000000000E+00  0.19404979439E+03  0.19404979439E+03  0.00000000000E+00 0. -1.
         21   -1    0    0  501  503 -0.00000000000E+00 -0.00000000000E+00 -0.11345493203E+04  0.11345493203E+04  0.00000000000E+00 0. -1.
    9000007    2    1    2  501    0 -0.17099200718E+03 -0.16217704532E+03 -0.37541586939E+03  0.59725842841E+03  0.40030100521E+03 0.  0.
    9000005    1    3    3    0    0 -0.77216175326E+02 -0.27211850411E+03 -0.35086297313E+03  0.45068463910E+03  0.99999687468E+00 0.  0.
          4    1    3    3  501    0 -0.93775831851E+02  0.10994145879E+03 -0.24552896257E+02  0.14657378931E+03  0.00000000000E+00 0.  1.
   -9000007    1    1    2    0  502  0.17099200718E+03  0.16217704532E+03 -0.56508365656E+03  0.73134068632E+03  0.40000000000E+03 0. -1.
<mgrwt>
<rscale>  2 0.46445700E+03</rscale>
<asrwt>0</asrwt>
<pdfrwt beam="1">  1       21 0.29853814E-01 0.46452186E+03</pdfrwt>
<pdfrwt beam="2">  1       21 0.17454605E+00 0.46452186E+03</pdfrwt>
<totfact> 0.18026598E+03</totfact>
</mgrwt>
</event>
<event>
 6    1  0.9502611E-004  0.5277972E+03  0.7818608E-02  0.1006784E+00
         21   -1    0    0  503  502  0.00000000000E+00  0.00000000000E+00  0.12680952079E+03  0.12680952079E+03  0.00000000000E+00 0. -1.
         21   -1    0    0  501  503 -0.00000000000E+00 -0.00000000000E+00 -0.22306913258E+04  0.22306913258E+04  0.00000000000E+00 0. -1.
    9000007    2    1    2  501    0  0.69088011314E+02  0.33691627741E+03 -0.11999689807E+04  0.13109139532E+04  0.40035497620E+03 0.  0.
    9000005    1    3    3    0    0  0.21060494956E+03  0.63585710452E+02 -0.49680893614E+03  0.54333940256E+03  0.99999687468E+00 0.  0.
          4    1    3    3  501    0 -0.14151693825E+03  0.27333056696E+03 -0.70316004451E+03  0.76757455068E+03  0.00000000000E+00 0.  1.
   -9000007    1    1    2    0  502 -0.69088011314E+02 -0.33691627741E+03 -0.90391282438E+03  0.10465868934E+04  0.40000000000E+03 0. -1.
<mgrwt>
<rscale>  2 0.52772984E+03</rscale>
<asrwt>0</asrwt>
<pdfrwt beam="1">  1       21 0.19509160E-01 0.52779716E+03</pdfrwt>
<pdfrwt beam="2">  1       21 0.34318323E+00 0.52779716E+03</pdfrwt>
<totfact> 0.34697513E+02</totfact>
</mgrwt>
</event>
<event>
 6    1  0.9502611E-004  0.4733189E+03  0.7818608E-02  0.1021013E+00
         21   -1    0    0  503  502  0.00000000000E+00  0.00000000000E+00  0.17712629255E+04  0.17712629255E+04  0.00000000000E+00 0.  1.
         21   -1    0    0  501  503 -0.00000000000E+00 -0.00000000000E+00 -0.15837333402E+03  0.15837333402E+03  0.00000000000E+00 0. -1.
    9000007    2    1    2  501    0  0.20835981913E+03  0.14236531830E+03  0.37306609211E+03  0.60266828414E+03  0.40043607922E+03 0.  0.
    9000005    1    3    3    0    0 -0.24473969918E+02  0.20830757828E+03  0.26415423950E+03  0.33729732375E+03  0.99999687468E+00 0.  0.
          4    1    3    3  501    0  0.23283378905E+03 -0.65942259982E+02  0.10891185261E+03  0.26537096038E+03  0.00000000000E+00 0.  1.
   -9000007    1    1    2    0  502 -0.20835981913E+03 -0.14236531830E+03  0.12398234994E+04  0.13269679754E+04  0.40000000000E+03 0.  1.
<mgrwt>
<rscale>  2 0.47322662E+03</rscale>
<asrwt>0</asrwt>
<pdfrwt beam="1">  1       21 0.27250198E+00 0.47331887E+03</pdfrwt>
<pdfrwt beam="2">  1       21 0.24365130E-01 0.47331887E+03</pdfrwt>
<totfact> 0.62436503E+02</totfact>
</mgrwt>
</event>
<event>
 6    1  0.9502611E-004  0.4699831E+03  0.7818608E-02  0.1022011E+00
         21   -1    0    0  503  502  0.00000000000E+00  0.00000000000E+00  0.13184239191E+04  0.13184239191E+04  0.00000000000E+00 0. -1.
         21   -1    0    0  501  503 -0.00000000000E+00 -0.00000000000E+00 -0.17892584910E+03  0.17892584910E+03  0.00000000000E+00 0. -1.
    9000007    2    1    2  501    0  0.10089127329E+03 -0.22262929337E+03  0.37799170499E+03  0.60312675617E+03  0.40142409454E+03 0.  0.
    9000005    1    3    3    0    0  0.11243306568E+03 -0.70645867736E+02 -0.55272687549E+02  0.14383359437E+03  0.99999687468E+00 0.  0.
          4    1    3    3  501    0 -0.11541792389E+02 -0.15198342564E+03  0.43326439254E+03  0.45929316180E+03  0.00000000000E+00 0.  1.
   -9000007    1    1    2    0  502 -0.10089127329E+03  0.22262929337E+03  0.76150636504E+03  0.89422301206E+03  0.40000000000E+03 0. -1.
<mgrwt>
<rscale>  2 0.46967891E+03</rscale>
<asrwt>0</asrwt>
<pdfrwt beam="1">  1       21 0.20283444E+00 0.46998314E+03</pdfrwt>
<pdfrwt beam="2">  1       21 0.27527054E-01 0.46998314E+03</pdfrwt>
<totfact> 0.13481056E+03</totfact>
</mgrwt>
</event>
<event>
 6    1  0.9502611E-004  0.4259691E+03  0.7818608E-02  0.1035144E+00
         21   -1    0    0  503  502  0.00000000000E+00  0.00000000000E+00  0.95472919848E+03  0.95472919848E+03  0.00000000000E+00 0.  1.
         21   -1    0    0  501  503 -0.00000000000E+00 -0.00000000000E+00 -0.19847050664E+03  0.19847050664E+03  0.00000000000E+00 0.  1.
    9000007    2    1    2  501    0 -0.95163378864E+02  0.11132670310E+03  0.49698379136E+03  0.65452829274E+03  0.39995586460E+03 0.  0.
    9000005    1    3    3    0    0  0.94780518769E+02 -0.65818508032E+02  0.28500056644E+02  0.11886410711E+03  0.99999687468E+00 0.  0.
          4    1    3    3  501    0 -0.18994389763E+03  0.17714521113E+03  0.46848373471E+03  0.53566418563E+03  0.00000000000E+00 0.  1.
   -9000007    1    1    2    0  502  0.95163378864E+02 -0.11132670310E+03  0.25927490048E+03  0.49867141237E+03  0.40000000000E+03 0.  1.
<mgrwt>
<rscale>  2 0.42595877E+03</rscale>
<asrwt>0</asrwt>
<pdfrwt beam="1">  1       21 0.14688141E+00 0.42596913E+03</pdfrwt>
<pdfrwt beam="2">  1       21 0.30533925E-01 0.42596913E+03</pdfrwt>
<totfact> 0.28302491E+03</totfact>
</mgrwt>
</event>
<event>
 6    1  0.9502611E-004  0.4855591E+03  0.7818608E-02  0.1017680E+00
         21   -1    0    0  503  502  0.00000000000E+00  0.00000000000E+00  0.20221167969E+04  0.20221167969E+04  0.00000000000E+00 0.  1.
         21   -1    0    0  501  503 -0.00000000000E+00 -0.00000000000E+00 -0.11741572425E+03  0.11741572425E+03  0.00000000000E+00 0.  1.
    9000007    2    1    2  501    0 -0.12551757007E+03  0.24317735543E+03  0.85262937459E+03  0.98119546119E+03  0.40109574426E+03 0.  0.
    9000005    1    3    3    0    0 -0.87979611057E+02  0.28752094535E+03  0.87004979160E+03  0.92054133304E+03  0.99999687468E+00 0.  0.
          4    1    3    3  501    0 -0.37537959011E+02 -0.44343589913E+02 -0.17420417014E+02  0.60654128153E+02  0.00000000000E+00 0.  1.
   -9000007    1    1    2    0  502  0.12551757007E+03 -0.24317735543E+03  0.10520716980E+04  0.11583370599E+04  0.40000000000E+03 0.  1.
<mgrwt>
<rscale>  2 0.48533280E+03</rscale>
<asrwt>0</asrwt>
<pdfrwt beam="1">  1       21 0.31109487E+00 0.48555914E+03</pdfrwt>
<pdfrwt beam="2">  1       21 0.18063959E-01 0.48555914E+03</pdfrwt>
<totfact> 0.64338465E+02</totfact>
</mgrwt>
</event>
<event>
 6    1  0.9502611E-004  0.4055901E+03  0.7818608E-02  0.1042172E+00
         21   -1    0    0  503  502  0.00000000000E+00  0.00000000000E+00  0.27318644693E+03  0.27318644693E+03  0.00000000000E+00 0.  1.
         21   -1    0    0  501  503 -0.00000000000E+00 -0.00000000000E+00 -0.60987687364E+03  0.60987687364E+03  0.00000000000E+00 0.  1.
    9000007    2    1    2  501    0 -0.48101093052E+02  0.46793031483E+02 -0.23231663313E+03  0.46425884145E+03  0.39631042238E+03 0.  0.
    9000005    1    3    3    0    0  0.10357665578E+03 -0.23163731429E+02  0.64118321928E+02  0.12400339220E+03  0.99999687468E+00 0.  0.
          4    1    3    3  501    0 -0.15167774883E+03  0.69956762912E+02 -0.29643495505E+03  0.34025544925E+03  0.00000000000E+00 0.  1.
   -9000007    1    1    2    0  502  0.48101093052E+02 -0.46793031483E+02 -0.10437379358E+03  0.41880447913E+03  0.40000000000E+03 0.  1.
<mgrwt>
<rscale>  2 0.40467743E+03</rscale>
<asrwt>0</asrwt>
<pdfrwt beam="1">  1       21 0.42028684E-01 0.40559007E+03</pdfrwt>
<pdfrwt beam="2">  1       21 0.93827211E-01 0.40559007E+03</pdfrwt>
<totfact> 0.46299076E+03</totfact>
</mgrwt>
</event>
<event>
 6    1  0.9502611E-004  0.4106969E+03  0.7818608E-02  0.1040174E+00
         21   -1    0    0  503  502  0.00000000000E+00  0.00000000000E+00  0.63633872016E+03  0.63633872016E+03  0.00000000000E+00 0. -1.
         21   -1    0    0  501  503 -0.00000000000E+00 -0.00000000000E+00 -0.27375278657E+03  0.27375278657E+03  0.00000000000E+00 0. -1.
    9000007    2    1    2  501    0 -0.90586208724E+02  0.10587498510E+02  0.99038647261E+02  0.42246959534E+03  0.40044219183E+03 0.  0.
    9000005    1    3    3    0    0 -0.60367683504E+02  0.18691454490E+03 -0.34236539727E+02  0.19938516733E+03  0.99999687468E+00 0.  0.
          4    1    3    3  501    0 -0.30218525220E+02 -0.17632704639E+03  0.13327518699E+03  0.22308442801E+03  0.00000000000E+00 0.  1.
   -9000007    1    1    2    0  502  0.90586208724E+02 -0.10587498510E+02  0.26354728632E+03  0.48762191139E+03  0.40000000000E+03 0. -1.
<mgrwt>
<rscale>  2 0.41058903E+03</rscale>
<asrwt>0</asrwt>
<pdfrwt beam="1">  1       21 0.97898264E-01 0.41069685E+03</pdfrwt>
<pdfrwt beam="2">  1       21 0.42115813E-01 0.41069685E+03</pdfrwt>
<totfact> 0.41560443E+03</totfact>
</mgrwt>
</event>
<event>
 6    1  0.9502611E-004  0.4287718E+03  0.7818608E-02  0.1034308E+00
         21   -1    0    0  503  502  0.00000000000E+00  0.00000000000E+00  0.18360230097E+03  0.18360230097E+03  0.00000000000E+00 0. -1.
         21   -1    0    0  501  503 -0.00000000000E+00 -0.00000000000E+00 -0.15251457468E+04  0.15251457468E+04  0.00000000000E+00 0.  1.
    9000007    2    1    2  501    0  0.15231433608E+03 -0.28129199278E+01 -0.11726910415E+04  0.12486190398E+04  0.40079628050E+03 0.  0.
    9000005    1    3    3    0    0 -0.39205242921E+02 -0.36210840336E+02  0.62617478369E+01  0.53744632384E+02  0.99999687468E+00 0.  0.
          4    1    3    3  501    0  0.19151957900E+03  0.33397920408E+02 -0.11789527893E+04  0.11948744075E+04  0.00000000000E+00 0.  1.
   -9000007    1    1    2    0  502 -0.15231433608E+03  0.28129199278E+01 -0.16885240442E+03  0.46012900796E+03  0.40000000000E+03 0. -1.
<mgrwt>
<rscale>  2 0.42858559E+03</rscale>
<asrwt>0</asrwt>
<pdfrwt beam="1">  1       21 0.28246509E-01 0.42877177E+03</pdfrwt>
<pdfrwt beam="2">  1       21 0.23463780E+00 0.42877177E+03</pdfrwt>
<totfact> 0.81653917E+02</totfact>
</mgrwt>
</event>
<event>
 6    1  0.9502611E-004  0.6503851E+03  0.7818608E-02  0.9806309E-01
         21   -1    0    0  503  502  0.00000000000E+00  0.00000000000E+00  0.43427433163E+03  0.43427433163E+03  0.00000000000E+00 0. -1.
         21   -1    0    0  501  503 -0.00000000000E+00 -0.00000000000E+00 -0.97327829997E+03  0.97327829997E+03  0.00000000000E+00 0. -1.
    9000007    2    1    2  501    0 -0.37332248257E+03 -0.35161213714E+03 -0.26465527830E+03  0.70167163971E+03  0.39912391894E+03 0.  0.
    9000005    1    3    3    0    0 -0.41821475897E+03 -0.20435260291E+03 -0.28589896307E+03  0.54626256326E+03  0.99999687468E+00 0.  0.
          4    1    3    3  501    0  0.44892276399E+02 -0.14725953423E+03  0.21243684775E+02  0.15540907646E+03  0.00000000000E+00 0.  1.
   -9000007    1    1    2    0  502  0.37332248257E+03  0.35161213714E+03 -0.27434869005E+03  0.70588099189E+03  0.40000000000E+03 0. -1.
<mgrwt>
<rscale>  2 0.65025044E+03</rscale>
<asrwt>0</asrwt>
<pdfrwt beam="1">  1       21 0.66811436E-01 0.65038509E+03</pdfrwt>
<pdfrwt beam="2">  1       21 0.14973512E+00 0.65038509E+03</pdfrwt>
<totfact> 0.47630278E+02</totfact>
</mgrwt>
</event>
<event>
 6    1  0.9502611E-004  0.5017571E+03  0.7818608E-02  0.1013346E+00
         21   -1    0    0  503  502  0.00000000000E+00  0.00000000000E+00  0.26531998741E+03  0.26531998741E+03  0.00000000000E+00 0.  1.
         21   -1    0    0  501  503 -0.00000000000E+00 -0.00000000000E+00 -0.95539578475E+03  0.95539578475E+03  0.00000000000E+00 0. -1.
    9000007    2    1    2  501    0 -0.20556585517E+03  0.22162567932E+03 -0.39826010049E+03  0.64060228027E+03  0.40048085010E+03 0.  0.
    9000005    1    3    3    0    0 -0.11809254027E+03  0.12366087091E+03 -0.46344298712E+03  0.49398204559E+03  0.99999687468E+00 0.  0.
          4    1    3    3  501    0 -0.87473314905E+02  0.97964808416E+02  0.65182886631E+02  0.14662023468E+03  0.00000000000E+00 0.  1.
   -9000007    1    1    2    0  502  0.20556585517E+03 -0.22162567932E+03 -0.29181569685E+03  0.58011349189E+03  0.40000000000E+03 0.  1.
<mgrwt>
<rscale>  2 0.50166113E+03</rscale>
<asrwt>0</asrwt>
<pdfrwt beam="1">  1       21 0.40818460E-01 0.50175709E+03</pdfrwt>
<pdfrwt beam="2">  1       21 0.14698397E+00 0.50175709E+03</pdfrwt>
<totfact> 0.15232111E+03</totfact>
</mgrwt>
</event>
<event>
 6    1  0.9502611E-004  0.4390514E+03  0.7818608E-02  0.1031052E+00
         21   -1    0    0  503  502  0.00000000000E+00  0.00000000000E+00  0.26538935796E+03  0.26538935796E+03  0.00000000000E+00 0. -1.
         21   -1    0    0  501  503 -0.00000000000E+00 -0.00000000000E+00 -0.13737795803E+04  0.13737795803E+04  0.00000000000E+00 0. -1.
    9000007    2    1    2  501    0 -0.17176055667E+03 -0.55753621665E+02 -0.11170222551E+04  0.12002103216E+04  0.40019488062E+03 0.  0.
    9000005    1    3    3    0    0  0.10378402722E+03 -0.34869871202E+02 -0.10708678079E+03  0.15315224725E+03  0.99999687468E+00 0.  0.
          4    1    3    3  501    0 -0.27554458389E+03 -0.20883750464E+02 -0.10099354743E+04  0.10470580743E+04  0.00000000000E+00 0.  1.
   -9000007    1    1    2    0  502  0.17176055667E+03  0.55753621665E+02  0.86320327759E+01  0.43895861667E+03  0.40000000000E+03 0.  1.
<mgrwt>
<rscale>  2 0.43900695E+03</rscale>
<asrwt>0</asrwt>
<pdfrwt beam="1">  1       21 0.40829132E-01 0.43905136E+03</pdfrwt>
<pdfrwt beam="2">  1       21 0.21135071E+00 0.43905136E+03</pdfrwt>
<totfact> 0.54350621E+02</totfact>
</mgrwt>
</event>
<event>
 6    1  0.9502611E-004  0.5480596E+03  0.7818608E-02  0.1001978E+00
         21   -1    0    0  503  502  0.00000000000E+00  0.00000000000E+00  0.20124760331E+03  0.20124760331E+03  0.00000000000E+00 0.  1.
         21   -1    0    0  501  503 -0.00000000000E+00 -0.00000000000E+00 -0.28043075633E+04  0.28043075633E+04  0.00000000000E+00 0. -1.
    9000007    2    1    2  501    0 -0.14245023999E+03  0.34559348946E+03 -0.23303310717E+04  0.23939114980E+04  0.40080222793E+03 0.  0.
    9000005    1    3    3    0    0 -0.36559451641E+02  0.40843786439E+03 -0.19944612396E+04  0.20361814061E+04  0.99999687468E+00 0.  0.
          4    1    3    3  501    0 -0.10589078835E+03 -0.62844374934E+02 -0.33586983208E+03  0.35773009186E+03  0.00000000000E+00 0.  1.
   -9000007    1    1    2    0  502  0.14245023999E+03 -0.34559348946E+03 -0.27272888837E+03  0.61164366863E+03  0.40000000000E+03 0.  1.
<mgrwt>
<rscale>  2 0.54791297E+03</rscale>
<asrwt>0</asrwt>
<pdfrwt beam="1">  1       21 0.30961173E-01 0.54805963E+03</pdfrwt>
<pdfrwt beam="2">  1       21 0.43143189E+00 0.54805963E+03</pdfrwt>
<totfact> 0.38077239E+01</totfact>
</mgrwt>
</event>
<event>
 6    1  0.9502611E-004  0.4661560E+03  0.7818608E-02  0.1023150E+00
         21   -1    0    0  503  502  0.00000000000E+00  0.00000000000E+00  0.90581524434E+03  0.90581524434E+03  0.00000000000E+00 0.  1.
         21   -1    0    0  501  503 -0.00000000000E+00 -0.00000000000E+00 -0.41935504786E+03  0.41935504786E+03  0.00000000000E+00 0.  1.
    9000007    2    1    2  501    0 -0.16788082581E+03 -0.16525764559E+03 -0.19112890870E+03  0.50381710596E+03  0.40225285011E+03 0.  0.
    9000005    1    3    3    0    0 -0.11003679320E+03 -0.29137503966E+03 -0.69088723650E+02  0.31903253960E+03  0.99999687468E+00 0.  0.
          4    1    3    3  501    0 -0.57844032613E+02  0.12611739408E+03 -0.12204018505E+03  0.18478456636E+03  0.00000000000E+00 0.  1.
   -9000007    1    1    2    0  502  0.16788082581E+03  0.16525764559E+03  0.67758910517E+03  0.82135318624E+03  0.40000000000E+03 0.  1.
<mgrwt>
<rscale>  2 0.46566958E+03</rscale>
<asrwt>0</asrwt>
<pdfrwt beam="1">  1       21 0.13935619E+00 0.46615600E+03</pdfrwt>
<pdfrwt beam="2">  1       21 0.64516162E-01 0.46615600E+03</pdfrwt>
<totfact> 0.66873182E+02</totfact>
</mgrwt>
</event>
<event>
 6    1  0.9502611E-004  0.4635927E+03  0.7818608E-02  0.1023758E+00
         21   -1    0    0  503  502  0.00000000000E+00  0.00000000000E+00  0.54680563067E+03  0.54680563067E+03  0.00000000000E+00 0. -1.
         21   -1    0    0  501  503 -0.00000000000E+00 -0.00000000000E+00 -0.39288179636E+03  0.39288179636E+03  0.00000000000E+00 0. -1.
    9000007    2    1    2  501    0  0.22988860305E+03 -0.45491020566E+02  0.78416196257E+02  0.46998581306E+03  0.39977413858E+03 0.  0.
    9000005    1    3    3    0    0  0.30655814418E+03 -0.45584443894E+02 -0.56278971832E+02  0.31499866659E+03  0.99999687468E+00 0.  0.
          4    1    3    3  501    0 -0.76669541128E+02  0.93423328302E-01  0.13469516809E+03  0.15498714647E+03  0.00000000000E+00 0.  1.
   -9000007    1    1    2    0  502 -0.22988860305E+03  0.45491020566E+02  0.75507638055E+02  0.46970161397E+03  0.40000000000E+03 0. -1.
<mgrwt>
<rscale>  2 0.46354399E+03</rscale>
<asrwt>0</asrwt>
<pdfrwt beam="1">  1       21 0.84123943E-01 0.46359271E+03</pdfrwt>
<pdfrwt beam="2">  1       21 0.60443353E-01 0.46359271E+03</pdfrwt>
<totfact> 0.27058984E+03</totfact>
</mgrwt>
</event>
<event>
 6    1  0.9502611E-004  0.5367874E+03  0.7818608E-02  0.1004624E+00
         21   -1    0    0  503  502  0.00000000000E+00  0.00000000000E+00  0.41924568652E+03  0.41924568652E+03  0.00000000000E+00 0. -1.
         21   -1    0    0  501  503 -0.00000000000E+00 -0.00000000000E+00 -0.20715176114E+04  0.20715176114E+04  0.00000000000E+00 0. -1.
    9000007    2    1    2  501    0  0.32342220315E+03 -0.15342366073E+03 -0.18442601578E+04  0.19206753901E+04  0.39944672157E+03 0.  0.
    9000005    1    3    3    0    0  0.38940962752E+03 -0.14985200650E+03 -0.17808944904E+04  0.18291204629E+04  0.99999687468E+00 0.  0.
          4    1    3    3  501    0 -0.65987424369E+02 -0.35716542295E+01 -0.63365667325E+02  0.91554927143E+02  0.00000000000E+00 0.  1.
   -9000007    1    1    2    0  502 -0.32342220315E+03  0.15342366073E+03  0.19198823285E+03  0.57008790788E+03  0.40000000000E+03 0. -1.
<mgrwt>
<rscale>  2 0.53668436E+03</rscale>
<asrwt>0</asrwt>
<pdfrwt beam="1">  1       21 0.64499336E-01 0.53678743E+03</pdfrwt>
<pdfrwt beam="2">  1       21 0.31869502E+00 0.53678743E+03</pdfrwt>
<totfact> 0.42243970E+01</totfact>
</mgrwt>
</event>
<event>
 6    1  0.9502611E-004  0.5239837E+03  0.7818608E-02  0.1007712E+00
         21   -1    0    0  503  502  0.00000000000E+00  0.00000000000E+00  0.14344313057E+03  0.14344313057E+03  0.00000000000E+00 0.  1.
         21   -1    0    0  501  503 -0.00000000000E+00 -0.00000000000E+00 -0.20572188603E+04  0.20572188603E+04  0.00000000000E+00 0. -1.
    9000007    2    1    2  501    0  0.33840240056E+03  0.65366970678E+01 -0.12476495837E+04  0.13531462355E+04  0.39977035647E+03 0.  0.
    9000005    1    3    3    0    0  0.20749085749E+03 -0.16090399501E+03 -0.96143746832E+03  0.99664715775E+03  0.99999687468E+00 0.  0.
          4    1    3    3  501    0  0.13091154307E+03  0.16744069207E+03 -0.28621211534E+03  0.35649907775E+03  0.00000000000E+00 0.  1.
   -9000007    1    1    2    0  502 -0.33840240056E+03 -0.65366970678E+01 -0.66612614605E+03  0.84751575535E+03  0.40000000000E+03 0.  1.
<mgrwt>
<rscale>  2 0.52393987E+03</rscale>
<asrwt>0</asrwt>
<pdfrwt beam="1">  1       21 0.22068175E-01 0.52398370E+03</pdfrwt>
<pdfrwt beam="2">  1       21 0.31649519E+00 0.52398370E+03</pdfrwt>
<totfact> 0.39944892E+02</totfact>
</mgrwt>
</event>
<event>
 6    1  0.9502611E-004  0.4076631E+03  0.7818608E-02  0.1041187E+00
         21   -1    0    0  503  502  0.00000000000E+00  0.00000000000E+00  0.23451400174E+04  0.23451400174E+04  0.00000000000E+00 0.  1.
         21   -1    0    0  501  503 -0.00000000000E+00 -0.00000000000E+00 -0.88295162017E+02  0.88295162017E+02  0.00000000000E+00 0.  1.
    9000007    2    1    2  501    0 -0.48973101404E+02  0.61569765768E+02  0.58654923315E+03  0.71411069976E+03  0.39965596189E+03 0.  0.
    9000005    1    3    3    0    0  0.51058987599E+02  0.32532012624E+02  0.60526072590E+03  0.60828192343E+03  0.99999687468E+00 0.  0.
          4    1    3    3  501    0 -0.10003208900E+03  0.29037753144E+02 -0.18711492748E+02  0.10582877633E+03  0.00000000000E+00 0.  1.
   -9000007    1    1    2    0  502  0.48973101404E+02 -0.61569765768E+02  0.16702956222E+04  0.17193244796E+04  0.40000000000E+03 0.  1.
<mgrwt>
<rscale>  2 0.40757868E+03</rscale>
<asrwt>0</asrwt>
<pdfrwt beam="1">  1       21 0.36079073E+00 0.40766310E+03</pdfrwt>
<pdfrwt beam="2">  1       21 0.13583873E-01 0.40766310E+03</pdfrwt>
<totfact> 0.57081355E+02</totfact>
</mgrwt>
</event>
<event>
 6    1  0.9502611E-004  0.4324753E+03  0.7818608E-02  0.1033110E+00
         21   -1    0    0  503  502  0.00000000000E+00  0.00000000000E+00  0.15722574477E+04  0.15722574477E+04  0.00000000000E+00 0.  1.
         21   -1    0    0  501  503 -0.00000000000E+00 -0.00000000000E+00 -0.11927874496E+03  0.11927874496E+03  0.00000000000E+00 0.  1.
    9000007    2    1    2  501    0  0.16570997276E+01  0.16343659269E+03  0.67653715400E+03  0.80295544538E+03  0.40040062527E+03 0.  0.
    9000005    1    3    3    0    0  0.11452021032E+03 -0.74924089210E+02  0.39099744257E+03  0.41425656036E+03  0.99999687468E+00 0.  0.
          4    1    3    3  501    0 -0.11286311059E+03  0.23836068190E+03  0.28553971143E+03  0.38869888502E+03  0.00000000000E+00 0.  1.
   -9000007    1    1    2    0  502 -0.16570997276E+01 -0.16343659269E+03  0.77644154876E+03  0.88858074728E+03  0.40000000000E+03 0.  1.
<mgrwt>
<rscale>  2 0.43238260E+03</rscale>
<asrwt>0</asrwt>
<pdfrwt beam="1">  1       21 0.24188575E+00 0.43247535E+03</pdfrwt>
<pdfrwt beam="2">  1       21 0.18350577E-01 0.43247535E+03</pdfrwt>
<totfact> 0.16867721E+03</totfact>
</mgrwt>
</event>
<event>
 6    1  0.9502611E-004  0.4318620E+03  0.7818608E-02  0.1033333E+00
         21   -1    0    0  503  502  0.00000000000E+00  0.00000000000E+00  0.22458172475E+03  0.22458172475E+03  0.00000000000E+00 0. -1.
         21   -1    0    0  501  503 -0.00000000000E+00 -0.00000000000E+00 -0.15402482111E+04  0.15402482111E+04  0.00000000000E+00 0.  1.
    9000007    2    1    2  501    0  0.11792998225E+03 -0.10929716172E+03 -0.12577781377E+04  0.13298536018E+04  0.40081343343E+03 0.  0.
    9000005    1    3    3    0    0  0.20984137465E+03 -0.12272984444E+03 -0.40739937991E+03  0.47441677034E+03  0.99999687468E+00 0.  0.
          4    1    3    3  501    0 -0.91911392404E+02  0.13432682722E+02 -0.85037875777E+03  0.85543683150E+03  0.00000000000E+00 0.  1.
   -9000007    1    1    2    0  502 -0.11792998225E+03  0.10929716172E+03 -0.57888348712E+02  0.43497633406E+03  0.40000000000E+03 0. -1.
<mgrwt>
<rscale>  2 0.43167313E+03</rscale>
<asrwt>0</asrwt>
<pdfrwt beam="1">  1       21 0.34551033E-01 0.43186197E+03</pdfrwt>
<pdfrwt beam="2">  1       21 0.23696127E+00 0.43186197E+03</pdfrwt>
<totfact> 0.52755767E+02</totfact>
</mgrwt>
</event>
<event>
 6    1  0.9502611E-004  0.4933550E+03  0.7818608E-02  0.1015602E+00
         21   -1    0    0  503  502  0.00000000000E+00  0.00000000000E+00  0.23303953897E+03  0.23303953897E+03  0.00000000000E+00 0.  1.
         21   -1    0    0  501  503 -0.00000000000E+00 -0.00000000000E+00 -0.11560289920E+04  0.11560289920E+04  0.00000000000E+00 0. -1.
    9000007    2    1    2  501    0  0.20020724496E+03  0.20812555643E+03 -0.67905071392E+03  0.83870020287E+03  0.39863387969E+03 0.  0.
    9000005    1    3    3    0    0 -0.65776870236E+02  0.57761816336E+02 -0.44576411397E+03  0.45427928566E+03  0.99999687468E+00 0.  0.
          4    1    3    3  501    0  0.26598411519E+03  0.15036374009E+03 -0.23328659996E+03  0.38442091721E+03  0.00000000000E+00 0.  1.
   -9000007    1    1    2    0  502 -0.20020724496E+03 -0.20812555643E+03 -0.24393873915E+03  0.55036832815E+03  0.40000000000E+03 0.  1.
<mgrwt>
<rscale>  2 0.49307806E+03</rscale>
<asrwt>0</asrwt>
<pdfrwt beam="1">  1       21 0.35852236E-01 0.49335503E+03</pdfrwt>
<pdfrwt beam="2">  1       21 0.17785062E+00 0.49335503E+03</pdfrwt>
<totfact> 0.11678124E+03</totfact>
</mgrwt>
</event>
<event>
 6    1  0.9502611E-004  0.4218065E+03  0.7818608E-02  0.1036488E+00
         21   -1    0    0  503  502  0.00000000000E+00  0.00000000000E+00  0.40297077467E+03  0.40297077467E+03  0.00000000000E+00 0.  1.
         21   -1    0    0  501  503 -0.00000000000E+00 -0.00000000000E+00 -0.68643678973E+03  0.68643678973E+03  0.00000000000E+00 0.  1.
    9000007    2    1    2  501    0  0.59246963153E+02 -0.11968647719E+03  0.18368876595E+03  0.46006771591E+03  0.40010709194E+03 0.  0.
    9000005    1    3    3    0    0  0.13666342212E+03 -0.19707918052E+03 -0.72908895296E+01  0.23994009962E+03  0.99999687468E+00 0.  0.
          4    1    3    3  501    0 -0.77416458968E+02  0.77392703331E+02  0.19097965548E+03  0.22012761630E+03  0.00000000000E+00 0.  1.
   -9000007    1    1    2    0  502 -0.59246963153E+02  0.11968647719E+03 -0.46715478102E+03  0.62933984849E+03  0.40000000000E+03 0.  1.
<mgrwt>
<rscale>  2 0.42178112E+03</rscale>
<asrwt>0</asrwt>
<pdfrwt beam="1">  1       21 0.61995504E-01 0.42180652E+03</pdfrwt>
<pdfrwt beam="2">  1       21 0.10560566E+00 0.42180652E+03</pdfrwt>
<totfact> 0.15083355E+03</totfact>
</mgrwt>
</event>
<event>
 6    1  0.9502611E-004  0.4137059E+03  0.7818608E-02  0.1039220E+00
         21   -1    0    0  503  502  0.00000000000E+00  0.00000000000E+00  0.87323205950E+03  0.87323205950E+03  0.00000000000E+00 0. -1.
         21   -1    0    0  501  503 -0.00000000000E+00 -0.00000000000E+00 -0.38643825842E+03  0.38643825842E+03  0.00000000000E+00 0. -1.
    9000007    2    1    2  501    0 -0.79821925050E+02  0.69145242969E+02 -0.19946739376E+03  0.45835450510E+03  0.39893484033E+03 0.  0.
    9000005    1    3    3    0    0  0.15858763347E+03 -0.16146190451E+02 -0.73306361356E+02  0.17545814191E+03  0.99999687468E+00 0.  0.
          4    1    3    3  501    0 -0.23840955852E+03  0.85291433419E+02 -0.12616103240E+03  0.28289636318E+03  0.00000000000E+00 0.  1.
   -9000007    1    1    2    0  502  0.79821925050E+02 -0.69145242969E+02  0.68626119484E+03  0.80131581282E+03  0.40000000000E+03 0. -1.
<mgrwt>
<rscale>  2 0.41344825E+03</rscale>
<asrwt>0</asrwt>
<pdfrwt beam="1">  1       21 0.13434339E+00 0.41370594E+03</pdfrwt>
<pdfrwt beam="2">  1       21 0.59452040E-01 0.41370594E+03</pdfrwt>
<totfact> 0.90264852E+02</totfact>
</mgrwt>
</event>
<event>
 6    1  0.9502611E-004  0.4497678E+03  0.7818608E-02  0.1027820E+00
         21   -1    0    0  503  502  0.00000000000E+00  0.00000000000E+00  0.16333249997E+04  0.16333249997E+04  0.00000000000E+00 0.  1.
         21   -1    0    0  501  503 -0.00000000000E+00 -0.00000000000E+00 -0.13885082063E+03  0.13885082063E+03  0.00000000000E+00 0.  1.
    9000007    2    1    2  501    0  0.14815865400E+03 -0.14142218210E+03  0.45528475544E+03  0.63998066112E+03  0.40042454686E+03 0.  0.
    9000005    1    3    3    0    0  0.14648581161E+03  0.42530110276E+02  0.39431654812E+01  0.15258916027E+03  0.99999687468E+00 0.  0.
          4    1    3    3  501    0  0.16728423835E+01 -0.18395229238E+03  0.45134158996E+03  0.48739150085E+03  0.00000000000E+00 0.  1.
   -9000007    1    1    2    0  502 -0.14815865400E+03  0.14142218210E+03  0.10391894237E+04  0.11321951592E+04  0.40000000000E+03 0.  1.
<mgrwt>
<rscale>  2 0.44967325E+03</rscale>
<asrwt>0</asrwt>
<pdfrwt beam="1">  1       21 0.25128076E+00 0.44976776E+03</pdfrwt>
<pdfrwt beam="2">  1       21 0.21361666E-01 0.44976776E+03</pdfrwt>
<totfact> 0.10967435E+03</totfact>
</mgrwt>
</event>
<event>
 6    1  0.9502611E-004  0.5134931E+03  0.7818608E-02  0.1010338E+00
         21   -1    0    0  503  502  0.00000000000E+00  0.00000000000E+00  0.28091599578E+03  0.28091599578E+03  0.00000000000E+00 0. -1.
         21   -1    0    0  501  503 -0.00000000000E+00 -0.00000000000E+00 -0.10795301749E+04  0.10795301749E+04  0.00000000000E+00 0. -1.
    9000007    2    1    2  501    0 -0.32132108337E+03  0.20685619363E+02 -0.64550606854E+03  0.82461296247E+03  0.39954138696E+03 0.  0.
    9000005    1    3    3    0    0 -0.38822464169E+03  0.11100484112E+01 -0.64739580225E+03  0.75487875144E+03  0.99999687468E+00 0.  0.
          4    1    3    3  501    0  0.66903558320E+02  0.19575570952E+02  0.18897337110E+01  0.69734211026E+02  0.00000000000E+00 0.  1.
   -9000007    1    1    2    0  502  0.32132108337E+03 -0.20685619363E+02 -0.15310811055E+03  0.53583320817E+03  0.40000000000E+03 0. -1.
<mgrwt>
<rscale>  2 0.51340375E+03</rscale>
<asrwt>0</asrwt>
<pdfrwt beam="1">  1       21 0.43217846E-01 0.51349307E+03</pdfrwt>
<pdfrwt beam="2">  1       21 0.16608156E+00 0.51349307E+03</pdfrwt>
<totfact> 0.96003666E+02</totfact>
</mgrwt>
</event>
<event>
 6    1  0.9502611E-004  0.4151008E+03  0.7818608E-02  0.1038744E+00
         21   -1    0    0  503  502  0.00000000000E+00  0.00000000000E+00  0.14140729169E+04  0.14140729169E+04  0.00000000000E+00 0.  1.
         21   -1    0    0  501  503 -0.00000000000E+00 -0.00000000000E+00 -0.14882666541E+03  0.14882666541E+03  0.00000000000E+00 0.  1.
    9000007    2    1    2  501    0 -0.94088794062E+02 -0.52398308424E+02  0.29892632960E+03  0.51153262670E+03  0.40088700872E+03 0.  0.
    9000005    1    3    3    0    0 -0.11587861250E+03  0.14730079451E+03  0.23528575562E+03  0.30080851665E+03  0.99999687468E+00 0.  0.
          4    1    3    3  501    0  0.21789818438E+02 -0.19969910294E+03  0.63640573980E+02  0.21072411005E+03  0.00000000000E+00 0.  1.
   -9000007    1    1    2    0  502  0.94088794062E+02  0.52398308424E+02  0.96631992186E+03  0.10513669556E+04  0.40000000000E+03 0.  1.
<mgrwt>
<rscale>  2 0.41488650E+03</rscale>
<asrwt>0</asrwt>
<pdfrwt beam="1">  1       21 0.21754967E+00 0.41510080E+03</pdfrwt>
<pdfrwt beam="2">  1       21 0.22896411E-01 0.41510080E+03</pdfrwt>
<totfact> 0.15864522E+03</totfact>
</mgrwt>
</event>
<event>
 6    1  0.9502611E-004  0.5169854E+03  0.7818608E-02  0.1009469E+00
         21   -1    0    0  503  502  0.00000000000E+00  0.00000000000E+00  0.15823742804E+04  0.15823742804E+04  0.00000000000E+00 0. -1.
         21   -1    0    0  501  503 -0.00000000000E+00 -0.00000000000E+00 -0.17035671392E+03  0.17035671392E+03  0.00000000000E+00 0.  1.
    9000007    2    1    2  501    0  0.32671337869E+03  0.41398970559E+01  0.62108067653E+03  0.80809353240E+03  0.40064345718E+03 0.  0.
    9000005    1    3    3    0    0  0.66754501744E+02 -0.15001316588E+03  0.40368072540E+03  0.43579724815E+03  0.99999687468E+00 0.  0.
          4    1    3    3  501    0  0.25995887695E+03  0.15415306293E+03  0.21739995113E+03  0.37229628425E+03  0.00000000000E+00 0.  1.
   -9000007    1    1    2    0  502 -0.32671337869E+03 -0.41398970559E+01  0.79093688993E+03  0.94463746190E+03  0.40000000000E+03 0.  1.
<mgrwt>
<rscale>  2 0.51686078E+03</rscale>
<asrwt>0</asrwt>
<pdfrwt beam="1">  1       21 0.24344219E+00 0.51698545E+03</pdfrwt>
<pdfrwt beam="2">  1       21 0.26208726E-01 0.51698545E+03</pdfrwt>
<totfact> 0.79966488E+02</totfact>
</mgrwt>
</event>
<event>
 6    1  0.9502611E-004  0.4250918E+03  0.7818608E-02  0.1035791E+00
         21   -1    0    0  503  502  0.00000000000E+00  0.00000000000E+00  0.23469685227E+03  0.23469685227E+03  0.00000000000E+00 0.  1.
         21   -1    0    0  501  503 -0.00000000000E+00 -0.00000000000E+00 -0.17024306531E+04  0.17024306531E+04  0.00000000000E+00 0.  1.
    9000007    2    1    2  501    0 -0.14379303885E+03 -0.51582042245E+01 -0.14520853801E+04  0.15117477713E+04  0.39512824205E+03 0.  0.
    9000005    1    3    3    0    0  0.83752494585E+02 -0.26042790844E+02 -0.73744682889E+02  0.11459487577E+03  0.99999687468E+00 0.  0.
          4    1    3    3  501    0 -0.22754553343E+03  0.20884586619E+02 -0.13783406973E+04  0.13971528955E+04  0.00000000000E+00 0.  1.
   -9000007    1    1    2    0  502  0.14379303885E+03  0.51582042245E+01 -0.15648420679E+02  0.42537973408E+03  0.40000000000E+03 0.  1.
<mgrwt>
<rscale>  2 0.42394191E+03</rscale>
<asrwt>0</asrwt>
<pdfrwt beam="1">  1       21 0.36107207E-01 0.42509181E+03</pdfrwt>
<pdfrwt beam="2">  1       21 0.26191242E+00 0.42509181E+03</pdfrwt>
<totfact> 0.34050456E+02</totfact>
</mgrwt>
</event>
<event>
 6    1  0.9502611E-004  0.4453024E+03  0.7818608E-02  0.1029151E+00
         21   -1    0    0  503  502  0.00000000000E+00  0.00000000000E+00  0.87336096213E+03  0.87336096213E+03  0.00000000000E+00 0. -1.
         21   -1    0    0  501  503 -0.00000000000E+00 -0.00000000000E+00 -0.23987368157E+03  0.23987368157E+03  0.00000000000E+00 0.  1.
    9000007    2    1    2  501    0  0.19414841534E+03  0.19342816211E+02  0.44618981379E+03  0.63038053242E+03  0.40028304237E+03 0.  0.
    9000005    1    3    3    0    0  0.11712225008E+03  0.19783400492E+03  0.33537707249E+03  0.40661369346E+03  0.99999687468E+00 0.  0.
          4    1    3    3  501    0  0.77026165263E+02 -0.17849118871E+03  0.11081274130E+03  0.22376683896E+03  0.00000000000E+00 0.  1.
   -9000007    1    1    2    0  502 -0.19414841534E+03 -0.19342816211E+02  0.18729746677E+03  0.48285411128E+03  0.40000000000E+03 0.  1.
<mgrwt>
<rscale>  2 0.44523883E+03</rscale>
<asrwt>0</asrwt>
<pdfrwt beam="1">  1       21 0.13436322E+00 0.44530244E+03</pdfrwt>
<pdfrwt beam="2">  1       21 0.36903644E-01 0.44530244E+03</pdfrwt>
<totfact> 0.24311488E+03</totfact>
</mgrwt>
</event>
<event>
 6    1  0.9502611E-004  0.4014791E+03  0.7818608E-02  0.1043270E+00
         21   -1    0    0  503  502  0.00000000000E+00  0.00000000000E+00  0.74161921429E+03  0.74161921429E+03  0.00000000000E+00 0.  1.
         21   -1    0    0  501  503 -0.00000000000E+00 -0.00000000000E+00 -0.21954438850E+03  0.21954438850E+03  0.00000000000E+00 0.  1.
    9000007    2    1    2  501    0  0.10811448093E+02  0.32519006309E+02  0.21283262646E+03  0.45440418154E+03  0.40001382492E+03 0.  0.
    9000005    1    3    3    0    0 -0.13196467161E+03  0.11236188986E+03  0.23211570465E+03  0.28968701936E+03  0.99999687468E+00 0.  0.
          4    1    3    3  501    0  0.14277611970E+03 -0.79842883549E+02 -0.19283078192E+02  0.16471716218E+03  0.00000000000E+00 0.  1.
   -9000007    1    1    2    0  502 -0.10811448093E+02 -0.32519006309E+02  0.30924219933E+03  0.50675942125E+03  0.40000000000E+03 0.  1.
<mgrwt>
<rscale>  2 0.40147561E+03</rscale>
<asrwt>0</asrwt>
<pdfrwt beam="1">  1       21 0.11409526E+00 0.40147906E+03</pdfrwt>
<pdfrwt beam="2">  1       21 0.33776060E-01 0.40147906E+03</pdfrwt>
<totfact> 0.44923273E+03</totfact>
</mgrwt>
</event>
<event>
 6    1  0.9502611E-004  0.5082171E+03  0.7818608E-02  0.1011678E+00
         21   -1    0    0  503  502  0.00000000000E+00  0.00000000000E+00  0.59830111031E+03  0.59830111031E+03  0.00000000000E+00 0.  1.
         21   -1    0    0  501  503 -0.00000000000E+00 -0.00000000000E+00 -0.48955171824E+03  0.48955171824E+03  0.00000000000E+00 0.  1.
    9000007    2    1    2  501    0 -0.67118405657E+02  0.30623473273E+03 -0.13309003973E+03  0.52502878617E+03  0.39957186554E+03 0.  0.
    9000005    1    3    3    0    0  0.45479103920E+02 -0.80591989467E+02  0.18858504463E+02  0.94446073735E+02  0.99999687468E+00 0.  0.
          4    1    3    3  501    0 -0.11259750958E+03  0.38682672220E+03 -0.15194854419E+03  0.43058271244E+03  0.00000000000E+00 0.  1.
   -9000007    1    1    2    0  502  0.67118405657E+02 -0.30623473273E+03  0.24183943179E+03  0.56282404238E+03  0.40000000000E+03 0.  1.
<mgrwt>
<rscale>  2 0.50813283E+03</rscale>
<asrwt>0</asrwt>
<pdfrwt beam="1">  1       21 0.92046325E-01 0.50821707E+03</pdfrwt>
<pdfrwt beam="2">  1       21 0.75315649E-01 0.50821707E+03</pdfrwt>
<totfact> 0.13154587E+03</totfact>
</mgrwt>
</event>
<event>
 6    1  0.9502611E-004  0.7889779E+03  0.7818608E-02  0.9576192E-01
         21   -1    0    0  503  502  0.00000000000E+00  0.00000000000E+00  0.55169181676E+03  0.55169181676E+03  0.00000000000E+00 0. -1.
         21   -1    0    0  501  503 -0.00000000000E+00 -0.00000000000E+00 -0.18814570824E+04  0.18814570824E+04  0.00000000000E+00 0.  1.
    9000007    2    1    2  501    0  0.30859535532E+03 -0.60601574136E+03 -0.14347013161E+04  0.16372231822E+04  0.39955689182E+03 0.  0.
    9000005    1    3    3    0    0  0.25601358274E+03 -0.42576453218E+03 -0.58719548968E+03  0.76916703940E+03  0.99999687468E+00 0.  0.
          4    1    3    3  501    0  0.52581772577E+02 -0.18025120918E+03 -0.84750582646E+03  0.86805614283E+03  0.00000000000E+00 0.  1.
   -9000007    1    1    2    0  502 -0.30859535532E+03  0.60601574136E+03  0.10493605054E+03  0.79592571689E+03  0.40000000000E+03 0. -1.
<mgrwt>
<rscale>  2 0.78892178E+03</rscale>
<asrwt>0</asrwt>
<pdfrwt beam="1">  1       21 0.84875666E-01 0.78897793E+03</pdfrwt>
<pdfrwt beam="2">  1       21 0.28945493E+00 0.78897793E+03</pdfrwt>
<totfact> 0.30235256E+01</totfact>
</mgrwt>
</event>
<event>
 6    1  0.9502611E-004  0.4353542E+03  0.7818608E-02  0.1032225E+00
         21   -1    0    0  503  502  0.00000000000E+00  0.00000000000E+00  0.22523597156E+04  0.22523597156E+04  0.00000000000E+00 0.  1.
         21   -1    0    0  501  503 -0.00000000000E+00 -0.00000000000E+00 -0.90418756355E+02  0.90418756355E+02  0.00000000000E+00 0.  1.
    9000007    2    1    2  501    0  0.11289041902E+03 -0.12769666696E+03  0.13927006569E+04  0.14591601561E+04  0.40060274062E+03 0.  0.
    9000005    1    3    3    0    0  0.18175768569E+03 -0.68644501800E+02  0.26913251800E+03  0.33193559041E+03  0.99999687468E+00 0.  0.
          4    1    3    3  501    0 -0.68867266671E+02 -0.59052165164E+02  0.11235681389E+04  0.11272245657E+04  0.00000000000E+00 0.  1.
   -9000007    1    1    2    0  502 -0.11289041902E+03  0.12769666696E+03  0.76924030231E+03  0.88361831588E+03  0.40000000000E+03 0.  1.
<mgrwt>
<rscale>  2 0.43521545E+03</rscale>
<asrwt>0</asrwt>
<pdfrwt beam="1">  1       21 0.34651684E+00 0.43535416E+03</pdfrwt>
<pdfrwt beam="2">  1       21 0.13910580E-01 0.43535416E+03</pdfrwt>
<totfact> 0.65688502E+02</totfact>
</mgrwt>
</event>
<event>
 6    1  0.9502611E-004  0.4250129E+03  0.7818608E-02  0.1036525E+00
         21   -1    0    0  503  502  0.00000000000E+00  0.00000000000E+00  0.18099561995E+03  0.18099561995E+03  0.00000000000E+00 0.  1.
         21   -1    0    0  501  503 -0.00000000000E+00 -0.00000000000E+00 -0.16066870037E+04  0.16066870037E+04  0.00000000000E+00 0.  1.
    9000007    2    1    2  501    0 -0.63907079550E+02  0.12865410949E+03 -0.12699335263E+04  0.13350276724E+04  0.38591674018E+03 0.  0.
    9000005    1    3    3    0    0  0.67787135063E+02  0.37442592720E+02 -0.27310801331E+02  0.82121393636E+02  0.99999687468E+00 0.  0.
          4    1    3    3  501    0 -0.13169421461E+03  0.91211516771E+02 -0.12426227249E+04  0.12529062788E+04  0.00000000000E+00 0.  1.
   -9000007    1    1    2    0  502  0.63907079550E+02 -0.12865410949E+03 -0.15575785752E+03  0.45265495124E+03  0.40000000000E+03 0.  1.
<mgrwt>
<rscale>  2 0.42166690E+03</rscale>
<asrwt>0</asrwt>
<pdfrwt beam="1">  1       21 0.27845480E-01 0.42501293E+03</pdfrwt>
<pdfrwt beam="2">  1       21 0.24718261E+00 0.42501293E+03</pdfrwt>
<totfact> 0.70382504E+02</totfact>
</mgrwt>
</event>
<event>
 6    1  0.9502611E-004  0.6026927E+03  0.7818608E-02  0.9899991E-01
         21   -1    0    0  503  502  0.00000000000E+00  0.00000000000E+00  0.17802383922E+03  0.17802383922E+03  0.00000000000E+00 0.  1.
         21   -1    0    0  501  503 -0.00000000000E+00 -0.00000000000E+00 -0.22478659309E+04  0.22478659309E+04  0.00000000000E+00 0. -1.
    9000007    2    1    2  501    0 -0.42048487043E+03  0.16257606814E+03 -0.66528004426E+03  0.89748110446E+03  0.39954510557E+03 0.  0.
    9000005    1    3    3    0    0 -0.85362993942E+02  0.20398522759E+03 -0.10851005500E+03  0.24631736812E+03  0.99999687468E+00 0.  0.
          4    1    3    3  501    0 -0.33512187648E+03 -0.41409159447E+02 -0.55676998926E+03  0.65116373634E+03  0.00000000000E+00 0.  1.
   -9000007    1    1    2    0  502  0.42048487043E+03 -0.16257606814E+03 -0.14045620474E+04  0.15284086657E+04  0.40000000000E+03 0.  1.
<mgrwt>
<rscale>  2 0.60261724E+03</rscale>
<asrwt>0</asrwt>
<pdfrwt beam="1">  1       21 0.27388283E-01 0.60269271E+03</pdfrwt>
<pdfrwt beam="2">  1       21 0.34582553E+00 0.60269271E+03</pdfrwt>
<totfact> 0.16675275E+02</totfact>
</mgrwt>
</event>
<event>
 6    1  0.9502611E-004  0.4725166E+03  0.7818608E-02  0.1021226E+00
         21   -1    0    0  503  502  0.00000000000E+00  0.00000000000E+00  0.10700355486E+04  0.10700355486E+04  0.00000000000E+00 0. -1.
         21   -1    0    0  501  503 -0.00000000000E+00 -0.00000000000E+00 -0.22611122471E+03  0.22611122471E+03  0.00000000000E+00 0. -1.
    9000007    2    1    2  501    0 -0.35576260801E+02  0.24901057636E+03  0.60238009591E+03  0.76547215406E+03  0.39976730884E+03 0.  0.
    9000005    1    3    3    0    0 -0.16631590440E+03  0.23674845058E+03  0.22688967418E+03  0.36768292475E+03  0.99999687468E+00 0.  0.
          4    1    3    3  501    0  0.13073964360E+03  0.12262125776E+02  0.37549042174E+03  0.39778922931E+03  0.00000000000E+00 0.  1.
   -9000007    1    1    2    0  502  0.35576260801E+02 -0.24901057636E+03  0.24154422801E+03  0.53067461929E+03  0.40000000000E+03 0. -1.
<mgrwt>
<rscale>  2 0.47246735E+03</rscale>
<asrwt>0</asrwt>
<pdfrwt beam="1">  1       21 0.16462085E+00 0.47251660E+03</pdfrwt>
<pdfrwt beam="2">  1       21 0.34786343E-01 0.47251660E+03</pdfrwt>
<totfact> 0.15623804E+03</totfact>
</mgrwt>
</event>
<event>
 6    1  0.9502611E-004  0.4619863E+03  0.7818608E-02  0.1024221E+00
         21   -1    0    0  503  502  0.00000000000E+00  0.00000000000E+00  0.53402390961E+03  0.53402390961E+03  0.00000000000E+00 0.  1.
         21   -1    0    0  501  503 -0.00000000000E+00 -0.00000000000E+00 -0.43846549392E+03  0.43846549392E+03  0.00000000000E+00 0.  1.
    9000007    2    1    2  501    0  0.77699618871E+01 -0.23102164457E+03 -0.97193372224E+02  0.47190512060E+03  0.39977058256E+03 0.  0.
    9000005    1    3    3    0    0 -0.16736286399E+03  0.49086012717E+01 -0.46102841594E+02  0.17366892239E+03  0.99999687468E+00 0.  0.
          4    1    3    3  501    0  0.17513282587E+03 -0.23593024585E+03 -0.51090530630E+02  0.29823619821E+03  0.00000000000E+00 0.  1.
   -9000007    1    1    2    0  502 -0.77699618871E+01  0.23102164457E+03  0.19275178791E+03  0.50058428293E+03  0.40000000000E+03 0.  1.
<mgrwt>
<rscale>  2 0.46193667E+03</rscale>
<asrwt>0</asrwt>
<pdfrwt beam="1">  1       21 0.82157525E-01 0.46198633E+03</pdfrwt>
<pdfrwt beam="2">  1       21 0.67456230E-01 0.46198633E+03</pdfrwt>
<totfact> 0.22429079E+03</totfact>
</mgrwt>
</event>
<event>
 6    1  0.9502611E-004  0.4042883E+03  0.7818608E-02  0.1042325E+00
         21   -1    0    0  503  502  0.00000000000E+00  0.00000000000E+00  0.68183901056E+03  0.68183901056E+03  0.00000000000E+00 0.  1.
         21   -1    0    0  501  503 -0.00000000000E+00 -0.00000000000E+00 -0.32793558479E+03  0.32793558479E+03  0.00000000000E+00 0.  1.
    9000007    2    1    2  501    0 -0.39042424622E+02  0.43871317403E+02 -0.85163525964E+02  0.41292554281E+03  0.39975701913E+03 0.  0.
    9000005    1    3    3    0    0  0.11779379461E+03  0.16198636889E+03 -0.36072462009E+01  0.20032217544E+03  0.99999687468E+00 0.  0.
          4    1    3    3  501    0 -0.15683621923E+03 -0.11811505149E+03 -0.81556279763E+02  0.21260336737E+03  0.00000000000E+00 0.  1.
   -9000007    1    1    2    0  502  0.39042424622E+02 -0.43871317403E+02  0.43906695174E+03  0.59684905254E+03  0.40000000000E+03 0.  1.
<mgrwt>
<rscale>  2 0.40422815E+03</rscale>
<asrwt>0</asrwt>
<pdfrwt beam="1">  1       21 0.10489831E+00 0.40428827E+03</pdfrwt>
<pdfrwt beam="2">  1       21 0.50451628E-01 0.40428827E+03</pdfrwt>
<totfact> 0.24114593E+03</totfact>
</mgrwt>
</event>
<event>
 6    1  0.9502611E-004  0.4263204E+03  0.7818608E-02  0.1035058E+00
         21   -1    0    0  503  502  0.00000000000E+00  0.00000000000E+00  0.31660419637E+03  0.31660419637E+03  0.00000000000E+00 0. -1.
         21   -1    0    0  501  503 -0.00000000000E+00 -0.00000000000E+00 -0.78234248547E+03  0.78234248547E+03  0.00000000000E+00 0. -1.
    9000007    2    1    2  501    0  0.10308758684E+03 -0.10546103718E+03 -0.51664845898E+03  0.66959725967E+03  0.39960703080E+03 0.  0.
    9000005    1    3    3    0    0  0.63609163825E+02 -0.19954638246E+03 -0.52694932013E+03  0.56704626835E+03  0.99999687468E+00 0.  0.
          4    1    3    3  501    0  0.39478423019E+02  0.94085345280E+02  0.10300861146E+02  0.10255099132E+03  0.00000000000E+00 0.  1.
   -9000007    1    1    2    0  502 -0.10308758684E+03  0.10546103718E+03  0.50910169881E+02  0.42934942217E+03  0.40000000000E+03 0. -1.
<mgrwt>
<rscale>  2 0.42622820E+03</rscale>
<asrwt>0</asrwt>
<pdfrwt beam="1">  1       21 0.48708338E-01 0.42632040E+03</pdfrwt>
<pdfrwt beam="2">  1       21 0.12036038E+00 0.42632040E+03</pdfrwt>
<totfact> 0.18286369E+03</totfact>
</mgrwt>
</event>
<event>
 6    1  0.9502611E-004  0.5093958E+03  0.7818608E-02  0.1011400E+00
         21   -1    0    0  503  502  0.00000000000E+00  0.00000000000E+00  0.49714118683E+03  0.49714118683E+03  0.00000000000E+00 0. -1.
         21   -1    0    0  501  503 -0.00000000000E+00 -0.00000000000E+00 -0.76339000344E+03  0.76339000344E+03  0.00000000000E+00 0. -1.
    9000007    2    1    2  501    0 -0.28281834415E+03 -0.13705872230E+03 -0.48816103739E+03  0.70553898953E+03  0.40088995770E+03 0.  0.
    9000005    1    3    3    0    0  0.76847223916E+02  0.83101377380E+01  0.57261802983E+01  0.77513504291E+02  0.99999687468E+00 0.  0.
          4    1    3    3  501    0 -0.35966556806E+03 -0.14536886004E+03 -0.49388721769E+03  0.62802548524E+03  0.00000000000E+00 0.  1.
   -9000007    1    1    2    0  502  0.28281834415E+03  0.13705872230E+03  0.22191222078E+03  0.55499220073E+03  0.40000000000E+03 0.  1.
<mgrwt>
<rscale>  2 0.50922067E+03</rscale>
<asrwt>0</asrwt>
<pdfrwt beam="1">  1       21 0.76483260E-01 0.50939579E+03</pdfrwt>
<pdfrwt beam="2">  1       21 0.11744462E+00 0.50939579E+03</pdfrwt>
<totfact> 0.69732347E+02</totfact>
</mgrwt>
</event>
<event>
 6    1  0.9502611E-004  0.6636564E+03  0.7818608E-02  0.9782906E-01
         21   -1    0    0  503  502  0.00000000000E+00  0.00000000000E+00  0.18931905818E+04  0.18931905818E+04  0.00000000000E+00 0. -1.
         21   -1    0    0  501  503 -0.00000000000E+00 -0.00000000000E+00 -0.39023098651E+03  0.39023098651E+03  0.00000000000E+00 0.  1.
    9000007    2    1    2  501    0  0.23807489004E+03  0.47303292077E+03  0.14784584838E+04  0.16193130668E+04  0.39483607056E+03 0.  0.
    9000005    1    3    3    0    0  0.32757748825E+03  0.24713818788E+03  0.80892027924E+03  0.90704868275E+03  0.99999687468E+00 0.  0.
          4    1    3    3  501    0 -0.89502598213E+02  0.22589473289E+03  0.66953820453E+03  0.71226438403E+03  0.00000000000E+00 0.  1.
   -9000007    1    1    2    0  502 -0.23807489004E+03 -0.47303292077E+03  0.24501111571E+02  0.66410850158E+03  0.40000000000E+03 0.  1.
<mgrwt>
<rscale>  2 0.66288013E+03</rscale>
<asrwt>0</asrwt>
<pdfrwt beam="1">  1       21 0.29126008E+00 0.66365639E+03</pdfrwt>
<pdfrwt beam="2">  1       21 0.60035538E-01 0.66365639E+03</pdfrwt>
<totfact> 0.68364906E+01</totfact>
</mgrwt>
</event>
<event>
 6    1  0.9502611E-004  0.4462945E+03  0.7818608E-02  0.1028857E+00
         21   -1    0    0  503  502  0.00000000000E+00  0.00000000000E+00  0.27400722172E+03  0.27400722172E+03  0.00000000000E+00 0. -1.
         21   -1    0    0  501  503 -0.00000000000E+00 -0.00000000000E+00 -0.73132121323E+03  0.73132121323E+03  0.00000000000E+00 0.  1.
    9000007    2    1    2  501    0 -0.73972808316E+02  0.18282331780E+03 -0.26999230785E+03  0.52160769416E+03  0.40035284238E+03 0.  0.
    9000005    1    3    3    0    0  0.72363383179E+02  0.84296359676E+01  0.77379406501E+02  0.10628306795E+03  0.99999687468E+00 0.  0.
          4    1    3    3  501    0 -0.14633619150E+03  0.17439368183E+03 -0.34737171436E+03  0.41532462621E+03  0.00000000000E+00 0.  1.
   -9000007    1    1    2    0  502  0.73972808316E+02 -0.18282331780E+03 -0.18732168365E+03  0.48372074079E+03  0.40000000000E+03 0. -1.
<mgrwt>
<rscale>  2 0.44621531E+03</rscale>
<asrwt>0</asrwt>
<pdfrwt beam="1">  1       21 0.42154958E-01 0.44629445E+03</pdfrwt>
<pdfrwt beam="2">  1       21 0.11251095E+00 0.44629445E+03</pdfrwt>
<totfact> 0.29095058E+03</totfact>
</mgrwt>
</event>
<event>
 6    1  0.9502611E-004  0.5784695E+03  0.7818608E-02  0.9951404E-01
         21   -1    0    0  503  502  0.00000000000E+00  0.00000000000E+00  0.32458732558E+03  0.32458732558E+03  0.00000000000E+00 0.  1.
         21   -1    0    0  501  503 -0.00000000000E+00 -0.00000000000E+00 -0.10304333572E+04  0.10304333572E+04  0.00000000000E+00 0.  1.
    9000007    2    1    2  501    0  0.41572622333E+03 -0.34234601413E+02 -0.33864404899E+03  0.67030351728E+03  0.40078262520E+03 0.  0.
    9000005    1    3    3    0    0  0.15857683654E+03 -0.15605304197E+03  0.70087552960E+01  0.22259669278E+03  0.99999687468E+00 0.  0.
          4    1    3    3  501    0  0.25714938679E+03  0.12181844056E+03 -0.34565280429E+03  0.44770682449E+03  0.00000000000E+00 0.  1.
   -9000007    1    1    2    0  502 -0.41572622333E+03  0.34234601413E+02 -0.36720198266E+03  0.68471716553E+03  0.40000000000E+03 0.  1.
<mgrwt>
<rscale>  2 0.57833401E+03</rscale>
<asrwt>0</asrwt>
<pdfrwt beam="1">  1       21 0.49936512E-01 0.57846954E+03</pdfrwt>
<pdfrwt beam="2">  1       21 0.15852821E+00 0.57846954E+03</pdfrwt>
<totfact> 0.78801049E+02</totfact>
</mgrwt>
</event>
<event>
 6    1  0.9502611E-004  0.4153837E+03  0.7818608E-02  0.1038635E+00
         21   -1    0    0  503  502  0.00000000000E+00  0.00000000000E+00  0.49586975824E+03  0.49586975824E+03  0.00000000000E+00 0.  1.
         21   -1    0    0  501  503 -0.00000000000E+00 -0.00000000000E+00 -0.14662588419E+04  0.14662588419E+04  0.00000000000E+00 0.  1.
    9000007    2    1    2  501    0  0.90190546645E+02 -0.66402367852E+02 -0.13421004329E+04  0.14047122958E+04  0.39929870129E+03 0.  0.
    9000005    1    3    3    0    0  0.60060823186E+02  0.10302955377E+03 -0.11524339675E+03  0.16584460172E+03  0.99999687468E+00 0.  0.
          4    1    3    3  501    0  0.30129723459E+02 -0.16943192162E+03 -0.12268570362E+04  0.12388676941E+04  0.00000000000E+00 0.  1.
   -9000007    1    1    2    0  502 -0.90190546645E+02  0.66402367852E+02  0.37171134924E+03  0.55741630432E+03  0.40000000000E+03 0.  1.
<mgrwt>
<rscale>  2 0.41521477E+03</rscale>
<asrwt>0</asrwt>
<pdfrwt beam="1">  1       21 0.76287655E-01 0.41538369E+03</pdfrwt>
<pdfrwt beam="2">  1       21 0.22557828E+00 0.41538369E+03</pdfrwt>
<totfact> 0.11527951E+02</totfact>
</mgrwt>
</event>
<event>
 6    1  0.9502611E-004  0.4234650E+03  0.7818608E-02  0.1035989E+00
         21   -1    0    0  503  502  0.00000000000E+00  0.00000000000E+00  0.42455971345E+03  0.42455971345E+03  0.00000000000E+00 0.  1.
         21   -1    0    0  501  503 -0.00000000000E+00 -0.00000000000E+00 -0.45003889783E+03  0.45003889783E+03  0.00000000000E+00 0.  1.
    9000007    2    1    2  501    0 -0.11867654637E+03  0.72377396537E+02 -0.12222865503E+03  0.44022196566E+03  0.39941572922E+03 0.  0.
    9000005    1    3    3    0    0 -0.11005435755E+01 -0.12162710039E+03  0.72200162247E+02  0.14145043714E+03  0.99999687468E+00 0.  0.
          4    1    3    3  501    0 -0.11757600279E+03  0.19400449693E+03 -0.19442881728E+03  0.29877152851E+03  0.00000000000E+00 0.  1.
   -9000007    1    1    2    0  502  0.11867654637E+03 -0.72377396537E+02  0.96749470657E+02  0.43437664562E+03  0.40000000000E+03 0.  1.
<mgrwt>
<rscale>  2 0.42332697E+03</rscale>
<asrwt>0</asrwt>
<pdfrwt beam="1">  1       21 0.65316879E-01 0.42346500E+03</pdfrwt>
<pdfrwt beam="2">  1       21 0.69236753E-01 0.42346500E+03</pdfrwt>
<totfact> 0.36119749E+03</totfact>
</mgrwt>
</event>
<event>
 6    1  0.9502611E-004  0.4754281E+03  0.7818608E-02  0.1020455E+00
         21   -1    0    0  503  502  0.00000000000E+00  0.00000000000E+00  0.62954574566E+03  0.62954574566E+03  0.00000000000E+00 0. -1.
         21   -1    0    0  501  503 -0.00000000000E+00 -0.00000000000E+00 -0.39028970612E+03  0.39028970612E+03  0.00000000000E+00 0. -1.
    9000007    2    1    2  501    0 -0.14354118298E+03  0.21313791402E+03 -0.26147008776E+02  0.47534429514E+03  0.39904472337E+03 0.  0.
    9000005    1    3    3    0    0  0.27277401251E+02  0.28332113264E+03  0.18884595367E+02  0.28525874002E+03  0.99999687468E+00 0.  0.
          4    1    3    3  501    0 -0.17081858424E+03 -0.70183218621E+02 -0.45031604143E+02  0.19008555513E+03  0.00000000000E+00 0.  1.
   -9000007    1    1    2    0  502  0.14354118298E+03 -0.21313791402E+03  0.26540304831E+03  0.54449115664E+03  0.40000000000E+03 0. -1.
<mgrwt>
<rscale>  2 0.47522707E+03</rscale>
<asrwt>0</asrwt>
<pdfrwt beam="1">  1       21 0.96853192E-01 0.47542806E+03</pdfrwt>
<pdfrwt beam="2">  1       21 0.60044570E-01 0.47542806E+03</pdfrwt>
<totfact> 0.19569907E+03</totfact>
</mgrwt>
</event>
<event>
 6    1  0.9502611E-004  0.4320523E+03  0.7818608E-02  0.1033235E+00
         21   -1    0    0  503  502  0.00000000000E+00  0.00000000000E+00  0.10982540519E+04  0.10982540519E+04  0.00000000000E+00 0. -1.
         21   -1    0    0  501  503 -0.00000000000E+00 -0.00000000000E+00 -0.16994923543E+03  0.16994923543E+03  0.00000000000E+00 0.  1.
    9000007    2    1    2  501    0 -0.15885187803E+03  0.34639632638E+02  0.44992339170E+03  0.62377903976E+03  0.40029415278E+03 0.  0.
    9000005    1    3    3    0    0  0.10442249632E+03  0.79950801213E+02  0.27394725205E+03  0.30388202522E+03  0.99999687468E+00 0.  0.
          4    1    3    3  501    0 -0.26327437435E+03 -0.45311168575E+02  0.17597613965E+03  0.31989701454E+03  0.00000000000E+00 0.  1.
   -9000007    1    1    2    0  502  0.15885187803E+03 -0.34639632638E+02  0.47838142481E+03  0.64442424761E+03  0.40000000000E+03 0. -1.
<mgrwt>
<rscale>  2 0.43198420E+03</rscale>
<asrwt>0</asrwt>
<pdfrwt beam="1">  1       21 0.16896216E+00 0.43205235E+03</pdfrwt>
<pdfrwt beam="2">  1       21 0.26146037E-01 0.43205235E+03</pdfrwt>
<totfact> 0.26031723E+03</totfact>
</mgrwt>
</event>
<event>
 6    1  0.9502611E-004  0.5279326E+03  0.7818608E-02  0.1006817E+00
         21   -1    0    0  503  502  0.00000000000E+00  0.00000000000E+00  0.22981157322E+03  0.22981157322E+03  0.00000000000E+00 0.  1.
         21   -1    0    0  501  503 -0.00000000000E+00 -0.00000000000E+00 -0.36726502562E+04  0.36726502562E+04  0.00000000000E+00 0. -1.
    9000007    2    1    2  501    0  0.26500323637E+03  0.21694880932E+03 -0.33200324474E+04  0.33617448307E+04  0.40177027528E+03 0.  0.
    9000005    1    3    3    0    0  0.33240890085E+03  0.10635388727E+03 -0.29312968600E+04  0.29520008652E+04  0.99999687468E+00 0.  0.
          4    1    3    3  501    0 -0.67405664482E+02  0.11059492205E+03 -0.38873558734E+03  0.40974396549E+03  0.00000000000E+00 0.  1.
   -9000007    1    1    2    0  502 -0.26500323637E+03 -0.21694880932E+03 -0.12280623555E+03  0.54071699866E+03  0.40000000000E+03 0.  1.
<mgrwt>
<rscale>  2 0.52759581E+03</rscale>
<asrwt>0</asrwt>
<pdfrwt beam="1">  1       21 0.35355627E-01 0.52793262E+03</pdfrwt>
<pdfrwt beam="2">  1       21 0.56502311E+00 0.52793262E+03</pdfrwt>
<totfact> 0.32859939E+00</totfact>
</mgrwt>
</event>
<event>
 6    1  0.9502611E-004  0.4117596E+03  0.7818608E-02  0.1040747E+00
         21   -1    0    0  503  502  0.00000000000E+00  0.00000000000E+00  0.34122691944E+03  0.34122691944E+03  0.00000000000E+00 0.  1.
         21   -1    0    0  501  503 -0.00000000000E+00 -0.00000000000E+00 -0.51037458101E+03  0.51037458101E+03  0.00000000000E+00 0.  1.
    9000007    2    1    2  501    0  0.80663144929E+02 -0.55130897075E+02 -0.18164684855E+03  0.43965224576E+03  0.38826867096E+03 0.  0.
    9000005    1    3    3    0    0  0.27449468220E+02 -0.94054559622E+02  0.10611529119E+03  0.14443402823E+03  0.99999687468E+00 0.  0.
          4    1    3    3  501    0  0.53213676709E+02  0.38923662547E+02 -0.28776213974E+03  0.29521821753E+03  0.00000000000E+00 0.  1.
   -9000007    1    1    2    0  502 -0.80663144929E+02  0.55130897075E+02  0.12499186980E+02  0.41194925469E+03  0.40000000000E+03 0.  1.
<mgrwt>
<rscale>  2 0.40888293E+03</rscale>
<asrwt>0</asrwt>
<pdfrwt beam="1">  1       21 0.52496449E-01 0.41175959E+03</pdfrwt>
<pdfrwt beam="2">  1       21 0.78519166E-01 0.41175959E+03</pdfrwt>
<totfact> 0.43887833E+03</totfact>
</mgrwt>
</event>
<event>
 6    1  0.9502611E-004  0.4019526E+03  0.7818608E-02  0.1043128E+00
         21   -1    0    0  503  502  0.00000000000E+00  0.00000000000E+00  0.22470783652E+03  0.22470783652E+03  0.00000000000E+00 0. -1.
         21   -1    0    0  501  503 -0.00000000000E+00 -0.00000000000E+00 -0.11307392288E+04  0.11307392288E+04  0.00000000000E+00 0. -1.
    9000007    2    1    2  501    0 -0.35338445541E+02  0.17807728796E+02 -0.86211338431E+03  0.95110227145E+03  0.39973756692E+03 0.  0.
    9000005    1    3    3    0    0 -0.18468555412E+03  0.11930541360E+03 -0.43582661874E+03  0.48814790505E+03  0.99999687468E+00 0.  0.
          4    1    3    3  501    0  0.14934710858E+03 -0.10149768480E+03 -0.42628676557E+03  0.46295436639E+03  0.00000000000E+00 0.  1.
   -9000007    1    1    2    0  502  0.35338445541E+02 -0.17807728796E+02 -0.43918008010E+02  0.40434479391E+03  0.40000000000E+03 0. -1.
<mgrwt>
<rscale>  2 0.40188733E+03</rscale>
<asrwt>0</asrwt>
<pdfrwt beam="1">  1       21 0.34570437E-01 0.40195264E+03</pdfrwt>
<pdfrwt beam="2">  1       21 0.17395988E+00 0.40195264E+03</pdfrwt>
<totfact> 0.13949102E+03</totfact>
</mgrwt>
</event>
<event>
 6    1  0.9502611E-004  0.7246691E+03  0.7818608E-02  0.9675994E-01
         21   -1    0    0  503  502  0.00000000000E+00  0.00000000000E+00  0.16167985967E+04  0.16167985967E+04  0.00000000000E+00 0. -1.
         21   -1    0    0  501  503 -0.00000000000E+00 -0.00000000000E+00 -0.49871475325E+03  0.49871475325E+03  0.00000000000E+00 0.  1.
    9000007    2    1    2  501    0 -0.42239610034E+03 -0.43211893699E+03 -0.65698119916E+02  0.72753461160E+03  0.39980636167E+03 0.  0.
    9000005    1    3    3    0    0 -0.92374313925E+02 -0.17591684952E+03  0.15778119125E+03  0.25372358213E+03  0.99999687468E+00 0.  0.
          4    1    3    3  501    0 -0.33002178642E+03 -0.25620208747E+03 -0.22347931117E+03  0.47381102948E+03  0.00000000000E+00 0.  1.
   -9000007    1    1    2    0  502  0.42239610034E+03  0.43211893699E+03  0.11837819634E+04  0.13879787384E+04  0.40000000000E+03 0. -1.
<mgrwt>
<rscale>  2 0.72464234E+03</rscale>
<asrwt>0</asrwt>
<pdfrwt beam="1">  1       21 0.24873824E+00 0.72466906E+03</pdfrwt>
<pdfrwt beam="2">  1       21 0.76725347E-01 0.72466906E+03</pdfrwt>
<totfact> 0.70160719E+01</totfact>
</mgrwt>
</event>
<event>
 6    1  0.9502611E-004  0.4077160E+03  0.7818608E-02  0.1041180E+00
         21   -1    0    0  503  502  0.00000000000E+00  0.00000000000E+00  0.74349046078E+03  0.74349046078E+03  0.00000000000E+00 0.  1.
         21   -1    0    0  501  503 -0.00000000000E+00 -0.00000000000E+00 -0.25145236723E+03  0.25145236723E+03  0.00000000000E+00 0.  1.
    9000007    2    1    2  501    0 -0.31220941474E+02  0.69777388663E+02  0.79757326477E+02  0.41544385299E+03  0.40048562110E+03 0.  0.
    9000005    1    3    3    0    0  0.16652706082E+02  0.20744054257E+03 -0.56794041865E+02  0.21572077903E+03  0.99999687468E+00 0.  0.
          4    1    3    3  501    0 -0.47873647556E+02 -0.13766315391E+03  0.13655136834E+03  0.19972307396E+03  0.00000000000E+00 0.  1.
   -9000007    1    1    2    0  502  0.31220941474E+02 -0.69777388663E+02  0.41228076708E+03  0.57949897503E+03  0.40000000000E+03 0. -1.
<mgrwt>
<rscale>  2 0.40759673E+03</rscale>
<asrwt>0</asrwt>
<pdfrwt beam="1">  1       21 0.11438315E+00 0.40771603E+03</pdfrwt>
<pdfrwt beam="2">  1       21 0.38684980E-01 0.40771603E+03</pdfrwt>
<totfact> 0.33821024E+03</totfact>
</mgrwt>
</event>
<event>
 6    1  0.9502611E-004  0.4919026E+03  0.7818608E-02  0.1015915E+00
         21   -1    0    0  503  502  0.00000000000E+00  0.00000000000E+00  0.15803622860E+03  0.15803622860E+03  0.00000000000E+00 0. -1.
         21   -1    0    0  501  503 -0.00000000000E+00 -0.00000000000E+00 -0.15310653874E+04  0.15310653874E+04  0.00000000000E+00 0. -1.
    9000007    2    1    2  501    0 -0.11372271367E+02  0.28605665234E+03 -0.68809433127E+03  0.84583804222E+03  0.40001305982E+03 0.  0.
    9000005    1    3    3    0    0 -0.12456645645E+03 -0.94155508981E+01 -0.51850536330E+02  0.13525876232E+03  0.99999687468E+00 0.  0.
          4    1    3    3  501    0  0.11319418509E+03  0.29547220324E+03 -0.63624379494E+03  0.71057927990E+03  0.00000000000E+00 0.  1.
   -9000007    1    1    2    0  502  0.11372271367E+02 -0.28605665234E+03 -0.68493482756E+03  0.84326357381E+03  0.40000000000E+03 0. -1.
<mgrwt>
<rscale>  2 0.49189996E+03</rscale>
<asrwt>0</asrwt>
<pdfrwt beam="1">  1       21 0.24313265E-01 0.49190262E+03</pdfrwt>
<pdfrwt beam="2">  1       21 0.23554853E+00 0.49190262E+03</pdfrwt>
<totfact> 0.10484073E+03</totfact>
</mgrwt>
</event>
<event>
 6    1  0.9502611E-004  0.4610537E+03  0.7818608E-02  0.1024511E+00
         21   -1    0    0  503  502  0.00000000000E+00  0.00000000000E+00  0.37765963702E+03  0.37765963702E+03  0.00000000000E+00 0. -1.
         21   -1    0    0  501  503 -0.00000000000E+00 -0.00000000000E+00 -0.79500160654E+03  0.79500160654E+03  0.00000000000E+00 0. -1.
    9000007    2    1    2  501    0 -0.94733479146E+02 -0.20879673155E+03 -0.52583174785E+03  0.69901523738E+03  0.39944056863E+03 0.  0.
    9000005    1    3    3    0    0 -0.16160175845E+03 -0.30056258049E+03 -0.43921527823E+03  0.55620504650E+03  0.99999687468E+00 0.  0.
          4    1    3    3  501    0  0.66868279306E+02  0.91765848945E+02 -0.86616469623E+02  0.14281019088E+03  0.00000000000E+00 0.  1.
   -9000007    1    1    2    0  502  0.94733479146E+02  0.20879673155E+03  0.10848977833E+03  0.47364600619E+03  0.40000000000E+03 0. -1.
<mgrwt>
<rscale>  2 0.46093233E+03</rscale>
<asrwt>0</asrwt>
<pdfrwt beam="1">  1       21 0.58101484E-01 0.46105369E+03</pdfrwt>
<pdfrwt beam="2">  1       21 0.12230794E+00 0.46105369E+03</pdfrwt>
<totfact> 0.11851810E+03</totfact>
</mgrwt>
</event>
<event>
 6    1  0.9502611E-004  0.4352260E+03  0.7818608E-02  0.1032245E+00
         21   -1    0    0  503  502  0.00000000000E+00  0.00000000000E+00  0.28321254129E+03  0.28321254129E+03  0.00000000000E+00 0. -1.
         21   -1    0    0  501  503 -0.00000000000E+00 -0.00000000000E+00 -0.85842004222E+03  0.85842004222E+03  0.00000000000E+00 0. -1.
    9000007    2    1    2  501    0  0.16772565700E+03 -0.32160379937E+02 -0.55625563448E+03  0.70628747983E+03  0.40031923165E+03 0.  0.
    9000005    1    3    3    0    0  0.19911660395E+03  0.37860270222E+02 -0.70635404039E+02  0.21464198640E+03  0.99999687468E+00 0.  0.
          4    1    3    3  501    0 -0.31390946950E+02 -0.70020650160E+02 -0.48562023044E+03  0.49164549343E+03  0.00000000000E+00 0.  1.
   -9000007    1    1    2    0  502 -0.16772565700E+03  0.32160379937E+02 -0.18951866454E+02  0.43534510368E+03  0.40000000000E+03 0. -1.
<mgrwt>
<rscale>  2 0.43515258E+03</rscale>
<asrwt>0</asrwt>
<pdfrwt beam="1">  1       21 0.43571160E-01 0.43522600E+03</pdfrwt>
<pdfrwt beam="2">  1       21 0.13206462E+00 0.43522600E+03</pdfrwt>
<totfact> 0.18133811E+03</totfact>
</mgrwt>
</event>
<event>
 6    1  0.9502611E-004  0.6600704E+03  0.7818608E-02  0.9788357E-01
         21   -1    0    0  503  502  0.00000000000E+00  0.00000000000E+00  0.15909413441E+04  0.15909413441E+04  0.00000000000E+00 0.  1.
         21   -1    0    0  501  503 -0.00000000000E+00 -0.00000000000E+00 -0.40026166759E+03  0.40026166759E+03  0.00000000000E+00 0. -1.
    9000007    2    1    2  501    0 -0.27472098241E+03 -0.44652332274E+03  0.35462843382E+02  0.66102233694E+03  0.40104640722E+03 0.  0.
    9000005    1    3    3    0    0 -0.23659051541E+03 -0.25616718096E+03  0.20394599342E+03  0.40396988106E+03  0.99999687468E+00 0.  0.
          4    1    3    3  501    0 -0.38130467001E+02 -0.19035614179E+03 -0.16848315003E+03  0.25705245588E+03  0.00000000000E+00 0.  1.
   -9000007    1    1    2    0  502  0.27472098241E+03  0.44652332274E+03  0.11552168332E+04  0.13301806748E+04  0.40000000000E+03 0.  1.
<mgrwt>
<rscale>  2 0.65991152E+03</rscale>
<asrwt>0</asrwt>
<pdfrwt beam="1">  1       21 0.24476020E+00 0.66007039E+03</pdfrwt>
<pdfrwt beam="2">  1       21 0.61578719E-01 0.66007039E+03</pdfrwt>
<totfact> 0.12538836E+02</totfact>
</mgrwt>
</event>
<event>
 6    1  0.9502611E-004  0.6917426E+03  0.7818608E-02  0.9731476E-01
         21   -1    0    0  503  502  0.00000000000E+00  0.00000000000E+00  0.71599947662E+03  0.71599947662E+03  0.00000000000E+00 0.  1.
         21   -1    0    0  501  503 -0.00000000000E+00 -0.00000000000E+00 -0.77305598895E+03  0.77305598895E+03  0.00000000000E+00 0.  1.
    9000007    2    1    2  501    0  0.23087025521E+03 -0.51492814710E+03 -0.30264224644E+03  0.75504972702E+03  0.40006960585E+03 0.  0.
    9000005    1    3    3    0    0  0.21212933395E+03 -0.64050256348E+02 -0.19808676850E+02  0.22247398350E+03  0.99999687468E+00 0.  0.
          4    1    3    3  501    0  0.18740921256E+02 -0.45087789076E+03 -0.28283356959E+03  0.53257574352E+03  0.00000000000E+00 0.  1.
   -9000007    1    1    2    0  502 -0.23087025521E+03  0.51492814710E+03  0.24558573411E+03  0.73400573855E+03  0.40000000000E+03 0.  1.
<mgrwt>
<rscale>  2 0.69173249E+03</rscale>
<asrwt>0</asrwt>
<pdfrwt beam="1">  1       21 0.11015377E+00 0.69174255E+03</pdfrwt>
<pdfrwt beam="2">  1       21 0.11893169E+00 0.69174255E+03</pdfrwt>
<totfact> 0.26450293E+02</totfact>
</mgrwt>
</event>
<event>
 6    1  0.9502611E-004  0.4158127E+03  0.7818608E-02  0.1038440E+00
         21   -1    0    0  503  502  0.00000000000E+00  0.00000000000E+00  0.42335359817E+03  0.42335359817E+03  0.00000000000E+00 0. -1.
         21   -1    0    0  501  503 -0.00000000000E+00 -0.00000000000E+00 -0.41778716457E+03  0.41778716457E+03  0.00000000000E+00 0. -1.
    9000007    2    1    2  501    0  0.50991387953E+02  0.10148945563E+03  0.65874800179E+02  0.42097730606E+03  0.39997771396E+03 0.  0.
    9000005    1    3    3    0    0  0.15659540327E+03  0.20862320134E+03  0.71369604106E+02  0.27044478336E+03  0.99999687468E+00 0.  0.
          4    1    3    3  501    0 -0.10560401531E+03 -0.10713374571E+03 -0.54948039268E+01  0.15053252270E+03  0.00000000000E+00 0.  1.
   -9000007    1    1    2    0  502 -0.50991387953E+02 -0.10148945563E+03 -0.60308366575E+02  0.42016345668E+03  0.40000000000E+03 0. -1.
<mgrwt>
<rscale>  2 0.41580738E+03</rscale>
<asrwt>0</asrwt>
<pdfrwt beam="1">  1       21 0.65131323E-01 0.41581274E+03</pdfrwt>
<pdfrwt beam="2">  1       21 0.64274949E-01 0.41581274E+03</pdfrwt>
<totfact> 0.43020729E+03</totfact>
</mgrwt>
</event>
<event>
 6    1  0.9502611E-004  0.4545593E+03  0.7818608E-02  0.1026376E+00
         21   -1    0    0  503  502  0.00000000000E+00  0.00000000000E+00  0.13972302655E+04  0.13972302655E+04  0.00000000000E+00 0.  1.
         21   -1    0    0  501  503 -0.00000000000E+00 -0.00000000000E+00 -0.15793096338E+03  0.15793096338E+03  0.00000000000E+00 0.  1.
    9000007    2    1    2  501    0  0.47189716578E+02 -0.21070653504E+03  0.42326142998E+03  0.62106170418E+03  0.39992910500E+03 0.  0.
    9000005    1    3    3    0    0  0.15816262235E+01 -0.20183151709E+03  0.49557819787E+03  0.53510486171E+03  0.99999687468E+00 0.  0.
          4    1    3    3  501    0  0.45608090354E+02 -0.88750179511E+01 -0.72316767887E+02  0.85956842468E+02  0.00000000000E+00 0.  1.
   -9000007    1    1    2    0  502 -0.47189716578E+02  0.21070653504E+03  0.81603787211E+03  0.93409952466E+03  0.40000000000E+03 0.  1.
<mgrwt>
<rscale>  2 0.45454365E+03</rscale>
<asrwt>0</asrwt>
<pdfrwt beam="1">  1       21 0.21495849E+00 0.45455925E+03</pdfrwt>
<pdfrwt beam="2">  1       21 0.24297072E-01 0.45455925E+03</pdfrwt>
<totfact> 0.14429819E+03</totfact>
</mgrwt>
</event>
<event>
 6    1  0.9502611E-004  0.4906287E+03  0.7818608E-02  0.1016271E+00
         21   -1    0    0  503  502  0.00000000000E+00  0.00000000000E+00  0.96220693737E+03  0.96220693737E+03  0.00000000000E+00 0.  1.
         21   -1    0    0  501  503 -0.00000000000E+00 -0.00000000000E+00 -0.28385848950E+03  0.28385848950E+03  0.00000000000E+00 0.  1.
    9000007    2    1    2  501    0 -0.20648054111E+03  0.19514690422E+03  0.12406545298E+03  0.50583156753E+03  0.39969589691E+03 0.  0.
    9000005    1    3    3    0    0 -0.53818075718E+02 -0.87182120489E+02  0.15238084417E+03  0.18362469624E+03  0.99999687468E+00 0.  0.
          4    1    3    3  501    0 -0.15266246539E+03  0.28232902470E+03 -0.28315391185E+02  0.32220687129E+03  0.00000000000E+00 0.  1.
   -9000007    1    1    2    0  502  0.20648054111E+03 -0.19514690422E+03  0.55428299489E+03  0.74023385933E+03  0.40000000000E+03 0.  1.
<mgrwt>
<rscale>  2 0.49056672E+03</rscale>
<asrwt>0</asrwt>
<pdfrwt beam="1">  1       21 0.14803183E+00 0.49062871E+03</pdfrwt>
<pdfrwt beam="2">  1       21 0.43670538E-01 0.49062871E+03</pdfrwt>
<totfact> 0.13036213E+03</totfact>
</mgrwt>
</event>
<event>
 6    1  0.9502611E-004  0.4465225E+03  0.7818608E-02  0.1028789E+00
         21   -1    0    0  503  502  0.00000000000E+00  0.00000000000E+00  0.10084132046E+03  0.10084132046E+03  0.00000000000E+00 0.  1.
         21   -1    0    0  501  503 -0.00000000000E+00 -0.00000000000E+00 -0.31197757761E+04  0.31197757761E+04  0.00000000000E+00 0. -1.
    9000007    2    1    2  501    0  0.19214502481E+03 -0.46536755083E+02 -0.24849740302E+04  0.25247729214E+04  0.40037107014E+03 0.  0.
    9000005    1    3    3    0    0 -0.56835314628E+02  0.11691017337E+03 -0.46010663430E+03  0.47811855909E+03  0.99999687468E+00 0.  0.
          4    1    3    3  501    0  0.24898033944E+03 -0.16344692845E+03 -0.20248673959E+04  0.20466543623E+04  0.00000000000E+00 0.  1.
   -9000007    1    1    2    0  502 -0.19214502481E+03  0.46536755083E+02 -0.53396042543E+03  0.69584417513E+03  0.40000000000E+03 0.  1.
<mgrwt>
<rscale>  2 0.44643934E+03</rscale>
<asrwt>0</asrwt>
<pdfrwt beam="1">  1       21 0.15514049E-01 0.44652253E+03</pdfrwt>
<pdfrwt beam="2">  1       21 0.47996552E+00 0.44652253E+03</pdfrwt>
<totfact> 0.71903940E+01</totfact>
</mgrwt>
</event>
<event>
 6    1  0.9502611E-004  0.4001368E+03  0.7818608E-02  0.1043744E+00
         21   -1    0    0  503  502  0.00000000000E+00  0.00000000000E+00  0.38240053816E+03  0.38240053816E+03  0.00000000000E+00 0.  1.
         21   -1    0    0  501  503 -0.00000000000E+00 -0.00000000000E+00 -0.44632977694E+03  0.44632977694E+03  0.00000000000E+00 0.  1.
    9000007    2    1    2  501    0 -0.97084918635E+01 -0.39012687634E+01  0.71417410146E+02  0.40632270380E+03  0.39986024864E+03 0.  0.
    9000005    1    3    3    0    0 -0.75486876063E+02 -0.97369449768E+02 -0.12725077001E+03  0.17712378911E+03  0.99999687468E+00 0.  0.
          4    1    3    3  501    0  0.65778384200E+02  0.93468181005E+02  0.19866818016E+03  0.22919891469E+03  0.00000000000E+00 0.  1.
   -9000007    1    1    2    0  502  0.97084918635E+01  0.39012687634E+01 -0.13534664892E+03  0.42240761130E+03  0.40000000000E+03 0.  1.
<mgrwt>
<rscale>  2 0.40010189E+03</rscale>
<asrwt>0</asrwt>
<pdfrwt beam="1">  1       21 0.58830852E-01 0.40013682E+03</pdfrwt>
<pdfrwt beam="2">  1       21 0.68666119E-01 0.40013682E+03</pdfrwt>
<totfact> 0.46716547E+03</totfact>
</mgrwt>
</event>
<event>
 6    1  0.9502611E-004  0.9612630E+03  0.7818608E-02  0.9352104E-01
         21   -1    0    0  503  502  0.00000000000E+00  0.00000000000E+00  0.20842984682E+04  0.20842984682E+04  0.00000000000E+00 0. -1.
         21   -1    0    0  501  503 -0.00000000000E+00 -0.00000000000E+00 -0.88188678372E+03  0.88188678372E+03  0.00000000000E+00 0.  1.
    9000007    2    1    2  501    0  0.84482533711E+03 -0.22394216437E+03 -0.44469017528E+03  0.10591392431E+04  0.40018325945E+03 0.  0.
    9000005    1    3    3    0    0  0.60857578972E+03  0.34647220334E+02 -0.25432570643E+03  0.66049033805E+03  0.99999687468E+00 0.  0.
          4    1    3    3  501    0  0.23624954739E+03 -0.25858938470E+03 -0.19036446885E+03  0.39864890508E+03  0.00000000000E+00 0.  1.
   -9000007    1    1    2    0  502 -0.84482533711E+03  0.22394216437E+03  0.16471018597E+04  0.19070460087E+04  0.40000000000E+03 0. -1.
<mgrwt>
<rscale>  2 0.96124395E+03</rscale>
<asrwt>0</asrwt>
<pdfrwt beam="1">  1       21 0.32066130E+00 0.96126302E+03</pdfrwt>
<pdfrwt beam="2">  1       21 0.13567489E+00 0.96126302E+03</pdfrwt>
<totfact> 0.55958224E+00</totfact>
</mgrwt>
</event>
<event>
 6    1  0.9502611E-004  0.6127964E+03  0.7818608E-02  0.9879214E-01
         21   -1    0    0  503  502  0.00000000000E+00  0.00000000000E+00  0.11987500451E+04  0.11987500451E+04  0.00000000000E+00 0.  1.
         21   -1    0    0  501  503 -0.00000000000E+00 -0.00000000000E+00 -0.56748112653E+03  0.56748112653E+03  0.00000000000E+00 0. -1.
    9000007    2    1    2  501    0 -0.38758463292E+03  0.25550472975E+03 -0.27545394189E+03  0.67185881256E+03  0.40001859370E+03 0.  0.
    9000005    1    3    3    0    0 -0.42798230375E+03  0.26088558857E+03 -0.12582839320E+03  0.51678228219E+03  0.99999687468E+00 0.  0.
          4    1    3    3  501    0  0.40397670835E+02 -0.53808588188E+01 -0.14962554869E+03  0.15507653037E+03  0.00000000000E+00 0.  1.
   -9000007    1    1    2    0  502  0.38758463292E+03 -0.25550472975E+03  0.90672286046E+03  0.10943723591E+04  0.40000000000E+03 0.  1.
<mgrwt>
<rscale>  2 0.61279333E+03</rscale>
<asrwt>0</asrwt>
<pdfrwt beam="1">  1       21 0.18442308E+00 0.61279637E+03</pdfrwt>
<pdfrwt beam="2">  1       21 0.87304789E-01 0.61279637E+03</pdfrwt>
<totfact> 0.14332196E+02</totfact>
</mgrwt>
</event>
<event>
 6    1  0.9502611E-004  0.5109412E+03  0.7818608E-02  0.1011033E+00
         21   -1    0    0  503  502  0.00000000000E+00  0.00000000000E+00  0.87803961459E+03  0.87803961459E+03  0.00000000000E+00 0.  1.
         21   -1    0    0  501  503 -0.00000000000E+00 -0.00000000000E+00 -0.39223303378E+03  0.39223303378E+03  0.00000000000E+00 0.  1.
    9000007    2    1    2  501    0 -0.31790085477E+03  0.82028518090E-01  0.55619508386E+03  0.75450574215E+03  0.39857870419E+03 0.  0.
    9000005    1    3    3    0    0  0.45065043531E+02 -0.24283024640E+02  0.31244126002E+03  0.31660869285E+03  0.99999687468E+00 0.  0.
          4    1    3    3  501    0 -0.36296589830E+03  0.24365053158E+02  0.24375382384E+03  0.43789704929E+03  0.00000000000E+00 0.  1.
   -9000007    1    1    2    0  502  0.31790085477E+03 -0.82028518090E-01 -0.70388503047E+02  0.51576690622E+03  0.40000000000E+03 0.  1.
<mgrwt>
<rscale>  2 0.51066304E+03</rscale>
<asrwt>0</asrwt>
<pdfrwt beam="1">  1       21 0.13508302E+00 0.51094125E+03</pdfrwt>
<pdfrwt beam="2">  1       21 0.60343544E-01 0.51094125E+03</pdfrwt>
<totfact> 0.82683613E+02</totfact>
</mgrwt>
</event>
<event>
 6    1  0.9502611E-004  0.5824241E+03  0.7818608E-02  0.9944674E-01
         21   -1    0    0  503  502  0.00000000000E+00  0.00000000000E+00  0.44721698864E+03  0.44721698864E+03  0.00000000000E+00 0.  1.
         21   -1    0    0  501  503 -0.00000000000E+00 -0.00000000000E+00 -0.93297139488E+03  0.93297139488E+03  0.00000000000E+00 0.  1.
    9000007    2    1    2  501    0 -0.12283134822E+03  0.39947656860E+03 -0.54628181368E+03  0.79852470404E+03  0.40564616852E+03 0.  0.
    9000005    1    3    3    0    0 -0.67415272120E+01  0.32335779346E+03 -0.11148491355E+03  0.34210465755E+03  0.99999687468E+00 0.  0.
          4    1    3    3  501    0 -0.11608982101E+03  0.76118775146E+02 -0.43479690013E+03  0.45642004649E+03  0.00000000000E+00 0.  1.
   -9000007    1    1    2    0  502  0.12283134822E+03 -0.39947656860E+03  0.60527407443E+02  0.58166367947E+03  0.40000000000E+03 0.  1.
<mgrwt>
<rscale>  2 0.58144210E+03</rscale>
<asrwt>0</asrwt>
<pdfrwt beam="1">  1       21 0.68802615E-01 0.58242414E+03</pdfrwt>
<pdfrwt beam="2">  1       21 0.14353406E+00 0.58242414E+03</pdfrwt>
<totfact> 0.51148318E+02</totfact>
</mgrwt>
</event>
<event>
 6    1  0.9502611E-004  0.6157289E+03  0.7818608E-02  0.9873379E-01
         21   -1    0    0  503  502  0.00000000000E+00  0.00000000000E+00  0.97510086762E+03  0.97510086762E+03  0.00000000000E+00 0. -1.
         21   -1    0    0  501  503 -0.00000000000E+00 -0.00000000000E+00 -0.39000250791E+03  0.39000250791E+03  0.00000000000E+00 0.  1.
    9000007    2    1    2  501    0  0.37011345500E+03  0.28626152385E+03  0.33196709294E+03  0.69951711679E+03  0.40024044807E+03 0.  0.
    9000005    1    3    3    0    0 -0.25185132967E+02  0.51091496658E+02  0.21844564860E+03  0.22575237172E+03  0.99999687468E+00 0.  0.
          4    1    3    3  501    0  0.39529858797E+03  0.23517002719E+03  0.11352144435E+03  0.47376474507E+03  0.00000000000E+00 0.  1.
   -9000007    1    1    2    0  502 -0.37011345500E+03 -0.28626152385E+03  0.25313126677E+03  0.66558625874E+03  0.40000000000E+03 0. -1.
<mgrwt>
<rscale>  2 0.61568980E+03</rscale>
<asrwt>0</asrwt>
<pdfrwt beam="1">  1       21 0.15001552E+00 0.61572887E+03</pdfrwt>
<pdfrwt beam="2">  1       21 0.60000386E-01 0.61572887E+03</pdfrwt>
<totfact> 0.60879884E+02</totfact>
</mgrwt>
</event>
<event>
 6    1  0.9502611E-004  0.5049301E+03  0.7818608E-02  0.1012504E+00
         21   -1    0    0  503  502  0.00000000000E+00  0.00000000000E+00  0.16230807457E+03  0.16230807457E+03  0.00000000000E+00 0.  1.
         21   -1    0    0  501  503 -0.00000000000E+00 -0.00000000000E+00 -0.23192107023E+04  0.23192107023E+04  0.00000000000E+00 0.  1.
    9000007    2    1    2  501    0  0.28218879075E+03 -0.12378980890E+03 -0.17833346659E+04  0.18534204943E+04  0.39991320046E+03 0.  0.
    9000005    1    3    3    0    0  0.28833598990E+02 -0.16300295389E+03 -0.25695444690E+03  0.30565982266E+03  0.99999687468E+00 0.  0.
          4    1    3    3  501    0  0.25335519176E+03  0.39213144997E+02 -0.15263802190E+04  0.15477606717E+04  0.00000000000E+00 0.  1.
   -9000007    1    1    2    0  502 -0.28218879075E+03  0.12378980890E+03 -0.37356796190E+03  0.62809828257E+03  0.40000000000E+03 0.  1.
<mgrwt>
<rscale>  2 0.50491293E+03</rscale>
<asrwt>0</asrwt>
<pdfrwt beam="1">  1       21 0.24970476E-01 0.50493012E+03</pdfrwt>
<pdfrwt beam="2">  1       21 0.35680160E+00 0.50493012E+03</pdfrwt>
<totfact> 0.17989403E+02</totfact>
</mgrwt>
</event>
<event>
 6    1  0.9502611E-004  0.4953010E+03  0.7818608E-02  0.1015023E+00
         21   -1    0    0  503  502  0.00000000000E+00  0.00000000000E+00  0.28729989057E+03  0.28729989057E+03  0.00000000000E+00 0.  1.
         21   -1    0    0  501  503 -0.00000000000E+00 -0.00000000000E+00 -0.98322200464E+03  0.98322200464E+03  0.00000000000E+00 0. -1.
    9000007    2    1    2  501    0  0.21199195557E+03  0.20095398262E+03 -0.57855009874E+03  0.76150393645E+03  0.39980612315E+03 0.  0.
    9000005    1    3    3    0    0 -0.77639321965E+02  0.16189415692E+03 -0.11404600930E+03  0.21270889636E+03  0.99999687468E+00 0.  0.
          4    1    3    3  501    0  0.28963127754E+03  0.39059825699E+02 -0.46450408945E+03  0.54879504009E+03  0.00000000000E+00 0.  1.
   -9000007    1    1    2    0  502 -0.21199195557E+03 -0.20095398262E+03 -0.11737201533E+03  0.50901795876E+03  0.40000000000E+03 0.  1.
<mgrwt>
<rscale>  2 0.49526187E+03</rscale>
<asrwt>0</asrwt>
<pdfrwt beam="1">  1       21 0.44199983E-01 0.49530101E+03</pdfrwt>
<pdfrwt beam="2">  1       21 0.15126492E+00 0.49530101E+03</pdfrwt>
<totfact> 0.11964413E+03</totfact>
</mgrwt>
</event>
<event>
 6    1  0.9502611E-004  0.4547649E+03  0.7818608E-02  0.1026385E+00
         21   -1    0    0  503  502  0.00000000000E+00  0.00000000000E+00  0.57666750739E+03  0.57666750739E+03  0.00000000000E+00 0. -1.
         21   -1    0    0  501  503 -0.00000000000E+00 -0.00000000000E+00 -0.48648948073E+03  0.48648948073E+03  0.00000000000E+00 0. -1.
    9000007    2    1    2  501    0  0.95822277768E+02  0.19160499937E+03 -0.22823790013E+03  0.50882578105E+03  0.40114430284E+03 0.  0.
    9000005    1    3    3    0    0  0.12659286533E+03 -0.87783082642E+01 -0.27314076301E+03  0.30118049183E+03  0.99999687468E+00 0.  0.
          4    1    3    3  501    0 -0.30770587563E+02  0.20038330764E+03  0.44902862878E+02  0.20764528922E+03  0.00000000000E+00 0.  1.
   -9000007    1    1    2    0  502 -0.95822277768E+02 -0.19160499937E+03  0.31841592680E+03  0.55433120708E+03  0.40000000000E+03 0. -1.
<mgrwt>
<rscale>  2 0.45451245E+03</rscale>
<asrwt>0</asrwt>
<pdfrwt beam="1">  1       21 0.88718078E-01 0.45476492E+03</pdfrwt>
<pdfrwt beam="2">  1       21 0.74844536E-01 0.45476492E+03</pdfrwt>
<totfact> 0.14853414E+03</totfact>
</mgrwt>
</event>
<event>
 6    1  0.9502611E-004  0.5457752E+03  0.7818608E-02  0.1002486E+00
         21   -1    0    0  503  502  0.00000000000E+00  0.00000000000E+00  0.82667703746E+03  0.82667703746E+03  0.00000000000E+00 0. -1.
         21   -1    0    0  501  503 -0.00000000000E+00 -0.00000000000E+00 -0.37770577130E+03  0.37770577130E+03  0.00000000000E+00 0. -1.
    9000007    2    1    2  501    0  0.22338195925E+03  0.29630685153E+03  0.94940535438E+02  0.55397139414E+03  0.40021662918E+03 0.  0.
    9000005    1    3    3    0    0  0.11027912116E+03  0.24025505210E+03  0.24323106731E+03  0.35923018626E+03  0.99999687468E+00 0.  0.
          4    1    3    3  501    0  0.11310283809E+03  0.56051799430E+02 -0.14829053187E+03  0.19474120788E+03  0.00000000000E+00 0.  1.
   -9000007    1    1    2    0  502 -0.22338195925E+03 -0.29630685153E+03  0.35403073072E+03  0.65041141463E+03  0.40000000000E+03 0. -1.
<mgrwt>
<rscale>  2 0.54573552E+03</rscale>
<asrwt>0</asrwt>
<pdfrwt beam="1">  1       21 0.12718108E+00 0.54577523E+03</pdfrwt>
<pdfrwt beam="2">  1       21 0.58108580E-01 0.54577523E+03</pdfrwt>
<totfact> 0.10384850E+03</totfact>
</mgrwt>
</event>
<event>
 6    1  0.9502611E-004  0.7249757E+03  0.7818608E-02  0.9675878E-01
         21   -1    0    0  503  502  0.00000000000E+00  0.00000000000E+00  0.65194950009E+03  0.65194950009E+03  0.00000000000E+00 0.  1.
         21   -1    0    0  501  503 -0.00000000000E+00 -0.00000000000E+00 -0.80765268452E+03  0.80765268452E+03  0.00000000000E+00 0. -1.
    9000007    2    1    2  501    0  0.54462828180E+03  0.25971245545E+03 -0.11960538321E+03  0.73477560114E+03  0.40189452781E+03 0.  0.
    9000005    1    3    3    0    0  0.44264560722E+03  0.58294284982E+02 -0.20772024174E+03  0.49242467046E+03  0.99999687468E+00 0.  0.
          4    1    3    3  501    0  0.10198267458E+03  0.20141817046E+03  0.88114858532E+02  0.24235093068E+03  0.00000000000E+00 0.  1.
   -9000007    1    1    2    0  502 -0.54462828180E+03 -0.25971245545E+03 -0.36097801214E+02  0.72482658347E+03  0.40000000000E+03 0.  1.
<mgrwt>
<rscale>  2 0.72471341E+03</rscale>
<asrwt>0</asrwt>
<pdfrwt beam="1">  1       21 0.10029992E+00 0.72497568E+03</pdfrwt>
<pdfrwt beam="2">  1       21 0.12425426E+00 0.72497568E+03</pdfrwt>
<totfact> 0.29530345E+02</totfact>
</mgrwt>
</event>
<event>
 6    1  0.9502611E-004  0.4590583E+03  0.7818608E-02  0.1025132E+00
         21   -1    0    0  503  502  0.00000000000E+00  0.00000000000E+00  0.92191235566E+03  0.92191235566E+03  0.00000000000E+00 0.  1.
         21   -1    0    0  501  503 -0.00000000000E+00 -0.00000000000E+00 -0.46829223735E+03  0.46829223735E+03  0.00000000000E+00 0. -1.
    9000007    2    1    2  501    0 -0.65507830185E+01  0.22296281387E+03 -0.27092714720E+03  0.53304412431E+03  0.40122212083E+03 0.  0.
    9000005    1    3    3    0    0 -0.56444928270E+02  0.30676711870E+03 -0.29845202000E+03  0.43170210015E+03  0.99999687468E+00 0.  0.
          4    1    3    3  501    0  0.49894145252E+02 -0.83804304829E+02  0.27524872795E+02  0.10134202416E+03  0.00000000000E+00 0.  1.
   -9000007    1    1    2    0  502  0.65507830185E+01 -0.22296281387E+03  0.72454726552E+03  0.85716046870E+03  0.40000000000E+03 0.  1.
<mgrwt>
<rscale>  2 0.45879112E+03</rscale>
<asrwt>0</asrwt>
<pdfrwt beam="1">  1       21 0.14183267E+00 0.45905830E+03</pdfrwt>
<pdfrwt beam="2">  1       21 0.72044960E-01 0.45905830E+03</pdfrwt>
<totfact> 0.49968659E+02</totfact>
</mgrwt>
</event>
<event>
 6    1  0.9502611E-004  0.4502356E+03  0.7818608E-02  0.1027667E+00
         21   -1    0    0  503  502  0.00000000000E+00  0.00000000000E+00  0.14653438933E+04  0.14653438933E+04  0.00000000000E+00 0. -1.
         21   -1    0    0  501  503 -0.00000000000E+00 -0.00000000000E+00 -0.14717145959E+03  0.14717145959E+03  0.00000000000E+00 0. -1.
    9000007    2    1    2  501    0  0.19522387406E+03 -0.66495492538E+02  0.85743302003E+03  0.96845416104E+03  0.40022252144E+03 0.  0.
    9000005    1    3    3    0    0  0.31661301603E+03 -0.13327091044E+02  0.63057791693E+03  0.70572722960E+03  0.99999687468E+00 0.  0.
          4    1    3    3  501    0 -0.12138914197E+03 -0.53168401494E+02  0.22685510309E+03  0.26272693144E+03  0.00000000000E+00 0.  1.
   -9000007    1    1    2    0  502 -0.19522387406E+03  0.66495492538E+02  0.46073941368E+03  0.64406119185E+03  0.40000000000E+03 0. -1.
<mgrwt>
<rscale>  2 0.45018612E+03</rscale>
<asrwt>0</asrwt>
<pdfrwt beam="1">  1       21 0.22543751E+00 0.45023558E+03</pdfrwt>
<pdfrwt beam="2">  1       21 0.22641764E-01 0.45023558E+03</pdfrwt>
<totfact> 0.14202001E+03</totfact>
</mgrwt>
</event>
<event>
 6    1  0.9502611E-004  0.7642251E+03  0.7818608E-02  0.9613355E-01
         21   -1    0    0  503  502  0.00000000000E+00  0.00000000000E+00  0.98708929206E+03  0.98708929206E+03  0.00000000000E+00 0. -1.
         21   -1    0    0  501  503 -0.00000000000E+00 -0.00000000000E+00 -0.74890807501E+03  0.74890807501E+03  0.00000000000E+00 0.  1.
    9000007    2    1    2  501    0 -0.32205091020E+03 -0.56597108625E+03  0.51695009303E+03  0.92251587038E+03  0.39969747707E+03 0.  0.
    9000005    1    3    3    0    0 -0.22964057364E+03 -0.58679614842E+03  0.53436204207E+03  0.82620112858E+03  0.99999687468E+00 0.  0.
          4    1    3    3  501    0 -0.92410336562E+02  0.20825062168E+02 -0.17411949041E+02  0.96314741796E+02  0.00000000000E+00 0.  1.
   -9000007    1    1    2    0  502  0.32205091020E+03  0.56597108625E+03 -0.27876887599E+03  0.81348149669E+03  0.40000000000E+03 0.  1.
<mgrwt>
<rscale>  2 0.76418556E+03</rscale>
<asrwt>0</asrwt>
<pdfrwt beam="1">  1       21 0.15185989E+00 0.76422514E+03</pdfrwt>
<pdfrwt beam="2">  1       21 0.11521663E+00 0.76422514E+03</pdfrwt>
<totfact> 0.12041690E+02</totfact>
</mgrwt>
</event>
<event>
 6    1  0.9502611E-004  0.4329237E+03  0.7818608E-02  0.1032967E+00
         21   -1    0    0  503  502  0.00000000000E+00  0.00000000000E+00  0.75117992815E+03  0.75117992815E+03  0.00000000000E+00 0. -1.
         21   -1    0    0  501  503 -0.00000000000E+00 -0.00000000000E+00 -0.24952080686E+03  0.24952080686E+03  0.00000000000E+00 0. -1.
    9000007    2    1    2  501    0  0.11280694798E+03 -0.12123333743E+03  0.23611224605E+03  0.49282469445E+03  0.39963015040E+03 0.  0.
    9000005    1    3    3    0    0  0.11465650961E+03 -0.25935255835E+03  0.20847469500E+03  0.35195534258E+03  0.99999687468E+00 0.  0.
          4    1    3    3  501    0 -0.18495616303E+01  0.13811922093E+03  0.27637551046E+02  0.14086935187E+03  0.00000000000E+00 0.  1.
   -9000007    1    1    2    0  502 -0.11280694798E+03  0.12123333743E+03  0.26554687525E+03  0.50787604055E+03  0.40000000000E+03 0. -1.
<mgrwt>
<rscale>  2 0.43283825E+03</rscale>
<asrwt>0</asrwt>
<pdfrwt beam="1">  1       21 0.11556614E+00 0.43292370E+03</pdfrwt>
<pdfrwt beam="2">  1       21 0.38387817E-01 0.43292370E+03</pdfrwt>
<totfact> 0.33167131E+03</totfact>
</mgrwt>
</event>
<event>
 6    1  0.9502611E-004  0.4046169E+03  0.7818608E-02  0.1042203E+00
         21   -1    0    0  503  502  0.00000000000E+00  0.00000000000E+00  0.14654793951E+04  0.14654793951E+04  0.00000000000E+00 0. -1.
         21   -1    0    0  501  503 -0.00000000000E+00 -0.00000000000E+00 -0.15651078553E+03  0.15651078553E+03  0.00000000000E+00 0. -1.
    9000007    2    1    2  501    0 -0.58292165544E+02 -0.17801192275E+02  0.22036862116E+03  0.46062684653E+03  0.39987485985E+03 0.  0.
    9000005    1    3    3    0    0  0.50375383744E+02  0.15567226869E+03  0.52901691009E+01  0.16370864488E+03  0.99999687468E+00 0.  0.
          4    1    3    3  501    0 -0.10866754929E+03 -0.17347346097E+03  0.21507845206E+03  0.29691820164E+03  0.00000000000E+00 0.  1.
   -9000007    1    1    2    0  502  0.58292165544E+02  0.17801192275E+02  0.10885999884E+04  0.11613633341E+04  0.40000000000E+03 0. -1.
<mgrwt>
<rscale>  2 0.40458600E+03</rscale>
<asrwt>0</asrwt>
<pdfrwt beam="1">  1       21 0.22545836E+00 0.40461693E+03</pdfrwt>
<pdfrwt beam="2">  1       21 0.24078583E-01 0.40461693E+03</pdfrwt>
<totfact> 0.12892046E+03</totfact>
</mgrwt>
</event>
<event>
 6    1  0.9502611E-004  0.4527777E+03  0.7818608E-02  0.1026899E+00
         21   -1    0    0  503  502  0.00000000000E+00  0.00000000000E+00  0.13958110902E+04  0.13958110902E+04  0.00000000000E+00 0.  1.
         21   -1    0    0  501  503 -0.00000000000E+00 -0.00000000000E+00 -0.15642576628E+03  0.15642576628E+03  0.00000000000E+00 0. -1.
    9000007    2    1    2  501    0 -0.89869582252E+02  0.19211196363E+03  0.42783270027E+03  0.62293539337E+03  0.40003016950E+03 0.  0.
    9000005    1    3    3    0    0  0.15366562678E+03  0.25094256227E+02  0.12204947337E+03  0.19783811688E+03  0.99999687468E+00 0.  0.
          4    1    3    3  501    0 -0.24353520903E+03  0.16701770740E+03  0.30578322690E+03  0.42509727649E+03  0.00000000000E+00 0.  1.
   -9000007    1    1    2    0  502  0.89869582252E+02 -0.19211196363E+03  0.81155262362E+03  0.92930146308E+03  0.40000000000E+03 0.  1.
<mgrwt>
<rscale>  2 0.45277108E+03</rscale>
<asrwt>0</asrwt>
<pdfrwt beam="1">  1       21 0.21474016E+00 0.45277774E+03</pdfrwt>
<pdfrwt beam="2">  1       21 0.24065503E-01 0.45277774E+03</pdfrwt>
<totfact> 0.14760000E+03</totfact>
</mgrwt>
</event>
<event>
 6    1  0.9502611E-004  0.4329486E+03  0.7818608E-02  0.1032944E+00
         21   -1    0    0  503  502  0.00000000000E+00  0.00000000000E+00  0.60358902520E+03  0.60358902520E+03  0.00000000000E+00 0. -1.
         21   -1    0    0  501  503 -0.00000000000E+00 -0.00000000000E+00 -0.31496328878E+03  0.31496328878E+03  0.00000000000E+00 0. -1.
    9000007    2    1    2  501    0  0.13752023698E+03 -0.91655452644E+02  0.19937369071E+03  0.47664908335E+03  0.40016489418E+03 0.  0.
    9000005    1    3    3    0    0  0.34359830868E+01  0.37661742024E+02 -0.10955443063E+03  0.11590248512E+03  0.99999687468E+00 0.  0.
          4    1    3    3  501    0  0.13408425390E+03 -0.12931719467E+03  0.30892812134E+03  0.36074659823E+03  0.00000000000E+00 0.  1.
   -9000007    1    1    2    0  502 -0.13752023698E+03  0.91655452644E+02  0.89252045708E+02  0.44190323063E+03  0.40000000000E+03 0.  1.
<mgrwt>
<rscale>  2 0.43291048E+03</rscale>
<asrwt>0</asrwt>
<pdfrwt beam="1">  1       21 0.92859850E-01 0.43294859E+03</pdfrwt>
<pdfrwt beam="2">  1       21 0.48455891E-01 0.43294859E+03</pdfrwt>
<totfact> 0.34882896E+03</totfact>
</mgrwt>
</event>
<event>
 6    1  0.9502611E-004  0.4280074E+03  0.7818608E-02  0.1034532E+00
         21   -1    0    0  503  502  0.00000000000E+00  0.00000000000E+00  0.87985396703E+02  0.87985396703E+02  0.00000000000E+00 0. -1.
         21   -1    0    0  501  503 -0.00000000000E+00 -0.00000000000E+00 -0.20852533650E+04  0.20852533650E+04  0.00000000000E+00 0.  1.
    9000007    2    1    2  501    0  0.67527508647E+02 -0.13485856515E+03 -0.94232168179E+03  0.10349688181E+04  0.40055399826E+03 0.  0.
    9000005    1    3    3    0    0 -0.96586431048E+02 -0.20599036264E+03 -0.68337490331E+03  0.72025219655E+03  0.99999687468E+00 0.  0.
          4    1    3    3  501    0  0.16411393970E+03  0.71131797497E+02 -0.25894677848E+03  0.31471662158E+03  0.00000000000E+00 0.  1.
   -9000007    1    1    2    0  502 -0.67527508647E+02  0.13485856515E+03 -0.10549462865E+04  0.11382699436E+04  0.40000000000E+03 0.  1.
<mgrwt>
<rscale>  2 0.42787770E+03</rscale>
<asrwt>0</asrwt>
<pdfrwt beam="1">  1       21 0.13536217E-01 0.42800736E+03</pdfrwt>
<pdfrwt beam="2">  1       21 0.32080816E+00 0.42800736E+03</pdfrwt>
<totfact> 0.99337752E+02</totfact>
</mgrwt>
</event>
<event>
 6    1  0.9502611E-004  0.4962791E+03  0.7818608E-02  0.1014755E+00
         21   -1    0    0  503  502  0.00000000000E+00  0.00000000000E+00  0.12954013267E+04  0.12954013267E+04  0.00000000000E+00 0.  1.
         21   -1    0    0  501  503 -0.00000000000E+00 -0.00000000000E+00 -0.22591105469E+03  0.22591105469E+03  0.00000000000E+00 0. -1.
    9000007    2    1    2  501    0  0.27730525539E+03 -0.96926350378E+02  0.23201223215E+03  0.54783285447E+03  0.39999779812E+03 0.  0.
    9000005    1    3    3    0    0  0.25226137224E+03 -0.22179024373E+03  0.72349636130E+02  0.34360177820E+03  0.99999687468E+00 0.  0.
          4    1    3    3  501    0  0.25043883145E+02  0.12486389335E+03  0.15966259602E+03  0.20423107627E+03  0.00000000000E+00 0.  1.
   -9000007    1    1    2    0  502 -0.27730525539E+03  0.96926350378E+02  0.83747803983E+03  0.97347952688E+03  0.40000000000E+03 0. -1.
<mgrwt>
<rscale>  2 0.49627863E+03</rscale>
<asrwt>0</asrwt>
<pdfrwt beam="1">  1       21 0.19929251E+00 0.49627908E+03</pdfrwt>
<pdfrwt beam="2">  1       21 0.34755548E-01 0.49627908E+03</pdfrwt>
<totfact> 0.88353738E+02</totfact>
</mgrwt>
</event>
<event>
 6    1  0.9502611E-004  0.4576811E+03  0.7818608E-02  0.1025501E+00
         21   -1    0    0  503  502  0.00000000000E+00  0.00000000000E+00  0.13113433229E+04  0.13113433229E+04  0.00000000000E+00 0.  1.
         21   -1    0    0  501  503 -0.00000000000E+00 -0.00000000000E+00 -0.26500879002E+03  0.26500879002E+03  0.00000000000E+00 0. -1.
    9000007    2    1    2  501    0  0.22238707754E+03  0.40014432965E+01  0.25692939399E+02  0.45778996169E+03  0.39929875793E+03 0.  0.
    9000005    1    3    3    0    0  0.71964737134E+02 -0.89085784168E+02 -0.16295716558E+03  0.19917639956E+03  0.99999687468E+00 0.  0.
          4    1    3    3  501    0  0.15042234040E+03  0.93087227465E+02  0.18865010498E+03  0.25861356213E+03  0.00000000000E+00 0.  1.
   -9000007    1    1    2    0  502 -0.22238707754E+03 -0.40014432965E+01  0.10206415935E+04  0.11185621512E+04  0.40000000000E+03 0.  1.
<mgrwt>
<rscale>  2 0.45752788E+03</rscale>
<asrwt>0</asrwt>
<pdfrwt beam="1">  1       21 0.20174512E+00 0.45768114E+03</pdfrwt>
<pdfrwt beam="2">  1       21 0.40770584E-01 0.45768114E+03</pdfrwt>
<totfact> 0.62456972E+02</totfact>
</mgrwt>
</event>
<event>
 6    1  0.9502611E-004  0.4264545E+03  0.7818608E-02  0.1035034E+00
         21   -1    0    0  503  502  0.00000000000E+00  0.00000000000E+00  0.62125843658E+03  0.62125843658E+03  0.00000000000E+00 0.  1.
         21   -1    0    0  501  503 -0.00000000000E+00 -0.00000000000E+00 -0.31205618889E+03  0.31205618889E+03  0.00000000000E+00 0.  1.
    9000007    2    1    2  501    0  0.14095616728E+03 -0.44663418855E+02  0.27186651835E+03  0.50522886448E+03  0.39935114827E+03 0.  0.
    9000005    1    3    3    0    0 -0.89501982437E+02  0.23427222941E+02 -0.48727498093E+02  0.10456963565E+03  0.99999687468E+00 0.  0.
          4    1    3    3  501    0  0.23045814971E+03 -0.68090641796E+02  0.32059401645E+03  0.40065922884E+03  0.00000000000E+00 0.  1.
   -9000007    1    1    2    0  502 -0.14095616728E+03  0.44663418855E+02  0.37335729332E+02  0.42808576099E+03  0.40000000000E+03 0.  1.
<mgrwt>
<rscale>  2 0.42630231E+03</rscale>
<asrwt>0</asrwt>
<pdfrwt beam="1">  1       21 0.95578221E-01 0.42645453E+03</pdfrwt>
<pdfrwt beam="2">  1       21 0.48008644E-01 0.42645453E+03</pdfrwt>
<totfact> 0.33282323E+03</totfact>
</mgrwt>
</event>
<event>
 6    1  0.9502611E-004  0.6231330E+03  0.7818608E-02  0.9859060E-01
         21   -1    0    0  503  502  0.00000000000E+00  0.00000000000E+00  0.18913320418E+04  0.18913320418E+04  0.00000000000E+00 0.  1.
         21   -1    0    0  501  503 -0.00000000000E+00 -0.00000000000E+00 -0.54002174627E+03  0.54002174627E+03  0.00000000000E+00 0. -1.
    9000007    2    1    2  501    0  0.50440966351E+02 -0.47375682798E+03 -0.28171277878E+03  0.68385437909E+03  0.40162781145E+03 0.  0.
    9000005    1    3    3    0    0  0.19992701635E+03 -0.25298651144E+03 -0.26384207974E+03  0.41663728814E+03  0.99999687468E+00 0.  0.
          4    1    3    3  501    0 -0.14948605000E+03 -0.22077031654E+03 -0.17870699043E+02  0.26721709095E+03  0.00000000000E+00 0.  1.
   -9000007    1    1    2    0  502 -0.50440966351E+02  0.47375682798E+03  0.16330230743E+04  0.17474994090E+04  0.40000000000E+03 0.  1.
<mgrwt>
<rscale>  2 0.62287084E+03</rscale>
<asrwt>0</asrwt>
<pdfrwt beam="1">  1       21 0.29097416E+00 0.62313299E+03</pdfrwt>
<pdfrwt beam="2">  1       21 0.83080270E-01 0.62313299E+03</pdfrwt>
<totfact> 0.33378518E+01</totfact>
</mgrwt>
</event>
<event>
 6    1  0.9502611E-004  0.4064784E+03  0.7818608E-02  0.1041592E+00
         21   -1    0    0  503  502  0.00000000000E+00  0.00000000000E+00  0.11383627697E+04  0.11383627697E+04  0.00000000000E+00 0. -1.
         21   -1    0    0  501  503 -0.00000000000E+00 -0.00000000000E+00 -0.24386253550E+03  0.24386253550E+03  0.00000000000E+00 0. -1.
    9000007    2    1    2  501    0 -0.67984612607E+02  0.24551721256E+02  0.70908462351E+01  0.40615147786E+03  0.39960486521E+03 0.  0.
    9000005    1    3    3    0    0 -0.15252361184E+03 -0.14150161253E+03 -0.44595299294E+02  0.21278134136E+03  0.99999687468E+00 0.  0.
          4    1    3    3  501    0  0.84538999234E+02  0.16605333378E+03  0.51686145529E+02  0.19337013650E+03  0.00000000000E+00 0.  1.
   -9000007    1    1    2    0  502  0.67984612607E+02 -0.24551721256E+02  0.88740938799E+03  0.97607382736E+03  0.40000000000E+03 0. -1.
<mgrwt>
<rscale>  2 0.40638116E+03</rscale>
<asrwt>0</asrwt>
<pdfrwt beam="1">  1       21 0.17513273E+00 0.40647841E+03</pdfrwt>
<pdfrwt beam="2">  1       21 0.37517314E-01 0.40647841E+03</pdfrwt>
<totfact> 0.11566391E+03</totfact>
</mgrwt>
</event>
<event>
 6    1  0.9502611E-004  0.6010443E+03  0.7818608E-02  0.9903322E-01
         21   -1    0    0  503  502  0.00000000000E+00  0.00000000000E+00  0.16461745909E+04  0.16461745909E+04  0.00000000000E+00 0. -1.
         21   -1    0    0  501  503 -0.00000000000E+00 -0.00000000000E+00 -0.23170301058E+03  0.23170301058E+03  0.00000000000E+00 0. -1.
    9000007    2    1    2  501    0  0.34250836481E+02  0.44730431015E+03  0.49074158275E+03  0.77581981076E+03  0.39976844805E+03 0.  0.
    9000005    1    3    3    0    0  0.11328681963E+03  0.49063856694E+03  0.36869673249E+03  0.62409805913E+03  0.99999687468E+00 0.  0.
          4    1    3    3  501    0 -0.79035983144E+02 -0.43334256793E+02  0.12204485026E+03  0.15172175164E+03  0.00000000000E+00 0.  1.
   -9000007    1    1    2    0  502 -0.34250836481E+02 -0.44730431015E+03  0.92372999758E+03  0.11020577907E+04  0.40000000000E+03 0. -1.
<mgrwt>
<rscale>  2 0.60100579E+03</rscale>
<asrwt>0</asrwt>
<pdfrwt beam="1">  1       21 0.25325762E+00 0.60104431E+03</pdfrwt>
<pdfrwt beam="2">  1       21 0.35646618E-01 0.60104431E+03</pdfrwt>
<totfact> 0.36269965E+02</totfact>
</mgrwt>
</event>
<event>
 6    1  0.9502611E-004  0.4270446E+03  0.7818608E-02  0.1034826E+00
         21   -1    0    0  503  502  0.00000000000E+00  0.00000000000E+00  0.12468144265E+04  0.12468144265E+04  0.00000000000E+00 0.  1.
         21   -1    0    0  501  503 -0.00000000000E+00 -0.00000000000E+00 -0.15711046523E+03  0.15711046523E+03  0.00000000000E+00 0.  1.
    9000007    2    1    2  501    0  0.12868995783E+03  0.74181037744E+02  0.35961220822E+03  0.55829027827E+03  0.40037877430E+03 0.  0.
    9000005    1    3    3    0    0  0.15303175468E+03  0.14353710188E+02  0.43362262671E+03  0.46005904983E+03  0.99999687468E+00 0.  0.
          4    1    3    3  501    0 -0.24341796852E+02  0.59827327556E+02 -0.74010418494E+02  0.98231228447E+02  0.00000000000E+00 0.  1.
   -9000007    1    1    2    0  502 -0.12868995783E+03 -0.74181037744E+02  0.73009175303E+03  0.84563461344E+03  0.40000000000E+03 0.  1.
<mgrwt>
<rscale>  2 0.42695580E+03</rscale>
<asrwt>0</asrwt>
<pdfrwt beam="1">  1       21 0.19181760E+00 0.42704460E+03</pdfrwt>
<pdfrwt beam="2">  1       21 0.24170842E-01 0.42704460E+03</pdfrwt>
<totfact> 0.20993596E+03</totfact>
</mgrwt>
</event>
<event>
 6    1  0.9502611E-004  0.4643544E+03  0.7818608E-02  0.1023538E+00
         21   -1    0    0  503  502  0.00000000000E+00  0.00000000000E+00  0.22681561926E+03  0.22681561926E+03  0.00000000000E+00 0. -1.
         21   -1    0    0  501  503 -0.00000000000E+00 -0.00000000000E+00 -0.10380271059E+04  0.10380271059E+04  0.00000000000E+00 0. -1.
    9000007    2    1    2  501    0 -0.22165352825E+03  0.80589969567E+02 -0.58937138862E+03  0.75021853328E+03  0.39980518278E+03 0.  0.
    9000005    1    3    3    0    0  0.92071985161E+01 -0.16570590934E+02 -0.47412326454E+03  0.47450313693E+03  0.99999687468E+00 0.  0.
          4    1    3    3  501    0 -0.23086072676E+03  0.97160560501E+02 -0.11524812408E+03  0.27571539635E+03  0.00000000000E+00 0.  1.
   -9000007    1    1    2    0  502  0.22165352825E+03 -0.80589969567E+02 -0.22184009804E+03  0.51462419189E+03  0.40000000000E+03 0. -1.
<mgrwt>
<rscale>  2 0.46431247E+03</rscale>
<asrwt>0</asrwt>
<pdfrwt beam="1">  1       21 0.34894710E-01 0.46435442E+03</pdfrwt>
<pdfrwt beam="2">  1       21 0.15969648E+00 0.46435442E+03</pdfrwt>
<totfact> 0.16960616E+03</totfact>
</mgrwt>
</event>
<event>
 6    1  0.9502611E-004  0.4204573E+03  0.7818608E-02  0.1037008E+00
         21   -1    0    0  503  502  0.00000000000E+00  0.00000000000E+00  0.33359423132E+04  0.33359423132E+04  0.00000000000E+00 0. -1.
         21   -1    0    0  501  503 -0.00000000000E+00 -0.00000000000E+00 -0.13997835648E+03  0.13997835648E+03  0.00000000000E+00 0. -1.
    9000007    2    1    2  501    0 -0.12750147350E+03 -0.22971925341E+02  0.22605473533E+03  0.47639652101E+03  0.39883400904E+03 0.  0.
    9000005    1    3    3    0    0 -0.25398960656E+03  0.68317041716E+02  0.13259077012E+03  0.29454923314E+03  0.99999687468E+00 0.  0.
          4    1    3    3  501    0  0.12648813306E+03 -0.91288967057E+02  0.93463965217E+02  0.18184728787E+03  0.00000000000E+00 0.  1.
   -9000007    1    1    2    0  502  0.12750147350E+03  0.22971925341E+02  0.29699092214E+04  0.29995241487E+04  0.40000000000E+03 0. -1.
<mgrwt>
<rscale>  2 0.42017974E+03</rscale>
<asrwt>0</asrwt>
<pdfrwt beam="1">  1       21 0.51322183E+00 0.42045729E+03</pdfrwt>
<pdfrwt beam="2">  1       21 0.21535134E-01 0.42045729E+03</pdfrwt>
<totfact> 0.22931524E+01</totfact>
</mgrwt>
</event>
<event>
 6    1  0.9502611E-004  0.4718168E+03  0.7818608E-02  0.1021417E+00
         21   -1    0    0  503  502  0.00000000000E+00  0.00000000000E+00  0.19770564213E+04  0.19770564213E+04  0.00000000000E+00 0.  1.
         21   -1    0    0  501  503 -0.00000000000E+00 -0.00000000000E+00 -0.24405335916E+03  0.24405335916E+03  0.00000000000E+00 0.  1.
    9000007    2    1    2  501    0  0.14996655292E+03  0.20030266771E+03  0.51312270010E+02  0.47448588105E+03  0.39986594825E+03 0.  0.
    9000005    1    3    3    0    0  0.14130316821E+03  0.90910225683E+01  0.19083038577E+03  0.23762674127E+03  0.99999687468E+00 0.  0.
          4    1    3    3  501    0  0.86633847064E+01  0.19121164514E+03 -0.13951811576E+03  0.23685913978E+03  0.00000000000E+00 0.  1.
   -9000007    1    1    2    0  502 -0.14996655292E+03 -0.20030266771E+03  0.16816907921E+04  0.17466238994E+04  0.40000000000E+03 0.  1.
<mgrwt>
<rscale>  2 0.47178842E+03</rscale>
<asrwt>0</asrwt>
<pdfrwt beam="1">  1       21 0.30416252E+00 0.47181683E+03</pdfrwt>
<pdfrwt beam="2">  1       21 0.37546672E-01 0.47181683E+03</pdfrwt>
<totfact> 0.17011767E+02</totfact>
</mgrwt>
</event>
<event>
 6    1  0.9502611E-004  0.4496363E+03  0.7818608E-02  0.1027881E+00
         21   -1    0    0  503  502  0.00000000000E+00  0.00000000000E+00  0.19650319674E+04  0.19650319674E+04  0.00000000000E+00 0. -1.
         21   -1    0    0  501  503 -0.00000000000E+00 -0.00000000000E+00 -0.12808188297E+03  0.12808188297E+03  0.00000000000E+00 0. -1.
    9000007    2    1    2  501    0 -0.13721019912E+03 -0.15279439509E+03  0.45232664320E+03  0.63731343826E+03  0.39924461239E+03 0.  0.
    9000005    1    3    3    0    0 -0.80637603517E+02  0.13185966787E+03  0.19980707887E+03  0.25261287353E+03  0.99999687468E+00 0.  0.
          4    1    3    3  501    0 -0.56572595607E+02 -0.28465406296E+03  0.25251956432E+03  0.38470056473E+03  0.00000000000E+00 0.  1.
   -9000007    1    1    2    0  502  0.13721019912E+03  0.15279439509E+03  0.13846234412E+04  0.14558004121E+04  0.40000000000E+03 0. -1.
<mgrwt>
<rscale>  2 0.44946820E+03</rscale>
<asrwt>0</asrwt>
<pdfrwt beam="1">  1       21 0.30231259E+00 0.44963626E+03</pdfrwt>
<pdfrwt beam="2">  1       21 0.19704906E-01 0.44963626E+03</pdfrwt>
<totfact> 0.62867607E+02</totfact>
</mgrwt>
</event>
<event>
 6    1  0.9502611E-004  0.5820435E+03  0.7818608E-02  0.9943531E-01
         21   -1    0    0  503  502  0.00000000000E+00  0.00000000000E+00  0.90825831238E+03  0.90825831238E+03  0.00000000000E+00 0. -1.
         21   -1    0    0  501  503 -0.00000000000E+00 -0.00000000000E+00 -0.68628834938E+03  0.68628834938E+03  0.00000000000E+00 0.  1.
    9000007    2    1    2  501    0 -0.38295320147E+03  0.17922462102E+03 -0.42786670943E+03  0.72215780344E+03  0.39958397457E+03 0.  0.
    9000005    1    3    3    0    0  0.57515686772E+02  0.79449971629E+02  0.27676597840E+01  0.98127530037E+02  0.99999687468E+00 0.  0.
          4    1    3    3  501    0 -0.44046888824E+03  0.99774649393E+02 -0.43063436921E+03  0.62403027340E+03  0.00000000000E+00 0.  1.
   -9000007    1    1    2    0  502  0.38295320147E+03 -0.17922462102E+03  0.64983667243E+03  0.87238885833E+03  0.40000000000E+03 0. -1.
<mgrwt>
<rscale>  2 0.58197202E+03</rscale>
<asrwt>0</asrwt>
<pdfrwt beam="1">  1       21 0.13973205E+00 0.58204349E+03</pdfrwt>
<pdfrwt beam="2">  1       21 0.10558282E+00 0.58204349E+03</pdfrwt>
<totfact> 0.20012983E+02</totfact>
</mgrwt>
</event>
<event>
 6    1  0.9502611E-004  0.6457717E+03  0.7818608E-02  0.9815276E-01
         21   -1    0    0  503  502  0.00000000000E+00  0.00000000000E+00  0.10388014093E+04  0.10388014093E+04  0.00000000000E+00 0.  1.
         21   -1    0    0  501  503 -0.00000000000E+00 -0.00000000000E+00 -0.44611818804E+03  0.44611818804E+03  0.00000000000E+00 0. -1.
    9000007    2    1    2  501    0  0.68232516738E+02  0.50091942918E+03  0.53334452739E+03  0.83754255771E+03  0.40180243928E+03 0.  0.
    9000005    1    3    3    0    0 -0.39446356486E+02  0.53122454650E+03  0.45965253814E+03  0.70358865088E+03  0.99999687468E+00 0.  0.
          4    1    3    3  501    0  0.10767887322E+03 -0.30305117319E+02  0.73691989254E+02  0.13395390683E+03  0.00000000000E+00 0.  1.
   -9000007    1    1    2    0  502 -0.68232516738E+02 -0.50091942918E+03  0.59338693895E+02  0.64737703965E+03  0.40000000000E+03 0. -1.
<mgrwt>
<rscale>  2 0.64549158E+03</rscale>
<asrwt>0</asrwt>
<pdfrwt beam="1">  1       21 0.15981560E+00 0.64577175E+03</pdfrwt>
<pdfrwt beam="2">  1       21 0.68633568E-01 0.64577175E+03</pdfrwt>
<totfact> 0.37448339E+02</totfact>
</mgrwt>
</event>
<event>
 6    1  0.9502611E-004  0.5529709E+03  0.7818608E-02  0.1000833E+00
         21   -1    0    0  503  502  0.00000000000E+00  0.00000000000E+00  0.53367682535E+03  0.53367682535E+03  0.00000000000E+00 0.  1.
         21   -1    0    0  501  503 -0.00000000000E+00 -0.00000000000E+00 -0.78333660725E+03  0.78333660725E+03  0.00000000000E+00 0.  1.
    9000007    2    1    2  501    0 -0.19426689013E+02 -0.38070692725E+03 -0.46647246577E+03  0.72344549160E+03  0.40057665595E+03 0.  0.
    9000005    1    3    3    0    0 -0.96574279576E+02  0.49194734156E+02 -0.14544253938E+03  0.18138700505E+03  0.99999687468E+00 0.  0.
          4    1    3    3  501    0  0.77147590563E+02 -0.42990166141E+03 -0.32102992639E+03  0.54205848655E+03  0.00000000000E+00 0.  1.
   -9000007    1    1    2    0  502  0.19426689013E+02  0.38070692725E+03  0.21681268387E+03  0.59356794101E+03  0.40000000000E+03 0.  1.
<mgrwt>
<rscale>  2 0.55286647E+03</rscale>
<asrwt>0</asrwt>
<pdfrwt beam="1">  1       21 0.82104127E-01 0.55297090E+03</pdfrwt>
<pdfrwt beam="2">  1       21 0.12051332E+00 0.55297090E+03</pdfrwt>
<totfact> 0.54531549E+02</totfact>
</mgrwt>
</event>
<event>
 6    1  0.9502611E-004  0.4516338E+03  0.7818608E-02  0.1027257E+00
         21   -1    0    0  503  502  0.00000000000E+00  0.00000000000E+00  0.45848365168E+03  0.45848365168E+03  0.00000000000E+00 0. -1.
         21   -1    0    0  501  503 -0.00000000000E+00 -0.00000000000E+00 -0.45666965627E+03  0.45666965627E+03  0.00000000000E+00 0. -1.
    9000007    2    1    2  501    0  0.20597268631E+03  0.39348601618E+02 -0.73469047738E+02  0.45728804770E+03  0.39967686653E+03 0.  0.
    9000005    1    3    3    0    0  0.25037533768E+03  0.17652376735E+03 -0.62737367741E+02  0.31270661564E+03  0.99999687468E+00 0.  0.
          4    1    3    3  501    0 -0.44402651371E+02 -0.13717516573E+03 -0.10731679997E+02  0.14458143206E+03  0.00000000000E+00 0.  1.
   -9000007    1    1    2    0  502 -0.20597268631E+03 -0.39348601618E+02  0.75283043143E+02  0.45786526025E+03  0.40000000000E+03 0. -1.
<mgrwt>
<rscale>  2 0.45156221E+03</rscale>
<asrwt>0</asrwt>
<pdfrwt beam="1">  1       21 0.70535946E-01 0.45163377E+03</pdfrwt>
<pdfrwt beam="2">  1       21 0.70256870E-01 0.45163377E+03</pdfrwt>
<totfact> 0.29130590E+03</totfact>
</mgrwt>
</event>
<event>
 6    1  0.9502611E-004  0.6340836E+03  0.7818608E-02  0.9837674E-01
         21   -1    0    0  503  502  0.00000000000E+00  0.00000000000E+00  0.10446090634E+04  0.10446090634E+04  0.00000000000E+00 0.  1.
         21   -1    0    0  501  503 -0.00000000000E+00 -0.00000000000E+00 -0.64969842921E+03  0.64969842921E+03  0.00000000000E+00 0. -1.
    9000007    2    1    2  501    0 -0.47843685319E+03  0.11471768807E+03 -0.34421145163E+03  0.72046796363E+03  0.39815900433E+03 0.  0.
    9000005    1    3    3    0    0 -0.40953508213E+02 -0.61235087317E+02 -0.22119878885E+03  0.23314551236E+03  0.99999687468E+00 0.  0.
          4    1    3    3  501    0 -0.43748334498E+03  0.17595277539E+03 -0.12301266278E+03  0.48732245127E+03  0.00000000000E+00 0.  1.
   -9000007    1    1    2    0  502  0.47843685319E+03 -0.11471768807E+03  0.73912208577E+03  0.97383952894E+03  0.40000000000E+03 0.  1.
<mgrwt>
<rscale>  2 0.63379343E+03</rscale>
<asrwt>0</asrwt>
<pdfrwt beam="1">  1       21 0.16070909E+00 0.63408357E+03</pdfrwt>
<pdfrwt beam="2">  1       21 0.99953604E-01 0.63408357E+03</pdfrwt>
<totfact> 0.15304147E+02</totfact>
</mgrwt>
</event>
<event>
 6    1  0.9502611E-004  0.4703640E+03  0.7818608E-02  0.1021829E+00
         21   -1    0    0  503  502  0.00000000000E+00  0.00000000000E+00  0.21292456519E+04  0.21292456519E+04  0.00000000000E+00 0.  1.
         21   -1    0    0  501  503 -0.00000000000E+00 -0.00000000000E+00 -0.13695846560E+03  0.13695846560E+03  0.00000000000E+00 0.  1.
    9000007    2    1    2  501    0  0.59535666115E+02 -0.23988819841E+03  0.43933440572E+03  0.64362802314E+03  0.40018929126E+03 0.  0.
    9000005    1    3    3    0    0 -0.16385156081E+03 -0.16935678049E+03  0.20611098311E+03  0.31306834785E+03  0.99999687468E+00 0.  0.
          4    1    3    3  501    0  0.22338722693E+03 -0.70531417923E+02  0.23322342261E+03  0.33055967528E+03  0.00000000000E+00 0.  1.
   -9000007    1    1    2    0  502 -0.59535666115E+02  0.23988819841E+03  0.15529527806E+04  0.16225760943E+04  0.40000000000E+03 0.  1.
<mgrwt>
<rscale>  2 0.47032376E+03</rscale>
<asrwt>0</asrwt>
<pdfrwt beam="1">  1       21 0.32757623E+00 0.47036402E+03</pdfrwt>
<pdfrwt beam="2">  1       21 0.21070535E-01 0.47036402E+03</pdfrwt>
<totfact> 0.38483572E+02</totfact>
</mgrwt>
</event>
<event>
 6    1  0.9502611E-004  0.4070863E+03  0.7818608E-02  0.1041373E+00
         21   -1    0    0  503  502  0.00000000000E+00  0.00000000000E+00  0.62436891107E+03  0.62436891107E+03  0.00000000000E+00 0.  1.
         21   -1    0    0  501  503 -0.00000000000E+00 -0.00000000000E+00 -0.43374798746E+03  0.43374798746E+03  0.00000000000E+00 0.  1.
    9000007    2    1    2  501    0  0.66862765628E+02 -0.32535438536E+02 -0.23440469653E+03  0.46974969859E+03  0.40023747124E+03 0.  0.
    9000005    1    3    3    0    0  0.21986171244E+03 -0.39447973443E+02 -0.47960047513E+02  0.22846549270E+03  0.99999687468E+00 0.  0.
          4    1    3    3  501    0 -0.15299894681E+03  0.69125349068E+01 -0.18644464902E+03  0.24128420589E+03  0.00000000000E+00 0.  1.
   -9000007    1    1    2    0  502 -0.66862765628E+02  0.32535438536E+02  0.42502562014E+03  0.58836719994E+03  0.40000000000E+03 0.  1.
<mgrwt>
<rscale>  2 0.40702787E+03</rscale>
<asrwt>0</asrwt>
<pdfrwt beam="1">  1       21 0.96056755E-01 0.40708625E+03</pdfrwt>
<pdfrwt beam="2">  1       21 0.66730460E-01 0.40708625E+03</pdfrwt>
<totfact> 0.16234665E+03</totfact>
</mgrwt>
</event>
<event>
 6    1  0.9502611E-004  0.4181284E+03  0.7818608E-02  0.1037722E+00
         21   -1    0    0  503  502  0.00000000000E+00  0.00000000000E+00  0.15680313060E+04  0.15680313060E+04  0.00000000000E+00 0. -1.
         21   -1    0    0  501  503 -0.00000000000E+00 -0.00000000000E+00 -0.12721587865E+03  0.12721587865E+03  0.00000000000E+00 0. -1.
    9000007    2    1    2  501    0  0.11679999021E+03 -0.34483753400E+02  0.42068646276E+03  0.59275252645E+03  0.39943346218E+03 0.  0.
    9000005    1    3    3    0    0  0.11924435428E+03 -0.11194457409E+03 -0.14447695859E+01  0.16356616719E+03  0.99999687468E+00 0.  0.
          4    1    3    3  501    0 -0.24443640737E+01  0.77460820693E+02  0.42213123234E+03  0.42918635926E+03  0.00000000000E+00 0.  1.
   -9000007    1    1    2    0  502 -0.11679999021E+03  0.34483753400E+02  0.10201289646E+04  0.11024946582E+04  0.40000000000E+03 0. -1.
<mgrwt>
<rscale>  2 0.41799286E+03</rscale>
<asrwt>0</asrwt>
<pdfrwt beam="1">  1       21 0.24123557E+00 0.41812841E+03</pdfrwt>
<pdfrwt beam="2">  1       21 0.19571675E-01 0.41812841E+03</pdfrwt>
<totfact> 0.15178419E+03</totfact>
</mgrwt>
</event>
<event>
 6    1  0.9502611E-004  0.4104049E+03  0.7818608E-02  0.1040242E+00
         21   -1    0    0  503  502  0.00000000000E+00  0.00000000000E+00  0.83123759154E+03  0.83123759154E+03  0.00000000000E+00 0. -1.
         21   -1    0    0  501  503 -0.00000000000E+00 -0.00000000000E+00 -0.51151701056E+03  0.51151701056E+03  0.00000000000E+00 0. -1.
    9000007    2    1    2  501    0  0.86098581807E+02 -0.30843708184E+02 -0.36188805136E+03  0.54717014537E+03  0.40008487368E+03 0.  0.
    9000005    1    3    3    0    0 -0.29734398364E+02  0.10645775010E+03 -0.35011433470E+03  0.36714906286E+03  0.99999687468E+00 0.  0.
          4    1    3    3  501    0  0.11583298017E+03 -0.13730145829E+03 -0.11773716657E+02  0.18002108251E+03  0.00000000000E+00 0.  1.
   -9000007    1    1    2    0  502 -0.86098581807E+02  0.30843708184E+02  0.68160863234E+03  0.79558445674E+03  0.40000000000E+03 0. -1.
<mgrwt>
<rscale>  2 0.41038424E+03</rscale>
<asrwt>0</asrwt>
<pdfrwt beam="1">  1       21 0.12788271E+00 0.41040493E+03</pdfrwt>
<pdfrwt beam="2">  1       21 0.78694925E-01 0.41040493E+03</pdfrwt>
<totfact> 0.54831706E+02</totfact>
</mgrwt>
</event>
<event>
 6    1  0.9502611E-004  0.4009932E+03  0.7818608E-02  0.1043478E+00
         21   -1    0    0  503  502  0.00000000000E+00  0.00000000000E+00  0.30962268551E+03  0.30962268551E+03  0.00000000000E+00 0. -1.
         21   -1    0    0  501  503 -0.00000000000E+00 -0.00000000000E+00 -0.22494835227E+04  0.22494835227E+04  0.00000000000E+00 0. -1.
    9000007    2    1    2  501    0 -0.43354547181E+01 -0.19714255390E+02 -0.20924410934E+04  0.21305176145E+04  0.40048486684E+03 0.  0.
    9000005    1    3    3    0    0  0.53823156557E+02  0.13033493231E+03 -0.17072224457E+04  0.17130363703E+04  0.99999687468E+00 0.  0.
          4    1    3    3  501    0 -0.58158611275E+02 -0.15004918770E+03 -0.38521864764E+03  0.41748124423E+03  0.00000000000E+00 0.  1.
   -9000007    1    1    2    0  502  0.43354547181E+01  0.19714255390E+02  0.15258025620E+03  0.42858859366E+03  0.40000000000E+03 0. -1.
<mgrwt>
<rscale>  2 0.40087212E+03</rscale>
<asrwt>0</asrwt>
<pdfrwt beam="1">  1       21 0.47634259E-01 0.40099324E+03</pdfrwt>
<pdfrwt beam="2">  1       21 0.34607439E+00 0.40099324E+03</pdfrwt>
<totfact> 0.60812645E+01</totfact>
</mgrwt>
</event>
<event>
 6    1  0.9502611E-004  0.4930264E+03  0.7818608E-02  0.1015624E+00
         21   -1    0    0  503  502  0.00000000000E+00  0.00000000000E+00  0.54258350066E+03  0.54258350066E+03  0.00000000000E+00 0.  1.
         21   -1    0    0  501  503 -0.00000000000E+00 -0.00000000000E+00 -0.47692933090E+03  0.47692933090E+03  0.00000000000E+00 0.  1.
    9000007    2    1    2  501    0  0.26746299288E+03  0.10741798738E+03  0.15864794904E+03  0.51779287028E+03  0.39983147475E+03 0.  0.
    9000005    1    3    3    0    0  0.70166370882E+02 -0.14847961039E+03  0.17404138028E+02  0.16514665700E+03  0.99999687468E+00 0.  0.
          4    1    3    3  501    0  0.19729662199E+03  0.25589759776E+03  0.14124381102E+03  0.35264621328E+03  0.00000000000E+00 0.  1.
   -9000007    1    1    2    0  502 -0.26746299288E+03 -0.10741798738E+03 -0.92993779286E+02  0.50171996129E+03  0.40000000000E+03 0.  1.
<mgrwt>
<rscale>  2 0.49299226E+03</rscale>
<asrwt>0</asrwt>
<pdfrwt beam="1">  1       21 0.83474385E-01 0.49302645E+03</pdfrwt>
<pdfrwt beam="2">  1       21 0.73373743E-01 0.49302645E+03</pdfrwt>
<totfact> 0.17680840E+03</totfact>
</mgrwt>
</event>
<event>
 6    1  0.9502611E-004  0.4473547E+03  0.7818608E-02  0.1028598E+00
         21   -1    0    0  503  502  0.00000000000E+00  0.00000000000E+00  0.30370403392E+03  0.30370403392E+03  0.00000000000E+00 0. -1.
         21   -1    0    0  501  503 -0.00000000000E+00 -0.00000000000E+00 -0.14621417744E+04  0.14621417744E+04  0.00000000000E+00 0.  1.
    9000007    2    1    2  501    0  0.16460382171E+03  0.10966606956E+03 -0.12346115274E+04  0.13131610275E+04  0.40125452722E+03 0.  0.
    9000005    1    3    3    0    0  0.20437424990E+03  0.23562803228E+03 -0.93701614498E+03  0.98756754684E+03  0.99999687468E+00 0.  0.
          4    1    3    3  501    0 -0.39770428194E+02 -0.12596196272E+03 -0.29759538244E+03  0.32559348068E+03  0.00000000000E+00 0.  1.
   -9000007    1    1    2    0  502 -0.16460382171E+03 -0.10966606956E+03  0.76173786958E+02  0.45268478078E+03  0.40000000000E+03 0. -1.
<mgrwt>
<rscale>  2 0.44707325E+03</rscale>
<asrwt>0</asrwt>
<pdfrwt beam="1">  1       21 0.46723696E-01 0.44735474E+03</pdfrwt>
<pdfrwt beam="2">  1       21 0.22494490E+00 0.44735474E+03</pdfrwt>
<totfact> 0.33417958E+02</totfact>
</mgrwt>
</event>
<event>
 6    1  0.9502611E-004  0.4169640E+03  0.7818608E-02  0.1038141E+00
         21   -1    0    0  503  502  0.00000000000E+00  0.00000000000E+00  0.12331213937E+03  0.12331213937E+03  0.00000000000E+00 0.  1.
         21   -1    0    0  501  503 -0.00000000000E+00 -0.00000000000E+00 -0.20945079954E+04  0.20945079954E+04  0.00000000000E+00 0.  1.
    9000007    2    1    2  501    0 -0.11516103259E+03  0.24432236209E+02 -0.16203378854E+04  0.16728794838E+04  0.39896354043E+03 0.  0.
    9000005    1    3    3    0    0 -0.13527126272E+03 -0.15926253221E+03 -0.11239786635E+04  0.11432374664E+04  0.99999687468E+00 0.  0.
          4    1    3    3  501    0  0.20110230133E+02  0.18369476842E+03 -0.49635922195E+03  0.52964201732E+03  0.00000000000E+00 0.  1.
   -9000007    1    1    2    0  502  0.11516103259E+03 -0.24432236209E+02 -0.35085797058E+03  0.54494065100E+03  0.40000000000E+03 0.  1.
<mgrwt>
<rscale>  2 0.41671525E+03</rscale>
<asrwt>0</asrwt>
<pdfrwt beam="1">  1       21 0.18971100E-01 0.41696402E+03</pdfrwt>
<pdfrwt beam="2">  1       21 0.32223197E+00 0.41696402E+03</pdfrwt>
<totfact> 0.52271462E+02</totfact>
</mgrwt>
</event>
<event>
 6    1  0.9502611E-004  0.4024233E+03  0.7818608E-02  0.1042957E+00
         21   -1    0    0  503  502  0.00000000000E+00  0.00000000000E+00  0.13952790505E+03  0.13952790505E+03  0.00000000000E+00 0. -1.
         21   -1    0    0  501  503 -0.00000000000E+00 -0.00000000000E+00 -0.12386688883E+04  0.12386688883E+04  0.00000000000E+00 0. -1.
    9000007    2    1    2  501    0 -0.36261230678E+01  0.42506385601E+02 -0.72309529072E+03  0.82753328043E+03  0.40015570617E+03 0.  0.
    9000005    1    3    3    0    0  0.10753301324E+03  0.10713101901E+03 -0.67239988498E+03  0.68932068697E+03  0.99999687468E+00 0.  0.
          4    1    3    3  501    0 -0.11115913631E+03 -0.64624633406E+02 -0.50695405733E+02  0.13821259346E+03  0.00000000000E+00 0.  1.
   -9000007    1    1    2    0  502  0.36261230678E+01 -0.42506385601E+02 -0.37604569254E+03  0.55066351292E+03  0.40000000000E+03 0. -1.
<mgrwt>
<rscale>  2 0.40238461E+03</rscale>
<asrwt>0</asrwt>
<pdfrwt beam="1">  1       21 0.21465832E-01 0.40242332E+03</pdfrwt>
<pdfrwt beam="2">  1       21 0.19056444E+00 0.40242332E+03</pdfrwt>
<totfact> 0.27201190E+03</totfact>
</mgrwt>
</event>
<event>
 6    1  0.9502611E-004  0.4901183E+03  0.7818608E-02  0.1016394E+00
         21   -1    0    0  503  502  0.00000000000E+00  0.00000000000E+00  0.22563721252E+04  0.22563721252E+04  0.00000000000E+00 0. -1.
         21   -1    0    0  501  503 -0.00000000000E+00 -0.00000000000E+00 -0.13717716935E+03  0.13717716935E+03  0.00000000000E+00 0.  1.
    9000007    2    1    2  501    0  0.24912575568E+03  0.13473061809E+03  0.49315606390E+03  0.69525059887E+03  0.39994313380E+03 0.  0.
    9000005    1    3    3    0    0  0.15324018160E+03  0.26677553101E+03  0.40855045856E+03  0.51143544498E+03  0.99999687468E+00 0.  0.
          4    1    3    3  501    0  0.95885574076E+02 -0.13204491292E+03  0.84605605347E+02  0.18381515389E+03  0.00000000000E+00 0.  1.
   -9000007    1    1    2    0  502 -0.24912575568E+03 -0.13473061809E+03  0.16260388919E+04  0.16982986957E+04  0.40000000000E+03 0. -1.
<mgrwt>
<rscale>  2 0.49010673E+03</rscale>
<asrwt>0</asrwt>
<pdfrwt beam="1">  1       21 0.34713415E+00 0.49011833E+03</pdfrwt>
<pdfrwt beam="2">  1       21 0.21104182E-01 0.49011833E+03</pdfrwt>
<totfact> 0.28809997E+02</totfact>
</mgrwt>
</event>
<event>
 6    1  0.9502611E-004  0.5071171E+03  0.7818608E-02  0.1011944E+00
         21   -1    0    0  503  502  0.00000000000E+00  0.00000000000E+00  0.50183520551E+03  0.50183520551E+03  0.00000000000E+00 0.  1.
         21   -1    0    0  501  503 -0.00000000000E+00 -0.00000000000E+00 -0.10139014410E+04  0.10139014410E+04  0.00000000000E+00 0.  1.
    9000007    2    1    2  501    0  0.12207716169E+03 -0.28665909472E+03 -0.78906992553E+03  0.93797604361E+03  0.40011428493E+03 0.  0.
    9000005    1    3    3    0    0  0.73895336923E+01  0.55256299752E+02  0.14136762357E+02  0.57521403965E+02  0.99999687468E+00 0.  0.
          4    1    3    3  501    0  0.11468762800E+03 -0.34191539448E+03 -0.80320668789E+03  0.88045463964E+03  0.00000000000E+00 0.  1.
   -9000007    1    1    2    0  502 -0.12207716169E+03  0.28665909472E+03  0.27700369002E+03  0.57776060292E+03  0.40000000000E+03 0.  1.
<mgrwt>
<rscale>  2 0.50709452E+03</rscale>
<asrwt>0</asrwt>
<pdfrwt beam="1">  1       21 0.77205416E-01 0.50711706E+03</pdfrwt>
<pdfrwt beam="2">  1       21 0.15598484E+00 0.50711706E+03</pdfrwt>
<totfact> 0.32263288E+02</totfact>
</mgrwt>
</event>
<event>
 6    1  0.9502611E-004  0.6750908E+03  0.7818608E-02  0.9761319E-01
         21   -1    0    0  503  502  0.00000000000E+00  0.00000000000E+00  0.96330444591E+03  0.96330444591E+03  0.00000000000E+00 0.  1.
         21   -1    0    0  501  503 -0.00000000000E+00 -0.00000000000E+00 -0.57253588262E+03  0.57253588262E+03  0.00000000000E+00 0. -1.
    9000007    2    1    2  501    0  0.60303971563E+02  0.53903886421E+03 -0.12578260174E+03  0.68670867076E+03  0.40193042866E+03 0.  0.
    9000005    1    3    3    0    0  0.37984488348E+02  0.14542735732E+03  0.14466658891E+03  0.20861773547E+03  0.99999687468E+00 0.  0.
          4    1    3    3  501    0  0.22319483215E+02  0.39361150689E+03 -0.27044919065E+03  0.47809093530E+03  0.00000000000E+00 0.  1.
   -9000007    1    1    2    0  502 -0.60303971563E+02 -0.53903886421E+03  0.51655116503E+03  0.84913165776E+03  0.40000000000E+03 0.  1.
<mgrwt>
<rscale>  2 0.67480369E+03</rscale>
<asrwt>0</asrwt>
<pdfrwt beam="1">  1       21 0.14820068E+00 0.67509076E+03</pdfrwt>
<pdfrwt beam="2">  1       21 0.88082444E-01 0.67509076E+03</pdfrwt>
<totfact> 0.25650059E+02</totfact>
</mgrwt>
</event>
<event>
 6    1  0.9502611E-004  0.4152923E+03  0.7818608E-02  0.1038627E+00
         21   -1    0    0  503  502  0.00000000000E+00  0.00000000000E+00  0.90667355928E+03  0.90667355928E+03  0.00000000000E+00 0. -1.
         21   -1    0    0  501  503 -0.00000000000E+00 -0.00000000000E+00 -0.29191046906E+03  0.29191046906E+03  0.00000000000E+00 0. -1.
    9000007    2    1    2  501    0  0.41487548530E+02  0.10282179399E+03  0.66131386980E+03  0.78089932299E+03  0.40021766610E+03 0.  0.
    9000005    1    3    3    0    0  0.12012371987E+03  0.19144456760E+03  0.19105768845E+03  0.29594724336E+03  0.99999687468E+00 0.  0.
          4    1    3    3  501    0 -0.78636171344E+02 -0.88622773607E+02  0.47025618134E+03  0.48495207963E+03  0.00000000000E+00 0.  1.
   -9000007    1    1    2    0  502 -0.41487548530E+02 -0.10282179399E+03 -0.46550779572E+02  0.41768470535E+03  0.40000000000E+03 0. -1.
<mgrwt>
<rscale>  2 0.41523988E+03</rscale>
<asrwt>0</asrwt>
<pdfrwt beam="1">  1       21 0.13948824E+00 0.41529233E+03</pdfrwt>
<pdfrwt beam="2">  1       21 0.44909303E-01 0.41529233E+03</pdfrwt>
<totfact> 0.14872984E+03</totfact>
</mgrwt>
</event>
<event>
 6    1  0.9502611E-004  0.4794280E+03  0.7818608E-02  0.1019508E+00
         21   -1    0    0  503  502  0.00000000000E+00  0.00000000000E+00  0.18399087032E+04  0.18399087032E+04  0.00000000000E+00 0.  1.
         21   -1    0    0  501  503 -0.00000000000E+00 -0.00000000000E+00 -0.15882598385E+03  0.15882598385E+03  0.00000000000E+00 0.  1.
    9000007    2    1    2  501    0 -0.24261611615E+03  0.89501264422E+02  0.37548820756E+03  0.60896848896E+03  0.40370554910E+03 0.  0.
    9000005    1    3    3    0    0  0.63051655988E+02  0.10370994994E+03  0.25063720845E+03  0.27848029606E+03  0.99999687468E+00 0.  0.
          4    1    3    3  501    0 -0.30566777214E+03 -0.14208685519E+02  0.12485099911E+03  0.33048819290E+03  0.00000000000E+00 0.  1.
   -9000007    1    1    2    0  502  0.24261611615E+03 -0.89501264422E+02  0.13055945118E+04  0.13897661981E+04  0.40000000000E+03 0.  1.
<mgrwt>
<rscale>  2 0.47864709E+03</rscale>
<asrwt>0</asrwt>
<pdfrwt beam="1">  1       21 0.28306286E+00 0.47942802E+03</pdfrwt>
<pdfrwt beam="2">  1       21 0.24434768E-01 0.47942802E+03</pdfrwt>
<totfact> 0.53429026E+02</totfact>
</mgrwt>
</event>
<event>
 6    1  0.9502611E-004  0.6367326E+03  0.7818608E-02  0.9832081E-01
         21   -1    0    0  503  502  0.00000000000E+00  0.00000000000E+00  0.48928769693E+03  0.48928769693E+03  0.00000000000E+00 0.  1.
         21   -1    0    0  501  503 -0.00000000000E+00 -0.00000000000E+00 -0.84896627426E+03  0.84896627426E+03  0.00000000000E+00 0. -1.
    9000007    2    1    2  501    0 -0.44108309022E+03 -0.22506562998E+03 -0.75679660329E+02  0.64121436318E+03  0.40027442871E+03 0.  0.
    9000005    1    3    3    0    0 -0.97063369192E+02 -0.14902941518E+03 -0.19996274079E+03  0.26761382985E+03  0.99999687468E+00 0.  0.
          4    1    3    3  501    0 -0.34401972102E+03 -0.76036214802E+02  0.12428308046E+03  0.37360053333E+03  0.00000000000E+00 0.  1.
   -9000007    1    1    2    0  502  0.44108309022E+03  0.22506562998E+03 -0.28399891700E+03  0.69703960801E+03  0.40000000000E+03 0. -1.
<mgrwt>
<rscale>  2 0.63668951E+03</rscale>
<asrwt>0</asrwt>
<pdfrwt beam="1">  1       21 0.75275032E-01 0.63673264E+03</pdfrwt>
<pdfrwt beam="2">  1       21 0.13061019E+00 0.63673264E+03</pdfrwt>
<totfact> 0.52631359E+02</totfact>
</mgrwt>
</event>
<event>
 6    1  0.9502611E-004  0.5207991E+03  0.7818608E-02  0.1008499E+00
         21   -1    0    0  503  502  0.00000000000E+00  0.00000000000E+00  0.26283322522E+04  0.26283322522E+04  0.00000000000E+00 0.  1.
         21   -1    0    0  501  503 -0.00000000000E+00 -0.00000000000E+00 -0.11753174798E+03  0.11753174798E+03  0.00000000000E+00 0.  1.
    9000007    2    1    2  501    0  0.25714085895E+03 -0.21196771075E+03  0.77550814920E+03  0.93415450659E+03  0.40022496295E+03 0.  0.
    9000005    1    3    3    0    0  0.28139596706E+03 -0.17414792992E+03  0.81163222067E+03  0.87650388100E+03  0.99999687468E+00 0.  0.
          4    1    3    3  501    0 -0.24255108107E+02 -0.37819780827E+02 -0.36124071476E+02  0.57650625592E+02  0.00000000000E+00 0.  1.
   -9000007    1    1    2    0  502 -0.25714085895E+03  0.21196771075E+03  0.17352923551E+04  0.18117094936E+04  0.40000000000E+03 0.  1.
<mgrwt>
<rscale>  2 0.52075593E+03</rscale>
<asrwt>0</asrwt>
<pdfrwt beam="1">  1       21 0.40435876E+00 0.52079915E+03</pdfrwt>
<pdfrwt beam="2">  1       21 0.18081809E-01 0.52079915E+03</pdfrwt>
<totfact> 0.16571359E+02</totfact>
</mgrwt>
</event>
<event>
 6    1  0.9502611E-004  0.6622899E+03  0.7818608E-02  0.9784443E-01
         21   -1    0    0  503  502  0.00000000000E+00  0.00000000000E+00  0.15241013334E+04  0.15241013334E+04  0.00000000000E+00 0.  1.
         21   -1    0    0  501  503 -0.00000000000E+00 -0.00000000000E+00 -0.29138499524E+03  0.29138499524E+03  0.00000000000E+00 0.  1.
    9000007    2    1    2  501    0  0.17515089100E+03  0.49794590119E+03  0.72254534334E+03  0.97948250146E+03  0.39835441800E+03 0.  0.
    9000005    1    3    3    0    0 -0.10451870473E+03  0.24420177099E+02  0.80917237583E+02  0.13442136742E+03  0.99999687468E+00 0.  0.
          4    1    3    3  501    0  0.27966959573E+03  0.47352572409E+03  0.64162810576E+03  0.84506113403E+03  0.00000000000E+00 0.  1.
   -9000007    1    1    2    0  502 -0.17515089100E+03 -0.49794590119E+03  0.51017099483E+03  0.83600382720E+03  0.40000000000E+03 0.  1.
<mgrwt>
<rscale>  2 0.66204165E+03</rscale>
<asrwt>0</asrwt>
<pdfrwt beam="1">  1       21 0.23447712E+00 0.66228993E+03</pdfrwt>
<pdfrwt beam="2">  1       21 0.44828462E-01 0.66228993E+03</pdfrwt>
<totfact> 0.28908659E+02</totfact>
</mgrwt>
</event>
<event>
 6    1  0.9502611E-004  0.4199876E+03  0.7818608E-02  0.1037095E+00
         21   -1    0    0  503  502  0.00000000000E+00  0.00000000000E+00  0.34934862097E+03  0.34934862097E+03  0.00000000000E+00 0.  1.
         21   -1    0    0  501  503 -0.00000000000E+00 -0.00000000000E+00 -0.86742138164E+03  0.86742138164E+03  0.00000000000E+00 0.  1.
    9000007    2    1    2  501    0  0.17517940605E+02  0.12681746402E+03 -0.65248054021E+03  0.77579948361E+03  0.39968041731E+03 0.  0.
    9000005    1    3    3    0    0  0.28087854497E+02 -0.79968442927E+02  0.65415283703E+01  0.85015710440E+02  0.99999687468E+00 0.  0.
          4    1    3    3  501    0 -0.10569913892E+02  0.20678590694E+03 -0.65902206858E+03  0.69078377317E+03  0.00000000000E+00 0.  1.
   -9000007    1    1    2    0  502 -0.17517940605E+02 -0.12681746402E+03  0.13440777954E+03  0.44097051900E+03  0.40000000000E+03 0.  1.
<mgrwt>
<rscale>  2 0.41991145E+03</rscale>
<asrwt>0</asrwt>
<pdfrwt beam="1">  1       21 0.53745943E-01 0.41998756E+03</pdfrwt>
<pdfrwt beam="2">  1       21 0.13344944E+00 0.41998756E+03</pdfrwt>
<totfact> 0.11395486E+03</totfact>
</mgrwt>
</event>
<event>
 6    1  0.9502611E-004  0.4912789E+03  0.7818608E-02  0.1016099E+00
         21   -1    0    0  503  502  0.00000000000E+00  0.00000000000E+00  0.34807106461E+03  0.34807106461E+03  0.00000000000E+00 0. -1.
         21   -1    0    0  501  503 -0.00000000000E+00 -0.00000000000E+00 -0.71297864025E+03  0.71297864025E+03  0.00000000000E+00 0.  1.
    9000007    2    1    2  501    0  0.22439746953E+03  0.17607033582E+03 -0.27118506469E+03  0.56091082761E+03  0.39965563894E+03 0.  0.
    9000005    1    3    3    0    0 -0.29297972594E+02  0.22979573603E+03 -0.13039991216E+03  0.26583752290E+03  0.99999687468E+00 0.  0.
          4    1    3    3  501    0  0.25369544212E+03 -0.53725400210E+02 -0.14078515252E+03  0.29507330471E+03  0.00000000000E+00 0.  1.
   -9000007    1    1    2    0  502 -0.22439746953E+03 -0.17607033582E+03 -0.93722510955E+02  0.50013887726E+03  0.40000000000E+03 0. -1.
<mgrwt>
<rscale>  2 0.49120883E+03</rscale>
<asrwt>0</asrwt>
<pdfrwt beam="1">  1       21 0.53549395E-01 0.49127893E+03</pdfrwt>
<pdfrwt beam="2">  1       21 0.10968902E+00 0.49127893E+03</pdfrwt>
<totfact> 0.18391850E+03</totfact>
</mgrwt>
</event>
<event>
 6    1  0.9502611E-004  0.5219566E+03  0.7818608E-02  0.1008223E+00
         21   -1    0    0  503  502  0.00000000000E+00  0.00000000000E+00  0.59984481021E+03  0.59984481021E+03  0.00000000000E+00 0. -1.
         21   -1    0    0  501  503 -0.00000000000E+00 -0.00000000000E+00 -0.46200580007E+03  0.46200580007E+03  0.00000000000E+00 0.  1.
    9000007    2    1    2  501    0  0.67054215844E+02 -0.32799882896E+03 -0.14587773809E+01  0.52195860879E+03  0.40044870032E+03 0.  0.
    9000005    1    3    3    0    0  0.25393106704E+02  0.92915195482E+02  0.20241680206E+02  0.98431544897E+02  0.99999687468E+00 0.  0.
          4    1    3    3  501    0  0.41661109140E+02 -0.42091402444E+03 -0.21700457587E+02  0.42352706389E+03  0.00000000000E+00 0.  1.
   -9000007    1    1    2    0  502 -0.67054215844E+02  0.32799882896E+03  0.13929778752E+03  0.53989200149E+03  0.40000000000E+03 0.  1.
<mgrwt>
<rscale>  2 0.52187051E+03</rscale>
<asrwt>0</asrwt>
<pdfrwt beam="1">  1       21 0.92283818E-01 0.52195657E+03</pdfrwt>
<pdfrwt beam="2">  1       21 0.71077815E-01 0.52195657E+03</pdfrwt>
<totfact> 0.14848206E+03</totfact>
</mgrwt>
</event>
<event>
 6    1  0.9502611E-004  0.4642094E+03  0.7818608E-02  0.1023841E+00
         21   -1    0    0  503  502  0.00000000000E+00  0.00000000000E+00  0.32742885924E+03  0.32742885924E+03  0.00000000000E+00 0. -1.
         21   -1    0    0  501  503 -0.00000000000E+00 -0.00000000000E+00 -0.70749633956E+03  0.70749633956E+03  0.00000000000E+00 0. -1.
    9000007    2    1    2  501    0  0.15493904010E+03 -0.16725257930E+03 -0.33468831673E+03  0.57228192378E+03  0.40436468627E+03 0.  0.
    9000005    1    3    3    0    0  0.11951505484E+03 -0.22121508385E+03 -0.40508165130E+03  0.47677259345E+03  0.99999687468E+00 0.  0.
          4    1    3    3  501    0  0.35423985264E+02  0.53962504551E+02  0.70393334565E+02  0.95509330332E+02  0.00000000000E+00 0.  1.
   -9000007    1    1    2    0  502 -0.15493904010E+03  0.16725257930E+03 -0.45379163578E+02  0.46264327502E+03  0.40000000000E+03 0. -1.
<mgrwt>
<rscale>  2 0.46325718E+03</rscale>
<asrwt>0</asrwt>
<pdfrwt beam="1">  1       21 0.50373671E-01 0.46420936E+03</pdfrwt>
<pdfrwt beam="2">  1       21 0.10884559E+00 0.46420936E+03</pdfrwt>
<totfact> 0.21580495E+03</totfact>
</mgrwt>
</event>
<event>
 6    1  0.9502611E-004  0.4573037E+03  0.7818608E-02  0.1025703E+00
         21   -1    0    0  503  502  0.00000000000E+00  0.00000000000E+00  0.24966553333E+03  0.24966553333E+03  0.00000000000E+00 0.  1.
         21   -1    0    0  501  503 -0.00000000000E+00 -0.00000000000E+00 -0.83655303553E+03  0.83655303553E+03  0.00000000000E+00 0.  1.
    9000007    2    1    2  501    0  0.91605310445E+02  0.19755199541E+03 -0.32283182398E+03  0.55977415110E+03  0.40212981719E+03 0.  0.
    9000005    1    3    3    0    0 -0.11351986848E+03 -0.58342449625E+02 -0.11267337767E+03  0.17025537288E+03  0.99999687468E+00 0.  0.
          4    1    3    3  501    0  0.20512517892E+03  0.25589444504E+03 -0.21015844631E+03  0.38951877822E+03  0.00000000000E+00 0.  1.
   -9000007    1    1    2    0  502 -0.91605310445E+02 -0.19755199541E+03 -0.26405567822E+03  0.52644441776E+03  0.40000000000E+03 0.  1.
<mgrwt>
<rscale>  2 0.45683509E+03</rscale>
<asrwt>0</asrwt>
<pdfrwt beam="1">  1       21 0.38410081E-01 0.45730374E+03</pdfrwt>
<pdfrwt beam="2">  1       21 0.12870047E+00 0.45730374E+03</pdfrwt>
<totfact> 0.24946197E+03</totfact>
</mgrwt>
</event>
<event>
 6    1  0.9502611E-004  0.4016609E+03  0.7818608E-02  0.1043249E+00
         21   -1    0    0  503  502  0.00000000000E+00  0.00000000000E+00  0.18022442048E+04  0.18022442048E+04  0.00000000000E+00 0.  1.
         21   -1    0    0  501  503 -0.00000000000E+00 -0.00000000000E+00 -0.10839791581E+03  0.10839791581E+03  0.00000000000E+00 0.  1.
    9000007    2    1    2  501    0  0.32613424247E+02 -0.16366944576E+02  0.12463632504E+04  0.13093330635E+04  0.39949994620E+03 0.  0.
    9000005    1    3    3    0    0 -0.17955989367E+03 -0.24196805459E+02  0.44880807086E+03  0.48400095586E+03  0.99999687468E+00 0.  0.
          4    1    3    3  501    0  0.21217331792E+03  0.78298608829E+01  0.79755517950E+03  0.82533210764E+03  0.00000000000E+00 0.  1.
   -9000007    1    1    2    0  502 -0.32613424247E+02  0.16366944576E+02  0.44748303866E+03  0.60130905714E+03  0.40000000000E+03 0.  1.
<mgrwt>
<rscale>  2 0.40153639E+03</rscale>
<asrwt>0</asrwt>
<pdfrwt beam="1">  1       21 0.27726832E+00 0.40166094E+03</pdfrwt>
<pdfrwt beam="2">  1       21 0.16676604E-01 0.40166094E+03</pdfrwt>
<totfact> 0.12503142E+03</totfact>
</mgrwt>
</event>
<event>
 6    1  0.9502611E-004  0.5343208E+03  0.7818608E-02  0.1005191E+00
         21   -1    0    0  503  502  0.00000000000E+00  0.00000000000E+00  0.64757215027E+03  0.64757215027E+03  0.00000000000E+00 0.  1.
         21   -1    0    0  501  503 -0.00000000000E+00 -0.00000000000E+00 -0.82163641864E+03  0.82163641864E+03  0.00000000000E+00 0.  1.
    9000007    2    1    2  501    0 -0.10237071161E+03 -0.33910160953E+03 -0.58712839601E+03  0.79386299980E+03  0.40003630442E+03 0.  0.
    9000005    1    3    3    0    0  0.14464926085E+03 -0.18163954204E+03 -0.18797690412E+03  0.29875181736E+03  0.99999687468E+00 0.  0.
          4    1    3    3  501    0 -0.24701997246E+03 -0.15746206749E+03 -0.39915149190E+03  0.49511118244E+03  0.00000000000E+00 0.  1.
   -9000007    1    1    2    0  502  0.10237071161E+03  0.33910160953E+03  0.41306412763E+03  0.67534556911E+03  0.40000000000E+03 0.  1.
<mgrwt>
<rscale>  2 0.53431400E+03</rscale>
<asrwt>0</asrwt>
<pdfrwt beam="1">  1       21 0.99626486E-01 0.53432079E+03</pdfrwt>
<pdfrwt beam="2">  1       21 0.12640560E+00 0.53432079E+03</pdfrwt>
<totfact> 0.30624331E+02</totfact>
</mgrwt>
</event>
<event>
 6    1  0.9502611E-004  0.4217807E+03  0.7818608E-02  0.1036533E+00
         21   -1    0    0  503  502  0.00000000000E+00  0.00000000000E+00  0.54893015866E+03  0.54893015866E+03  0.00000000000E+00 0.  1.
         21   -1    0    0  501  503 -0.00000000000E+00 -0.00000000000E+00 -0.38042560430E+03  0.38042560430E+03  0.00000000000E+00 0.  1.
    9000007    2    1    2  501    0 -0.13047241789E+03  0.20320112580E+02 -0.95197174026E+02  0.43239041170E+03  0.40057834113E+03 0.  0.
    9000005    1    3    3    0    0  0.17151283289E+02  0.14403566861E+03  0.85423642519E+02  0.16834084188E+03  0.99999687468E+00 0.  0.
          4    1    3    3  501    0 -0.14762370118E+03 -0.12371555603E+03 -0.18062081655E+03  0.26404956982E+03  0.00000000000E+00 0.  1.
   -9000007    1    1    2    0  502  0.13047241789E+03 -0.20320112580E+02  0.26370172838E+03  0.49696535126E+03  0.40000000000E+03 0.  1.
<mgrwt>
<rscale>  2 0.42164333E+03</rscale>
<asrwt>0</asrwt>
<pdfrwt beam="1">  1       21 0.84450793E-01 0.42178071E+03</pdfrwt>
<pdfrwt beam="2">  1       21 0.58527016E-01 0.42178071E+03</pdfrwt>
<totfact> 0.29214370E+03</totfact>
</mgrwt>
</event>
<event>
 6    1  0.9502611E-004  0.5406077E+03  0.7818608E-02  0.1003766E+00
         21   -1    0    0  503  502  0.00000000000E+00  0.00000000000E+00  0.31956618663E+03  0.31956618663E+03  0.00000000000E+00 0.  1.
         21   -1    0    0  501  503 -0.00000000000E+00 -0.00000000000E+00 -0.18366676877E+04  0.18366676877E+04  0.00000000000E+00 0.  1.
    9000007    2    1    2  501    0  0.19267172424E+03  0.30843853066E+03 -0.15229092707E+04  0.16155949461E+04  0.39829343797E+03 0.  0.
    9000005    1    3    3    0    0 -0.11568707995E+03  0.46768153328E+02 -0.50738408626E+03  0.52250394412E+03  0.99999687468E+00 0.  0.
          4    1    3    3  501    0  0.30835880419E+03  0.26167037733E+03 -0.10155251844E+04  0.10930910020E+04  0.00000000000E+00 0.  1.
   -9000007    1    1    2    0  502 -0.19267172424E+03 -0.30843853066E+03  0.58077695891E+01  0.54063892821E+03  0.40000000000E+03 0.  1.
<mgrwt>
<rscale>  2 0.54029209E+03</rscale>
<asrwt>0</asrwt>
<pdfrwt beam="1">  1       21 0.49164028E-01 0.54060773E+03</pdfrwt>
<pdfrwt beam="2">  1       21 0.28256427E+00 0.54060773E+03</pdfrwt>
<totfact> 0.12611993E+02</totfact>
</mgrwt>
</event>
<event>
 6    1  0.9502611E-004  0.4352312E+03  0.7818608E-02  0.1032373E+00
         21   -1    0    0  503  502  0.00000000000E+00  0.00000000000E+00  0.49181009619E+03  0.49181009619E+03  0.00000000000E+00 0.  1.
         21   -1    0    0  501  503 -0.00000000000E+00 -0.00000000000E+00 -0.41526501319E+03  0.41526501319E+03  0.00000000000E+00 0.  1.
    9000007    2    1    2  501    0 -0.72747069885E+02 -0.15535140010E+03  0.16376366761E+03  0.46319080554E+03  0.39787056917E+03 0.  0.
    9000005    1    3    3    0    0  0.14919428510E+03 -0.14375270491E+03  0.10983869606E+03  0.23449800430E+03  0.99999687468E+00 0.  0.
          4    1    3    3  501    0 -0.22194135498E+03 -0.11598695192E+02  0.53924971552E+02  0.22869280124E+03  0.00000000000E+00 0.  1.
   -9000007    1    1    2    0  502  0.72747069885E+02  0.15535140010E+03 -0.87218584615E+02  0.44388430384E+03  0.40000000000E+03 0.  1.
<mgrwt>
<rscale>  2 0.43474131E+03</rscale>
<asrwt>0</asrwt>
<pdfrwt beam="1">  1       21 0.75663092E-01 0.43523120E+03</pdfrwt>
<pdfrwt beam="2">  1       21 0.63886925E-01 0.43523120E+03</pdfrwt>
<totfact> 0.30899309E+03</totfact>
</mgrwt>
</event>
<event>
 6    1  0.9502611E-004  0.4076112E+03  0.7818608E-02  0.1041778E+00
         21   -1    0    0  503  502  0.00000000000E+00  0.00000000000E+00  0.72606735585E+03  0.72606735585E+03  0.00000000000E+00 0. -1.
         21   -1    0    0  501  503 -0.00000000000E+00 -0.00000000000E+00 -0.26570431139E+03  0.26570431139E+03  0.00000000000E+00 0. -1.
    9000007    2    1    2  501    0  0.11357102020E+01 -0.20983426860E+02  0.37526318096E+02  0.40933498295E+03  0.40706917063E+03 0.  0.
    9000005    1    3    3    0    0  0.16527688335E+03 -0.84336039456E+02 -0.75380484597E+02  0.20028038639E+03  0.99999687468E+00 0.  0.
          4    1    3    3  501    0 -0.16414117315E+03  0.63352612596E+02  0.11290680269E+03  0.20905459656E+03  0.00000000000E+00 0.  1.
   -9000007    1    1    2    0  502 -0.11357102020E+01  0.20983426860E+02  0.42283672637E+03  0.58243668429E+03  0.40000000000E+03 0. -1.
<mgrwt>
<rscale>  2 0.40583474E+03</rscale>
<asrwt>0</asrwt>
<pdfrwt beam="1">  1       21 0.11170267E+00 0.40761122E+03</pdfrwt>
<pdfrwt beam="2">  1       21 0.40877587E-01 0.40761122E+03</pdfrwt>
<totfact> 0.32035217E+03</totfact>
</mgrwt>
</event>
<event>
 6    1  0.9502611E-004  0.4441260E+03  0.7818608E-02  0.1029502E+00
         21   -1    0    0  503  502  0.00000000000E+00  0.00000000000E+00  0.25565126840E+03  0.25565126840E+03  0.00000000000E+00 0. -1.
         21   -1    0    0  501  503 -0.00000000000E+00 -0.00000000000E+00 -0.81668178574E+03  0.81668178574E+03  0.00000000000E+00 0. -1.
    9000007    2    1    2  501    0  0.41000700654E+02 -0.18816762794E+03 -0.15409251283E+03  0.47009833812E+03  0.40019973929E+03 0.  0.
    9000005    1    3    3    0    0 -0.15670055958E+03 -0.15132454995E+03 -0.15774786456E+03  0.26896017095E+03  0.99999687468E+00 0.  0.
          4    1    3    3  501    0  0.19770126024E+03 -0.36843077993E+02  0.36553517314E+01  0.20113816717E+03  0.00000000000E+00 0.  1.
   -9000007    1    1    2    0  502 -0.41000700654E+02  0.18816762794E+03 -0.40693800452E+03  0.60223471602E+03  0.40000000000E+03 0. -1.
<mgrwt>
<rscale>  2 0.44408105E+03</rscale>
<asrwt>0</asrwt>
<pdfrwt beam="1">  1       21 0.39330963E-01 0.44412605E+03</pdfrwt>
<pdfrwt beam="2">  1       21 0.12564336E+00 0.44412605E+03</pdfrwt>
<totfact> 0.25409789E+03</totfact>
</mgrwt>
</event>
<event>
 6    1  0.9502611E-004  0.4154749E+03  0.7818608E-02  0.1038573E+00
         21   -1    0    0  503  502  0.00000000000E+00  0.00000000000E+00  0.55069534877E+03  0.55069534877E+03  0.00000000000E+00 0. -1.
         21   -1    0    0  501  503 -0.00000000000E+00 -0.00000000000E+00 -0.51636606116E+03  0.51636606116E+03  0.00000000000E+00 0.  1.
    9000007    2    1    2  501    0 -0.10815130001E+02 -0.11074488225E+03 -0.31745979061E+03  0.52287674316E+03  0.40029735686E+03 0.  0.
    9000005    1    3    3    0    0  0.14990565535E+02 -0.25093676809E+03 -0.27834332608E+03  0.37505997627E+03  0.99999687468E+00 0.  0.
          4    1    3    3  501    0 -0.25805695536E+02  0.14019188584E+03 -0.39116464531E+02  0.14781676689E+03  0.00000000000E+00 0.  1.
   -9000007    1    1    2    0  502  0.10815130001E+02  0.11074488225E+03  0.35178907822E+03  0.54418466676E+03  0.40000000000E+03 0. -1.
<mgrwt>
<rscale>  2 0.41540323E+03</rscale>
<asrwt>0</asrwt>
<pdfrwt beam="1">  1       21 0.84722361E-01 0.41547487E+03</pdfrwt>
<pdfrwt beam="2">  1       21 0.79440933E-01 0.41547487E+03</pdfrwt>
<totfact> 0.14668686E+03</totfact>
</mgrwt>
</event>
<event>
 6    1  0.9502611E-004  0.4503681E+03  0.7818608E-02  0.1027644E+00
         21   -1    0    0  503  502  0.00000000000E+00  0.00000000000E+00  0.31970506726E+03  0.31970506726E+03  0.00000000000E+00 0. -1.
         21   -1    0    0  501  503 -0.00000000000E+00 -0.00000000000E+00 -0.64200143154E+03  0.64200143154E+03  0.00000000000E+00 0. -1.
    9000007    2    1    2  501    0  0.28791731978E+02  0.20400149894E+03 -0.21547529977E+03  0.49926048550E+03  0.40048202478E+03 0.  0.
    9000005    1    3    3    0    0 -0.30979744803E-01  0.13383668890E+03 -0.33327821235E+03  0.35914847498E+03  0.99999687468E+00 0.  0.
          4    1    3    3  501    0  0.28822711723E+02  0.70164810032E+02  0.11780291259E+03  0.14011201052E+03  0.00000000000E+00 0.  1.
   -9000007    1    1    2    0  502 -0.28791731978E+02 -0.20400149894E+03 -0.10682106451E+03  0.46244601330E+03  0.40000000000E+03 0. -1.
<mgrwt>
<rscale>  2 0.45026092E+03</rscale>
<asrwt>0</asrwt>
<pdfrwt beam="1">  1       21 0.49185396E-01 0.45036810E+03</pdfrwt>
<pdfrwt beam="2">  1       21 0.98769449E-01 0.45036810E+03</pdfrwt>
<totfact> 0.28961686E+03</totfact>
</mgrwt>
</event>
<event>
 6    1  0.9502611E-004  0.6447089E+03  0.7818608E-02  0.9816768E-01
         21   -1    0    0  503  502  0.00000000000E+00  0.00000000000E+00  0.17583636661E+04  0.17583636661E+04  0.00000000000E+00 0. -1.
         21   -1    0    0  501  503 -0.00000000000E+00 -0.00000000000E+00 -0.25288374981E+03  0.25288374981E+03  0.00000000000E+00 0.  1.
    9000007    2    1    2  501    0  0.17667025134E+03 -0.47374800444E+03  0.49580119852E+03  0.81329054586E+03  0.39996641622E+03 0.  0.
    9000005    1    3    3    0    0 -0.20873504826E+02 -0.93803869872E+02 -0.58752813289E+02  0.11263996746E+03  0.99999687468E+00 0.  0.
          4    1    3    3  501    0  0.19754375617E+03 -0.37994413457E+03  0.55455401181E+03  0.70065057839E+03  0.00000000000E+00 0.  1.
   -9000007    1    1    2    0  502 -0.17667025134E+03  0.47374800444E+03  0.10096787178E+04  0.11979568701E+04  0.40000000000E+03 0. -1.
<mgrwt>
<rscale>  2 0.64470368E+03</rscale>
<asrwt>0</asrwt>
<pdfrwt beam="1">  1       21 0.27051748E+00 0.64470889E+03</pdfrwt>
<pdfrwt beam="2">  1       21 0.38905193E-01 0.64470889E+03</pdfrwt>
<totfact> 0.23313894E+02</totfact>
</mgrwt>
</event>
<event>
 6    1  0.9502611E-004  0.5767929E+03  0.7818608E-02  0.9955050E-01
         21   -1    0    0  503  502  0.00000000000E+00  0.00000000000E+00  0.46859460452E+03  0.46859460452E+03  0.00000000000E+00 0. -1.
         21   -1    0    0  501  503 -0.00000000000E+00 -0.00000000000E+00 -0.75146158738E+03  0.75146158738E+03  0.00000000000E+00 0. -1.
    9000007    2    1    2  501    0 -0.12805912733E+03  0.39455710734E+03 -0.28596167279E+03  0.64378886838E+03  0.40076873344E+03 0.  0.
    9000005    1    3    3    0    0 -0.53632980106E+02  0.12655832784E+03 -0.33431974796E+03  0.36147503478E+03  0.99999687468E+00 0.  0.
          4    1    3    3  501    0 -0.74426147228E+02  0.26799877950E+03  0.48358075174E+02  0.28231383360E+03  0.00000000000E+00 0.  1.
   -9000007    1    1    2    0  502  0.12805912733E+03 -0.39455710734E+03  0.30946899193E+01  0.57626732352E+03  0.40000000000E+03 0. -1.
<mgrwt>
<rscale>  2 0.57665937E+03</rscale>
<asrwt>0</asrwt>
<pdfrwt beam="1">  1       21 0.72091478E-01 0.57679288E+03</pdfrwt>
<pdfrwt beam="2">  1       21 0.11560947E+00 0.57679288E+03</pdfrwt>
<totfact> 0.81116583E+02</totfact>
</mgrwt>
</event>
<event>
 6    1  0.9502611E-004  0.6525851E+03  0.7818608E-02  0.9802199E-01
         21   -1    0    0  503  502  0.00000000000E+00  0.00000000000E+00  0.12954961810E+04  0.12954961810E+04  0.00000000000E+00 0.  1.
         21   -1    0    0  501  503 -0.00000000000E+00 -0.00000000000E+00 -0.62715775105E+03  0.62715775105E+03  0.00000000000E+00 0. -1.
    9000007    2    1    2  501    0 -0.90694127663E+02 -0.50758441052E+03 -0.32935128478E+03  0.73049113888E+03  0.39909607439E+03 0.  0.
    9000005    1    3    3    0    0  0.59427200386E+02  0.48073926083E+02 -0.37513611508E+02  0.85152601586E+02  0.99999687468E+00 0.  0.
          4    1    3    3  501    0 -0.15012132805E+03 -0.55565833660E+03 -0.29183767327E+03  0.64533853729E+03  0.00000000000E+00 0.  1.
   -9000007    1    1    2    0  502  0.90694127663E+02  0.50758441052E+03  0.99768971477E+03  0.11921627932E+04  0.40000000000E+03 0.  1.
<mgrwt>
<rscale>  2 0.65244667E+03</rscale>
<asrwt>0</asrwt>
<pdfrwt beam="1">  1       21 0.19930710E+00 0.65258514E+03</pdfrwt>
<pdfrwt beam="2">  1       21 0.96485809E-01 0.65258514E+03</pdfrwt>
<totfact> 0.87650226E+01</totfact>
</mgrwt>
</event>
<event>
 6    1  0.9502611E-004  0.4075111E+03  0.7818608E-02  0.1041244E+00
         21   -1    0    0  503  502  0.00000000000E+00  0.00000000000E+00  0.80844011437E+03  0.80844011437E+03  0.00000000000E+00 0. -1.
         21   -1    0    0  501  503 -0.00000000000E+00 -0.00000000000E+00 -0.23409181599E+03  0.23409181599E+03  0.00000000000E+00 0.  1.
    9000007    2    1    2  501    0 -0.13927135452E+02  0.76624406862E+02  0.10395680796E+03  0.42017076586E+03  0.39958877578E+03 0.  0.
    9000005    1    3    3    0    0  0.16846044840E+02  0.13454580268E+03  0.23631337812E+03  0.27245435383E+03  0.99999687468E+00 0.  0.
          4    1    3    3  501    0 -0.30773180292E+02 -0.57921395820E+02 -0.13235657016E+03  0.14771641203E+03  0.00000000000E+00 0.  1.
   -9000007    1    1    2    0  502  0.13927135452E+02 -0.76624406862E+02  0.47039149041E+03  0.62236116450E+03  0.40000000000E+03 0. -1.
<mgrwt>
<rscale>  2 0.40741011E+03</rscale>
<asrwt>0</asrwt>
<pdfrwt beam="1">  1       21 0.12437540E+00 0.40751106E+03</pdfrwt>
<pdfrwt beam="2">  1       21 0.36014126E-01 0.40751106E+03</pdfrwt>
<totfact> 0.31662756E+03</totfact>
</mgrwt>
</event>
<event>
 6    1  0.9502611E-004  0.6618586E+03  0.7818608E-02  0.9784804E-01
         21   -1    0    0  503  502  0.00000000000E+00  0.00000000000E+00  0.73626717157E+03  0.73626717157E+03  0.00000000000E+00 0. -1.
         21   -1    0    0  501  503 -0.00000000000E+00 -0.00000000000E+00 -0.12437722172E+04  0.12437722172E+04  0.00000000000E+00 0. -1.
    9000007    2    1    2  501    0 -0.43872902437E+03 -0.29240301301E+03 -0.96882419341E+03  0.11733188455E+04  0.40009263500E+03 0.  0.
    9000005    1    3    3    0    0 -0.24467521731E+03 -0.30192660111E+03 -0.87529981702E+03  0.95769327245E+03  0.99999687468E+00 0.  0.
          4    1    3    3  501    0 -0.19405380706E+03  0.95235880996E+01 -0.93524376387E+02  0.21562557303E+03  0.00000000000E+00 0.  1.
   -9000007    1    1    2    0  502  0.43872902437E+03  0.29240301301E+03  0.46131914779E+03  0.80672054329E+03  0.40000000000E+03 0. -1.
<mgrwt>
<rscale>  2 0.66184459E+03</rscale>
<asrwt>0</asrwt>
<pdfrwt beam="1">  1       21 0.11327187E+00 0.66185859E+03</pdfrwt>
<pdfrwt beam="2">  1       21 0.19134957E+00 0.66185859E+03</pdfrwt>
<totfact> 0.66528378E+01</totfact>
</mgrwt>
</event>
<event>
 6    1  0.9502611E-004  0.5721621E+03  0.7818608E-02  0.9965037E-01
         21   -1    0    0  503  502  0.00000000000E+00  0.00000000000E+00  0.14749688641E+04  0.14749688641E+04  0.00000000000E+00 0. -1.
         21   -1    0    0  501  503 -0.00000000000E+00 -0.00000000000E+00 -0.30529817421E+03  0.30529817421E+03  0.00000000000E+00 0.  1.
    9000007    2    1    2  501    0  0.24373658099E+02  0.40838139101E+03  0.11939568251E+03  0.58425406728E+03  0.39965991843E+03 0.  0.
    9000005    1    3    3    0    0  0.10819237187E+01  0.44033921373E+03  0.20817147282E+03  0.48706894358E+03  0.99999687468E+00 0.  0.
          4    1    3    3  501    0  0.23291734381E+02 -0.31957822723E+02 -0.88775790310E+02  0.97185123701E+02  0.00000000000E+00 0.  1.
   -9000007    1    1    2    0  502 -0.24373658099E+02 -0.40838139101E+03  0.10502750074E+04  0.11960129710E+04  0.40000000000E+03 0. -1.
<mgrwt>
<rscale>  2 0.57210264E+03</rscale>
<asrwt>0</asrwt>
<pdfrwt beam="1">  1       21 0.22691828E+00 0.57216207E+03</pdfrwt>
<pdfrwt beam="2">  1       21 0.46968951E-01 0.57216207E+03</pdfrwt>
<totfact> 0.30288482E+02</totfact>
</mgrwt>
</event>
<event>
 6    1  0.9502611E-004  0.4967137E+03  0.7818608E-02  0.1014668E+00
         21   -1    0    0  503  502  0.00000000000E+00  0.00000000000E+00  0.23061002784E+03  0.23061002784E+03  0.00000000000E+00 0. -1.
         21   -1    0    0  501  503 -0.00000000000E+00 -0.00000000000E+00 -0.10899871594E+04  0.10899871594E+04  0.00000000000E+00 0. -1.
    9000007    2    1    2  501    0 -0.14150091156E+03 -0.25744169636E+03 -0.33814748451E+03  0.60088955219E+03  0.40053189342E+03 0.  0.
    9000005    1    3    3    0    0 -0.77241223282E+02 -0.12284486200E+03 -0.41029885896E+03  0.43520480276E+03  0.99999687468E+00 0.  0.
          4    1    3    3  501    0 -0.64259688277E+02 -0.13459683436E+03  0.72151374447E+02  0.16568474942E+03  0.00000000000E+00 0.  1.
   -9000007    1    1    2    0  502  0.14150091156E+03  0.25744169636E+03 -0.52122964709E+03  0.71970763508E+03  0.40000000000E+03 0. -1.
<mgrwt>
<rscale>  2 0.49660650E+03</rscale>
<asrwt>0</asrwt>
<pdfrwt beam="1">  1       21 0.35478466E-01 0.49671373E+03</pdfrwt>
<pdfrwt beam="2">  1       21 0.16769033E+00 0.49671373E+03</pdfrwt>
<totfact> 0.14112812E+03</totfact>
</mgrwt>
</event>
<event>
 6    1  0.9502611E-004  0.4221556E+03  0.7818608E-02  0.1036485E+00
         21   -1    0    0  503  502  0.00000000000E+00  0.00000000000E+00  0.28047756804E+03  0.28047756804E+03  0.00000000000E+00 0.  1.
         21   -1    0    0  501  503 -0.00000000000E+00 -0.00000000000E+00 -0.71450210908E+03  0.71450210908E+03  0.00000000000E+00 0.  1.
    9000007    2    1    2  501    0  0.12895732118E+03  0.39816205898E+02 -0.38448296500E+03  0.56992710544E+03  0.39846509785E+03 0.  0.
    9000005    1    3    3    0    0  0.33696380329E+02 -0.16986158894E+03 -0.24716151279E+03  0.30179168120E+03  0.99999687468E+00 0.  0.
          4    1    3    3  501    0  0.95260940852E+02  0.20967779483E+03 -0.13732145221E+03  0.26813542425E+03  0.00000000000E+00 0.  1.
   -9000007    1    1    2    0  502 -0.12895732118E+03 -0.39816205898E+02 -0.49541576047E+02  0.42505257168E+03  0.40000000000E+03 0.  1.
<mgrwt>
<rscale>  2 0.42179158E+03</rscale>
<asrwt>0</asrwt>
<pdfrwt beam="1">  1       21 0.43150395E-01 0.42215556E+03</pdfrwt>
<pdfrwt beam="2">  1       21 0.10992340E+00 0.42215556E+03</pdfrwt>
<totfact> 0.29633697E+03</totfact>
</mgrwt>
</event>
<event>
 6    1  0.9502611E-004  0.4525798E+03  0.7818608E-02  0.1027007E+00
         21   -1    0    0  503  502  0.00000000000E+00  0.00000000000E+00  0.65313133915E+03  0.65313133915E+03  0.00000000000E+00 0. -1.
         21   -1    0    0  501  503 -0.00000000000E+00 -0.00000000000E+00 -0.42106918952E+03  0.42106918952E+03  0.00000000000E+00 0. -1.
    9000007    2    1    2  501    0  0.54303461548E+02  0.20464500767E+03 -0.15596917352E+03  0.47804890966E+03  0.39921915265E+03 0.  0.
    9000005    1    3    3    0    0  0.13248635821E+03  0.29947088520E+03 -0.95705354543E+02  0.34116852299E+03  0.99999687468E+00 0.  0.
          4    1    3    3  501    0 -0.78182896666E+02 -0.94825877525E+02 -0.60263818978E+02  0.13688038668E+03  0.00000000000E+00 0.  1.
   -9000007    1    1    2    0  502 -0.54303461548E+02 -0.20464500767E+03  0.38803132314E+03  0.59615161901E+03  0.40000000000E+03 0. -1.
<mgrwt>
<rscale>  2 0.45240717E+03</rscale>
<asrwt>0</asrwt>
<pdfrwt beam="1">  1       21 0.10048174E+00 0.45257977E+03</pdfrwt>
<pdfrwt beam="2">  1       21 0.64779875E-01 0.45257977E+03</pdfrwt>
<totfact> 0.15270085E+03</totfact>
</mgrwt>
</event>
<event>
 6    1  0.9502611E-004  0.4089112E+03  0.7818608E-02  0.1040853E+00
         21   -1    0    0  503  502  0.00000000000E+00  0.00000000000E+00  0.65165458978E+03  0.65165458978E+03  0.00000000000E+00 0.  1.
         21   -1    0    0  501  503 -0.00000000000E+00 -0.00000000000E+00 -0.33623645840E+03  0.33623645840E+03  0.00000000000E+00 0.  1.
    9000007    2    1    2  501    0  0.20993138389E+02 -0.82265765960E+02 -0.84193072328E+02  0.41614155563E+03  0.39859371895E+03 0.  0.
    9000005    1    3    3    0    0 -0.11741889282E+03  0.10297803844E+03 -0.98177801479E+02  0.18447643072E+03  0.99999687468E+00 0.  0.
          4    1    3    3  501    0  0.13841203121E+03 -0.18524380440E+03  0.13984729152E+02  0.23166512492E+03  0.00000000000E+00 0.  1.
   -9000007    1    1    2    0  502 -0.20993138389E+02  0.82265765960E+02  0.39961120371E+03  0.57174949256E+03  0.40000000000E+03 0. -1.
<mgrwt>
<rscale>  2 0.40856688E+03</rscale>
<asrwt>0</asrwt>
<pdfrwt beam="1">  1       21 0.10025455E+00 0.40891120E+03</pdfrwt>
<pdfrwt beam="2">  1       21 0.51728686E-01 0.40891120E+03</pdfrwt>
<totfact> 0.25489822E+03</totfact>
</mgrwt>
</event>
<event>
 6    1  0.9502611E-004  0.4836667E+03  0.7818608E-02  0.1018199E+00
         21   -1    0    0  503  502  0.00000000000E+00  0.00000000000E+00  0.40691832759E+03  0.40691832759E+03  0.00000000000E+00 0. -1.
         21   -1    0    0  501  503 -0.00000000000E+00 -0.00000000000E+00 -0.63326867635E+03  0.63326867635E+03  0.00000000000E+00 0. -1.
    9000007    2    1    2  501    0 -0.17707922959E+03  0.20634063503E+03 -0.27254210984E+03  0.55431954258E+03  0.39882006272E+03 0.  0.
    9000005    1    3    3    0    0 -0.29712675371E+03  0.14310651546E+03 -0.12195509551E+03  0.35162171129E+03  0.99999687468E+00 0.  0.
          4    1    3    3  501    0  0.12004752412E+03  0.63234119575E+02 -0.15058701433E+03  0.20269783129E+03  0.00000000000E+00 0.  1.
   -9000007    1    1    2    0  502  0.17707922959E+03 -0.20634063503E+03  0.46191761078E+02  0.48586746136E+03  0.40000000000E+03 0. -1.
<mgrwt>
<rscale>  2 0.48342271E+03</rscale>
<asrwt>0</asrwt>
<pdfrwt beam="1">  1       21 0.62602819E-01 0.48366674E+03</pdfrwt>
<pdfrwt beam="2">  1       21 0.97425951E-01 0.48366674E+03</pdfrwt>
<totfact> 0.17547069E+03</totfact>
</mgrwt>
</event>
<event>
 6    1  0.9502611E-004  0.5568515E+03  0.7818608E-02  0.1000059E+00
         21   -1    0    0  503  502  0.00000000000E+00  0.00000000000E+00  0.87124820628E+03  0.87124820628E+03  0.00000000000E+00 0.  1.
         21   -1    0    0  501  503 -0.00000000000E+00 -0.00000000000E+00 -0.35895148297E+03  0.35895148297E+03  0.00000000000E+00 0.  1.
    9000007    2    1    2  501    0 -0.13390147409E+03 -0.35979761435E+03  0.18710622677E+03  0.58744562501E+03  0.40336050153E+03 0.  0.
    9000005    1    3    3    0    0 -0.14761872315E+03 -0.21914563376E+03 -0.87723599163E+02  0.27841071471E+03  0.99999687468E+00 0.  0.
          4    1    3    3  501    0  0.13717249059E+02 -0.14065198059E+03  0.27482982594E+03  0.30903491031E+03  0.00000000000E+00 0.  1.
   -9000007    1    1    2    0  502  0.13390147409E+03  0.35979761435E+03  0.32519049653E+03  0.64275406423E+03  0.40000000000E+03 0.  1.
<mgrwt>
<rscale>  2 0.55624319E+03</rscale>
<asrwt>0</asrwt>
<pdfrwt beam="1">  1       21 0.13403819E+00 0.55685153E+03</pdfrwt>
<pdfrwt beam="2">  1       21 0.55223305E-01 0.55685153E+03</pdfrwt>
<totfact> 0.10078190E+03</totfact>
</mgrwt>
</event>
<event>
 6    1  0.9502611E-004  0.4226607E+03  0.7818608E-02  0.1036206E+00
         21   -1    0    0  503  502  0.00000000000E+00  0.00000000000E+00  0.64577244779E+03  0.64577244779E+03  0.00000000000E+00 0. -1.
         21   -1    0    0  501  503 -0.00000000000E+00 -0.00000000000E+00 -0.30618953850E+03  0.30618953850E+03  0.00000000000E+00 0. -1.
    9000007    2    1    2  501    0  0.69238735188E+02  0.11767773624E+03  0.31771845847E+03  0.52873615264E+03  0.39996855901E+03 0.  0.
    9000005    1    3    3    0    0  0.20791518657E+03  0.17572912103E+03  0.20033897277E+03  0.33800318458E+03  0.99999687468E+00 0.  0.
          4    1    3    3  501    0 -0.13867645138E+03 -0.58051384784E+02  0.11737948570E+03  0.19073296806E+03  0.00000000000E+00 0.  1.
   -9000007    1    1    2    0  502 -0.69238735188E+02 -0.11767773624E+03  0.21864450819E+02  0.42322583365E+03  0.40000000000E+03 0. -1.
<mgrwt>
<rscale>  2 0.42265324E+03</rscale>
<asrwt>0</asrwt>
<pdfrwt beam="1">  1       21 0.99349607E-01 0.42266068E+03</pdfrwt>
<pdfrwt beam="2">  1       21 0.47106083E-01 0.42266068E+03</pdfrwt>
<totfact> 0.31604871E+03</totfact>
</mgrwt>
</event>
<event>
 6    1  0.9502611E-004  0.5312284E+03  0.7818608E-02  0.1005939E+00
         21   -1    0    0  503  502  0.00000000000E+00  0.00000000000E+00  0.19010677582E+03  0.19010677582E+03  0.00000000000E+00 0. -1.
         21   -1    0    0  501  503 -0.00000000000E+00 -0.00000000000E+00 -0.16602084407E+04  0.16602084407E+04  0.00000000000E+00 0. -1.
    9000007    2    1    2  501    0  0.10457885345E+03 -0.33346209931E+03 -0.10362687213E+04  0.11644983815E+04  0.40008737739E+03 0.  0.
    9000005    1    3    3    0    0  0.12792880700E+03 -0.30967642996E+03 -0.37695426102E+03  0.50434193345E+03  0.99999687468E+00 0.  0.
          4    1    3    3  501    0 -0.23349953551E+02 -0.23785669348E+02 -0.65931446028E+03  0.66015644807E+03  0.00000000000E+00 0.  1.
   -9000007    1    1    2    0  502 -0.10457885345E+03  0.33346209931E+03 -0.43383294361E+03  0.68581683504E+03  0.40000000000E+03 0. -1.
<mgrwt>
<rscale>  2 0.53121195E+03</rscale>
<asrwt>0</asrwt>
<pdfrwt beam="1">  1       21 0.29247196E-01 0.53122840E+03</pdfrwt>
<pdfrwt beam="2">  1       21 0.25541669E+00 0.53122840E+03</pdfrwt>
<totfact> 0.53956082E+02</totfact>
</mgrwt>
</event>
<event>
 6    1  0.9502611E-004  0.4582754E+03  0.7818608E-02  0.1025308E+00
         21   -1    0    0  503  502  0.00000000000E+00  0.00000000000E+00  0.43537704247E+03  0.43537704247E+03  0.00000000000E+00 0. -1.
         21   -1    0    0  501  503 -0.00000000000E+00 -0.00000000000E+00 -0.85716096789E+03  0.85716096789E+03  0.00000000000E+00 0. -1.
    9000007    2    1    2  501    0 -0.45872752186E+02  0.21816860148E+03 -0.63848078846E+03  0.78592239816E+03  0.40039287036E+03 0.  0.
    9000005    1    3    3    0    0 -0.16177541045E+03  0.73810628546E+02 -0.75323143211E+02  0.19311620391E+03  0.99999687468E+00 0.  0.
          4    1    3    3  501    0  0.11590265827E+03  0.14435797293E+03 -0.56315764525E+03  0.59280619426E+03  0.00000000000E+00 0.  1.
   -9000007    1    1    2    0  502  0.45872752186E+02 -0.21816860148E+03  0.21669686304E+03  0.50661561219E+03  0.40000000000E+03 0. -1.
<mgrwt>
<rscale>  2 0.45818953E+03</rscale>
<asrwt>0</asrwt>
<pdfrwt beam="1">  1       21 0.66981084E-01 0.45827535E+03</pdfrwt>
<pdfrwt beam="2">  1       21 0.13187092E+00 0.45827535E+03</pdfrwt>
<totfact> 0.71365860E+02</totfact>
</mgrwt>
</event>
<event>
 6    1  0.9502611E-004  0.4368313E+03  0.7818608E-02  0.1031731E+00
         21   -1    0    0  503  502  0.00000000000E+00  0.00000000000E+00  0.16119480634E+03  0.16119480634E+03  0.00000000000E+00 0. -1.
         21   -1    0    0  501  503 -0.00000000000E+00 -0.00000000000E+00 -0.11846040488E+04  0.11846040488E+04  0.00000000000E+00 0. -1.
    9000007    2    1    2  501    0  0.11733352100E+03  0.13028530155E+03 -0.53186774431E+03  0.68826219505E+03  0.40010015840E+03 0.  0.
    9000005    1    3    3    0    0  0.17856392229E+03 -0.87558676062E+02 -0.17084628731E+03  0.26218514447E+03  0.99999687468E+00 0.  0.
          4    1    3    3  501    0 -0.61230401287E+02  0.21784397761E+03 -0.36102145699E+03  0.42607705058E+03  0.00000000000E+00 0.  1.
   -9000007    1    1    2    0  502 -0.11733352100E+03 -0.13028530155E+03 -0.49154149813E+03  0.65753666007E+03  0.40000000000E+03 0. -1.
<mgrwt>
<rscale>  2 0.43680833E+03</rscale>
<asrwt>0</asrwt>
<pdfrwt beam="1">  1       21 0.24799201E-01 0.43683126E+03</pdfrwt>
<pdfrwt beam="2">  1       21 0.18224678E+00 0.43683126E+03</pdfrwt>
<totfact> 0.23149446E+03</totfact>
</mgrwt>
</event>
<event>
 6    1  0.9502611E-004  0.4139481E+03  0.7818608E-02  0.1039061E+00
         21   -1    0    0  503  502  0.00000000000E+00  0.00000000000E+00  0.74902745680E+02  0.74902745680E+02  0.00000000000E+00 0.  1.
         21   -1    0    0  501  503 -0.00000000000E+00 -0.00000000000E+00 -0.26715176358E+04  0.26715176358E+04  0.00000000000E+00 0.  1.
    9000007    2    1    2  501    0  0.63225683942E+01  0.10636267060E+03 -0.18190162952E+04  0.18655046265E+04  0.39991778744E+03 0.  0.
    9000005    1    3    3    0    0  0.17025316550E+03  0.16382459022E+03 -0.11717352879E+04  0.11953197152E+04  0.99999687468E+00 0.  0.
          4    1    3    3  501    0 -0.16393059711E+03 -0.57461919620E+02 -0.64728100730E+03  0.67018491127E+03  0.00000000000E+00 0.  1.
   -9000007    1    1    2    0  502 -0.63225683942E+01 -0.10636267060E+03 -0.77759859498E+03  0.88091575504E+03  0.40000000000E+03 0. -1.
<mgrwt>
<rscale>  2 0.41392819E+03</rscale>
<asrwt>0</asrwt>
<pdfrwt beam="1">  1       21 0.11523500E-01 0.41394806E+03</pdfrwt>
<pdfrwt beam="2">  1       21 0.41100270E+00 0.41394806E+03</pdfrwt>
<totfact> 0.36992335E+02</totfact>
</mgrwt>
</event>
<event>
 6    1  0.9502611E-004  0.4160284E+03  0.7818608E-02  0.1038458E+00
         21   -1    0    0  503  502  0.00000000000E+00  0.00000000000E+00  0.18265145428E+03  0.18265145428E+03  0.00000000000E+00 0. -1.
         21   -1    0    0  501  503 -0.00000000000E+00 -0.00000000000E+00 -0.17131477579E+04  0.17131477579E+04  0.00000000000E+00 0. -1.
    9000007    2    1    2  501    0  0.11136035764E+03 -0.26047520967E+02 -0.13993837184E+04  0.14595995874E+04  0.39884403172E+03 0.  0.
    9000005    1    3    3    0    0  0.20648325037E+03 -0.88657790641E+02 -0.12586990328E+04  0.12786007163E+04  0.99999687468E+00 0.  0.
          4    1    3    3  501    0 -0.95122892732E+02  0.62610269673E+02 -0.14068468567E+03  0.18099887119E+03  0.00000000000E+00 0.  1.
   -9000007    1    1    2    0  502 -0.11136035764E+03  0.26047520967E+02 -0.13111258514E+03  0.43619962469E+03  0.40000000000E+03 0. -1.
<mgrwt>
<rscale>  2 0.41575026E+03</rscale>
<asrwt>0</asrwt>
<pdfrwt beam="1">  1       21 0.28100223E-01 0.41602837E+03</pdfrwt>
<pdfrwt beam="2">  1       21 0.26356120E+00 0.41602837E+03</pdfrwt>
<totfact> 0.55208893E+02</totfact>
</mgrwt>
</event>
<event>
 6    1  0.9502611E-004  0.9626652E+03  0.7818608E-02  0.9350638E-01
         21   -1    0    0  503  502  0.00000000000E+00  0.00000000000E+00  0.23532299206E+04  0.23532299206E+04  0.00000000000E+00 0. -1.
         21   -1    0    0  501  503 -0.00000000000E+00 -0.00000000000E+00 -0.93806919606E+03  0.93806919606E+03  0.00000000000E+00 0.  1.
    9000007    2    1    2  501    0 -0.63321584920E+03  0.60384144634E+03 -0.54610296441E+03  0.11067758136E+04  0.40141929430E+03 0.  0.
    9000005    1    3    3    0    0 -0.32694797549E+03  0.45382501590E+03 -0.14022529853E+03  0.57664222710E+03  0.99999687468E+00 0.  0.
          4    1    3    3  501    0 -0.30626787371E+03  0.15001643044E+03 -0.40587766589E+03  0.53013358650E+03  0.00000000000E+00 0.  1.
   -9000007    1    1    2    0  502  0.63321584920E+03 -0.60384144634E+03  0.19612636889E+04  0.21845233030E+04  0.40000000000E+03 0. -1.
<mgrwt>
<rscale>  2 0.96251741E+03</rscale>
<asrwt>0</asrwt>
<pdfrwt beam="1">  1       21 0.36203537E+00 0.96266518E+03</pdfrwt>
<pdfrwt beam="2">  1       21 0.14431834E+00 0.96266518E+03</pdfrwt>
<totfact> 0.25983027E+00</totfact>
</mgrwt>
</event>
<event>
 6    1  0.9502611E-004  0.4805644E+03  0.7818608E-02  0.1018986E+00
         21   -1    0    0  503  502  0.00000000000E+00  0.00000000000E+00  0.14624109147E+03  0.14624109147E+03  0.00000000000E+00 0.  1.
         21   -1    0    0  501  503 -0.00000000000E+00 -0.00000000000E+00 -0.19933271413E+04  0.19933271413E+04  0.00000000000E+00 0.  1.
    9000007    2    1    2  501    0  0.14667009342E+03 -0.22232857195E+03 -0.14112612241E+04  0.14908114301E+04  0.39989794632E+03 0.  0.
    9000005    1    3    3    0    0 -0.19485596348E+01  0.15410254999E+02  0.23899341167E+02  0.28521068454E+02  0.99999687468E+00 0.  0.
          4    1    3    3  501    0  0.14861865305E+03 -0.23773882695E+03 -0.14351605652E+04  0.14622903617E+04  0.00000000000E+00 0.  1.
   -9000007    1    1    2    0  502 -0.14667009342E+03  0.22232857195E+03 -0.43582482574E+03  0.64875680262E+03  0.40000000000E+03 0.  1.
<mgrwt>
<rscale>  2 0.48054313E+03</rscale>
<asrwt>0</asrwt>
<pdfrwt beam="1">  1       21 0.22498630E-01 0.48056437E+03</pdfrwt>
<pdfrwt beam="2">  1       21 0.30666570E+00 0.48056437E+03</pdfrwt>
<totfact> 0.45134292E+02</totfact>
</mgrwt>
</event>
<event>
 6    1  0.9502611E-004  0.4676569E+03  0.7818608E-02  0.1022681E+00
         21   -1    0    0  503  502  0.00000000000E+00  0.00000000000E+00  0.60298599717E+03  0.60298599717E+03  0.00000000000E+00 0.  1.
         21   -1    0    0  501  503 -0.00000000000E+00 -0.00000000000E+00 -0.78644664050E+03  0.78644664050E+03  0.00000000000E+00 0. -1.
    9000007    2    1    2  501    0 -0.20761396940E+03  0.11964599519E+03 -0.60238118951E+03  0.76260479170E+03  0.40160209959E+03 0.  0.
    9000005    1    3    3    0    0 -0.11823514577E+03 -0.34254718759E+02 -0.56819754180E+03  0.58137972269E+03  0.99999687468E+00 0.  0.
          4    1    3    3  501    0 -0.89378823624E+02  0.15390071395E+03 -0.34183647713E+02  0.18122506901E+03  0.00000000000E+00 0.  1.
   -9000007    1    1    2    0  502  0.20761396940E+03 -0.11964599519E+03  0.41892054619E+03  0.62682784596E+03  0.40000000000E+03 0.  1.
<mgrwt>
<rscale>  2 0.46731274E+03</rscale>
<asrwt>0</asrwt>
<pdfrwt beam="1">  1       21 0.92767076E-01 0.46765689E+03</pdfrwt>
<pdfrwt beam="2">  1       21 0.12099179E+00 0.46765689E+03</pdfrwt>
<totfact> 0.41865425E+02</totfact>
</mgrwt>
</event>
<event>
 6    1  0.9502611E-004  0.4691668E+03  0.7818608E-02  0.1022249E+00
         21   -1    0    0  503  502  0.00000000000E+00  0.00000000000E+00  0.28460766417E+03  0.28460766417E+03  0.00000000000E+00 0. -1.
         21   -1    0    0  501  503 -0.00000000000E+00 -0.00000000000E+00 -0.81787253662E+03  0.81787253662E+03  0.00000000000E+00 0. -1.
    9000007    2    1    2  501    0 -0.22209885932E+03  0.10387294202E+03 -0.13464107540E+03  0.48683547941E+03  0.39845084193E+03 0.  0.
    9000005    1    3    3    0    0  0.13886287355E+02 -0.13222604277E+03 -0.53385445026E+02  0.14327442583E+03  0.99999687468E+00 0.  0.
          4    1    3    3  501    0 -0.23598514667E+03  0.23609898479E+03 -0.81255630377E+02  0.34356105358E+03  0.00000000000E+00 0.  1.
   -9000007    1    1    2    0  502  0.22209885932E+03 -0.10387294202E+03 -0.39862379705E+03  0.61564472138E+03  0.40000000000E+03 0. -1.
<mgrwt>
<rscale>  2 0.46883644E+03</rscale>
<asrwt>0</asrwt>
<pdfrwt beam="1">  1       21 0.43785795E-01 0.46916681E+03</pdfrwt>
<pdfrwt beam="2">  1       21 0.12582654E+00 0.46916681E+03</pdfrwt>
<totfact> 0.20079290E+03</totfact>
</mgrwt>
</event>
<event>
 6    1  0.9502611E-004  0.7444160E+03  0.7818608E-02  0.9644339E-01
         21   -1    0    0  503  502  0.00000000000E+00  0.00000000000E+00  0.74314620485E+03  0.74314620485E+03  0.00000000000E+00 0. -1.
         21   -1    0    0  501  503 -0.00000000000E+00 -0.00000000000E+00 -0.10772526841E+04  0.10772526841E+04  0.00000000000E+00 0.  1.
    9000007    2    1    2  501    0  0.62649525763E+03  0.30924982830E+02  0.33823570124E+03  0.81765432026E+03  0.40087720745E+03 0.  0.
    9000005    1    3    3    0    0  0.33859464567E+03 -0.17679262412E+03  0.11759513225E+03  0.39966433558E+03  0.99999687468E+00 0.  0.
          4    1    3    3  501    0  0.28790061196E+03  0.20771760695E+03  0.22064056899E+03  0.41798998467E+03  0.00000000000E+00 0.  1.
   -9000007    1    1    2    0  502 -0.62649525763E+03 -0.30924982830E+02 -0.67234218051E+03  0.10027445687E+04  0.40000000000E+03 0. -1.
<mgrwt>
<rscale>  2 0.74429798E+03</rscale>
<asrwt>0</asrwt>
<pdfrwt beam="1">  1       21 0.11433019E+00 0.74441601E+03</pdfrwt>
<pdfrwt beam="2">  1       21 0.16573118E+00 0.74441601E+03</pdfrwt>
<totfact> 0.96522830E+01</totfact>
</mgrwt>
</event>
<event>
 6    1  0.9502611E-004  0.5405656E+03  0.7818608E-02  0.1003705E+00
         21   -1    0    0  503  502  0.00000000000E+00  0.00000000000E+00  0.33459766935E+03  0.33459766935E+03  0.00000000000E+00 0. -1.
         21   -1    0    0  501  503 -0.00000000000E+00 -0.00000000000E+00 -0.90931058597E+03  0.90931058597E+03  0.00000000000E+00 0. -1.
    9000007    2    1    2  501    0  0.10817356219E+03  0.34706107821E+03 -0.16348605903E+03  0.56474668399E+03  0.40007276090E+03 0.  0.
    9000005    1    3    3    0    0  0.79494051302E+02  0.29550712856E+03 -0.29222684858E+03  0.42313271942E+03  0.99999687468E+00 0.  0.
          4    1    3    3  501    0  0.28679510885E+02  0.51553949656E+02  0.12874078954E+03  0.14161396457E+03  0.00000000000E+00 0.  1.
   -9000007    1    1    2    0  502 -0.10817356219E+03 -0.34706107821E+03 -0.41122685758E+03  0.67916157133E+03  0.40000000000E+03 0. -1.
<mgrwt>
<rscale>  2 0.54055210E+03</rscale>
<asrwt>0</asrwt>
<pdfrwt beam="1">  1       21 0.51476565E-01 0.54056556E+03</pdfrwt>
<pdfrwt beam="2">  1       21 0.13989393E+00 0.54056556E+03</pdfrwt>
<totfact> 0.10527886E+03</totfact>
</mgrwt>
</event>
<event>
 6    1  0.9502611E-004  0.5945301E+03  0.7818608E-02  0.9917330E-01
         21   -1    0    0  503  502  0.00000000000E+00  0.00000000000E+00  0.13290243737E+04  0.13290243737E+04  0.00000000000E+00 0. -1.
         21   -1    0    0  501  503 -0.00000000000E+00 -0.00000000000E+00 -0.26601373122E+03  0.26601373122E+03  0.00000000000E+00 0. -1.
    9000007    2    1    2  501    0 -0.39434066540E+03  0.19483701049E+03  0.56527783212E+03  0.81966466486E+03  0.39855377841E+03 0.  0.
    9000005    1    3    3    0    0 -0.31673097993E+03  0.17733012689E+03  0.14330745192E+03  0.39025954609E+03  0.99999687468E+00 0.  0.
          4    1    3    3  501    0 -0.77609685470E+02  0.17506883600E+02  0.42197038020E+03  0.42940511876E+03  0.00000000000E+00 0.  1.
   -9000007    1    1    2    0  502  0.39434066540E+03 -0.19483701049E+03  0.49773281034E+03  0.77537344005E+03  0.40000000000E+03 0. -1.
<mgrwt>
<rscale>  2 0.59428692E+03</rscale>
<asrwt>0</asrwt>
<pdfrwt beam="1">  1       21 0.20446528E+00 0.59453008E+03</pdfrwt>
<pdfrwt beam="2">  1       21 0.40925190E-01 0.59453008E+03</pdfrwt>
<totfact> 0.56164671E+02</totfact>
</mgrwt>
</event>
<event>
 6    1  0.9502611E-004  0.4397638E+03  0.7818608E-02  0.1031742E+00
         21   -1    0    0  503  502  0.00000000000E+00  0.00000000000E+00  0.34097112940E+03  0.34097112940E+03  0.00000000000E+00 0.  1.
         21   -1    0    0  501  503 -0.00000000000E+00 -0.00000000000E+00 -0.67125521884E+03  0.67125521884E+03  0.00000000000E+00 0.  1.
    9000007    2    1    2  501    0  0.65657094102E+02 -0.13713269550E+03 -0.38029657415E+03  0.58139287831E+03  0.41264508292E+03 0.  0.
    9000005    1    3    3    0    0 -0.71880416765E+02  0.11023817390E+03 -0.21933602645E+03  0.25579003459E+03  0.99999687468E+00 0.  0.
          4    1    3    3  501    0  0.13753751087E+03 -0.24737086941E+03 -0.16096054770E+03  0.32560284373E+03  0.00000000000E+00 0.  1.
   -9000007    1    1    2    0  502 -0.65657094102E+02  0.13713269550E+03  0.50012484703E+02  0.43083346993E+03  0.40000000000E+03 0.  1.
<mgrwt>
<rscale>  2 0.43677267E+03</rscale>
<asrwt>0</asrwt>
<pdfrwt beam="1">  1       21 0.52457098E-01 0.43976379E+03</pdfrwt>
<pdfrwt beam="2">  1       21 0.10327003E+00 0.43976379E+03</pdfrwt>
<totfact> 0.22736636E+03</totfact>
</mgrwt>
</event>
<event>
 6    1  0.9502611E-004  0.6701819E+03  0.7818608E-02  0.9770191E-01
         21   -1    0    0  503  502  0.00000000000E+00  0.00000000000E+00  0.18390659992E+04  0.18390659992E+04  0.00000000000E+00 0.  1.
         21   -1    0    0  501  503 -0.00000000000E+00 -0.00000000000E+00 -0.40949422749E+03  0.40949422749E+03  0.00000000000E+00 0.  1.
    9000007    2    1    2  501    0  0.14949025515E+03  0.51490966444E+03 -0.43160766418E-01  0.67018189623E+03  0.40207520845E+03 0.  0.
    9000005    1    3    3    0    0  0.42990017317E+02  0.36392352260E+03  0.18342536283E+03  0.40979792046E+03  0.99999687468E+00 0.  0.
          4    1    3    3  501    0  0.10650023784E+03  0.15098614184E+03 -0.18346852359E+03  0.26038397577E+03  0.00000000000E+00 0.  1.
   -9000007    1    1    2    0  502 -0.14949025515E+03 -0.51490966444E+03  0.14296149325E+04  0.15783783304E+04  0.40000000000E+03 0.  1.
<mgrwt>
<rscale>  2 0.66987094E+03</rscale>
<asrwt>0</asrwt>
<pdfrwt beam="1">  1       21 0.28293323E+00 0.67018189E+03</pdfrwt>
<pdfrwt beam="2">  1       21 0.62999113E-01 0.67018189E+03</pdfrwt>
<totfact> 0.68894005E+01</totfact>
</mgrwt>
</event>
<event>
 6    1  0.9502611E-004  0.4231056E+03  0.7818608E-02  0.1036151E+00
         21   -1    0    0  503  502  0.00000000000E+00  0.00000000000E+00  0.19074397303E+03  0.19074397303E+03  0.00000000000E+00 0. -1.
         21   -1    0    0  501  503 -0.00000000000E+00 -0.00000000000E+00 -0.10113017410E+04  0.10113017410E+04  0.00000000000E+00 0. -1.
    9000007    2    1    2  501    0  0.17755790638E+02 -0.13325797616E+03 -0.57473359722E+03  0.71367855786E+03  0.40118003423E+03 0.  0.
    9000005    1    3    3    0    0  0.14962686536E+03  0.19338964745E+02 -0.45447473097E+03  0.47886373373E+03  0.99999687468E+00 0.  0.
          4    1    3    3  501    0 -0.13187107472E+03 -0.15259694090E+03 -0.12025886625E+03  0.23481482414E+03  0.00000000000E+00 0.  1.
   -9000007    1    1    2    0  502 -0.17755790638E+02  0.13325797616E+03 -0.24582417075E+03  0.48836715618E+03  0.40000000000E+03 0. -1.
<mgrwt>
<rscale>  2 0.42282568E+03</rscale>
<asrwt>0</asrwt>
<pdfrwt beam="1">  1       21 0.29345226E-01 0.42310563E+03</pdfrwt>
<pdfrwt beam="2">  1       21 0.15558489E+00 0.42310563E+03</pdfrwt>
<totfact> 0.26219045E+03</totfact>
</mgrwt>
</event>
<event>
 6    1  0.9502611E-004  0.4057184E+03  0.7818608E-02  0.1041834E+00
         21   -1    0    0  503  502  0.00000000000E+00  0.00000000000E+00  0.56806765035E+03  0.56806765035E+03  0.00000000000E+00 0. -1.
         21   -1    0    0  501  503 -0.00000000000E+00 -0.00000000000E+00 -0.43314646339E+03  0.43314646339E+03  0.00000000000E+00 0.  1.
    9000007    2    1    2  501    0  0.66589774313E+02 -0.37551117887E+01 -0.22068912357E+03  0.46185616965E+03  0.40019886716E+03 0.  0.
    9000005    1    3    3    0    0 -0.51245119443E+02 -0.15772254920E+02  0.10357603395E+03  0.11663541955E+03  0.99999687468E+00 0.  0.
          4    1    3    3  501    0  0.11783489376E+03  0.12017143131E+02 -0.32426515752E+03  0.34522075009E+03  0.00000000000E+00 0.  1.
   -9000007    1    1    2    0  502 -0.66589774313E+02  0.37551117887E+01  0.35561031052E+03  0.53935794409E+03  0.40000000000E+03 0. -1.
<mgrwt>
<rscale>  2 0.40566937E+03</rscale>
<asrwt>0</asrwt>
<pdfrwt beam="1">  1       21 0.87395023E-01 0.40571841E+03</pdfrwt>
<pdfrwt beam="2">  1       21 0.66637917E-01 0.40571841E+03</pdfrwt>
<totfact> 0.20388272E+03</totfact>
</mgrwt>
</event>
<event>
 6    1  0.9502611E-004  0.5662121E+03  0.7818608E-02  0.9979298E-01
         21   -1    0    0  503  502  0.00000000000E+00  0.00000000000E+00  0.77462509713E+03  0.77462509713E+03  0.00000000000E+00 0. -1.
         21   -1    0    0  501  503 -0.00000000000E+00 -0.00000000000E+00 -0.46846563860E+03  0.46846563860E+03  0.00000000000E+00 0.  1.
    9000007    2    1    2  501    0  0.37257982920E+03 -0.13910070975E+03 -0.61873591564E+02  0.56958270865E+03  0.40302777087E+03 0.  0.
    9000005    1    3    3    0    0  0.19387320727E+03 -0.12433044351E+03  0.16285778282E+03  0.28207895544E+03  0.99999687468E+00 0.  0.
          4    1    3    3  501    0  0.17870662192E+03 -0.14770266232E+02 -0.22473137438E+03  0.28750375322E+03  0.00000000000E+00 0.  1.
   -9000007    1    1    2    0  502 -0.37257982920E+03  0.13910070975E+03  0.36803305009E+03  0.67350802708E+03  0.40000000000E+03 0. -1.
<mgrwt>
<rscale>  2 0.56567353E+03</rscale>
<asrwt>0</asrwt>
<pdfrwt beam="1">  1       21 0.11917309E+00 0.56621208E+03</pdfrwt>
<pdfrwt beam="2">  1       21 0.72071637E-01 0.56621208E+03</pdfrwt>
<totfact> 0.75425191E+02</totfact>
</mgrwt>
</event>
<event>
 6    1  0.9502611E-004  0.4940510E+03  0.7818608E-02  0.1015383E+00
         21   -1    0    0  503  502  0.00000000000E+00  0.00000000000E+00  0.50737323274E+03  0.50737323274E+03  0.00000000000E+00 0.  1.
         21   -1    0    0  501  503 -0.00000000000E+00 -0.00000000000E+00 -0.79526468346E+03  0.79526468346E+03  0.00000000000E+00 0. -1.
    9000007    2    1    2  501    0  0.26144583820E+03 -0.12303975024E+03 -0.55376420894E+03  0.74211937948E+03  0.40074139772E+03 0.  0.
    9000005    1    3    3    0    0  0.14539861658E+03 -0.91341425717E+02 -0.59159623181E+03  0.61601226874E+03  0.99999687468E+00 0.  0.
          4    1    3    3  501    0  0.11604722162E+03 -0.31698324520E+02  0.37832022874E+02  0.12610711074E+03  0.00000000000E+00 0.  1.
   -9000007    1    1    2    0  502 -0.26144583820E+03  0.12303975024E+03  0.26587275821E+03  0.56051853672E+03  0.40000000000E+03 0.  1.
<mgrwt>
<rscale>  2 0.49390062E+03</rscale>
<asrwt>0</asrwt>
<pdfrwt beam="1">  1       21 0.78057420E-01 0.49405098E+03</pdfrwt>
<pdfrwt beam="2">  1       21 0.12234841E+00 0.49405098E+03</pdfrwt>
<totfact> 0.60303545E+02</totfact>
</mgrwt>
</event>
<event>
 6    1  0.9502611E-004  0.6365527E+03  0.7818608E-02  0.9832541E-01
         21   -1    0    0  503  502  0.00000000000E+00  0.00000000000E+00  0.17061357997E+04  0.17061357997E+04  0.00000000000E+00 0. -1.
         21   -1    0    0  501  503 -0.00000000000E+00 -0.00000000000E+00 -0.25608045011E+03  0.25608045011E+03  0.00000000000E+00 0.  1.
    9000007    2    1    2  501    0 -0.49515230091E+03  0.48555063159E+01  0.45942483130E+03  0.78469843644E+03  0.39935082759E+03 0.  0.
    9000005    1    3    3    0    0 -0.98434441019E+02  0.79334437715E+02  0.34153802610E+03  0.36418747295E+03  0.99999687468E+00 0.  0.
          4    1    3    3  501    0 -0.39671785989E+03 -0.74478931399E+02  0.11788680520E+03  0.42051096349E+03  0.00000000000E+00 0.  1.
   -9000007    1    1    2    0  502  0.49515230091E+03 -0.48555063159E+01  0.99063051826E+03  0.11775178133E+04  0.40000000000E+03 0. -1.
<mgrwt>
<rscale>  2 0.63645077E+03</rscale>
<asrwt>0</asrwt>
<pdfrwt beam="1">  1       21 0.26248242E+00 0.63655273E+03</pdfrwt>
<pdfrwt beam="2">  1       21 0.39396993E-01 0.63655273E+03</pdfrwt>
<totfact> 0.25539947E+02</totfact>
</mgrwt>
</event>
<event>
 6    1  0.9502611E-004  0.4447989E+03  0.7818608E-02  0.1029306E+00
         21   -1    0    0  503  502  0.00000000000E+00  0.00000000000E+00  0.22995465950E+04  0.22995465950E+04  0.00000000000E+00 0. -1.
         21   -1    0    0  501  503 -0.00000000000E+00 -0.00000000000E+00 -0.99702195926E+02  0.99702195926E+02  0.00000000000E+00 0. -1.
    9000007    2    1    2  501    0 -0.12678855816E+03 -0.14669737381E+03  0.65521739177E+03  0.79193175634E+03  0.40031315025E+03 0.  0.
    9000005    1    3    3    0    0 -0.73006719460E+02 -0.28424568459E+03  0.48184489903E+03  0.56418179429E+03  0.99999687468E+00 0.  0.
          4    1    3    3  501    0 -0.53781838703E+02  0.13754831079E+03  0.17337249274E+03  0.22774996205E+03  0.00000000000E+00 0.  1.
   -9000007    1    1    2    0  502  0.12678855816E+03  0.14669737381E+03  0.15446270073E+04  0.16073170345E+04  0.40000000000E+03 0. -1.
<mgrwt>
<rscale>  2 0.44472845E+03</rscale>
<asrwt>0</asrwt>
<pdfrwt beam="1">  1       21 0.35377636E+00 0.44479892E+03</pdfrwt>
<pdfrwt beam="2">  1       21 0.15338801E-01 0.44479892E+03</pdfrwt>
<totfact> 0.49196542E+02</totfact>
</mgrwt>
</event>
<event>
 6    1  0.9502611E-004  0.4250247E+03  0.7818608E-02  0.1035482E+00
         21   -1    0    0  503  502  0.00000000000E+00  0.00000000000E+00  0.11631360412E+04  0.11631360412E+04  0.00000000000E+00 0.  1.
         21   -1    0    0  501  503 -0.00000000000E+00 -0.00000000000E+00 -0.16444153498E+03  0.16444153498E+03  0.00000000000E+00 0.  1.
    9000007    2    1    2  501    0  0.13439169985E+03 -0.46587024545E+02  0.34167228435E+03  0.54533101666E+03  0.40051777489E+03 0.  0.
    9000005    1    3    3    0    0  0.27292926443E+03  0.84643618343E+01  0.25068277526E+03  0.37068164591E+03  0.99999687468E+00 0.  0.
          4    1    3    3  501    0 -0.13853756458E+03 -0.55051386380E+02  0.90989509083E+02  0.17464937076E+03  0.00000000000E+00 0.  1.
   -9000007    1    1    2    0  502 -0.13439169985E+03  0.46587024545E+02  0.65702222185E+03  0.78224655950E+03  0.40000000000E+03 0.  1.
<mgrwt>
<rscale>  2 0.42490264E+03</rscale>
<asrwt>0</asrwt>
<pdfrwt beam="1">  1       21 0.17894400E+00 0.42502467E+03</pdfrwt>
<pdfrwt beam="2">  1       21 0.25298698E-01 0.42502467E+03</pdfrwt>
<totfact> 0.23608947E+03</totfact>
</mgrwt>
</event>
<event>
 6    1  0.9502611E-004  0.6416560E+03  0.7818608E-02  0.9822599E-01
         21   -1    0    0  503  502  0.00000000000E+00  0.00000000000E+00  0.17597642894E+04  0.17597642894E+04  0.00000000000E+00 0.  1.
         21   -1    0    0  501  503 -0.00000000000E+00 -0.00000000000E+00 -0.32892368293E+03  0.32892368293E+03  0.00000000000E+00 0. -1.
    9000007    2    1    2  501    0 -0.48691025955E+03  0.12060095510E+03  0.15423800341E+03  0.65993313075E+03  0.40012021211E+03 0.  0.
    9000005    1    3    3    0    0 -0.48087704701E+03 -0.34485488135E+01  0.26271868974E+02  0.48160755593E+03  0.99999687468E+00 0.  0.
          4    1    3    3  501    0 -0.60332125387E+01  0.12404950391E+03  0.12796613443E+03  0.17832557482E+03  0.00000000000E+00 0.  1.
   -9000007    1    1    2    0  502  0.48691025955E+03 -0.12060095510E+03  0.12766026031E+04  0.14287548416E+04  0.40000000000E+03 0. -1.
<mgrwt>
<rscale>  2 0.64163722E+03</rscale>
<asrwt>0</asrwt>
<pdfrwt beam="1">  1       21 0.27073296E+00 0.64165596E+03</pdfrwt>
<pdfrwt beam="2">  1       21 0.50603645E-01 0.64165596E+03</pdfrwt>
<totfact> 0.13374512E+02</totfact>
</mgrwt>
</event>
<event>
 6    1  0.9502611E-004  0.4218117E+03  0.7818608E-02  0.1036491E+00
         21   -1    0    0  503  502  0.00000000000E+00  0.00000000000E+00  0.23377959400E+04  0.23377959400E+04  0.00000000000E+00 0. -1.
         21   -1    0    0  501  503 -0.00000000000E+00 -0.00000000000E+00 -0.76696878435E+02  0.76696878435E+02  0.00000000000E+00 0. -1.
    9000007    2    1    2  501    0  0.12430305681E+03 -0.48414032292E+02  0.10225071261E+04  0.11060948854E+04  0.40016234735E+03 0.  0.
    9000005    1    3    3    0    0  0.21945506803E+03 -0.14295231238E+03  0.47526560552E+03  0.54265485005E+03  0.99999687468E+00 0.  0.
          4    1    3    3  501    0 -0.95152011224E+02  0.94538280084E+02  0.54724152058E+03  0.56344003540E+03  0.00000000000E+00 0.  1.
   -9000007    1    1    2    0  502 -0.12430305681E+03  0.48414032292E+02  0.12385919355E+04  0.13083979330E+04  0.40000000000E+03 0. -1.
<mgrwt>
<rscale>  2 0.42177315E+03</rscale>
<asrwt>0</asrwt>
<pdfrwt beam="1">  1       21 0.35966086E+00 0.42181166E+03</pdfrwt>
<pdfrwt beam="2">  1       21 0.11799522E-01 0.42181166E+03</pdfrwt>
<totfact> 0.74341607E+02</totfact>
</mgrwt>
</event>
<event>
 6    1  0.9502611E-004  0.4568095E+03  0.7818608E-02  0.1025737E+00
         21   -1    0    0  503  502  0.00000000000E+00  0.00000000000E+00  0.27953771711E+03  0.27953771711E+03  0.00000000000E+00 0.  1.
         21   -1    0    0  501  503 -0.00000000000E+00 -0.00000000000E+00 -0.88754622036E+03  0.88754622036E+03  0.00000000000E+00 0. -1.
    9000007    2    1    2  501    0  0.20766783761E+03 -0.74491822474E+02 -0.53701539416E+03  0.70479075784E+03  0.39958668193E+03 0.  0.
    9000005    1    3    3    0    0  0.27769038038E+03 -0.75106540196E+02 -0.56125976155E+03  0.63068729150E+03  0.99999687468E+00 0.  0.
          4    1    3    3  501    0 -0.70022542767E+02  0.61471772218E+00  0.24244367387E+02  0.74103466339E+02  0.00000000000E+00 0.  1.
   -9000007    1    1    2    0  502 -0.20766783761E+03  0.74491822474E+02 -0.70993109093E+02  0.46229317963E+03  0.40000000000E+03 0.  1.
<mgrwt>
<rscale>  2 0.45671905E+03</rscale>
<asrwt>0</asrwt>
<pdfrwt beam="1">  1       21 0.43005804E-01 0.45680955E+03</pdfrwt>
<pdfrwt beam="2">  1       21 0.13654557E+00 0.45680955E+03</pdfrwt>
<totfact> 0.16931353E+03</totfact>
</mgrwt>
</event>
<event>
 6    1  0.9502611E-004  0.4182274E+03  0.7818608E-02  0.1037755E+00
         21   -1    0    0  503  502  0.00000000000E+00  0.00000000000E+00  0.64957725443E+03  0.64957725443E+03  0.00000000000E+00 0.  1.
         21   -1    0    0  501  503 -0.00000000000E+00 -0.00000000000E+00 -0.10151066970E+04  0.10151066970E+04  0.00000000000E+00 0.  1.
    9000007    2    1    2  501    0 -0.80839758851E+02 -0.85204460989E+02 -0.89670953634E+03  0.98944535750E+03  0.40139663195E+03 0.  0.
    9000005    1    3    3    0    0 -0.38005601721E+02 -0.24671765406E+03 -0.57756840390E+03  0.62920607735E+03  0.99999687468E+00 0.  0.
          4    1    3    3  501    0 -0.42834157130E+02  0.16151319307E+03 -0.31914113244E+03  0.36023928016E+03  0.00000000000E+00 0.  1.
   -9000007    1    1    2    0  502  0.80839758851E+02  0.85204460989E+02  0.53118009374E+03  0.67523859396E+03  0.40000000000E+03 0.  1.
<mgrwt>
<rscale>  2 0.41789189E+03</rscale>
<asrwt>0</asrwt>
<pdfrwt beam="1">  1       21 0.99934963E-01 0.41822736E+03</pdfrwt>
<pdfrwt beam="2">  1       21 0.15617026E+00 0.41822736E+03</pdfrwt>
<totfact> 0.18279109E+02</totfact>
</mgrwt>
</event>
<event>
 6    1  0.9502611E-004  0.4954166E+03  0.7818608E-02  0.1015007E+00
         21   -1    0    0  503  502  0.00000000000E+00  0.00000000000E+00  0.18734720996E+03  0.18734720996E+03  0.00000000000E+00 0.  1.
         21   -1    0    0  501  503 -0.00000000000E+00 -0.00000000000E+00 -0.19401678759E+04  0.19401678759E+04  0.00000000000E+00 0.  1.
    9000007    2    1    2  501    0 -0.82661142707E+02  0.27971422718E+03 -0.14833146028E+04  0.15638605539E+04  0.40045562494E+03 0.  0.
    9000005    1    3    3    0    0 -0.71716169013E+02 -0.37314886058E+02 -0.86642632712E+03  0.87019031823E+03  0.99999687468E+00 0.  0.
          4    1    3    3  501    0 -0.10944973694E+02  0.31702911324E+03 -0.61688827573E+03  0.69367023565E+03  0.00000000000E+00 0.  1.
   -9000007    1    1    2    0  502  0.82661142707E+02 -0.27971422718E+03 -0.26950606312E+03  0.56365453201E+03  0.40000000000E+03 0.  1.
<mgrwt>
<rscale>  2 0.49532453E+03</rscale>
<asrwt>0</asrwt>
<pdfrwt beam="1">  1       21 0.28822650E-01 0.49541661E+03</pdfrwt>
<pdfrwt beam="2">  1       21 0.29848734E+00 0.49541661E+03</pdfrwt>
<totfact> 0.30916295E+02</totfact>
</mgrwt>
</event>
<event>
 6    1  0.9502611E-004  0.5947400E+03  0.7818608E-02  0.9916831E-01
         21   -1    0    0  503  502  0.00000000000E+00  0.00000000000E+00  0.88551977303E+03  0.88551977303E+03  0.00000000000E+00 0. -1.
         21   -1    0    0  501  503 -0.00000000000E+00 -0.00000000000E+00 -0.67683969282E+03  0.67683969282E+03  0.00000000000E+00 0.  1.
    9000007    2    1    2  501    0  0.35388654027E+03 -0.25972545105E+03 -0.39623693751E+03  0.71464631175E+03  0.40127627258E+03 0.  0.
    9000005    1    3    3    0    0  0.13906265020E+03 -0.24461313947E+03 -0.21202317734E+02  0.28217821843E+03  0.99999687468E+00 0.  0.
          4    1    3    3  501    0  0.21482389007E+03 -0.15112311580E+02 -0.37503461978E+03  0.43246809332E+03  0.00000000000E+00 0.  1.
   -9000007    1    1    2    0  502 -0.35388654027E+03  0.25972545105E+03  0.60491701772E+03  0.84771315410E+03  0.40000000000E+03 0. -1.
<mgrwt>
<rscale>  2 0.59452477E+03</rscale>
<asrwt>0</asrwt>
<pdfrwt beam="1">  1       21 0.13623381E+00 0.59473998E+03</pdfrwt>
<pdfrwt beam="2">  1       21 0.10412918E+00 0.59473998E+03</pdfrwt>
<totfact> 0.22056049E+02</totfact>
</mgrwt>
</event>
<event>
 6    1  0.9502611E-004  0.4216824E+03  0.7818608E-02  0.1036561E+00
         21   -1    0    0  503  502  0.00000000000E+00  0.00000000000E+00  0.12492875994E+04  0.12492875994E+04  0.00000000000E+00 0.  1.
         21   -1    0    0  501  503 -0.00000000000E+00 -0.00000000000E+00 -0.14700110615E+03  0.14700110615E+03  0.00000000000E+00 0.  1.
    9000007    2    1    2  501    0  0.13251677282E+03 -0.15979744634E+02  0.42417350361E+03  0.59775675625E+03  0.39946705893E+03 0.  0.
    9000005    1    3    3    0    0 -0.26093251505E+02 -0.39428294115E+02 -0.66472270651E+02  0.81578250227E+02  0.99999687468E+00 0.  0.
          4    1    3    3  501    0  0.15861002432E+03  0.23448549482E+02  0.49064577426E+03  0.51617850603E+03  0.00000000000E+00 0.  1.
   -9000007    1    1    2    0  502 -0.13251677282E+03  0.15979744634E+02  0.67811298960E+03  0.79853194925E+03  0.40000000000E+03 0.  1.
<mgrwt>
<rscale>  2 0.42155597E+03</rscale>
<asrwt>0</asrwt>
<pdfrwt beam="1">  1       21 0.19219809E+00 0.42168240E+03</pdfrwt>
<pdfrwt beam="2">  1       21 0.22615556E-01 0.42168240E+03</pdfrwt>
<totfact> 0.23783580E+03</totfact>
</mgrwt>
</event>
<event>
 6    1  0.9502611E-004  0.4576684E+03  0.7818608E-02  0.1025464E+00
         21   -1    0    0  503  502  0.00000000000E+00  0.00000000000E+00  0.20930854561E+04  0.20930854561E+04  0.00000000000E+00 0.  1.
         21   -1    0    0  501  503 -0.00000000000E+00 -0.00000000000E+00 -0.10283919792E+03  0.10283919792E+03  0.00000000000E+00 0.  1.
    9000007    2    1    2  501    0 -0.20985232809E+03 -0.73231757781E+02  0.81464176990E+03  0.93439906854E+03  0.40007438815E+03 0.  0.
    9000005    1    3    3    0    0 -0.17223993868E+02 -0.21603396446E+03  0.35365925883E+03  0.41478091942E+03  0.99999687468E+00 0.  0.
          4    1    3    3  501    0 -0.19262833422E+03  0.14280220668E+03  0.46098251107E+03  0.51961814911E+03  0.00000000000E+00 0.  1.
   -9000007    1    1    2    0  502  0.20985232809E+03  0.73231757781E+02  0.11756044883E+04  0.12615255855E+04  0.40000000000E+03 0.  1.
<mgrwt>
<rscale>  2 0.45765219E+03</rscale>
<asrwt>0</asrwt>
<pdfrwt beam="1">  1       21 0.32201311E+00 0.45766845E+03</pdfrwt>
<pdfrwt beam="2">  1       21 0.15821417E-01 0.45766845E+03</pdfrwt>
<totfact> 0.71962241E+02</totfact>
</mgrwt>
</event>
<event>
 6    1  0.9502611E-004  0.4921019E+03  0.7818608E-02  0.1015904E+00
         21   -1    0    0  503  502  0.00000000000E+00  0.00000000000E+00  0.51865490249E+03  0.51865490249E+03  0.00000000000E+00 0.  1.
         21   -1    0    0  501  503 -0.00000000000E+00 -0.00000000000E+00 -0.59811185304E+03  0.59811185304E+03  0.00000000000E+00 0.  1.
    9000007    2    1    2  501    0 -0.28448361682E+03 -0.35119434635E+02 -0.30184059733E+03  0.57674935832E+03  0.39920893427E+03 0.  0.
    9000005    1    3    3    0    0 -0.20394824489E+01 -0.15052429114E+03 -0.43394525040E+01  0.15060395929E+03  0.99999687468E+00 0.  0.
          4    1    3    3  501    0 -0.28244413437E+03  0.11540485650E+03 -0.29750114483E+03  0.42614539904E+03  0.00000000000E+00 0.  1.
   -9000007    1    1    2    0  502  0.28448361682E+03  0.35119434635E+02  0.22238364678E+03  0.54001739721E+03  0.40000000000E+03 0.  1.
<mgrwt>
<rscale>  2 0.49194115E+03</rscale>
<asrwt>0</asrwt>
<pdfrwt beam="1">  1       21 0.79793062E-01 0.49210192E+03</pdfrwt>
<pdfrwt beam="2">  1       21 0.92017208E-01 0.49210192E+03</pdfrwt>
<totfact> 0.11592027E+03</totfact>
</mgrwt>
</event>
<event>
 6    1  0.9502611E-004  0.4686522E+03  0.7818608E-02  0.1022303E+00
         21   -1    0    0  503  502  0.00000000000E+00  0.00000000000E+00  0.43622813241E+03  0.43622813241E+03  0.00000000000E+00 0. -1.
         21   -1    0    0  501  503 -0.00000000000E+00 -0.00000000000E+00 -0.50345735195E+03  0.50345735195E+03  0.00000000000E+00 0.  1.
    9000007    2    1    2  501    0 -0.24191773619E+03 -0.32905553173E+02 -0.34775066699E+02  0.46994061898E+03  0.40003489046E+03 0.  0.
    9000005    1    3    3    0    0 -0.27984534261E+03 -0.16491855309E+03  0.11418578930E+02  0.32502758171E+03  0.99999687468E+00 0.  0.
          4    1    3    3  501    0  0.37927606412E+02  0.13201299991E+03 -0.46193645629E+02  0.14491303727E+03  0.00000000000E+00 0.  1.
   -9000007    1    1    2    0  502  0.24191773619E+03  0.32905553173E+02 -0.32454152839E+02  0.46974486538E+03  0.40000000000E+03 0.  1.
<mgrwt>
<rscale>  2 0.46864475E+03</rscale>
<asrwt>0</asrwt>
<pdfrwt beam="1">  1       21 0.67112020E-01 0.46865220E+03</pdfrwt>
<pdfrwt beam="2">  1       21 0.77454978E-01 0.46865220E+03</pdfrwt>
<totfact> 0.25936367E+03</totfact>
</mgrwt>
</event>
<event>
 6    1  0.9502611E-004  0.7573646E+03  0.7818608E-02  0.9624563E-01
         21   -1    0    0  503  502  0.00000000000E+00  0.00000000000E+00  0.22497836846E+04  0.22497836846E+04  0.00000000000E+00 0.  1.
         21   -1    0    0  501  503 -0.00000000000E+00 -0.00000000000E+00 -0.29357852192E+03  0.29357852192E+03  0.00000000000E+00 0. -1.
    9000007    2    1    2  501    0 -0.11143412485E+03 -0.63124438170E+03  0.51428159031E+03  0.91547074141E+03  0.40337834678E+03 0.  0.
    9000005    1    3    3    0    0 -0.12711907194E+03 -0.59895578913E+02  0.24772147065E+03  0.28480460993E+03  0.99999687468E+00 0.  0.
          4    1    3    3  501    0  0.15684947085E+02 -0.57134880279E+03  0.26656011966E+03  0.63066613149E+03  0.00000000000E+00 0.  1.
   -9000007    1    1    2    0  502  0.11143412485E+03  0.63124438170E+03  0.14419235724E+04  0.16278914651E+04  0.40000000000E+03 0.  1.
<mgrwt>
<rscale>  2 0.75691571E+03</rscale>
<asrwt>0</asrwt>
<pdfrwt beam="1">  1       21 0.34612056E+00 0.75736459E+03</pdfrwt>
<pdfrwt beam="2">  1       21 0.45165928E-01 0.75736459E+03</pdfrwt>
<totfact> 0.55910509E+01</totfact>
</mgrwt>
</event>
<event>
 6    1  0.9502611E-004  0.4462336E+03  0.7818608E-02  0.1028864E+00
         21   -1    0    0  503  502  0.00000000000E+00  0.00000000000E+00  0.10996080409E+04  0.10996080409E+04  0.00000000000E+00 0. -1.
         21   -1    0    0  501  503 -0.00000000000E+00 -0.00000000000E+00 -0.18675436975E+03  0.18675436975E+03  0.00000000000E+00 0.  1.
    9000007    2    1    2  501    0  0.12902986478E+03 -0.14991912260E+03  0.56906064840E+03  0.72305246770E+03  0.39981295646E+03 0.  0.
    9000005    1    3    3    0    0 -0.87642779661E+02 -0.16043959801E+03  0.42498168713E+03  0.46263652668E+03  0.99999687468E+00 0.  0.
          4    1    3    3  501    0  0.21667264444E+03  0.10520475404E+02  0.14407896128E+03  0.26041594102E+03  0.00000000000E+00 0.  1.
   -9000007    1    1    2    0  502 -0.12902986478E+03  0.14991912260E+03  0.34379302274E+03  0.56330994294E+03  0.40000000000E+03 0.  1.
<mgrwt>
<rscale>  2 0.44619171E+03</rscale>
<asrwt>0</asrwt>
<pdfrwt beam="1">  1       21 0.16917046E+00 0.44623363E+03</pdfrwt>
<pdfrwt beam="2">  1       21 0.28731442E-01 0.44623363E+03</pdfrwt>
<totfact> 0.21428636E+03</totfact>
</mgrwt>
</event>
<event>
 6    1  0.9502611E-004  0.4029740E+03  0.7818608E-02  0.1042779E+00
         21   -1    0    0  503  502  0.00000000000E+00  0.00000000000E+00  0.45751809924E+03  0.45751809924E+03  0.00000000000E+00 0. -1.
         21   -1    0    0  501  503 -0.00000000000E+00 -0.00000000000E+00 -0.42683294404E+03  0.42683294404E+03  0.00000000000E+00 0. -1.
    9000007    2    1    2  501    0 -0.45909946629E+02  0.69115994847E+01 -0.16645447784E+03  0.43599902943E+03  0.40029060327E+03 0.  0.
    9000005    1    3    3    0    0  0.90347606318E+02 -0.16059998955E+03 -0.51290082111E+02  0.19127655143E+03  0.99999687468E+00 0.  0.
          4    1    3    3  501    0 -0.13625755295E+03  0.16751158903E+03 -0.11516439573E+03  0.24472247800E+03  0.00000000000E+00 0.  1.
   -9000007    1    1    2    0  502  0.45909946629E+02 -0.69115994847E+01  0.19713963304E+03  0.44835201385E+03  0.40000000000E+03 0.  1.
<mgrwt>
<rscale>  2 0.40290183E+03</rscale>
<asrwt>0</asrwt>
<pdfrwt beam="1">  1       21 0.70387400E-01 0.40297402E+03</pdfrwt>
<pdfrwt beam="2">  1       21 0.65666606E-01 0.40297402E+03</pdfrwt>
<totfact> 0.34663568E+03</totfact>
</mgrwt>
</event>
<event>
 6    1  0.9502611E-004  0.6029274E+03  0.7818608E-02  0.9899548E-01
         21   -1    0    0  503  502  0.00000000000E+00  0.00000000000E+00  0.30397221470E+03  0.30397221470E+03  0.00000000000E+00 0.  1.
         21   -1    0    0  501  503 -0.00000000000E+00 -0.00000000000E+00 -0.12350309742E+04  0.12350309742E+04  0.00000000000E+00 0.  1.
    9000007    2    1    2  501    0 -0.42409776123E+03  0.15382634226E+03 -0.60367205231E+03  0.85292483280E+03  0.39942379625E+03 0.  0.
    9000005    1    3    3    0    0 -0.36804892088E+03 -0.66950675929E+02 -0.35547380847E+03  0.51604750718E+03  0.99999687468E+00 0.  0.
          4    1    3    3  501    0 -0.56048840346E+02  0.22077701819E+03 -0.24819824384E+03  0.33687732561E+03  0.00000000000E+00 0.  1.
   -9000007    1    1    2    0  502  0.42409776123E+03 -0.15382634226E+03 -0.32738670717E+03  0.68607835608E+03  0.40000000000E+03 0.  1.
<mgrwt>
<rscale>  2 0.60283185E+03</rscale>
<asrwt>0</asrwt>
<pdfrwt beam="1">  1       21 0.46764956E-01 0.60292740E+03</pdfrwt>
<pdfrwt beam="2">  1       21 0.19000477E+00 0.60292740E+03</pdfrwt>
<totfact> 0.53070294E+02</totfact>
</mgrwt>
</event>
<event>
 6    1  0.9502611E-004  0.4366957E+03  0.7818608E-02  0.1031903E+00
         21   -1    0    0  503  502  0.00000000000E+00  0.00000000000E+00  0.37270537625E+03  0.37270537625E+03  0.00000000000E+00 0.  1.
         21   -1    0    0  501  503 -0.00000000000E+00 -0.00000000000E+00 -0.12796554900E+04  0.12796554900E+04  0.00000000000E+00 0.  1.
    9000007    2    1    2  501    0 -0.14794732406E+03  0.85252227005E+02 -0.10947427994E+04  0.11786284042E+04  0.40192880629E+03 0.  0.
    9000005    1    3    3    0    0  0.79655678944E+02  0.75031339584E+02 -0.72420765971E+02  0.13122688919E+03  0.99999687468E+00 0.  0.
          4    1    3    3  501    0 -0.22760300301E+03  0.10220887421E+02 -0.10223220334E+04  0.10474015150E+04  0.00000000000E+00 0.  1.
   -9000007    1    1    2    0  502  0.14794732406E+03 -0.85252227005E+02  0.18779268562E+03  0.47373246213E+03  0.40000000000E+03 0.  1.
<mgrwt>
<rscale>  2 0.43625136E+03</rscale>
<asrwt>0</asrwt>
<pdfrwt beam="1">  1       21 0.57339290E-01 0.43669568E+03</pdfrwt>
<pdfrwt beam="2">  1       21 0.19687007E+00 0.43669568E+03</pdfrwt>
<totfact> 0.33045605E+02</totfact>
</mgrwt>
</event>
<event>
 6    1  0.9502611E-004  0.4194060E+03  0.7818608E-02  0.1037770E+00
         21   -1    0    0  503  502  0.00000000000E+00  0.00000000000E+00  0.26241613751E+03  0.26241613751E+03  0.00000000000E+00 0. -1.
         21   -1    0    0  501  503 -0.00000000000E+00 -0.00000000000E+00 -0.10358534290E+04  0.10358534290E+04  0.00000000000E+00 0.  1.
    9000007    2    1    2  501    0 -0.89961581143E+02 -0.88364663023E+02 -0.77566741721E+03  0.87885762918E+03  0.39348365975E+03 0.  0.
    9000005    1    3    3    0    0  0.74500185724E+02 -0.13474193100E+03 -0.64669803569E+03  0.66477440911E+03  0.99999687468E+00 0.  0.
          4    1    3    3  501    0 -0.16446176687E+03  0.46377267980E+02 -0.12896938151E+03  0.21408322007E+03  0.00000000000E+00 0.  1.
   -9000007    1    1    2    0  502  0.89961581143E+02  0.88364663023E+02  0.22301256688E+01  0.41941193738E+03  0.40000000000E+03 0. -1.
<mgrwt>
<rscale>  2 0.41784477E+03</rscale>
<asrwt>0</asrwt>
<pdfrwt beam="1">  1       21 0.40371714E-01 0.41940601E+03</pdfrwt>
<pdfrwt beam="2">  1       21 0.15936207E+00 0.41940601E+03</pdfrwt>
<totfact> 0.12911768E+03</totfact>
</mgrwt>
</event>
<event>
 6    1  0.9502611E-004  0.4125438E+03  0.7818608E-02  0.1039527E+00
         21   -1    0    0  503  502  0.00000000000E+00  0.00000000000E+00  0.10966144870E+04  0.10966144870E+04  0.00000000000E+00 0.  1.
         21   -1    0    0  501  503 -0.00000000000E+00 -0.00000000000E+00 -0.17442933882E+03  0.17442933882E+03  0.00000000000E+00 0.  1.
    9000007    2    1    2  501    0  0.80475644591E+02 -0.60483913511E+02  0.24996211490E+03  0.48236236945E+03  0.40007219775E+03 0.  0.
    9000005    1    3    3    0    0 -0.45290157698E+02 -0.18993000805E+03  0.22857372151E+03  0.30061861636E+03  0.99999687468E+00 0.  0.
          4    1    3    3  501    0  0.12576580229E+03  0.12944609454E+03  0.21388393392E+02  0.18174375309E+03  0.00000000000E+00 0.  1.
   -9000007    1    1    2    0  502 -0.80475644591E+02  0.60483913511E+02  0.67222303332E+03  0.78868145641E+03  0.40000000000E+03 0.  1.
<mgrwt>
<rscale>  2 0.41252631E+03</rscale>
<asrwt>0</asrwt>
<pdfrwt beam="1">  1       21 0.16870992E+00 0.41254381E+03</pdfrwt>
<pdfrwt beam="2">  1       21 0.26835284E-01 0.41254381E+03</pdfrwt>
<totfact> 0.25049446E+03</totfact>
</mgrwt>
</event>
<event>
 6    1  0.9502611E-004  0.4592598E+03  0.7818608E-02  0.1025026E+00
         21   -1    0    0  503  502  0.00000000000E+00  0.00000000000E+00  0.10255626160E+04  0.10255626160E+04  0.00000000000E+00 0. -1.
         21   -1    0    0  501  503 -0.00000000000E+00 -0.00000000000E+00 -0.46303413594E+03  0.46303413594E+03  0.00000000000E+00 0. -1.
    9000007    2    1    2  501    0  0.22563799907E+03 -0.26479045858E+01 -0.27389928104E+03  0.53437931469E+03  0.39952586624E+03 0.  0.
    9000005    1    3    3    0    0  0.66717366917E+02  0.19316607271E+03 -0.96214717051E+02  0.22588185067E+03  0.99999687468E+00 0.  0.
          4    1    3    3  501    0  0.15892063215E+03 -0.19581397729E+03 -0.17768456399E+03  0.30849746402E+03  0.00000000000E+00 0.  1.
   -9000007    1    1    2    0  502 -0.22563799907E+03  0.26479045858E+01  0.83642776106E+03  0.95421743722E+03  0.40000000000E+03 0. -1.
<mgrwt>
<rscale>  2 0.45915649E+03</rscale>
<asrwt>0</asrwt>
<pdfrwt beam="1">  1       21 0.15777886E+00 0.45925975E+03</pdfrwt>
<pdfrwt beam="2">  1       21 0.71236021E-01 0.45925975E+03</pdfrwt>
<totfact> 0.38369989E+02</totfact>
</mgrwt>
</event>
<event>
 6    1  0.9502611E-004  0.4070486E+03  0.7818608E-02  0.1041366E+00
         21   -1    0    0  503  502  0.00000000000E+00  0.00000000000E+00  0.22062557455E+04  0.22062557455E+04  0.00000000000E+00 0.  1.
         21   -1    0    0  501  503 -0.00000000000E+00 -0.00000000000E+00 -0.19877976776E+03  0.19877976776E+03  0.00000000000E+00 0.  1.
    9000007    2    1    2  501    0  0.73277443372E+02 -0.17859602881E+02  0.55197263903E+02  0.41077356317E+03  0.39999954141E+03 0.  0.
    9000005    1    3    3    0    0  0.58674266753E+02  0.95043813129E+02 -0.14345410686E+03  0.18181330194E+03  0.99999687468E+00 0.  0.
          4    1    3    3  501    0  0.14603176619E+02 -0.11290341601E+03  0.19865137076E+03  0.22896026123E+03  0.00000000000E+00 0.  1.
   -9000007    1    1    2    0  502 -0.73277443372E+02  0.17859602881E+02  0.19522787138E+04  0.19942619501E+04  0.40000000000E+03 0.  1.
<mgrwt>
<rscale>  2 0.40704847E+03</rscale>
<asrwt>0</asrwt>
<pdfrwt beam="1">  1       21 0.33942394E+00 0.40704858E+03</pdfrwt>
<pdfrwt beam="2">  1       21 0.30581504E-01 0.40704858E+03</pdfrwt>
<totfact> 0.16433212E+02</totfact>
</mgrwt>
</event>
<event>
 6    1  0.9502611E-004  0.4240596E+03  0.7818608E-02  0.1035789E+00
         21   -1    0    0  503  502  0.00000000000E+00  0.00000000000E+00  0.15797669759E+04  0.15797669759E+04  0.00000000000E+00 0.  1.
         21   -1    0    0  501  503 -0.00000000000E+00 -0.00000000000E+00 -0.21088124753E+03  0.21088124753E+03  0.00000000000E+00 0.  1.
    9000007    2    1    2  501    0 -0.11754417956E+03  0.75072901843E+02  0.76886049010E+02  0.43097335560E+03  0.40046721959E+03 0.  0.
    9000005    1    3    3    0    0  0.87961467466E+02 -0.24728000806E+02  0.16296700960E+03  0.18683666662E+03  0.99999687468E+00 0.  0.
          4    1    3    3  501    0 -0.20550564703E+03  0.99800902649E+02 -0.86080960591E+02  0.24413668898E+03  0.00000000000E+00 0.  1.
   -9000007    1    1    2    0  502  0.11754417956E+03 -0.75072901843E+02  0.12919996793E+04  0.13596748678E+04  0.40000000000E+03 0.  1.
<mgrwt>
<rscale>  2 0.42394929E+03</rscale>
<asrwt>0</asrwt>
<pdfrwt beam="1">  1       21 0.24304107E+00 0.42405963E+03</pdfrwt>
<pdfrwt beam="2">  1       21 0.32443270E-01 0.42405963E+03</pdfrwt>
<totfact> 0.55133857E+02</totfact>
</mgrwt>
</event>
<event>
 6    1  0.9502611E-004  0.4319838E+03  0.7818608E-02  0.1033252E+00
         21   -1    0    0  503  502  0.00000000000E+00  0.00000000000E+00  0.25741083635E+03  0.25741083635E+03  0.00000000000E+00 0. -1.
         21   -1    0    0  501  503 -0.00000000000E+00 -0.00000000000E+00 -0.73015665523E+03  0.73015665523E+03  0.00000000000E+00 0. -1.
    9000007    2    1    2  501    0  0.13486716741E+03 -0.90724954261E+02 -0.19328392293E+03  0.47325326714E+03  0.40023719196E+03 0.  0.
    9000005    1    3    3    0    0 -0.26841550769E+02 -0.20674440052E+03 -0.20133831938E+02  0.20945187318E+03  0.99999687468E+00 0.  0.
          4    1    3    3  501    0  0.16170871818E+03  0.11601944626E+03 -0.17315009099E+03  0.26380139396E+03  0.00000000000E+00 0.  1.
   -9000007    1    1    2    0  502 -0.13486716741E+03  0.90724954261E+02 -0.27946189596E+03  0.51431422444E+03  0.40000000000E+03 0. -1.
<mgrwt>
<rscale>  2 0.43192882E+03</rscale>
<asrwt>0</asrwt>
<pdfrwt beam="1">  1       21 0.39601668E-01 0.43198377E+03</pdfrwt>
<pdfrwt beam="2">  1       21 0.11233179E+00 0.43198377E+03</pdfrwt>
<totfact> 0.33410565E+03</totfact>
</mgrwt>
</event>
<event>
 6    1  0.9502611E-004  0.4155993E+03  0.7818608E-02  0.1038629E+00
         21   -1    0    0  503  502  0.00000000000E+00  0.00000000000E+00  0.38385835475E+03  0.38385835475E+03  0.00000000000E+00 0.  1.
         21   -1    0    0  501  503 -0.00000000000E+00 -0.00000000000E+00 -0.46601807240E+03  0.46601807240E+03  0.00000000000E+00 0.  1.
    9000007    2    1    2  501    0 -0.56915187687E+02 -0.97382901228E+02  0.41663006306E+02  0.41622353023E+03  0.39847641458E+03 0.  0.
    9000005    1    3    3    0    0 -0.67737582545E+01  0.60339077698E+02 -0.15069336350E+03  0.16246900596E+03  0.99999687468E+00 0.  0.
          4    1    3    3  501    0 -0.50141429432E+02 -0.15772197893E+03  0.19235636981E+03  0.25375452427E+03  0.00000000000E+00 0.  1.
   -9000007    1    1    2    0  502  0.56915187687E+02  0.97382901228E+02 -0.12382272396E+03  0.43365289692E+03  0.40000000000E+03 0.  1.
<mgrwt>
<rscale>  2 0.41523225E+03</rscale>
<asrwt>0</asrwt>
<pdfrwt beam="1">  1       21 0.59055132E-01 0.41559929E+03</pdfrwt>
<pdfrwt beam="2">  1       21 0.71695088E-01 0.41559929E+03</pdfrwt>
<totfact> 0.41805051E+03</totfact>
</mgrwt>
</event>
<event>
 6    1  0.9502611E-004  0.4961274E+03  0.7818608E-02  0.1014826E+00
         21   -1    0    0  503  502  0.00000000000E+00  0.00000000000E+00  0.26670432472E+03  0.26670432472E+03  0.00000000000E+00 0.  1.
         21   -1    0    0  501  503 -0.00000000000E+00 -0.00000000000E+00 -0.92204081817E+03  0.92204081817E+03  0.00000000000E+00 0. -1.
    9000007    2    1    2  501    0 -0.29254015579E+03  0.95537737119E+01 -0.33066490739E+03  0.59622285965E+03  0.40058881668E+03 0.  0.
    9000005    1    3    3    0    0 -0.27229019691E+03  0.16056308946E+03 -0.30950609462E+03  0.44239968313E+03  0.99999687468E+00 0.  0.
          4    1    3    3  501    0 -0.20249958883E+02 -0.15100931575E+03 -0.21158812764E+02  0.15382317652E+03  0.00000000000E+00 0.  1.
   -9000007    1    1    2    0  502  0.29254015579E+03 -0.95537737119E+01 -0.32467158606E+03  0.59252228324E+03  0.40000000000E+03 0.  1.
<mgrwt>
<rscale>  2 0.49600855E+03</rscale>
<asrwt>0</asrwt>
<pdfrwt beam="1">  1       21 0.41031435E-01 0.49612742E+03</pdfrwt>
<pdfrwt beam="2">  1       21 0.14185243E+00 0.49612742E+03</pdfrwt>
<totfact> 0.16616510E+03</totfact>
</mgrwt>
</event>
<event>
 6    1  0.9502611E-004  0.4330690E+03  0.7818608E-02  0.1033165E+00
         21   -1    0    0  503  502  0.00000000000E+00  0.00000000000E+00  0.11431870383E+04  0.11431870383E+04  0.00000000000E+00 0. -1.
         21   -1    0    0  501  503 -0.00000000000E+00 -0.00000000000E+00 -0.16282278869E+03  0.16282278869E+03  0.00000000000E+00 0.  1.
    9000007    2    1    2  501    0  0.30785663656E+02 -0.15372931459E+03  0.47900841892E+03  0.64575371892E+03  0.40369337480E+03 0.  0.
    9000005    1    3    3    0    0  0.10703567349E+03  0.85669214052E+02  0.32073461089E+03  0.34880874451E+03  0.99999687468E+00 0.  0.
          4    1    3    3  501    0 -0.76250009837E+02 -0.23939852864E+03  0.15827380803E+03  0.29694497440E+03  0.00000000000E+00 0.  1.
   -9000007    1    1    2    0  502 -0.30785663656E+02  0.15372931459E+03  0.50135583065E+03  0.66025610802E+03  0.40000000000E+03 0.  1.
<mgrwt>
<rscale>  2 0.43220628E+03</rscale>
<asrwt>0</asrwt>
<pdfrwt beam="1">  1       21 0.17587492E+00 0.43306905E+03</pdfrwt>
<pdfrwt beam="2">  1       21 0.25049661E-01 0.43306905E+03</pdfrwt>
<totfact> 0.25220474E+03</totfact>
</mgrwt>
</event>
<event>
 6    1  0.9502611E-004  0.4301643E+03  0.7818608E-02  0.1033809E+00
         21   -1    0    0  503  502  0.00000000000E+00  0.00000000000E+00  0.94058897918E+03  0.94058897918E+03  0.00000000000E+00 0.  1.
         21   -1    0    0  501  503 -0.00000000000E+00 -0.00000000000E+00 -0.21085802861E+03  0.21085802861E+03  0.00000000000E+00 0. -1.
    9000007    2    1    2  501    0  0.15285607852E+03 -0.40943051994E+02  0.51392978320E+03  0.67018672677E+03  0.39998139010E+03 0.  0.
    9000005    1    3    3    0    0  0.20500935386E+03  0.12877172388E+03  0.36734118777E+03  0.43994492868E+03  0.99999687468E+00 0.  0.
          4    1    3    3  501    0 -0.52153275338E+02 -0.16971477587E+03  0.14658859543E+03  0.23024179809E+03  0.00000000000E+00 0.  1.
   -9000007    1    1    2    0  502 -0.15285607852E+03  0.40943051994E+02  0.21580116737E+03  0.48126028102E+03  0.40000000000E+03 0. -1.
<mgrwt>
<rscale>  2 0.43015996E+03</rscale>
<asrwt>0</asrwt>
<pdfrwt beam="1">  1       21 0.14470599E+00 0.43016429E+03</pdfrwt>
<pdfrwt beam="2">  1       21 0.32439697E-01 0.43016429E+03</pdfrwt>
<totfact> 0.26063900E+03</totfact>
</mgrwt>
</event>
<event>
 6    1  0.9502611E-004  0.5250649E+03  0.7818608E-02  0.1007447E+00
         21   -1    0    0  503  502  0.00000000000E+00  0.00000000000E+00  0.20464042392E+03  0.20464042392E+03  0.00000000000E+00 0.  1.
         21   -1    0    0  501  503 -0.00000000000E+00 -0.00000000000E+00 -0.13650684553E+04  0.13650684553E+04  0.00000000000E+00 0.  1.
    9000007    2    1    2  501    0  0.96304628326E+02  0.32621862719E+03 -0.48916222601E+03  0.71748182284E+03  0.39975906318E+03 0.  0.
    9000005    1    3    3    0    0  0.87148624797E+02 -0.79743849866E+02 -0.12589999566E+03  0.17264348611E+03  0.99999687468E+00 0.  0.
          4    1    3    3  501    0  0.91560035289E+01  0.40596247705E+03 -0.36326223035E+03  0.54483833673E+03  0.00000000000E+00 0.  1.
   -9000007    1    1    2    0  502 -0.96304628326E+02 -0.32621862719E+03 -0.67126580539E+03  0.85222705640E+03  0.40000000000E+03 0.  1.
<mgrwt>
<rscale>  2 0.52501904E+03</rscale>
<asrwt>0</asrwt>
<pdfrwt beam="1">  1       21 0.31483143E-01 0.52506492E+03</pdfrwt>
<pdfrwt beam="2">  1       21 0.21001053E+00 0.52506492E+03</pdfrwt>
<totfact> 0.90506983E+02</totfact>
</mgrwt>
</event>
<event>
 6    1  0.9502611E-004  0.4521093E+03  0.7818608E-02  0.1027101E+00
         21   -1    0    0  503  502  0.00000000000E+00  0.00000000000E+00  0.11719341113E+04  0.11719341113E+04  0.00000000000E+00 0.  1.
         21   -1    0    0  501  503 -0.00000000000E+00 -0.00000000000E+00 -0.29843978361E+03  0.29843978361E+03  0.00000000000E+00 0.  1.
    9000007    2    1    2  501    0 -0.20839358199E+03  0.31223305033E+02 -0.37281570602E+02  0.45355753161E+03  0.39990216201E+03 0.  0.
    9000005    1    3    3    0    0 -0.78181498106E+02  0.16397638217E+03  0.11345660515E+03  0.21418216966E+03  0.99999687468E+00 0.  0.
          4    1    3    3  501    0 -0.13021208389E+03 -0.13275307714E+03 -0.15073817575E+03  0.23937536195E+03  0.00000000000E+00 0.  1.
   -9000007    1    1    2    0  502  0.20839358199E+03 -0.31223305033E+02  0.91077589833E+03  0.10168163634E+04  0.40000000000E+03 0.  1.
<mgrwt>
<rscale>  2 0.45208762E+03</rscale>
<asrwt>0</asrwt>
<pdfrwt beam="1">  1       21 0.18029755E+00 0.45210926E+03</pdfrwt>
<pdfrwt beam="2">  1       21 0.45913814E-01 0.45210926E+03</pdfrwt>
<totfact> 0.68510015E+02</totfact>
</mgrwt>
</event>
<event>
 6    1  0.9502611E-004  0.4161949E+03  0.7818608E-02  0.1038364E+00
         21   -1    0    0  503  502  0.00000000000E+00  0.00000000000E+00  0.10328743005E+04  0.10328743005E+04  0.00000000000E+00 0.  1.
         21   -1    0    0  501  503 -0.00000000000E+00 -0.00000000000E+00 -0.33298679417E+03  0.33298679417E+03  0.00000000000E+00 0.  1.
    9000007    2    1    2  501    0  0.37599538229E+02  0.10619434762E+03 -0.13143805771E+03  0.43645636142E+03  0.40065849257E+03 0.  0.
    9000005    1    3    3    0    0  0.17163881006E+01  0.25902239167E+03 -0.88060551449E+02  0.27358948461E+03  0.99999687468E+00 0.  0.
          4    1    3    3  501    0  0.35883150128E+02 -0.15282804405E+03 -0.43377506261E+02  0.16286687681E+03  0.00000000000E+00 0.  1.
   -9000007    1    1    2    0  502 -0.37599538229E+02 -0.10619434762E+03  0.83132556404E+03  0.92940473324E+03  0.40000000000E+03 0.  1.
<mgrwt>
<rscale>  2 0.41603634E+03</rscale>
<asrwt>0</asrwt>
<pdfrwt beam="1">  1       21 0.15890374E+00 0.41619490E+03</pdfrwt>
<pdfrwt beam="2">  1       21 0.51228738E-01 0.41619490E+03</pdfrwt>
<totfact> 0.79141390E+02</totfact>
</mgrwt>
</event>
<event>
 6    1  0.9502611E-004  0.4420003E+03  0.7818608E-02  0.1030169E+00
         21   -1    0    0  503  502  0.00000000000E+00  0.00000000000E+00  0.20552843593E+03  0.20552843593E+03  0.00000000000E+00 0. -1.
         21   -1    0    0  501  503 -0.00000000000E+00 -0.00000000000E+00 -0.98594254628E+03  0.98594254628E+03  0.00000000000E+00 0. -1.
    9000007    2    1    2  501    0  0.21909669553E+02 -0.18677322694E+03 -0.50440276804E+03  0.67036971278E+03  0.39951111059E+03 0.  0.
    9000005    1    3    3    0    0  0.97608733734E+02 -0.27506780521E+03 -0.22759550415E+03  0.37012224450E+03  0.99999687468E+00 0.  0.
          4    1    3    3  501    0 -0.75699064181E+02  0.88294578275E+02 -0.27680726389E+03  0.30024746829E+03  0.00000000000E+00 0.  1.
   -9000007    1    1    2    0  502 -0.21909669553E+02  0.18677322694E+03 -0.27601134231E+03  0.52110126943E+03  0.40000000000E+03 0. -1.
<mgrwt>
<rscale>  2 0.44188967E+03</rscale>
<asrwt>0</asrwt>
<pdfrwt beam="1">  1       21 0.31619760E-01 0.44200031E+03</pdfrwt>
<pdfrwt beam="2">  1       21 0.15168347E+00 0.44200031E+03</pdfrwt>
<totfact> 0.24042365E+03</totfact>
</mgrwt>
</event>
<event>
 6    1  0.9502611E-004  0.4630764E+03  0.7818608E-02  0.1024599E+00
         21   -1    0    0  503  502  0.00000000000E+00  0.00000000000E+00  0.67547350904E+03  0.67547350904E+03  0.00000000000E+00 0.  1.
         21   -1    0    0  501  503 -0.00000000000E+00 -0.00000000000E+00 -0.62532687917E+03  0.62532687917E+03  0.00000000000E+00 0. -1.
    9000007    2    1    2  501    0 -0.93070883574E+02 -0.19202872880E+03 -0.43602240574E+03  0.63604663437E+03  0.41097756718E+03 0.  0.
    9000005    1    3    3    0    0 -0.10195290263E+03 -0.31946009582E+03 -0.31584470131E+03  0.46066041995E+03  0.99999687468E+00 0.  0.
          4    1    3    3  501    0  0.88820190543E+01  0.12743136702E+03 -0.12017770443E+03  0.17538621441E+03  0.00000000000E+00 0.  1.
   -9000007    1    1    2    0  502  0.93070883574E+02  0.19202872880E+03  0.48616903562E+03  0.66475375384E+03  0.40000000000E+03 0.  1.
<mgrwt>
<rscale>  2 0.46062852E+03</rscale>
<asrwt>0</asrwt>
<pdfrwt beam="1">  1       21 0.10391900E+00 0.46307643E+03</pdfrwt>
<pdfrwt beam="2">  1       21 0.96204136E-01 0.46307643E+03</pdfrwt>
<totfact> 0.56205855E+02</totfact>
</mgrwt>
</event>
<event>
 6    1  0.9502611E-004  0.4224598E+03  0.7818608E-02  0.1036273E+00
         21   -1    0    0  503  502  0.00000000000E+00  0.00000000000E+00  0.53597696887E+03  0.53597696887E+03  0.00000000000E+00 0. -1.
         21   -1    0    0  501  503 -0.00000000000E+00 -0.00000000000E+00 -0.86980216981E+03  0.86980216981E+03  0.00000000000E+00 0. -1.
    9000007    2    1    2  501    0  0.85265527338E+02 -0.10583972913E+03 -0.71912230146E+03  0.83400460787E+03  0.39994317480E+03 0.  0.
    9000005    1    3    3    0    0  0.20736675809E+03 -0.84133475806E+02 -0.65943568589E+03  0.69637334666E+03  0.99999687468E+00 0.  0.
          4    1    3    3  501    0 -0.12210123075E+03 -0.21706253321E+02 -0.59686615571E+02  0.13763126121E+03  0.00000000000E+00 0.  1.
   -9000007    1    1    2    0  502 -0.85265527338E+02  0.10583972913E+03  0.38529710052E+03  0.57177453081E+03  0.40000000000E+03 0. -1.
<mgrwt>
<rscale>  2 0.42244632E+03</rscale>
<asrwt>0</asrwt>
<pdfrwt beam="1">  1       21 0.82457996E-01 0.42245977E+03</pdfrwt>
<pdfrwt beam="2">  1       21 0.13381572E+00 0.42245977E+03</pdfrwt>
<totfact> 0.43507189E+02</totfact>
</mgrwt>
</event>
<event>
 6    1  0.9502611E-004  0.4000187E+03  0.7818608E-02  0.1043783E+00
         21   -1    0    0  503  502  0.00000000000E+00  0.00000000000E+00  0.29690417808E+03  0.29690417808E+03  0.00000000000E+00 0. -1.
         21   -1    0    0  501  503 -0.00000000000E+00 -0.00000000000E+00 -0.60767006636E+03  0.60767006636E+03  0.00000000000E+00 0. -1.
    9000007    2    1    2  501    0 -0.36317689243E+01  0.13339397013E+01 -0.30763697733E+03  0.50454329660E+03  0.39988555761E+03 0.  0.
    9000005    1    3    3    0    0 -0.48550742360E+02 -0.10918526167E+03 -0.35622176873E+03  0.37573068075E+03  0.99999687468E+00 0.  0.
          4    1    3    3  501    0  0.44918973436E+02  0.11051920138E+03  0.48584791391E+02  0.12881261585E+03  0.00000000000E+00 0.  1.
   -9000007    1    1    2    0  502  0.36317689243E+01 -0.13339397013E+01 -0.31289109465E+01  0.40003094783E+03  0.40000000000E+03 0. -1.
<mgrwt>
<rscale>  2 0.39999010E+03</rscale>
<asrwt>0</asrwt>
<pdfrwt beam="1">  1       21 0.45677566E-01 0.40001871E+03</pdfrwt>
<pdfrwt beam="2">  1       21 0.93487703E-01 0.40001871E+03</pdfrwt>
<totfact> 0.39353319E+03</totfact>
</mgrwt>
</event>
<event>
 6    1  0.9502611E-004  0.5164556E+03  0.7818608E-02  0.1009597E+00
         21   -1    0    0  503  502  0.00000000000E+00  0.00000000000E+00  0.10414126024E+04  0.10414126024E+04  0.00000000000E+00 0.  1.
         21   -1    0    0  501  503 -0.00000000000E+00 -0.00000000000E+00 -0.25619696913E+03  0.25619696913E+03  0.00000000000E+00 0.  1.
    9000007    2    1    2  501    0  0.32231510108E+03  0.49000634609E+02  0.37102921994E+03  0.63591593279E+03  0.40054750648E+03 0.  0.
    9000005    1    3    3    0    0  0.94826418699E+02 -0.16885937989E+03  0.89060983265E+02  0.21316284525E+03  0.99999687468E+00 0.  0.
          4    1    3    3  501    0  0.22748868238E+03  0.21786001450E+03  0.28196823667E+03  0.42275308754E+03  0.00000000000E+00 0.  1.
   -9000007    1    1    2    0  502 -0.32231510108E+03 -0.49000634609E+02  0.41418641337E+03  0.66169363878E+03  0.40000000000E+03 0.  1.
<mgrwt>
<rscale>  2 0.51634944E+03</rscale>
<asrwt>0</asrwt>
<pdfrwt beam="1">  1       21 0.16021732E+00 0.51645560E+03</pdfrwt>
<pdfrwt beam="2">  1       21 0.39414919E-01 0.51645560E+03</pdfrwt>
<totfact> 0.12848575E+03</totfact>
</mgrwt>
</event>
<event>
 6    1  0.9502611E-004  0.4003466E+03  0.7818608E-02  0.1043704E+00
         21   -1    0    0  503  502  0.00000000000E+00  0.00000000000E+00  0.15810884460E+03  0.15810884460E+03  0.00000000000E+00 0. -1.
         21   -1    0    0  501  503 -0.00000000000E+00 -0.00000000000E+00 -0.15474219661E+04  0.15474219661E+04  0.00000000000E+00 0. -1.
    9000007    2    1    2  501    0  0.14777759932E+02 -0.76828846589E+01 -0.11957868557E+04  0.12608625923E+04  0.39948825194E+03 0.  0.
    9000005    1    3    3    0    0 -0.25221278019E+02 -0.58425324474E+02 -0.11945443165E+04  0.11962385864E+04  0.99999687468E+00 0.  0.
          4    1    3    3  501    0  0.39999037951E+02  0.50742439815E+02 -0.12425391776E+01  0.64624005903E+02  0.00000000000E+00 0.  1.
   -9000007    1    1    2    0  502 -0.14777759932E+02  0.76828846589E+01 -0.19352626578E+03  0.44466821840E+03  0.40000000000E+03 0. -1.
<mgrwt>
<rscale>  2 0.40021872E+03</rscale>
<asrwt>0</asrwt>
<pdfrwt beam="1">  1       21 0.24324437E-01 0.40034661E+03</pdfrwt>
<pdfrwt beam="2">  1       21 0.23806492E+00 0.40034661E+03</pdfrwt>
<totfact> 0.10569558E+03</totfact>
</mgrwt>
</event>
<event>
 6    1  0.9502611E-004  0.4679281E+03  0.7818608E-02  0.1022733E+00
         21   -1    0    0  503  502  0.00000000000E+00  0.00000000000E+00  0.53663250940E+03  0.53663250940E+03  0.00000000000E+00 0. -1.
         21   -1    0    0  501  503 -0.00000000000E+00 -0.00000000000E+00 -0.60920573340E+03  0.60920573340E+03  0.00000000000E+00 0. -1.
    9000007    2    1    2  501    0 -0.63403622205E+02 -0.23438578914E+03 -0.36769453295E+03  0.59261739679E+03  0.39628196018E+03 0.  0.
    9000005    1    3    3    0    0 -0.16452453383E+03 -0.29382771434E+03 -0.32438756471E+03  0.46758030335E+03  0.99999687468E+00 0.  0.
          4    1    3    3  501    0  0.10112091162E+03  0.59441925201E+02 -0.43306968237E+02  0.12503709345E+03  0.00000000000E+00 0.  1.
   -9000007    1    1    2    0  502  0.63403622205E+02  0.23438578914E+03  0.29512130895E+03  0.55322084601E+03  0.40000000000E+03 0. -1.
<mgrwt>
<rscale>  2 0.46713251E+03</rscale>
<asrwt>0</asrwt>
<pdfrwt beam="1">  1       21 0.82558847E-01 0.46792811E+03</pdfrwt>
<pdfrwt beam="2">  1       21 0.93723959E-01 0.46792811E+03</pdfrwt>
<totfact> 0.10346272E+03</totfact>
</mgrwt>
</event>
<event>
 6    1  0.9502611E-004  0.4513553E+03  0.7818608E-02  0.1027328E+00
         21   -1    0    0  503  502  0.00000000000E+00  0.00000000000E+00  0.18093985663E+04  0.18093985663E+04  0.00000000000E+00 0.  1.
         21   -1    0    0  501  503 -0.00000000000E+00 -0.00000000000E+00 -0.12995174134E+03  0.12995174134E+03  0.00000000000E+00 0.  1.
    9000007    2    1    2  501    0 -0.18155815450E+03  0.10315071915E+03  0.48507268244E+03  0.66258367797E+03  0.40014770864E+03 0.  0.
    9000005    1    3    3    0    0  0.14660954149E+02  0.18726217358E+03  0.38163774446E+03  0.42535918143E+03  0.99999687468E+00 0.  0.
          4    1    3    3  501    0 -0.19621910865E+03 -0.84111454430E+02  0.10343493798E+03  0.23722449654E+03  0.00000000000E+00 0.  1.
   -9000007    1    1    2    0  502  0.18155815450E+03 -0.10315071915E+03  0.11943741425E+04  0.12767666296E+04  0.40000000000E+03 0.  1.
<mgrwt>
<rscale>  2 0.45132258E+03</rscale>
<asrwt>0</asrwt>
<pdfrwt beam="1">  1       21 0.27836899E+00 0.45135532E+03</pdfrwt>
<pdfrwt beam="2">  1       21 0.19992577E-01 0.45135532E+03</pdfrwt>
<totfact> 0.85136601E+02</totfact>
</mgrwt>
</event>
<event>
 6    1  0.9502611E-004  0.6115680E+03  0.7818608E-02  0.9881720E-01
         21   -1    0    0  503  502  0.00000000000E+00  0.00000000000E+00  0.59747448191E+03  0.59747448191E+03  0.00000000000E+00 0. -1.
         21   -1    0    0  501  503 -0.00000000000E+00 -0.00000000000E+00 -0.78405095743E+03  0.78405095743E+03  0.00000000000E+00 0.  1.
    9000007    2    1    2  501    0  0.43355703714E+03 -0.16138054249E+03 -0.40348358561E+03  0.73263093455E+03  0.39991711448E+03 0.  0.
    9000005    1    3    3    0    0  0.32954803650E+03 -0.29119046429E+03 -0.24766751800E+03  0.50471179333E+03  0.99999687468E+00 0.  0.
          4    1    3    3  501    0  0.10400900063E+03  0.12980992180E+03 -0.15581606761E+03  0.22791914122E+03  0.00000000000E+00 0.  1.
   -9000007    1    1    2    0  502 -0.43355703714E+03  0.16138054249E+03  0.21690711010E+03  0.64889450480E+03  0.40000000000E+03 0. -1.
<mgrwt>
<rscale>  2 0.61155442E+03</rscale>
<asrwt>0</asrwt>
<pdfrwt beam="1">  1       21 0.91919151E-01 0.61156797E+03</pdfrwt>
<pdfrwt beam="2">  1       21 0.12062322E+00 0.61156797E+03</pdfrwt>
<totfact> 0.40813059E+02</totfact>
</mgrwt>
</event>
<event>
 6    1  0.9502611E-004  0.6481704E+03  0.7818608E-02  0.9810313E-01
         21   -1    0    0  503  502  0.00000000000E+00  0.00000000000E+00  0.10890885101E+04  0.10890885101E+04  0.00000000000E+00 0. -1.
         21   -1    0    0  501  503 -0.00000000000E+00 -0.00000000000E+00 -0.50255106416E+03  0.50255106416E+03  0.00000000000E+00 0.  1.
    9000007    2    1    2  501    0  0.47131071445E+03 -0.19424404171E+03  0.67714769056E+03  0.93736535521E+03  0.40032521407E+03 0.  0.
    9000005    1    3    3    0    0  0.43820520447E+03 -0.21780105421E+03  0.72493549492E+03  0.87463910971E+03  0.99999687468E+00 0.  0.
          4    1    3    3  501    0  0.33105509983E+02  0.23557012500E+02 -0.47787804362E+02  0.62726245503E+02  0.00000000000E+00 0.  1.
   -9000007    1    1    2    0  502 -0.47131071445E+03  0.19424404171E+03 -0.90610244613E+02  0.65427421906E+03  0.40000000000E+03 0.  1.
<mgrwt>
<rscale>  2 0.64812015E+03</rscale>
<asrwt>0</asrwt>
<pdfrwt beam="1">  1       21 0.16755208E+00 0.64817036E+03</pdfrwt>
<pdfrwt beam="2">  1       21 0.77315549E-01 0.64817036E+03</pdfrwt>
<totfact> 0.24908494E+02</totfact>
</mgrwt>
</event>
<event>
 6    1  0.9502611E-004  0.4984849E+03  0.7818608E-02  0.1014184E+00
         21   -1    0    0  503  502  0.00000000000E+00  0.00000000000E+00  0.30074833100E+03  0.30074833100E+03  0.00000000000E+00 0.  1.
         21   -1    0    0  501  503 -0.00000000000E+00 -0.00000000000E+00 -0.12464764806E+04  0.12464764806E+04  0.00000000000E+00 0. -1.
    9000007    2    1    2  501    0 -0.67620726318E+02  0.28968022862E+03 -0.92213174226E+03  0.10481817394E+04  0.39983848147E+03 0.  0.
    9000005    1    3    3    0    0  0.55488577990E+02  0.22195080549E+03 -0.86793413917E+03  0.89758108953E+03  0.99999687468E+00 0.  0.
          4    1    3    3  501    0 -0.12310930431E+03  0.67729423123E+02 -0.54197603093E+02  0.15060064988E+03  0.00000000000E+00 0.  1.
   -9000007    1    1    2    0  502  0.67620726318E+02 -0.28968022862E+03 -0.23596407360E+02  0.49904307221E+03  0.40000000000E+03 0.  1.
<mgrwt>
<rscale>  2 0.49845250E+03</rscale>
<asrwt>0</asrwt>
<pdfrwt beam="1">  1       21 0.46268973E-01 0.49848490E+03</pdfrwt>
<pdfrwt beam="2">  1       21 0.19176562E+00 0.49848490E+03</pdfrwt>
<totfact> 0.54971588E+02</totfact>
</mgrwt>
</event>
<event>
 6    1  0.9502611E-004  0.4088323E+03  0.7818608E-02  0.1040805E+00
         21   -1    0    0  503  502  0.00000000000E+00  0.00000000000E+00  0.44049022426E+03  0.44049022426E+03  0.00000000000E+00 0. -1.
         21   -1    0    0  501  503 -0.00000000000E+00 -0.00000000000E+00 -0.42993490153E+03  0.42993490153E+03  0.00000000000E+00 0. -1.
    9000007    2    1    2  501    0 -0.44916944253E+02 -0.71598175502E+02 -0.14453255963E+03  0.43316538391E+03  0.39949813318E+03 0.  0.
    9000005    1    3    3    0    0 -0.16344512071E+03 -0.98148929823E+02 -0.21925737283E+03  0.29055518485E+03  0.99999687468E+00 0.  0.
          4    1    3    3  501    0  0.11852817646E+03  0.26550754322E+02  0.74724813201E+02  0.14261019906E+03  0.00000000000E+00 0.  1.
   -9000007    1    1    2    0  502  0.44916944253E+02  0.71598175502E+02  0.15508788236E+03  0.43725974188E+03  0.40000000000E+03 0. -1.
<mgrwt>
<rscale>  2 0.40870947E+03</rscale>
<asrwt>0</asrwt>
<pdfrwt beam="1">  1       21 0.67767726E-01 0.40883228E+03</pdfrwt>
<pdfrwt beam="2">  1       21 0.66143831E-01 0.40883228E+03</pdfrwt>
<totfact> 0.37051701E+03</totfact>
</mgrwt>
</event>
<event>
 6    1  0.9502611E-004  0.4067086E+03  0.7818608E-02  0.1041486E+00
         21   -1    0    0  503  502  0.00000000000E+00  0.00000000000E+00  0.40530909538E+03  0.40530909538E+03  0.00000000000E+00 0. -1.
         21   -1    0    0  501  503 -0.00000000000E+00 -0.00000000000E+00 -0.44861125227E+03  0.44861125227E+03  0.00000000000E+00 0. -1.
    9000007    2    1    2  501    0  0.14560624763E+02  0.72109887451E+02 -0.15003071652E+03  0.43344105791E+03  0.39993760403E+03 0.  0.
    9000005    1    3    3    0    0 -0.73233244750E+02  0.54092365368E+02 -0.26928617561E+03  0.28426244299E+03  0.99999687468E+00 0.  0.
          4    1    3    3  501    0  0.87793869513E+02  0.18017522083E+02  0.11925545909E+03  0.14917861492E+03  0.00000000000E+00 0.  1.
   -9000007    1    1    2    0  502 -0.14560624763E+02 -0.72109887451E+02  0.10672855963E+03  0.42047928974E+03  0.40000000000E+03 0. -1.
<mgrwt>
<rscale>  2 0.40669321E+03</rscale>
<asrwt>0</asrwt>
<pdfrwt beam="1">  1       21 0.62355246E-01 0.40670855E+03</pdfrwt>
<pdfrwt beam="2">  1       21 0.69017116E-01 0.40670855E+03</pdfrwt>
<totfact> 0.40559289E+03</totfact>
</mgrwt>
</event>
<event>
 6    1  0.9502611E-004  0.4257154E+03  0.7818608E-02  0.1035263E+00
         21   -1    0    0  503  502  0.00000000000E+00  0.00000000000E+00  0.53888350633E+03  0.53888350633E+03  0.00000000000E+00 0. -1.
         21   -1    0    0  501  503 -0.00000000000E+00 -0.00000000000E+00 -0.94259327632E+03  0.94259327632E+03  0.00000000000E+00 0. -1.
    9000007    2    1    2  501    0 -0.77327659390E+02  0.12172820784E+03 -0.79616892818E+03  0.90283914617E+03  0.40054492654E+03 0.  0.
    9000005    1    3    3    0    0  0.56652717335E+01 -0.63967526515E+02 -0.64804916458E+03  0.65122397027E+03  0.99999687468E+00 0.  0.
          4    1    3    3  501    0 -0.82992931123E+02  0.18569573436E+03 -0.14811976360E+03  0.25161517590E+03  0.00000000000E+00 0.  1.
   -9000007    1    1    2    0  502  0.77327659390E+02 -0.12172820784E+03  0.39245915819E+03  0.57863763647E+03  0.40000000000E+03 0. -1.
<mgrwt>
<rscale>  2 0.42558713E+03</rscale>
<asrwt>0</asrwt>
<pdfrwt beam="1">  1       21 0.82905155E-01 0.42571535E+03</pdfrwt>
<pdfrwt beam="2">  1       21 0.14501435E+00 0.42571535E+03</pdfrwt>
<totfact> 0.34669498E+02</totfact>
</mgrwt>
</event>
<event>
 6    1  0.9502611E-004  0.4849264E+03  0.7818608E-02  0.1017790E+00
         21   -1    0    0  503  502  0.00000000000E+00  0.00000000000E+00  0.10811431107E+04  0.10811431107E+04  0.00000000000E+00 0. -1.
         21   -1    0    0  501  503 -0.00000000000E+00 -0.00000000000E+00 -0.24602125873E+03  0.24602125873E+03  0.00000000000E+00 0. -1.
    9000007    2    1    2  501    0 -0.23821459842E+03 -0.13565073996E+03  0.19163028493E+03  0.52141706723E+03  0.40000784210E+03 0.  0.
    9000005    1    3    3    0    0  0.42327699012E+02  0.27962226083E+00 -0.91166671363E+02  0.10051902434E+03  0.99999687468E+00 0.  0.
          4    1    3    3  501    0 -0.28054229743E+03 -0.13593036222E+03  0.28279695630E+03  0.42089804290E+03  0.00000000000E+00 0.  1.
   -9000007    1    1    2    0  502  0.23821459842E+03  0.13565073996E+03  0.64349156699E+03  0.80574730216E+03  0.40000000000E+03 0. -1.
<mgrwt>
<rscale>  2 0.48492476E+03</rscale>
<asrwt>0</asrwt>
<pdfrwt beam="1">  1       21 0.16632971E+00 0.48492638E+03</pdfrwt>
<pdfrwt beam="2">  1       21 0.37849425E-01 0.48492638E+03</pdfrwt>
<totfact> 0.12716277E+03</totfact>
</mgrwt>
</event>
<event>
 6    1  0.9502611E-004  0.5301104E+03  0.7818608E-02  0.1006261E+00
         21   -1    0    0  503  502  0.00000000000E+00  0.00000000000E+00  0.59269737717E+03  0.59269737717E+03  0.00000000000E+00 0.  1.
         21   -1    0    0  501  503 -0.00000000000E+00 -0.00000000000E+00 -0.56212271042E+03  0.56212271042E+03  0.00000000000E+00 0.  1.
    9000007    2    1    2  501    0 -0.28379699510E+03  0.19875216399E+03 -0.21421324638E+03  0.57175552895E+03  0.40121554413E+03 0.  0.
    9000005    1    3    3    0    0 -0.53182230884E+02  0.50783418684E+02  0.11928438289E+03  0.14013232778E+03  0.99999687468E+00 0.  0.
          4    1    3    3  501    0 -0.23061476422E+03  0.14796874531E+03 -0.33349762927E+03  0.43162320117E+03  0.00000000000E+00 0.  1.
   -9000007    1    1    2    0  502  0.28379699510E+03 -0.19875216399E+03  0.24478791313E+03  0.58306455863E+03  0.40000000000E+03 0.  1.
<mgrwt>
<rscale>  2 0.52988043E+03</rscale>
<asrwt>0</asrwt>
<pdfrwt beam="1">  1       21 0.91184212E-01 0.53011043E+03</pdfrwt>
<pdfrwt beam="2">  1       21 0.86480417E-01 0.53011043E+03</pdfrwt>
<totfact> 0.96851174E+02</totfact>
</mgrwt>
</event>
<event>
 6    1  0.9502611E-004  0.4517867E+03  0.7818608E-02  0.1027235E+00
         21   -1    0    0  503  502  0.00000000000E+00  0.00000000000E+00  0.19677093061E+03  0.19677093061E+03  0.00000000000E+00 0.  1.
         21   -1    0    0  501  503 -0.00000000000E+00 -0.00000000000E+00 -0.14949434466E+04  0.14949434466E+04  0.00000000000E+00 0.  1.
    9000007    2    1    2  501    0  0.17275531568E+03  0.11717002946E+03 -0.11180824157E+04  0.12059102407E+04  0.40067194226E+03 0.  0.
    9000005    1    3    3    0    0  0.22203518645E+03  0.68644195563E+02 -0.27524266474E+03  0.36023766335E+03  0.99999687468E+00 0.  0.
          4    1    3    3  501    0 -0.49279870761E+02  0.48525833899E+02 -0.84283975095E+03  0.84567257731E+03  0.00000000000E+00 0.  1.
   -9000007    1    1    2    0  502 -0.17275531568E+03 -0.11717002946E+03 -0.18009010033E+03  0.48580413660E+03  0.40000000000E+03 0.  1.
<mgrwt>
<rscale>  2 0.45163767E+03</rscale>
<asrwt>0</asrwt>
<pdfrwt beam="1">  1       21 0.30272450E-01 0.45178670E+03</pdfrwt>
<pdfrwt beam="2">  1       21 0.22999131E+00 0.45178670E+03</pdfrwt>
<totfact> 0.75246789E+02</totfact>
</mgrwt>
</event>
<event>
 6    1  0.9502611E-004  0.5151632E+03  0.7818608E-02  0.1009899E+00
         21   -1    0    0  503  502  0.00000000000E+00  0.00000000000E+00  0.15110723467E+04  0.15110723467E+04  0.00000000000E+00 0. -1.
         21   -1    0    0  501  503 -0.00000000000E+00 -0.00000000000E+00 -0.17563243444E+03  0.17563243444E+03  0.00000000000E+00 0. -1.
    9000007    2    1    2  501    0  0.42196433817E+02  0.32179135708E+03  0.65854915895E+03  0.83611010184E+03  0.40007860618E+03 0.  0.
    9000005    1    3    3    0    0 -0.37870061974E+02 -0.84052459858E+02  0.65714584870E+02  0.11321821523E+03  0.99999687468E+00 0.  0.
          4    1    3    3  501    0  0.80066495791E+02  0.40584381694E+03  0.59283457408E+03  0.72289188660E+03  0.00000000000E+00 0.  1.
   -9000007    1    1    2    0  502 -0.42196433817E+02 -0.32179135708E+03  0.67689075329E+03  0.85059467928E+03  0.40000000000E+03 0.  1.
<mgrwt>
<rscale>  2 0.51514792E+03</rscale>
<asrwt>0</asrwt>
<pdfrwt beam="1">  1       21 0.23247266E+00 0.51516319E+03</pdfrwt>
<pdfrwt beam="2">  1       21 0.27020376E-01 0.51516319E+03</pdfrwt>
<totfact> 0.88295095E+02</totfact>
</mgrwt>
</event>
<event>
 6    1  0.9502611E-004  0.5809456E+03  0.7818608E-02  0.9946110E-01
         21   -1    0    0  503  502  0.00000000000E+00  0.00000000000E+00  0.37180752392E+03  0.37180752392E+03  0.00000000000E+00 0. -1.
         21   -1    0    0  501  503 -0.00000000000E+00 -0.00000000000E+00 -0.11274472165E+04  0.11274472165E+04  0.00000000000E+00 0. -1.
    9000007    2    1    2  501    0  0.22975801913E+03  0.35314170526E+03 -0.70936576431E+03  0.91646911273E+03  0.39902134738E+03 0.  0.
    9000005    1    3    3    0    0  0.61303744317E+02  0.37149807909E+03 -0.61875694710E+03  0.72431355877E+03  0.99999687468E+00 0.  0.
          4    1    3    3  501    0  0.16845427481E+03 -0.18356373834E+02 -0.90608817212E+02  0.19215555396E+03  0.00000000000E+00 0.  1.
   -9000007    1    1    2    0  502 -0.22975801913E+03 -0.35314170526E+03 -0.46273928221E+02  0.58278562764E+03  0.40000000000E+03 0. -1.
<mgrwt>
<rscale>  2 0.58077719E+03</rscale>
<asrwt>0</asrwt>
<pdfrwt beam="1">  1       21 0.57201159E-01 0.58094562E+03</pdfrwt>
<pdfrwt beam="2">  1       21 0.17345341E+00 0.58094562E+03</pdfrwt>
<totfact> 0.45436717E+02</totfact>
</mgrwt>
</event>
<event>
 6    1  0.9502611E-004  0.5050952E+03  0.7818608E-02  0.1012478E+00
         21   -1    0    0  503  502  0.00000000000E+00  0.00000000000E+00  0.78675497723E+03  0.78675497723E+03  0.00000000000E+00 0.  1.
         21   -1    0    0  501  503 -0.00000000000E+00 -0.00000000000E+00 -0.37400744111E+03  0.37400744111E+03  0.00000000000E+00 0. -1.
    9000007    2    1    2  501    0  0.11620038143E+03  0.28568980348E+03 -0.57680369137E+01  0.50480778780E+03  0.39959534522E+03 0.  0.
    9000005    1    3    3    0    0  0.15566942002E+03  0.36639147794E+03  0.46620709569E+02  0.40081189353E+03  0.99999687468E+00 0.  0.
          4    1    3    3  501    0 -0.39469038592E+02 -0.80701674460E+02 -0.52388746483E+02  0.10399589428E+03  0.00000000000E+00 0.  1.
   -9000007    1    1    2    0  502 -0.11620038143E+03 -0.28568980348E+03  0.41851557303E+03  0.65595463054E+03  0.40000000000E+03 0.  1.
<mgrwt>
<rscale>  2 0.50501511E+03</rscale>
<asrwt>0</asrwt>
<pdfrwt beam="1">  1       21 0.12103923E+00 0.50509523E+03</pdfrwt>
<pdfrwt beam="2">  1       21 0.57539607E-01 0.50509523E+03</pdfrwt>
<totfact> 0.12226863E+03</totfact>
</mgrwt>
</event>
<event>
 6    1  0.9502611E-004  0.4035364E+03  0.7818608E-02  0.1042615E+00
         21   -1    0    0  503  502  0.00000000000E+00  0.00000000000E+00  0.40992993306E+03  0.40992993306E+03  0.00000000000E+00 0.  1.
         21   -1    0    0  501  503 -0.00000000000E+00 -0.00000000000E+00 -0.40294526496E+03  0.40294526496E+03  0.00000000000E+00 0.  1.
    9000007    2    1    2  501    0  0.38612671053E+02 -0.36752235799E+02 -0.47356689733E+02  0.40569630812E+03  0.39938098748E+03 0.  0.
    9000005    1    3    3    0    0 -0.61360534752E+02  0.10997786725E+03  0.11093256614E+03  0.16783110776E+03  0.99999687468E+00 0.  0.
          4    1    3    3  501    0  0.99973205804E+02 -0.14673010305E+03 -0.15828925587E+03  0.23786520036E+03  0.00000000000E+00 0.  1.
   -9000007    1    1    2    0  502 -0.38612671053E+02  0.36752235799E+02  0.54341357833E+02  0.40717888989E+03  0.40000000000E+03 0.  1.
<mgrwt>
<rscale>  2 0.40338297E+03</rscale>
<asrwt>0</asrwt>
<pdfrwt beam="1">  1       21 0.63066144E-01 0.40353645E+03</pdfrwt>
<pdfrwt beam="2">  1       21 0.61991579E-01 0.40353645E+03</pdfrwt>
<totfact> 0.50262491E+03</totfact>
</mgrwt>
</event>
<event>
 6    1  0.9502611E-004  0.4022131E+03  0.7818608E-02  0.1043021E+00
         21   -1    0    0  503  502  0.00000000000E+00  0.00000000000E+00  0.12527762209E+04  0.12527762209E+04  0.00000000000E+00 0.  1.
         21   -1    0    0  501  503 -0.00000000000E+00 -0.00000000000E+00 -0.19628253893E+03  0.19628253893E+03  0.00000000000E+00 0.  1.
    9000007    2    1    2  501    0  0.16277653843E+01 -0.41507789250E+02  0.10443612904E+03  0.41555059329E+03  0.40006230058E+03 0.  0.
    9000005    1    3    3    0    0  0.11075949300E+03 -0.12850225246E+03 -0.77281333763E+02  0.18642397570E+03  0.99999687468E+00 0.  0.
          4    1    3    3  501    0 -0.10913172761E+03  0.86994463207E+02  0.18171746280E+03  0.22912661759E+03  0.00000000000E+00 0.  1.
   -9000007    1    1    2    0  502 -0.16277653843E+01  0.41507789250E+02  0.95205755291E+03  0.10335081665E+04  0.40000000000E+03 0. -1.
<mgrwt>
<rscale>  2 0.40219762E+03</rscale>
<asrwt>0</asrwt>
<pdfrwt beam="1">  1       21 0.19273480E+00 0.40221312E+03</pdfrwt>
<pdfrwt beam="2">  1       21 0.30197314E-01 0.40221312E+03</pdfrwt>
<totfact> 0.13534793E+03</totfact>
</mgrwt>
</event>
<event>
 6    1  0.9502611E-004  0.4518410E+03  0.7818608E-02  0.1027182E+00
         21   -1    0    0  503  502  0.00000000000E+00  0.00000000000E+00  0.17698114159E+03  0.17698114159E+03  0.00000000000E+00 0. -1.
         21   -1    0    0  501  503 -0.00000000000E+00 -0.00000000000E+00 -0.11849139325E+04  0.11849139325E+04  0.00000000000E+00 0. -1.
    9000007    2    1    2  501    0 -0.18546227060E+03 -0.98813278148E+02 -0.39268027145E+03  0.59854981768E+03  0.39987969555E+03 0.  0.
    9000005    1    3    3    0    0 -0.21956555938E+03  0.53598707853E+02 -0.37964062648E+03  0.44182560091E+03  0.99999687468E+00 0.  0.
          4    1    3    3  501    0  0.34103288785E+02 -0.15241198600E+03 -0.13039644962E+02  0.15672421677E+03  0.00000000000E+00 0.  1.
   -9000007    1    1    2    0  502  0.18546227060E+03  0.98813278148E+02 -0.61525251945E+03  0.76334525639E+03  0.40000000000E+03 0. -1.
<mgrwt>
<rscale>  2 0.45181440E+03</rscale>
<asrwt>0</asrwt>
<pdfrwt beam="1">  1       21 0.27227869E-01 0.45184103E+03</pdfrwt>
<pdfrwt beam="2">  1       21 0.18229445E+00 0.45184103E+03</pdfrwt>
<totfact> 0.19152591E+03</totfact>
</mgrwt>
</event>
<event>
 6    1  0.9502611E-004  0.4173018E+03  0.7818608E-02  0.1037982E+00
         21   -1    0    0  503  502  0.00000000000E+00  0.00000000000E+00  0.34604051572E+03  0.34604051572E+03  0.00000000000E+00 0.  1.
         21   -1    0    0  501  503 -0.00000000000E+00 -0.00000000000E+00 -0.51042128573E+03  0.51042128573E+03  0.00000000000E+00 0.  1.
    9000007    2    1    2  501    0 -0.98755893366E+02 -0.63608526464E+02 -0.13474971584E+03  0.43851829990E+03  0.40042732463E+03 0.  0.
    9000005    1    3    3    0    0 -0.15146509746E+03  0.14042657727E+03 -0.64561141263E+02  0.21640342027E+03  0.99999687468E+00 0.  0.
          4    1    3    3  501    0  0.52709204092E+02 -0.20403510373E+03 -0.70188574581E+02  0.22211487963E+03  0.00000000000E+00 0.  1.
   -9000007    1    1    2    0  502  0.98755893366E+02  0.63608526464E+02 -0.29631054170E+02  0.41794350155E+03  0.40000000000E+03 0.  1.
<mgrwt>
<rscale>  2 0.41719928E+03</rscale>
<asrwt>0</asrwt>
<pdfrwt beam="1">  1       21 0.53237002E-01 0.41730183E+03</pdfrwt>
<pdfrwt beam="2">  1       21 0.78526352E-01 0.41730183E+03</pdfrwt>
<totfact> 0.42496253E+03</totfact>
</mgrwt>
</event>
<event>
 6    1  0.9502611E-004  0.4410562E+03  0.7818608E-02  0.1030444E+00
         21   -1    0    0  503  502  0.00000000000E+00  0.00000000000E+00  0.39762850920E+03  0.39762850920E+03  0.00000000000E+00 0. -1.
         21   -1    0    0  501  503 -0.00000000000E+00 -0.00000000000E+00 -0.60228732568E+03  0.60228732568E+03  0.00000000000E+00 0. -1.
    9000007    2    1    2  501    0  0.14147101766E+03 -0.11948639220E+03 -0.31925750822E+03  0.54447768659E+03  0.40029932287E+03 0.  0.
    9000005    1    3    3    0    0  0.26947942093E+03 -0.23926247587E+02 -0.25663096579E+03  0.37289687076E+03  0.99999687468E+00 0.  0.
          4    1    3    3  501    0 -0.12800840327E+03 -0.95560144615E+02 -0.62626542424E+02  0.17158081583E+03  0.00000000000E+00 0.  1.
   -9000007    1    1    2    0  502 -0.14147101766E+03  0.11948639220E+03  0.11459869174E+03  0.45543814828E+03  0.40000000000E+03 0. -1.
<mgrwt>
<rscale>  2 0.44098830E+03</rscale>
<asrwt>0</asrwt>
<pdfrwt beam="1">  1       21 0.61173617E-01 0.44105623E+03</pdfrwt>
<pdfrwt beam="2">  1       21 0.92659588E-01 0.44105623E+03</pdfrwt>
<totfact> 0.21154695E+03</totfact>
</mgrwt>
</event>
<event>
 6    1  0.9502611E-004  0.4154764E+03  0.7818608E-02  0.1038563E+00
         21   -1    0    0  503  502  0.00000000000E+00  0.00000000000E+00  0.23164012874E+03  0.23164012874E+03  0.00000000000E+00 0. -1.
         21   -1    0    0  501  503 -0.00000000000E+00 -0.00000000000E+00 -0.95368530437E+03  0.95368530437E+03  0.00000000000E+00 0. -1.
    9000007    2    1    2  501    0 -0.29822256973E+01  0.11230216336E+03 -0.63826667340E+03  0.76148642240E+03  0.39982065424E+03 0.  0.
    9000005    1    3    3    0    0 -0.18285184445E+03  0.12980971806E+03 -0.43570611858E+03  0.49002671527E+03  0.99999687468E+00 0.  0.
          4    1    3    3  501    0  0.17986961875E+03 -0.17507554701E+02 -0.20256055483E+03  0.27145970713E+03  0.00000000000E+00 0.  1.
   -9000007    1    1    2    0  502  0.29822256973E+01 -0.11230216336E+03 -0.83778502224E+02  0.42383901071E+03  0.40000000000E+03 0. -1.
<mgrwt>
<rscale>  2 0.41543326E+03</rscale>
<asrwt>0</asrwt>
<pdfrwt beam="1">  1       21 0.35636943E-01 0.41547644E+03</pdfrwt>
<pdfrwt beam="2">  1       21 0.14672081E+00 0.41547644E+03</pdfrwt>
<totfact> 0.20907466E+03</totfact>
</mgrwt>
</event>
<event>
 6    1  0.9502611E-004  0.7020963E+03  0.7818608E-02  0.9715997E-01
         21   -1    0    0  503  502  0.00000000000E+00  0.00000000000E+00  0.65924657243E+03  0.65924657243E+03  0.00000000000E+00 0.  1.
         21   -1    0    0  501  503 -0.00000000000E+00 -0.00000000000E+00 -0.74271399086E+03  0.74271399086E+03  0.00000000000E+00 0.  1.
    9000007    2    1    2  501    0  0.15894461931E+03 -0.54773530712E+03 -0.64978331576E+02  0.70509672795E+03  0.40946532640E+03 0.  0.
    9000005    1    3    3    0    0  0.88231922264E+02  0.47143536140E+02 -0.32348549266E+02  0.10514187434E+03  0.99999687468E+00 0.  0.
          4    1    3    3  501    0  0.70712697048E+02 -0.59487884326E+03 -0.32629782309E+02  0.59995485361E+03  0.00000000000E+00 0.  1.
   -9000007    1    1    2    0  502 -0.15894461931E+03  0.54773530712E+03 -0.18489086856E+02  0.69686383534E+03  0.40000000000E+03 0.  1.
<mgrwt>
<rscale>  2 0.70072283E+03</rscale>
<asrwt>0</asrwt>
<pdfrwt beam="1">  1       21 0.10142255E+00 0.70209630E+03</pdfrwt>
<pdfrwt beam="2">  1       21 0.11426369E+00 0.70209630E+03</pdfrwt>
<totfact> 0.35862999E+02</totfact>
</mgrwt>
</event>
<event>
 6    1  0.9502611E-004  0.4483290E+03  0.7818608E-02  0.1028228E+00
         21   -1    0    0  503  502  0.00000000000E+00  0.00000000000E+00  0.33401382211E+03  0.33401382211E+03  0.00000000000E+00 0. -1.
         21   -1    0    0  501  503 -0.00000000000E+00 -0.00000000000E+00 -0.67737040188E+03  0.67737040188E+03  0.00000000000E+00 0. -1.
    9000007    2    1    2  501    0 -0.13228140928E+03  0.15304485191E+03 -0.34076623344E+03  0.56313450806E+03  0.40009717617E+03 0.  0.
    9000005    1    3    3    0    0 -0.14883991603E+03  0.54690174383E+02 -0.41140982771E+03  0.44091198907E+03  0.99999687468E+00 0.  0.
          4    1    3    3  501    0  0.16558506754E+02  0.98354677525E+02  0.70643594268E+02  0.12222251899E+03  0.00000000000E+00 0.  1.
   -9000007    1    1    2    0  502  0.13228140928E+03 -0.15304485191E+03 -0.25903463238E+01  0.44824971593E+03  0.40000000000E+03 0. -1.
<mgrwt>
<rscale>  2 0.44830727E+03</rscale>
<asrwt>0</asrwt>
<pdfrwt beam="1">  1       21 0.51386742E-01 0.44832895E+03</pdfrwt>
<pdfrwt beam="2">  1       21 0.10421083E+00 0.44832895E+03</pdfrwt>
<totfact> 0.23163624E+03</totfact>
</mgrwt>
</event>
<event>
 6    1  0.9502611E-004  0.9098575E+03  0.7818608E-02  0.9413343E-01
         21   -1    0    0  503  502  0.00000000000E+00  0.00000000000E+00  0.79726242254E+03  0.79726242254E+03  0.00000000000E+00 0. -1.
         21   -1    0    0  501  503 -0.00000000000E+00 -0.00000000000E+00 -0.11981630019E+04  0.11981630019E+04  0.00000000000E+00 0. -1.
    9000007    2    1    2  501    0  0.51081235818E+03  0.63789123084E+03 -0.56482959075E+03  0.10709216611E+04  0.40000781240E+03 0.  0.
    9000005    1    3    3    0    0  0.17450170927E+03  0.43965124037E+03 -0.13854687287E+03  0.49288973988E+03  0.99999687468E+00 0.  0.
          4    1    3    3  501    0  0.33631064891E+03  0.19823999046E+03 -0.42628271788E+03  0.57803192123E+03  0.00000000000E+00 0.  1.
   -9000007    1    1    2    0  502 -0.51081235818E+03 -0.63789123084E+03  0.16392901138E+03  0.92450376334E+03  0.40000000000E+03 0. -1.
<mgrwt>
<rscale>  2 0.90985668E+03</rscale>
<asrwt>0</asrwt>
<pdfrwt beam="1">  1       21 0.12265576E+00 0.90985754E+03</pdfrwt>
<pdfrwt beam="2">  1       21 0.18433277E+00 0.90985754E+03</pdfrwt>
<totfact> 0.56054146E+01</totfact>
</mgrwt>
</event>
<event>
 6    1  0.9502611E-004  0.6063775E+03  0.7818608E-02  0.9892420E-01
         21   -1    0    0  503  502  0.00000000000E+00  0.00000000000E+00  0.75708448619E+03  0.75708448619E+03  0.00000000000E+00 0.  1.
         21   -1    0    0  501  503 -0.00000000000E+00 -0.00000000000E+00 -0.48570858274E+03  0.48570858274E+03  0.00000000000E+00 0. -1.
    9000007    2    1    2  501    0  0.45392297606E+03 -0.40591219151E+02  0.15069277313E+03  0.62452279372E+03  0.39953309342E+03 0.  0.
    9000005    1    3    3    0    0  0.42918055980E+03 -0.17760661615E+03  0.92399717207E+02  0.47358079643E+03  0.99999687468E+00 0.  0.
          4    1    3    3  501    0  0.24742416261E+02  0.13701539700E+03  0.58293055918E+02  0.15094199729E+03  0.00000000000E+00 0.  1.
   -9000007    1    1    2    0  502 -0.45392297606E+03  0.40591219151E+02  0.12068313033E+03  0.61827027521E+03  0.40000000000E+03 0. -1.
<mgrwt>
<rscale>  2 0.60630055E+03</rscale>
<asrwt>0</asrwt>
<pdfrwt beam="1">  1       21 0.11647454E+00 0.60637754E+03</pdfrwt>
<pdfrwt beam="2">  1       21 0.74724397E-01 0.60637754E+03</pdfrwt>
<totfact> 0.72645320E+02</totfact>
</mgrwt>
</event>
<event>
 6    1  0.9502611E-004  0.4541131E+03  0.7818608E-02  0.1026543E+00
         21   -1    0    0  503  502  0.00000000000E+00  0.00000000000E+00  0.43766414521E+03  0.43766414521E+03  0.00000000000E+00 0.  1.
         21   -1    0    0  501  503 -0.00000000000E+00 -0.00000000000E+00 -0.58924844603E+03  0.58924844603E+03  0.00000000000E+00 0.  1.
    9000007    2    1    2  501    0 -0.16932025036E+03 -0.13056343113E+03 -0.30622477770E+03  0.54771551923E+03  0.40062765606E+03 0.  0.
    9000005    1    3    3    0    0 -0.23624794657E+03 -0.14662048442E+03 -0.50129294882E+02  0.28253248470E+03  0.99999687468E+00 0.  0.
          4    1    3    3  501    0  0.66927696216E+02  0.16057053293E+02 -0.25609548282E+03  0.26518303453E+03  0.00000000000E+00 0.  1.
   -9000007    1    1    2    0  502  0.16932025036E+03  0.13056343113E+03  0.15464047689E+03  0.47919707201E+03  0.40000000000E+03 0.  1.
<mgrwt>
<rscale>  2 0.45397459E+03</rscale>
<asrwt>0</asrwt>
<pdfrwt beam="1">  1       21 0.67332946E-01 0.45411306E+03</pdfrwt>
<pdfrwt beam="2">  1       21 0.90653606E-01 0.45411306E+03</pdfrwt>
<totfact> 0.17925902E+03</totfact>
</mgrwt>
</event>
<event>
 6    1  0.9502611E-004  0.4395399E+03  0.7818608E-02  0.1030906E+00
         21   -1    0    0  503  502  0.00000000000E+00  0.00000000000E+00  0.16728494058E+04  0.16728494058E+04  0.00000000000E+00 0.  1.
         21   -1    0    0  501  503 -0.00000000000E+00 -0.00000000000E+00 -0.19078553771E+03  0.19078553771E+03  0.00000000000E+00 0.  1.
    9000007    2    1    2  501    0  0.18137447769E+03 -0.96042856127E+01  0.15552062459E+03  0.46624240012E+03  0.40025787630E+03 0.  0.
    9000005    1    3    3    0    0  0.78831839635E+02  0.14142381641E+02  0.28691622097E+03  0.29788652831E+03  0.99999687468E+00 0.  0.
          4    1    3    3  501    0  0.10254263805E+03 -0.23746667253E+02 -0.13139559639E+03  0.16835587181E+03  0.00000000000E+00 0.  1.
   -9000007    1    1    2    0  502 -0.18137447769E+03  0.96042856127E+01  0.13265432435E+04  0.13973925434E+04  0.40000000000E+03 0.  1.
<mgrwt>
<rscale>  2 0.43948117E+03</rscale>
<asrwt>0</asrwt>
<pdfrwt beam="1">  1       21 0.25736144E+00 0.43953989E+03</pdfrwt>
<pdfrwt beam="2">  1       21 0.29351622E-01 0.43953989E+03</pdfrwt>
<totfact> 0.54523975E+02</totfact>
</mgrwt>
</event>
<event>
 6    1  0.9502611E-004  0.9931841E+03  0.7818608E-02  0.9316446E-01
         21   -1    0    0  503  502  0.00000000000E+00  0.00000000000E+00  0.32220081655E+03  0.32220081655E+03  0.00000000000E+00 0. -1.
         21   -1    0    0  501  503 -0.00000000000E+00 -0.00000000000E+00 -0.31384340292E+04  0.31384340292E+04  0.00000000000E+00 0.  1.
    9000007    2    1    2  501    0  0.38501126560E+03 -0.82180199558E+03 -0.16876356283E+04  0.19581952623E+04  0.40351267232E+03 0.  0.
    9000005    1    3    3    0    0  0.31226513108E+03 -0.75207318604E+03 -0.11376885401E+04  0.13990924928E+04  0.99999687468E+00 0.  0.
          4    1    3    3  501    0  0.72746134518E+02 -0.69728809536E+02 -0.54994708822E+03  0.55910276945E+03  0.00000000000E+00 0.  1.
   -9000007    1    1    2    0  502 -0.38501126560E+03  0.82180199558E+03 -0.11285975844E+04  0.15024395835E+04  0.40000000000E+03 0.  1.
<mgrwt>
<rscale>  2 0.99282843E+03</rscale>
<asrwt>0</asrwt>
<pdfrwt beam="1">  1       21 0.49569355E-01 0.99318411E+03</pdfrwt>
<pdfrwt beam="2">  1       21 0.48283601E+00 0.99318411E+03</pdfrwt>
<totfact> 0.52009691E+00</totfact>
</mgrwt>
</event>
<event>
 6    1  0.9502611E-004  0.4194210E+03  0.7818608E-02  0.1037259E+00
         21   -1    0    0  503  502  0.00000000000E+00  0.00000000000E+00  0.26732275323E+03  0.26732275323E+03  0.00000000000E+00 0. -1.
         21   -1    0    0  501  503 -0.00000000000E+00 -0.00000000000E+00 -0.94822379616E+03  0.94822379616E+03  0.00000000000E+00 0. -1.
    9000007    2    1    2  501    0  0.12222125833E+03 -0.31240093673E+02 -0.67668846387E+03  0.79610438977E+03  0.39995117557E+03 0.  0.
    9000005    1    3    3    0    0 -0.13493900780E+03 -0.72929372050E+02 -0.19109976820E+03  0.24504560909E+03  0.99999687468E+00 0.  0.
          4    1    3    3  501    0  0.25716026612E+03  0.41689278377E+02 -0.48558869567E+03  0.55105878068E+03  0.00000000000E+00 0.  1.
   -9000007    1    1    2    0  502 -0.12222125833E+03  0.31240093673E+02 -0.42125790619E+01  0.41944215961E+03  0.40000000000E+03 0.  1.
<mgrwt>
<rscale>  2 0.41940936E+03</rscale>
<asrwt>0</asrwt>
<pdfrwt beam="1">  1       21 0.41126578E-01 0.41942101E+03</pdfrwt>
<pdfrwt beam="2">  1       21 0.14588058E+00 0.41942101E+03</pdfrwt>
<totfact> 0.15815009E+03</totfact>
</mgrwt>
</event>
<event>
 6    1  0.9502611E-004  0.5096254E+03  0.7818608E-02  0.1011352E+00
         21   -1    0    0  503  502  0.00000000000E+00  0.00000000000E+00  0.27110408132E+03  0.27110408132E+03  0.00000000000E+00 0. -1.
         21   -1    0    0  501  503 -0.00000000000E+00 -0.00000000000E+00 -0.12986945295E+04  0.12986945295E+04  0.00000000000E+00 0.  1.
    9000007    2    1    2  501    0  0.23321813575E+03  0.21080183714E+03 -0.11113741707E+03  0.52160288883E+03  0.40111087591E+03 0.  0.
    9000005    1    3    3    0    0  0.25090372821E+03  0.29404112486E+03 -0.16565292546E+03  0.42054102730E+03  0.99999687468E+00 0.  0.
          4    1    3    3  501    0 -0.17685592454E+02 -0.83239287720E+02  0.54515508386E+02  0.10106186153E+03  0.00000000000E+00 0.  1.
   -9000007    1    1    2    0  502 -0.23321813575E+03 -0.21080183714E+03 -0.91645303110E+03  0.10481957220E+04  0.40000000000E+03 0.  1.
<mgrwt>
<rscale>  2 0.50940679E+03</rscale>
<asrwt>0</asrwt>
<pdfrwt beam="1">  1       21 0.41708320E-01 0.50962540E+03</pdfrwt>
<pdfrwt beam="2">  1       21 0.19979916E+00 0.50962540E+03</pdfrwt>
<totfact> 0.59976550E+02</totfact>
</mgrwt>
</event>
<event>
 6    1  0.9502611E-004  0.5083713E+03  0.7818608E-02  0.1011642E+00
         21   -1    0    0  503  502  0.00000000000E+00  0.00000000000E+00  0.54302802127E+03  0.54302802127E+03  0.00000000000E+00 0. -1.
         21   -1    0    0  501  503 -0.00000000000E+00 -0.00000000000E+00 -0.47921406256E+03  0.47921406256E+03  0.00000000000E+00 0. -1.
    9000007    2    1    2  501    0  0.26089596882E+03  0.17310799496E+03 -0.12771206848E+02  0.50853168678E+03  0.40051003516E+03 0.  0.
    9000005    1    3    3    0    0  0.89749255900E+02 -0.88979722156E+02  0.11458452486E+03  0.17059581830E+03  0.99999687468E+00 0.  0.
          4    1    3    3  501    0  0.17114671292E+03  0.26208771712E+03 -0.12735573171E+03  0.33793586848E+03  0.00000000000E+00 0.  1.
   -9000007    1    1    2    0  502 -0.26089596882E+03 -0.17310799496E+03  0.76585165554E+02  0.51371039706E+03  0.40000000000E+03 0. -1.
<mgrwt>
<rscale>  2 0.50827083E+03</rscale>
<asrwt>0</asrwt>
<pdfrwt beam="1">  1       21 0.83542773E-01 0.50837129E+03</pdfrwt>
<pdfrwt beam="2">  1       21 0.73725240E-01 0.50837129E+03</pdfrwt>
<totfact> 0.17365952E+03</totfact>
</mgrwt>
</event>
<event>
 6    1  0.9502611E-004  0.4540810E+03  0.7818608E-02  0.1026548E+00
         21   -1    0    0  503  502  0.00000000000E+00  0.00000000000E+00  0.74023854022E+03  0.74023854022E+03  0.00000000000E+00 0.  1.
         21   -1    0    0  501  503 -0.00000000000E+00 -0.00000000000E+00 -0.35120039942E+03  0.35120039942E+03  0.00000000000E+00 0.  1.
    9000007    2    1    2  501    0 -0.21448616520E+03  0.13610398454E+02  0.44316686492E+03  0.63414310893E+03  0.39943842383E+03 0.  0.
    9000005    1    3    3    0    0  0.10284138812E+03  0.50449387268E+01  0.19591860619E+02  0.10481719093E+03  0.99999687468E+00 0.  0.
          4    1    3    3  501    0 -0.31732755332E+03  0.85654597271E+01  0.42357500431E+03  0.52932591800E+03  0.00000000000E+00 0.  1.
   -9000007    1    1    2    0  502  0.21448616520E+03 -0.13610398454E+02 -0.54128724119E+02  0.45729583071E+03  0.40000000000E+03 0.  1.
<mgrwt>
<rscale>  2 0.45395730E+03</rscale>
<asrwt>0</asrwt>
<pdfrwt beam="1">  1       21 0.11388285E+00 0.45408100E+03</pdfrwt>
<pdfrwt beam="2">  1       21 0.54030831E-01 0.45408100E+03</pdfrwt>
<totfact> 0.16658518E+03</totfact>
</mgrwt>
</event>
<event>
 6    1  0.9502611E-004  0.7190781E+03  0.7818608E-02  0.9685245E-01
         21   -1    0    0  503  502  0.00000000000E+00  0.00000000000E+00  0.11369640062E+04  0.11369640062E+04  0.00000000000E+00 0.  1.
         21   -1    0    0  501  503 -0.00000000000E+00 -0.00000000000E+00 -0.10728662066E+04  0.10728662066E+04  0.00000000000E+00 0.  1.
    9000007    2    1    2  501    0 -0.27927493512E+03  0.52796961211E+03 -0.80669340193E+03  0.10806607315E+04  0.40040850549E+03 0.  0.
    9000005    1    3    3    0    0  0.96876629043E+02  0.96856881844E+02 -0.91356808555E+02  0.16466148086E+03  0.99999687468E+00 0.  0.
          4    1    3    3  501    0 -0.37615156417E+03  0.43111273026E+03 -0.71533659338E+03  0.91599925068E+03  0.00000000000E+00 0.  1.
   -9000007    1    1    2    0  502  0.27927493512E+03 -0.52796961211E+03  0.87079120155E+03  0.11291694813E+04  0.40000000000E+03 0.  1.
<mgrwt>
<rscale>  2 0.71902129E+03</rscale>
<asrwt>0</asrwt>
<pdfrwt beam="1">  1       21 0.17491754E+00 0.71907814E+03</pdfrwt>
<pdfrwt beam="2">  1       21 0.16505634E+00 0.71907814E+03</pdfrwt>
<totfact> 0.31037823E+01</totfact>
</mgrwt>
</event>
<event>
 6    1  0.9502611E-004  0.4471310E+03  0.7818608E-02  0.1028715E+00
         21   -1    0    0  503  502  0.00000000000E+00  0.00000000000E+00  0.13843799092E+03  0.13843799092E+03  0.00000000000E+00 0. -1.
         21   -1    0    0  501  503 -0.00000000000E+00 -0.00000000000E+00 -0.21361698899E+04  0.21361698899E+04  0.00000000000E+00 0. -1.
    9000007    2    1    2  501    0 -0.19519215016E+03  0.42733935785E+02 -0.16475143757E+04  0.17066479541E+04  0.39801690454E+03 0.  0.
    9000005    1    3    3    0    0  0.50662278098E+02 -0.12977269814E+03 -0.65667163086E+03  0.67128701043E+03  0.99999687468E+00 0.  0.
          4    1    3    3  501    0 -0.24585442826E+03  0.17250663393E+03 -0.99084274489E+03  0.10353609437E+04  0.00000000000E+00 0.  1.
   -9000007    1    1    2    0  502  0.19519215016E+03 -0.42733935785E+02 -0.35021752324E+03  0.56795992670E+03  0.40000000000E+03 0. -1.
<mgrwt>
<rscale>  2 0.44668708E+03</rscale>
<asrwt>0</asrwt>
<pdfrwt beam="1">  1       21 0.21298155E-01 0.44713104E+03</pdfrwt>
<pdfrwt beam="2">  1       21 0.32864148E+00 0.44713104E+03</pdfrwt>
<totfact> 0.37660059E+02</totfact>
</mgrwt>
</event>
<event>
 6    1  0.9502611E-004  0.4454161E+03  0.7818608E-02  0.1029303E+00
         21   -1    0    0  503  502  0.00000000000E+00  0.00000000000E+00  0.72623323939E+03  0.72623323939E+03  0.00000000000E+00 0.  1.
         21   -1    0    0  501  503 -0.00000000000E+00 -0.00000000000E+00 -0.27519461426E+03  0.27519461426E+03  0.00000000000E+00 0.  1.
    9000007    2    1    2  501    0  0.14956369797E+02 -0.18911506805E+03  0.16837334733E+03  0.47617756928E+03  0.40299788018E+03 0.  0.
    9000005    1    3    3    0    0 -0.82524299149E+02  0.10598923970E+03  0.42879257900E+02  0.14100925372E+03  0.99999687468E+00 0.  0.
          4    1    3    3  501    0  0.97480668946E+02 -0.29510430775E+03  0.12549408943E+03  0.33516831556E+03  0.00000000000E+00 0.  1.
   -9000007    1    1    2    0  502 -0.14956369797E+02  0.18911506805E+03  0.28266527780E+03  0.52525028437E+03  0.40000000000E+03 0.  1.
<mgrwt>
<rscale>  2 0.44473690E+03</rscale>
<asrwt>0</asrwt>
<pdfrwt beam="1">  1       21 0.11172819E+00 0.44541609E+03</pdfrwt>
<pdfrwt beam="2">  1       21 0.42337633E-01 0.44541609E+03</pdfrwt>
<totfact> 0.29349932E+03</totfact>
</mgrwt>
</event>
<event>
 6    1  0.9502611E-004  0.4090628E+03  0.7818608E-02  0.1040952E+00
         21   -1    0    0  503  502  0.00000000000E+00  0.00000000000E+00  0.77592059121E+03  0.77592059121E+03  0.00000000000E+00 0. -1.
         21   -1    0    0  501  503 -0.00000000000E+00 -0.00000000000E+00 -0.25155454765E+03  0.25155454765E+03  0.00000000000E+00 0. -1.
    9000007    2    1    2  501    0  0.62713145023E+02  0.28930542352E+02  0.64552207416E+02  0.41412476693E+03  0.40319030279E+03 0.  0.
    9000005    1    3    3    0    0 -0.10915263737E+02  0.21563687649E+02 -0.16818085790E+03  0.16991155513E+03  0.99999687468E+00 0.  0.
          4    1    3    3  501    0  0.73628408760E+02  0.73668547029E+01  0.23273306532E+03  0.24421321180E+03  0.00000000000E+00 0.  1.
   -9000007    1    1    2    0  502 -0.62713145023E+02 -0.28930542352E+02  0.45981383614E+03  0.61335037193E+03  0.40000000000E+03 0. -1.
<mgrwt>
<rscale>  2 0.40827444E+03</rscale>
<asrwt>0</asrwt>
<pdfrwt beam="1">  1       21 0.11937240E+00 0.40906275E+03</pdfrwt>
<pdfrwt beam="2">  1       21 0.38700700E-01 0.40906275E+03</pdfrwt>
<totfact> 0.30346699E+03</totfact>
</mgrwt>
</event>
<event>
 6    1  0.9502611E-004  0.4108838E+03  0.7818608E-02  0.1040168E+00
         21   -1    0    0  503  502  0.00000000000E+00  0.00000000000E+00  0.85027681341E+03  0.85027681341E+03  0.00000000000E+00 0.  1.
         21   -1    0    0  501  503 -0.00000000000E+00 -0.00000000000E+00 -0.20810736924E+03  0.20810736924E+03  0.00000000000E+00 0.  1.
    9000007    2    1    2  501    0 -0.72188242326E+02 -0.60119283058E+02  0.20412676277E+03  0.45779542047E+03  0.39885265600E+03 0.  0.
    9000005    1    3    3    0    0 -0.44718135425E+02 -0.18869410710E+03 -0.23078405597E+02  0.19529155253E+03  0.99999687468E+00 0.  0.
          4    1    3    3  501    0 -0.27470106901E+02  0.12857482405E+03  0.22720516836E+03  0.26250386794E+03  0.00000000000E+00 0.  1.
   -9000007    1    1    2    0  502  0.72188242326E+02  0.60119283058E+02  0.43804268140E+03  0.60058876218E+03  0.40000000000E+03 0. -1.
<mgrwt>
<rscale>  2 0.41060427E+03</rscale>
<asrwt>0</asrwt>
<pdfrwt beam="1">  1       21 0.13081182E+00 0.41088377E+03</pdfrwt>
<pdfrwt beam="2">  1       21 0.32016519E-01 0.41088377E+03</pdfrwt>
<totfact> 0.35183335E+03</totfact>
</mgrwt>
</event>
<event>
 6    1  0.9502611E-004  0.5165053E+03  0.7818608E-02  0.1009575E+00
         21   -1    0    0  503  502  0.00000000000E+00  0.00000000000E+00  0.61512221566E+03  0.61512221566E+03  0.00000000000E+00 0. -1.
         21   -1    0    0  501  503 -0.00000000000E+00 -0.00000000000E+00 -0.44753687653E+03  0.44753687653E+03  0.00000000000E+00 0.  1.
    9000007    2    1    2  501    0 -0.26945350536E+03 -0.18485811021E+03 -0.10410573619E+02  0.51634392911E+03  0.39965605291E+03 0.  0.
    9000005    1    3    3    0    0  0.10409896461E+03 -0.48523531895E+02  0.23536467727E+02  0.11724373282E+03  0.99999687468E+00 0.  0.
          4    1    3    3  501    0 -0.37355246996E+03 -0.13633457831E+03 -0.33947041345E+02  0.39910019629E+03  0.00000000000E+00 0.  1.
   -9000007    1    1    2    0  502  0.26945350536E+03  0.18485811021E+03  0.17799591275E+03  0.54631516308E+03  0.40000000000E+03 0. -1.
<mgrwt>
<rscale>  2 0.51643870E+03</rscale>
<asrwt>0</asrwt>
<pdfrwt beam="1">  1       21 0.94634187E-01 0.51650529E+03</pdfrwt>
<pdfrwt beam="2">  1       21 0.68851827E-01 0.51650529E+03</pdfrwt>
<totfact> 0.15048708E+03</totfact>
</mgrwt>
</event>
<event>
 6    1  0.9502611E-004  0.4887996E+03  0.7818608E-02  0.1016762E+00
         21   -1    0    0  503  502  0.00000000000E+00  0.00000000000E+00  0.14738639347E+04  0.14738639347E+04  0.00000000000E+00 0.  1.
         21   -1    0    0  501  503 -0.00000000000E+00 -0.00000000000E+00 -0.16758201047E+03  0.16758201047E+03  0.00000000000E+00 0. -1.
    9000007    2    1    2  501    0 -0.33004874266E+02 -0.27899061000E+03  0.50348061419E+03  0.70154434095E+03  0.39968318862E+03 0.  0.
    9000005    1    3    3    0    0 -0.19252091034E+02 -0.20051503906E+03  0.10014934096E+02  0.20168843000E+03  0.99999687468E+00 0.  0.
          4    1    3    3  501    0 -0.13752783232E+02 -0.78475570940E+02  0.49346568010E+03  0.49985591095E+03  0.00000000000E+00 0.  1.
   -9000007    1    1    2    0  502  0.33004874266E+02  0.27899061000E+03  0.80280131005E+03  0.93990160422E+03  0.40000000000E+03 0. -1.
<mgrwt>
<rscale>  2 0.48873482E+03</rscale>
<asrwt>0</asrwt>
<pdfrwt beam="1">  1       21 0.22674829E+00 0.48879963E+03</pdfrwt>
<pdfrwt beam="2">  1       21 0.25781849E-01 0.48879963E+03</pdfrwt>
<totfact> 0.10641258E+03</totfact>
</mgrwt>
</event>
<event>
 6    1  0.9502611E-004  0.4159322E+03  0.7818608E-02  0.1038414E+00
         21   -1    0    0  503  502  0.00000000000E+00  0.00000000000E+00  0.38488182424E+03  0.38488182424E+03  0.00000000000E+00 0.  1.
         21   -1    0    0  501  503 -0.00000000000E+00 -0.00000000000E+00 -0.54281573651E+03  0.54281573651E+03  0.00000000000E+00 0. -1.
    9000007    2    1    2  501    0  0.11045667034E+03  0.28265702113E+02 -0.27149426866E+03  0.49654146317E+03  0.39980577884E+03 0.  0.
    9000005    1    3    3    0    0  0.23795917284E+03  0.10190447027E+03 -0.12013968603E+03  0.28538330917E+03  0.99999687468E+00 0.  0.
          4    1    3    3  501    0 -0.12750250250E+03 -0.73638768153E+02 -0.15135458263E+03  0.21115815400E+03  0.00000000000E+00 0.  1.
   -9000007    1    1    2    0  502 -0.11045667034E+03 -0.28265702113E+02  0.11356035638E+03  0.43115609758E+03  0.40000000000E+03 0. -1.
<mgrwt>
<rscale>  2 0.41588553E+03</rscale>
<asrwt>0</asrwt>
<pdfrwt beam="1">  1       21 0.59212589E-01 0.41593224E+03</pdfrwt>
<pdfrwt beam="2">  1       21 0.83510112E-01 0.41593224E+03</pdfrwt>
<totfact> 0.29299872E+03</totfact>
</mgrwt>
</event>
<event>
 6    1  0.9502611E-004  0.5663700E+03  0.7818608E-02  0.9978155E-01
         21   -1    0    0  503  502  0.00000000000E+00  0.00000000000E+00  0.18890508083E+04  0.18890508083E+04  0.00000000000E+00 0. -1.
         21   -1    0    0  501  503 -0.00000000000E+00 -0.00000000000E+00 -0.16990344976E+03  0.16990344976E+03  0.00000000000E+00 0.  1.
    9000007    2    1    2  501    0  0.40094813444E+03  0.39492684128E+01  0.81457151666E+03  0.99169962258E+03  0.39895661725E+03 0.  0.
    9000005    1    3    3    0    0  0.57840708865E+02  0.11810359270E+03  0.48476000946E+03  0.50228206515E+03  0.99999687468E+00 0.  0.
          4    1    3    3  501    0  0.34310742558E+03 -0.11415432429E+03  0.32981150720E+03  0.48941755743E+03  0.00000000000E+00 0.  1.
   -9000007    1    1    2    0  502 -0.40094813444E+03 -0.39492684128E+01  0.90457584188E+03  0.10672546355E+04  0.40000000000E+03 0. -1.
<mgrwt>
<rscale>  2 0.56618583E+03</rscale>
<asrwt>0</asrwt>
<pdfrwt beam="1">  1       21 0.29062319E+00 0.56637002E+03</pdfrwt>
<pdfrwt beam="2">  1       21 0.26138994E-01 0.56637002E+03</pdfrwt>
<totfact> 0.40434039E+02</totfact>
</mgrwt>
</event>
<event>
 6    1  0.9502611E-004  0.5194820E+03  0.7818608E-02  0.1008854E+00
         21   -1    0    0  503  502  0.00000000000E+00  0.00000000000E+00  0.22116340368E+03  0.22116340368E+03  0.00000000000E+00 0.  1.
         21   -1    0    0  501  503 -0.00000000000E+00 -0.00000000000E+00 -0.25654615334E+04  0.25654615334E+04  0.00000000000E+00 0.  1.
    9000007    2    1    2  501    0  0.21151746321E+03 -0.25518991400E+03 -0.21813169862E+04  0.22421762410E+04  0.39918538551E+03 0.  0.
    9000005    1    3    3    0    0  0.32215926372E+03 -0.19231333884E+03 -0.18409979558E+04  0.18788415274E+04  0.99999687468E+00 0.  0.
          4    1    3    3  501    0 -0.11064180051E+03 -0.62876575163E+02 -0.34031903039E+03  0.36333471369E+03  0.00000000000E+00 0.  1.
   -9000007    1    1    2    0  502 -0.21151746321E+03  0.25518991400E+03 -0.16298114344E+03  0.54444869600E+03  0.40000000000E+03 0.  1.
<mgrwt>
<rscale>  2 0.51932516E+03</rscale>
<asrwt>0</asrwt>
<pdfrwt beam="1">  1       21 0.34025137E-01 0.51948198E+03</pdfrwt>
<pdfrwt beam="2">  1       21 0.39468641E+00 0.51948198E+03</pdfrwt>
<totfact> 0.55700917E+01</totfact>
</mgrwt>
</event>
<event>
 6    1  0.9502611E-004  0.4211073E+03  0.7818608E-02  0.1036732E+00
         21   -1    0    0  503  502  0.00000000000E+00  0.00000000000E+00  0.12617602503E+04  0.12617602503E+04  0.00000000000E+00 0.  1.
         21   -1    0    0  501  503 -0.00000000000E+00 -0.00000000000E+00 -0.24340403195E+03  0.24340403195E+03  0.00000000000E+00 0. -1.
    9000007    2    1    2  501    0 -0.12386809049E+03 -0.41475412550E+02  0.19803641952E+02  0.42157267952E+03  0.40033464277E+03 0.  0.
    9000005    1    3    3    0    0  0.29759087123E+01  0.10369546884E+03 -0.13785782441E+03  0.17253227535E+03  0.99999687468E+00 0.  0.
          4    1    3    3  501    0 -0.12684399920E+03 -0.14517088139E+03  0.15766146636E+03  0.24904040418E+03  0.00000000000E+00 0.  1.
   -9000007    1    1    2    0  502  0.12386809049E+03  0.41475412550E+02  0.99855257641E+03  0.10835916028E+04  0.40000000000E+03 0.  1.
<mgrwt>
<rscale>  2 0.42102773E+03</rscale>
<asrwt>0</asrwt>
<pdfrwt beam="1">  1       21 0.19411696E+00 0.42110728E+03</pdfrwt>
<pdfrwt beam="2">  1       21 0.37446775E-01 0.42110728E+03</pdfrwt>
<totfact> 0.85146497E+02</totfact>
</mgrwt>
</event>
<event>
 6    1  0.9502611E-004  0.6171052E+03  0.7818608E-02  0.9870697E-01
         21   -1    0    0  503  502  0.00000000000E+00  0.00000000000E+00  0.84283911268E+03  0.84283911268E+03  0.00000000000E+00 0.  1.
         21   -1    0    0  501  503 -0.00000000000E+00 -0.00000000000E+00 -0.47159024251E+03  0.47159024251E+03  0.00000000000E+00 0. -1.
    9000007    2    1    2  501    0  0.48227199594E+02 -0.46702000589E+03  0.32098067577E+03  0.69559137958E+03  0.40048124107E+03 0.  0.
    9000005    1    3    3    0    0  0.93299817703E+02  0.42593258826E+02  0.29248804637E+02  0.10665614960E+03  0.99999687468E+00 0.  0.
          4    1    3    3  501    0 -0.45072618109E+02 -0.50961326472E+03  0.29173187113E+03  0.58893522998E+03  0.00000000000E+00 0.  1.
   -9000007    1    1    2    0  502 -0.48227199594E+02  0.46702000589E+03  0.50268194401E+02  0.61883797560E+03  0.40000000000E+03 0. -1.
<mgrwt>
<rscale>  2 0.61702709E+03</rscale>
<asrwt>0</asrwt>
<pdfrwt beam="1">  1       21 0.12966756E+00 0.61710516E+03</pdfrwt>
<pdfrwt beam="2">  1       21 0.72552345E-01 0.61710516E+03</pdfrwt>
<totfact> 0.58723837E+02</totfact>
</mgrwt>
</event>
<event>
 6    1  0.9502611E-004  0.4657400E+03  0.7818608E-02  0.1023146E+00
         21   -1    0    0  503  502  0.00000000000E+00  0.00000000000E+00  0.11221682120E+04  0.11221682120E+04  0.00000000000E+00 0. -1.
         21   -1    0    0  501  503 -0.00000000000E+00 -0.00000000000E+00 -0.23569713470E+03  0.23569713470E+03  0.00000000000E+00 0.  1.
    9000007    2    1    2  501    0 -0.16327670777E+03 -0.17393813739E+03  0.15486154918E+03  0.49059015359E+03  0.39972845839E+03 0.  0.
    9000005    1    3    3    0    0 -0.47227640583E+02  0.14036696819E+02  0.24653538547E+03  0.25141236083E+03  0.99999687468E+00 0.  0.
          4    1    3    3  501    0 -0.11604906719E+03 -0.18797483421E+03 -0.91673836292E+02  0.23917779276E+03  0.00000000000E+00 0.  1.
   -9000007    1    1    2    0  502  0.16327670777E+03  0.17393813739E+03  0.73160952815E+03  0.86727519313E+03  0.40000000000E+03 0. -1.
<mgrwt>
<rscale>  2 0.46568170E+03</rscale>
<asrwt>0</asrwt>
<pdfrwt beam="1">  1       21 0.17264126E+00 0.46574001E+03</pdfrwt>
<pdfrwt beam="2">  1       21 0.36261098E-01 0.46574001E+03</pdfrwt>
<totfact> 0.12579704E+03</totfact>
</mgrwt>
</event>
<event>
 6    1  0.9502611E-004  0.4962126E+03  0.7818608E-02  0.1014777E+00
         21   -1    0    0  503  502  0.00000000000E+00  0.00000000000E+00  0.22265104912E+03  0.22265104912E+03  0.00000000000E+00 0.  1.
         21   -1    0    0  501  503 -0.00000000000E+00 -0.00000000000E+00 -0.23613121789E+04  0.23613121789E+04  0.00000000000E+00 0.  1.
    9000007    2    1    2  501    0 -0.21254293431E+03 -0.20261399956E+03 -0.20114092136E+04  0.20716937853E+04  0.39990146755E+03 0.  0.
    9000005    1    3    3    0    0 -0.99347229446E+02  0.10148446334E+03 -0.33003320668E+03  0.35929359277E+03  0.99999687468E+00 0.  0.
          4    1    3    3  501    0 -0.11319570487E+03 -0.30409846290E+03 -0.16813760069E+04  0.17124001925E+04  0.00000000000E+00 0.  1.
   -9000007    1    1    2    0  502  0.21254293431E+03  0.20261399956E+03 -0.12725191613E+03  0.51226944268E+03  0.40000000000E+03 0.  1.
<mgrwt>
<rscale>  2 0.49619273E+03</rscale>
<asrwt>0</asrwt>
<pdfrwt beam="1">  1       21 0.34254008E-01 0.49621259E+03</pdfrwt>
<pdfrwt beam="2">  1       21 0.36327879E+00 0.49621259E+03</pdfrwt>
<totfact> 0.87981824E+01</totfact>
</mgrwt>
</event>
<event>
 6    1  0.9502611E-004  0.5024469E+03  0.7818608E-02  0.1013154E+00
         21   -1    0    0  503  502  0.00000000000E+00  0.00000000000E+00  0.12624557645E+04  0.12624557645E+04  0.00000000000E+00 0.  1.
         21   -1    0    0  501  503 -0.00000000000E+00 -0.00000000000E+00 -0.21473817944E+03  0.21473817944E+03  0.00000000000E+00 0. -1.
    9000007    2    1    2  501    0  0.30316895555E+03 -0.18950053311E+02  0.71811621381E+03  0.87643809996E+03  0.40022784309E+03 0.  0.
    9000005    1    3    3    0    0  0.17292132725E+03 -0.11412990342E+03  0.86460136431E+02  0.22450785167E+03  0.99999687468E+00 0.  0.
          4    1    3    3  501    0  0.13024762830E+03  0.95179850111E+02  0.63165607738E+03  0.65193024829E+03  0.00000000000E+00 0.  1.
   -9000007    1    1    2    0  502 -0.30316895555E+03  0.18950053311E+02  0.32960137121E+03  0.60075584394E+03  0.40000000000E+03 0.  1.
<mgrwt>
<rscale>  2 0.50240149E+03</rscale>
<asrwt>0</asrwt>
<pdfrwt beam="1">  1       21 0.19422396E+00 0.50244686E+03</pdfrwt>
<pdfrwt beam="2">  1       21 0.33036644E-01 0.50244686E+03</pdfrwt>
<totfact> 0.10565644E+03</totfact>
</mgrwt>
</event>
<event>
 6    1  0.9502611E-004  0.4360921E+03  0.7818608E-02  0.1031980E+00
         21   -1    0    0  503  502  0.00000000000E+00  0.00000000000E+00  0.23395529545E+04  0.23395529545E+04  0.00000000000E+00 0. -1.
         21   -1    0    0  501  503 -0.00000000000E+00 -0.00000000000E+00 -0.13726488794E+03  0.13726488794E+03  0.00000000000E+00 0. -1.
    9000007    2    1    2  501    0 -0.16791228866E+03  0.44517123311E+02  0.30957462085E+03  0.53451495707E+03  0.39961666945E+03 0.  0.
    9000005    1    3    3    0    0 -0.14714648225E+03  0.21425036093E+03  0.14719298108E+03  0.29870064960E+03  0.99999687468E+00 0.  0.
          4    1    3    3  501    0 -0.20765806412E+02 -0.16973323762E+03  0.16238163978E+03  0.23581430747E+03  0.00000000000E+00 0.  1.
   -9000007    1    1    2    0  502  0.16791228866E+03 -0.44517123311E+02  0.18927134457E+04  0.19423028854E+04  0.40000000000E+03 0. -1.
<mgrwt>
<rscale>  2 0.43600417E+03</rscale>
<asrwt>0</asrwt>
<pdfrwt beam="1">  1       21 0.35993119E+00 0.43609209E+03</pdfrwt>
<pdfrwt beam="2">  1       21 0.21117677E-01 0.43609209E+03</pdfrwt>
<totfact> 0.24820381E+02</totfact>
</mgrwt>
</event>
<event>
 6    1  0.9502611E-004  0.4913516E+03  0.7818608E-02  0.1016087E+00
         21   -1    0    0  503  502  0.00000000000E+00  0.00000000000E+00  0.74196407749E+03  0.74196407749E+03  0.00000000000E+00 0. -1.
         21   -1    0    0  501  503 -0.00000000000E+00 -0.00000000000E+00 -0.34666406696E+03  0.34666406696E+03  0.00000000000E+00 0. -1.
    9000007    2    1    2  501    0 -0.68657739890E+02 -0.27627775864E+03  0.33338557239E+03  0.59377798247E+03  0.40047854801E+03 0.  0.
    9000005    1    3    3    0    0 -0.17822385175E+03 -0.12336498449E+03  0.67696201253E+01  0.21686283334E+03  0.99999687468E+00 0.  0.
          4    1    3    3  501    0  0.10956611186E+03 -0.15291277415E+03  0.32661595227E+03  0.37691514913E+03  0.00000000000E+00 0.  1.
   -9000007    1    1    2    0  502  0.68657739890E+02  0.27627775864E+03  0.61914438135E+02  0.49485016198E+03  0.40000000000E+03 0. -1.
<mgrwt>
<rscale>  2 0.49125404E+03</rscale>
<asrwt>0</asrwt>
<pdfrwt beam="1">  1       21 0.11414832E+00 0.49135156E+03</pdfrwt>
<pdfrwt beam="2">  1       21 0.53332933E-01 0.49135156E+03</pdfrwt>
<totfact> 0.16796697E+03</totfact>
</mgrwt>
</event>
<event>
 6    1  0.9502611E-004  0.4530380E+03  0.7818608E-02  0.1026832E+00
         21   -1    0    0  503  502  0.00000000000E+00  0.00000000000E+00  0.17838760964E+03  0.17838760964E+03  0.00000000000E+00 0.  1.
         21   -1    0    0  501  503 -0.00000000000E+00 -0.00000000000E+00 -0.11789538058E+04  0.11789538058E+04  0.00000000000E+00 0.  1.
    9000007    2    1    2  501    0 -0.21269827079E+03  0.16988690036E+01 -0.60630649415E+03  0.75677155838E+03  0.39981519001E+03 0.  0.
    9000005    1    3    3    0    0 -0.32850191130E+03  0.39759299904E+02 -0.43687525634E+03  0.54804680206E+03  0.99999687468E+00 0.  0.
          4    1    3    3  501    0  0.11580364050E+03 -0.38060430901E+02 -0.16943123781E+03  0.20872475632E+03  0.00000000000E+00 0.  1.
   -9000007    1    1    2    0  502  0.21269827079E+03 -0.16988690036E+01 -0.39425970197E+03  0.60056985701E+03  0.40000000000E+03 0. -1.
<mgrwt>
<rscale>  2 0.45299722E+03</rscale>
<asrwt>0</asrwt>
<pdfrwt beam="1">  1       21 0.27444247E-01 0.45303801E+03</pdfrwt>
<pdfrwt beam="2">  1       21 0.18137751E+00 0.45303801E+03</pdfrwt>
<totfact> 0.19128471E+03</totfact>
</mgrwt>
</event>
<event>
 6    1  0.9502611E-004  0.4810482E+03  0.7818608E-02  0.1018855E+00
         21   -1    0    0  503  502  0.00000000000E+00  0.00000000000E+00  0.22059103853E+03  0.22059103853E+03  0.00000000000E+00 0. -1.
         21   -1    0    0  501  503 -0.00000000000E+00 -0.00000000000E+00 -0.10526926221E+04  0.10526926221E+04  0.00000000000E+00 0. -1.
    9000007    2    1    2  501    0  0.12029933995E+03  0.23861157012E+03 -0.37726504529E+03  0.61125368461E+03  0.39986840330E+03 0.  0.
    9000005    1    3    3    0    0  0.21967903231E+03  0.28265184567E+03 -0.22034478925E+03  0.42036147450E+03  0.99999687468E+00 0.  0.
          4    1    3    3  501    0 -0.99379692358E+02 -0.44040275554E+02 -0.15692025604E+03  0.19089221011E+03  0.00000000000E+00 0.  1.
   -9000007    1    1    2    0  502 -0.12029933995E+03 -0.23861157012E+03 -0.45483653825E+03  0.66202997599E+03  0.40000000000E+03 0. -1.
<mgrwt>
<rscale>  2 0.48102089E+03</rscale>
<asrwt>0</asrwt>
<pdfrwt beam="1">  1       21 0.33937084E-01 0.48104824E+03</pdfrwt>
<pdfrwt beam="2">  1       21 0.16195270E+00 0.48104824E+03</pdfrwt>
<totfact> 0.17139219E+03</totfact>
</mgrwt>
</event>
<event>
 6    1  0.9502611E-004  0.5465755E+03  0.7818608E-02  0.1002378E+00
         21   -1    0    0  503  502  0.00000000000E+00  0.00000000000E+00  0.15259751097E+04  0.15259751097E+04  0.00000000000E+00 0. -1.
         21   -1    0    0  501  503 -0.00000000000E+00 -0.00000000000E+00 -0.21352815090E+03  0.21352815090E+03  0.00000000000E+00 0.  1.
    9000007    2    1    2  501    0  0.36139761808E+03 -0.90202903233E+02  0.40079197194E+03  0.67655471190E+03  0.39792872642E+03 0.  0.
    9000005    1    3    3    0    0  0.31736578570E+02 -0.42938217363E+01  0.32625528487E+03  0.32782488958E+03  0.99999687468E+00 0.  0.
          4    1    3    3  501    0  0.32966103951E+03 -0.85909081497E+02  0.74536687068E+02  0.34872982232E+03  0.00000000000E+00 0.  1.
   -9000007    1    1    2    0  502 -0.36139761808E+03  0.90202903233E+02  0.91165498684E+03  0.10629485487E+04  0.40000000000E+03 0. -1.
<mgrwt>
<rscale>  2 0.54619663E+03</rscale>
<asrwt>0</asrwt>
<pdfrwt beam="1">  1       21 0.23476539E+00 0.54657552E+03</pdfrwt>
<pdfrwt beam="2">  1       21 0.32850486E-01 0.54657552E+03</pdfrwt>
<totfact> 0.57115850E+02</totfact>
</mgrwt>
</event>
<event>
 6    1  0.9502611E-004  0.5234664E+03  0.7818608E-02  0.1007847E+00
         21   -1    0    0  503  502  0.00000000000E+00  0.00000000000E+00  0.64280617567E+03  0.64280617567E+03  0.00000000000E+00 0. -1.
         21   -1    0    0  501  503 -0.00000000000E+00 -0.00000000000E+00 -0.48715406894E+03  0.48715406894E+03  0.00000000000E+00 0.  1.
    9000007    2    1    2  501    0  0.33269268640E+03 -0.54957230879E+02 -0.12226602887E+03  0.53755564392E+03  0.40039026922E+03 0.  0.
    9000005    1    3    3    0    0  0.10174462047E+03 -0.82304774356E+02  0.13686793144E+03  0.18936703601E+03  0.99999687468E+00 0.  0.
          4    1    3    3  501    0  0.23094806593E+03  0.27347543477E+02 -0.25913396031E+03  0.34818860791E+03  0.00000000000E+00 0.  1.
   -9000007    1    1    2    0  502 -0.33269268640E+03  0.54957230879E+02  0.27791813560E+03  0.59240460068E+03  0.40000000000E+03 0. -1.
<mgrwt>
<rscale>  2 0.52339179E+03</rscale>
<asrwt>0</asrwt>
<pdfrwt beam="1">  1       21 0.98893258E-01 0.52346642E+03</pdfrwt>
<pdfrwt beam="2">  1       21 0.74946780E-01 0.52346642E+03</pdfrwt>
<totfact> 0.11134037E+03</totfact>
</mgrwt>
</event>
<event>
 6    1  0.9502611E-004  0.4087298E+03  0.7818608E-02  0.1040809E+00
         21   -1    0    0  503  502  0.00000000000E+00  0.00000000000E+00  0.29393491047E+03  0.29393491047E+03  0.00000000000E+00 0.  1.
         21   -1    0    0  501  503 -0.00000000000E+00 -0.00000000000E+00 -0.76212569710E+03  0.76212569710E+03  0.00000000000E+00 0.  1.
    9000007    2    1    2  501    0 -0.32377623921E+02 -0.76827910445E+02 -0.50049995706E+03  0.64618901689E+03  0.40013647695E+03 0.  0.
    9000005    1    3    3    0    0 -0.94139958282E+02 -0.24215984528E+02  0.35945566596E+02  0.10364279716E+03  0.99999687468E+00 0.  0.
          4    1    3    3  501    0  0.61762334361E+02 -0.52611925917E+02 -0.53644552366E+03  0.54254621973E+03  0.00000000000E+00 0.  1.
   -9000007    1    1    2    0  502  0.32377623921E+02  0.76827910445E+02  0.32309170430E+02  0.40987159068E+03  0.40000000000E+03 0.  1.
<mgrwt>
<rscale>  2 0.40869638E+03</rscale>
<asrwt>0</asrwt>
<pdfrwt beam="1">  1       21 0.45220756E-01 0.40872979E+03</pdfrwt>
<pdfrwt beam="2">  1       21 0.11725011E+00 0.40872979E+03</pdfrwt>
<totfact> 0.23008333E+03</totfact>
</mgrwt>
</event>
<event>
 6    1  0.9502611E-004  0.4257297E+03  0.7818608E-02  0.1035268E+00
         21   -1    0    0  503  502  0.00000000000E+00  0.00000000000E+00  0.30218037589E+03  0.30218037589E+03  0.00000000000E+00 0.  1.
         21   -1    0    0  501  503 -0.00000000000E+00 -0.00000000000E+00 -0.60461147507E+03  0.60461147507E+03  0.00000000000E+00 0.  1.
    9000007    2    1    2  501    0 -0.10109692350E+03  0.10500093893E+03 -0.19518009006E+03  0.46776045792E+03  0.39932291859E+03 0.  0.
    9000005    1    3    3    0    0 -0.88834529342E+02 -0.13362377700E+03 -0.19621663949E+01  0.16047347903E+03  0.99999687468E+00 0.  0.
          4    1    3    3  501    0 -0.12262394162E+02  0.23862471593E+03 -0.19321792367E+03  0.30728697888E+03  0.00000000000E+00 0.  1.
   -9000007    1    1    2    0  502  0.10109692350E+03 -0.10500093893E+03 -0.10725100911E+03  0.43903139304E+03  0.40000000000E+03 0.  1.
<mgrwt>
<rscale>  2 0.42557060E+03</rscale>
<asrwt>0</asrwt>
<pdfrwt beam="1">  1       21 0.46489289E-01 0.42572971E+03</pdfrwt>
<pdfrwt beam="2">  1       21 0.93017150E-01 0.42572971E+03</pdfrwt>
<totfact> 0.38013943E+03</totfact>
</mgrwt>
</event>
<event>
 6    1  0.9502611E-004  0.4080665E+03  0.7818608E-02  0.1041052E+00
         21   -1    0    0  503  502  0.00000000000E+00  0.00000000000E+00  0.56893446616E+03  0.56893446616E+03  0.00000000000E+00 0. -1.
         21   -1    0    0  501  503 -0.00000000000E+00 -0.00000000000E+00 -0.38714761314E+03  0.38714761314E+03  0.00000000000E+00 0.  1.
    9000007    2    1    2  501    0  0.77664705249E+02  0.22056022207E+02  0.32731582723E+03  0.52284201086E+03  0.39963713918E+03 0.  0.
    9000005    1    3    3    0    0 -0.47656316627E+02 -0.15549606768E+03  0.23713661364E+03  0.28754986541E+03  0.99999687468E+00 0.  0.
          4    1    3    3  501    0  0.12532102188E+03  0.17755208989E+03  0.90179213597E+02  0.23529214545E+03  0.00000000000E+00 0.  1.
   -9000007    1    1    2    0  502 -0.77664705249E+02 -0.22056022207E+02 -0.14552897422E+03  0.43324006843E+03  0.40000000000E+03 0.  1.
<mgrwt>
<rscale>  2 0.40797756E+03</rscale>
<asrwt>0</asrwt>
<pdfrwt beam="1">  1       21 0.87528380E-01 0.40806651E+03</pdfrwt>
<pdfrwt beam="2">  1       21 0.59561171E-01 0.40806651E+03</pdfrwt>
<totfact> 0.25997160E+03</totfact>
</mgrwt>
</event>
<event>
 6    1  0.9502611E-004  0.4723935E+03  0.7818608E-02  0.1021257E+00
         21   -1    0    0  503  502  0.00000000000E+00  0.00000000000E+00  0.45942982575E+03  0.45942982575E+03  0.00000000000E+00 0.  1.
         21   -1    0    0  501  503 -0.00000000000E+00 -0.00000000000E+00 -0.48619488537E+03  0.48619488537E+03  0.00000000000E+00 0.  1.
    9000007    2    1    2  501    0 -0.25072979386E+03 -0.12397190527E+02 -0.30274829891E+02  0.47336266697E+03  0.40017062523E+03 0.  0.
    9000005    1    3    3    0    0  0.83927752050E+02 -0.95920762544E+02 -0.96723793134E+01  0.12782493953E+03  0.99999687468E+00 0.  0.
          4    1    3    3  501    0 -0.33465754591E+03  0.83523572017E+02 -0.20602450577E+02  0.34553772744E+03  0.00000000000E+00 0.  1.
   -9000007    1    1    2    0  502  0.25072979386E+03  0.12397190527E+02  0.35097702706E+01  0.47226204415E+03  0.40000000000E+03 0.  1.
<mgrwt>
<rscale>  2 0.47235740E+03</rscale>
<asrwt>0</asrwt>
<pdfrwt beam="1">  1       21 0.70681512E-01 0.47239353E+03</pdfrwt>
<pdfrwt beam="2">  1       21 0.74799213E-01 0.47239353E+03</pdfrwt>
<totfact> 0.24972417E+03</totfact>
</mgrwt>
</event>
<event>
 6    1  0.9502611E-004  0.4655073E+03  0.7818608E-02  0.1023227E+00
         21   -1    0    0  503  502  0.00000000000E+00  0.00000000000E+00  0.17967467856E+04  0.17967467856E+04  0.00000000000E+00 0.  1.
         21   -1    0    0  501  503 -0.00000000000E+00 -0.00000000000E+00 -0.34940695624E+03  0.34940695624E+03  0.00000000000E+00 0.  1.
    9000007    2    1    2  501    0  0.19032084812E+03 -0.14169400808E+03 -0.14477534577E+03  0.48750068950E+03  0.40049694677E+03 0.  0.
    9000005    1    3    3    0    0  0.10538842874E+03  0.13682078474E+03 -0.73699551110E+02  0.18777452404E+03  0.99999687468E+00 0.  0.
          4    1    3    3  501    0  0.84932419378E+02 -0.27851479282E+03 -0.71075794658E+02  0.29972616547E+03  0.00000000000E+00 0.  1.
   -9000007    1    1    2    0  502 -0.19032084812E+03  0.14169400808E+03  0.15921151752E+04  0.16586530524E+04  0.40000000000E+03 0.  1.
<mgrwt>
<rscale>  2 0.46540037E+03</rscale>
<asrwt>0</asrwt>
<pdfrwt beam="1">  1       21 0.27642258E+00 0.46550727E+03</pdfrwt>
<pdfrwt beam="2">  1       21 0.53754917E-01 0.46550727E+03</pdfrwt>
<totfact> 0.11826602E+02</totfact>
</mgrwt>
</event>
<event>
 6    1  0.9502611E-004  0.4390230E+03  0.7818608E-02  0.1031056E+00
         21   -1    0    0  503  502  0.00000000000E+00  0.00000000000E+00  0.17173576025E+04  0.17173576025E+04  0.00000000000E+00 0. -1.
         21   -1    0    0  501  503 -0.00000000000E+00 -0.00000000000E+00 -0.11220111321E+03  0.11220111321E+03  0.00000000000E+00 0. -1.
    9000007    2    1    2  501    0 -0.16627889166E+03 -0.71361714078E+02  0.80569510894E+03  0.91748434225E+03  0.39986465917E+03 0.  0.
    9000005    1    3    3    0    0  0.13280911662E+03 -0.32721751885E+02  0.27289641858E+03  0.30525797249E+03  0.99999687468E+00 0.  0.
          4    1    3    3  501    0 -0.29908800828E+03 -0.38639962193E+02  0.53279869036E+03  0.61222636975E+03  0.00000000000E+00 0.  1.
   -9000007    1    1    2    0  502  0.16627889166E+03  0.71361714078E+02  0.79946138038E+03  0.91207437349E+03  0.40000000000E+03 0.  1.
<mgrwt>
<rscale>  2 0.43899214E+03</rscale>
<asrwt>0</asrwt>
<pdfrwt beam="1">  1       21 0.26420884E+00 0.43902297E+03</pdfrwt>
<pdfrwt beam="2">  1       21 0.17261711E-01 0.43902297E+03</pdfrwt>
<totfact> 0.13773397E+03</totfact>
</mgrwt>
</event>
<event>
 6    1  0.9502611E-004  0.4884389E+03  0.7818608E-02  0.1016881E+00
         21   -1    0    0  503  502  0.00000000000E+00  0.00000000000E+00  0.20237671346E+03  0.20237671346E+03  0.00000000000E+00 0. -1.
         21   -1    0    0  501  503 -0.00000000000E+00 -0.00000000000E+00 -0.12123828874E+04  0.12123828874E+04  0.00000000000E+00 0.  1.
    9000007    2    1    2  501    0  0.14918592545E+03 -0.23731009964E+03 -0.38459571808E+03  0.62121643124E+03  0.39927868004E+03 0.  0.
    9000005    1    3    3    0    0  0.10788973635E+03 -0.97710788059E+02  0.56937529187E+02  0.15630251289E+03  0.99999687468E+00 0.  0.
          4    1    3    3  501    0  0.41296189100E+02 -0.13959931158E+03 -0.44153324727E+03  0.46491391835E+03  0.00000000000E+00 0.  1.
   -9000007    1    1    2    0  502 -0.14918592545E+03  0.23731009964E+03 -0.62541045584E+03  0.79354316960E+03  0.40000000000E+03 0. -1.
<mgrwt>
<rscale>  2 0.48829116E+03</rscale>
<asrwt>0</asrwt>
<pdfrwt beam="1">  1       21 0.31134879E-01 0.48843886E+03</pdfrwt>
<pdfrwt beam="2">  1       21 0.18652044E+00 0.48843886E+03</pdfrwt>
<totfact> 0.13515913E+03</totfact>
</mgrwt>
</event>
<event>
 6    1  0.9502611E-004  0.4676055E+03  0.7818608E-02  0.1023149E+00
         21   -1    0    0  503  502  0.00000000000E+00  0.00000000000E+00  0.18228568934E+03  0.18228568934E+03  0.00000000000E+00 0.  1.
         21   -1    0    0  501  503 -0.00000000000E+00 -0.00000000000E+00 -0.13004365934E+04  0.13004365934E+04  0.00000000000E+00 0.  1.
    9000007    2    1    2  501    0 -0.18001841155E+03 -0.16201307449E+03 -0.78059577245E+03  0.90600889491E+03  0.39098272710E+03 0.  0.
    9000005    1    3    3    0    0 -0.58668197824E+02  0.86731606113E+02 -0.50384993711E+03  0.51461644752E+03  0.99999687468E+00 0.  0.
          4    1    3    3  501    0 -0.12135021373E+03 -0.24874468060E+03 -0.27674583534E+03  0.39139244740E+03  0.00000000000E+00 0.  1.
   -9000007    1    1    2    0  502  0.18001841155E+03  0.16201307449E+03 -0.33755513158E+03  0.57671338779E+03  0.40000000000E+03 0.  1.
<mgrwt>
<rscale>  2 0.46567102E+03</rscale>
<asrwt>0</asrwt>
<pdfrwt beam="1">  1       21 0.28043953E-01 0.46760546E+03</pdfrwt>
<pdfrwt beam="2">  1       21 0.20006716E+00 0.46760546E+03</pdfrwt>
<totfact> 0.13572633E+03</totfact>
</mgrwt>
</event>
<event>
 6    1  0.9502611E-004  0.4149646E+03  0.7818608E-02  0.1039536E+00
         21   -1    0    0  503  502  0.00000000000E+00  0.00000000000E+00  0.29916121155E+03  0.29916121155E+03  0.00000000000E+00 0.  1.
         21   -1    0    0  501  503 -0.00000000000E+00 -0.00000000000E+00 -0.10795282747E+04  0.10795282747E+04  0.00000000000E+00 0.  1.
    9000007    2    1    2  501    0  0.10878045615E+03 -0.19037238140E+02 -0.86498617380E+03  0.95518506134E+03  0.38984845322E+03 0.  0.
    9000005    1    3    3    0    0  0.22218382571E+03 -0.54856134686E+02 -0.29734552425E+03  0.37522021362E+03  0.99999687468E+00 0.  0.
          4    1    3    3  501    0 -0.11340336957E+03  0.35818896546E+02 -0.56764064955E+03  0.57996484773E+03  0.00000000000E+00 0.  1.
   -9000007    1    1    2    0  502 -0.10878045615E+03  0.19037238140E+02  0.84619110603E+02  0.42350442495E+03  0.40000000000E+03 0.  1.
<mgrwt>
<rscale>  2 0.41249857E+03</rscale>
<asrwt>0</asrwt>
<pdfrwt beam="1">  1       21 0.46024802E-01 0.41496458E+03</pdfrwt>
<pdfrwt beam="2">  1       21 0.16608127E+00 0.41496458E+03</pdfrwt>
<totfact> 0.87786781E+02</totfact>
</mgrwt>
</event>
<event>
 6    1  0.9502611E-004  0.5072159E+03  0.7818608E-02  0.1011912E+00
         21   -1    0    0  503  502  0.00000000000E+00  0.00000000000E+00  0.17422728064E+03  0.17422728064E+03  0.00000000000E+00 0. -1.
         21   -1    0    0  501  503 -0.00000000000E+00 -0.00000000000E+00 -0.15303204133E+04  0.15303204133E+04  0.00000000000E+00 0. -1.
    9000007    2    1    2  501    0  0.29448259559E+03 -0.10269836320E+03 -0.83770019976E+03  0.97929037010E+03  0.40000131421E+03 0.  0.
    9000005    1    3    3    0    0  0.10438332358E+03 -0.10949161685E+03 -0.36231066819E+02  0.15555700755E+03  0.99999687468E+00 0.  0.
          4    1    3    3  501    0  0.19009927202E+03  0.67932536439E+01 -0.80146913295E+03  0.82373336255E+03  0.00000000000E+00 0.  1.
   -9000007    1    1    2    0  502 -0.29448259559E+03  0.10269836320E+03 -0.51839293294E+03  0.72525732387E+03  0.40000000000E+03 0.  1.
<mgrwt>
<rscale>  2 0.50721568E+03</rscale>
<asrwt>0</asrwt>
<pdfrwt beam="1">  1       21 0.26804197E-01 0.50721593E+03</pdfrwt>
<pdfrwt beam="2">  1       21 0.23543391E+00 0.50721593E+03</pdfrwt>
<totfact> 0.86219339E+02</totfact>
</mgrwt>
</event>
<event>
 6    1  0.9502611E-004  0.9383779E+03  0.7818608E-02  0.9379052E-01
         21   -1    0    0  503  502  0.00000000000E+00  0.00000000000E+00  0.23736773006E+04  0.23736773006E+04  0.00000000000E+00 0. -1.
         21   -1    0    0  501  503 -0.00000000000E+00 -0.00000000000E+00 -0.56601380867E+03  0.56601380867E+03  0.00000000000E+00 0.  1.
    9000007    2    1    2  501    0  0.74468092737E+03  0.40743518898E+03  0.40141591744E+02  0.93851975617E+03  0.39831503680E+03 0.  0.
    9000005    1    3    3    0    0  0.38283946634E+02 -0.47511474896E+02 -0.67999565658E+02  0.91367071422E+02  0.99999687468E+00 0.  0.
          4    1    3    3  501    0  0.70639698073E+03  0.45494666387E+03  0.10814115740E+03  0.84715268475E+03  0.00000000000E+00 0.  1.
   -9000007    1    1    2    0  502 -0.74468092737E+03 -0.40743518898E+03  0.17675219002E+04  0.20011713531E+04  0.40000000000E+03 0. -1.
<mgrwt>
<rscale>  2 0.93819861E+03</rscale>
<asrwt>0</asrwt>
<pdfrwt beam="1">  1       21 0.36518112E+00 0.93837792E+03</pdfrwt>
<pdfrwt beam="2">  1       21 0.87079049E-01 0.93837792E+03</pdfrwt>
<totfact> 0.90923615E+00</totfact>
</mgrwt>
</event>
<event>
 6    1  0.9502611E-004  0.4213206E+03  0.7818608E-02  0.1036777E+00
         21   -1    0    0  503  502  0.00000000000E+00  0.00000000000E+00  0.35562034738E+03  0.35562034738E+03  0.00000000000E+00 0.  1.
         21   -1    0    0  501  503 -0.00000000000E+00 -0.00000000000E+00 -0.18278604699E+04  0.18278604699E+04  0.00000000000E+00 0.  1.
    9000007    2    1    2  501    0  0.71269581398E+02  0.11149744283E+03 -0.16672337294E+04  0.17192249183E+04  0.39818962605E+03 0.  0.
    9000005    1    3    3    0    0 -0.14144196185E+03  0.12868063084E+03 -0.10184122767E+04  0.10362090034E+04  0.99999687468E+00 0.  0.
          4    1    3    3  501    0  0.21271154325E+03 -0.17183188008E+02 -0.64882145265E+03  0.68301591490E+03  0.00000000000E+00 0.  1.
   -9000007    1    1    2    0  502 -0.71269581398E+02 -0.11149744283E+03  0.19499360689E+03  0.46425589896E+03  0.40000000000E+03 0.  1.
<mgrwt>
<rscale>  2 0.42089033E+03</rscale>
<asrwt>0</asrwt>
<pdfrwt beam="1">  1       21 0.54710824E-01 0.42132058E+03</pdfrwt>
<pdfrwt beam="2">  1       21 0.28120930E+00 0.42132058E+03</pdfrwt>
<totfact> 0.10956421E+02</totfact>
</mgrwt>
</event>
<event>
 6    1  0.9502611E-004  0.4617780E+03  0.7818608E-02  0.1024286E+00
         21   -1    0    0  503  502  0.00000000000E+00  0.00000000000E+00  0.41371167310E+03  0.41371167310E+03  0.00000000000E+00 0. -1.
         21   -1    0    0  501  503 -0.00000000000E+00 -0.00000000000E+00 -0.53870886021E+03  0.53870886021E+03  0.00000000000E+00 0. -1.
    9000007    2    1    2  501    0  0.22569703561E+03 -0.47956382210E+02 -0.16212039182E+03  0.48915268551E+03  0.39968532850E+03 0.  0.
    9000005    1    3    3    0    0  0.13943201064E+03 -0.20055753727E+03 -0.19280610619E+03  0.31119094769E+03  0.99999687468E+00 0.  0.
          4    1    3    3  501    0  0.86265024977E+02  0.15260115506E+03  0.30685714374E+02  0.17796173782E+03  0.00000000000E+00 0.  1.
   -9000007    1    1    2    0  502 -0.22569703561E+03  0.47956382210E+02  0.37123204716E+02  0.46326784780E+03  0.40000000000E+03 0. -1.
<mgrwt>
<rscale>  2 0.46170990E+03</rscale>
<asrwt>0</asrwt>
<pdfrwt beam="1">  1       21 0.63647950E-01 0.46177805E+03</pdfrwt>
<pdfrwt beam="2">  1       21 0.82878286E-01 0.46177805E+03</pdfrwt>
<totfact> 0.25015965E+03</totfact>
</mgrwt>
</event>
<event>
 6    1  0.9502611E-004  0.4553599E+03  0.7818608E-02  0.1026212E+00
         21   -1    0    0  503  502  0.00000000000E+00  0.00000000000E+00  0.44135221521E+03  0.44135221521E+03  0.00000000000E+00 0.  1.
         21   -1    0    0  501  503 -0.00000000000E+00 -0.00000000000E+00 -0.66934202149E+03  0.66934202149E+03  0.00000000000E+00 0.  1.
    9000007    2    1    2  501    0  0.21311950171E+03 -0.31527460586E+02  0.18993248642E+03  0.49338317612E+03  0.40117166688E+03 0.  0.
    9000005    1    3    3    0    0 -0.11641929386E+03  0.24759581327E+02  0.70726893903E+02  0.13845498317E+03  0.99999687468E+00 0.  0.
          4    1    3    3  501    0  0.32953879556E+03 -0.56287041914E+02  0.11920559252E+03  0.35492819296E+03  0.00000000000E+00 0.  1.
   -9000007    1    1    2    0  502 -0.21311950171E+03  0.31527460586E+02 -0.41792229270E+03  0.61731106058E+03  0.40000000000E+03 0.  1.
<mgrwt>
<rscale>  2 0.45510167E+03</rscale>
<asrwt>0</asrwt>
<pdfrwt beam="1">  1       21 0.67900341E-01 0.45535987E+03</pdfrwt>
<pdfrwt beam="2">  1       21 0.10297569E+00 0.45535987E+03</pdfrwt>
<totfact> 0.12934367E+03</totfact>
</mgrwt>
</event>
<event>
 6    1  0.9502611E-004  0.4648542E+03  0.7818608E-02  0.1023470E+00
         21   -1    0    0  503  502  0.00000000000E+00  0.00000000000E+00  0.73964832382E+03  0.73964832382E+03  0.00000000000E+00 0.  1.
         21   -1    0    0  501  503 -0.00000000000E+00 -0.00000000000E+00 -0.47167224970E+03  0.47167224970E+03  0.00000000000E+00 0.  1.
    9000007    2    1    2  501    0  0.22062372057E+03 -0.79278967066E+02 -0.24034861375E+03  0.52331332864E+03  0.40140927132E+03 0.  0.
    9000005    1    3    3    0    0 -0.63913243308E+02 -0.60055636274E+02 -0.22065650159E+03  0.23744867615E+03  0.99999687468E+00 0.  0.
          4    1    3    3  501    0  0.28453696388E+03 -0.19223330792E+02 -0.19692112161E+02  0.28586465249E+03  0.00000000000E+00 0.  1.
   -9000007    1    1    2    0  502 -0.22062372057E+03  0.79278967066E+02  0.50832468787E+03  0.68800724487E+03  0.40000000000E+03 0.  1.
<mgrwt>
<rscale>  2 0.46454976E+03</rscale>
<asrwt>0</asrwt>
<pdfrwt beam="1">  1       21 0.11379205E+00 0.46485415E+03</pdfrwt>
<pdfrwt beam="2">  1       21 0.72564961E-01 0.46485415E+03</pdfrwt>
<totfact> 0.86623598E+02</totfact>
</mgrwt>
</event>
<event>
 6    1  0.9502611E-004  0.5966645E+03  0.7818608E-02  0.9912593E-01
         21   -1    0    0  503  502  0.00000000000E+00  0.00000000000E+00  0.84455560251E+03  0.84455560251E+03  0.00000000000E+00 0.  1.
         21   -1    0    0  501  503 -0.00000000000E+00 -0.00000000000E+00 -0.42490502915E+03  0.42490502915E+03  0.00000000000E+00 0.  1.
    9000007    2    1    2  501    0 -0.18735941561E+03 -0.40043762991E+03  0.15067685179E+03  0.61539587266E+03  0.40069280049E+03 0.  0.
    9000005    1    3    3    0    0  0.83934976284E+02  0.22230246743E+02  0.58662418118E+02  0.10479285952E+03  0.99999687468E+00 0.  0.
          4    1    3    3  501    0 -0.27129439189E+03 -0.42266787665E+03  0.92014433674E+02  0.51060301314E+03  0.00000000000E+00 0.  1.
   -9000007    1    1    2    0  502  0.18735941561E+03  0.40043762991E+03  0.26897372156E+03  0.65406475899E+03  0.40000000000E+03 0.  1.
<mgrwt>
<rscale>  2 0.59654824E+03</rscale>
<asrwt>0</asrwt>
<pdfrwt beam="1">  1       21 0.12993163E+00 0.59666453E+03</pdfrwt>
<pdfrwt beam="2">  1       21 0.65370005E-01 0.59666453E+03</pdfrwt>
<totfact> 0.74411265E+02</totfact>
</mgrwt>
</event>
<event>
 6    1  0.9502611E-004  0.4816748E+03  0.7818608E-02  0.1018721E+00
         21   -1    0    0  503  502  0.00000000000E+00  0.00000000000E+00  0.20055133065E+03  0.20055133065E+03  0.00000000000E+00 0. -1.
         21   -1    0    0  501  503 -0.00000000000E+00 -0.00000000000E+00 -0.14472665388E+04  0.14472665388E+04  0.00000000000E+00 0. -1.
    9000007    2    1    2  501    0 -0.25971735710E+03 -0.67509624915E+02 -0.99308680124E+03  0.11034484877E+04  0.39920735855E+03 0.  0.
    9000005    1    3    3    0    0 -0.29849646568E+03 -0.17998034996E+03 -0.61289326991E+03  0.70507604320E+03  0.99999687468E+00 0.  0.
          4    1    3    3  501    0  0.38779108575E+02  0.11247072505E+03 -0.38019353133E+03  0.39837244448E+03  0.00000000000E+00 0.  1.
   -9000007    1    1    2    0  502  0.25971735710E+03  0.67509624915E+02 -0.25362840692E+03  0.54436938180E+03  0.40000000000E+03 0. -1.
<mgrwt>
<rscale>  2 0.48151025E+03</rscale>
<asrwt>0</asrwt>
<pdfrwt beam="1">  1       21 0.30854051E-01 0.48167484E+03</pdfrwt>
<pdfrwt beam="2">  1       21 0.22265639E+00 0.48167484E+03</pdfrwt>
<totfact> 0.79489208E+02</totfact>
</mgrwt>
</event>
<event>
 6    1  0.9502611E-004  0.4774758E+03  0.7818608E-02  0.1019834E+00
         21   -1    0    0  503  502  0.00000000000E+00  0.00000000000E+00  0.14512296354E+03  0.14512296354E+03  0.00000000000E+00 0.  1.
         21   -1    0    0  501  503 -0.00000000000E+00 -0.00000000000E+00 -0.19132224169E+04  0.19132224169E+04  0.00000000000E+00 0. -1.
    9000007    2    1    2  501    0 -0.17502210110E+03 -0.19326257929E+03 -0.13193990879E+04  0.14031239076E+04  0.39994948018E+03 0.  0.
    9000005    1    3    3    0    0 -0.11197451358E+03 -0.22377256419E+03 -0.13085341827E+04  0.13322444068E+04  0.99999687468E+00 0.  0.
          4    1    3    3  501    0 -0.63047587522E+02  0.30509984897E+02 -0.10864905135E+02  0.70879500805E+02  0.00000000000E+00 0.  1.
   -9000007    1    1    2    0  502  0.17502210110E+03  0.19326257929E+03 -0.44870036550E+03  0.65522147281E+03  0.40000000000E+03 0.  1.
<mgrwt>
<rscale>  2 0.47746524E+03</rscale>
<asrwt>0</asrwt>
<pdfrwt beam="1">  1       21 0.22326612E-01 0.47747582E+03</pdfrwt>
<pdfrwt beam="2">  1       21 0.29434188E+00 0.47747582E+03</pdfrwt>
<totfact> 0.54447037E+02</totfact>
</mgrwt>
</event>
<event>
 6    1  0.9502611E-004  0.4739463E+03  0.7818608E-02  0.1020913E+00
         21   -1    0    0  503  502  0.00000000000E+00  0.00000000000E+00  0.27910263267E+03  0.27910263267E+03  0.00000000000E+00 0.  1.
         21   -1    0    0  501  503 -0.00000000000E+00 -0.00000000000E+00 -0.87792622828E+03  0.87792622828E+03  0.00000000000E+00 0.  1.
    9000007    2    1    2  501    0  0.24947142112E+03 -0.48878766426E+02 -0.46872051193E+03  0.66554952654E+03  0.39828649262E+03 0.  0.
    9000005    1    3    3    0    0  0.29220222077E+03 -0.17325298108E+03 -0.35936693934E+03  0.49451423676E+03  0.99999687468E+00 0.  0.
          4    1    3    3  501    0 -0.42730799646E+02  0.12437421466E+03 -0.10935357259E+03  0.17103528978E+03  0.00000000000E+00 0.  1.
   -9000007    1    1    2    0  502 -0.24947142112E+03  0.48878766426E+02 -0.13010308368E+03  0.49147933440E+03  0.40000000000E+03 0.  1.
<mgrwt>
<rscale>  2 0.47358460E+03</rscale>
<asrwt>0</asrwt>
<pdfrwt beam="1">  1       21 0.42938867E-01 0.47394633E+03</pdfrwt>
<pdfrwt beam="2">  1       21 0.13506557E+00 0.47394633E+03</pdfrwt>
<totfact> 0.17364251E+03</totfact>
</mgrwt>
</event>
<event>
 6    1  0.9502611E-004  0.4063832E+03  0.7818608E-02  0.1041706E+00
         21   -1    0    0  503  502  0.00000000000E+00  0.00000000000E+00  0.60479144380E+03  0.60479144380E+03  0.00000000000E+00 0.  1.
         21   -1    0    0  501  503 -0.00000000000E+00 -0.00000000000E+00 -0.34836950279E+03  0.34836950279E+03  0.00000000000E+00 0.  1.
    9000007    2    1    2  501    0  0.13296579053E+02 -0.62273180596E+02 -0.94526720976E+02  0.41723211606E+03  0.40136341345E+03 0.  0.
    9000005    1    3    3    0    0  0.10821409627E+03  0.70068890833E+02  0.10026909949E+03  0.16332431662E+03  0.99999687468E+00 0.  0.
          4    1    3    3  501    0 -0.94917517221E+02 -0.13234207143E+03 -0.19479582046E+03  0.25390779944E+03  0.00000000000E+00 0.  1.
   -9000007    1    1    2    0  502 -0.13296579053E+02  0.62273180596E+02  0.35094866199E+03  0.53592883053E+03  0.40000000000E+03 0.  1.
<mgrwt>
<rscale>  2 0.40604619E+03</rscale>
<asrwt>0</asrwt>
<pdfrwt beam="1">  1       21 0.93044837E-01 0.40638324E+03</pdfrwt>
<pdfrwt beam="2">  1       21 0.53595308E-01 0.40638324E+03</pdfrwt>
<totfact> 0.28292658E+03</totfact>
</mgrwt>
</event>
<event>
 6    1  0.9502611E-004  0.4600636E+03  0.7818608E-02  0.1025076E+00
         21   -1    0    0  503  502  0.00000000000E+00  0.00000000000E+00  0.22658802515E+03  0.22658802515E+03  0.00000000000E+00 0. -1.
         21   -1    0    0  501  503 -0.00000000000E+00 -0.00000000000E+00 -0.13914051331E+04  0.13914051331E+04  0.00000000000E+00 0. -1.
    9000007    2    1    2  501    0  0.70021207659E+02 -0.20692740883E+03 -0.10524034229E+04  0.11485693000E+04  0.40489078813E+03 0.  0.
    9000005    1    3    3    0    0 -0.14795392782E+03 -0.11104485202E+03 -0.69426018790E+03  0.71848419079E+03  0.99999687468E+00 0.  0.
          4    1    3    3  501    0  0.21797513548E+03 -0.95882556811E+02 -0.35814323504E+03  0.43008510925E+03  0.00000000000E+00 0.  1.
   -9000007    1    1    2    0  502 -0.70021207659E+02  0.20692740883E+03 -0.11241368497E+03  0.46942385817E+03  0.40000000000E+03 0. -1.
<mgrwt>
<rscale>  2 0.45898518E+03</rscale>
<asrwt>0</asrwt>
<pdfrwt beam="1">  1       21 0.34859696E-01 0.46006355E+03</pdfrwt>
<pdfrwt beam="2">  1       21 0.21406233E+00 0.46006355E+03</pdfrwt>
<totfact> 0.71351939E+02</totfact>
</mgrwt>
</event>
<event>
 6    1  0.9502611E-004  0.6405085E+03  0.7818608E-02  0.9824787E-01
         21   -1    0    0  503  502  0.00000000000E+00  0.00000000000E+00  0.65902847363E+03  0.65902847363E+03  0.00000000000E+00 0. -1.
         21   -1    0    0  501  503 -0.00000000000E+00 -0.00000000000E+00 -0.11154846965E+04  0.11154846965E+04  0.00000000000E+00 0.  1.
    9000007    2    1    2  501    0  0.38876225894E+03 -0.31482542717E+03 -0.81809605746E+03  0.10389626868E+04  0.39988893668E+03 0.  0.
    9000005    1    3    3    0    0  0.27067467675E+03 -0.26922982887E+02 -0.17198762569E+03  0.32182350913E+03  0.99999687468E+00 0.  0.
          4    1    3    3  501    0  0.11808758218E+03 -0.28790244428E+03 -0.64610843177E+03  0.71713917763E+03  0.00000000000E+00 0.  1.
   -9000007    1    1    2    0  502 -0.38876225894E+03  0.31482542717E+03  0.36163983462E+03  0.73555048334E+03  0.40000000000E+03 0. -1.
<mgrwt>
<rscale>  2 0.64049116E+03</rscale>
<asrwt>0</asrwt>
<pdfrwt beam="1">  1       21 0.10138900E+00 0.64050850E+03</pdfrwt>
<pdfrwt beam="2">  1       21 0.17161303E+00 0.64050850E+03</pdfrwt>
<totfact> 0.12219516E+02</totfact>
</mgrwt>
</event>
<event>
 6    1  0.9502611E-004  0.5084952E+03  0.7818608E-02  0.1011770E+00
         21   -1    0    0  503  502  0.00000000000E+00  0.00000000000E+00  0.36709278190E+04  0.36709278190E+04  0.00000000000E+00 0. -1.
         21   -1    0    0  501  503 -0.00000000000E+00 -0.00000000000E+00 -0.25483541489E+03  0.25483541489E+03  0.00000000000E+00 0.  1.
    9000007    2    1    2  501    0 -0.30398842971E+03 -0.78475301020E+02  0.35182023488E+02  0.50682738481E+03  0.39631917055E+03 0.  0.
    9000005    1    3    3    0    0 -0.17293474030E+03  0.59047033017E+01 -0.17437386213E+03  0.24565938555E+03  0.99999687468E+00 0.  0.
          4    1    3    3  501    0 -0.13105368941E+03 -0.84380004321E+02  0.20955588562E+03  0.26116799925E+03  0.00000000000E+00 0.  1.
   -9000007    1    1    2    0  502  0.30398842971E+03  0.78475301020E+02  0.33809103807E+04  0.34189358491E+04  0.40000000000E+03 0. -1.
<mgrwt>
<rscale>  2 0.50777103E+03</rscale>
<asrwt>0</asrwt>
<pdfrwt beam="1">  1       21 0.56475809E+00 0.50849517E+03</pdfrwt>
<pdfrwt beam="2">  1       21 0.39205451E-01 0.50849517E+03</pdfrwt>
<totfact> 0.27083953E+00</totfact>
</mgrwt>
</event>
<event>
 6    1  0.9502611E-004  0.4163548E+03  0.7818608E-02  0.1038275E+00
         21   -1    0    0  503  502  0.00000000000E+00  0.00000000000E+00  0.11698865205E+04  0.11698865205E+04  0.00000000000E+00 0.  1.
         21   -1    0    0  501  503 -0.00000000000E+00 -0.00000000000E+00 -0.18605875690E+03  0.18605875690E+03  0.00000000000E+00 0.  1.
    9000007    2    1    2  501    0 -0.11509342557E+03 -0.10239746468E+02  0.18564448846E+03  0.45569648417E+03  0.39980502819E+03 0.  0.
    9000005    1    3    3    0    0  0.96645837157E+02 -0.45804832970E+02  0.21389014568E+03  0.23914116119E+03  0.99999687468E+00 0.  0.
          4    1    3    3  501    0 -0.21173926272E+03  0.35565086503E+02 -0.28245657219E+02  0.21655532297E+03  0.00000000000E+00 0.  1.
   -9000007    1    1    2    0  502  0.11509342557E+03  0.10239746468E+02  0.79818327516E+03  0.90024879326E+03  0.40000000000E+03 0.  1.
<mgrwt>
<rscale>  2 0.41630800E+03</rscale>
<asrwt>0</asrwt>
<pdfrwt beam="1">  1       21 0.17998254E+00 0.41635484E+03</pdfrwt>
<pdfrwt beam="2">  1       21 0.28624425E-01 0.41635484E+03</pdfrwt>
<totfact> 0.18294458E+03</totfact>
</mgrwt>
</event>
<event>
 6    1  0.9502611E-004  0.4305643E+03  0.7818608E-02  0.1033710E+00
         21   -1    0    0  503  502  0.00000000000E+00  0.00000000000E+00  0.63522526893E+03  0.63522526893E+03  0.00000000000E+00 0. -1.
         21   -1    0    0  501  503 -0.00000000000E+00 -0.00000000000E+00 -0.52204767142E+03  0.52204767142E+03  0.00000000000E+00 0. -1.
    9000007    2    1    2  501    0  0.14321402066E+03 -0.69823570279E+02 -0.32787424737E+03  0.54090266482E+03  0.39961054045E+03 0.  0.
    9000005    1    3    3    0    0  0.19819839166E+03  0.12339343604E+02 -0.14331391177E+00  0.19858469828E+03  0.99999687468E+00 0.  0.
          4    1    3    3  501    0 -0.54984370997E+02 -0.82162913882E+02 -0.32773093346E+03  0.34231796654E+03  0.00000000000E+00 0.  1.
   -9000007    1    1    2    0  502 -0.14321402066E+03  0.69823570279E+02  0.44105184488E+03  0.61637027553E+03  0.40000000000E+03 0. -1.
<mgrwt>
<rscale>  2 0.43047379E+03</rscale>
<asrwt>0</asrwt>
<pdfrwt beam="1">  1       21 0.97726964E-01 0.43056427E+03</pdfrwt>
<pdfrwt beam="2">  1       21 0.80315026E-01 0.43056427E+03</pdfrwt>
<totfact> 0.10130072E+03</totfact>
</mgrwt>
</event>
<event>
 6    1  0.9502611E-004  0.4791938E+03  0.7818608E-02  0.1019381E+00
         21   -1    0    0  503  502  0.00000000000E+00  0.00000000000E+00  0.10000804119E+04  0.10000804119E+04  0.00000000000E+00 0. -1.
         21   -1    0    0  501  503 -0.00000000000E+00 -0.00000000000E+00 -0.34652454558E+03  0.34652454558E+03  0.00000000000E+00 0. -1.
    9000007    2    1    2  501    0 -0.18764485938E+03 -0.18461909011E+03 -0.64514954767E+02  0.48351718339E+03  0.40041464203E+03 0.  0.
    9000005    1    3    3    0    0 -0.87100652145E+02 -0.18487137141E+03 -0.21877796951E+03  0.29938060643E+03  0.99999687468E+00 0.  0.
          4    1    3    3  501    0 -0.10054420724E+03  0.25228129789E+00  0.15426301474E+03  0.18413657696E+03  0.00000000000E+00 0.  1.
   -9000007    1    1    2    0  502  0.18764485938E+03  0.18461909011E+03  0.71807082107E+03  0.86308777408E+03  0.40000000000E+03 0. -1.
<mgrwt>
<rscale>  2 0.47910716E+03</rscale>
<asrwt>0</asrwt>
<pdfrwt beam="1">  1       21 0.15385852E+00 0.47919379E+03</pdfrwt>
<pdfrwt beam="2">  1       21 0.53311469E-01 0.47919379E+03</pdfrwt>
<totfact> 0.77229071E+02</totfact>
</mgrwt>
</event>
<event>
 6    1  0.9502611E-004  0.4520944E+03  0.7818608E-02  0.1027116E+00
         21   -1    0    0  503  502  0.00000000000E+00  0.00000000000E+00  0.97824506720E+03  0.97824506720E+03  0.00000000000E+00 0.  1.
         21   -1    0    0  501  503 -0.00000000000E+00 -0.00000000000E+00 -0.21987311049E+03  0.21987311049E+03  0.00000000000E+00 0.  1.
    9000007    2    1    2  501    0 -0.92220707057E+02  0.18889498398E+03  0.24502562746E+03  0.51422459858E+03  0.40025417661E+03 0.  0.
    9000005    1    3    3    0    0 -0.12901977901E+03 -0.93731548195E+02  0.43949130015E+02  0.16542137868E+03  0.99999687468E+00 0.  0.
          4    1    3    3  501    0  0.36799071954E+02  0.28262653217E+03  0.20107649744E+03  0.34880321989E+03  0.00000000000E+00 0.  1.
   -9000007    1    1    2    0  502  0.92220707057E+02 -0.18889498398E+03  0.51334632926E+03  0.68389357911E+03  0.40000000000E+03 0.  1.
<mgrwt>
<rscale>  2 0.45203817E+03</rscale>
<asrwt>0</asrwt>
<pdfrwt beam="1">  1       21 0.15049924E+00 0.45209444E+03</pdfrwt>
<pdfrwt beam="2">  1       21 0.33826633E-01 0.45209444E+03</pdfrwt>
<totfact> 0.21365265E+03</totfact>
</mgrwt>
</event>
<event>
 6    1  0.9502611E-004  0.5324799E+03  0.7818608E-02  0.1005677E+00
         21   -1    0    0  503  502  0.00000000000E+00  0.00000000000E+00  0.23782003659E+04  0.23782003659E+04  0.00000000000E+00 0.  1.
         21   -1    0    0  501  503 -0.00000000000E+00 -0.00000000000E+00 -0.19089539228E+03  0.19089539228E+03  0.00000000000E+00 0. -1.
    9000007    2    1    2  501    0  0.33102484492E+03 -0.11477083562E+03  0.30611879407E+03  0.61420158334E+03  0.40098014444E+03 0.  0.
    9000005    1    3    3    0    0  0.18229022470E+03  0.14055045325E+03  0.18312024412E+03  0.29413972824E+03  0.99999687468E+00 0.  0.
          4    1    3    3  501    0  0.14873462022E+03 -0.25532128887E+03  0.12299854995E+03  0.32006185510E+03  0.00000000000E+00 0.  1.
   -9000007    1    1    2    0  502 -0.33102484492E+03  0.11477083562E+03  0.18811861795E+04  0.19548941748E+04  0.40000000000E+03 0.  1.
<mgrwt>
<rscale>  2 0.53229540E+03</rscale>
<asrwt>0</asrwt>
<pdfrwt beam="1">  1       21 0.36587696E+00 0.53247992E+03</pdfrwt>
<pdfrwt beam="2">  1       21 0.29368524E-01 0.53247992E+03</pdfrwt>
<totfact> 0.11299767E+02</totfact>
</mgrwt>
</event>
<event>
 6    1  0.9502611E-004  0.4126225E+03  0.7818608E-02  0.1040220E+00
         21   -1    0    0  503  502  0.00000000000E+00  0.00000000000E+00  0.63255467970E+03  0.63255467970E+03  0.00000000000E+00 0.  1.
         21   -1    0    0  501  503 -0.00000000000E+00 -0.00000000000E+00 -0.26527473201E+03  0.26527473201E+03  0.00000000000E+00 0. -1.
    9000007    2    1    2  501    0  0.10127166975E+03  0.11582271085E+01  0.21777116591E+03  0.45895566174E+03  0.39109938143E+03 0.  0.
    9000005    1    3    3    0    0  0.30109754240E+02  0.18353493843E+03  0.18146254059E+03  0.25984865703E+03  0.99999687468E+00 0.  0.
          4    1    3    3  501    0  0.71161915508E+02 -0.18237671132E+03  0.36308625319E+02  0.19910700471E+03  0.00000000000E+00 0.  1.
   -9000007    1    1    2    0  502 -0.10127166975E+03 -0.11582271085E+01  0.14950878179E+03  0.43887374997E+03  0.40000000000E+03 0. -1.
<mgrwt>
<rscale>  2 0.41044975E+03</rscale>
<asrwt>0</asrwt>
<pdfrwt beam="1">  1       21 0.97316104E-01 0.41262246E+03</pdfrwt>
<pdfrwt beam="2">  1       21 0.40811497E-01 0.41262246E+03</pdfrwt>
<totfact> 0.44961844E+03</totfact>
</mgrwt>
</event>
<event>
 6    1  0.9502611E-004  0.4148742E+03  0.7818608E-02  0.1038822E+00
         21   -1    0    0  503  502  0.00000000000E+00  0.00000000000E+00  0.49577553895E+03  0.49577553895E+03  0.00000000000E+00 0. -1.
         21   -1    0    0  501  503 -0.00000000000E+00 -0.00000000000E+00 -0.34960036800E+03  0.34960036800E+03  0.00000000000E+00 0. -1.
    9000007    2    1    2  501    0 -0.62569903655E+02  0.90584590811E+02  0.11329111700E+03  0.42920055696E+03  0.39907102121E+03 0.  0.
    9000005    1    3    3    0    0 -0.12251600955E+03 -0.13371225940E+03  0.59658798845E+02  0.19091703219E+03  0.99999687468E+00 0.  0.
          4    1    3    3  501    0  0.59946105893E+02  0.22429685021E+03  0.53632318154E+02  0.23828352477E+03  0.00000000000E+00 0.  1.
   -9000007    1    1    2    0  502  0.62569903655E+02 -0.90584590811E+02  0.32884053945E+02  0.41617534999E+03  0.40000000000E+03 0. -1.
<mgrwt>
<rscale>  2 0.41465007E+03</rscale>
<asrwt>0</asrwt>
<pdfrwt beam="1">  1       21 0.76273160E-01 0.41487415E+03</pdfrwt>
<pdfrwt beam="2">  1       21 0.53784672E-01 0.41487415E+03</pdfrwt>
<totfact> 0.44479357E+03</totfact>
</mgrwt>
</event>
<event>
 6    1  0.9502611E-004  0.4274721E+03  0.7818608E-02  0.1034687E+00
         21   -1    0    0  503  502  0.00000000000E+00  0.00000000000E+00  0.13660148380E+04  0.13660148380E+04  0.00000000000E+00 0.  1.
         21   -1    0    0  501  503 -0.00000000000E+00 -0.00000000000E+00 -0.13653263498E+03  0.13653263498E+03  0.00000000000E+00 0. -1.
    9000007    2    1    2  501    0  0.25570090609E+02 -0.14858846290E+03  0.50573174187E+03  0.66198391747E+03  0.39965704223E+03 0.  0.
    9000005    1    3    3    0    0  0.80852920375E+02 -0.16674859463E+03  0.36152217180E+02  0.18881279445E+03  0.99999687468E+00 0.  0.
          4    1    3    3  501    0 -0.55282829766E+02  0.18160131738E+02  0.46957952469E+03  0.47317112302E+03  0.00000000000E+00 0.  1.
   -9000007    1    1    2    0  502 -0.25570090609E+02  0.14858846290E+03  0.72375046115E+03  0.84056355551E+03  0.40000000000E+03 0.  1.
<mgrwt>
<rscale>  2 0.42739181E+03</rscale>
<asrwt>0</asrwt>
<pdfrwt beam="1">  1       21 0.21015612E+00 0.42747206E+03</pdfrwt>
<pdfrwt beam="2">  1       21 0.21005022E-01 0.42747206E+03</pdfrwt>
<totfact> 0.20770894E+03</totfact>
</mgrwt>
</event>
<event>
 6    1  0.9502611E-004  0.4017855E+03  0.7818608E-02  0.1043196E+00
         21   -1    0    0  503  502  0.00000000000E+00  0.00000000000E+00  0.12141724443E+03  0.12141724443E+03  0.00000000000E+00 0. -1.
         21   -1    0    0  501  503 -0.00000000000E+00 -0.00000000000E+00 -0.19073607693E+04  0.19073607693E+04  0.00000000000E+00 0. -1.
    9000007    2    1    2  501    0 -0.36131392643E+02 -0.11228946342E+02 -0.14515986104E+04  0.15060753367E+04  0.39961584968E+03 0.  0.
    9000005    1    3    3    0    0 -0.94842059406E+02  0.46823656285E+02 -0.14093769715E+04  0.14133406945E+04  0.99999687468E+00 0.  0.
          4    1    3    3  501    0  0.58710666763E+02 -0.58052602628E+02 -0.42221638869E+02  0.92734642138E+02  0.00000000000E+00 0.  1.
   -9000007    1    1    2    0  502  0.36131392643E+02  0.11228946342E+02 -0.33434491453E+03  0.52270267710E+03  0.40000000000E+03 0. -1.
<mgrwt>
<rscale>  2 0.40168983E+03</rscale>
<asrwt>0</asrwt>
<pdfrwt beam="1">  1       21 0.18679577E-01 0.40178547E+03</pdfrwt>
<pdfrwt beam="2">  1       21 0.29344011E+00 0.40178547E+03</pdfrwt>
<totfact> 0.80854951E+02</totfact>
</mgrwt>
</event>
<event>
 6    1  0.9502611E-004  0.5997664E+03  0.7818608E-02  0.9906032E-01
         21   -1    0    0  503  502  0.00000000000E+00  0.00000000000E+00  0.12472171547E+04  0.12472171547E+04  0.00000000000E+00 0. -1.
         21   -1    0    0  501  503 -0.00000000000E+00 -0.00000000000E+00 -0.33982324477E+03  0.33982324477E+03  0.00000000000E+00 0. -1.
    9000007    2    1    2  501    0  0.33649111468E+03 -0.29354387562E+03  0.76280378554E+03  0.97035524380E+03  0.40040655184E+03 0.  0.
    9000005    1    3    3    0    0  0.25826146314E+03 -0.16406482056E+03  0.75975101976E+03  0.81904753263E+03  0.99999687468E+00 0.  0.
          4    1    3    3  501    0  0.78229651543E+02 -0.12947905506E+03  0.30527657804E+01  0.15130771117E+03  0.00000000000E+00 0.  1.
   -9000007    1    1    2    0  502 -0.33649111468E+03  0.29354387562E+03  0.14459012441E+03  0.61668515569E+03  0.40000000000E+03 0. -1.
<mgrwt>
<rscale>  2 0.59969851E+03</rscale>
<asrwt>0</asrwt>
<pdfrwt beam="1">  1       21 0.19187956E+00 0.59976636E+03</pdfrwt>
<pdfrwt beam="2">  1       21 0.52280500E-01 0.59976636E+03</pdfrwt>
<totfact> 0.40638041E+02</totfact>
</mgrwt>
</event>
<event>
 6    1  0.9502611E-004  0.4164528E+03  0.7818608E-02  0.1038439E+00
         21   -1    0    0  503  502  0.00000000000E+00  0.00000000000E+00  0.71672624354E+03  0.71672624354E+03  0.00000000000E+00 0.  1.
         21   -1    0    0  501  503 -0.00000000000E+00 -0.00000000000E+00 -0.40787434858E+03  0.40787434858E+03  0.00000000000E+00 0.  1.
    9000007    2    1    2  501    0 -0.76758519505E+02  0.73560696517E+02 -0.20550613183E+03  0.46439817914E+03  0.40265351380E+03 0.  0.
    9000005    1    3    3    0    0  0.87809891047E+02 -0.98499067853E+02 -0.18248245974E+03  0.22519656179E+03  0.99999687468E+00 0.  0.
          4    1    3    3  501    0 -0.16456841055E+03  0.17205976437E+03 -0.23023672085E+02  0.23920161735E+03  0.00000000000E+00 0.  1.
   -9000007    1    1    2    0  502  0.76758519505E+02 -0.73560696517E+02  0.51435802678E+03  0.66020241298E+03  0.40000000000E+03 0. -1.
<mgrwt>
<rscale>  2 0.41581001E+03</rscale>
<asrwt>0</asrwt>
<pdfrwt beam="1">  1       21 0.11026558E+00 0.41645276E+03</pdfrwt>
<pdfrwt beam="2">  1       21 0.62749900E-01 0.41645276E+03</pdfrwt>
<totfact> 0.13231949E+03</totfact>
</mgrwt>
</event>
<event>
 6    1  0.9502611E-004  0.4075654E+03  0.7818608E-02  0.1041216E+00
         21   -1    0    0  503  502  0.00000000000E+00  0.00000000000E+00  0.17134594863E+04  0.17134594863E+04  0.00000000000E+00 0.  1.
         21   -1    0    0  501  503 -0.00000000000E+00 -0.00000000000E+00 -0.98220736276E+02  0.98220736276E+02  0.00000000000E+00 0.  1.
    9000007    2    1    2  501    0  0.34355180211E+02 -0.68462496282E+02  0.91400795336E+03  0.10007597444E+04  0.40030255472E+03 0.  0.
    9000005    1    3    3    0    0  0.35546552563E+02 -0.15978798174E+03  0.12366749222E+03  0.20515946270E+03  0.99999687468E+00 0.  0.
          4    1    3    3  501    0 -0.11913723515E+01  0.91325485459E+02  0.79034046114E+03  0.79560028166E+03  0.00000000000E+00 0.  1.
   -9000007    1    1    2    0  502 -0.34355180211E+02  0.68462496282E+02  0.70123079666E+03  0.81092047821E+03  0.40000000000E+03 0. -1.
<mgrwt>
<rscale>  2 0.40749106E+03</rscale>
<asrwt>0</asrwt>
<pdfrwt beam="1">  1       21 0.26360913E+00 0.40756537E+03</pdfrwt>
<pdfrwt beam="2">  1       21 0.15110884E-01 0.40756537E+03</pdfrwt>
<totfact> 0.18090790E+03</totfact>
</mgrwt>
</event>
<event>
 6    1  0.9502611E-004  0.5118581E+03  0.7818608E-02  0.1010775E+00
         21   -1    0    0  503  502  0.00000000000E+00  0.00000000000E+00  0.10179377091E+04  0.10179377091E+04  0.00000000000E+00 0. -1.
         21   -1    0    0  501  503 -0.00000000000E+00 -0.00000000000E+00 -0.27077708535E+03  0.27077708535E+03  0.00000000000E+00 0.  1.
    9000007    2    1    2  501    0  0.29312752904E+03  0.12678699999E+03  0.51857264628E+03  0.72813370747E+03  0.39907695353E+03 0.  0.
    9000005    1    3    3    0    0  0.17296179652E+03  0.26834952803E+03  0.27170995199E+03  0.41923090327E+03  0.99999687468E+00 0.  0.
          4    1    3    3  501    0  0.12016573251E+03 -0.14156252803E+03  0.24686269429E+03  0.30890280420E+03  0.00000000000E+00 0.  1.
   -9000007    1    1    2    0  502 -0.29312752904E+03 -0.12678699999E+03  0.22858797749E+03  0.56058108700E+03  0.40000000000E+03 0.  1.
<mgrwt>
<rscale>  2 0.51167773E+03</rscale>
<asrwt>0</asrwt>
<pdfrwt beam="1">  1       21 0.15660580E+00 0.51185808E+03</pdfrwt>
<pdfrwt beam="2">  1       21 0.41658014E-01 0.51185808E+03</pdfrwt>
<totfact> 0.12230345E+03</totfact>
</mgrwt>
</event>
<event>
 6    1  0.9502611E-004  0.4727470E+03  0.7818608E-02  0.1021150E+00
         21   -1    0    0  503  502  0.00000000000E+00  0.00000000000E+00  0.26745232749E+03  0.26745232749E+03  0.00000000000E+00 0.  1.
         21   -1    0    0  501  503 -0.00000000000E+00 -0.00000000000E+00 -0.88811723643E+03  0.88811723643E+03  0.00000000000E+00 0.  1.
    9000007    2    1    2  501    0  0.25112190501E+02  0.25064443145E+03 -0.16978429092E+03  0.50231112744E+03  0.40004563513E+03 0.  0.
    9000005    1    3    3    0    0  0.84009846890E+02 -0.21127597888E+02  0.87740312325E+02  0.12330203635E+03  0.99999687468E+00 0.  0.
          4    1    3    3  501    0 -0.58897656389E+02  0.27177202934E+03 -0.25752460324E+03  0.37900909109E+03  0.00000000000E+00 0.  1.
   -9000007    1    1    2    0  502 -0.25112190501E+02 -0.25064443145E+03 -0.45088061802E+03  0.65325843648E+03  0.40000000000E+03 0.  1.
<mgrwt>
<rscale>  2 0.47273739E+03</rscale>
<asrwt>0</asrwt>
<pdfrwt beam="1">  1       21 0.41146512E-01 0.47274704E+03</pdfrwt>
<pdfrwt beam="2">  1       21 0.13663342E+00 0.47274704E+03</pdfrwt>
<totfact> 0.18414231E+03</totfact>
</mgrwt>
</event>
<event>
 6    1  0.9502611E-004  0.5404337E+03  0.7818608E-02  0.1003753E+00
         21   -1    0    0  503  502  0.00000000000E+00  0.00000000000E+00  0.27829622901E+04  0.27829622901E+04  0.00000000000E+00 0.  1.
         21   -1    0    0  501  503 -0.00000000000E+00 -0.00000000000E+00 -0.14277368538E+03  0.14277368538E+03  0.00000000000E+00 0.  1.
    9000007    2    1    2  501    0 -0.16859438323E+03  0.32193875488E+03  0.56615203919E+03  0.78244497724E+03  0.39952895138E+03 0.  0.
    9000005    1    3    3    0    0 -0.19593118434E+03 -0.19164153429E+02  0.23019395092E+03  0.30289692770E+03  0.99999687468E+00 0.  0.
          4    1    3    3  501    0  0.27336801110E+02  0.34110290831E+03  0.33595808827E+03  0.47954804955E+03  0.00000000000E+00 0.  1.
   -9000007    1    1    2    0  502  0.16859438323E+03 -0.32193875488E+03  0.20740365656E+04  0.21432909983E+04  0.40000000000E+03 0.  1.
<mgrwt>
<rscale>  2 0.54034658E+03</rscale>
<asrwt>0</asrwt>
<pdfrwt beam="1">  1       21 0.42814800E+00 0.54043374E+03</pdfrwt>
<pdfrwt beam="2">  1       21 0.21965184E-01 0.54043374E+03</pdfrwt>
<totfact> 0.78922324E+01</totfact>
</mgrwt>
</event>
<event>
 6    1  0.9502611E-004  0.4193235E+03  0.7818608E-02  0.1037972E+00
         21   -1    0    0  503  502  0.00000000000E+00  0.00000000000E+00  0.12972967656E+03  0.12972967656E+03  0.00000000000E+00 0. -1.
         21   -1    0    0  501  503 -0.00000000000E+00 -0.00000000000E+00 -0.18134630752E+04  0.18134630752E+04  0.00000000000E+00 0. -1.
    9000007    2    1    2  501    0  0.47020738684E+01  0.12573805144E+03 -0.13380484718E+04  0.13997498056E+04  0.39127182158E+03 0.  0.
    9000005    1    3    3    0    0 -0.11798762240E+02  0.26466267930E+03 -0.98463593016E+03  0.10196540882E+04  0.99999687468E+00 0.  0.
          4    1    3    3  501    0  0.16500836108E+02 -0.13892462786E+03 -0.35341254160E+03  0.38009571739E+03  0.00000000000E+00 0.  1.
   -9000007    1    1    2    0  502 -0.47020738684E+01 -0.12573805144E+03 -0.34568492685E+03  0.54344294616E+03  0.40000000000E+03 0. -1.
<mgrwt>
<rscale>  2 0.41722841E+03</rscale>
<asrwt>0</asrwt>
<pdfrwt beam="1">  1       21 0.19958411E-01 0.41932346E+03</pdfrwt>
<pdfrwt beam="2">  1       21 0.27899432E+00 0.41932346E+03</pdfrwt>
<totfact> 0.86163800E+02</totfact>
</mgrwt>
</event>
<event>
 6    1  0.9502611E-004  0.4365912E+03  0.7818608E-02  0.1031851E+00
         21   -1    0    0  503  502  0.00000000000E+00  0.00000000000E+00  0.21019464881E+03  0.21019464881E+03  0.00000000000E+00 0. -1.
         21   -1    0    0  501  503 -0.00000000000E+00 -0.00000000000E+00 -0.11298047496E+04  0.11298047496E+04  0.00000000000E+00 0. -1.
    9000007    2    1    2  501    0 -0.17496246919E+03  0.17032896734E-01 -0.75810599546E+03  0.87449382171E+03  0.39925289973E+03 0.  0.
    9000005    1    3    3    0    0 -0.86394148941E+02 -0.83558244189E+02 -0.74198383358E+03  0.75165613045E+03  0.99999687468E+00 0.  0.
          4    1    3    3  501    0 -0.88568320247E+02  0.83575277086E+02 -0.16122161877E+02  0.12283769126E+03  0.00000000000E+00 0.  1.
   -9000007    1    1    2    0  502  0.17496246919E+03 -0.17032896734E-01 -0.16150410534E+03  0.46550557672E+03  0.40000000000E+03 0. -1.
<mgrwt>
<rscale>  2 0.43641999E+03</rscale>
<asrwt>0</asrwt>
<pdfrwt beam="1">  1       21 0.32337639E-01 0.43659119E+03</pdfrwt>
<pdfrwt beam="2">  1       21 0.17381611E+00 0.43659119E+03</pdfrwt>
<totfact> 0.15739304E+03</totfact>
</mgrwt>
</event>
<event>
 6    1  0.9502611E-004  0.4201883E+03  0.7818608E-02  0.1037065E+00
         21   -1    0    0  503  502  0.00000000000E+00  0.00000000000E+00  0.25730205278E+03  0.25730205278E+03  0.00000000000E+00 0. -1.
         21   -1    0    0  501  503 -0.00000000000E+00 -0.00000000000E+00 -0.74360883755E+03  0.74360883755E+03  0.00000000000E+00 0. -1.
    9000007    2    1    2  501    0 -0.89091784684E+02 -0.89434200447E+02 -0.10282834495E+03  0.43258744711E+03  0.40077725555E+03 0.  0.
    9000005    1    3    3    0    0  0.37327071123E+02  0.57784146677E+02  0.11925075027E+03  0.13767374216E+03  0.99999687468E+00 0.  0.
          4    1    3    3  501    0 -0.12641885581E+03 -0.14721834712E+03 -0.22207909523E+03  0.29491370495E+03  0.00000000000E+00 0.  1.
   -9000007    1    1    2    0  502  0.89091784684E+02  0.89434200447E+02 -0.38347843982E+03  0.56832344322E+03  0.40000000000E+03 0. -1.
<mgrwt>
<rscale>  2 0.42000288E+03</rscale>
<asrwt>0</asrwt>
<pdfrwt beam="1">  1       21 0.39584932E-01 0.42018833E+03</pdfrwt>
<pdfrwt beam="2">  1       21 0.11440136E+00 0.42018833E+03</pdfrwt>
<totfact> 0.32095376E+03</totfact>
</mgrwt>
</event>
<event>
 6    1  0.9502611E-004  0.4512643E+03  0.7818608E-02  0.1027432E+00
         21   -1    0    0  503  502  0.00000000000E+00  0.00000000000E+00  0.11562152789E+04  0.11562152789E+04  0.00000000000E+00 0.  1.
         21   -1    0    0  501  503 -0.00000000000E+00 -0.00000000000E+00 -0.17597638308E+03  0.17597638308E+03  0.00000000000E+00 0.  1.
    9000007    2    1    2  501    0  0.18654201948E+03 -0.94029561476E+02  0.46189862402E+03  0.64493907317E+03  0.39869359886E+03 0.  0.
    9000005    1    3    3    0    0 -0.65815715699E+02 -0.15192982149E+03  0.80879622099E+02  0.18427396006E+03  0.99999687468E+00 0.  0.
          4    1    3    3  501    0  0.25235773518E+03  0.57900260019E+02  0.38101900192E+03  0.46066511311E+03  0.00000000000E+00 0.  1.
   -9000007    1    1    2    0  502 -0.18654201948E+03  0.94029561476E+02  0.51834027183E+03  0.68725258883E+03  0.40000000000E+03 0.  1.
<mgrwt>
<rscale>  2 0.45097464E+03</rscale>
<asrwt>0</asrwt>
<pdfrwt beam="1">  1       21 0.17787927E+00 0.45126432E+03</pdfrwt>
<pdfrwt beam="2">  1       21 0.27073290E-01 0.45126432E+03</pdfrwt>
<totfact> 0.20812095E+03</totfact>
</mgrwt>
</event>
<event>
 6    1  0.9502611E-004  0.6227428E+03  0.7818608E-02  0.9861181E-01
         21   -1    0    0  503  502  0.00000000000E+00  0.00000000000E+00  0.12497692393E+04  0.12497692393E+04  0.00000000000E+00 0.  1.
         21   -1    0    0  501  503 -0.00000000000E+00 -0.00000000000E+00 -0.33208481123E+03  0.33208481123E+03  0.00000000000E+00 0. -1.
    9000007    2    1    2  501    0  0.22527339718E+03  0.42078550978E+03  0.66862559563E+03  0.91115378159E+03  0.39412241480E+03 0.  0.
    9000005    1    3    3    0    0  0.21506300676E+03  0.49328109391E+03  0.53517935016E+03  0.75894418195E+03  0.99999687468E+00 0.  0.
          4    1    3    3  501    0  0.10210390411E+02 -0.72495584128E+02  0.13344624547E+03  0.15220959963E+03  0.00000000000E+00 0.  1.
   -9000007    1    1    2    0  502 -0.22527339718E+03 -0.42078550978E+03  0.24905883240E+03  0.67070026891E+03  0.40000000000E+03 0. -1.
<mgrwt>
<rscale>  2 0.62180090E+03</rscale>
<asrwt>0</asrwt>
<pdfrwt beam="1">  1       21 0.19227219E+00 0.62274276E+03</pdfrwt>
<pdfrwt beam="2">  1       21 0.51089972E-01 0.62274276E+03</pdfrwt>
<totfact> 0.42098562E+02</totfact>
</mgrwt>
</event>
<event>
 6    1  0.9502611E-004  0.4097567E+03  0.7818608E-02  0.1040475E+00
         21   -1    0    0  503  502  0.00000000000E+00  0.00000000000E+00  0.44393833683E+03  0.44393833683E+03  0.00000000000E+00 0. -1.
         21   -1    0    0  501  503 -0.00000000000E+00 -0.00000000000E+00 -0.44180745715E+03  0.44180745715E+03  0.00000000000E+00 0. -1.
    9000007    2    1    2  501    0 -0.29396451692E+02 -0.83883103287E+02 -0.16729317382E+03  0.44234412924E+03  0.39972590144E+03 0.  0.
    9000005    1    3    3    0    0  0.91695266002E+02 -0.10586058232E+03 -0.25519827822E+03  0.29110418392E+03  0.99999687468E+00 0.  0.
          4    1    3    3  501    0 -0.12109171769E+03  0.21977479036E+02  0.87905104406E+02  0.15123994532E+03  0.00000000000E+00 0.  1.
   -9000007    1    1    2    0  502  0.29396451692E+02  0.83883103287E+02  0.16942405349E+03  0.44340166474E+03  0.40000000000E+03 0. -1.
<mgrwt>
<rscale>  2 0.40968976E+03</rscale>
<asrwt>0</asrwt>
<pdfrwt beam="1">  1       21 0.68298205E-01 0.40975667E+03</pdfrwt>
<pdfrwt beam="2">  1       21 0.67970379E-01 0.40975667E+03</pdfrwt>
<totfact> 0.34253611E+03</totfact>
</mgrwt>
</event>
<event>
 6    1  0.9502611E-004  0.6943196E+03  0.7818608E-02  0.9727555E-01
         21   -1    0    0  503  502  0.00000000000E+00  0.00000000000E+00  0.88258587151E+03  0.88258587151E+03  0.00000000000E+00 0.  1.
         21   -1    0    0  501  503 -0.00000000000E+00 -0.00000000000E+00 -0.78781139032E+03  0.78781139032E+03  0.00000000000E+00 0.  1.
    9000007    2    1    2  501    0  0.42717221945E+03 -0.37122676609E+03 -0.41606951686E+03  0.80944023197E+03  0.40223653406E+03 0.  0.
    9000005    1    3    3    0    0 -0.76708998427E+00 -0.92404664794E+02  0.60841196753E+02  0.11064294699E+03  0.99999687468E+00 0.  0.
          4    1    3    3  501    0  0.42793930943E+03 -0.27882210129E+03 -0.47691071362E+03  0.69879728498E+03  0.00000000000E+00 0.  1.
   -9000007    1    1    2    0  502 -0.42717221945E+03  0.37122676609E+03  0.51084399806E+03  0.86095702987E+03  0.40000000000E+03 0.  1.
<mgrwt>
<rscale>  2 0.69399601E+03</rscale>
<asrwt>0</asrwt>
<pdfrwt beam="1">  1       21 0.13578244E+00 0.69431956E+03</pdfrwt>
<pdfrwt beam="2">  1       21 0.12120175E+00 0.69431956E+03</pdfrwt>
<totfact> 0.14662443E+02</totfact>
</mgrwt>
</event>
<event>
 6    1  0.9502611E-004  0.4079520E+03  0.7818608E-02  0.1041096E+00
         21   -1    0    0  503  502  0.00000000000E+00  0.00000000000E+00  0.12149891171E+04  0.12149891171E+04  0.00000000000E+00 0.  1.
         21   -1    0    0  501  503 -0.00000000000E+00 -0.00000000000E+00 -0.28473852764E+03  0.28473852764E+03  0.00000000000E+00 0.  1.
    9000007    2    1    2  501    0  0.80152639727E+02  0.60289443806E+00 -0.75427978036E+02  0.41445616246E+03  0.39957442560E+03 0.  0.
    9000005    1    3    3    0    0 -0.10191877043E+03 -0.87913082400E+02  0.82344774320E+02  0.15779039158E+03  0.99999687468E+00 0.  0.
          4    1    3    3  501    0  0.18207141016E+03  0.88515976838E+02 -0.15777275236E+03  0.25666577088E+03  0.00000000000E+00 0.  1.
   -9000007    1    1    2    0  502 -0.80152639727E+02 -0.60289443806E+00  0.10056785675E+04  0.10852714823E+04  0.40000000000E+03 0.  1.
<mgrwt>
<rscale>  2 0.40784761E+03</rscale>
<asrwt>0</asrwt>
<pdfrwt beam="1">  1       21 0.18692140E+00 0.40795197E+03</pdfrwt>
<pdfrwt beam="2">  1       21 0.43805928E-01 0.40795197E+03</pdfrwt>
<totfact> 0.69454341E+02</totfact>
</mgrwt>
</event>
<event>
 6    1  0.9502611E-004  0.4389057E+03  0.7818608E-02  0.1031086E+00
         21   -1    0    0  503  502  0.00000000000E+00  0.00000000000E+00  0.16535432458E+04  0.16535432458E+04  0.00000000000E+00 0.  1.
         21   -1    0    0  501  503 -0.00000000000E+00 -0.00000000000E+00 -0.11764835434E+03  0.11764835434E+03  0.00000000000E+00 0.  1.
    9000007    2    1    2  501    0 -0.10551440349E+03 -0.14652301949E+03  0.85588009403E+03  0.96185705293E+03  0.40004496039E+03 0.  0.
    9000005    1    3    3    0    0 -0.87035772927E+02  0.11369258101E+03  0.14137785044E+03  0.20122108571E+03  0.99999687468E+00 0.  0.
          4    1    3    3  501    0 -0.18478630566E+02 -0.26021560051E+03  0.71450224358E+03  0.76063596721E+03  0.00000000000E+00 0.  1.
   -9000007    1    1    2    0  502  0.10551440349E+03  0.14652301949E+03  0.68001479742E+03  0.80933454720E+03  0.40000000000E+03 0.  1.
<mgrwt>
<rscale>  2 0.43889550E+03</rscale>
<asrwt>0</asrwt>
<pdfrwt beam="1">  1       21 0.25439125E+00 0.43890575E+03</pdfrwt>
<pdfrwt beam="2">  1       21 0.18099748E-01 0.43890575E+03</pdfrwt>
<totfact> 0.14458033E+03</totfact>
</mgrwt>
</event>
<event>
 6    1  0.9502611E-004  0.4988514E+03  0.7818608E-02  0.1014084E+00
         21   -1    0    0  503  502  0.00000000000E+00  0.00000000000E+00  0.31998143349E+03  0.31998143349E+03  0.00000000000E+00 0. -1.
         21   -1    0    0  501  503 -0.00000000000E+00 -0.00000000000E+00 -0.86218431312E+03  0.86218431312E+03  0.00000000000E+00 0.  1.
    9000007    2    1    2  501    0  0.80728101539E+02 -0.28682435244E+03 -0.45625017716E+03  0.67603028786E+03  0.40008435413E+03 0.  0.
    9000005    1    3    3    0    0  0.19974475843E+03 -0.33913845268E+02 -0.10836624300E+03  0.22976588092E+03  0.99999687468E+00 0.  0.
          4    1    3    3  501    0 -0.11901665689E+03 -0.25291050717E+03 -0.34788393416E+03  0.44626440694E+03  0.00000000000E+00 0.  1.
   -9000007    1    1    2    0  502 -0.80728101539E+02  0.28682435244E+03 -0.85952702467E+02  0.50613545874E+03  0.40000000000E+03 0. -1.
<mgrwt>
<rscale>  2 0.49883449E+03</rscale>
<asrwt>0</asrwt>
<pdfrwt beam="1">  1       21 0.49227912E-01 0.49885141E+03</pdfrwt>
<pdfrwt beam="2">  1       21 0.13264374E+00 0.49885141E+03</pdfrwt>
<totfact> 0.13528812E+03</totfact>
</mgrwt>
</event>
<event>
 6    1  0.9502611E-004  0.4268829E+03  0.7818608E-02  0.1034858E+00
         21   -1    0    0  503  502  0.00000000000E+00  0.00000000000E+00  0.44957484425E+03  0.44957484425E+03  0.00000000000E+00 0. -1.
         21   -1    0    0  501  503 -0.00000000000E+00 -0.00000000000E+00 -0.69183127836E+03  0.69183127836E+03  0.00000000000E+00 0. -1.
    9000007    2    1    2  501    0  0.14424259057E+03 -0.36428824627E+02 -0.48846174865E+03  0.64870941964E+03  0.40012004079E+03 0.  0.
    9000005    1    3    3    0    0  0.11897201873E+03  0.21614355374E+02 -0.54837385919E+03  0.56154822682E+03  0.99999687468E+00 0.  0.
          4    1    3    3  501    0  0.25270571838E+02 -0.58043180002E+02  0.59912110540E+02  0.87161192827E+02  0.00000000000E+00 0.  1.
   -9000007    1    1    2    0  502 -0.14424259057E+03  0.36428824627E+02  0.24620531455E+03  0.49269670296E+03  0.40000000000E+03 0. -1.
<mgrwt>
<rscale>  2 0.42685479E+03</rscale>
<asrwt>0</asrwt>
<pdfrwt beam="1">  1       21 0.69165361E-01 0.42688292E+03</pdfrwt>
<pdfrwt beam="2">  1       21 0.10643558E+00 0.42688292E+03</pdfrwt>
<totfact> 0.11576476E+03</totfact>
</mgrwt>
</event>
<event>
 6    1  0.9502611E-004  0.5908548E+03  0.7818608E-02  0.9925379E-01
         21   -1    0    0  503  502  0.00000000000E+00  0.00000000000E+00  0.85204665657E+03  0.85204665657E+03  0.00000000000E+00 0. -1.
         21   -1    0    0  501  503 -0.00000000000E+00 -0.00000000000E+00 -0.46225412751E+03  0.46225412751E+03  0.00000000000E+00 0.  1.
    9000007    2    1    2  501    0 -0.43486701214E+03 -0.30776584001E+00 -0.29083636701E+02  0.59003104481E+03  0.39772020687E+03 0.  0.
    9000005    1    3    3    0    0 -0.16146522992E+03 -0.12055511809E+03  0.14135651700E+03  0.24614471732E+03  0.99999687468E+00 0.  0.
          4    1    3    3  501    0 -0.27340178222E+03  0.12024735225E+03 -0.17044015370E+03  0.34388632749E+03  0.00000000000E+00 0.  1.
   -9000007    1    1    2    0  502  0.43486701214E+03  0.30776584001E+00  0.41887616576E+03  0.72426973926E+03  0.40000000000E+03 0. -1.
<mgrwt>
<rscale>  2 0.59046919E+03</rscale>
<asrwt>0</asrwt>
<pdfrwt beam="1">  1       21 0.13108410E+00 0.59085482E+03</pdfrwt>
<pdfrwt beam="2">  1       21 0.71116020E-01 0.59085482E+03</pdfrwt>
<totfact> 0.60243050E+02</totfact>
</mgrwt>
</event>
<event>
 6    1  0.9502611E-004  0.4298210E+03  0.7818608E-02  0.1034014E+00
         21   -1    0    0  503  502  0.00000000000E+00  0.00000000000E+00  0.12447670397E+03  0.12447670397E+03  0.00000000000E+00 0. -1.
         21   -1    0    0  501  503 -0.00000000000E+00 -0.00000000000E+00 -0.15650148382E+04  0.15650148382E+04  0.00000000000E+00 0. -1.
    9000007    2    1    2  501    0 -0.38067794424E+02 -0.14913293124E+03 -0.52428597876E+03  0.67795419705E+03  0.40131822488E+03 0.  0.
    9000005    1    3    3    0    0  0.98376583123E+02 -0.15717463613E+03 -0.61426523325E+02  0.19533570107E+03  0.99999687468E+00 0.  0.
          4    1    3    3  501    0 -0.13644437755E+03  0.80417048911E+01 -0.46285945543E+03  0.48261849598E+03  0.00000000000E+00 0.  1.
   -9000007    1    1    2    0  502  0.38067794424E+02  0.14913293124E+03 -0.91625215545E+03  0.10115373451E+04  0.40000000000E+03 0. -1.
<mgrwt>
<rscale>  2 0.42951305E+03</rscale>
<asrwt>0</asrwt>
<pdfrwt beam="1">  1       21 0.19150263E-01 0.42982102E+03</pdfrwt>
<pdfrwt beam="2">  1       21 0.24077151E+00 0.42982102E+03</pdfrwt>
<totfact> 0.15830647E+03</totfact>
</mgrwt>
</event>
<event>
 6    1  0.9502611E-004  0.4039897E+03  0.7818608E-02  0.1042474E+00
         21   -1    0    0  503  502  0.00000000000E+00  0.00000000000E+00  0.48736975274E+03  0.48736975274E+03  0.00000000000E+00 0.  1.
         21   -1    0    0  501  503 -0.00000000000E+00 -0.00000000000E+00 -0.36625412788E+03  0.36625412788E+03  0.00000000000E+00 0.  1.
    9000007    2    1    2  501    0  0.47460773095E+02  0.17964517740E+02 -0.65604875589E+02  0.40928190177E+03  0.40078975353E+03 0.  0.
    9000005    1    3    3    0    0 -0.34168963576E-01  0.36875430155E+02  0.16705113923E+03  0.17107566054E+03  0.99999687468E+00 0.  0.
          4    1    3    3  501    0  0.47494942058E+02 -0.18910912415E+02 -0.23265601482E+03  0.23820624123E+03  0.00000000000E+00 0.  1.
   -9000007    1    1    2    0  502 -0.47460773095E+02 -0.17964517740E+02  0.18672050044E+03  0.44434197885E+03  0.40000000000E+03 0.  1.
<mgrwt>
<rscale>  2 0.40379368E+03</rscale>
<asrwt>0</asrwt>
<pdfrwt beam="1">  1       21 0.74979962E-01 0.40398970E+03</pdfrwt>
<pdfrwt beam="2">  1       21 0.56346789E-01 0.40398970E+03</pdfrwt>
<totfact> 0.42005051E+03</totfact>
</mgrwt>
</event>
<event>
 6    1  0.9502611E-004  0.4445520E+03  0.7818608E-02  0.1029672E+00
         21   -1    0    0  503  502  0.00000000000E+00  0.00000000000E+00  0.16401826918E+04  0.16401826918E+04  0.00000000000E+00 0. -1.
         21   -1    0    0  501  503 -0.00000000000E+00 -0.00000000000E+00 -0.16256820626E+03  0.16256820626E+03  0.00000000000E+00 0. -1.
    9000007    2    1    2  501    0  0.44991308385E+02 -0.18868572881E+03  0.27168780570E+03  0.51749385015E+03  0.39542268408E+03 0.  0.
    9000005    1    3    3    0    0  0.20183318957E+02 -0.22289436241E+03  0.35753642603E+03  0.42180867593E+03  0.99999687468E+00 0.  0.
          4    1    3    3  501    0  0.24807989428E+02  0.34208633600E+02 -0.85848620327E+02  0.95685174214E+02  0.00000000000E+00 0.  1.
   -9000007    1    1    2    0  502 -0.44991308385E+02  0.18868572881E+03  0.12059266799E+04  0.12852570479E+04  0.40000000000E+03 0. -1.
<mgrwt>
<rscale>  2 0.44351994E+03</rscale>
<asrwt>0</asrwt>
<pdfrwt beam="1">  1       21 0.25233579E+00 0.44455205E+03</pdfrwt>
<pdfrwt beam="2">  1       21 0.25010494E-01 0.44455205E+03</pdfrwt>
<totfact> 0.79906925E+02</totfact>
</mgrwt>
</event>
<event>
 6    1  0.9502611E-004  0.4320660E+03  0.7818608E-02  0.1033233E+00
         21   -1    0    0  503  502  0.00000000000E+00  0.00000000000E+00  0.56775369966E+03  0.56775369966E+03  0.00000000000E+00 0. -1.
         21   -1    0    0  501  503 -0.00000000000E+00 -0.00000000000E+00 -0.50854713262E+03  0.50854713262E+03  0.00000000000E+00 0. -1.
    9000007    2    1    2  501    0 -0.47600716012E+02  0.15543501890E+03 -0.29052485167E+03  0.52065891657E+03  0.40031880383E+03 0.  0.
    9000005    1    3    3    0    0  0.10301306338E+03  0.13707664846E+02  0.55292012174E+02  0.11771914843E+03  0.99999687468E+00 0.  0.
          4    1    3    3  501    0 -0.15061377939E+03  0.14172735406E+03 -0.34581686384E+03  0.40293976814E+03  0.00000000000E+00 0.  1.
   -9000007    1    1    2    0  502  0.47600716012E+02 -0.15543501890E+03  0.34973141871E+03  0.55564191571E+03  0.40000000000E+03 0.  1.
<mgrwt>
<rscale>  2 0.43199213E+03</rscale>
<asrwt>0</asrwt>
<pdfrwt beam="1">  1       21 0.87346724E-01 0.43206599E+03</pdfrwt>
<pdfrwt beam="2">  1       21 0.78238020E-01 0.43206599E+03</pdfrwt>
<totfact> 0.14047757E+03</totfact>
</mgrwt>
</event>
<event>
 6    1  0.9502611E-004  0.6419510E+03  0.7818608E-02  0.9822288E-01
         21   -1    0    0  503  502  0.00000000000E+00  0.00000000000E+00  0.49136893663E+03  0.49136893663E+03  0.00000000000E+00 0.  1.
         21   -1    0    0  501  503 -0.00000000000E+00 -0.00000000000E+00 -0.88761018201E+03  0.88761018201E+03  0.00000000000E+00 0. -1.
    9000007    2    1    2  501    0  0.16902417145E+03 -0.47197412719E+03 -0.36138852991E+03  0.73668365778E+03  0.40096433110E+03 0.  0.
    9000005    1    3    3    0    0  0.25605252923E+03 -0.27562444176E+03 -0.36174361768E+03  0.52191108012E+03  0.99999687468E+00 0.  0.
          4    1    3    3  501    0 -0.87028357784E+02 -0.19634968543E+03  0.35508777584E+00  0.21477257766E+03  0.00000000000E+00 0.  1.
   -9000007    1    1    2    0  502 -0.16902417145E+03  0.47197412719E+03 -0.34852715469E+02  0.64229546086E+03  0.40000000000E+03 0.  1.
<mgrwt>
<rscale>  2 0.64180052E+03</rscale>
<asrwt>0</asrwt>
<pdfrwt beam="1">  1       21 0.75595222E-01 0.64195104E+03</pdfrwt>
<pdfrwt beam="2">  1       21 0.13655541E+00 0.64195104E+03</pdfrwt>
<totfact> 0.46268457E+02</totfact>
</mgrwt>
</event>
<event>
 6    1  0.9502611E-004  0.4244444E+03  0.7818608E-02  0.1035665E+00
         21   -1    0    0  503  502  0.00000000000E+00  0.00000000000E+00  0.74828196326E+02  0.74828196326E+02  0.00000000000E+00 0. -1.
         21   -1    0    0  501  503 -0.00000000000E+00 -0.00000000000E+00 -0.24417701912E+04  0.24417701912E+04  0.00000000000E+00 0. -1.
    9000007    2    1    2  501    0  0.23344022989E+02  0.13867244732E+03 -0.13384342067E+04  0.14041222029E+04  0.40047227609E+03 0.  0.
    9000005    1    3    3    0    0 -0.29542841194E+02 -0.13802441283E+03 -0.50562206227E+03  0.52495541511E+03  0.99999687468E+00 0.  0.
          4    1    3    3  501    0  0.52886864183E+02  0.27669686015E+03 -0.83281214443E+03  0.87916678777E+03  0.00000000000E+00 0.  1.
   -9000007    1    1    2    0  502 -0.23344022989E+02 -0.13867244732E+03 -0.10285077882E+04  0.11124761846E+04  0.40000000000E+03 0.  1.
<mgrwt>
<rscale>  2 0.42433295E+03</rscale>
<asrwt>0</asrwt>
<pdfrwt beam="1">  1       21 0.11512031E-01 0.42444438E+03</pdfrwt>
<pdfrwt beam="2">  1       21 0.37565692E+00 0.42444438E+03</pdfrwt>
<totfact> 0.61752075E+02</totfact>
</mgrwt>
</event>
<event>
 6    1  0.9502611E-004  0.4527153E+03  0.7818608E-02  0.1026934E+00
         21   -1    0    0  503  502  0.00000000000E+00  0.00000000000E+00  0.42829950927E+03  0.42829950927E+03  0.00000000000E+00 0. -1.
         21   -1    0    0  501  503 -0.00000000000E+00 -0.00000000000E+00 -0.47886157119E+03  0.47886157119E+03  0.00000000000E+00 0.  1.
    9000007    2    1    2  501    0 -0.88916107116E+01  0.21183033241E+03 -0.91369339940E+01  0.45255444644E+03  0.39971351360E+03 0.  0.
    9000005    1    3    3    0    0 -0.15155375701E+03  0.11660979822E+03  0.13039024532E+03  0.23144978370E+03  0.99999687468E+00 0.  0.
          4    1    3    3  501    0  0.14266214630E+03  0.95220534189E+02 -0.13952717931E+03  0.22110466274E+03  0.00000000000E+00 0.  1.
   -9000007    1    1    2    0  502  0.88916107116E+01 -0.21183033241E+03 -0.41425127924E+02  0.45460663402E+03  0.40000000000E+03 0.  1.
<mgrwt>
<rscale>  2 0.45265202E+03</rscale>
<asrwt>0</asrwt>
<pdfrwt beam="1">  1       21 0.65892232E-01 0.45271531E+03</pdfrwt>
<pdfrwt beam="2">  1       21 0.73671011E-01 0.45271531E+03</pdfrwt>
<totfact> 0.30466968E+03</totfact>
</mgrwt>
</event>
<event>
 6    1  0.9502611E-004  0.4587776E+03  0.7818608E-02  0.1025142E+00
         21   -1    0    0  503  502  0.00000000000E+00  0.00000000000E+00  0.71677719461E+03  0.71677719461E+03  0.00000000000E+00 0.  1.
         21   -1    0    0  501  503 -0.00000000000E+00 -0.00000000000E+00 -0.11326145306E+04  0.11326145306E+04  0.00000000000E+00 0.  1.
    9000007    2    1    2  501    0 -0.67888431696E+02 -0.21399451856E+03 -0.10037982961E+04  0.11036702063E+04  0.40009300407E+03 0.  0.
    9000005    1    3    3    0    0  0.86010417990E+02  0.85852499747E+02 -0.28106428256E+03  0.30621328293E+03  0.99999687468E+00 0.  0.
          4    1    3    3  501    0 -0.15389884969E+03 -0.29984701830E+03 -0.72273401357E+03  0.79745692341E+03  0.00000000000E+00 0.  1.
   -9000007    1    1    2    0  502  0.67888431696E+02  0.21399451856E+03  0.58796096011E+03  0.74572151890E+03  0.40000000000E+03 0.  1.
<mgrwt>
<rscale>  2 0.45875734E+03</rscale>
<asrwt>0</asrwt>
<pdfrwt beam="1">  1       21 0.11027341E+00 0.45877762E+03</pdfrwt>
<pdfrwt beam="2">  1       21 0.17424839E+00 0.45877762E+03</pdfrwt>
<totfact> 0.10307941E+02</totfact>
</mgrwt>
</event>
<event>
 6    1  0.9502611E-004  0.4755918E+03  0.7818608E-02  0.1020497E+00
         21   -1    0    0  503  502  0.00000000000E+00  0.00000000000E+00  0.41512478530E+03  0.41512478530E+03  0.00000000000E+00 0.  1.
         21   -1    0    0  501  503 -0.00000000000E+00 -0.00000000000E+00 -0.60033558787E+03  0.60033558787E+03  0.00000000000E+00 0.  1.
    9000007    2    1    2  501    0 -0.97669619076E+02  0.23800892752E+03 -0.24999180839E+03  0.53547684972E+03  0.39755747793E+03 0.  0.
    9000005    1    3    3    0    0 -0.12279412197E+03  0.10875894924E+03  0.78299186933E+02  0.18176542053E+03  0.99999687468E+00 0.  0.
          4    1    3    3  501    0  0.25124502898E+02  0.12924997828E+03 -0.32829099532E+03  0.35371142919E+03  0.00000000000E+00 0.  1.
   -9000007    1    1    2    0  502  0.97669619076E+02 -0.23800892752E+03  0.64781005819E+02  0.47998352345E+03  0.40000000000E+03 0.  1.
<mgrwt>
<rscale>  2 0.47507790E+03</rscale>
<asrwt>0</asrwt>
<pdfrwt beam="1">  1       21 0.63865352E-01 0.47559185E+03</pdfrwt>
<pdfrwt beam="2">  1       21 0.92359321E-01 0.47559185E+03</pdfrwt>
<totfact> 0.19139337E+03</totfact>
</mgrwt>
</event>
<event>
 6    1  0.9502611E-004  0.4503511E+03  0.7818608E-02  0.1027694E+00
         21   -1    0    0  503  502  0.00000000000E+00  0.00000000000E+00  0.10094655282E+04  0.10094655282E+04  0.00000000000E+00 0. -1.
         21   -1    0    0  501  503 -0.00000000000E+00 -0.00000000000E+00 -0.23773892556E+03  0.23773892556E+03  0.00000000000E+00 0. -1.
    9000007    2    1    2  501    0 -0.18772604825E+03  0.87034557233E+02  0.63244802766E+03  0.77580801257E+03  0.39883766288E+03 0.  0.
    9000005    1    3    3    0    0 -0.20316092942E+03  0.59690971399E+02  0.86144398398E+02  0.22860278362E+03  0.99999687468E+00 0.  0.
          4    1    3    3  501    0  0.15434881174E+02  0.27343585834E+02  0.54630362926E+03  0.54720522895E+03  0.00000000000E+00 0.  1.
   -9000007    1    1    2    0  502  0.18772604825E+03 -0.87034557233E+02  0.13927857503E+03  0.47139644123E+03  0.40000000000E+03 0. -1.
<mgrwt>
<rscale>  2 0.45009283E+03</rscale>
<asrwt>0</asrwt>
<pdfrwt beam="1">  1       21 0.15530239E+00 0.45035107E+03</pdfrwt>
<pdfrwt beam="2">  1       21 0.36575220E-01 0.45035107E+03</pdfrwt>
<totfact> 0.16750723E+03</totfact>
</mgrwt>
</event>
<event>
 6    1  0.9502611E-004  0.4194981E+03  0.7818608E-02  0.1037231E+00
         21   -1    0    0  503  502  0.00000000000E+00  0.00000000000E+00  0.12323140575E+04  0.12323140575E+04  0.00000000000E+00 0.  1.
         21   -1    0    0  501  503 -0.00000000000E+00 -0.00000000000E+00 -0.21046325027E+03  0.21046325027E+03  0.00000000000E+00 0.  1.
    9000007    2    1    2  501    0  0.12635298077E+03 -0.13621935775E+01  0.10189477366E+03  0.43169569138E+03  0.40001461690E+03 0.  0.
    9000005    1    3    3    0    0 -0.95744430141E+02  0.12244519064E+03  0.84269357199E+02  0.17681104369E+03  0.99999687468E+00 0.  0.
          4    1    3    3  501    0  0.22209741091E+03 -0.12380738422E+03  0.17625416464E+02  0.25488464769E+03  0.00000000000E+00 0.  1.
   -9000007    1    1    2    0  502 -0.12635298077E+03  0.13621935775E+01  0.91995603354E+03  0.10110816164E+04  0.40000000000E+03 0.  1.
<mgrwt>
<rscale>  2 0.41949458E+03</rscale>
<asrwt>0</asrwt>
<pdfrwt beam="1">  1       21 0.18958677E+00 0.41949806E+03</pdfrwt>
<pdfrwt beam="2">  1       21 0.32378962E-01 0.41949806E+03</pdfrwt>
<totfact> 0.12269009E+03</totfact>
</mgrwt>
</event>
<event>
 6    1  0.9502611E-004  0.4436277E+03  0.7818608E-02  0.1029652E+00
         21   -1    0    0  503  502  0.00000000000E+00  0.00000000000E+00  0.28535090289E+03  0.28535090289E+03  0.00000000000E+00 0.  1.
         21   -1    0    0  501  503 -0.00000000000E+00 -0.00000000000E+00 -0.70005587555E+03  0.70005587555E+03  0.00000000000E+00 0.  1.
    9000007    2    1    2  501    0  0.14816589804E+03 -0.12187035593E+03 -0.26797244462E+03  0.51814245090E+03  0.39982102415E+03 0.  0.
    9000005    1    3    3    0    0  0.17717911119E+02 -0.23167204002E+03 -0.43718055931E+02  0.23642784715E+03  0.99999687468E+00 0.  0.
          4    1    3    3  501    0  0.13044798692E+03  0.10980168409E+03 -0.22425438868E+03  0.28171460375E+03  0.00000000000E+00 0.  1.
   -9000007    1    1    2    0  502 -0.14816589804E+03  0.12187035593E+03 -0.14673252804E+03  0.46726432753E+03  0.40000000000E+03 0.  1.
<mgrwt>
<rscale>  2 0.44358733E+03</rscale>
<asrwt>0</asrwt>
<pdfrwt beam="1">  1       21 0.43900139E-01 0.44362768E+03</pdfrwt>
<pdfrwt beam="2">  1       21 0.10770090E+00 0.44362768E+03</pdfrwt>
<totfact> 0.29830355E+03</totfact>
</mgrwt>
</event>
<event>
 6    1  0.9502611E-004  0.4094479E+03  0.7818608E-02  0.1040620E+00
         21   -1    0    0  503  502  0.00000000000E+00  0.00000000000E+00  0.11494511985E+04  0.11494511985E+04  0.00000000000E+00 0.  1.
         21   -1    0    0  501  503 -0.00000000000E+00 -0.00000000000E+00 -0.35882496302E+03  0.35882496302E+03  0.00000000000E+00 0.  1.
    9000007    2    1    2  501    0  0.80099627335E+02  0.24738822084E+02 -0.18590276110E+03  0.44967480086E+03  0.40077378947E+03 0.  0.
    9000005    1    3    3    0    0  0.18692005169E+03  0.13727445754E+03 -0.37419335210E+02  0.23491400354E+03  0.99999687468E+00 0.  0.
          4    1    3    3  501    0 -0.10682042436E+03 -0.11253563545E+03 -0.14848342588E+03  0.21476079733E+03  0.00000000000E+00 0.  1.
   -9000007    1    1    2    0  502 -0.80099627335E+02 -0.24738822084E+02  0.97652899654E+03  0.10586013606E+04  0.40000000000E+03 0.  1.
<mgrwt>
<rscale>  2 0.40925844E+03</rscale>
<asrwt>0</asrwt>
<pdfrwt beam="1">  1       21 0.17683864E+00 0.40944791E+03</pdfrwt>
<pdfrwt beam="2">  1       21 0.55203841E-01 0.40944791E+03</pdfrwt>
<totfact> 0.50008179E+02</totfact>
</mgrwt>
</event>
<event>
 6    1  0.9502611E-004  0.4469341E+03  0.7818608E-02  0.1028663E+00
         21   -1    0    0  503  502  0.00000000000E+00  0.00000000000E+00  0.20001728485E+03  0.20001728485E+03  0.00000000000E+00 0.  1.
         21   -1    0    0  501  503 -0.00000000000E+00 -0.00000000000E+00 -0.15322672036E+04  0.15322672036E+04  0.00000000000E+00 0.  1.
    9000007    2    1    2  501    0  0.15241470953E+03 -0.12852945433E+03 -0.11774342584E+04  0.12592961662E+04  0.39965652391E+03 0.  0.
    9000005    1    3    3    0    0  0.10260160091E+03 -0.25756432333E+02 -0.35385461570E+02  0.11155094442E+03  0.99999687468E+00 0.  0.
          4    1    3    3  501    0  0.49813108614E+02 -0.10277302200E+03 -0.11420487968E+04  0.11477452218E+04  0.00000000000E+00 0.  1.
   -9000007    1    1    2    0  502 -0.15241470953E+03  0.12852945433E+03 -0.15481566040E+03  0.47298832228E+03  0.40000000000E+03 0.  1.
<mgrwt>
<rscale>  2 0.44685721E+03</rscale>
<asrwt>0</asrwt>
<pdfrwt beam="1">  1       21 0.30771890E-01 0.44693407E+03</pdfrwt>
<pdfrwt beam="2">  1       21 0.23573341E+00 0.44693407E+03</pdfrwt>
<totfact> 0.67203858E+02</totfact>
</mgrwt>
</event>
<event>
 6    1  0.9502611E-004  0.4167713E+03  0.7818608E-02  0.1038133E+00
         21   -1    0    0  503  502  0.00000000000E+00  0.00000000000E+00  0.62453429912E+03  0.62453429912E+03  0.00000000000E+00 0.  1.
         21   -1    0    0  501  503 -0.00000000000E+00 -0.00000000000E+00 -0.32511915128E+03  0.32511915128E+03  0.00000000000E+00 0.  1.
    9000007    2    1    2  501    0 -0.11314128384E+03 -0.29955607538E+02 -0.31006747887E+02  0.41779170360E+03  0.39986272726E+03 0.  0.
    9000005    1    3    3    0    0  0.94058979872E+02 -0.11300268097E+03  0.81191208173E+02  0.16795746449E+03  0.99999687468E+00 0.  0.
          4    1    3    3  501    0 -0.20720026371E+03  0.83047073431E+02 -0.11219795606E+03  0.24983423911E+03  0.00000000000E+00 0.  1.
   -9000007    1    1    2    0  502  0.11314128384E+03  0.29955607538E+02  0.33042189573E+03  0.53186174680E+03  0.40000000000E+03 0.  1.
<mgrwt>
<rscale>  2 0.41673833E+03</rscale>
<asrwt>0</asrwt>
<pdfrwt beam="1">  1       21 0.96082200E-01 0.41677127E+03</pdfrwt>
<pdfrwt beam="2">  1       21 0.50018331E-01 0.41677127E+03</pdfrwt>
<totfact> 0.30241474E+03</totfact>
</mgrwt>
</event>
<event>
 6    1  0.9502611E-004  0.4498855E+03  0.7818608E-02  0.1027767E+00
         21   -1    0    0  503  502  0.00000000000E+00  0.00000000000E+00  0.22551361239E+03  0.22551361239E+03  0.00000000000E+00 0. -1.
         21   -1    0    0  501  503 -0.00000000000E+00 -0.00000000000E+00 -0.94233779583E+03  0.94233779583E+03  0.00000000000E+00 0.  1.
    9000007    2    1    2  501    0  0.20421411936E+03 -0.26334667943E+02 -0.48613692145E+03  0.66226903696E+03  0.39984278114E+03 0.  0.
    9000005    1    3    3    0    0  0.32403905030E+03 -0.32059228287E+02 -0.39315880327E+03  0.51049382447E+03  0.99999687468E+00 0.  0.
          4    1    3    3  501    0 -0.11982493094E+03  0.57245603447E+01 -0.92978118181E+02  0.15177521249E+03  0.00000000000E+00 0.  1.
   -9000007    1    1    2    0  502 -0.20421411936E+03  0.26334667943E+02 -0.23068726199E+03  0.50558237126E+03  0.40000000000E+03 0.  1.
<mgrwt>
<rscale>  2 0.44985050E+03</rscale>
<asrwt>0</asrwt>
<pdfrwt beam="1">  1       21 0.34694402E-01 0.44988545E+03</pdfrwt>
<pdfrwt beam="2">  1       21 0.14497504E+00 0.44988545E+03</pdfrwt>
<totfact> 0.22479160E+03</totfact>
</mgrwt>
</event>
<event>
 6    1  0.9502611E-004  0.4558505E+03  0.7818608E-02  0.1026017E+00
         21   -1    0    0  503  502  0.00000000000E+00  0.00000000000E+00  0.24447763133E+03  0.24447763133E+03  0.00000000000E+00 0.  1.
         21   -1    0    0  501  503 -0.00000000000E+00 -0.00000000000E+00 -0.10501825344E+04  0.10501825344E+04  0.00000000000E+00 0.  1.
    9000007    2    1    2  501    0  0.17795533769E+03  0.12575219609E+03 -0.68607641925E+03  0.82371145181E+03  0.40039728490E+03 0.  0.
    9000005    1    3    3    0    0 -0.84317380117E+02  0.10527173970E+03 -0.66049442211E+02  0.15018351634E+03  0.99999687468E+00 0.  0.
          4    1    3    3  501    0  0.26227271781E+03  0.20480456386E+02 -0.62002697704E+03  0.67352793547E+03  0.00000000000E+00 0.  1.
   -9000007    1    1    2    0  502 -0.17795533769E+03 -0.12575219609E+03 -0.11962848386E+03  0.47094871396E+03  0.40000000000E+03 0.  1.
<mgrwt>
<rscale>  2 0.45576327E+03</rscale>
<asrwt>0</asrwt>
<pdfrwt beam="1">  1       21 0.37611943E-01 0.45585053E+03</pdfrwt>
<pdfrwt beam="2">  1       21 0.16156655E+00 0.45585053E+03</pdfrwt>
<totfact> 0.14144893E+03</totfact>
</mgrwt>
</event>
<event>
 6    1  0.9502611E-004  0.4549661E+03  0.7818608E-02  0.1026292E+00
         21   -1    0    0  503  502  0.00000000000E+00  0.00000000000E+00  0.65199944039E+03  0.65199944039E+03  0.00000000000E+00 0.  1.
         21   -1    0    0  501  503 -0.00000000000E+00 -0.00000000000E+00 -0.32220127997E+03  0.32220127997E+03  0.00000000000E+00 0.  1.
    9000007    2    1    2  501    0  0.19889204875E+03 -0.86232951417E+02  0.22613552880E+03  0.50757441360E+03  0.39937493535E+03 0.  0.
    9000005    1    3    3    0    0 -0.10054364254E+02 -0.80556472236E+02  0.28015634099E+03  0.29168306576E+03  0.99999687468E+00 0.  0.
          4    1    3    3  501    0  0.20894641301E+03 -0.56764791810E+01 -0.54020812190E+02  0.21589134784E+03  0.00000000000E+00 0.  1.
   -9000007    1    1    2    0  502 -0.19889204875E+03  0.86232951417E+02  0.10366263162E+03  0.46662630676E+03  0.40000000000E+03 0.  1.
<mgrwt>
<rscale>  2 0.45482869E+03</rscale>
<asrwt>0</asrwt>
<pdfrwt beam="1">  1       21 0.10030761E+00 0.45496612E+03</pdfrwt>
<pdfrwt beam="2">  1       21 0.49569428E-01 0.45496612E+03</pdfrwt>
<totfact> 0.27394146E+03</totfact>
</mgrwt>
</event>
<event>
 6    1  0.9502611E-004  0.5159216E+03  0.7818608E-02  0.1009724E+00
         21   -1    0    0  503  502  0.00000000000E+00  0.00000000000E+00  0.36497349392E+03  0.36497349392E+03  0.00000000000E+00 0. -1.
         21   -1    0    0  501  503 -0.00000000000E+00 -0.00000000000E+00 -0.93083116916E+03  0.93083116916E+03  0.00000000000E+00 0.  1.
    9000007    2    1    2  501    0  0.27371448984E+03  0.17588517895E+03 -0.58479398924E+03  0.77984555413E+03  0.40039962577E+03 0.  0.
    9000005    1    3    3    0    0  0.11162115177E+02 -0.43932365152E+02  0.44431648467E+02  0.63480838859E+02  0.99999687468E+00 0.  0.
          4    1    3    3  501    0  0.26255237466E+03  0.21981754410E+03 -0.62922563770E+03  0.71636471527E+03  0.00000000000E+00 0.  1.
   -9000007    1    1    2    0  502 -0.27371448984E+03 -0.17588517895E+03  0.18936314001E+02  0.51595910895E+03  0.40000000000E+03 0. -1.
<mgrwt>
<rscale>  2 0.51584404E+03</rscale>
<asrwt>0</asrwt>
<pdfrwt beam="1">  1       21 0.56149770E-01 0.51592158E+03</pdfrwt>
<pdfrwt beam="2">  1       21 0.14320479E+00 0.51592158E+03</pdfrwt>
<totfact> 0.82689111E+02</totfact>
</mgrwt>
</event>
<event>
 6    1  0.9502611E-004  0.7023350E+03  0.7818608E-02  0.9713490E-01
         21   -1    0    0  503  502  0.00000000000E+00  0.00000000000E+00  0.16395956096E+04  0.16395956096E+04  0.00000000000E+00 0. -1.
         21   -1    0    0  501  503 -0.00000000000E+00 -0.00000000000E+00 -0.30573809583E+03  0.30573809583E+03  0.00000000000E+00 0. -1.
    9000007    2    1    2  501    0 -0.56369915044E+03 -0.12456986281E+03  0.79266648821E+03  0.10586758745E+04  0.39899882566E+03 0.  0.
    9000005    1    3    3    0    0 -0.93686397293E+02  0.10105100534E+03  0.34495949697E+03  0.37146534328E+03  0.99999687468E+00 0.  0.
          4    1    3    3  501    0 -0.47001275315E+03 -0.22562086815E+03  0.44770699124E+03  0.68721053126E+03  0.00000000000E+00 0.  1.
   -9000007    1    1    2    0  502  0.56369915044E+03  0.12456986281E+03  0.54119102555E+03  0.88665783088E+03  0.40000000000E+03 0. -1.
<mgrwt>
<rscale>  2 0.70219248E+03</rscale>
<asrwt>0</asrwt>
<pdfrwt beam="1">  1       21 0.25224547E+00 0.70233495E+03</pdfrwt>
<pdfrwt beam="2">  1       21 0.47036631E-01 0.70233495E+03</pdfrwt>
<totfact> 0.19889443E+02</totfact>
</mgrwt>
</event>
<event>
 6    1  0.9502611E-004  0.4183588E+03  0.7818608E-02  0.1037780E+00
         21   -1    0    0  503  502  0.00000000000E+00  0.00000000000E+00  0.22449884160E+04  0.22449884160E+04  0.00000000000E+00 0.  1.
         21   -1    0    0  501  503 -0.00000000000E+00 -0.00000000000E+00 -0.14994974285E+03  0.14994974285E+03  0.00000000000E+00 0.  1.
    9000007    2    1    2  501    0  0.85732696753E+02 -0.76540313290E+02  0.21690472715E+03  0.47124493123E+03  0.40226311004E+03 0.  0.
    9000005    1    3    3    0    0 -0.82514840330E+02 -0.75934390540E+02  0.27199577786E+03  0.29420644743E+03  0.99999687468E+00 0.  0.
          4    1    3    3  501    0  0.16824753708E+03 -0.60592274989E+00 -0.55091050714E+02  0.17703848380E+03  0.00000000000E+00 0.  1.
   -9000007    1    1    2    0  502 -0.85732696753E+02  0.76540313290E+02  0.18781339460E+04  0.19236932277E+04  0.40000000000E+03 0.  1.
<mgrwt>
<rscale>  2 0.41781389E+03</rscale>
<asrwt>0</asrwt>
<pdfrwt beam="1">  1       21 0.34538281E+00 0.41835885E+03</pdfrwt>
<pdfrwt beam="2">  1       21 0.23069193E-01 0.41835885E+03</pdfrwt>
<totfact> 0.26032115E+02</totfact>
</mgrwt>
</event>
<event>
 6    1  0.9502611E-004  0.7377835E+03  0.7818608E-02  0.9655715E-01
         21   -1    0    0  503  502  0.00000000000E+00  0.00000000000E+00  0.55044750472E+03  0.55044750472E+03  0.00000000000E+00 0. -1.
         21   -1    0    0  501  503 -0.00000000000E+00 -0.00000000000E+00 -0.11221677297E+04  0.11221677297E+04  0.00000000000E+00 0.  1.
    9000007    2    1    2  501    0 -0.25184837910E+03 -0.56322271807E+03 -0.57810653864E+03  0.93730018544E+03  0.40457018107E+03 0.  0.
    9000005    1    3    3    0    0 -0.31140868448E+02 -0.50973608182E+03 -0.40010695480E+03  0.64875820001E+03  0.99999687468E+00 0.  0.
          4    1    3    3  501    0 -0.22070751065E+03 -0.53486636243E+02 -0.17799958384E+03  0.28854198543E+03  0.00000000000E+00 0.  1.
   -9000007    1    1    2    0  502  0.25184837910E+03  0.56322271807E+03  0.63863136900E+01  0.73531504894E+03  0.40000000000E+03 0.  1.
<mgrwt>
<rscale>  2 0.73715865E+03</rscale>
<asrwt>0</asrwt>
<pdfrwt beam="1">  1       21 0.84684232E-01 0.73778348E+03</pdfrwt>
<pdfrwt beam="2">  1       21 0.17264119E+00 0.73778348E+03</pdfrwt>
<totfact> 0.17934991E+02</totfact>
</mgrwt>
</event>
<event>
 6    1  0.9502611E-004  0.4131996E+03  0.7818608E-02  0.1039327E+00
         21   -1    0    0  503  502  0.00000000000E+00  0.00000000000E+00  0.10337228153E+04  0.10337228153E+04  0.00000000000E+00 0. -1.
         21   -1    0    0  501  503 -0.00000000000E+00 -0.00000000000E+00 -0.17468226324E+03  0.17468226324E+03  0.00000000000E+00 0. -1.
    9000007    2    1    2  501    0 -0.73853899247E+02 -0.70944481297E+02  0.28774894975E+03  0.50352096558E+03  0.40030786506E+03 0.  0.
    9000005    1    3    3    0    0 -0.12787016629E+03 -0.57740145048E+02 -0.59098508952E+02  0.15224433497E+03  0.99999687468E+00 0.  0.
          4    1    3    3  501    0  0.54016267039E+02 -0.13204336249E+02  0.34684745871E+03  0.35127663061E+03  0.00000000000E+00 0.  1.
   -9000007    1    1    2    0  502  0.73853899247E+02  0.70944481297E+02  0.57129160233E+03  0.70488411299E+03  0.40000000000E+03 0. -1.
<mgrwt>
<rscale>  2 0.41312501E+03</rscale>
<asrwt>0</asrwt>
<pdfrwt beam="1">  1       21 0.15903428E+00 0.41319959E+03</pdfrwt>
<pdfrwt beam="2">  1       21 0.26874195E-01 0.41319959E+03</pdfrwt>
<totfact> 0.29463743E+03</totfact>
</mgrwt>
</event>
<event>
 6    1  0.9502611E-004  0.6148345E+03  0.7818608E-02  0.9875105E-01
         21   -1    0    0  503  502  0.00000000000E+00  0.00000000000E+00  0.40746264156E+03  0.40746264156E+03  0.00000000000E+00 0. -1.
         21   -1    0    0  501  503 -0.00000000000E+00 -0.00000000000E+00 -0.29361359360E+04  0.29361359360E+04  0.00000000000E+00 0. -1.
    9000007    2    1    2  501    0 -0.16928686035E+03 -0.43513919952E+03 -0.26470237311E+04  0.27174907675E+04  0.40002159216E+03 0.  0.
    9000005    1    3    3    0    0 -0.19082751660E+03 -0.32544315501E+03 -0.10353274976E+04  0.11019221458E+04  0.99999687468E+00 0.  0.
          4    1    3    3  501    0  0.21540656248E+02 -0.10969604451E+03 -0.16116962335E+04  0.16155686216E+04  0.00000000000E+00 0.  1.
   -9000007    1    1    2    0  502  0.16928686035E+03  0.43513919952E+03  0.11835043663E+03  0.62610781012E+03  0.40000000000E+03 0. -1.
<mgrwt>
<rscale>  2 0.61483097E+03</rscale>
<asrwt>0</asrwt>
<pdfrwt beam="1">  1       21 0.62686561E-01 0.61483448E+03</pdfrwt>
<pdfrwt beam="2">  1       21 0.45171322E+00 0.61483448E+03</pdfrwt>
<totfact> 0.60535381E+00</totfact>
</mgrwt>
</event>
<event>
 6    1  0.9502611E-004  0.4205083E+03  0.7818608E-02  0.1036929E+00
         21   -1    0    0  503  502  0.00000000000E+00  0.00000000000E+00  0.46594603044E+03  0.46594603044E+03  0.00000000000E+00 0. -1.
         21   -1    0    0  501  503 -0.00000000000E+00 -0.00000000000E+00 -0.97451651094E+03  0.97451651094E+03  0.00000000000E+00 0. -1.
    9000007    2    1    2  501    0 -0.12625521689E+03 -0.29779420826E+02 -0.81717403420E+03  0.91886562129E+03  0.39964163212E+03 0.  0.
    9000005    1    3    3    0    0  0.40536301322E+02 -0.94395024379E+01 -0.72696151822E+03  0.72815269339E+03  0.99999687468E+00 0.  0.
          4    1    3    3  501    0 -0.16679151821E+03 -0.20339918388E+02 -0.90212515980E+02  0.19071292790E+03  0.00000000000E+00 0.  1.
   -9000007    1    1    2    0  502  0.12625521689E+03  0.29779420826E+02  0.30860355370E+03  0.52159692010E+03  0.40000000000E+03 0. -1.
<mgrwt>
<rscale>  2 0.42042301E+03</rscale>
<asrwt>0</asrwt>
<pdfrwt beam="1">  1       21 0.71684005E-01 0.42050826E+03</pdfrwt>
<pdfrwt beam="2">  1       21 0.14992562E+00 0.42050826E+03</pdfrwt>
<totfact> 0.44334653E+02</totfact>
</mgrwt>
</event>
<event>
 6    1  0.9502611E-004  0.4974635E+03  0.7818608E-02  0.1014476E+00
         21   -1    0    0  503  502  0.00000000000E+00  0.00000000000E+00  0.14057911583E+03  0.14057911583E+03  0.00000000000E+00 0. -1.
         21   -1    0    0  501  503 -0.00000000000E+00 -0.00000000000E+00 -0.19791167003E+04  0.19791167003E+04  0.00000000000E+00 0. -1.
    9000007    2    1    2  501    0 -0.13038862834E+03  0.26452616920E+03 -0.12734527578E+04  0.13671693050E+04  0.40061788980E+03 0.  0.
    9000005    1    3    3    0    0  0.12588773211E+03  0.19276817670E+03 -0.63609804216E+03  0.67648282334E+03  0.99999687468E+00 0.  0.
          4    1    3    3  501    0 -0.25627636045E+03  0.71757992496E+02 -0.63735471560E+03  0.69068648163E+03  0.00000000000E+00 0.  1.
   -9000007    1    1    2    0  502  0.13038862834E+03 -0.26452616920E+03 -0.56508482669E+03  0.75252651112E+03  0.40000000000E+03 0. -1.
<mgrwt>
<rscale>  2 0.49733914E+03</rscale>
<asrwt>0</asrwt>
<pdfrwt beam="1">  1       21 0.21627558E-01 0.49746355E+03</pdfrwt>
<pdfrwt beam="2">  1       21 0.30447947E+00 0.49746355E+03</pdfrwt>
<totfact> 0.49751225E+02</totfact>
</mgrwt>
</event>
<event>
 6    1  0.9502611E-004  0.4183632E+03  0.7818608E-02  0.1037638E+00
         21   -1    0    0  503  502  0.00000000000E+00  0.00000000000E+00  0.47191116755E+03  0.47191116755E+03  0.00000000000E+00 0.  1.
         21   -1    0    0  501  503 -0.00000000000E+00 -0.00000000000E+00 -0.72639638863E+03  0.72639638863E+03  0.00000000000E+00 0. -1.
    9000007    2    1    2  501    0 -0.11928986851E+03 -0.28243341989E+02  0.29218791629E+03  0.50991865577E+03  0.39951908337E+03 0.  0.
    9000005    1    3    3    0    0 -0.23554971429E+03 -0.12483514378E+03  0.19335291256E+03  0.32932329072E+03  0.99999687468E+00 0.  0.
          4    1    3    3  501    0  0.11625984578E+03  0.96591801788E+02  0.98835003735E+02  0.18059536505E+03  0.00000000000E+00 0.  1.
   -9000007    1    1    2    0  502  0.11928986851E+03  0.28243341989E+02 -0.54667313737E+03  0.68838890042E+03  0.40000000000E+03 0. -1.
<mgrwt>
<rscale>  2 0.41824820E+03</rscale>
<asrwt>0</asrwt>
<pdfrwt beam="1">  1       21 0.72601718E-01 0.41836319E+03</pdfrwt>
<pdfrwt beam="2">  1       21 0.11175329E+00 0.41836319E+03</pdfrwt>
<totfact> 0.92334570E+02</totfact>
</mgrwt>
</event>
<event>
 6    1  0.9502611E-004  0.5312644E+03  0.7818608E-02  0.1006133E+00
         21   -1    0    0  503  502  0.00000000000E+00  0.00000000000E+00  0.47086552685E+03  0.47086552685E+03  0.00000000000E+00 0.  1.
         21   -1    0    0  501  503 -0.00000000000E+00 -0.00000000000E+00 -0.69705940985E+03  0.69705940985E+03  0.00000000000E+00 0.  1.
    9000007    2    1    2  501    0  0.27607534471E+03 -0.20593448216E+03  0.10941869736E+03  0.54241521575E+03  0.40449376762E+03 0.  0.
    9000005    1    3    3    0    0  0.31775085785E+03 -0.21867047941E+03  0.20540016429E+03  0.43700413466E+03  0.99999687468E+00 0.  0.
          4    1    3    3  501    0 -0.41675513138E+02  0.12735997247E+02 -0.95981466932E+02  0.10541108109E+03  0.00000000000E+00 0.  1.
   -9000007    1    1    2    0  502 -0.27607534471E+03  0.20593448216E+03 -0.33561258037E+03  0.62550972095E+03  0.40000000000E+03 0. -1.
<mgrwt>
<rscale>  2 0.53040894E+03</rscale>
<asrwt>0</asrwt>
<pdfrwt beam="1">  1       21 0.72440851E-01 0.53126436E+03</pdfrwt>
<pdfrwt beam="2">  1       21 0.10723991E+00 0.53126436E+03</pdfrwt>
<totfact> 0.98313561E+02</totfact>
</mgrwt>
</event>
<event>
 6    1  0.9502611E-004  0.5079504E+03  0.7818608E-02  0.1011873E+00
         21   -1    0    0  503  502  0.00000000000E+00  0.00000000000E+00  0.78002850787E+03  0.78002850787E+03  0.00000000000E+00 0. -1.
         21   -1    0    0  501  503 -0.00000000000E+00 -0.00000000000E+00 -0.38801906575E+03  0.38801906575E+03  0.00000000000E+00 0.  1.
    9000007    2    1    2  501    0 -0.28998988850E+03 -0.11798095213E+03 -0.31641396193E+02  0.50661452841E+03  0.39704340058E+03 0.  0.
    9000005    1    3    3    0    0 -0.32135920485E+02 -0.81873604168E+02  0.16050109458E+03  0.18302351160E+03  0.99999687468E+00 0.  0.
          4    1    3    3  501    0 -0.25785396802E+03 -0.36107347960E+02 -0.19214249077E+03  0.32359101681E+03  0.00000000000E+00 0.  1.
   -9000007    1    1    2    0  502  0.28998988850E+03  0.11798095213E+03  0.42365083831E+03  0.66143304522E+03  0.40000000000E+03 0. -1.
<mgrwt>
<rscale>  2 0.50736819E+03</rscale>
<asrwt>0</asrwt>
<pdfrwt beam="1">  1       21 0.12000439E+00 0.50795043E+03</pdfrwt>
<pdfrwt beam="2">  1       21 0.59695241E-01 0.50795043E+03</pdfrwt>
<totfact> 0.11519971E+03</totfact>
</mgrwt>
</event>
<event>
 6    1  0.9502611E-004  0.4767974E+03  0.7818608E-02  0.1020291E+00
         21   -1    0    0  503  502  0.00000000000E+00  0.00000000000E+00  0.22386699960E+03  0.22386699960E+03  0.00000000000E+00 0.  1.
         21   -1    0    0  501  503 -0.00000000000E+00 -0.00000000000E+00 -0.20684564981E+04  0.20684564981E+04  0.00000000000E+00 0.  1.
    9000007    2    1    2  501    0  0.21287242481E+03 -0.14839518200E+03 -0.17414304612E+04  0.18044940334E+04  0.39532627810E+03 0.  0.
    9000005    1    3    3    0    0 -0.46018945592E+02 -0.13438851384E+02 -0.10850804619E+04  0.10861394731E+04  0.99999687468E+00 0.  0.
          4    1    3    3  501    0  0.25889137040E+03 -0.13495633061E+03 -0.65634999921E+03  0.71835456030E+03  0.00000000000E+00 0.  1.
   -9000007    1    1    2    0  502 -0.21287242481E+03  0.14839518200E+03 -0.10315903734E+03  0.48782946433E+03  0.40000000000E+03 0.  1.
<mgrwt>
<rscale>  2 0.47581589E+03</rscale>
<asrwt>0</asrwt>
<pdfrwt beam="1">  1       21 0.34441077E-01 0.47679744E+03</pdfrwt>
<pdfrwt beam="2">  1       21 0.31822407E+00 0.47679744E+03</pdfrwt>
<totfact> 0.16625851E+02</totfact>
</mgrwt>
</event>
<event>
 6    1  0.9502611E-004  0.4002738E+03  0.7818608E-02  0.1043803E+00
         21   -1    0    0  503  502  0.00000000000E+00  0.00000000000E+00  0.26591939526E+03  0.26591939526E+03  0.00000000000E+00 0. -1.
         21   -1    0    0  501  503 -0.00000000000E+00 -0.00000000000E+00 -0.60539601505E+03  0.60539601505E+03  0.00000000000E+00 0. -1.
    9000007    2    1    2  501    0  0.10514103590E+02 -0.10421177541E+02 -0.13014322962E+03  0.41960796566E+03  0.39864073714E+03 0.  0.
    9000005    1    3    3    0    0  0.59907744105E+02 -0.64874083524E+02 -0.25768369703E+03  0.27239580067E+03  0.99999687468E+00 0.  0.
          4    1    3    3  501    0 -0.49393640515E+02  0.54452905982E+02  0.12754046740E+03  0.14721216498E+03  0.00000000000E+00 0.  1.
   -9000007    1    1    2    0  502 -0.10514103590E+02  0.10421177541E+02 -0.20933339016E+03  0.45170744465E+03  0.40000000000E+03 0.  1.
<mgrwt>
<rscale>  2 0.39993382E+03</rscale>
<asrwt>0</asrwt>
<pdfrwt beam="1">  1       21 0.40910677E-01 0.40027384E+03</pdfrwt>
<pdfrwt beam="2">  1       21 0.93137847E-01 0.40027384E+03</pdfrwt>
<totfact> 0.49919186E+03</totfact>
</mgrwt>
</event>
<event>
 6    1  0.9502611E-004  0.4077460E+03  0.7818608E-02  0.1041233E+00
         21   -1    0    0  503  502  0.00000000000E+00  0.00000000000E+00  0.18468935448E+04  0.18468935448E+04  0.00000000000E+00 0. -1.
         21   -1    0    0  501  503 -0.00000000000E+00 -0.00000000000E+00 -0.12176299844E+03  0.12176299844E+03  0.00000000000E+00 0. -1.
    9000007    2    1    2  501    0  0.57246819730E+02  0.44614040966E+02  0.13682141105E+04  0.14276787681E+04  0.40123459678E+03 0.  0.
    9000005    1    3    3    0    0  0.50154909374E+02  0.20035265507E+03  0.10841310757E+04  0.11036294173E+04  0.99999687468E+00 0.  0.
          4    1    3    3  501    0  0.70919103559E+01 -0.15573861411E+03  0.28408303480E+03  0.32404935084E+03  0.00000000000E+00 0.  1.
   -9000007    1    1    2    0  502 -0.57246819730E+02 -0.44614040966E+02  0.35691643584E+03  0.54097777514E+03  0.40000000000E+03 0. -1.
<mgrwt>
<rscale>  2 0.40744197E+03</rscale>
<asrwt>0</asrwt>
<pdfrwt beam="1">  1       21 0.28413745E+00 0.40774601E+03</pdfrwt>
<pdfrwt beam="2">  1       21 0.18732770E-01 0.40774601E+03</pdfrwt>
<totfact> 0.91093053E+02</totfact>
</mgrwt>
</event>
<event>
 6    1  0.9502611E-004  0.5876498E+03  0.7818608E-02  0.9931525E-01
         21   -1    0    0  503  502  0.00000000000E+00  0.00000000000E+00  0.45034517239E+03  0.45034517239E+03  0.00000000000E+00 0.  1.
         21   -1    0    0  501  503 -0.00000000000E+00 -0.00000000000E+00 -0.76919525978E+03  0.76919525978E+03  0.00000000000E+00 0.  1.
    9000007    2    1    2  501    0  0.35138583295E+02 -0.42865551362E+03 -0.19605239162E+03  0.61949081466E+03  0.40043983293E+03 0.  0.
    9000005    1    3    3    0    0  0.73925715883E+02 -0.16706359212E+03  0.11138032431E+03  0.21396689444E+03  0.99999687468E+00 0.  0.
          4    1    3    3  501    0 -0.38787132588E+02 -0.26159192150E+03 -0.30743271593E+03  0.40552392022E+03  0.00000000000E+00 0.  1.
   -9000007    1    1    2    0  502 -0.35138583295E+02  0.42865551362E+03 -0.12279769577E+03  0.60004961751E+03  0.40000000000E+03 0.  1.
<mgrwt>
<rscale>  2 0.58757491E+03</rscale>
<asrwt>0</asrwt>
<pdfrwt beam="1">  1       21 0.69283874E-01 0.58764984E+03</pdfrwt>
<pdfrwt beam="2">  1       21 0.11833773E+00 0.58764984E+03</pdfrwt>
<totfact> 0.83391768E+02</totfact>
</mgrwt>
</event>
<event>
 6    1  0.9502611E-004  0.4412286E+03  0.7818608E-02  0.1030379E+00
         21   -1    0    0  503  502  0.00000000000E+00  0.00000000000E+00  0.10931663493E+03  0.10931663493E+03  0.00000000000E+00 0.  1.
         21   -1    0    0  501  503 -0.00000000000E+00 -0.00000000000E+00 -0.24664790293E+04  0.24664790293E+04  0.00000000000E+00 0.  1.
    9000007    2    1    2  501    0 -0.40748075585E+02 -0.18172028276E+03 -0.18576937422E+04  0.19093486661E+04  0.39987950936E+03 0.  0.
    9000005    1    3    3    0    0  0.16267939733E+03  0.27158977080E+01 -0.81663917608E+03  0.83268992207E+03  0.99999687468E+00 0.  0.
          4    1    3    3  501    0 -0.20342747292E+03 -0.18443618047E+03 -0.10410545662E+04  0.10766587441E+04  0.00000000000E+00 0.  1.
   -9000007    1    1    2    0  502  0.40748075585E+02  0.18172028276E+03 -0.49946865213E+03  0.66644699811E+03  0.40000000000E+03 0.  1.
<mgrwt>
<rscale>  2 0.44120128E+03</rscale>
<asrwt>0</asrwt>
<pdfrwt beam="1">  1       21 0.16817943E-01 0.44122859E+03</pdfrwt>
<pdfrwt beam="2">  1       21 0.37945832E+00 0.44122859E+03</pdfrwt>
<totfact> 0.28757663E+02</totfact>
</mgrwt>
</event>
<event>
 6    1  0.9502611E-004  0.5550094E+03  0.7818608E-02  0.1000387E+00
         21   -1    0    0  503  502  0.00000000000E+00  0.00000000000E+00  0.27411185467E+03  0.27411185467E+03  0.00000000000E+00 0. -1.
         21   -1    0    0  501  503 -0.00000000000E+00 -0.00000000000E+00 -0.11301470208E+04  0.11301470208E+04  0.00000000000E+00 0.  1.
    9000007    2    1    2  501    0 -0.46649074663E+02 -0.38073787923E+03 -0.48750257304E+03  0.73871117546E+03  0.40112089597E+03 0.  0.
    9000005    1    3    3    0    0 -0.58881146812E+02 -0.41041503445E+03 -0.22015401569E+03  0.46944252105E+03  0.99999687468E+00 0.  0.
          4    1    3    3  501    0  0.12232072149E+02  0.29677155222E+02 -0.26734855735E+03  0.26926865441E+03  0.00000000000E+00 0.  1.
   -9000007    1    1    2    0  502  0.46649074663E+02  0.38073787923E+03 -0.36853259311E+03  0.66554770004E+03  0.40000000000E+03 0.  1.
<mgrwt>
<rscale>  2 0.55480691E+03</rscale>
<asrwt>0</asrwt>
<pdfrwt beam="1">  1       21 0.42171055E-01 0.55500941E+03</pdfrwt>
<pdfrwt beam="2">  1       21 0.17386877E+00 0.55500941E+03</pdfrwt>
<totfact> 0.87271723E+02</totfact>
</mgrwt>
</event>
<event>
 6    1  0.9502611E-004  0.4378466E+03  0.7818608E-02  0.1031566E+00
         21   -1    0    0  503  502  0.00000000000E+00  0.00000000000E+00  0.13556373998E+04  0.13556373998E+04  0.00000000000E+00 0. -1.
         21   -1    0    0  501  503 -0.00000000000E+00 -0.00000000000E+00 -0.20212456547E+03  0.20212456547E+03  0.00000000000E+00 0. -1.
    9000007    2    1    2  501    0  0.36605623705E+02 -0.16912986271E+03  0.14854214392E+03  0.46235748712E+03  0.40219994435E+03 0.  0.
    9000005    1    3    3    0    0 -0.12022677022E+03 -0.33340663253E+02  0.21150539560E+03  0.24556385822E+03  0.99999687468E+00 0.  0.
          4    1    3    3  501    0  0.15683239392E+03 -0.13578919946E+03 -0.62963251679E+02  0.21679362891E+03  0.00000000000E+00 0.  1.
   -9000007    1    1    2    0  502 -0.36605623705E+02  0.16912986271E+03  0.10049706905E+04  0.10954044782E+04  0.40000000000E+03 0. -1.
<mgrwt>
<rscale>  2 0.43734077E+03</rscale>
<asrwt>0</asrwt>
<pdfrwt beam="1">  1       21 0.20855959E+00 0.43784664E+03</pdfrwt>
<pdfrwt beam="2">  1       21 0.31096088E-01 0.43784664E+03</pdfrwt>
<totfact> 0.98507174E+02</totfact>
</mgrwt>
</event>
<event>
 6    1  0.9502611E-004  0.4799970E+03  0.7818608E-02  0.1019155E+00
         21   -1    0    0  503  502  0.00000000000E+00  0.00000000000E+00  0.53358021878E+03  0.53358021878E+03  0.00000000000E+00 0. -1.
         21   -1    0    0  501  503 -0.00000000000E+00 -0.00000000000E+00 -0.54159830243E+03  0.54159830243E+03  0.00000000000E+00 0. -1.
    9000007    2    1    2  501    0 -0.10470817163E+02  0.26462397611E+03 -0.24633846254E+03  0.53951809730E+03  0.40032693194E+03 0.  0.
    9000005    1    3    3    0    0  0.83649806728E+02  0.28763378943E+03 -0.30398265105E+03  0.42677504510E+03  0.99999687468E+00 0.  0.
          4    1    3    3  501    0 -0.94120623891E+02 -0.23009813314E+02  0.57644188506E+02  0.11274305220E+03  0.00000000000E+00 0.  1.
   -9000007    1    1    2    0  502  0.10470817163E+02 -0.26462397611E+03  0.23832037890E+03  0.53566042391E+03  0.40000000000E+03 0. -1.
<mgrwt>
<rscale>  2 0.47992885E+03</rscale>
<asrwt>0</asrwt>
<pdfrwt beam="1">  1       21 0.82089265E-01 0.47999702E+03</pdfrwt>
<pdfrwt beam="2">  1       21 0.83322816E-01 0.47999702E+03</pdfrwt>
<totfact> 0.13779460E+03</totfact>
</mgrwt>
</event>
<event>
 6    1  0.9502611E-004  0.4792335E+03  0.7818608E-02  0.1019413E+00
         21   -1    0    0  503  502  0.00000000000E+00  0.00000000000E+00  0.13557066852E+04  0.13557066852E+04  0.00000000000E+00 0.  1.
         21   -1    0    0  501  503 -0.00000000000E+00 -0.00000000000E+00 -0.57610231214E+03  0.57610231214E+03  0.00000000000E+00 0. -1.
    9000007    2    1    2  501    0  0.25146204339E+03  0.74156132964E+02 -0.42198250896E+03  0.63854053086E+03  0.40116390709E+03 0.  0.
    9000005    1    3    3    0    0  0.14984049728E+03  0.24042586782E+03 -0.22888151703E+03  0.36420395574E+03  0.99999687468E+00 0.  0.
          4    1    3    3  501    0  0.10162154611E+03 -0.16626973486E+03 -0.19310099193E+03  0.27433657512E+03  0.00000000000E+00 0.  1.
   -9000007    1    1    2    0  502 -0.25146204339E+03 -0.74156132964E+02  0.12015868820E+04  0.12932684665E+04  0.40000000000E+03 0.  1.
<mgrwt>
<rscale>  2 0.47898987E+03</rscale>
<asrwt>0</asrwt>
<pdfrwt beam="1">  1       21 0.20857026E+00 0.47923353E+03</pdfrwt>
<pdfrwt beam="2">  1       21 0.88631126E-01 0.47923353E+03</pdfrwt>
<totfact> 0.10082085E+02</totfact>
</mgrwt>
</event>
<event>
 6    1  0.9502611E-004  0.4620007E+03  0.7818608E-02  0.1024241E+00
         21   -1    0    0  503  502  0.00000000000E+00  0.00000000000E+00  0.16389457047E+04  0.16389457047E+04  0.00000000000E+00 0.  1.
         21   -1    0    0  501  503 -0.00000000000E+00 -0.00000000000E+00 -0.13009841464E+03  0.13009841464E+03  0.00000000000E+00 0.  1.
    9000007    2    1    2  501    0 -0.22791533724E+03  0.38720181055E+02  0.76386214528E+03  0.89243273492E+03  0.39938221792E+03 0.  0.
    9000005    1    3    3    0    0  0.95080441518E+02 -0.56172491968E+02  0.29688322661E+03  0.31675904005E+03  0.99999687468E+00 0.  0.
          4    1    3    3  501    0 -0.32299577876E+03  0.94892673023E+02  0.46697891867E+03  0.57567369488E+03  0.00000000000E+00 0.  1.
   -9000007    1    1    2    0  502  0.22791533724E+03 -0.38720181055E+02  0.74498514480E+03  0.87661138445E+03  0.40000000000E+03 0.  1.
<mgrwt>
<rscale>  2 0.46186696E+03</rscale>
<asrwt>0</asrwt>
<pdfrwt beam="1">  1       21 0.25214548E+00 0.46200071E+03</pdfrwt>
<pdfrwt beam="2">  1       21 0.20015142E-01 0.46200071E+03</pdfrwt>
<totfact> 0.12196007E+03</totfact>
</mgrwt>
</event>
<event>
 6    1  0.9502611E-004  0.5097650E+03  0.7818608E-02  0.1011267E+00
         21   -1    0    0  503  502  0.00000000000E+00  0.00000000000E+00  0.19791344854E+03  0.19791344854E+03  0.00000000000E+00 0. -1.
         21   -1    0    0  501  503 -0.00000000000E+00 -0.00000000000E+00 -0.20839644988E+04  0.20839644988E+04  0.00000000000E+00 0. -1.
    9000007    2    1    2  501    0 -0.50376105337E+02 -0.31180245557E+03 -0.16371595250E+04  0.17146870495E+04  0.40012728494E+03 0.  0.
    9000005    1    3    3    0    0  0.14682633187E+03 -0.23009588082E+03 -0.11645088468E+04  0.11960702071E+04  0.99999687468E+00 0.  0.
          4    1    3    3  501    0 -0.19720243721E+03 -0.81706574758E+02 -0.47265067819E+03  0.51861684237E+03  0.00000000000E+00 0.  1.
   -9000007    1    1    2    0  502  0.50376105337E+02  0.31180245557E+03 -0.24889152535E+03  0.56719089792E+03  0.40000000000E+03 0. -1.
<mgrwt>
<rscale>  2 0.50974003E+03</rscale>
<asrwt>0</asrwt>
<pdfrwt beam="1">  1       21 0.30448226E-01 0.50976501E+03</pdfrwt>
<pdfrwt beam="2">  1       21 0.32060989E+00 0.50976501E+03</pdfrwt>
<totfact> 0.20214307E+02</totfact>
</mgrwt>
</event>
<event>
 6    1  0.9502611E-004  0.4680418E+03  0.7818608E-02  0.1022496E+00
         21   -1    0    0  503  502  0.00000000000E+00  0.00000000000E+00  0.41653451123E+03  0.41653451123E+03  0.00000000000E+00 0. -1.
         21   -1    0    0  501  503 -0.00000000000E+00 -0.00000000000E+00 -0.12576151574E+04  0.12576151574E+04  0.00000000000E+00 0.  1.
    9000007    2    1    2  501    0 -0.10537106651E+03  0.21899778034E+03 -0.10591248620E+04  0.11578102749E+04  0.39964492977E+03 0.  0.
    9000005    1    3    3    0    0  0.10853971927E+03  0.51911795073E+02 -0.68560408158E+03  0.69608164880E+03  0.99999687468E+00 0.  0.
          4    1    3    3  501    0 -0.21391078577E+03  0.16708598527E+03 -0.37352078038E+03  0.46172862605E+03  0.00000000000E+00 0.  1.
   -9000007    1    1    2    0  502  0.10537106651E+03 -0.21899778034E+03  0.21804421584E+03  0.51633939373E+03  0.40000000000E+03 0. -1.
<mgrwt>
<rscale>  2 0.46796589E+03</rscale>
<asrwt>0</asrwt>
<pdfrwt beam="1">  1       21 0.64082233E-01 0.46804176E+03</pdfrwt>
<pdfrwt beam="2">  1       21 0.19347925E+00 0.46804176E+03</pdfrwt>
<totfact> 0.26854266E+02</totfact>
</mgrwt>
</event>
<event>
 6    1  0.9502611E-004  0.6255553E+03  0.7818608E-02  0.9853910E-01
         21   -1    0    0  503  502  0.00000000000E+00  0.00000000000E+00  0.11401033203E+04  0.11401033203E+04  0.00000000000E+00 0. -1.
         21   -1    0    0  501  503 -0.00000000000E+00 -0.00000000000E+00 -0.44473722220E+03  0.44473722220E+03  0.00000000000E+00 0. -1.
    9000007    2    1    2  501    0 -0.32140441552E+03 -0.35779691453E+03 -0.31264584384E+02  0.62603316921E+03  0.39952549899E+03 0.  0.
    9000005    1    3    3    0    0 -0.36903597700E+03 -0.39427968514E+03 -0.83529310004E+02  0.54646332728E+03  0.99999687468E+00 0.  0.
          4    1    3    3  501    0  0.47631561481E+02  0.36482770608E+02  0.52264725620E+02  0.79569841929E+02  0.00000000000E+00 0.  1.
   -9000007    1    1    2    0  502  0.32140441552E+03  0.35779691453E+03  0.72663068249E+03  0.95880737330E+03  0.40000000000E+03 0. -1.
<mgrwt>
<rscale>  2 0.62547946E+03</rscale>
<asrwt>0</asrwt>
<pdfrwt beam="1">  1       21 0.17540051E+00 0.62555530E+03</pdfrwt>
<pdfrwt beam="2">  1       21 0.68421111E-01 0.62555530E+03</pdfrwt>
<totfact> 0.29074868E+02</totfact>
</mgrwt>
</event>
<event>
 6    1  0.9502611E-004  0.5226331E+03  0.7818608E-02  0.1008234E+00
         21   -1    0    0  503  502  0.00000000000E+00  0.00000000000E+00  0.69313958105E+03  0.69313958105E+03  0.00000000000E+00 0.  1.
         21   -1    0    0  501  503 -0.00000000000E+00 -0.00000000000E+00 -0.40104590152E+03  0.40104590152E+03  0.00000000000E+00 0. -1.
    9000007    2    1    2  501    0 -0.21185184315E+03 -0.26127400292E+03  0.22936993433E+03  0.56780199473E+03  0.39578179645E+03 0.  0.
    9000005    1    3    3    0    0 -0.89178007864E+02 -0.19015817374E+03 -0.82151268249E+02  0.22552755706E+03  0.99999687468E+00 0.  0.
          4    1    3    3  501    0 -0.12267383528E+03 -0.71115829183E+02  0.31152120258E+03  0.34227443767E+03  0.00000000000E+00 0.  1.
   -9000007    1    1    2    0  502  0.21185184315E+03  0.26127400292E+03  0.62723745195E+02  0.52638348783E+03  0.40000000000E+03 0. -1.
<mgrwt>
<rscale>  2 0.52182585E+03</rscale>
<asrwt>0</asrwt>
<pdfrwt beam="1">  1       21 0.10663686E+00 0.52263305E+03</pdfrwt>
<pdfrwt beam="2">  1       21 0.61699369E-01 0.52263305E+03</pdfrwt>
<totfact> 0.14328837E+03</totfact>
</mgrwt>
</event>
<event>
 6    1  0.9502611E-004  0.4202900E+03  0.7818608E-02  0.1036982E+00
         21   -1    0    0  503  502  0.00000000000E+00  0.00000000000E+00  0.79316065000E+03  0.79316065000E+03  0.00000000000E+00 0. -1.
         21   -1    0    0  501  503 -0.00000000000E+00 -0.00000000000E+00 -0.22324507918E+03  0.22324507918E+03  0.00000000000E+00 0. -1.
    9000007    2    1    2  501    0  0.11513043231E+03 -0.57291526286E+02  0.31142520891E+03  0.52309588473E+03  0.40013286350E+03 0.  0.
    9000005    1    3    3    0    0 -0.77648088294E+02 -0.14426223677E+03  0.22999477277E+02  0.16544121168E+03  0.99999687468E+00 0.  0.
          4    1    3    3  501    0  0.19277852061E+03  0.86970710482E+02  0.28842573164E+03  0.35765467306E+03  0.00000000000E+00 0.  1.
   -9000007    1    1    2    0  502 -0.11513043231E+03  0.57291526286E+02  0.25849036191E+03  0.49330984445E+03  0.40000000000E+03 0.  1.
<mgrwt>
<rscale>  2 0.42025833E+03</rscale>
<asrwt>0</asrwt>
<pdfrwt beam="1">  1       21 0.12202471E+00 0.42028995E+03</pdfrwt>
<pdfrwt beam="2">  1       21 0.34345397E-01 0.42028995E+03</pdfrwt>
<totfact> 0.36409994E+03</totfact>
</mgrwt>
</event>
<event>
 6    1  0.9502611E-004  0.5260262E+03  0.7818608E-02  0.1007349E+00
         21   -1    0    0  503  502  0.00000000000E+00  0.00000000000E+00  0.39625488220E+03  0.39625488220E+03  0.00000000000E+00 0.  1.
         21   -1    0    0  501  503 -0.00000000000E+00 -0.00000000000E+00 -0.69765303505E+03  0.69765303505E+03  0.00000000000E+00 0. -1.
    9000007    2    1    2  501    0 -0.34161687896E+03  0.12044290412E+01 -0.18357959087E+03  0.55484877747E+03  0.39680241561E+03 0.  0.
    9000005    1    3    3    0    0 -0.37332825122E+02  0.13690531662E+03 -0.16993868367E+03  0.22139774559E+03  0.99999687468E+00 0.  0.
          4    1    3    3  501    0 -0.30428405384E+03 -0.13570088758E+03 -0.13640907198E+02  0.33345103188E+03  0.00000000000E+00 0.  1.
   -9000007    1    1    2    0  502  0.34161687896E+03 -0.12044290412E+01 -0.11781856198E+03  0.53905913979E+03  0.40000000000E+03 0.  1.
<mgrwt>
<rscale>  2 0.52541828E+03</rscale>
<asrwt>0</asrwt>
<pdfrwt beam="1">  1       21 0.60962290E-01 0.52602618E+03</pdfrwt>
<pdfrwt beam="2">  1       21 0.10733124E+00 0.52602618E+03</pdfrwt>
<totfact> 0.14462787E+03</totfact>
</mgrwt>
</event>
<event>
 6    1  0.9502611E-004  0.4510734E+03  0.7818608E-02  0.1027408E+00
         21   -1    0    0  503  502  0.00000000000E+00  0.00000000000E+00  0.27782049500E+03  0.27782049500E+03  0.00000000000E+00 0. -1.
         21   -1    0    0  501  503 -0.00000000000E+00 -0.00000000000E+00 -0.74749939731E+03  0.74749939731E+03  0.00000000000E+00 0. -1.
    9000007    2    1    2  501    0 -0.20731358727E+03  0.20368767127E+02 -0.30811416348E+03  0.54626146689E+03  0.40009179238E+03 0.  0.
    9000005    1    3    3    0    0 -0.12087935770E+03  0.15570158924E+03 -0.32980560950E+03  0.38422329974E+03  0.99999687468E+00 0.  0.
          4    1    3    3  501    0 -0.86434229571E+02 -0.13533282211E+03  0.21691446027E+02  0.16203816715E+03  0.00000000000E+00 0.  1.
   -9000007    1    1    2    0  502  0.20731358727E+03 -0.20368767127E+02 -0.16156473883E+03  0.47905842543E+03  0.40000000000E+03 0. -1.
<mgrwt>
<rscale>  2 0.45105309E+03</rscale>
<asrwt>0</asrwt>
<pdfrwt beam="1">  1       21 0.42741615E-01 0.45107344E+03</pdfrwt>
<pdfrwt beam="2">  1       21 0.11499991E+00 0.45107344E+03</pdfrwt>
<totfact> 0.26722218E+03</totfact>
</mgrwt>
</event>
<event>
 6    1  0.9502611E-004  0.4990752E+03  0.7818608E-02  0.1014033E+00
         21   -1    0    0  503  502  0.00000000000E+00  0.00000000000E+00  0.59130805145E+03  0.59130805145E+03  0.00000000000E+00 0.  1.
         21   -1    0    0  501  503 -0.00000000000E+00 -0.00000000000E+00 -0.48904016493E+03  0.48904016493E+03  0.00000000000E+00 0.  1.
    9000007    2    1    2  501    0  0.28016005602E+03 -0.10289029031E+03 -0.15025651468E+03  0.52102304974E+03  0.39976484254E+03 0.  0.
    9000005    1    3    3    0    0  0.17591695882E+03 -0.18654726997E+02  0.12381955206E+03  0.21593299124E+03  0.99999687468E+00 0.  0.
          4    1    3    3  501    0  0.10424309720E+03 -0.84235563315E+02 -0.27407606674E+03  0.30509005851E+03  0.00000000000E+00 0.  1.
   -9000007    1    1    2    0  502 -0.28016005602E+03  0.10289029031E+03  0.25252440120E+03  0.55932516663E+03  0.40000000000E+03 0.  1.
<mgrwt>
<rscale>  2 0.49902809E+03</rscale>
<asrwt>0</asrwt>
<pdfrwt beam="1">  1       21 0.90970470E-01 0.49907521E+03</pdfrwt>
<pdfrwt beam="2">  1       21 0.75236948E-01 0.49907521E+03</pdfrwt>
<totfact> 0.13603984E+03</totfact>
</mgrwt>
</event>
<event>
 6    1  0.9502611E-004  0.9912031E+03  0.7818608E-02  0.9318334E-01
         21   -1    0    0  503  502  0.00000000000E+00  0.00000000000E+00  0.12909122120E+04  0.12909122120E+04  0.00000000000E+00 0.  1.
         21   -1    0    0  501  503 -0.00000000000E+00 -0.00000000000E+00 -0.89195761474E+03  0.89195761474E+03  0.00000000000E+00 0. -1.
    9000007    2    1    2  501    0  0.90433368436E+03 -0.68295411738E+02 -0.21902081275E+03  0.10148042107E+04  0.39921647487E+03 0.  0.
    9000005    1    3    3    0    0  0.82078264492E+03 -0.60802017290E+02 -0.48134450381E+02  0.82443857310E+03  0.99999687468E+00 0.  0.
          4    1    3    3  501    0  0.83551039435E+02 -0.74933944479E+01 -0.17088636237E+03  0.19036563764E+03  0.00000000000E+00 0.  1.
   -9000007    1    1    2    0  502 -0.90433368436E+03  0.68295411738E+02  0.61797541004E+03  0.11680656160E+04  0.40000000000E+03 0.  1.
<mgrwt>
<rscale>  2 0.99112415E+03</rscale>
<asrwt>0</asrwt>
<pdfrwt beam="1">  1       21 0.19860188E+00 0.99120315E+03</pdfrwt>
<pdfrwt beam="2">  1       21 0.13722425E+00 0.99120315E+03</pdfrwt>
<totfact> 0.32340440E+01</totfact>
</mgrwt>
</event>
<event>
 6    1  0.9502611E-004  0.4221533E+03  0.7818608E-02  0.1036383E+00
         21   -1    0    0  503  502  0.00000000000E+00  0.00000000000E+00  0.15053781317E+03  0.15053781317E+03  0.00000000000E+00 0. -1.
         21   -1    0    0  501  503 -0.00000000000E+00 -0.00000000000E+00 -0.18683691728E+04  0.18683691728E+04  0.00000000000E+00 0. -1.
    9000007    2    1    2  501    0  0.76958559455E+02  0.11086376195E+03 -0.14700387579E+04  0.15294025763E+04  0.39980607437E+03 0.  0.
    9000005    1    3    3    0    0  0.15430846826E+02  0.25986843158E+03 -0.87381864745E+03  0.91177285624E+03  0.99999687468E+00 0.  0.
          4    1    3    3  501    0  0.61527712629E+02 -0.14900466963E+03 -0.59622011047E+03  0.61762972008E+03  0.00000000000E+00 0.  1.
   -9000007    1    1    2    0  502 -0.76958559455E+02 -0.11086376195E+03 -0.24779260169E+03  0.48950440962E+03  0.40000000000E+03 0. -1.
<mgrwt>
<rscale>  2 0.42210734E+03</rscale>
<asrwt>0</asrwt>
<pdfrwt beam="1">  1       21 0.23159664E-01 0.42215328E+03</pdfrwt>
<pdfrwt beam="2">  1       21 0.28744141E+00 0.42215328E+03</pdfrwt>
<totfact> 0.57575921E+02</totfact>
</mgrwt>
</event>
<event>
 6    1  0.9502611E-004  0.4464341E+03  0.7818608E-02  0.1028938E+00
         21   -1    0    0  503  502  0.00000000000E+00  0.00000000000E+00  0.46353038361E+03  0.46353038361E+03  0.00000000000E+00 0.  1.
         21   -1    0    0  501  503 -0.00000000000E+00 -0.00000000000E+00 -0.92780417736E+03  0.92780417736E+03  0.00000000000E+00 0.  1.
    9000007    2    1    2  501    0 -0.17259437516E+03 -0.88191729751E+02 -0.74291449316E+03  0.86673257955E+03  0.40216516604E+03 0.  0.
    9000005    1    3    3    0    0  0.11974477911E+03 -0.87650328278E+02 -0.31853427874E+03  0.35140642980E+03  0.99999687468E+00 0.  0.
          4    1    3    3  501    0 -0.29233915427E+03 -0.54140147366E+00 -0.42438021442E+03  0.51532614976E+03  0.00000000000E+00 0.  1.
   -9000007    1    1    2    0  502  0.17259437516E+03  0.88191729751E+02  0.27864069941E+03  0.52460198141E+03  0.40000000000E+03 0.  1.
<mgrwt>
<rscale>  2 0.44594595E+03</rscale>
<asrwt>0</asrwt>
<pdfrwt beam="1">  1       21 0.71312368E-01 0.44643412E+03</pdfrwt>
<pdfrwt beam="2">  1       21 0.14273910E+00 0.44643412E+03</pdfrwt>
<totfact> 0.50564942E+02</totfact>
</mgrwt>
</event>
<event>
 6    1  0.9502611E-004  0.4228764E+03  0.7818608E-02  0.1036237E+00
         21   -1    0    0  503  502  0.00000000000E+00  0.00000000000E+00  0.19853238892E+04  0.19853238892E+04  0.00000000000E+00 0. -1.
         21   -1    0    0  501  503 -0.00000000000E+00 -0.00000000000E+00 -0.12735758370E+03  0.12735758370E+03  0.00000000000E+00 0. -1.
    9000007    2    1    2  501    0 -0.93312339800E+02  0.10058446901E+03  0.35437302715E+03  0.55075408187E+03  0.39865447214E+03 0.  0.
    9000005    1    3    3    0    0 -0.91969138461E+02  0.37862778833E+02 -0.70091236846E+02  0.12167865025E+03  0.99999687468E+00 0.  0.
          4    1    3    3  501    0 -0.13432013390E+01  0.62721690181E+02  0.42446426399E+03  0.42907543162E+03  0.00000000000E+00 0.  1.
   -9000007    1    1    2    0  502  0.93312339800E+02 -0.10058446901E+03  0.15035932783E+04  0.15619273910E+04  0.40000000000E+03 0. -1.
<mgrwt>
<rscale>  2 0.42255789E+03</rscale>
<asrwt>0</asrwt>
<pdfrwt beam="1">  1       21 0.30543442E+00 0.42287637E+03</pdfrwt>
<pdfrwt beam="2">  1       21 0.19593476E-01 0.42287637E+03</pdfrwt>
<totfact> 0.61810229E+02</totfact>
</mgrwt>
</event>
<event>
 6    1  0.9502611E-004  0.5043579E+03  0.7818608E-02  0.1012649E+00
         21   -1    0    0  503  502  0.00000000000E+00  0.00000000000E+00  0.12564459403E+04  0.12564459403E+04  0.00000000000E+00 0.  1.
         21   -1    0    0  501  503 -0.00000000000E+00 -0.00000000000E+00 -0.21328695278E+03  0.21328695278E+03  0.00000000000E+00 0. -1.
    9000007    2    1    2  501    0  0.30719993778E+03 -0.22503098462E+01  0.35592457266E+03  0.61728465029E+03  0.39997646480E+03 0.  0.
    9000005    1    3    3    0    0 -0.59073364444E+01 -0.10852642257E+03  0.24582821530E+03  0.26878503019E+03  0.99999687468E+00 0.  0.
          4    1    3    3  501    0  0.31310727423E+03  0.10627611273E+03  0.11009635735E+03  0.34849962010E+03  0.00000000000E+00 0.  1.
   -9000007    1    1    2    0  502 -0.30719993778E+03  0.22503098462E+01  0.68723441486E+03  0.85244824279E+03  0.40000000000E+03 0. -1.
<mgrwt>
<rscale>  2 0.50435321E+03</rscale>
<asrwt>0</asrwt>
<pdfrwt beam="1">  1       21 0.19329937E+00 0.50435787E+03</pdfrwt>
<pdfrwt beam="2">  1       21 0.32813378E-01 0.50435787E+03</pdfrwt>
<totfact> 0.10859211E+03</totfact>
</mgrwt>
</event>
<event>
 6    1  0.9502611E-004  0.4291470E+03  0.7818608E-02  0.1034415E+00
         21   -1    0    0  503  502  0.00000000000E+00  0.00000000000E+00  0.10123382772E+04  0.10123382772E+04  0.00000000000E+00 0.  1.
         21   -1    0    0  501  503 -0.00000000000E+00 -0.00000000000E+00 -0.21313085294E+03  0.21313085294E+03  0.00000000000E+00 0.  1.
    9000007    2    1    2  501    0  0.14130912245E+03 -0.33707996032E+02  0.16092842111E+03  0.45832860654E+03  0.40381017542E+03 0.  0.
    9000005    1    3    3    0    0  0.40685946115E+02 -0.13886117054E+03  0.24916042070E+03  0.28813136957E+03  0.99999687468E+00 0.  0.
          4    1    3    3  501    0  0.10062317633E+03  0.10515317450E+03 -0.88231999585E+02  0.17019723698E+03  0.00000000000E+00 0.  1.
   -9000007    1    1    2    0  502 -0.14130912245E+03  0.33707996032E+02  0.63827900313E+03  0.76714052358E+03  0.40000000000E+03 0.  1.
<mgrwt>
<rscale>  2 0.42824837E+03</rscale>
<asrwt>0</asrwt>
<pdfrwt beam="1">  1       21 0.15574435E+00 0.42914701E+03</pdfrwt>
<pdfrwt beam="2">  1       21 0.32789363E-01 0.42914701E+03</pdfrwt>
<totfact> 0.20906589E+03</totfact>
</mgrwt>
</event>
<event>
 6    1  0.9502611E-004  0.4467590E+03  0.7818608E-02  0.1028766E+00
         21   -1    0    0  503  502  0.00000000000E+00  0.00000000000E+00  0.33026362069E+03  0.33026362069E+03  0.00000000000E+00 0.  1.
         21   -1    0    0  501  503 -0.00000000000E+00 -0.00000000000E+00 -0.10529180185E+04  0.10529180185E+04  0.00000000000E+00 0.  1.
    9000007    2    1    2  501    0  0.19222904737E+03  0.51396477895E+02 -0.81316540512E+03  0.92734631029E+03  0.39892304837E+03 0.  0.
    9000005    1    3    3    0    0 -0.92750373850E+02  0.10987472916E+03 -0.17873257065E+03  0.22939359137E+03  0.99999687468E+00 0.  0.
          4    1    3    3  501    0  0.28497942122E+03 -0.58478251263E+02 -0.63443283447E+03  0.69795271892E+03  0.00000000000E+00 0.  1.
   -9000007    1    1    2    0  502 -0.19222904737E+03 -0.51396477895E+02  0.90511007346E+02  0.45583532887E+03  0.40000000000E+03 0.  1.
<mgrwt>
<rscale>  2 0.44651781E+03</rscale>
<asrwt>0</asrwt>
<pdfrwt beam="1">  1       21 0.50809788E-01 0.44675900E+03</pdfrwt>
<pdfrwt beam="2">  1       21 0.16198739E+00 0.44675900E+03</pdfrwt>
<totfact> 0.75263112E+02</totfact>
</mgrwt>
</event>
<event>
 6    1  0.9502611E-004  0.4185446E+03  0.7818608E-02  0.1037553E+00
         21   -1    0    0  503  502  0.00000000000E+00  0.00000000000E+00  0.20802845372E+04  0.20802845372E+04  0.00000000000E+00 0. -1.
         21   -1    0    0  501  503 -0.00000000000E+00 -0.00000000000E+00 -0.67366718365E+03  0.67366718365E+03  0.00000000000E+00 0. -1.
    9000007    2    1    2  501    0 -0.12180477320E+03 -0.18524071026E+02 -0.58478029942E+03  0.71904529642E+03  0.39984821587E+03 0.  0.
    9000005    1    3    3    0    0 -0.37858525102E+00 -0.19545191040E+03 -0.20786312602E+03  0.28532380160E+03  0.99999687468E+00 0.  0.
          4    1    3    3  501    0 -0.12142618795E+03  0.17692783938E+03 -0.37691717339E+03  0.43372149481E+03  0.00000000000E+00 0.  1.
   -9000007    1    1    2    0  502  0.12180477320E+03  0.18524071026E+02  0.19913976529E+04  0.20349064244E+04  0.40000000000E+03 0. -1.
<mgrwt>
<rscale>  2 0.41850829E+03</rscale>
<asrwt>0</asrwt>
<pdfrwt beam="1">  1       21 0.32004377E+00 0.41854455E+03</pdfrwt>
<pdfrwt beam="2">  1       21 0.10364111E+00 0.41854455E+03</pdfrwt>
<totfact> 0.14900871E+01</totfact>
</mgrwt>
</event>
<event>
 6    1  0.9502611E-004  0.4764891E+03  0.7818608E-02  0.1020144E+00
         21   -1    0    0  503  502  0.00000000000E+00  0.00000000000E+00  0.86429820804E+03  0.86429820804E+03  0.00000000000E+00 0.  1.
         21   -1    0    0  501  503 -0.00000000000E+00 -0.00000000000E+00 -0.29593712301E+03  0.29593712301E+03  0.00000000000E+00 0.  1.
    9000007    2    1    2  501    0  0.25781040424E+03  0.59067170965E+01  0.88972161817E+02  0.48472453651E+03  0.40067535097E+03 0.  0.
    9000005    1    3    3    0    0  0.85697983106E+02 -0.16619023455E+03  0.14300847240E+03  0.23540552573E+03  0.99999687468E+00 0.  0.
          4    1    3    3  501    0  0.17211242113E+03  0.17209695165E+03 -0.54036310586E+02  0.24931901078E+03  0.00000000000E+00 0.  1.
   -9000007    1    1    2    0  502 -0.25781040424E+03 -0.59067170965E+01  0.47938892322E+03  0.67551079454E+03  0.40000000000E+03 0. -1.
<mgrwt>
<rscale>  2 0.47634706E+03</rscale>
<asrwt>0</asrwt>
<pdfrwt beam="1">  1       21 0.13296895E+00 0.47648907E+03</pdfrwt>
<pdfrwt beam="2">  1       21 0.45528788E-01 0.47648907E+03</pdfrwt>
<totfact> 0.15988545E+03</totfact>
</mgrwt>
</event>
<event>
 6    1  0.9502611E-004  0.4098898E+03  0.7818608E-02  0.1040413E+00
         21   -1    0    0  503  502  0.00000000000E+00  0.00000000000E+00  0.11682956329E+03  0.11682956329E+03  0.00000000000E+00 0. -1.
         21   -1    0    0  501  503 -0.00000000000E+00 -0.00000000000E+00 -0.16304891560E+04  0.16304891560E+04  0.00000000000E+00 0. -1.
    9000007    2    1    2  501    0  0.58484132691E+02 -0.67355893211E+02 -0.10571816960E+04  0.11338618909E+04  0.40006554356E+03 0.  0.
    9000005    1    3    3    0    0  0.11291175439E+03 -0.20666316340E+03 -0.82269872643E+03  0.85574115353E+03  0.99999687468E+00 0.  0.
          4    1    3    3  501    0 -0.54427621704E+02  0.13930727019E+03 -0.23448296958E+03  0.27812073737E+03  0.00000000000E+00 0.  1.
   -9000007    1    1    2    0  502 -0.58484132691E+02  0.67355893211E+02 -0.45647789675E+03  0.61345682843E+03  0.40000000000E+03 0. -1.
<mgrwt>
<rscale>  2 0.40987381E+03</rscale>
<asrwt>0</asrwt>
<pdfrwt beam="1">  1       21 0.17973780E-01 0.40988980E+03</pdfrwt>
<pdfrwt beam="2">  1       21 0.25084447E+00 0.40988980E+03</pdfrwt>
<totfact> 0.15627012E+03</totfact>
</mgrwt>
</event>
<event>
 6    1  0.9502611E-004  0.5172075E+03  0.7818608E-02  0.1009437E+00
         21   -1    0    0  503  502  0.00000000000E+00  0.00000000000E+00  0.46324076804E+03  0.46324076804E+03  0.00000000000E+00 0. -1.
         21   -1    0    0  501  503 -0.00000000000E+00 -0.00000000000E+00 -0.11551757585E+04  0.11551757585E+04  0.00000000000E+00 0.  1.
    9000007    2    1    2  501    0 -0.25215665657E+03 -0.20740982697E+03 -0.91885458278E+03  0.10544180184E+04  0.40112566293E+03 0.  0.
    9000005    1    3    3    0    0  0.12790345961E+02  0.10138550563E+03 -0.26828954126E+03  0.28709387253E+03  0.99999687468E+00 0.  0.
          4    1    3    3  501    0 -0.26494700253E+03 -0.30879533260E+03 -0.65056504152E+03  0.76732414587E+03  0.00000000000E+00 0.  1.
   -9000007    1    1    2    0  502  0.25215665657E+03  0.20740982697E+03  0.22691959233E+03  0.56399850812E+03  0.40000000000E+03 0. -1.
<mgrwt>
<rscale>  2 0.51698924E+03</rscale>
<asrwt>0</asrwt>
<pdfrwt beam="1">  1       21 0.71267811E-01 0.51720751E+03</pdfrwt>
<pdfrwt beam="2">  1       21 0.17771935E+00 0.51720751E+03</pdfrwt>
<totfact> 0.26618049E+02</totfact>
</mgrwt>
</event>
<event>
 6    1  0.9502611E-004  0.5078851E+03  0.7818608E-02  0.1011834E+00
         21   -1    0    0  503  502  0.00000000000E+00  0.00000000000E+00  0.25153291296E+03  0.25153291296E+03  0.00000000000E+00 0.  1.
         21   -1    0    0  501  503 -0.00000000000E+00 -0.00000000000E+00 -0.13667125450E+04  0.13667125450E+04  0.00000000000E+00 0.  1.
    9000007    2    1    2  501    0  0.24695409899E+03 -0.18837160058E+03 -0.96421042559E+03  0.10897931061E+04  0.40184211127E+03 0.  0.
    9000005    1    3    3    0    0  0.10036933786E+03  0.12084509560E+03 -0.40228963950E+03  0.43187439743E+03  0.99999687468E+00 0.  0.
          4    1    3    3  501    0  0.14658476113E+03 -0.30921669617E+03 -0.56192078609E+03  0.65791870868E+03  0.00000000000E+00 0.  1.
   -9000007    1    1    2    0  502 -0.24695409899E+03  0.18837160058E+03 -0.15096920649E+03  0.52845235189E+03  0.40000000000E+03 0.  1.
<mgrwt>
<rscale>  2 0.50752064E+03</rscale>
<asrwt>0</asrwt>
<pdfrwt beam="1">  1       21 0.38697370E-01 0.50788509E+03</pdfrwt>
<pdfrwt beam="2">  1       21 0.21026347E+00 0.50788509E+03</pdfrwt>
<totfact> 0.59738815E+02</totfact>
</mgrwt>
</event>
<event>
 6    1  0.9502611E-004  0.4094943E+03  0.7818608E-02  0.1040612E+00
         21   -1    0    0  503  502  0.00000000000E+00  0.00000000000E+00  0.21930678481E+03  0.21930678481E+03  0.00000000000E+00 0. -1.
         21   -1    0    0  501  503 -0.00000000000E+00 -0.00000000000E+00 -0.77357716254E+03  0.77357716254E+03  0.00000000000E+00 0. -1.
    9000007    2    1    2  501    0  0.47070005839E+02  0.69118703789E+02 -0.33536742598E+03  0.52929848279E+03  0.40086480616E+03 0.  0.
    9000005    1    3    3    0    0 -0.11991239164E+03  0.16528395859E+03 -0.10713804258E+03  0.23060210059E+03  0.99999687468E+00 0.  0.
          4    1    3    3  501    0  0.16698239747E+03 -0.96165254797E+02 -0.22822938340E+03  0.29869638221E+03  0.00000000000E+00 0.  1.
   -9000007    1    1    2    0  502 -0.47070005839E+02 -0.69118703789E+02 -0.21890295175E+03  0.46358546456E+03  0.40000000000E+03 0.  1.
<mgrwt>
<rscale>  2 0.40928249E+03</rscale>
<asrwt>0</asrwt>
<pdfrwt beam="1">  1       21 0.33739505E-01 0.40949429E+03</pdfrwt>
<pdfrwt beam="2">  1       21 0.11901187E+00 0.40949429E+03</pdfrwt>
<totfact> 0.40382091E+03</totfact>
</mgrwt>
</event>
<event>
 6    1  0.9502611E-004  0.4399080E+03  0.7818608E-02  0.1030829E+00
         21   -1    0    0  503  502  0.00000000000E+00  0.00000000000E+00  0.15888799379E+04  0.15888799379E+04  0.00000000000E+00 0.  1.
         21   -1    0    0  501  503 -0.00000000000E+00 -0.00000000000E+00 -0.12221347110E+03  0.12221347110E+03  0.00000000000E+00 0.  1.
    9000007    2    1    2  501    0  0.17853785703E+03  0.40536895258E+02  0.67211832456E+03  0.80289422566E+03  0.39922060208E+03 0.  0.
    9000005    1    3    3    0    0  0.21656443378E+03  0.29598211875E+02  0.71314779347E+03  0.74589341292E+03  0.99999687468E+00 0.  0.
          4    1    3    3  501    0 -0.38026576749E+02  0.10938683383E+02 -0.41029468911E+02  0.57000812736E+02  0.00000000000E+00 0.  1.
   -9000007    1    1    2    0  502 -0.17853785703E+03 -0.40536895258E+02  0.79454814229E+03  0.90819918338E+03  0.40000000000E+03 0. -1.
<mgrwt>
<rscale>  2 0.43973070E+03</rscale>
<asrwt>0</asrwt>
<pdfrwt beam="1">  1       21 0.24444305E+00 0.43990795E+03</pdfrwt>
<pdfrwt beam="2">  1       21 0.18802074E-01 0.43990795E+03</pdfrwt>
<totfact> 0.15480278E+03</totfact>
</mgrwt>
</event>
<event>
 6    1  0.9502611E-004  0.4034617E+03  0.7818608E-02  0.1042611E+00
         21   -1    0    0  503  502  0.00000000000E+00  0.00000000000E+00  0.31240093933E+03  0.31240093933E+03  0.00000000000E+00 0.  1.
         21   -1    0    0  501  503 -0.00000000000E+00 -0.00000000000E+00 -0.57650129346E+03  0.57650129346E+03  0.00000000000E+00 0.  1.
    9000007    2    1    2  501    0  0.23970965239E+02  0.46976068211E+02 -0.27026923976E+03  0.48539335642E+03  0.39972476823E+03 0.  0.
    9000005    1    3    3    0    0 -0.29965264190E+02 -0.16193337954E+03 -0.19869479096E+03  0.25807161103E+03  0.99999687468E+00 0.  0.
          4    1    3    3  501    0  0.53936229429E+02  0.20890944776E+03 -0.71574448803E+02  0.22732174539E+03  0.00000000000E+00 0.  1.
   -9000007    1    1    2    0  502 -0.23970965239E+02 -0.46976068211E+02  0.61688856360E+01  0.40350887637E+03  0.40000000000E+03 0.  1.
<mgrwt>
<rscale>  2 0.40339348E+03</rscale>
<asrwt>0</asrwt>
<pdfrwt beam="1">  1       21 0.48061683E-01 0.40346172E+03</pdfrwt>
<pdfrwt beam="2">  1       21 0.88692507E-01 0.40346172E+03</pdfrwt>
<totfact> 0.40003614E+03</totfact>
</mgrwt>
</event>
<event>
 6    1  0.9502611E-004  0.4688416E+03  0.7818608E-02  0.1022269E+00
         21   -1    0    0  503  502  0.00000000000E+00  0.00000000000E+00  0.93827028523E+03  0.93827028523E+03  0.00000000000E+00 0.  1.
         21   -1    0    0  501  503 -0.00000000000E+00 -0.00000000000E+00 -0.24087753555E+03  0.24087753555E+03  0.00000000000E+00 0.  1.
    9000007    2    1    2  501    0 -0.90485965653E+02 -0.22721076707E+03  0.24986038907E+03  0.53099841173E+03  0.39964566378E+03 0.  0.
    9000005    1    3    3    0    0  0.24267002055E+02  0.17792000074E+02 -0.90981920223E+02  0.95833983829E+02  0.99999687468E+00 0.  0.
          4    1    3    3  501    0 -0.11475296771E+03 -0.24500276715E+03  0.34084230929E+03  0.43516442790E+03  0.00000000000E+00 0.  1.
   -9000007    1    1    2    0  502  0.90485965653E+02  0.22721076707E+03  0.44753236061E+03  0.64814940904E+03  0.40000000000E+03 0.  1.
<mgrwt>
<rscale>  2 0.46876601E+03</rscale>
<asrwt>0</asrwt>
<pdfrwt beam="1">  1       21 0.14434927E+00 0.46884160E+03</pdfrwt>
<pdfrwt beam="2">  1       21 0.37058083E-01 0.46884160E+03</pdfrwt>
<totfact> 0.19748836E+03</totfact>
</mgrwt>
</event>
<event>
 6    1  0.9502611E-004  0.4535337E+03  0.7818608E-02  0.1026695E+00
         21   -1    0    0  503  502  0.00000000000E+00  0.00000000000E+00  0.36524716548E+03  0.36524716548E+03  0.00000000000E+00 0. -1.
         21   -1    0    0  501  503 -0.00000000000E+00 -0.00000000000E+00 -0.59008215505E+03  0.59008215505E+03  0.00000000000E+00 0. -1.
    9000007    2    1    2  501    0  0.16869356919E+03  0.13128320223E+03 -0.96779061211E+01  0.45334787662E+03  0.39967216052E+03 0.  0.
    9000005    1    3    3    0    0  0.22304064481E+03  0.43686174758E+02 -0.15505271657E+03  0.27513261532E+03  0.99999687468E+00 0.  0.
          4    1    3    3  501    0 -0.54347075614E+02  0.87597027469E+02  0.14537481045E+03  0.17821526131E+03  0.00000000000E+00 0.  1.
   -9000007    1    1    2    0  502 -0.16869356919E+03 -0.13128320223E+03 -0.21515708345E+03  0.50198144391E+03  0.40000000000E+03 0. -1.
<mgrwt>
<rscale>  2 0.45346138E+03</rscale>
<asrwt>0</asrwt>
<pdfrwt beam="1">  1       21 0.56191872E-01 0.45353368E+03</pdfrwt>
<pdfrwt beam="2">  1       21 0.90781869E-01 0.45353368E+03</pdfrwt>
<totfact> 0.26611341E+03</totfact>
</mgrwt>
</event>
<event>
 6    1  0.9502611E-004  0.4809890E+03  0.7818608E-02  0.1018893E+00
         21   -1    0    0  503  502  0.00000000000E+00  0.00000000000E+00  0.28435352142E+03  0.28435352142E+03  0.00000000000E+00 0.  1.
         21   -1    0    0  501  503 -0.00000000000E+00 -0.00000000000E+00 -0.95885309814E+03  0.95885309814E+03  0.00000000000E+00 0.  1.
    9000007    2    1    2  501    0 -0.26321056800E+03  0.45504319398E+02 -0.57966384151E+03  0.75295743510E+03  0.39948001668E+03 0.  0.
    9000005    1    3    3    0    0 -0.28337479136E+03  0.18570975894E+03 -0.40166534534E+03  0.52547639014E+03  0.99999687468E+00 0.  0.
          4    1    3    3  501    0  0.20164223361E+02 -0.14020543954E+03 -0.17799849617E+03  0.22748104497E+03  0.00000000000E+00 0.  1.
   -9000007    1    1    2    0  502  0.26321056800E+03 -0.45504319398E+02 -0.94835735206E+02  0.49024918446E+03  0.40000000000E+03 0. -1.
<mgrwt>
<rscale>  2 0.48088091E+03</rscale>
<asrwt>0</asrwt>
<pdfrwt beam="1">  1       21 0.43746696E-01 0.48098903E+03</pdfrwt>
<pdfrwt beam="2">  1       21 0.14751586E+00 0.48098903E+03</pdfrwt>
<totfact> 0.13161412E+03</totfact>
</mgrwt>
</event>
<event>
 6    1  0.9502611E-004  0.5011886E+03  0.7818608E-02  0.1013494E+00
         21   -1    0    0  503  502  0.00000000000E+00  0.00000000000E+00  0.37032892941E+03  0.37032892941E+03  0.00000000000E+00 0. -1.
         21   -1    0    0  501  503 -0.00000000000E+00 -0.00000000000E+00 -0.68913671717E+03  0.68913671717E+03  0.00000000000E+00 0.  1.
    9000007    2    1    2  501    0  0.29581631590E+03  0.57457375978E+02 -0.22748489615E+03  0.55039933131E+03  0.40047647013E+03 0.  0.
    9000005    1    3    3    0    0  0.28709861513E+03  0.10019106434E+03  0.14586855387E+02  0.30443002567E+03  0.99999687468E+00 0.  0.
          4    1    3    3  501    0  0.87177007677E+01 -0.42733688362E+02 -0.24207175154E+03  0.24596930565E+03  0.00000000000E+00 0.  1.
   -9000007    1    1    2    0  502 -0.29581631590E+03 -0.57457375978E+02 -0.91322891605E+02  0.50906631526E+03  0.40000000000E+03 0.  1.
<mgrwt>
<rscale>  2 0.50109345E+03</rscale>
<asrwt>0</asrwt>
<pdfrwt beam="1">  1       21 0.56973682E-01 0.50118863E+03</pdfrwt>
<pdfrwt beam="2">  1       21 0.10602103E+00 0.50118863E+03</pdfrwt>
<totfact> 0.17437791E+03</totfact>
</mgrwt>
</event>
<event>
 6    1  0.9502611E-004  0.4219746E+03  0.7818608E-02  0.1036480E+00
         21   -1    0    0  503  502  0.00000000000E+00  0.00000000000E+00  0.65797825341E+03  0.65797825341E+03  0.00000000000E+00 0. -1.
         21   -1    0    0  501  503 -0.00000000000E+00 -0.00000000000E+00 -0.32135020958E+03  0.32135020958E+03  0.00000000000E+00 0. -1.
    9000007    2    1    2  501    0  0.73396712110E+02  0.11002973698E+03 -0.26953952355E+02  0.42283453820E+03  0.40071050745E+03 0.  0.
    9000005    1    3    3    0    0 -0.13189747537E+03 -0.55247781904E+02  0.44490825397E+02  0.14976546649E+03  0.99999687468E+00 0.  0.
          4    1    3    3  501    0  0.20529418748E+03  0.16527751888E+03 -0.71444777752E+02  0.27306907172E+03  0.00000000000E+00 0.  1.
   -9000007    1    1    2    0  502 -0.73396712110E+02 -0.11002973698E+03  0.36358199619E+03  0.55649392478E+03  0.40000000000E+03 0. -1.
<mgrwt>
<rscale>  2 0.42180580E+03</rscale>
<asrwt>0</asrwt>
<pdfrwt beam="1">  1       21 0.10122742E+00 0.42197456E+03</pdfrwt>
<pdfrwt beam="2">  1       21 0.49438494E-01 0.42197456E+03</pdfrwt>
<totfact> 0.27274338E+03</totfact>
</mgrwt>
</event>
<event>
 6    1  0.9502611E-004  0.5662212E+03  0.7818608E-02  0.9978694E-01
         21   -1    0    0  503  502  0.00000000000E+00  0.00000000000E+00  0.47713860617E+03  0.47713860617E+03  0.00000000000E+00 0.  1.
         21   -1    0    0  501  503 -0.00000000000E+00 -0.00000000000E+00 -0.68229616955E+03  0.68229616955E+03  0.00000000000E+00 0.  1.
    9000007    2    1    2  501    0 -0.40075323504E+03 -0.18239423238E+01 -0.17830753007E+03  0.59257729235E+03  0.39843166287E+03 0.  0.
    9000005    1    3    3    0    0  0.77213912964E+02  0.30859329265E+02 -0.48299969188E+02  0.96167424709E+02  0.99999687468E+00 0.  0.
          4    1    3    3  501    0 -0.47796714800E+03 -0.32683271589E+02 -0.13000756088E+03  0.49640986765E+03  0.00000000000E+00 0.  1.
   -9000007    1    1    2    0  502  0.40075323504E+03  0.18239423238E+01 -0.26850033318E+02  0.56685748337E+03  0.40000000000E+03 0.  1.
<mgrwt>
<rscale>  2 0.56594432E+03</rscale>
<asrwt>0</asrwt>
<pdfrwt beam="1">  1       21 0.73405939E-01 0.56622123E+03</pdfrwt>
<pdfrwt beam="2">  1       21 0.10496864E+00 0.56622123E+03</pdfrwt>
<totfact> 0.99420518E+02</totfact>
</mgrwt>
</event>
<event>
 6    1  0.9502611E-004  0.4594402E+03  0.7818608E-02  0.1025247E+00
         21   -1    0    0  503  502  0.00000000000E+00  0.00000000000E+00  0.17121953812E+03  0.17121953812E+03  0.00000000000E+00 0. -1.
         21   -1    0    0  501  503 -0.00000000000E+00 -0.00000000000E+00 -0.12301331306E+04  0.12301331306E+04  0.00000000000E+00 0. -1.
    9000007    2    1    2  501    0  0.81562509904E+02 -0.21079108690E+03 -0.46904959868E+03  0.65367302038E+03  0.39521584764E+03 0.  0.
    9000005    1    3    3    0    0  0.23337842835E+03 -0.77366075350E+02 -0.31471313794E+03  0.39936995333E+03  0.99999687468E+00 0.  0.
          4    1    3    3  501    0 -0.15181591845E+03 -0.13342501155E+03 -0.15433646074E+03  0.25430306706E+03  0.00000000000E+00 0.  1.
   -9000007    1    1    2    0  502 -0.81562509904E+02  0.21079108690E+03 -0.58986399379E+03  0.74767964832E+03  0.40000000000E+03 0. -1.
<mgrwt>
<rscale>  2 0.45839690E+03</rscale>
<asrwt>0</asrwt>
<pdfrwt beam="1">  1       21 0.26341468E-01 0.45944023E+03</pdfrwt>
<pdfrwt beam="2">  1       21 0.18925125E+00 0.45944023E+03</pdfrwt>
<totfact> 0.18232650E+03</totfact>
</mgrwt>
</event>
<event>
 6    1  0.9502611E-004  0.4368171E+03  0.7818608E-02  0.1031768E+00
         21   -1    0    0  503  502  0.00000000000E+00  0.00000000000E+00  0.20378632717E+03  0.20378632717E+03  0.00000000000E+00 0.  1.
         21   -1    0    0  501  503 -0.00000000000E+00 -0.00000000000E+00 -0.10795764495E+04  0.10795764495E+04  0.00000000000E+00 0.  1.
    9000007    2    1    2  501    0 -0.16736271471E+03 -0.52904288663E+02 -0.67232349428E+03  0.80148331997E+03  0.39943396100E+03 0.  0.
    9000005    1    3    3    0    0 -0.25667003135E+03 -0.40741951913E+01 -0.22070776607E+03  0.33853954282E+03  0.99999687468E+00 0.  0.
          4    1    3    3  501    0  0.89307316635E+02 -0.48830093472E+02 -0.45161572821E+03  0.46294377715E+03  0.00000000000E+00 0.  1.
   -9000007    1    1    2    0  502  0.16736271471E+03  0.52904288663E+02 -0.20346662802E+03  0.48187945666E+03  0.40000000000E+03 0.  1.
<mgrwt>
<rscale>  2 0.43668743E+03</rscale>
<asrwt>0</asrwt>
<pdfrwt beam="1">  1       21 0.31351742E-01 0.43681706E+03</pdfrwt>
<pdfrwt beam="2">  1       21 0.16608869E+00 0.43681706E+03</pdfrwt>
<totfact> 0.19054239E+03</totfact>
</mgrwt>
</event>
<event>
 6    1  0.9502611E-004  0.4331833E+03  0.7818608E-02  0.1032885E+00
         21   -1    0    0  503  502  0.00000000000E+00  0.00000000000E+00  0.71151209153E+03  0.71151209153E+03  0.00000000000E+00 0.  1.
         21   -1    0    0  501  503 -0.00000000000E+00 -0.00000000000E+00 -0.50553304914E+03  0.50553304914E+03  0.00000000000E+00 0.  1.
    9000007    2    1    2  501    0  0.11868079980E+03  0.11524349869E+03 -0.31801693522E+03  0.53738494558E+03  0.40035186077E+03 0.  0.
    9000005    1    3    3    0    0 -0.13400175608E+03  0.92058893597E+02 -0.19941604492E+03  0.25729179833E+03  0.99999687468E+00 0.  0.
          4    1    3    3  501    0  0.25268255588E+03  0.23184605096E+02 -0.11860089030E+03  0.28009314725E+03  0.00000000000E+00 0.  1.
   -9000007    1    1    2    0  502 -0.11868079980E+03 -0.11524349869E+03  0.52399597762E+03  0.67966019509E+03  0.40000000000E+03 0.  1.
<mgrwt>
<rscale>  2 0.43310203E+03</rscale>
<asrwt>0</asrwt>
<pdfrwt beam="1">  1       21 0.10946340E+00 0.43318334E+03</pdfrwt>
<pdfrwt beam="2">  1       21 0.77774316E-01 0.43318334E+03</pdfrwt>
<totfact> 0.82542877E+02</totfact>
</mgrwt>
</event>
<event>
 6    1  0.9502611E-004  0.4130169E+03  0.7818608E-02  0.1039470E+00
         21   -1    0    0  503  502  0.00000000000E+00  0.00000000000E+00  0.11732236872E+03  0.11732236872E+03  0.00000000000E+00 0. -1.
         21   -1    0    0  501  503 -0.00000000000E+00 -0.00000000000E+00 -0.16296298751E+04  0.16296298751E+04  0.00000000000E+00 0. -1.
    9000007    2    1    2  501    0 -0.60820919362E+02  0.76327633631E+02 -0.10476366500E+04  0.11261108014E+04  0.40132018971E+03 0.  0.
    9000005    1    3    3    0    0 -0.14499747611E+03  0.15058664386E+03 -0.96326368920E+03  0.98568683683E+03  0.99999687468E+00 0.  0.
          4    1    3    3  501    0  0.84176556744E+02 -0.74259010232E+02 -0.84372960826E+02  0.14042396457E+03  0.00000000000E+00 0.  1.
   -9000007    1    1    2    0  502  0.60820919362E+02 -0.76327633631E+02 -0.46467085638E+03  0.62084144244E+03  0.40000000000E+03 0. -1.
<mgrwt>
<rscale>  2 0.41269589E+03</rscale>
<asrwt>0</asrwt>
<pdfrwt beam="1">  1       21 0.18049595E-01 0.41301693E+03</pdfrwt>
<pdfrwt beam="2">  1       21 0.25071229E+00 0.41301693E+03</pdfrwt>
<totfact> 0.15507641E+03</totfact>
</mgrwt>
</event>
<event>
 6    1  0.9502611E-004  0.5625216E+03  0.7818608E-02  0.9986753E-01
         21   -1    0    0  503  502  0.00000000000E+00  0.00000000000E+00  0.30594124375E+03  0.30594124375E+03  0.00000000000E+00 0. -1.
         21   -1    0    0  501  503 -0.00000000000E+00 -0.00000000000E+00 -0.14138518490E+04  0.14138518490E+04  0.00000000000E+00 0. -1.
    9000007    2    1    2  501    0  0.24928379238E+03  0.30706365269E+03 -0.10742439500E+03  0.57201125247E+03  0.39903179869E+03 0.  0.
    9000005    1    3    3    0    0  0.48797036683E+02 -0.16445237801E+02  0.11864196743E+03  0.12933875315E+03  0.99999687468E+00 0.  0.
          4    1    3    3  501    0  0.20048675570E+03  0.32350889049E+03 -0.22606636243E+03  0.44267249933E+03  0.00000000000E+00 0.  1.
   -9000007    1    1    2    0  502 -0.24928379238E+03 -0.30706365269E+03 -0.10004862102E+04  0.11477818402E+04  0.40000000000E+03 0. -1.
<mgrwt>
<rscale>  2 0.56234946E+03</rscale>
<asrwt>0</asrwt>
<pdfrwt beam="1">  1       21 0.47067884E-01 0.56252155E+03</pdfrwt>
<pdfrwt beam="2">  1       21 0.21751567E+00 0.56252155E+03</pdfrwt>
<totfact> 0.34799096E+02</totfact>
</mgrwt>
</event>
<event>
 6    1  0.9502611E-004  0.5535967E+03  0.7818608E-02  0.1000754E+00
         21   -1    0    0  503  502  0.00000000000E+00  0.00000000000E+00  0.27398729069E+03  0.27398729069E+03  0.00000000000E+00 0. -1.
         21   -1    0    0  501  503 -0.00000000000E+00 -0.00000000000E+00 -0.21033248862E+04  0.21033248862E+04  0.00000000000E+00 0.  1.
    9000007    2    1    2  501    0  0.21284913346E+02  0.37987140194E+03 -0.17299776532E+04  0.18163953134E+04  0.40213669887E+03 0.  0.
    9000005    1    3    3    0    0  0.17672326981E+03  0.41965502664E+02 -0.57359687504E+03  0.60166983683E+03  0.99999687468E+00 0.  0.
          4    1    3    3  501    0 -0.15543835646E+03  0.33790589928E+03 -0.11563807781E+04  0.12147254766E+04  0.00000000000E+00 0.  1.
   -9000007    1    1    2    0  502 -0.21284913346E+02 -0.37987140194E+03 -0.99359942301E+02  0.56091686343E+03  0.40000000000E+03 0. -1.
<mgrwt>
<rscale>  2 0.55320871E+03</rscale>
<asrwt>0</asrwt>
<pdfrwt beam="1">  1       21 0.42151891E-01 0.55359665E+03</pdfrwt>
<pdfrwt beam="2">  1       21 0.32358844E+00 0.55359665E+03</pdfrwt>
<totfact> 0.97621631E+01</totfact>
</mgrwt>
</event>
<event>
 6    1  0.9502611E-004  0.4195183E+03  0.7818608E-02  0.1037247E+00
         21   -1    0    0  503  502  0.00000000000E+00  0.00000000000E+00  0.33396330423E+04  0.33396330423E+04  0.00000000000E+00 0.  1.
         21   -1    0    0  501  503 -0.00000000000E+00 -0.00000000000E+00 -0.52667734580E+02  0.52667734580E+02  0.00000000000E+00 0.  1.
    9000007    2    1    2  501    0 -0.10724235790E+03 -0.67042211525E+02  0.16593927397E+04  0.17115307017E+04  0.39969675609E+03 0.  0.
    9000005    1    3    3    0    0  0.11270585964E+03 -0.87323710547E+02  0.11143115565E+04  0.11233963175E+04  0.99999687468E+00 0.  0.
          4    1    3    3  501    0 -0.21994821754E+03  0.20281499021E+02  0.54508118321E+03  0.58813438421E+03  0.00000000000E+00 0.  1.
   -9000007    1    1    2    0  502  0.10724235790E+03  0.67042211525E+02  0.16275725680E+04  0.16807700751E+04  0.40000000000E+03 0.  1.
<mgrwt>
<rscale>  2 0.41944597E+03</rscale>
<asrwt>0</asrwt>
<pdfrwt beam="1">  1       21 0.51378953E+00 0.41951827E+03</pdfrwt>
<pdfrwt beam="2">  1       21 0.81027310E-02 0.41951827E+03</pdfrwt>
<totfact> 0.13687091E+02</totfact>
</mgrwt>
</event>
<event>
 6    1  0.9502611E-004  0.7070550E+03  0.7818608E-02  0.9705322E-01
         21   -1    0    0  503  502  0.00000000000E+00  0.00000000000E+00  0.78763782382E+03  0.78763782382E+03  0.00000000000E+00 0.  1.
         21   -1    0    0  501  503 -0.00000000000E+00 -0.00000000000E+00 -0.65112647985E+03  0.65112647985E+03  0.00000000000E+00 0.  1.
    9000007    2    1    2  501    0  0.25560628445E+03  0.52376194449E+03 -0.46524385746E+02  0.70858403448E+03  0.40033194764E+03 0.  0.
    9000005    1    3    3    0    0  0.25875584051E+03  0.46451774736E+03  0.10842261220E+03  0.54266728798E+03  0.99999687468E+00 0.  0.
          4    1    3    3  501    0 -0.31495560579E+01  0.59244197135E+02 -0.15494699795E+03  0.16591674651E+03  0.00000000000E+00 0.  1.
   -9000007    1    1    2    0  502 -0.25560628445E+03 -0.52376194449E+03  0.18303572972E+03  0.73018026918E+03  0.40000000000E+03 0.  1.
<mgrwt>
<rscale>  2 0.70700805E+03</rscale>
<asrwt>0</asrwt>
<pdfrwt beam="1">  1       21 0.12117505E+00 0.70705503E+03</pdfrwt>
<pdfrwt beam="2">  1       21 0.10017330E+00 0.70705503E+03</pdfrwt>
<totfact> 0.31781360E+02</totfact>
</mgrwt>
</event>
<event>
 6    1  0.9502611E-004  0.4400606E+03  0.7818608E-02  0.1030746E+00
         21   -1    0    0  503  502  0.00000000000E+00  0.00000000000E+00  0.33713391449E+03  0.33713391449E+03  0.00000000000E+00 0. -1.
         21   -1    0    0  501  503 -0.00000000000E+00 -0.00000000000E+00 -0.23772225732E+04  0.23772225732E+04  0.00000000000E+00 0. -1.
    9000007    2    1    2  501    0 -0.23034138178E+02  0.18142504483E+03 -0.22021017085E+04  0.22456413859E+04  0.40025951720E+03 0.  0.
    9000005    1    3    3    0    0  0.37867286730E+02  0.96229533083E+02 -0.20887836267E+04  0.20913421751E+04  0.99999687468E+00 0.  0.
          4    1    3    3  501    0 -0.60901424908E+02  0.85195511743E+02 -0.11331808184E+03  0.15429921078E+03  0.00000000000E+00 0.  1.
   -9000007    1    1    2    0  502  0.23034138178E+02 -0.18142504483E+03  0.16201304974E+03  0.46871510184E+03  0.40000000000E+03 0. -1.
<mgrwt>
<rscale>  2 0.44000154E+03</rscale>
<asrwt>0</asrwt>
<pdfrwt beam="1">  1       21 0.51866754E-01 0.44006056E+03</pdfrwt>
<pdfrwt beam="2">  1       21 0.36572656E+00 0.44006056E+03</pdfrwt>
<totfact> 0.37295001E+01</totfact>
</mgrwt>
</event>
<event>
 6    1  0.9502611E-004  0.4440711E+03  0.7818608E-02  0.1029519E+00
         21   -1    0    0  503  502  0.00000000000E+00  0.00000000000E+00  0.46417086875E+03  0.46417086875E+03  0.00000000000E+00 0.  1.
         21   -1    0    0  501  503 -0.00000000000E+00 -0.00000000000E+00 -0.57409536942E+03  0.57409536942E+03  0.00000000000E+00 0.  1.
    9000007    2    1    2  501    0  0.24743777784E+02  0.19083747189E+03 -0.31982839283E+03  0.54725621877E+03  0.40020991105E+03 0.  0.
    9000005    1    3    3    0    0 -0.58881416882E+02  0.14013609834E+03  0.53641847096E+02  0.16119427740E+03  0.99999687468E+00 0.  0.
          4    1    3    3  501    0  0.83625194665E+02  0.50701373547E+02 -0.37347023992E+03  0.38606194137E+03  0.00000000000E+00 0.  1.
   -9000007    1    1    2    0  502 -0.24743777784E+02 -0.19083747189E+03  0.20990389216E+03  0.49101001941E+03  0.40000000000E+03 0.  1.
<mgrwt>
<rscale>  2 0.44402383E+03</rscale>
<asrwt>0</asrwt>
<pdfrwt beam="1">  1       21 0.71410903E-01 0.44407113E+03</pdfrwt>
<pdfrwt beam="2">  1       21 0.88322364E-01 0.44407113E+03</pdfrwt>
<totfact> 0.16769190E+03</totfact>
</mgrwt>
</event>
<event>
 6    1  0.9502611E-004  0.4310313E+03  0.7818608E-02  0.1033623E+00
         21   -1    0    0  503  502  0.00000000000E+00  0.00000000000E+00  0.19290486187E+03  0.19290486187E+03  0.00000000000E+00 0.  1.
         21   -1    0    0  501  503 -0.00000000000E+00 -0.00000000000E+00 -0.10978394476E+04  0.10978394476E+04  0.00000000000E+00 0. -1.
    9000007    2    1    2  501    0  0.14361832064E+03 -0.64760880165E+02 -0.22480011342E+03  0.48613067920E+03  0.40120786712E+03 0.  0.
    9000005    1    3    3    0    0 -0.11624040828E+03 -0.65991603272E+02  0.12459637873E+02  0.13424964353E+03  0.99999687468E+00 0.  0.
          4    1    3    3  501    0  0.25985872892E+03  0.12307231073E+01 -0.23725975130E+03  0.35188103566E+03  0.00000000000E+00 0.  1.
   -9000007    1    1    2    0  502 -0.14361832064E+03  0.64760880165E+02 -0.68013447235E+03  0.80461363032E+03  0.40000000000E+03 0. -1.
<mgrwt>
<rscale>  2 0.43074997E+03</rscale>
<asrwt>0</asrwt>
<pdfrwt beam="1">  1       21 0.29677670E-01 0.43103126E+03</pdfrwt>
<pdfrwt beam="2">  1       21 0.16889838E+00 0.43103126E+03</pdfrwt>
<totfact> 0.20316861E+03</totfact>
</mgrwt>
</event>
<event>
 6    1  0.9502611E-004  0.4040262E+03  0.7818608E-02  0.1042437E+00
         21   -1    0    0  503  502  0.00000000000E+00  0.00000000000E+00  0.74520310274E+03  0.74520310274E+03  0.00000000000E+00 0. -1.
         21   -1    0    0  501  503 -0.00000000000E+00 -0.00000000000E+00 -0.47439685272E+03  0.47439685272E+03  0.00000000000E+00 0. -1.
    9000007    2    1    2  501    0  0.49554390120E+02  0.19557392036E+02 -0.31217805088E+03  0.51058033355E+03  0.40049845492E+03 0.  0.
    9000005    1    3    3    0    0 -0.58382742174E+02  0.27617880693E+02 -0.37827935087E+03  0.38375455594E+03  0.99999687468E+00 0.  0.
          4    1    3    3  501    0  0.10793713229E+03 -0.80604886572E+01  0.66101299989E+02  0.12682577761E+03  0.00000000000E+00 0.  1.
   -9000007    1    1    2    0  502 -0.49554390120E+02 -0.19557392036E+02  0.58298430090E+03  0.70901962191E+03  0.40000000000E+03 0. -1.
<mgrwt>
<rscale>  2 0.40390258E+03</rscale>
<asrwt>0</asrwt>
<pdfrwt beam="1">  1       21 0.11464663E+00 0.40402616E+03</pdfrwt>
<pdfrwt beam="2">  1       21 0.72984131E-01 0.40402616E+03</pdfrwt>
<totfact> 0.86194110E+02</totfact>
</mgrwt>
</event>
<event>
 6    1  0.9502611E-004  0.4084152E+03  0.7818608E-02  0.1040973E+00
         21   -1    0    0  503  502  0.00000000000E+00  0.00000000000E+00  0.25049298388E+03  0.25049298388E+03  0.00000000000E+00 0.  1.
         21   -1    0    0  501  503 -0.00000000000E+00 -0.00000000000E+00 -0.70395660509E+03  0.70395660509E+03  0.00000000000E+00 0.  1.
    9000007    2    1    2  501    0 -0.81353543357E+02  0.13585728127E+02 -0.11364175863E+03  0.42314753804E+03  0.39916966145E+03 0.  0.
    9000005    1    3    3    0    0 -0.95303991432E+02  0.19654428612E+03 -0.96686818860E+02  0.23887621926E+03  0.99999687468E+00 0.  0.
          4    1    3    3  501    0  0.13950448075E+02 -0.18295855800E+03 -0.16954939771E+02  0.18427131879E+03  0.00000000000E+00 0.  1.
   -9000007    1    1    2    0  502  0.81353543357E+02 -0.13585728127E+02 -0.33982186259E+03  0.53130205093E+03  0.40000000000E+03 0.  1.
<mgrwt>
<rscale>  2 0.40821174E+03</rscale>
<asrwt>0</asrwt>
<pdfrwt beam="1">  1       21 0.38537383E-01 0.40841519E+03</pdfrwt>
<pdfrwt beam="2">  1       21 0.10830102E+00 0.40841519E+03</pdfrwt>
<totfact> 0.39021707E+03</totfact>
</mgrwt>
</event>
<event>
 6    1  0.9502611E-004  0.4266754E+03  0.7818608E-02  0.1034930E+00
         21   -1    0    0  503  502  0.00000000000E+00  0.00000000000E+00  0.16212937848E+03  0.16212937848E+03  0.00000000000E+00 0. -1.
         21   -1    0    0  501  503 -0.00000000000E+00 -0.00000000000E+00 -0.11405611153E+04  0.11405611153E+04  0.00000000000E+00 0. -1.
    9000007    2    1    2  501    0  0.73970692235E+01  0.14831448691E+03 -0.40691768948E+03  0.58947228737E+03  0.39980453712E+03 0.  0.
    9000005    1    3    3    0    0 -0.99248807295E+02  0.57200672659E+02  0.39781893072E+02  0.12126764495E+03  0.99999687468E+00 0.  0.
          4    1    3    3  501    0  0.10664587652E+03  0.91113814251E+02 -0.44669958255E+03  0.46820464241E+03  0.00000000000E+00 0.  1.
   -9000007    1    1    2    0  502 -0.73970692235E+01 -0.14831448691E+03 -0.57151404737E+03  0.71321820644E+03  0.40000000000E+03 0. -1.
<mgrwt>
<rscale>  2 0.42662959E+03</rscale>
<asrwt>0</asrwt>
<pdfrwt beam="1">  1       21 0.24942981E-01 0.42667541E+03</pdfrwt>
<pdfrwt beam="2">  1       21 0.17547095E+00 0.42667541E+03</pdfrwt>
<totfact> 0.25668402E+03</totfact>
</mgrwt>
</event>
<event>
 6    1  0.9502611E-004  0.4033121E+03  0.7818608E-02  0.1042690E+00
         21   -1    0    0  503  502  0.00000000000E+00  0.00000000000E+00  0.56551176911E+03  0.56551176911E+03  0.00000000000E+00 0.  1.
         21   -1    0    0  501  503 -0.00000000000E+00 -0.00000000000E+00 -0.69726023969E+03  0.69726023969E+03  0.00000000000E+00 0.  1.
    9000007    2    1    2  501    0  0.27339751377E+02  0.37789902781E+02 -0.55008742436E+03  0.68209738476E+03  0.40060595241E+03 0.  0.
    9000005    1    3    3    0    0  0.18257105765E+03  0.11122801659E+03 -0.20280934632E+03  0.29468032462E+03  0.99999687468E+00 0.  0.
          4    1    3    3  501    0 -0.15523130627E+03 -0.73438113807E+02 -0.34727807804E+03  0.38741706014E+03  0.00000000000E+00 0.  1.
   -9000007    1    1    2    0  502 -0.27339751377E+02 -0.37789902781E+02  0.41833895377E+03  0.58067462404E+03  0.40000000000E+03 0.  1.
<mgrwt>
<rscale>  2 0.40316157E+03</rscale>
<asrwt>0</asrwt>
<pdfrwt beam="1">  1       21 0.87001811E-01 0.40331212E+03</pdfrwt>
<pdfrwt beam="2">  1       21 0.10727081E+00 0.40331212E+03</pdfrwt>
<totfact> 0.67835048E+02</totfact>
</mgrwt>
</event>
<event>
 6    1  0.9502611E-004  0.4387810E+03  0.7818608E-02  0.1031140E+00
         21   -1    0    0  503  502  0.00000000000E+00  0.00000000000E+00  0.15475683356E+03  0.15475683356E+03  0.00000000000E+00 0.  1.
         21   -1    0    0  501  503 -0.00000000000E+00 -0.00000000000E+00 -0.12469508810E+04  0.12469508810E+04  0.00000000000E+00 0.  1.
    9000007    2    1    2  501    0 -0.98436961349E+02 -0.15112566003E+03 -0.58334615492E+03  0.72980371978E+03  0.39973983097E+03 0.  0.
    9000005    1    3    3    0    0  0.11194305168E+03  0.13737396917E+02 -0.32243211851E+02  0.11730553098E+03  0.99999687468E+00 0.  0.
          4    1    3    3  501    0 -0.21038001303E+03 -0.16486305695E+03 -0.55110294307E+03  0.61249818880E+03  0.00000000000E+00 0.  1.
   -9000007    1    1    2    0  502  0.98436961349E+02  0.15112566003E+03 -0.50884789253E+03  0.67190399479E+03  0.40000000000E+03 0.  1.
<mgrwt>
<rscale>  2 0.43872174E+03</rscale>
<asrwt>0</asrwt>
<pdfrwt beam="1">  1       21 0.23808744E-01 0.43878104E+03</pdfrwt>
<pdfrwt beam="2">  1       21 0.19183859E+00 0.43878104E+03</pdfrwt>
<totfact> 0.21499332E+03</totfact>
</mgrwt>
</event>
<event>
 6    1  0.9502611E-004  0.4885485E+03  0.7818608E-02  0.1016839E+00
         21   -1    0    0  503  502  0.00000000000E+00  0.00000000000E+00  0.19642636458E+04  0.19642636458E+04  0.00000000000E+00 0.  1.
         21   -1    0    0  501  503 -0.00000000000E+00 -0.00000000000E+00 -0.12160777846E+03  0.12160777846E+03  0.00000000000E+00 0.  1.
    9000007    2    1    2  501    0 -0.26608128752E+03  0.86525332107E+02  0.96368791704E+03  0.10804508444E+04  0.40049187398E+03 0.  0.
    9000005    1    3    3    0    0  0.59734777857E+02 -0.44988996976E+01  0.51525783205E+03  0.51872932948E+03  0.99999687468E+00 0.  0.
          4    1    3    3  501    0 -0.32581606538E+03  0.91024231804E+02  0.44843008499E+03  0.56172151495E+03  0.00000000000E+00 0.  1.
   -9000007    1    1    2    0  502  0.26608128752E+03 -0.86525332107E+02  0.87896795026E+03  0.10054205798E+04  0.40000000000E+03 0.  1.
<mgrwt>
<rscale>  2 0.48844767E+03</rscale>
<asrwt>0</asrwt>
<pdfrwt beam="1">  1       21 0.30219438E+00 0.48854849E+03</pdfrwt>
<pdfrwt beam="2">  1       21 0.18708890E-01 0.48854849E+03</pdfrwt>
<totfact> 0.68036933E+02</totfact>
</mgrwt>
</event>
<event>
 6    1  0.9502611E-004  0.4309025E+03  0.7818608E-02  0.1033635E+00
         21   -1    0    0  503  502  0.00000000000E+00  0.00000000000E+00  0.10566713887E+04  0.10566713887E+04  0.00000000000E+00 0.  1.
         21   -1    0    0  501  503 -0.00000000000E+00 -0.00000000000E+00 -0.40631906254E+03  0.40631906254E+03  0.00000000000E+00 0.  1.
    9000007    2    1    2  501    0 -0.15795007065E+03  0.85870927280E+01 -0.22614147168E+03  0.48663839352E+03  0.40081791109E+03 0.  0.
    9000005    1    3    3    0    0 -0.21654687535E+03  0.14476264981E+03 -0.66614795241E+02  0.26886298544E+03  0.99999687468E+00 0.  0.
          4    1    3    3  501    0  0.58596804703E+02 -0.13617555708E+03 -0.15952667644E+03  0.21777540808E+03  0.00000000000E+00 0.  1.
   -9000007    1    1    2    0  502  0.15795007065E+03 -0.85870927280E+01  0.87649379784E+03  0.97635205772E+03  0.40000000000E+03 0.  1.
<mgrwt>
<rscale>  2 0.43071219E+03</rscale>
<asrwt>0</asrwt>
<pdfrwt beam="1">  1       21 0.16256483E+00 0.43090250E+03</pdfrwt>
<pdfrwt beam="2">  1       21 0.62510625E-01 0.43090250E+03</pdfrwt>
<totfact> 0.47910368E+02</totfact>
</mgrwt>
</event>
<event>
 6    1  0.9502611E-004  0.5960544E+03  0.7818608E-02  0.9913784E-01
         21   -1    0    0  503  502  0.00000000000E+00  0.00000000000E+00  0.44008112044E+03  0.44008112044E+03  0.00000000000E+00 0. -1.
         21   -1    0    0  501  503 -0.00000000000E+00 -0.00000000000E+00 -0.83244471113E+03  0.83244471113E+03  0.00000000000E+00 0. -1.
    9000007    2    1    2  501    0  0.42315257683E+03 -0.12736841604E+03 -0.84674648177E+02  0.60174024584E+03  0.39955063601E+03 0.  0.
    9000005    1    3    3    0    0  0.46310559654E+03 -0.62621556956E+02  0.25308974332E+02  0.46800619346E+03  0.99999687468E+00 0.  0.
          4    1    3    3  501    0 -0.39953019712E+02 -0.64746859087E+02 -0.10998362251E+03  0.13373405238E+03  0.00000000000E+00 0.  1.
   -9000007    1    1    2    0  502 -0.42315257683E+03  0.12736841604E+03 -0.30768894251E+03  0.67078558573E+03  0.40000000000E+03 0. -1.
<mgrwt>
<rscale>  2 0.59597899E+03</rscale>
<asrwt>0</asrwt>
<pdfrwt beam="1">  1       21 0.67704788E-01 0.59605437E+03</pdfrwt>
<pdfrwt beam="2">  1       21 0.12806842E+00 0.59605437E+03</pdfrwt>
<totfact> 0.71430394E+02</totfact>
</mgrwt>
</event>
<event>
 6    1  0.9502611E-004  0.8505259E+03  0.7818608E-02  0.9489646E-01
         21   -1    0    0  503  502  0.00000000000E+00  0.00000000000E+00  0.52893373750E+03  0.52893373750E+03  0.00000000000E+00 0. -1.
         21   -1    0    0  501  503 -0.00000000000E+00 -0.00000000000E+00 -0.16663182993E+04  0.16663182993E+04  0.00000000000E+00 0.  1.
    9000007    2    1    2  501    0  0.74307188304E+03  0.10565277032E+03 -0.10394877850E+03  0.85685454374E+03  0.40009502538E+03 0.  0.
    9000005    1    3    3    0    0  0.45794561310E+03  0.24316285227E+03 -0.14310938445E+03  0.53788814190E+03  0.99999687468E+00 0.  0.
          4    1    3    3  501    0  0.28512626994E+03 -0.13751008195E+03  0.39160605941E+02  0.31896640184E+03  0.00000000000E+00 0.  1.
   -9000007    1    1    2    0  502 -0.74307188304E+03 -0.10565277032E+03 -0.10334357833E+04  0.13383974931E+04  0.40000000000E+03 0.  1.
<mgrwt>
<rscale>  2 0.85051476E+03</rscale>
<asrwt>0</asrwt>
<pdfrwt beam="1">  1       21 0.81374422E-01 0.85052593E+03</pdfrwt>
<pdfrwt beam="2">  1       21 0.25635666E+00 0.85052593E+03</pdfrwt>
<totfact> 0.52479958E+01</totfact>
</mgrwt>
</event>
<event>
 6    1  0.9502611E-004  0.4745568E+03  0.7818608E-02  0.1020797E+00
         21   -1    0    0  503  502  0.00000000000E+00  0.00000000000E+00  0.16461458429E+04  0.16461458429E+04  0.00000000000E+00 0.  1.
         21   -1    0    0  501  503 -0.00000000000E+00 -0.00000000000E+00 -0.13722626507E+03  0.13722626507E+03  0.00000000000E+00 0.  1.
    9000007    2    1    2  501    0  0.10005019084E+03 -0.23493433149E+03  0.83100990535E+03  0.95586639510E+03  0.39736497291E+03 0.  0.
    9000005    1    3    3    0    0  0.21011171078E+03 -0.33091367421E+02  0.23454853782E+03  0.31663225703E+03  0.99999687468E+00 0.  0.
          4    1    3    3  501    0 -0.11006151994E+03 -0.20184296407E+03  0.59646136753E+03  0.63923413807E+03  0.00000000000E+00 0.  1.
   -9000007    1    1    2    0  502 -0.10005019084E+03  0.23493433149E+03  0.67790967251E+03  0.82750571290E+03  0.40000000000E+03 0.  1.
<mgrwt>
<rscale>  2 0.47400112E+03</rscale>
<asrwt>0</asrwt>
<pdfrwt beam="1">  1       21 0.25325319E+00 0.47455683E+03</pdfrwt>
<pdfrwt beam="2">  1       21 0.21111734E-01 0.47455683E+03</pdfrwt>
<totfact> 0.10778611E+03</totfact>
</mgrwt>
</event>
<event>
 6    1  0.9502611E-004  0.4012375E+03  0.7818608E-02  0.1043451E+00
         21   -1    0    0  503  502  0.00000000000E+00  0.00000000000E+00  0.86262083028E+03  0.86262083028E+03  0.00000000000E+00 0. -1.
         21   -1    0    0  501  503 -0.00000000000E+00 -0.00000000000E+00 -0.36301721558E+03  0.36301721558E+03  0.00000000000E+00 0. -1.
    9000007    2    1    2  501    0  0.75374863103E+01  0.44464711544E+01 -0.17782820550E+03  0.43887858083E+03  0.40114206116E+03 0.  0.
    9000005    1    3    3    0    0  0.10208270567E+03  0.34868272863E+02 -0.27776768119E+03  0.29798080468E+03  0.99999687468E+00 0.  0.
          4    1    3    3  501    0 -0.94545219364E+02 -0.30421801708E+02  0.99939475689E+02  0.14089777615E+03  0.00000000000E+00 0.  1.
   -9000007    1    1    2    0  502 -0.75374863103E+01 -0.44464711544E+01  0.67743182019E+03  0.78675946503E+03  0.40000000000E+03 0. -1.
<mgrwt>
<rscale>  2 0.40095176E+03</rscale>
<asrwt>0</asrwt>
<pdfrwt beam="1">  1       21 0.13271090E+00 0.40123751E+03</pdfrwt>
<pdfrwt beam="2">  1       21 0.55848803E-01 0.40123751E+03</pdfrwt>
<totfact> 0.10736602E+03</totfact>
</mgrwt>
</event>
<event>
 6    1  0.9502611E-004  0.4690383E+03  0.7818608E-02  0.1022241E+00
         21   -1    0    0  503  502  0.00000000000E+00  0.00000000000E+00  0.82276729089E+03  0.82276729089E+03  0.00000000000E+00 0.  1.
         21   -1    0    0  501  503 -0.00000000000E+00 -0.00000000000E+00 -0.71604630465E+03  0.71604630465E+03  0.00000000000E+00 0. -1.
    9000007    2    1    2  501    0 -0.20285110502E+03 -0.13728915473E+03 -0.55595883090E+03  0.72693834475E+03  0.39918949460E+03 0.  0.
    9000005    1    3    3    0    0 -0.14872705430E+03  0.11126266784E+03 -0.36263550707E+03  0.40743665633E+03  0.99999687468E+00 0.  0.
          4    1    3    3  501    0 -0.54124050715E+02 -0.24855182257E+03 -0.19332332382E+03  0.31950168842E+03  0.00000000000E+00 0.  1.
   -9000007    1    1    2    0  502  0.20285110502E+03  0.13728915473E+03  0.66267981713E+03  0.81187525079E+03  0.40000000000E+03 0.  1.
<mgrwt>
<rscale>  2 0.46886540E+03</rscale>
<asrwt>0</asrwt>
<pdfrwt beam="1">  1       21 0.12657958E+00 0.46903825E+03</pdfrwt>
<pdfrwt beam="2">  1       21 0.11016097E+00 0.46903825E+03</pdfrwt>
<totfact> 0.24502202E+02</totfact>
</mgrwt>
</event>
<event>
 6    1  0.9502611E-004  0.4795676E+03  0.7818608E-02  0.1019265E+00
         21   -1    0    0  503  502  0.00000000000E+00  0.00000000000E+00  0.90479525431E+03  0.90479525431E+03  0.00000000000E+00 0.  1.
         21   -1    0    0  501  503 -0.00000000000E+00 -0.00000000000E+00 -0.25422650038E+03  0.25422650038E+03  0.00000000000E+00 0.  1.
    9000007    2    1    2  501    0  0.23012592109E+03  0.12988484968E+03  0.33837477216E+03  0.58692639901E+03  0.40019632393E+03 0.  0.
    9000005    1    3    3    0    0  0.77919545188E+02 -0.52617038123E+02  0.33638184560E+03  0.34927604308E+03  0.99999687468E+00 0.  0.
          4    1    3    3  501    0  0.15220637590E+03  0.18250188781E+03  0.19929265577E+01  0.23765035593E+03  0.00000000000E+00 0.  1.
   -9000007    1    1    2    0  502 -0.23012592109E+03 -0.12988484968E+03  0.31219398177E+03  0.57209535568E+03  0.40000000000E+03 0.  1.
<mgrwt>
<rscale>  2 0.47952667E+03</rscale>
<asrwt>0</asrwt>
<pdfrwt beam="1">  1       21 0.13919927E+00 0.47956763E+03</pdfrwt>
<pdfrwt beam="2">  1       21 0.39111770E-01 0.47956763E+03</pdfrwt>
<totfact> 0.19411257E+03</totfact>
</mgrwt>
</event>
<event>
 6    1  0.9502611E-004  0.4483270E+03  0.7818608E-02  0.1028311E+00
         21   -1    0    0  503  502  0.00000000000E+00  0.00000000000E+00  0.35137385310E+03  0.35137385310E+03  0.00000000000E+00 0.  1.
         21   -1    0    0  501  503 -0.00000000000E+00 -0.00000000000E+00 -0.10723927344E+04  0.10723927344E+04  0.00000000000E+00 0.  1.
    9000007    2    1    2  501    0  0.19787948214E+03  0.42904515641E+02 -0.84725197643E+03  0.95800712034E+03  0.39867862263E+03 0.  0.
    9000005    1    3    3    0    0  0.96972078311E+01 -0.10659462506E+03 -0.37623074500E+02  0.11345900432E+03  0.99999687468E+00 0.  0.
          4    1    3    3  501    0  0.18818227431E+03  0.14949914070E+03 -0.80962890193E+03  0.84454811602E+03  0.00000000000E+00 0.  1.
   -9000007    1    1    2    0  502 -0.19787948214E+03 -0.42904515641E+02  0.12623309515E+03  0.46575946714E+03  0.40000000000E+03 0.  1.
<mgrwt>
<rscale>  2 0.44803206E+03</rscale>
<asrwt>0</asrwt>
<pdfrwt beam="1">  1       21 0.54057517E-01 0.44832699E+03</pdfrwt>
<pdfrwt beam="2">  1       21 0.16498350E+00 0.44832699E+03</pdfrwt>
<totfact> 0.62558227E+02</totfact>
</mgrwt>
</event>
<event>
 6    1  0.9502611E-004  0.5910899E+03  0.7818608E-02  0.9924227E-01
         21   -1    0    0  503  502  0.00000000000E+00  0.00000000000E+00  0.10582965808E+04  0.10582965808E+04  0.00000000000E+00 0.  1.
         21   -1    0    0  501  503 -0.00000000000E+00 -0.00000000000E+00 -0.33022143556E+03  0.33022143556E+03  0.00000000000E+00 0. -1.
    9000007    2    1    2  501    0 -0.30190855169E+03 -0.31343019574E+03  0.34485090146E+03  0.68406923738E+03  0.39955139356E+03 0.  0.
    9000005    1    3    3    0    0 -0.16159482597E+03  0.21718316600E+02 -0.25751156951E+02  0.16507178782E+03  0.99999687468E+00 0.  0.
          4    1    3    3  501    0 -0.14031372573E+03 -0.33514851234E+03  0.37060205841E+03  0.51899744956E+03  0.00000000000E+00 0.  1.
   -9000007    1    1    2    0  502  0.30190855169E+03  0.31343019574E+03  0.38322424379E+03  0.70444877899E+03  0.40000000000E+03 0. -1.
<mgrwt>
<rscale>  2 0.59101401E+03</rscale>
<asrwt>0</asrwt>
<pdfrwt beam="1">  1       21 0.16281486E+00 0.59108989E+03</pdfrwt>
<pdfrwt beam="2">  1       21 0.50803298E-01 0.59108989E+03</pdfrwt>
<totfact> 0.70148014E+02</totfact>
</mgrwt>
</event>
<event>
 6    1  0.9502611E-004  0.4263922E+03  0.7818608E-02  0.1035021E+00
         21   -1    0    0  503  502  0.00000000000E+00  0.00000000000E+00  0.25128571038E+03  0.25128571038E+03  0.00000000000E+00 0. -1.
         21   -1    0    0  501  503 -0.00000000000E+00 -0.00000000000E+00 -0.98621850050E+03  0.98621850050E+03  0.00000000000E+00 0. -1.
    9000007    2    1    2  501    0 -0.10900260637E+03  0.98825723820E+02 -0.68706664567E+03  0.80862280575E+03  0.40020266678E+03 0.  0.
    9000005    1    3    3    0    0 -0.26059589593E+03  0.74250805378E+02 -0.47387912511E+03  0.54588078212E+03  0.99999687468E+00 0.  0.
          4    1    3    3  501    0  0.15159328957E+03  0.24574918442E+02 -0.21318752056E+03  0.26274202363E+03  0.00000000000E+00 0.  1.
   -9000007    1    1    2    0  502  0.10900260637E+03 -0.98825723820E+02 -0.47866144442E+02  0.42888140513E+03  0.40000000000E+03 0. -1.
<mgrwt>
<rscale>  2 0.42634459E+03</rscale>
<asrwt>0</asrwt>
<pdfrwt beam="1">  1       21 0.38659340E-01 0.42639215E+03</pdfrwt>
<pdfrwt beam="2">  1       21 0.15172592E+00 0.42639215E+03</pdfrwt>
<totfact> 0.16102948E+03</totfact>
</mgrwt>
</event>
<event>
 6    1  0.9502611E-004  0.4475666E+03  0.7818608E-02  0.1028460E+00
         21   -1    0    0  503  502  0.00000000000E+00  0.00000000000E+00  0.12973842571E+04  0.12973842571E+04  0.00000000000E+00 0. -1.
         21   -1    0    0  501  503 -0.00000000000E+00 -0.00000000000E+00 -0.20593637116E+03  0.20593637116E+03  0.00000000000E+00 0. -1.
    9000007    2    1    2  501    0 -0.72002482540E+02  0.18710783070E+03  0.16959294420E+03  0.47862055927E+03  0.40015268989E+03 0.  0.
    9000005    1    3    3    0    0 -0.50884787433E+02  0.17108709837E+03 -0.10210223328E+03  0.20563541246E+03  0.99999687468E+00 0.  0.
          4    1    3    3  501    0 -0.21117695107E+02  0.16020732328E+02  0.27169517748E+03  0.27298514681E+03  0.00000000000E+00 0.  1.
   -9000007    1    1    2    0  502  0.72002482540E+02 -0.18710783070E+03  0.92185494175E+03  0.10247000690E+04  0.40000000000E+03 0. -1.
<mgrwt>
<rscale>  2 0.44753248E+03</rscale>
<asrwt>0</asrwt>
<pdfrwt beam="1">  1       21 0.19959757E+00 0.44756661E+03</pdfrwt>
<pdfrwt beam="2">  1       21 0.31682519E-01 0.44756661E+03</pdfrwt>
<totfact> 0.10825113E+03</totfact>
</mgrwt>
</event>
<event>
 6    1  0.9502611E-004  0.5080300E+03  0.7818608E-02  0.1011793E+00
         21   -1    0    0  503  502  0.00000000000E+00  0.00000000000E+00  0.57928057392E+03  0.57928057392E+03  0.00000000000E+00 0. -1.
         21   -1    0    0  501  503 -0.00000000000E+00 -0.00000000000E+00 -0.73410917876E+03  0.73410917876E+03  0.00000000000E+00 0. -1.
    9000007    2    1    2  501    0  0.20031029303E+03 -0.24077005682E+03  0.33524608462E+03  0.60750900142E+03  0.39822457960E+03 0.  0.
    9000005    1    3    3    0    0  0.30920890909E+03 -0.19744451760E+03  0.16855664014E+03  0.40374104067E+03  0.99999687468E+00 0.  0.
          4    1    3    3  501    0 -0.10889861606E+03 -0.43325539216E+02  0.16668944448E+03  0.20376796075E+03  0.00000000000E+00 0.  1.
   -9000007    1    1    2    0  502 -0.20031029303E+03  0.24077005682E+03 -0.49007468946E+03  0.70588075126E+03  0.40000000000E+03 0. -1.
<mgrwt>
<rscale>  2 0.50768042E+03</rscale>
<asrwt>0</asrwt>
<pdfrwt beam="1">  1       21 0.89120089E-01 0.50802995E+03</pdfrwt>
<pdfrwt beam="2">  1       21 0.11293987E+00 0.50802995E+03</pdfrwt>
<totfact> 0.53874286E+02</totfact>
</mgrwt>
</event>
<event>
 6    1  0.9502611E-004  0.4031894E+03  0.7818608E-02  0.1042732E+00
         21   -1    0    0  503  502  0.00000000000E+00  0.00000000000E+00  0.11540657932E+04  0.11540657932E+04  0.00000000000E+00 0.  1.
         21   -1    0    0  501  503 -0.00000000000E+00 -0.00000000000E+00 -0.72904381599E+03  0.72904381599E+03  0.00000000000E+00 0.  1.
    9000007    2    1    2  501    0  0.33300309499E+02 -0.31181848637E+02 -0.63332586081E+03  0.75077513363E+03  0.40060009612E+03 0.  0.
    9000005    1    3    3    0    0  0.19062617457E+03 -0.48403151442E+02 -0.16596881762E+03  0.25734772569E+03  0.99999687468E+00 0.  0.
          4    1    3    3  501    0 -0.15732586507E+03  0.17221302805E+02 -0.46735704319E+03  0.49342740794E+03  0.00000000000E+00 0.  1.
   -9000007    1    1    2    0  502 -0.33300309499E+02  0.31181848637E+02  0.10583478380E+04  0.11323344755E+04  0.40000000000E+03 0.  1.
<mgrwt>
<rscale>  2 0.40304021E+03</rscale>
<asrwt>0</asrwt>
<pdfrwt beam="1">  1       21 0.17754858E+00 0.40318935E+03</pdfrwt>
<pdfrwt beam="2">  1       21 0.11216059E+00 0.40318935E+03</pdfrwt>
<totfact> 0.96736002E+01</totfact>
</mgrwt>
</event>
<event>
 6    1  0.9502611E-004  0.4812696E+03  0.7818608E-02  0.1018877E+00
         21   -1    0    0  503  502  0.00000000000E+00  0.00000000000E+00  0.20085517376E+04  0.20085517376E+04  0.00000000000E+00 0.  1.
         21   -1    0    0  501  503 -0.00000000000E+00 -0.00000000000E+00 -0.41318313211E+03  0.41318313211E+03  0.00000000000E+00 0.  1.
    9000007    2    1    2  501    0 -0.71437423711E+02  0.25790907376E+03 -0.23126700747E+03  0.53276211757E+03  0.39841015215E+03 0.  0.
    9000005    1    3    3    0    0  0.10928358590E+03 -0.22807304248E+02  0.21898241843E+02  0.11376997962E+03  0.99999687468E+00 0.  0.
          4    1    3    3  501    0 -0.18072100961E+03  0.28071637801E+03 -0.25316524932E+03  0.41899213794E+03  0.00000000000E+00 0.  1.
   -9000007    1    1    2    0  502  0.71437423711E+02 -0.25790907376E+03  0.18266356130E+04  0.18889727522E+04  0.40000000000E+03 0.  1.
<mgrwt>
<rscale>  2 0.48093909E+03</rscale>
<asrwt>0</asrwt>
<pdfrwt beam="1">  1       21 0.30900795E+00 0.48126957E+03</pdfrwt>
<pdfrwt beam="2">  1       21 0.63566637E-01 0.48126957E+03</pdfrwt>
<totfact> 0.51639255E+01</totfact>
</mgrwt>
</event>
<event>
 6    1  0.9502611E-004  0.4055957E+03  0.7818608E-02  0.1041912E+00
         21   -1    0    0  503  502  0.00000000000E+00  0.00000000000E+00  0.19831465246E+04  0.19831465246E+04  0.00000000000E+00 0.  1.
         21   -1    0    0  501  503 -0.00000000000E+00 -0.00000000000E+00 -0.10865611021E+03  0.10865611021E+03  0.00000000000E+00 0.  1.
    9000007    2    1    2  501    0  0.64351557607E+02  0.19150032433E+02  0.42675882714E+03  0.58832845964E+03  0.39937380130E+03 0.  0.
    9000005    1    3    3    0    0  0.18597330918E+03 -0.10613556633E+03  0.31543858352E+03  0.38125231820E+03  0.99999687468E+00 0.  0.
          4    1    3    3  501    0 -0.12162175157E+03  0.12528559876E+03  0.11132024362E+03  0.20707614144E+03  0.00000000000E+00 0.  1.
   -9000007    1    1    2    0  502 -0.64351557607E+02 -0.19150032433E+02  0.14477315872E+04  0.15034741752E+04  0.40000000000E+03 0.  1.
<mgrwt>
<rscale>  2 0.40544119E+03</rscale>
<asrwt>0</asrwt>
<pdfrwt beam="1">  1       21 0.30509944E+00 0.40559567E+03</pdfrwt>
<pdfrwt beam="2">  1       21 0.16716326E-01 0.40559567E+03</pdfrwt>
<totfact> 0.84608093E+02</totfact>
</mgrwt>
</event>
<event>
 6    1  0.9502611E-004  0.5765371E+03  0.7818608E-02  0.9955483E-01
         21   -1    0    0  503  502  0.00000000000E+00  0.00000000000E+00  0.25199953781E+04  0.25199953781E+04  0.00000000000E+00 0. -1.
         21   -1    0    0  501  503 -0.00000000000E+00 -0.00000000000E+00 -0.16498993593E+03  0.16498993593E+03  0.00000000000E+00 0.  1.
    9000007    2    1    2  501    0  0.31201715590E+03 -0.27393481742E+03  0.57542898197E+03  0.81434708939E+03  0.39955935597E+03 0.  0.
    9000005    1    3    3    0    0  0.33614048197E+03 -0.13700726720E+03  0.56929761782E+03  0.67517567531E+03  0.99999687468E+00 0.  0.
          4    1    3    3  501    0 -0.24123326066E+02 -0.13692755023E+03  0.61313641501E+01  0.13917141408E+03  0.00000000000E+00 0.  1.
   -9000007    1    1    2    0  502 -0.31201715590E+03  0.27393481742E+03  0.17795764602E+04  0.18706382246E+04  0.40000000000E+03 0. -1.
<mgrwt>
<rscale>  2 0.57646064E+03</rscale>
<asrwt>0</asrwt>
<pdfrwt beam="1">  1       21 0.38769157E+00 0.57653707E+03</pdfrwt>
<pdfrwt beam="2">  1       21 0.25383069E-01 0.57653707E+03</pdfrwt>
<totfact> 0.10708770E+02</totfact>
</mgrwt>
</event>
<event>
 6    1  0.9502611E-004  0.4887130E+03  0.7818608E-02  0.1016771E+00
         21   -1    0    0  503  502  0.00000000000E+00  0.00000000000E+00  0.28868986857E+03  0.28868986857E+03  0.00000000000E+00 0. -1.
         21   -1    0    0  501  503 -0.00000000000E+00 -0.00000000000E+00 -0.11550441053E+04  0.11550441053E+04  0.00000000000E+00 0. -1.
    9000007    2    1    2  501    0  0.21432685895E+03 -0.18139565831E+03 -0.81771654773E+03  0.95260668675E+03  0.39994844654E+03 0.  0.
    9000005    1    3    3    0    0 -0.33231033374E+02  0.83624893640E+02 -0.34648464839E+03  0.35798049664E+03  0.99999687468E+00 0.  0.
          4    1    3    3  501    0  0.24755789232E+03 -0.26502055194E+03 -0.47123189935E+03  0.59462619011E+03  0.00000000000E+00 0.  1.
   -9000007    1    1    2    0  502 -0.21432685895E+03  0.18139565831E+03 -0.48637688957E+02  0.49112728707E+03  0.40000000000E+03 0. -1.
<mgrwt>
<rscale>  2 0.48870244E+03</rscale>
<asrwt>0</asrwt>
<pdfrwt beam="1">  1       21 0.44413827E-01 0.48871299E+03</pdfrwt>
<pdfrwt beam="2">  1       21 0.17769909E+00 0.48871299E+03</pdfrwt>
<totfact> 0.75400593E+02</totfact>
</mgrwt>
</event>
<event>
 6    1  0.9502611E-004  0.4975043E+03  0.7818608E-02  0.1014453E+00
         21   -1    0    0  503  502  0.00000000000E+00  0.00000000000E+00  0.17145478352E+04  0.17145478352E+04  0.00000000000E+00 0.  1.
         21   -1    0    0  501  503 -0.00000000000E+00 -0.00000000000E+00 -0.14607881209E+03  0.14607881209E+03  0.00000000000E+00 0. -1.
    9000007    2    1    2  501    0 -0.80547200419E+00  0.29530048468E+03  0.68093559372E+03  0.84331714998E+03  0.40038420002E+03 0.  0.
    9000005    1    3    3    0    0  0.12896838957E+03  0.26429960414E+03  0.23085022045E+03  0.37387156957E+03  0.99999687468E+00 0.  0.
          4    1    3    3  501    0 -0.12977386157E+03  0.31000880542E+02  0.45008537327E+03  0.46944558041E+03  0.00000000000E+00 0.  1.
   -9000007    1    1    2    0  502  0.80547200419E+00 -0.29530048468E+03  0.88753342942E+03  0.10173094973E+04  0.40000000000E+03 0.  1.
<mgrwt>
<rscale>  2 0.49742700E+03</rscale>
<asrwt>0</asrwt>
<pdfrwt beam="1">  1       21 0.26377658E+00 0.49750430E+03</pdfrwt>
<pdfrwt beam="2">  1       21 0.22473665E-01 0.49750430E+03</pdfrwt>
<totfact> 0.81520868E+02</totfact>
</mgrwt>
</event>
<event>
 6    1  0.9502611E-004  0.4108551E+03  0.7818608E-02  0.1040221E+00
         21   -1    0    0  503  502  0.00000000000E+00  0.00000000000E+00  0.76218812024E+03  0.76218812024E+03  0.00000000000E+00 0.  1.
         21   -1    0    0  501  503 -0.00000000000E+00 -0.00000000000E+00 -0.54073230364E+03  0.54073230364E+03  0.00000000000E+00 0.  1.
    9000007    2    1    2  501    0  0.90260720387E+02  0.25592095129E+02 -0.39062643010E+03  0.56573209671E+03  0.39832379338E+03 0.  0.
    9000005    1    3    3    0    0  0.30170710839E+01  0.18569791245E+03 -0.73128997746E+02  0.19960377680E+03  0.99999687468E+00 0.  0.
          4    1    3    3  501    0  0.87243649303E+02 -0.16010581732E+03 -0.31749743236E+03  0.36612831991E+03  0.00000000000E+00 0.  1.
   -9000007    1    1    2    0  502 -0.90260720387E+02 -0.25592095129E+02  0.61208224670E+03  0.73718832716E+03  0.40000000000E+03 0.  1.
<mgrwt>
<rscale>  2 0.41044660E+03</rscale>
<asrwt>0</asrwt>
<pdfrwt beam="1">  1       21 0.11725971E+00 0.41085515E+03</pdfrwt>
<pdfrwt beam="2">  1       21 0.83189585E-01 0.41085515E+03</pdfrwt>
<totfact> 0.60151639E+02</totfact>
</mgrwt>
</event>
<event>
 6    1  0.9502611E-004  0.6273961E+03  0.7818608E-02  0.9850591E-01
         21   -1    0    0  503  502  0.00000000000E+00  0.00000000000E+00  0.42362950148E+03  0.42362950148E+03  0.00000000000E+00 0. -1.
         21   -1    0    0  501  503 -0.00000000000E+00 -0.00000000000E+00 -0.12440120258E+04  0.12440120258E+04  0.00000000000E+00 0. -1.
    9000007    2    1    2  501    0 -0.38299289258E+03  0.29291458296E+03 -0.83078446266E+03  0.10410709335E+04  0.40142665144E+03 0.  0.
    9000005    1    3    3    0    0 -0.29313138153E+03  0.29420522764E+03 -0.32498917999E+03  0.52735347720E+03  0.99999687468E+00 0.  0.
          4    1    3    3  501    0 -0.89861511056E+02 -0.12906446806E+01 -0.50579528266E+03  0.51371745629E+03  0.00000000000E+00 0.  1.
   -9000007    1    1    2    0  502  0.38299289258E+03 -0.29291458296E+03  0.10401938347E+02  0.62657059379E+03  0.40000000000E+03 0. -1.
<mgrwt>
<rscale>  2 0.62716801E+03</rscale>
<asrwt>0</asrwt>
<pdfrwt beam="1">  1       21 0.65173770E-01 0.62739610E+03</pdfrwt>
<pdfrwt beam="2">  1       21 0.19138646E+00 0.62739610E+03</pdfrwt>
<totfact> 0.24991045E+02</totfact>
</mgrwt>
</event>
<event>
 6    1  0.9502611E-004  0.5215898E+03  0.7818608E-02  0.1008293E+00
         21   -1    0    0  503  502  0.00000000000E+00  0.00000000000E+00  0.95433430360E+03  0.95433430360E+03  0.00000000000E+00 0. -1.
         21   -1    0    0  501  503 -0.00000000000E+00 -0.00000000000E+00 -0.28853845376E+03  0.28853845376E+03  0.00000000000E+00 0.  1.
    9000007    2    1    2  501    0 -0.55269430185E+02 -0.33013926989E+03  0.40104261829E+03  0.65794462413E+03  0.40001162396E+03 0.  0.
    9000005    1    3    3    0    0  0.51469946435E+02  0.68621072512E+02  0.50722937537E+01  0.85934481649E+02  0.99999687468E+00 0.  0.
          4    1    3    3  501    0 -0.10673937662E+03 -0.39876034240E+03  0.39597032454E+03  0.57201014248E+03  0.00000000000E+00 0.  1.
   -9000007    1    1    2    0  502  0.55269430185E+02  0.33013926989E+03  0.26475323154E+03  0.58492813323E+03  0.40000000000E+03 0. -1.
<mgrwt>
<rscale>  2 0.52158760E+03</rscale>
<asrwt>0</asrwt>
<pdfrwt beam="1">  1       21 0.14682066E+00 0.52158983E+03</pdfrwt>
<pdfrwt beam="2">  1       21 0.44390532E-01 0.52158983E+03</pdfrwt>
<totfact> 0.12737226E+03</totfact>
</mgrwt>
</event>
<event>
 6    1  0.9502611E-004  0.4614080E+03  0.7818608E-02  0.1024562E+00
         21   -1    0    0  503  502  0.00000000000E+00  0.00000000000E+00  0.32116649041E+03  0.32116649041E+03  0.00000000000E+00 0. -1.
         21   -1    0    0  501  503 -0.00000000000E+00 -0.00000000000E+00 -0.66344008846E+03  0.66344008846E+03  0.00000000000E+00 0. -1.
    9000007    2    1    2  501    0 -0.16601445710E+03  0.15146865632E+03 -0.21117879900E+03  0.50743847417E+03  0.40298109895E+03 0.  0.
    9000005    1    3    3    0    0 -0.16670444715E+03  0.24286435304E+03 -0.19662334457E+02  0.29523054393E+03  0.99999687468E+00 0.  0.
          4    1    3    3  501    0  0.68999005660E+00 -0.91395696725E+02 -0.19151646454E+03  0.21220793024E+03  0.00000000000E+00 0.  1.
   -9000007    1    1    2    0  502  0.16601445710E+03 -0.15146865632E+03 -0.13109479905E+03  0.47716810471E+03  0.40000000000E+03 0. -1.
<mgrwt>
<rscale>  2 0.46075627E+03</rscale>
<asrwt>0</asrwt>
<pdfrwt beam="1">  1       21 0.49410229E-01 0.46140798E+03</pdfrwt>
<pdfrwt beam="2">  1       21 0.10206771E+00 0.46140798E+03</pdfrwt>
<totfact> 0.26373122E+03</totfact>
</mgrwt>
</event>
<event>
 6    1  0.9502611E-004  0.5036202E+03  0.7818608E-02  0.1012867E+00
         21   -1    0    0  503  502  0.00000000000E+00  0.00000000000E+00  0.12280194524E+04  0.12280194524E+04  0.00000000000E+00 0. -1.
         21   -1    0    0  501  503 -0.00000000000E+00 -0.00000000000E+00 -0.20649712126E+03  0.20649712126E+03  0.00000000000E+00 0. -1.
    9000007    2    1    2  501    0  0.26841535964E+03 -0.14539722898E+03  0.52968111608E+03  0.73088674178E+03  0.40055734308E+03 0.  0.
    9000005    1    3    3    0    0  0.27679978105E+03 -0.30338719925E+02  0.11640425757E+03  0.30181038400E+03  0.99999687468E+00 0.  0.
          4    1    3    3  501    0 -0.83844214099E+01 -0.11505850905E+03  0.41327685851E+03  0.42907635779E+03  0.00000000000E+00 0.  1.
   -9000007    1    1    2    0  502 -0.26841535964E+03  0.14539722898E+03  0.49184121510E+03  0.70362983191E+03  0.40000000000E+03 0. -1.
<mgrwt>
<rscale>  2 0.50350941E+03</rscale>
<asrwt>0</asrwt>
<pdfrwt beam="1">  1       21 0.18892607E+00 0.50362024E+03</pdfrwt>
<pdfrwt beam="2">  1       21 0.31768789E-01 0.50362024E+03</pdfrwt>
<totfact> 0.12419621E+03</totfact>
</mgrwt>
</event>
<event>
 6    1  0.9502611E-004  0.4529221E+03  0.7818608E-02  0.1026860E+00
         21   -1    0    0  503  502  0.00000000000E+00  0.00000000000E+00  0.40430332350E+03  0.40430332350E+03  0.00000000000E+00 0.  1.
         21   -1    0    0  501  503 -0.00000000000E+00 -0.00000000000E+00 -0.70877604080E+03  0.70877604080E+03  0.00000000000E+00 0.  1.
    9000007    2    1    2  501    0  0.20411904892E+03 -0.58939368405E+02 -0.44894831079E+03  0.63767255703E+03  0.39991657749E+03 0.  0.
    9000005    1    3    3    0    0  0.17225728306E+03  0.20668932567E+02 -0.50584130195E+03  0.53476742524E+03  0.99999687468E+00 0.  0.
          4    1    3    3  501    0  0.31861765859E+02 -0.79608300973E+02  0.56892991157E+02  0.10290513180E+03  0.00000000000E+00 0.  1.
   -9000007    1    1    2    0  502 -0.20411904892E+03  0.58939368405E+02  0.14447559350E+03  0.47540680727E+03  0.40000000000E+03 0.  1.
<mgrwt>
<rscale>  2 0.45290369E+03</rscale>
<asrwt>0</asrwt>
<pdfrwt beam="1">  1       21 0.62200512E-01 0.45292211E+03</pdfrwt>
<pdfrwt beam="2">  1       21 0.10904247E+00 0.45292211E+03</pdfrwt>
<totfact> 0.13661594E+03</totfact>
</mgrwt>
</event>
<event>
 6    1  0.9502611E-004  0.4242767E+03  0.7818608E-02  0.1035685E+00
         21   -1    0    0  503  502  0.00000000000E+00  0.00000000000E+00  0.43463142159E+03  0.43463142159E+03  0.00000000000E+00 0. -1.
         21   -1    0    0  501  503 -0.00000000000E+00 -0.00000000000E+00 -0.56366642671E+03  0.56366642671E+03  0.00000000000E+00 0. -1.
    9000007    2    1    2  501    0  0.13965038628E+03 -0.22549149448E+02 -0.32159074561E+03  0.53237037784E+03  0.39998364593E+03 0.  0.
    9000005    1    3    3    0    0  0.21276692078E+03  0.12287634343E+03 -0.26160781340E+03  0.35889832317E+03  0.99999687468E+00 0.  0.
          4    1    3    3  501    0 -0.73116534492E+02 -0.14542549288E+03 -0.59982932204E+02  0.17347205467E+03  0.00000000000E+00 0.  1.
   -9000007    1    1    2    0  502 -0.13965038628E+03  0.22549149448E+02  0.19255574049E+03  0.46592747045E+03  0.40000000000E+03 0. -1.
<mgrwt>
<rscale>  2 0.42427282E+03</rscale>
<asrwt>0</asrwt>
<pdfrwt beam="1">  1       21 0.66866373E-01 0.42427667E+03</pdfrwt>
<pdfrwt beam="2">  1       21 0.86717911E-01 0.42427667E+03</pdfrwt>
<totfact> 0.20451243E+03</totfact>
</mgrwt>
</event>
<event>
 6    1  0.9502611E-004  0.5137525E+03  0.7818608E-02  0.1010450E+00
         21   -1    0    0  503  502  0.00000000000E+00  0.00000000000E+00  0.48149766885E+03  0.48149766885E+03  0.00000000000E+00 0.  1.
         21   -1    0    0  501  503 -0.00000000000E+00 -0.00000000000E+00 -0.56264790106E+03  0.56264790106E+03  0.00000000000E+00 0. -1.
    9000007    2    1    2  501    0 -0.30991771449E+03 -0.68277578427E+02 -0.13365856416E+03  0.53085428576E+03  0.40401837020E+03 0.  0.
    9000005    1    3    3    0    0 -0.23883090752E+03 -0.12487809815E+03 -0.26049684367E+03  0.37482575598E+03  0.99999687468E+00 0.  0.
          4    1    3    3  501    0 -0.71086806965E+02  0.56600519720E+02  0.12683827951E+03  0.15602852978E+03  0.00000000000E+00 0.  1.
   -9000007    1    1    2    0  502  0.30991771449E+03  0.68277578427E+02  0.52508331955E+02  0.51329128416E+03  0.40000000000E+03 0.  1.
<mgrwt>
<rscale>  2 0.51296220E+03</rscale>
<asrwt>0</asrwt>
<pdfrwt beam="1">  1       21 0.74076564E-01 0.51375253E+03</pdfrwt>
<pdfrwt beam="2">  1       21 0.86561216E-01 0.51375253E+03</pdfrwt>
<totfact> 0.15777006E+03</totfact>
</mgrwt>
</event>
<event>
 6    1  0.9502611E-004  0.4717881E+03  0.7818608E-02  0.1021425E+00
         21   -1    0    0  503  502  0.00000000000E+00  0.00000000000E+00  0.55929633442E+03  0.55929633442E+03  0.00000000000E+00 0.  1.
         21   -1    0    0  501  503 -0.00000000000E+00 -0.00000000000E+00 -0.63085530762E+03  0.63085530762E+03  0.00000000000E+00 0. -1.
    9000007    2    1    2  501    0 -0.65424395788E+02 -0.24122334394E+03 -0.39741939676E+03  0.61686805701E+03  0.40014368621E+03 0.  0.
    9000005    1    3    3    0    0 -0.99476511380E+02 -0.11683948452E+03 -0.45162117859E+03  0.47697980084E+03  0.99999687468E+00 0.  0.
          4    1    3    3  501    0  0.34052115593E+02 -0.12438385942E+03  0.54201781839E+02  0.13988825617E+03  0.00000000000E+00 0.  1.
   -9000007    1    1    2    0  502  0.65424395788E+02  0.24122334394E+03  0.32586042355E+03  0.57328358503E+03  0.40000000000E+03 0.  1.
<mgrwt>
<rscale>  2 0.47175764E+03</rscale>
<asrwt>0</asrwt>
<pdfrwt beam="1">  1       21 0.86045590E-01 0.47178811E+03</pdfrwt>
<pdfrwt beam="2">  1       21 0.97054663E-01 0.47178811E+03</pdfrwt>
<totfact> 0.86234857E+02</totfact>
</mgrwt>
</event>
<event>
 6    1  0.9502611E-004  0.6508903E+03  0.7818608E-02  0.9805719E-01
         21   -1    0    0  503  502  0.00000000000E+00  0.00000000000E+00  0.41666436174E+03  0.41666436174E+03  0.00000000000E+00 0. -1.
         21   -1    0    0  501  503 -0.00000000000E+00 -0.00000000000E+00 -0.18330283935E+04  0.18330283935E+04  0.00000000000E+00 0.  1.
    9000007    2    1    2  501    0  0.50224333980E+03 -0.98590266359E+02 -0.14601227515E+04  0.15986295950E+04  0.40210660218E+03 0.  0.
    9000005    1    3    3    0    0  0.49538158180E+03 -0.11686309858E+03 -0.86827677860E+03  0.10064618521E+04  0.99999687468E+00 0.  0.
          4    1    3    3  501    0  0.68617579958E+01  0.18272832224E+02 -0.59184597292E+03  0.59216774295E+03  0.00000000000E+00 0.  1.
   -9000007    1    1    2    0  502 -0.50224333980E+03  0.98590266359E+02  0.43758719815E+02  0.65106316019E+03  0.40000000000E+03 0. -1.
<mgrwt>
<rscale>  2 0.65056519E+03</rscale>
<asrwt>0</asrwt>
<pdfrwt beam="1">  1       21 0.64102209E-01 0.65089026E+03</pdfrwt>
<pdfrwt beam="2">  1       21 0.28200437E+00 0.65089026E+03</pdfrwt>
<totfact> 0.67701432E+01</totfact>
</mgrwt>
</event>
<event>
 6    1  0.9502611E-004  0.4854697E+03  0.7818608E-02  0.1017760E+00
         21   -1    0    0  503  502  0.00000000000E+00  0.00000000000E+00  0.84745986281E+03  0.84745986281E+03  0.00000000000E+00 0.  1.
         21   -1    0    0  501  503 -0.00000000000E+00 -0.00000000000E+00 -0.27875476660E+03  0.27875476660E+03  0.00000000000E+00 0. -1.
    9000007    2    1    2  501    0 -0.25264329648E+03 -0.10089547573E+03  0.32804296483E+03  0.58591212732E+03  0.40208494363E+03 0.  0.
    9000005    1    3    3    0    0 -0.17048525017E+03 -0.23749080076E+03  0.10264337716E+03  0.30984474151E+03  0.99999687468E+00 0.  0.
          4    1    3    3  501    0 -0.82158046306E+02  0.13659532503E+03  0.22539958766E+03  0.27606738582E+03  0.00000000000E+00 0.  1.
   -9000007    1    1    2    0  502  0.25264329648E+03  0.10089547573E+03  0.24066213138E+03  0.54030250208E+03  0.40000000000E+03 0. -1.
<mgrwt>
<rscale>  2 0.48503777E+03</rscale>
<asrwt>0</asrwt>
<pdfrwt beam="1">  1       21 0.13037844E+00 0.48546970E+03</pdfrwt>
<pdfrwt beam="2">  1       21 0.42885349E-01 0.48546970E+03</pdfrwt>
<totfact> 0.19010588E+03</totfact>
</mgrwt>
</event>
<event>
 6    1  0.9502611E-004  0.4270191E+03  0.7818608E-02  0.1035004E+00
         21   -1    0    0  503  502  0.00000000000E+00  0.00000000000E+00  0.51658131201E+03  0.51658131201E+03  0.00000000000E+00 0. -1.
         21   -1    0    0  501  503 -0.00000000000E+00 -0.00000000000E+00 -0.37835967316E+03  0.37835967316E+03  0.00000000000E+00 0. -1.
    9000007    2    1    2  501    0  0.14607284491E+03 -0.31749520748E+02  0.18939031611E+03  0.46486710591E+03  0.39735050803E+03 0.  0.
    9000005    1    3    3    0    0  0.47682882055E+02  0.17434038583E+03  0.22774152418E+02  0.18217543573E+03  0.99999687468E+00 0.  0.
          4    1    3    3  501    0  0.98389962854E+02 -0.20608990658E+03  0.16661616369E+03  0.28269167018E+03  0.00000000000E+00 0.  1.
   -9000007    1    1    2    0  502 -0.14607284491E+03  0.31749520748E+02 -0.51168677255E+02  0.43007387926E+03  0.40000000000E+03 0. -1.
<mgrwt>
<rscale>  2 0.42639753E+03</rscale>
<asrwt>0</asrwt>
<pdfrwt beam="1">  1       21 0.79474048E-01 0.42701910E+03</pdfrwt>
<pdfrwt beam="2">  1       21 0.58209180E-01 0.42701910E+03</pdfrwt>
<totfact> 0.33966992E+03</totfact>
</mgrwt>
</event>
<event>
 6    1  0.9502611E-004  0.4334555E+03  0.7818608E-02  0.1032819E+00
         21   -1    0    0  503  502  0.00000000000E+00  0.00000000000E+00  0.10935532212E+04  0.10935532212E+04  0.00000000000E+00 0. -1.
         21   -1    0    0  501  503 -0.00000000000E+00 -0.00000000000E+00 -0.18887542151E+03  0.18887542151E+03  0.00000000000E+00 0. -1.
    9000007    2    1    2  501    0  0.15601228302E+03  0.55204060847E+02  0.64662789240E+03  0.77846725982E+03  0.40061992287E+03 0.  0.
    9000005    1    3    3    0    0 -0.65833002740E+02  0.10797613102E+03  0.47909396750E+03  0.49550465064E+03  0.99999687468E+00 0.  0.
          4    1    3    3  501    0  0.22184528576E+03 -0.52772070169E+02  0.16753392490E+03  0.28296260918E+03  0.00000000000E+00 0.  1.
   -9000007    1    1    2    0  502 -0.15601228302E+03 -0.55204060847E+02  0.25804990729E+03  0.50396138288E+03  0.40000000000E+03 0. -1.
<mgrwt>
<rscale>  2 0.43331217E+03</rscale>
<asrwt>0</asrwt>
<pdfrwt beam="1">  1       21 0.16823895E+00 0.43345547E+03</pdfrwt>
<pdfrwt beam="2">  1       21 0.29057758E-01 0.43345547E+03</pdfrwt>
<totfact> 0.21398564E+03</totfact>
</mgrwt>
</event>
<event>
 6    1  0.9502611E-004  0.6031678E+03  0.7818608E-02  0.9898902E-01
         21   -1    0    0  503  502  0.00000000000E+00  0.00000000000E+00  0.30109164220E+03  0.30109164220E+03  0.00000000000E+00 0. -1.
         21   -1    0    0  501  503 -0.00000000000E+00 -0.00000000000E+00 -0.14141816858E+04  0.14141816858E+04  0.00000000000E+00 0. -1.
    9000007    2    1    2  501    0  0.42811277284E+03 -0.14290304415E+03 -0.88395406138E+03  0.10701337116E+04  0.40013691631E+03 0.  0.
    9000005    1    3    3    0    0  0.41791289886E+03 -0.25277500900E+03 -0.66666088353E+03  0.82642853885E+03  0.99999687468E+00 0.  0.
          4    1    3    3  501    0  0.10199873983E+02  0.10987196485E+03 -0.21729317785E+03  0.24370517276E+03  0.00000000000E+00 0.  1.
   -9000007    1    1    2    0  502 -0.42811277284E+03  0.14290304415E+03 -0.22913598222E+03  0.64513961639E+03  0.40000000000E+03 0. -1.
<mgrwt>
<rscale>  2 0.60314508E+03</rscale>
<asrwt>0</asrwt>
<pdfrwt beam="1">  1       21 0.46321791E-01 0.60316779E+03</pdfrwt>
<pdfrwt beam="2">  1       21 0.21756642E+00 0.60316779E+03</pdfrwt>
<totfact> 0.35394950E+02</totfact>
</mgrwt>
</event>
<event>
 6    1  0.9502611E-004  0.4747259E+03  0.7818608E-02  0.1020630E+00
         21   -1    0    0  503  502  0.00000000000E+00  0.00000000000E+00  0.54390237075E+03  0.54390237075E+03  0.00000000000E+00 0. -1.
         21   -1    0    0  501  503 -0.00000000000E+00 -0.00000000000E+00 -0.56014440706E+03  0.56014440706E+03  0.00000000000E+00 0. -1.
    9000007    2    1    2  501    0  0.21997051141E+03 -0.12846530548E+03 -0.29017667471E+03  0.55638762586E+03  0.40059247005E+03 0.  0.
    9000005    1    3    3    0    0  0.52895801216E+01 -0.22654804928E+03 -0.79917612813E+02  0.24029112161E+03  0.99999687468E+00 0.  0.
          4    1    3    3  501    0  0.21468093129E+03  0.98082743806E+02 -0.21025906190E+03  0.31609650425E+03  0.00000000000E+00 0.  1.
   -9000007    1    1    2    0  502 -0.21997051141E+03  0.12846530548E+03  0.27393463839E+03  0.54765915195E+03  0.40000000000E+03 0. -1.
<mgrwt>
<rscale>  2 0.47460090E+03</rscale>
<asrwt>0</asrwt>
<pdfrwt beam="1">  1       21 0.83677287E-01 0.47472591E+03</pdfrwt>
<pdfrwt beam="2">  1       21 0.86176063E-01 0.47472591E+03</pdfrwt>
<totfact> 0.12202693E+03</totfact>
</mgrwt>
</event>
<event>
 6    1  0.9502611E-004  0.5123790E+03  0.7818608E-02  0.1010601E+00
         21   -1    0    0  503  502  0.00000000000E+00  0.00000000000E+00  0.15673880895E+04  0.15673880895E+04  0.00000000000E+00 0. -1.
         21   -1    0    0  501  503 -0.00000000000E+00 -0.00000000000E+00 -0.30890718161E+03  0.30890718161E+03  0.00000000000E+00 0. -1.
    9000007    2    1    2  501    0  0.28910720008E+03  0.13765631733E+03 -0.55619950805E+01  0.51235366848E+03  0.39992888239E+03 0.  0.
    9000005    1    3    3    0    0  0.34133346316E+03 -0.22834581249E+02  0.14410759168E+02  0.34240125751E+03  0.99999687468E+00 0.  0.
          4    1    3    3  501    0 -0.52226263074E+02  0.16049089858E+03 -0.19972754248E+02  0.16995241096E+03  0.00000000000E+00 0.  1.
   -9000007    1    1    2    0  502 -0.28910720008E+03 -0.13765631733E+03  0.12640429030E+04  0.13639416027E+04  0.40000000000E+03 0. -1.
<mgrwt>
<rscale>  2 0.51236512E+03</rscale>
<asrwt>0</asrwt>
<pdfrwt beam="1">  1       21 0.24113663E+00 0.51237900E+03</pdfrwt>
<pdfrwt beam="2">  1       21 0.47524183E-01 0.51237900E+03</pdfrwt>
<totfact> 0.24676343E+02</totfact>
</mgrwt>
</event>
<event>
 6    1  0.9502611E-004  0.4114516E+03  0.7818608E-02  0.1040095E+00
         21   -1    0    0  503  502  0.00000000000E+00  0.00000000000E+00  0.68631587916E+03  0.68631587916E+03  0.00000000000E+00 0. -1.
         21   -1    0    0  501  503 -0.00000000000E+00 -0.00000000000E+00 -0.29857324911E+03  0.29857324911E+03  0.00000000000E+00 0. -1.
    9000007    2    1    2  501    0 -0.37167072448E+02 -0.88943974479E+02 -0.14886579552E+02  0.40921326262E+03  0.39741849754E+03 0.  0.
    9000005    1    3    3    0    0  0.81800122141E+02 -0.20520851036E+03 -0.73537162202E+02  0.23283149900E+03  0.99999687468E+00 0.  0.
          4    1    3    3  501    0 -0.11896719459E+03  0.11626453588E+03  0.58650582651E+02  0.17638176362E+03  0.00000000000E+00 0.  1.
   -9000007    1    1    2    0  502  0.37167072448E+02  0.88943974479E+02  0.40262920960E+03  0.57567586565E+03  0.40000000000E+03 0. -1.
<mgrwt>
<rscale>  2 0.41082286E+03</rscale>
<asrwt>0</asrwt>
<pdfrwt beam="1">  1       21 0.10558706E+00 0.41145160E+03</pdfrwt>
<pdfrwt beam="2">  1       21 0.45934346E-01 0.41145160E+03</pdfrwt>
<totfact> 0.28841576E+03</totfact>
</mgrwt>
</event>
<event>
 6    1  0.9502611E-004  0.4515641E+03  0.7818608E-02  0.1027267E+00
         21   -1    0    0  503  502  0.00000000000E+00  0.00000000000E+00  0.11421430134E+03  0.11421430134E+03  0.00000000000E+00 0. -1.
         21   -1    0    0  501  503 -0.00000000000E+00 -0.00000000000E+00 -0.18306638088E+04  0.18306638088E+04  0.00000000000E+00 0. -1.
    9000007    2    1    2  501    0 -0.15832948291E+03  0.13726574560E+03 -0.10120817790E+04  0.11081917848E+04  0.39983670981E+03 0.  0.
    9000005    1    3    3    0    0 -0.14259960727E+03  0.56568689739E+02 -0.80993833266E+02  0.17348102395E+03  0.99999687468E+00 0.  0.
          4    1    3    3  501    0 -0.15729875646E+02  0.80697055859E+02 -0.93108794571E+03  0.93471076086E+03  0.00000000000E+00 0.  1.
   -9000007    1    1    2    0  502  0.15832948291E+03 -0.13726574560E+03 -0.70436772848E+03  0.83668632533E+03  0.40000000000E+03 0. -1.
<mgrwt>
<rscale>  2 0.45152791E+03</rscale>
<asrwt>0</asrwt>
<pdfrwt beam="1">  1       21 0.17571432E-01 0.45156407E+03</pdfrwt>
<pdfrwt beam="2">  1       21 0.28164057E+00 0.45156407E+03</pdfrwt>
<totfact> 0.10384858E+03</totfact>
</mgrwt>
</event>
<event>
 6    1  0.9502611E-004  0.4248501E+03  0.7818608E-02  0.1035523E+00
         21   -1    0    0  503  502  0.00000000000E+00  0.00000000000E+00  0.25528787068E+03  0.25528787068E+03  0.00000000000E+00 0.  1.
         21   -1    0    0  501  503 -0.00000000000E+00 -0.00000000000E+00 -0.95189558026E+03  0.95189558026E+03  0.00000000000E+00 0.  1.
    9000007    2    1    2  501    0  0.69594067612E+02 -0.12410629438E+03 -0.65483359115E+03  0.78057967281E+03  0.40031473485E+03 0.  0.
    9000005    1    3    3    0    0 -0.15143637713E+03  0.16955535085E+02 -0.16248095625E+03  0.22275890021E+03  0.99999687468E+00 0.  0.
          4    1    3    3  501    0  0.22103044474E+03 -0.14106182947E+03 -0.49235263491E+03  0.55782077259E+03  0.00000000000E+00 0.  1.
   -9000007    1    1    2    0  502 -0.69594067612E+02  0.12410629438E+03 -0.41774118422E+02  0.42660377814E+03  0.40000000000E+03 0.  1.
<mgrwt>
<rscale>  2 0.42477593E+03</rscale>
<asrwt>0</asrwt>
<pdfrwt beam="1">  1       21 0.39275057E-01 0.42485008E+03</pdfrwt>
<pdfrwt beam="2">  1       21 0.14644548E+00 0.42485008E+03</pdfrwt>
<totfact> 0.17168864E+03</totfact>
</mgrwt>
</event>
<event>
 6    1  0.9502611E-004  0.4654560E+03  0.7818608E-02  0.1023770E+00
         21   -1    0    0  503  502  0.00000000000E+00  0.00000000000E+00  0.75068384822E+03  0.75068384822E+03  0.00000000000E+00 0. -1.
         21   -1    0    0  501  503 -0.00000000000E+00 -0.00000000000E+00 -0.32212766694E+03  0.32212766694E+03  0.00000000000E+00 0. -1.
    9000007    2    1    2  501    0 -0.62404007920E+02 -0.22968467881E+03  0.27703472462E+02  0.45853779274E+03  0.39094771147E+03 0.  0.
    9000005    1    3    3    0    0 -0.16666602261E+03 -0.14438768211E+03  0.15788269335E+03  0.27120713614E+03  0.99999687468E+00 0.  0.
          4    1    3    3  501    0  0.10426201469E+03 -0.85296996701E+02 -0.13017922089E+03  0.18733065661E+03  0.00000000000E+00 0.  1.
   -9000007    1    1    2    0  502  0.62404007920E+02  0.22968467881E+03  0.40085270882E+03  0.61427372242E+03  0.40000000000E+03 0. -1.
<mgrwt>
<rscale>  2 0.46350482E+03</rscale>
<asrwt>0</asrwt>
<pdfrwt beam="1">  1       21 0.11548982E+00 0.46545603E+03</pdfrwt>
<pdfrwt beam="2">  1       21 0.49558103E-01 0.46545603E+03</pdfrwt>
<totfact> 0.19267512E+03</totfact>
</mgrwt>
</event>
<event>
 6    1  0.9502611E-004  0.4133028E+03  0.7818608E-02  0.1039322E+00
         21   -1    0    0  503  502  0.00000000000E+00  0.00000000000E+00  0.21265500698E+03  0.21265500698E+03  0.00000000000E+00 0. -1.
         21   -1    0    0  501  503 -0.00000000000E+00 -0.00000000000E+00 -0.12715427097E+04  0.12715427097E+04  0.00000000000E+00 0. -1.
    9000007    2    1    2  501    0 -0.89945191863E+02  0.46908419202E+02 -0.98064590739E+03  0.10641830551E+04  0.40066025737E+03 0.  0.
    9000005    1    3    3    0    0 -0.24414864123E+03 -0.34690433606E+01 -0.49099918949E+03  0.54836283367E+03  0.99999687468E+00 0.  0.
          4    1    3    3  501    0  0.15420344937E+03  0.50377462562E+02 -0.48964671790E+03  0.51582022148E+03  0.00000000000E+00 0.  1.
   -9000007    1    1    2    0  502  0.89945191863E+02 -0.46908419202E+02 -0.78241795285E+02  0.42001466148E+03  0.40000000000E+03 0. -1.
<mgrwt>
<rscale>  2 0.41314267E+03</rscale>
<asrwt>0</asrwt>
<pdfrwt beam="1">  1       21 0.32716155E-01 0.41330277E+03</pdfrwt>
<pdfrwt beam="2">  1       21 0.19562196E+00 0.41330277E+03</pdfrwt>
<totfact> 0.10969733E+03</totfact>
</mgrwt>
</event>
<event>
 6    1  0.9502611E-004  0.6357948E+03  0.7818608E-02  0.9833872E-01
         21   -1    0    0  503  502  0.00000000000E+00  0.00000000000E+00  0.32005976242E+03  0.32005976242E+03  0.00000000000E+00 0. -1.
         21   -1    0    0  501  503 -0.00000000000E+00 -0.00000000000E+00 -0.13836281185E+04  0.13836281185E+04  0.00000000000E+00 0.  1.
    9000007    2    1    2  501    0  0.46096362822E+03 -0.17768432584E+03 -0.28002801668E+03  0.69473067189E+03  0.40021972734E+03 0.  0.
    9000005    1    3    3    0    0  0.19709495794E+03 -0.25838886725E+03 -0.37087881397E+02  0.32708980435E+03  0.99999687468E+00 0.  0.
          4    1    3    3  501    0  0.26386867028E+03  0.80704541412E+02 -0.24294013528E+03  0.36764086755E+03  0.00000000000E+00 0.  1.
   -9000007    1    1    2    0  502 -0.46096362822E+03  0.17768432584E+03 -0.78354033943E+03  0.10089572091E+04  0.40000000000E+03 0.  1.
<mgrwt>
<rscale>  2 0.63576022E+03</rscale>
<asrwt>0</asrwt>
<pdfrwt beam="1">  1       21 0.49239962E-01 0.63579479E+03</pdfrwt>
<pdfrwt beam="2">  1       21 0.21286587E+00 0.63579479E+03</pdfrwt>
<totfact> 0.32971080E+02</totfact>
</mgrwt>
</event>
<event>
 6    1  0.9502611E-004  0.7325220E+03  0.7818608E-02  0.9663551E-01
         21   -1    0    0  503  502  0.00000000000E+00  0.00000000000E+00  0.11917615088E+04  0.11917615088E+04  0.00000000000E+00 0. -1.
         21   -1    0    0  501  503 -0.00000000000E+00 -0.00000000000E+00 -0.79523972593E+03  0.79523972593E+03  0.00000000000E+00 0. -1.
    9000007    2    1    2  501    0 -0.60130764333E+03 -0.11687810249E+03 -0.45657786982E+03  0.86316388433E+03  0.40169287674E+03 0.  0.
    9000005    1    3    3    0    0 -0.60637731777E+03  0.18924715371E+01 -0.42395856240E+03  0.73989113766E+03  0.99999687468E+00 0.  0.
          4    1    3    3  501    0  0.50696744430E+01 -0.11877057403E+03 -0.32619307418E+02  0.12327274666E+03  0.00000000000E+00 0.  1.
   -9000007    1    1    2    0  502  0.60130764333E+03  0.11687810249E+03  0.85309965273E+03  0.11238373504E+04  0.40000000000E+03 0. -1.
<mgrwt>
<rscale>  2 0.73229019E+03</rscale>
<asrwt>0</asrwt>
<pdfrwt beam="1">  1       21 0.18334792E+00 0.73252204E+03</pdfrwt>
<pdfrwt beam="2">  1       21 0.12234457E+00 0.73252204E+03</pdfrwt>
<totfact> 0.60569602E+01</totfact>
</mgrwt>
</event>
<event>
 6    1  0.9502611E-004  0.5275921E+03  0.7818608E-02  0.1006829E+00
         21   -1    0    0  503  502  0.00000000000E+00  0.00000000000E+00  0.64358713152E+03  0.64358713152E+03  0.00000000000E+00 0.  1.
         21   -1    0    0  501  503 -0.00000000000E+00 -0.00000000000E+00 -0.80528325259E+03  0.80528325259E+03  0.00000000000E+00 0. -1.
    9000007    2    1    2  501    0  0.28611512207E+02 -0.34283348167E+03 -0.57383622830E+03  0.77938335453E+03  0.39974614647E+03 0.  0.
    9000005    1    3    3    0    0 -0.18247603334E+03 -0.17987293688E+03 -0.23050014225E+03  0.34464922999E+03  0.99999687468E+00 0.  0.
          4    1    3    3  501    0  0.21108754555E+03 -0.16296054480E+03 -0.34333608605E+03  0.43473412453E+03  0.00000000000E+00 0.  1.
   -9000007    1    1    2    0  502 -0.28611512207E+02  0.34283348167E+03  0.41214010723E+03  0.66948702958E+03  0.40000000000E+03 0.  1.
<mgrwt>
<rscale>  2 0.52754398E+03</rscale>
<asrwt>0</asrwt>
<pdfrwt beam="1">  1       21 0.99013406E-01 0.52759209E+03</pdfrwt>
<pdfrwt beam="2">  1       21 0.12388973E+00 0.52759209E+03</pdfrwt>
<totfact> 0.32833976E+02</totfact>
</mgrwt>
</event>
<event>
 6    1  0.9502611E-004  0.4456492E+03  0.7818608E-02  0.1029126E+00
         21   -1    0    0  503  502  0.00000000000E+00  0.00000000000E+00  0.21077504567E+03  0.21077504567E+03  0.00000000000E+00 0. -1.
         21   -1    0    0  501  503 -0.00000000000E+00 -0.00000000000E+00 -0.18968059570E+04  0.18968059570E+04  0.00000000000E+00 0. -1.
    9000007    2    1    2  501    0 -0.59863567790E+02 -0.18713513883E+03 -0.15910372062E+04  0.16519199324E+04  0.39854342889E+03 0.  0.
    9000005    1    3    3    0    0  0.58029775953E+02 -0.16626128390E+03 -0.14740319316E+04  0.14845138615E+04  0.99999687468E+00 0.  0.
          4    1    3    3  501    0 -0.11789334374E+03 -0.20873854930E+02 -0.11700527457E+03  0.16740607096E+03  0.00000000000E+00 0.  1.
   -9000007    1    1    2    0  502  0.59863567790E+02  0.18713513883E+03 -0.94993705157E+02  0.45566107026E+03  0.40000000000E+03 0. -1.
<mgrwt>
<rscale>  2 0.44532211E+03</rscale>
<asrwt>0</asrwt>
<pdfrwt beam="1">  1       21 0.32426929E-01 0.44564920E+03</pdfrwt>
<pdfrwt beam="2">  1       21 0.29181631E+00 0.44564920E+03</pdfrwt>
<totfact> 0.27586177E+02</totfact>
</mgrwt>
</event>
<event>
 6    1  0.9502611E-004  0.4179288E+03  0.7818608E-02  0.1038161E+00
         21   -1    0    0  503  502  0.00000000000E+00  0.00000000000E+00  0.34512196432E+03  0.34512196432E+03  0.00000000000E+00 0.  1.
         21   -1    0    0  501  503 -0.00000000000E+00 -0.00000000000E+00 -0.76653789403E+03  0.76653789403E+03  0.00000000000E+00 0.  1.
    9000007    2    1    2  501    0 -0.30051069434E+02  0.97697173851E+02 -0.53932264136E+03  0.68230010569E+03  0.40523661999E+03 0.  0.
    9000005    1    3    3    0    0 -0.72660455499E+01  0.78851502544E+02  0.49071725525E+02  0.93163239055E+02  0.99999687468E+00 0.  0.
          4    1    3    3  501    0 -0.22785023884E+02  0.18845671307E+02 -0.58839436689E+03  0.58913686663E+03  0.00000000000E+00 0.  1.
   -9000007    1    1    2    0  502  0.30051069434E+02 -0.97697173851E+02  0.11790671166E+03  0.42935975266E+03  0.40000000000E+03 0.  1.
<mgrwt>
<rscale>  2 0.41665413E+03</rscale>
<asrwt>0</asrwt>
<pdfrwt beam="1">  1       21 0.53095686E-01 0.41792885E+03</pdfrwt>
<pdfrwt beam="2">  1       21 0.11792891E+00 0.41792885E+03</pdfrwt>
<totfact> 0.16081472E+03</totfact>
</mgrwt>
</event>
<event>
 6    1  0.9502611E-004  0.4451914E+03  0.7818608E-02  0.1029246E+00
         21   -1    0    0  503  502  0.00000000000E+00  0.00000000000E+00  0.42048392710E+03  0.42048392710E+03  0.00000000000E+00 0.  1.
         21   -1    0    0  501  503 -0.00000000000E+00 -0.00000000000E+00 -0.15158516909E+04  0.15158516909E+04  0.00000000000E+00 0. -1.
    9000007    2    1    2  501    0  0.13245331431E+03 -0.14038417897E+03 -0.13519864158E+04  0.14233982625E+04  0.40117794938E+03 0.  0.
    9000005    1    3    3    0    0  0.17559560202E+03 -0.19296897677E+03 -0.13246384181E+04  0.13500884342E+04  0.99999687468E+00 0.  0.
          4    1    3    3  501    0 -0.43142287706E+02  0.52584797807E+02 -0.27347997673E+02  0.73309828302E+02  0.00000000000E+00 0.  1.
   -9000007    1    1    2    0  502 -0.13245331431E+03  0.14038417897E+03  0.25661865194E+03  0.51293735553E+03  0.40000000000E+03 0.  1.
<mgrwt>
<rscale>  2 0.44492582E+03</rscale>
<asrwt>0</asrwt>
<pdfrwt beam="1">  1       21 0.64689834E-01 0.44519136E+03</pdfrwt>
<pdfrwt beam="2">  1       21 0.23320795E+00 0.44519136E+03</pdfrwt>
<totfact> 0.14696738E+02</totfact>
</mgrwt>
</event>
<event>
 6    1  0.9502611E-004  0.4479211E+03  0.7818608E-02  0.1028351E+00
         21   -1    0    0  503  502  0.00000000000E+00  0.00000000000E+00  0.73029802205E+03  0.73029802205E+03  0.00000000000E+00 0.  1.
         21   -1    0    0  501  503 -0.00000000000E+00 -0.00000000000E+00 -0.10573185217E+04  0.10573185217E+04  0.00000000000E+00 0. -1.
    9000007    2    1    2  501    0  0.18103404906E+03 -0.88656788190E+02 -0.93250271658E+03  0.10344618000E+04  0.39989566918E+03 0.  0.
    9000005    1    3    3    0    0  0.20242793746E+03  0.97022003574E+02 -0.70583620732E+03  0.74067272840E+03  0.99999687468E+00 0.  0.
          4    1    3    3  501    0 -0.21393888399E+02 -0.18567879176E+03 -0.22666650926E+03  0.29378907160E+03  0.00000000000E+00 0.  1.
   -9000007    1    1    2    0  502 -0.18103404906E+03  0.88656788190E+02  0.60548221693E+03  0.75315474375E+03  0.40000000000E+03 0.  1.
<mgrwt>
<rscale>  2 0.44789785E+03</rscale>
<asrwt>0</asrwt>
<pdfrwt beam="1">  1       21 0.11235354E+00 0.44792115E+03</pdfrwt>
<pdfrwt beam="2">  1       21 0.16266439E+00 0.44792115E+03</pdfrwt>
<totfact> 0.12033560E+02</totfact>
</mgrwt>
</event>
<event>
 6    1  0.9502611E-004  0.4036623E+03  0.7818608E-02  0.1042645E+00
         21   -1    0    0  503  502  0.00000000000E+00  0.00000000000E+00  0.98987708843E+03  0.98987708843E+03  0.00000000000E+00 0.  1.
         21   -1    0    0  501  503 -0.00000000000E+00 -0.00000000000E+00 -0.27139217433E+03  0.27139217433E+03  0.00000000000E+00 0.  1.
    9000007    2    1    2  501    0  0.34172797839E+01  0.41815917467E+02 -0.37043416953E+02  0.40535845679E+03  0.40147604536E+03 0.  0.
    9000005    1    3    3    0    0 -0.34267102771E+02  0.17947546778E+03  0.99314185798E+02  0.20796630824E+03  0.99999687468E+00 0.  0.
          4    1    3    3  501    0  0.37684382555E+02 -0.13765955032E+03 -0.13635760275E+03  0.19739214855E+03  0.00000000000E+00 0.  1.
   -9000007    1    1    2    0  502 -0.34172797839E+01 -0.41815917467E+02  0.75552833105E+03  0.85591080597E+03  0.40000000000E+03 0.  1.
<mgrwt>
<rscale>  2 0.40329481E+03</rscale>
<asrwt>0</asrwt>
<pdfrwt beam="1">  1       21 0.15228878E+00 0.40366231E+03</pdfrwt>
<pdfrwt beam="2">  1       21 0.41752643E-01 0.40366231E+03</pdfrwt>
<totfact> 0.13745197E+03</totfact>
</mgrwt>
</event>
<event>
 6    1  0.9502611E-004  0.4010516E+03  0.7818608E-02  0.1043437E+00
         21   -1    0    0  503  502  0.00000000000E+00  0.00000000000E+00  0.45343285684E+03  0.45343285684E+03  0.00000000000E+00 0.  1.
         21   -1    0    0  501  503 -0.00000000000E+00 -0.00000000000E+00 -0.60594028663E+03  0.60594028663E+03  0.00000000000E+00 0.  1.
    9000007    2    1    2  501    0 -0.19009145532E+02 -0.16944201919E+02 -0.41747178528E+03  0.57889987337E+03  0.40024232446E+03 0.  0.
    9000005    1    3    3    0    0  0.14082069858E+03  0.12401090675E+03 -0.18427796696E+03  0.26299913163E+03  0.99999687468E+00 0.  0.
          4    1    3    3  501    0 -0.15982984411E+03 -0.14095510866E+03 -0.23319381833E+03  0.31590074174E+03  0.00000000000E+00 0.  1.
   -9000007    1    1    2    0  502  0.19009145532E+02  0.16944201919E+02  0.26496435550E+03  0.48047327010E+03  0.40000000000E+03 0.  1.
<mgrwt>
<rscale>  2 0.40099111E+03</rscale>
<asrwt>0</asrwt>
<pdfrwt beam="1">  1       21 0.69758901E-01 0.40105158E+03</pdfrwt>
<pdfrwt beam="2">  1       21 0.93221582E-01 0.40105158E+03</pdfrwt>
<totfact> 0.15833441E+03</totfact>
</mgrwt>
</event>
<event>
 6    1  0.9502611E-004  0.5863238E+03  0.7818608E-02  0.9934317E-01
         21   -1    0    0  503  502  0.00000000000E+00  0.00000000000E+00  0.44176530409E+03  0.44176530409E+03  0.00000000000E+00 0. -1.
         21   -1    0    0  501  503 -0.00000000000E+00 -0.00000000000E+00 -0.12801797866E+04  0.12801797866E+04  0.00000000000E+00 0. -1.
    9000007    2    1    2  501    0 -0.30683749103E+03 -0.29892263799E+03 -0.95856440659E+03  0.11236642255E+04  0.40033933192E+03 0.  0.
    9000005    1    3    3    0    0 -0.31617856819E+03 -0.50560990300E+02 -0.67166083541E+03  0.74407968562E+03  0.99999687468E+00 0.  0.
          4    1    3    3  501    0  0.93410771584E+01 -0.24836164769E+03 -0.28690357117E+03  0.37958453988E+03  0.00000000000E+00 0.  1.
   -9000007    1    1    2    0  502  0.30683749103E+03  0.29892263799E+03  0.12014992407E+03  0.59828086520E+03  0.40000000000E+03 0. -1.
<mgrwt>
<rscale>  2 0.58626586E+03</rscale>
<asrwt>0</asrwt>
<pdfrwt beam="1">  1       21 0.67963895E-01 0.58632378E+03</pdfrwt>
<pdfrwt beam="2">  1       21 0.19695073E+00 0.58632378E+03</pdfrwt>
<totfact> 0.21157498E+02</totfact>
</mgrwt>
</event>
<event>
 6    1  0.9502611E-004  0.6553483E+03  0.7818608E-02  0.9796965E-01
         21   -1    0    0  503  502  0.00000000000E+00  0.00000000000E+00  0.32275137281E+03  0.32275137281E+03  0.00000000000E+00 0. -1.
         21   -1    0    0  501  503 -0.00000000000E+00 -0.00000000000E+00 -0.15648246041E+04  0.15648246041E+04  0.00000000000E+00 0. -1.
    9000007    2    1    2  501    0  0.89125515798E+02 -0.51140787702E+03 -0.98653766909E+03  0.11841701213E+04  0.39940071272E+03 0.  0.
    9000005    1    3    3    0    0  0.19615843167E+03 -0.50833796801E+03 -0.77911730405E+03  0.95074202258E+03  0.99999687468E+00 0.  0.
          4    1    3    3  501    0 -0.10703291588E+03 -0.30699090143E+01 -0.20742036504E+03  0.23342809869E+03  0.00000000000E+00 0.  1.
   -9000007    1    1    2    0  502 -0.89125515798E+02  0.51140787702E+03 -0.25553556225E+03  0.70340585569E+03  0.40000000000E+03 0. -1.
<mgrwt>
<rscale>  2 0.65525686E+03</rscale>
<asrwt>0</asrwt>
<pdfrwt beam="1">  1       21 0.49654057E-01 0.65534828E+03</pdfrwt>
<pdfrwt beam="2">  1       21 0.24074225E+00 0.65534828E+03</pdfrwt>
<totfact> 0.21283478E+02</totfact>
</mgrwt>
</event>
<event>
 6    1  0.9502611E-004  0.4257083E+03  0.7818608E-02  0.1035318E+00
         21   -1    0    0  503  502  0.00000000000E+00  0.00000000000E+00  0.22407939021E+03  0.22407939021E+03  0.00000000000E+00 0.  1.
         21   -1    0    0  501  503 -0.00000000000E+00 -0.00000000000E+00 -0.80683100173E+03  0.80683100173E+03  0.00000000000E+00 0.  1.
    9000007    2    1    2  501    0  0.52134000478E+02  0.13604987947E+03 -0.30076828091E+03  0.52028124819E+03  0.39875242282E+03 0.  0.
    9000005    1    3    3    0    0  0.16436360789E+02  0.20039103879E+03 -0.36881308191E+03  0.42006048584E+03  0.99999687468E+00 0.  0.
          4    1    3    3  501    0  0.35697639689E+02 -0.64341159324E+02  0.68044800999E+02  0.10022076235E+03  0.00000000000E+00 0.  1.
   -9000007    1    1    2    0  502 -0.52134000478E+02 -0.13604987947E+03 -0.28198333060E+03  0.51062914375E+03  0.40000000000E+03 0. -1.
<mgrwt>
<rscale>  2 0.42541495E+03</rscale>
<asrwt>0</asrwt>
<pdfrwt beam="1">  1       21 0.34473753E-01 0.42570826E+03</pdfrwt>
<pdfrwt beam="2">  1       21 0.12412785E+00 0.42570826E+03</pdfrwt>
<totfact> 0.34520590E+03</totfact>
</mgrwt>
</event>
<event>
 6    1  0.9502611E-004  0.4366513E+03  0.7818608E-02  0.1031837E+00
         21   -1    0    0  503  502  0.00000000000E+00  0.00000000000E+00  0.20090228494E+04  0.20090228494E+04  0.00000000000E+00 0.  1.
         21   -1    0    0  501  503 -0.00000000000E+00 -0.00000000000E+00 -0.30786610063E+03  0.30786610063E+03  0.00000000000E+00 0. -1.
    9000007    2    1    2  501    0  0.11497125823E+03 -0.13208333036E+03 -0.11350032112E+03  0.45043651890E+03  0.39918208663E+03 0.  0.
    9000005    1    3    3    0    0  0.60260554619E+02  0.12652324128E+03 -0.12223462741E+03  0.18596174111E+03  0.99999687468E+00 0.  0.
          4    1    3    3  501    0  0.54710703613E+02 -0.25860657163E+03  0.87343062852E+01  0.26447477779E+03  0.00000000000E+00 0.  1.
   -9000007    1    1    2    0  502 -0.11497125823E+03  0.13208333036E+03  0.18146570699E+04  0.18664524311E+04  0.40000000000E+03 0.  1.
<mgrwt>
<rscale>  2 0.43646394E+03</rscale>
<asrwt>0</asrwt>
<pdfrwt beam="1">  1       21 0.30908043E+00 0.43665134E+03</pdfrwt>
<pdfrwt beam="2">  1       21 0.47364017E-01 0.43665134E+03</pdfrwt>
<totfact> 0.10031819E+02</totfact>
</mgrwt>
</event>
<event>
 6    1  0.9502611E-004  0.4642117E+03  0.7818608E-02  0.1023840E+00
         21   -1    0    0  503  502  0.00000000000E+00  0.00000000000E+00  0.60528301973E+03  0.60528301973E+03  0.00000000000E+00 0.  1.
         21   -1    0    0  501  503 -0.00000000000E+00 -0.00000000000E+00 -0.89197460034E+03  0.89197460034E+03  0.00000000000E+00 0. -1.
    9000007    2    1    2  501    0 -0.12349994797E+03  0.20059974176E+03  0.43876101043E+03  0.63599461994E+03  0.39558240455E+03 0.  0.
    9000005    1    3    3    0    0 -0.23187971389E+03  0.41161316099E+02  0.12213218366E+03  0.26529177510E+03  0.99999687468E+00 0.  0.
          4    1    3    3  501    0  0.10837976592E+03  0.15943842566E+03  0.31662882677E+03  0.37070284484E+03  0.00000000000E+00 0.  1.
   -9000007    1    1    2    0  502  0.12349994797E+03 -0.20059974176E+03 -0.72545259104E+03  0.86126300013E+03  0.40000000000E+03 0. -1.
<mgrwt>
<rscale>  2 0.46325849E+03</rscale>
<asrwt>0</asrwt>
<pdfrwt beam="1">  1       21 0.93120464E-01 0.46421169E+03</pdfrwt>
<pdfrwt beam="2">  1       21 0.13722686E+00 0.46421169E+03</pdfrwt>
<totfact> 0.29978491E+02</totfact>
</mgrwt>
</event>
<event>
 6    1  0.9502611E-004  0.4341540E+03  0.7818608E-02  0.1032592E+00
         21   -1    0    0  503  502  0.00000000000E+00  0.00000000000E+00  0.24015473753E+03  0.24015473753E+03  0.00000000000E+00 0.  1.
         21   -1    0    0  501  503 -0.00000000000E+00 -0.00000000000E+00 -0.78620974151E+03  0.78620974151E+03  0.00000000000E+00 0.  1.
    9000007    2    1    2  501    0  0.75838088319E+02 -0.15079225149E+03 -0.24584414596E+03  0.49852333057E+03  0.39949524186E+03 0.  0.
    9000005    1    3    3    0    0 -0.71805605385E+02  0.92542485874E+02  0.76414820557E+01  0.11738632330E+03  0.99999687468E+00 0.  0.
          4    1    3    3  501    0  0.14764369370E+03 -0.24333473736E+03 -0.25348562801E+03  0.38113700727E+03  0.00000000000E+00 0.  1.
   -9000007    1    1    2    0  502 -0.75838088319E+02  0.15079225149E+03 -0.30021085802E+03  0.52784114847E+03  0.40000000000E+03 0.  1.
<mgrwt>
<rscale>  2 0.43403773E+03</rscale>
<asrwt>0</asrwt>
<pdfrwt beam="1">  1       21 0.36946883E-01 0.43415403E+03</pdfrwt>
<pdfrwt beam="2">  1       21 0.12095535E+00 0.43415403E+03</pdfrwt>
<totfact> 0.31949530E+03</totfact>
</mgrwt>
</event>
<event>
 6    1  0.9502611E-004  0.4158112E+03  0.7818608E-02  0.1038487E+00
         21   -1    0    0  503  502  0.00000000000E+00  0.00000000000E+00  0.36715155564E+03  0.36715155564E+03  0.00000000000E+00 0. -1.
         21   -1    0    0  501  503 -0.00000000000E+00 -0.00000000000E+00 -0.51955005531E+03  0.51955005531E+03  0.00000000000E+00 0. -1.
    9000007    2    1    2  501    0  0.94571477804E+02  0.58831379960E+02 -0.21282365737E+03  0.46711122097E+03  0.40061713385E+03 0.  0.
    9000005    1    3    3    0    0 -0.11237279759E+02 -0.36979255390E+02 -0.29825948549E+03  0.30075482118E+03  0.99999687468E+00 0.  0.
          4    1    3    3  501    0  0.10580875756E+03  0.95810635350E+02  0.85435828122E+02  0.16635639979E+03  0.00000000000E+00 0.  1.
   -9000007    1    1    2    0  502 -0.94571477804E+02 -0.58831379960E+02  0.60425157693E+02  0.41959038998E+03  0.40000000000E+03 0.  1.
<mgrwt>
<rscale>  2 0.41566252E+03</rscale>
<asrwt>0</asrwt>
<pdfrwt beam="1">  1       21 0.56484855E-01 0.41581124E+03</pdfrwt>
<pdfrwt beam="2">  1       21 0.79930777E-01 0.41581124E+03</pdfrwt>
<totfact> 0.35931179E+03</totfact>
</mgrwt>
</event>
<event>
 6    1  0.9502611E-004  0.4084074E+03  0.7818608E-02  0.1040932E+00
         21   -1    0    0  503  502  0.00000000000E+00  0.00000000000E+00  0.12114789688E+04  0.12114789688E+04  0.00000000000E+00 0.  1.
         21   -1    0    0  501  503 -0.00000000000E+00 -0.00000000000E+00 -0.18679438851E+03  0.18679438851E+03  0.00000000000E+00 0.  1.
    9000007    2    1    2  501    0 -0.84542841264E+00  0.82437156016E+02  0.15333813060E+03  0.43596299426E+03  0.39969307053E+03 0.  0.
    9000005    1    3    3    0    0 -0.13082397753E+03 -0.98166262987E+02  0.13610417344E+03  0.21278363261E+03  0.99999687468E+00 0.  0.
          4    1    3    3  501    0  0.12997854911E+03  0.18060341900E+03  0.17233957152E+02  0.22317936165E+03  0.00000000000E+00 0.  1.
   -9000007    1    1    2    0  502  0.84542841264E+00 -0.82437156016E+02  0.87134644965E+03  0.96231036301E+03  0.40000000000E+03 0.  1.
<mgrwt>
<rscale>  2 0.40833222E+03</rscale>
<asrwt>0</asrwt>
<pdfrwt beam="1">  1       21 0.18638137E+00 0.40840739E+03</pdfrwt>
<pdfrwt beam="2">  1       21 0.28737599E-01 0.40840739E+03</pdfrwt>
<totfact> 0.16444222E+03</totfact>
</mgrwt>
</event>
<event>
 6    1  0.9502611E-004  0.4809558E+03  0.7818608E-02  0.1018877E+00
         21   -1    0    0  503  502  0.00000000000E+00  0.00000000000E+00  0.20340528137E+04  0.20340528137E+04  0.00000000000E+00 0.  1.
         21   -1    0    0  501  503 -0.00000000000E+00 -0.00000000000E+00 -0.11186849323E+04  0.11186849323E+04  0.00000000000E+00 0.  1.
    9000007    2    1    2  501    0 -0.49890089312E+02  0.26225012727E+03 -0.10364201817E+04  0.11425783511E+04  0.40006792563E+03 0.  0.
    9000005    1    3    3    0    0  0.13936656787E+03 -0.19834315643E+02 -0.28061339749E+03  0.31394477088E+03  0.99999687468E+00 0.  0.
          4    1    3    3  501    0 -0.18925665719E+03  0.28208444291E+03 -0.75580678417E+03  0.82863358019E+03  0.00000000000E+00 0.  1.
   -9000007    1    1    2    0  502  0.49890089312E+02 -0.26225012727E+03  0.19517880630E+04  0.20101593950E+04  0.40000000000E+03 0.  1.
<mgrwt>
<rscale>  2 0.48094169E+03</rscale>
<asrwt>0</asrwt>
<pdfrwt beam="1">  1       21 0.31293120E+00 0.48095581E+03</pdfrwt>
<pdfrwt beam="2">  1       21 0.17210537E+00 0.48095581E+03</pdfrwt>
<totfact> 0.41208406E+00</totfact>
</mgrwt>
</event>
<event>
 6    1  0.9502611E-004  0.4822454E+03  0.7818608E-02  0.1018532E+00
         21   -1    0    0  503  502  0.00000000000E+00  0.00000000000E+00  0.50736402718E+03  0.50736402718E+03  0.00000000000E+00 0.  1.
         21   -1    0    0  501  503 -0.00000000000E+00 -0.00000000000E+00 -0.53558116672E+03  0.53558116672E+03  0.00000000000E+00 0.  1.
    9000007    2    1    2  501    0  0.26056479396E+03  0.67033208624E+02 -0.21232623281E+03  0.52691842993E+03  0.40021636617E+03 0.  0.
    9000005    1    3    3    0    0  0.22894036200E+03  0.17166529785E+03  0.21869018400E+01  0.28616157389E+03  0.99999687468E+00 0.  0.
          4    1    3    3  501    0  0.31624431958E+02 -0.10463208922E+03 -0.21451313465E+03  0.24075685604E+03  0.00000000000E+00 0.  1.
   -9000007    1    1    2    0  502 -0.26056479396E+03 -0.67033208624E+02  0.18410909328E+03  0.51602676397E+03  0.40000000000E+03 0.  1.
<mgrwt>
<rscale>  2 0.48220048E+03</rscale>
<asrwt>0</asrwt>
<pdfrwt beam="1">  1       21 0.78056004E-01 0.48224538E+03</pdfrwt>
<pdfrwt beam="2">  1       21 0.82397103E-01 0.48224538E+03</pdfrwt>
<totfact> 0.15878816E+03</totfact>
</mgrwt>
</event>
<event>
 6    1  0.9502611E-004  0.4306176E+03  0.7818608E-02  0.1033785E+00
         21   -1    0    0  503  502  0.00000000000E+00  0.00000000000E+00  0.13328524487E+03  0.13328524487E+03  0.00000000000E+00 0. -1.
         21   -1    0    0  501  503 -0.00000000000E+00 -0.00000000000E+00 -0.13866684968E+04  0.13866684968E+04  0.00000000000E+00 0.  1.
    9000007    2    1    2  501    0  0.15161061766E+03 -0.33793296951E+02 -0.63944117226E+03  0.77091926750E+03  0.40162636607E+03 0.  0.
    9000005    1    3    3    0    0  0.85505977462E+02 -0.18047093618E+03 -0.13401295598E+03  0.24050260571E+03  0.99999687468E+00 0.  0.
          4    1    3    3  501    0  0.66104640202E+02  0.14667763923E+03 -0.50542821628E+03  0.53041666180E+03  0.00000000000E+00 0.  1.
   -9000007    1    1    2    0  502 -0.15161061766E+03  0.33793296951E+02 -0.61394207966E+03  0.74903447417E+03  0.40000000000E+03 0.  1.
<mgrwt>
<rscale>  2 0.43023797E+03</rscale>
<asrwt>0</asrwt>
<pdfrwt beam="1">  1       21 0.20505422E-01 0.43061758E+03</pdfrwt>
<pdfrwt beam="2">  1       21 0.21333361E+00 0.43061758E+03</pdfrwt>
<totfact> 0.20709402E+03</totfact>
</mgrwt>
</event>
<event>
 6    1  0.9502611E-004  0.4394683E+03  0.7818608E-02  0.1030916E+00
         21   -1    0    0  503  502  0.00000000000E+00  0.00000000000E+00  0.92167332975E+03  0.92167332975E+03  0.00000000000E+00 0. -1.
         21   -1    0    0  501  503 -0.00000000000E+00 -0.00000000000E+00 -0.28794512318E+03  0.28794512318E+03  0.00000000000E+00 0.  1.
    9000007    2    1    2  501    0  0.18178035571E+03  0.47885677350E+01  0.12239174371E+01  0.43946995824E+03  0.40008163931E+03 0.  0.
    9000005    1    3    3    0    0 -0.11275539991E+03 -0.71046405213E+02 -0.19160317602E+02  0.13464579335E+03  0.99999687468E+00 0.  0.
          4    1    3    3  501    0  0.29453575562E+03  0.75834972948E+02  0.20384235039E+02  0.30482416489E+03  0.00000000000E+00 0.  1.
   -9000007    1    1    2    0  502 -0.18178035571E+03 -0.47885677350E+01  0.63250428914E+03  0.77014849469E+03  0.40000000000E+03 0. -1.
<mgrwt>
<rscale>  2 0.43944967E+03</rscale>
<asrwt>0</asrwt>
<pdfrwt beam="1">  1       21 0.14179590E+00 0.43946825E+03</pdfrwt>
<pdfrwt beam="2">  1       21 0.44299250E-01 0.43946825E+03</pdfrwt>
<totfact> 0.14500025E+03</totfact>
</mgrwt>
</event>
<event>
 6    1  0.9502611E-004  0.4519566E+03  0.7818608E-02  0.1027230E+00
         21   -1    0    0  503  502  0.00000000000E+00  0.00000000000E+00  0.14521872118E+04  0.14521872118E+04  0.00000000000E+00 0.  1.
         21   -1    0    0  501  503 -0.00000000000E+00 -0.00000000000E+00 -0.41287132570E+03  0.41287132570E+03  0.00000000000E+00 0.  1.
    9000007    2    1    2  501    0  0.16002363696E+03 -0.13659133416E+03 -0.23829820945E+03  0.50986019995E+03  0.39863094450E+03 0.  0.
    9000005    1    3    3    0    0  0.10472990442E+03  0.13058881741E+03 -0.14512156593E+03  0.22154697245E+03  0.99999687468E+00 0.  0.
          4    1    3    3  501    0  0.55293732541E+02 -0.26718015157E+03 -0.93176643524E+02  0.28831322750E+03  0.00000000000E+00 0.  1.
   -9000007    1    1    2    0  502 -0.16002363696E+03  0.13659133416E+03  0.12776140955E+04  0.13551983375E+04  0.40000000000E+03 0.  1.
<mgrwt>
<rscale>  2 0.45165348E+03</rscale>
<asrwt>0</asrwt>
<pdfrwt beam="1">  1       21 0.22341341E+00 0.45195659E+03</pdfrwt>
<pdfrwt beam="2">  1       21 0.63518666E-01 0.45195659E+03</pdfrwt>
<totfact> 0.17575662E+02</totfact>
</mgrwt>
</event>
<event>
 6    1  0.9502611E-004  0.5111994E+03  0.7818608E-02  0.1010903E+00
         21   -1    0    0  503  502  0.00000000000E+00  0.00000000000E+00  0.27207595409E+03  0.27207595409E+03  0.00000000000E+00 0. -1.
         21   -1    0    0  501  503 -0.00000000000E+00 -0.00000000000E+00 -0.10206003672E+04  0.10206003672E+04  0.00000000000E+00 0.  1.
    9000007    2    1    2  501    0  0.12047094344E+03 -0.29463810054E+03 -0.53135143692E+03  0.73725849649E+03  0.39986358002E+03 0.  0.
    9000005    1    3    3    0    0  0.11366188703E+03 -0.29551313062E+03 -0.14057822645E+03  0.34642498852E+03  0.99999687468E+00 0.  0.
          4    1    3    3  501    0  0.68090564141E+01  0.87503007052E+00 -0.39077321048E+03  0.39083350797E+03  0.00000000000E+00 0.  1.
   -9000007    1    1    2    0  502 -0.12047094344E+03  0.29463810054E+03 -0.21717297619E+03  0.55541782479E+03  0.40000000000E+03 0. -1.
<mgrwt>
<rscale>  2 0.51117274E+03</rscale>
<asrwt>0</asrwt>
<pdfrwt beam="1">  1       21 0.41857839E-01 0.51119943E+03</pdfrwt>
<pdfrwt beam="2">  1       21 0.15701544E+00 0.51119943E+03</pdfrwt>
<totfact> 0.12024559E+03</totfact>
</mgrwt>
</event>
<event>
 6    1  0.9502611E-004  0.4586772E+03  0.7818608E-02  0.1025177E+00
         21   -1    0    0  503  502  0.00000000000E+00  0.00000000000E+00  0.12027267195E+04  0.12027267195E+04  0.00000000000E+00 0. -1.
         21   -1    0    0  501  503 -0.00000000000E+00 -0.00000000000E+00 -0.21048427392E+03  0.21048427392E+03  0.00000000000E+00 0. -1.
    9000007    2    1    2  501    0 -0.14134356323E+03  0.17396933915E+03  0.20551162713E+03  0.50261299511E+03  0.40017678610E+03 0.  0.
    9000005    1    3    3    0    0 -0.25889440183E+02  0.57865790893E+02  0.30466658574E+03  0.31119357534E+03  0.99999687468E+00 0.  0.
          4    1    3    3  501    0 -0.11545412305E+03  0.11610354826E+03 -0.99154958613E+02  0.19141941977E+03  0.00000000000E+00 0.  1.
   -9000007    1    1    2    0  502  0.14134356323E+03 -0.17396933915E+03  0.78673081845E+03  0.91059799831E+03  0.40000000000E+03 0. -1.
<mgrwt>
<rscale>  2 0.45863866E+03</rscale>
<asrwt>0</asrwt>
<pdfrwt beam="1">  1       21 0.18503488E+00 0.45867722E+03</pdfrwt>
<pdfrwt beam="2">  1       21 0.32382197E-01 0.45867722E+03</pdfrwt>
<totfact> 0.12953632E+03</totfact>
</mgrwt>
</event>
<event>
 6    1  0.9502611E-004  0.4545592E+03  0.7818608E-02  0.1026458E+00
         21   -1    0    0  503  502  0.00000000000E+00  0.00000000000E+00  0.12103061072E+04  0.12103061072E+04  0.00000000000E+00 0. -1.
         21   -1    0    0  501  503 -0.00000000000E+00 -0.00000000000E+00 -0.22721152328E+03  0.22721152328E+03  0.00000000000E+00 0. -1.
    9000007    2    1    2  501    0  0.13707906746E+03 -0.16360819273E+03  0.13223749812E+03  0.47340348168E+03  0.40133002516E+03 0.  0.
    9000005    1    3    3    0    0  0.11129864168E+03 -0.13474681360E+03 -0.12397963657E+03  0.21428028769E+03  0.99999687468E+00 0.  0.
          4    1    3    3  501    0  0.25780425778E+02 -0.28861379125E+02  0.25621713468E+03  0.25912319399E+03  0.00000000000E+00 0.  1.
   -9000007    1    1    2    0  502 -0.13707906746E+03  0.16360819273E+03  0.85085708582E+03  0.96411414882E+03  0.40000000000E+03 0. -1.
<mgrwt>
<rscale>  2 0.45426549E+03</rscale>
<asrwt>0</asrwt>
<pdfrwt beam="1">  1       21 0.18620094E+00 0.45455924E+03</pdfrwt>
<pdfrwt beam="2">  1       21 0.34955620E-01 0.45455924E+03</pdfrwt>
<totfact> 0.10919019E+03</totfact>
</mgrwt>
</event>
<event>
 6    1  0.9502611E-004  0.4153195E+03  0.7818608E-02  0.1038612E+00
         21   -1    0    0  503  502  0.00000000000E+00  0.00000000000E+00  0.54835755739E+03  0.54835755739E+03  0.00000000000E+00 0. -1.
         21   -1    0    0  501  503 -0.00000000000E+00 -0.00000000000E+00 -0.33604321966E+03  0.33604321966E+03  0.00000000000E+00 0. -1.
    9000007    2    1    2  501    0 -0.11170741168E+03 -0.34279573727E+01 -0.59536798818E+01  0.41521933642E+03  0.39985166539E+03 0.  0.
    9000005    1    3    3    0    0 -0.25891411014E+03 -0.22979247692E+02 -0.39661908132E+02  0.26294225451E+03  0.99999687468E+00 0.  0.
          4    1    3    3  501    0  0.14720669846E+03  0.19551290319E+02  0.33708228251E+02  0.15227708191E+03  0.00000000000E+00 0.  1.
   -9000007    1    1    2    0  502  0.11170741168E+03  0.34279573727E+01  0.21826801761E+03  0.46918144063E+03  0.40000000000E+03 0. -1.
<mgrwt>
<rscale>  2 0.41528379E+03</rscale>
<asrwt>0</asrwt>
<pdfrwt beam="1">  1       21 0.84362701E-01 0.41531951E+03</pdfrwt>
<pdfrwt beam="2">  1       21 0.51698957E-01 0.41531951E+03</pdfrwt>
<totfact> 0.38357404E+03</totfact>
</mgrwt>
</event>
<event>
 6    1  0.9502611E-004  0.4551655E+03  0.7818608E-02  0.1026284E+00
         21   -1    0    0  503  502  0.00000000000E+00  0.00000000000E+00  0.22793816370E+03  0.22793816370E+03  0.00000000000E+00 0. -1.
         21   -1    0    0  501  503 -0.00000000000E+00 -0.00000000000E+00 -0.90665771290E+03  0.90665771290E+03  0.00000000000E+00 0. -1.
    9000007    2    1    2  501    0 -0.19414131253E+03 -0.91386841522E+02 -0.34893210100E+03  0.57352354167E+03  0.40141404772E+03 0.  0.
    9000005    1    3    3    0    0 -0.16309865220E+02 -0.14069658986E+03 -0.36179619349E+03  0.38853446143E+03  0.99999687468E+00 0.  0.
          4    1    3    3  501    0 -0.17783144731E+03  0.49309748338E+02  0.12864092491E+02  0.18498908024E+03  0.00000000000E+00 0.  1.
   -9000007    1    1    2    0  502  0.19414131253E+03  0.91386841522E+02 -0.32978744820E+03  0.56107233493E+03  0.40000000000E+03 0. -1.
<mgrwt>
<rscale>  2 0.45485355E+03</rscale>
<asrwt>0</asrwt>
<pdfrwt beam="1">  1       21 0.35067409E-01 0.45516551E+03</pdfrwt>
<pdfrwt beam="2">  1       21 0.13948580E+00 0.45516551E+03</pdfrwt>
<totfact> 0.24341050E+03</totfact>
</mgrwt>
</event>
<event>
 6    1  0.9502611E-004  0.6532914E+03  0.7818608E-02  0.9800766E-01
         21   -1    0    0  503  502  0.00000000000E+00  0.00000000000E+00  0.19506307981E+03  0.19506307981E+03  0.00000000000E+00 0.  1.
         21   -1    0    0  501  503 -0.00000000000E+00 -0.00000000000E+00 -0.22747240270E+04  0.22747240270E+04  0.00000000000E+00 0. -1.
    9000007    2    1    2  501    0 -0.51647184145E+03  0.68197636135E+01 -0.12822061089E+04  0.14389021029E+04  0.39949603731E+03 0.  0.
    9000005    1    3    3    0    0 -0.53258249630E+03 -0.93566547452E+02 -0.96976728848E+03  0.11103370695E+04  0.99999687468E+00 0.  0.
          4    1    3    3  501    0  0.16110654845E+02  0.10038631107E+03 -0.31243882039E+03  0.32856503334E+03  0.00000000000E+00 0.  1.
   -9000007    1    1    2    0  502  0.51647184145E+03 -0.68197636135E+01 -0.79745483828E+03  0.10308850039E+04  0.40000000000E+03 0.  1.
<mgrwt>
<rscale>  2 0.65321429E+03</rscale>
<asrwt>0</asrwt>
<pdfrwt beam="1">  1       21 0.30009704E-01 0.65329141E+03</pdfrwt>
<pdfrwt beam="2">  1       21 0.34995755E+00 0.65329141E+03</pdfrwt>
<totfact> 0.12811274E+02</totfact>
</mgrwt>
</event>
<event>
 6    1  0.9502611E-004  0.6699807E+03  0.7818608E-02  0.9770030E-01
         21   -1    0    0  503  502  0.00000000000E+00  0.00000000000E+00  0.39199600764E+03  0.39199600764E+03  0.00000000000E+00 0. -1.
         21   -1    0    0  501  503 -0.00000000000E+00 -0.00000000000E+00 -0.13075375635E+04  0.13075375635E+04  0.00000000000E+00 0.  1.
    9000007    2    1    2  501    0  0.52512907339E+02  0.53479441348E+03 -0.75744101980E+03  0.10112324382E+04  0.40013932002E+03 0.  0.
    9000005    1    3    3    0    0 -0.60608222895E+02  0.52841961580E+03 -0.71298578032E+03  0.88952255169E+03  0.99999687468E+00 0.  0.
          4    1    3    3  501    0  0.11312113023E+03  0.63747976850E+01 -0.44455239478E+02  0.12170988648E+03  0.00000000000E+00 0.  1.
   -9000007    1    1    2    0  502 -0.52512907339E+02 -0.53479441348E+03 -0.15810053606E+03  0.68830113296E+03  0.40000000000E+03 0. -1.
<mgrwt>
<rscale>  2 0.66995990E+03</rscale>
<asrwt>0</asrwt>
<pdfrwt beam="1">  1       21 0.60307078E-01 0.66998071E+03</pdfrwt>
<pdfrwt beam="2">  1       21 0.20115963E+00 0.66998071E+03</pdfrwt>
<totfact> 0.25093508E+02</totfact>
</mgrwt>
</event>
<event>
 6    1  0.9502611E-004  0.4492909E+03  0.7818608E-02  0.1028280E+00
         21   -1    0    0  503  502  0.00000000000E+00  0.00000000000E+00  0.28233480966E+03  0.28233480966E+03  0.00000000000E+00 0.  1.
         21   -1    0    0  501  503 -0.00000000000E+00 -0.00000000000E+00 -0.71274221446E+03  0.71274221446E+03  0.00000000000E+00 0. -1.
    9000007    2    1    2  501    0 -0.32392373792E+02 -0.20202239077E+03 -0.25610308262E+03  0.51315969824E+03  0.39481866056E+03 0.  0.
    9000005    1    3    3    0    0 -0.11666952494E+03 -0.72896213108E+02  0.68581599855E+02  0.15372075907E+03  0.99999687468E+00 0.  0.
          4    1    3    3  501    0  0.84277151153E+02 -0.12912617766E+03 -0.32468468247E+03  0.35943893918E+03  0.00000000000E+00 0.  1.
   -9000007    1    1    2    0  502  0.32392373792E+02  0.20202239077E+03 -0.17430432218E+03  0.48191732588E+03  0.40000000000E+03 0.  1.
<mgrwt>
<rscale>  2 0.44813478E+03</rscale>
<asrwt>0</asrwt>
<pdfrwt beam="1">  1       21 0.43436126E-01 0.44929090E+03</pdfrwt>
<pdfrwt beam="2">  1       21 0.10965265E+00 0.44929090E+03</pdfrwt>
<totfact> 0.29112351E+03</totfact>
</mgrwt>
</event>
<event>
 6    1  0.9502611E-004  0.4337815E+03  0.7818608E-02  0.1032736E+00
         21   -1    0    0  503  502  0.00000000000E+00  0.00000000000E+00  0.65510207070E+03  0.65510207070E+03  0.00000000000E+00 0. -1.
         21   -1    0    0  501  503 -0.00000000000E+00 -0.00000000000E+00 -0.30265761665E+03  0.30265761665E+03  0.00000000000E+00 0. -1.
    9000007    2    1    2  501    0 -0.13241160169E+03  0.99607642620E+02  0.66381030314E+02  0.43883117866E+03  0.40088882180E+03 0.  0.
    9000005    1    3    3    0    0 -0.17080579948E+03 -0.92727226339E+02 -0.62486761131E+02  0.20415326339E+03  0.99999687468E+00 0.  0.
          4    1    3    3  501    0  0.38394197793E+02  0.19233486896E+03  0.12886779145E+03  0.23467791527E+03  0.00000000000E+00 0.  1.
   -9000007    1    1    2    0  502  0.13241160169E+03 -0.99607642620E+02  0.28606342374E+03  0.51892850869E+03  0.40000000000E+03 0. -1.
<mgrwt>
<rscale>  2 0.43357600E+03</rscale>
<asrwt>0</asrwt>
<pdfrwt beam="1">  1       21 0.10078493E+00 0.43378147E+03</pdfrwt>
<pdfrwt beam="2">  1       21 0.46562711E-01 0.43378147E+03</pdfrwt>
<totfact> 0.31147906E+03</totfact>
</mgrwt>
</event>
<event>
 6    1  0.9502611E-004  0.4224742E+03  0.7818608E-02  0.1036327E+00
         21   -1    0    0  503  502  0.00000000000E+00  0.00000000000E+00  0.58193686743E+03  0.58193686743E+03  0.00000000000E+00 0. -1.
         21   -1    0    0  501  503 -0.00000000000E+00 -0.00000000000E+00 -0.30617635188E+03  0.30617635188E+03  0.00000000000E+00 0. -1.
    9000007    2    1    2  501    0  0.10713531609E+03  0.83704679418E+02  0.13325373112E+03  0.44225154467E+03  0.39918093967E+03 0.  0.
    9000005    1    3    3    0    0  0.19319375226E+03  0.56097741556E+02 -0.75418501761E+02  0.21484816248E+03  0.99999687468E+00 0.  0.
          4    1    3    3  501    0 -0.86058436168E+02  0.27606937862E+02  0.20867223289E+03  0.22740338219E+03  0.00000000000E+00 0.  1.
   -9000007    1    1    2    0  502 -0.10713531609E+03 -0.83704679418E+02  0.14250678442E+03  0.44586167464E+03  0.40000000000E+03 0. -1.
<mgrwt>
<rscale>  2 0.42228021E+03</rscale>
<asrwt>0</asrwt>
<pdfrwt beam="1">  1       21 0.89528749E-01 0.42247420E+03</pdfrwt>
<pdfrwt beam="2">  1       21 0.47104054E-01 0.42247420E+03</pdfrwt>
<totfact> 0.40534979E+03</totfact>
</mgrwt>
</event>
<event>
 6    1  0.9502611E-004  0.4070384E+03  0.7818608E-02  0.1041445E+00
         21   -1    0    0  503  502  0.00000000000E+00  0.00000000000E+00  0.16560680648E+03  0.16560680648E+03  0.00000000000E+00 0.  1.
         21   -1    0    0  501  503 -0.00000000000E+00 -0.00000000000E+00 -0.10448506907E+04  0.10448506907E+04  0.00000000000E+00 0.  1.
    9000007    2    1    2  501    0  0.50893095026E+02  0.55589015829E+02 -0.31133998478E+03  0.51174791173E+03  0.39909033217E+03 0.  0.
    9000005    1    3    3    0    0  0.27269182833E+02 -0.16220218702E+03 -0.21930175358E+03  0.27413029187E+03  0.99999687468E+00 0.  0.
          4    1    3    3  501    0  0.23623912193E+02  0.21779120285E+03 -0.92038231203E+02  0.23761761986E+03  0.00000000000E+00 0.  1.
   -9000007    1    1    2    0  502 -0.50893095026E+02 -0.55589015829E+02 -0.56790389942E+03  0.69870958544E+03  0.40000000000E+03 0.  1.
<mgrwt>
<rscale>  2 0.40681472E+03</rscale>
<asrwt>0</asrwt>
<pdfrwt beam="1">  1       21 0.25477970E-01 0.40703838E+03</pdfrwt>
<pdfrwt beam="2">  1       21 0.16074626E+00 0.40703838E+03</pdfrwt>
<totfact> 0.31821256E+03</totfact>
</mgrwt>
</event>
<event>
 6    1  0.9502611E-004  0.5329754E+03  0.7818608E-02  0.1005572E+00
         21   -1    0    0  503  502  0.00000000000E+00  0.00000000000E+00  0.10276529151E+04  0.10276529151E+04  0.00000000000E+00 0.  1.
         21   -1    0    0  501  503 -0.00000000000E+00 -0.00000000000E+00 -0.28507180690E+03  0.28507180690E+03  0.00000000000E+00 0. -1.
    9000007    2    1    2  501    0  0.41901939508E+02  0.34972414601E+03  0.25328723431E+03  0.58921159435E+03  0.39868926374E+03 0.  0.
    9000005    1    3    3    0    0  0.28823609478E+02  0.40411548890E+03  0.87831456597E+02  0.41455457252E+03  0.99999687468E+00 0.  0.
          4    1    3    3  501    0  0.13078330030E+02 -0.54391342893E+02  0.16545577771E+03  0.17465702183E+03  0.00000000000E+00 0.  1.
   -9000007    1    1    2    0  502 -0.41901939508E+02 -0.34972414601E+03  0.48929387385E+03  0.72351312761E+03  0.40000000000E+03 0.  1.
<mgrwt>
<rscale>  2 0.53272945E+03</rscale>
<asrwt>0</asrwt>
<pdfrwt beam="1">  1       21 0.15810045E+00 0.53297538E+03</pdfrwt>
<pdfrwt beam="2">  1       21 0.43857202E-01 0.53297538E+03</pdfrwt>
<totfact> 0.10617674E+03</totfact>
</mgrwt>
</event>
<event>
 6    1  0.9502611E-004  0.4054543E+03  0.7818608E-02  0.1041918E+00
         21   -1    0    0  503  502  0.00000000000E+00  0.00000000000E+00  0.51189484611E+03  0.51189484611E+03  0.00000000000E+00 0.  1.
         21   -1    0    0  501  503 -0.00000000000E+00 -0.00000000000E+00 -0.41146897874E+03  0.41146897874E+03  0.00000000000E+00 0.  1.
    9000007    2    1    2  501    0 -0.20978759690E+02 -0.62074727289E+02 -0.16620580344E+03  0.43819805112E+03  0.40012470904E+03 0.  0.
    9000005    1    3    3    0    0 -0.49902422927E+01 -0.22409049242E+03 -0.15978221232E+03  0.27526860823E+03  0.99999687468E+00 0.  0.
          4    1    3    3  501    0 -0.15988517397E+02  0.16201576513E+03 -0.64235911187E+01  0.16292944289E+03  0.00000000000E+00 0.  1.
   -9000007    1    1    2    0  502  0.20978759690E+02  0.62074727289E+02  0.26663167081E+03  0.48516577373E+03  0.40000000000E+03 0.  1.
<mgrwt>
<rscale>  2 0.40542350E+03</rscale>
<asrwt>0</asrwt>
<pdfrwt beam="1">  1       21 0.78753053E-01 0.40545427E+03</pdfrwt>
<pdfrwt beam="2">  1       21 0.63302920E-01 0.40545427E+03</pdfrwt>
<totfact> 0.29097450E+03</totfact>
</mgrwt>
</event>
<event>
 6    1  0.9502611E-004  0.4413401E+03  0.7818608E-02  0.1030374E+00
         21   -1    0    0  503  502  0.00000000000E+00  0.00000000000E+00  0.79222461818E+03  0.79222461818E+03  0.00000000000E+00 0.  1.
         21   -1    0    0  501  503 -0.00000000000E+00 -0.00000000000E+00 -0.33383555836E+03  0.33383555836E+03  0.00000000000E+00 0.  1.
    9000007    2    1    2  501    0 -0.17552588918E+03 -0.59437090373E+02 -0.60187698104E+02  0.44542520878E+03  0.40054831435E+03 0.  0.
    9000005    1    3    3    0    0 -0.61016561577E+02  0.10341709350E+03  0.12513912283E+03  0.17343274221E+03  0.99999687468E+00 0.  0.
          4    1    3    3  501    0 -0.11450932760E+03 -0.16285418387E+03 -0.18532682094E+03  0.27199246657E+03  0.00000000000E+00 0.  1.
   -9000007    1    1    2    0  502  0.17552588918E+03  0.59437090373E+02  0.51857675793E+03  0.68063496777E+03  0.40000000000E+03 0.  1.
<mgrwt>
<rscale>  2 0.44121562E+03</rscale>
<asrwt>0</asrwt>
<pdfrwt beam="1">  1       21 0.12188071E+00 0.44134007E+03</pdfrwt>
<pdfrwt beam="2">  1       21 0.51359317E-01 0.44134007E+03</pdfrwt>
<totfact> 0.15727337E+03</totfact>
</mgrwt>
</event>
<event>
 6    1  0.9502611E-004  0.4177535E+03  0.7818608E-02  0.1037842E+00
         21   -1    0    0  503  502  0.00000000000E+00  0.00000000000E+00  0.71795118269E+03  0.71795118269E+03  0.00000000000E+00 0.  1.
         21   -1    0    0  501  503 -0.00000000000E+00 -0.00000000000E+00 -0.28607776242E+03  0.28607776242E+03  0.00000000000E+00 0.  1.
    9000007    2    1    2  501    0 -0.10758972619E+03 -0.50093255534E+02  0.20739620168E+02  0.41826799983E+03  0.40054101464E+03 0.  0.
    9000005    1    3    3    0    0  0.29943622896E+02 -0.13969226639E+03  0.15162371752E+03  0.20832979036E+03  0.99999687468E+00 0.  0.
          4    1    3    3  501    0 -0.13753334909E+03  0.89599010860E+02 -0.13088409735E+03  0.20993820948E+03  0.00000000000E+00 0.  1.
   -9000007    1    1    2    0  502  0.10758972619E+03  0.50093255534E+02  0.41113380010E+03  0.58576094528E+03  0.40000000000E+03 0.  1.
<mgrwt>
<rscale>  2 0.41762377E+03</rscale>
<asrwt>0</asrwt>
<pdfrwt beam="1">  1       21 0.11045403E+00 0.41775350E+03</pdfrwt>
<pdfrwt beam="2">  1       21 0.44011964E-01 0.41775350E+03</pdfrwt>
<totfact> 0.28149215E+03</totfact>
</mgrwt>
</event>
<event>
 6    1  0.9502611E-004  0.4104542E+03  0.7818608E-02  0.1040235E+00
         21   -1    0    0  503  502  0.00000000000E+00  0.00000000000E+00  0.33464246010E+04  0.33464246010E+04  0.00000000000E+00 0.  1.
         21   -1    0    0  501  503 -0.00000000000E+00 -0.00000000000E+00 -0.50320105406E+02  0.50320105406E+02  0.00000000000E+00 0.  1.
    9000007    2    1    2  501    0 -0.52356221693E+02  0.75706565718E+02  0.16426726440E+04  0.16931280988E+04  0.39979580459E+03 0.  0.
    9000005    1    3    3    0    0  0.51383762993E+02  0.44289093241E+02  0.25734427875E+02  0.72560841031E+02  0.99999687468E+00 0.  0.
          4    1    3    3  501    0 -0.10373998469E+03  0.31417472477E+02  0.16169382161E+04  0.16205672577E+04  0.00000000000E+00 0.  1.
   -9000007    1    1    2    0  502  0.52356221693E+02 -0.75706565718E+02  0.16534318516E+04  0.17036166077E+04  0.40000000000E+03 0.  1.
<mgrwt>
<rscale>  2 0.41040445E+03</rscale>
<asrwt>0</asrwt>
<pdfrwt beam="1">  1       21 0.51483438E+00 0.41045421E+03</pdfrwt>
<pdfrwt beam="2">  1       21 0.77415573E-02 0.41045421E+03</pdfrwt>
<totfact> 0.14676861E+02</totfact>
</mgrwt>
</event>
<event>
 6    1  0.9502611E-004  0.6375227E+03  0.7818608E-02  0.9830484E-01
         21   -1    0    0  503  502  0.00000000000E+00  0.00000000000E+00  0.53030639525E+03  0.53030639525E+03  0.00000000000E+00 0. -1.
         21   -1    0    0  501  503 -0.00000000000E+00 -0.00000000000E+00 -0.95623917645E+03  0.95623917645E+03  0.00000000000E+00 0. -1.
    9000007    2    1    2  501    0 -0.48241077228E+03  0.11704236362E+03 -0.54414282420E+03  0.83816861163E+03  0.40002017487E+03 0.  0.
    9000005    1    3    3    0    0 -0.49489544166E+03 -0.37950769512E+01 -0.33942984795E+03  0.60012458911E+03  0.99999687468E+00 0.  0.
          4    1    3    3  501    0  0.12484669381E+02  0.12083744057E+03 -0.20471297625E+03  0.23804402252E+03  0.00000000000E+00 0.  1.
   -9000007    1    1    2    0  502  0.48241077228E+03 -0.11704236362E+03  0.11821004299E+03  0.64837696007E+03  0.40000000000E+03 0. -1.
<mgrwt>
<rscale>  2 0.63751955E+03</rscale>
<asrwt>0</asrwt>
<pdfrwt beam="1">  1       21 0.81585600E-01 0.63752271E+03</pdfrwt>
<pdfrwt beam="2">  1       21 0.14711372E+00 0.63752271E+03</pdfrwt>
<totfact> 0.31744626E+02</totfact>
</mgrwt>
</event>
<event>
 6    1  0.9502611E-004  0.4596644E+03  0.7818608E-02  0.1024909E+00
         21   -1    0    0  503  502  0.00000000000E+00  0.00000000000E+00  0.17783939000E+04  0.17783939000E+04  0.00000000000E+00 0. -1.
         21   -1    0    0  501  503 -0.00000000000E+00 -0.00000000000E+00 -0.15249759469E+03  0.15249759469E+03  0.00000000000E+00 0. -1.
    9000007    2    1    2  501    0 -0.22523454148E+03  0.13289548692E+02  0.35874518625E+03  0.58308617888E+03  0.40047992780E+03 0.  0.
    9000005    1    3    3    0    0  0.55312950301E+02 -0.31446452060E+02  0.28160800113E+03  0.28870827510E+03  0.99999687468E+00 0.  0.
          4    1    3    3  501    0 -0.28054749178E+03  0.44736000752E+02  0.77137185118E+02  0.29437790378E+03  0.00000000000E+00 0.  1.
   -9000007    1    1    2    0  502  0.22523454148E+03 -0.13289548692E+02  0.12671511190E+04  0.13478053158E+04  0.40000000000E+03 0.  1.
<mgrwt>
<rscale>  2 0.45955987E+03</rscale>
<asrwt>0</asrwt>
<pdfrwt beam="1">  1       21 0.27359905E+00 0.45966442E+03</pdfrwt>
<pdfrwt beam="2">  1       21 0.23461170E-01 0.45966442E+03</pdfrwt>
<totfact> 0.66636606E+02</totfact>
</mgrwt>
</event>
<event>
 6    1  0.9502611E-004  0.4962162E+03  0.7818608E-02  0.1014997E+00
         21   -1    0    0  503  502  0.00000000000E+00  0.00000000000E+00  0.14724208651E+04  0.14724208651E+04  0.00000000000E+00 0.  1.
         21   -1    0    0  501  503 -0.00000000000E+00 -0.00000000000E+00 -0.17756567844E+03  0.17756567844E+03  0.00000000000E+00 0.  1.
    9000007    2    1    2  501    0  0.22829516916E+03 -0.18469399024E+03  0.43551625972E+03  0.65766908142E+03  0.39575706421E+03 0.  0.
    9000005    1    3    3    0    0 -0.38208797708E+02 -0.14377449224E+03  0.39758305155E+01  0.14882145028E+03  0.99999687468E+00 0.  0.
          4    1    3    3  501    0  0.26650396687E+03 -0.40919497998E+02  0.43154042921E+03  0.50884763114E+03  0.00000000000E+00 0.  1.
   -9000007    1    1    2    0  502 -0.22829516916E+03  0.18469399024E+03  0.85933892689E+03  0.99231746208E+03  0.40000000000E+03 0.  1.
<mgrwt>
<rscale>  2 0.49536057E+03</rscale>
<asrwt>0</asrwt>
<pdfrwt beam="1">  1       21 0.22652628E+00 0.49621624E+03</pdfrwt>
<pdfrwt beam="2">  1       21 0.27317798E-01 0.49621624E+03</pdfrwt>
<totfact> 0.94991137E+02</totfact>
</mgrwt>
</event>
<event>
 6    1  0.9502611E-004  0.5290784E+03  0.7818608E-02  0.1006465E+00
         21   -1    0    0  503  502  0.00000000000E+00  0.00000000000E+00  0.11203387804E+03  0.11203387804E+03  0.00000000000E+00 0.  1.
         21   -1    0    0  501  503 -0.00000000000E+00 -0.00000000000E+00 -0.27068677361E+04  0.27068677361E+04  0.00000000000E+00 0. -1.
    9000007    2    1    2  501    0  0.20025649308E+03 -0.28223813012E+03 -0.16892613270E+04  0.17701773253E+04  0.40020358171E+03 0.  0.
    9000005    1    3    3    0    0  0.23727288190E+03 -0.13213747094E+02 -0.55269101594E+03  0.60161564365E+03  0.99999687468E+00 0.  0.
          4    1    3    3  501    0 -0.37016388821E+02 -0.26902438302E+03 -0.11365703111E+04  0.11685616816E+04  0.00000000000E+00 0.  1.
   -9000007    1    1    2    0  502 -0.20025649308E+03  0.28223813012E+03 -0.90557253104E+03  0.10487242889E+04  0.40000000000E+03 0.  1.
<mgrwt>
<rscale>  2 0.52903988E+03</rscale>
<asrwt>0</asrwt>
<pdfrwt beam="1">  1       21 0.17235981E-01 0.52907838E+03</pdfrwt>
<pdfrwt beam="2">  1       21 0.41644120E+00 0.52907838E+03</pdfrwt>
<totfact> 0.15061584E+02</totfact>
</mgrwt>
</event>
<event>
 6    1  0.9502611E-004  0.5466114E+03  0.7818608E-02  0.1002450E+00
         21   -1    0    0  503  502  0.00000000000E+00  0.00000000000E+00  0.30235532111E+03  0.30235532111E+03  0.00000000000E+00 0. -1.
         21   -1    0    0  501  503 -0.00000000000E+00 -0.00000000000E+00 -0.11673784787E+04  0.11673784787E+04  0.00000000000E+00 0. -1.
    9000007    2    1    2  501    0 -0.10816271598E+03 -0.35648968847E+03 -0.72362089802E+03  0.90512892016E+03  0.39603924925E+03 0.  0.
    9000005    1    3    3    0    0 -0.16232060379E+03 -0.38445536350E+03 -0.40782051917E+03  0.58350019776E+03  0.99999687468E+00 0.  0.
          4    1    3    3  501    0  0.54157887809E+02  0.27965675026E+02 -0.31580037885E+03  0.32162872240E+03  0.00000000000E+00 0.  1.
   -9000007    1    1    2    0  502  0.10816271598E+03  0.35648968847E+03 -0.14140225958E+03  0.56460487965E+03  0.40000000000E+03 0. -1.
<mgrwt>
<rscale>  2 0.54588708E+03</rscale>
<asrwt>0</asrwt>
<pdfrwt beam="1">  1       21 0.46516203E-01 0.54661144E+03</pdfrwt>
<pdfrwt beam="2">  1       21 0.17959669E+00 0.54661144E+03</pdfrwt>
<totfact> 0.64814015E+02</totfact>
</mgrwt>
</event>
<event>
 6    1  0.9502611E-004  0.4198350E+03  0.7818608E-02  0.1037151E+00
         21   -1    0    0  503  502  0.00000000000E+00  0.00000000000E+00  0.10035072220E+04  0.10035072220E+04  0.00000000000E+00 0. -1.
         21   -1    0    0  501  503 -0.00000000000E+00 -0.00000000000E+00 -0.23244193424E+03  0.23244193424E+03  0.00000000000E+00 0. -1.
    9000007    2    1    2  501    0 -0.10549093269E+03 -0.69409394966E+02  0.79766475376E+02  0.42734539109E+03  0.40039404554E+03 0.  0.
    9000005    1    3    3    0    0 -0.68457104592E+01  0.15861339346E+03 -0.19185475687E+02  0.15991921338E+03  0.99999687468E+00 0.  0.
          4    1    3    3  501    0 -0.98645222234E+02 -0.22802278842E+03  0.98951951063E+02  0.26742617772E+03  0.00000000000E+00 0.  1.
   -9000007    1    1    2    0  502  0.10549093269E+03  0.69409394966E+02  0.69129881239E+03  0.80860376514E+03  0.40000000000E+03 0.  1.
<mgrwt>
<rscale>  2 0.41974098E+03</rscale>
<asrwt>0</asrwt>
<pdfrwt beam="1">  1       21 0.15438573E+00 0.41983496E+03</pdfrwt>
<pdfrwt beam="2">  1       21 0.35760298E-01 0.41983496E+03</pdfrwt>
<totfact> 0.18050902E+03</totfact>
</mgrwt>
</event>
<event>
 6    1  0.9502611E-004  0.4256735E+03  0.7818608E-02  0.1035272E+00
         21   -1    0    0  503  502  0.00000000000E+00  0.00000000000E+00  0.68811514499E+03  0.68811514499E+03  0.00000000000E+00 0. -1.
         21   -1    0    0  501  503 -0.00000000000E+00 -0.00000000000E+00 -0.29632801461E+03  0.29632801461E+03  0.00000000000E+00 0. -1.
    9000007    2    1    2  501    0  0.16490765585E+02  0.14465811772E+03  0.30833260152E+02  0.42633419820E+03  0.39951500879E+03 0.  0.
    9000005    1    3    3    0    0 -0.74982585510E+02  0.25457698923E+03 -0.37177729642E+02  0.26798323670E+03  0.99999687468E+00 0.  0.
          4    1    3    3  501    0  0.91473351095E+02 -0.10991887151E+03  0.68010989793E+02  0.15835096150E+03  0.00000000000E+00 0.  1.
   -9000007    1    1    2    0  502 -0.16490765585E+02 -0.14465811772E+03  0.36095387022E+03  0.55810896140E+03  0.40000000000E+03 0. -1.
<mgrwt>
<rscale>  2 0.42555951E+03</rscale>
<asrwt>0</asrwt>
<pdfrwt beam="1">  1       21 0.10586387E+00 0.42567349E+03</pdfrwt>
<pdfrwt beam="2">  1       21 0.45588925E-01 0.42567349E+03</pdfrwt>
<totfact> 0.28953857E+03</totfact>
</mgrwt>
</event>
<event>
 6    1  0.9502611E-004  0.4012425E+03  0.7818608E-02  0.1043381E+00
         21   -1    0    0  503  502  0.00000000000E+00  0.00000000000E+00  0.26970458090E+03  0.26970458090E+03  0.00000000000E+00 0.  1.
         21   -1    0    0  501  503 -0.00000000000E+00 -0.00000000000E+00 -0.59706197969E+03  0.59706197969E+03  0.00000000000E+00 0.  1.
    9000007    2    1    2  501    0  0.26605051301E+02 -0.23851238802E+01 -0.14942881657E+03  0.42816412336E+03  0.40035237946E+03 0.  0.
    9000005    1    3    3    0    0  0.14511917168E+03 -0.75796510414E+02 -0.21813619321E+03  0.27274362277E+03  0.99999687468E+00 0.  0.
          4    1    3    3  501    0 -0.11851412038E+03  0.73411386534E+02  0.68707376633E+02  0.15542050060E+03  0.00000000000E+00 0.  1.
   -9000007    1    1    2    0  502 -0.26605051301E+02  0.23851238802E+01 -0.17792858221E+03  0.43860243722E+03  0.40000000000E+03 0. -1.
<mgrwt>
<rscale>  2 0.40115457E+03</rscale>
<asrwt>0</asrwt>
<pdfrwt beam="1">  1       21 0.41493013E-01 0.40124250E+03</pdfrwt>
<pdfrwt beam="2">  1       21 0.91855689E-01 0.40124250E+03</pdfrwt>
<totfact> 0.50088719E+03</totfact>
</mgrwt>
</event>
<event>
 6    1  0.9502611E-004  0.4905655E+03  0.7818608E-02  0.1016273E+00
         21   -1    0    0  503  502  0.00000000000E+00  0.00000000000E+00  0.93205288323E+03  0.93205288323E+03  0.00000000000E+00 0. -1.
         21   -1    0    0  501  503 -0.00000000000E+00 -0.00000000000E+00 -0.25996794001E+03  0.25996794001E+03  0.00000000000E+00 0. -1.
    9000007    2    1    2  501    0 -0.18440933758E+03  0.21592359807E+03  0.28669382151E+03  0.56819703347E+03  0.40003089576E+03 0.  0.
    9000005    1    3    3    0    0 -0.19699411372E+03  0.14960691376E+03 -0.25604190257E+02  0.24868752288E+03  0.99999687468E+00 0.  0.
          4    1    3    3  501    0  0.12584776133E+02  0.66316684315E+02  0.31229801176E+03  0.31950951059E+03  0.00000000000E+00 0.  1.
   -9000007    1    1    2    0  502  0.18440933758E+03 -0.21592359807E+03  0.38539112171E+03  0.62382378977E+03  0.40000000000E+03 0. -1.
<mgrwt>
<rscale>  2 0.49055921E+03</rscale>
<asrwt>0</asrwt>
<pdfrwt beam="1">  1       21 0.14339275E+00 0.49056551E+03</pdfrwt>
<pdfrwt beam="2">  1       21 0.39995068E-01 0.49056551E+03</pdfrwt>
<totfact> 0.17053397E+03</totfact>
</mgrwt>
</event>
<event>
 6    1  0.9502611E-004  0.5848605E+03  0.7818608E-02  0.9937354E-01
         21   -1    0    0  503  502  0.00000000000E+00  0.00000000000E+00  0.63479021847E+03  0.63479021847E+03  0.00000000000E+00 0.  1.
         21   -1    0    0  501  503 -0.00000000000E+00 -0.00000000000E+00 -0.54814858000E+03  0.54814858000E+03  0.00000000000E+00 0.  1.
    9000007    2    1    2  501    0  0.41816743295E+03  0.84447553607E+02 -0.33895801795E+02  0.58584193379E+03  0.40008305978E+03 0.  0.
    9000005    1    3    3    0    0  0.64569929422E+01 -0.21427162675E+02  0.12874991790E+03  0.13068418960E+03  0.99999687468E+00 0.  0.
          4    1    3    3  501    0  0.41171044001E+03  0.10587471628E+03 -0.16264571970E+03  0.45515774419E+03  0.00000000000E+00 0.  1.
   -9000007    1    1    2    0  502 -0.41816743295E+03 -0.84447553607E+02  0.12053744027E+03  0.59709686467E+03  0.40000000000E+03 0.  1.
<mgrwt>
<rscale>  2 0.58484633E+03</rscale>
<asrwt>0</asrwt>
<pdfrwt beam="1">  1       21 0.97660033E-01 0.58486054E+03</pdfrwt>
<pdfrwt beam="2">  1       21 0.84330551E-01 0.58486054E+03</pdfrwt>
<totfact> 0.85554474E+02</totfact>
</mgrwt>
</event>
<event>
 6    1  0.9502611E-004  0.4739992E+03  0.7818608E-02  0.1020813E+00
         21   -1    0    0  503  502  0.00000000000E+00  0.00000000000E+00  0.54879249223E+03  0.54879249223E+03  0.00000000000E+00 0. -1.
         21   -1    0    0  501  503 -0.00000000000E+00 -0.00000000000E+00 -0.44240656252E+03  0.44240656252E+03  0.00000000000E+00 0.  1.
    9000007    2    1    2  501    0 -0.25053527107E+03  0.43672592866E+02 -0.82569199961E+02  0.48092534541E+03  0.39974529097E+03 0.  0.
    9000005    1    3    3    0    0 -0.23826838144E+03 -0.92820436251E+02  0.80344194270E+02  0.26803664773E+03  0.99999687468E+00 0.  0.
          4    1    3    3  501    0 -0.12266889627E+02  0.13649302912E+03 -0.16291339423E+03  0.21288869768E+03  0.00000000000E+00 0.  1.
   -9000007    1    1    2    0  502  0.25053527107E+03 -0.43672592866E+02  0.18895512967E+03  0.51027370934E+03  0.40000000000E+03 0.  1.
<mgrwt>
<rscale>  2 0.47394543E+03</rscale>
<asrwt>0</asrwt>
<pdfrwt beam="1">  1       21 0.84429613E-01 0.47399917E+03</pdfrwt>
<pdfrwt beam="2">  1       21 0.68062549E-01 0.47399917E+03</pdfrwt>
<totfact> 0.20540314E+03</totfact>
</mgrwt>
</event>
<event>
 6    1  0.9502611E-004  0.6334272E+03  0.7818608E-02  0.9838910E-01
         21   -1    0    0  503  502  0.00000000000E+00  0.00000000000E+00  0.23656183381E+04  0.23656183381E+04  0.00000000000E+00 0. -1.
         21   -1    0    0  501  503 -0.00000000000E+00 -0.00000000000E+00 -0.37722219291E+03  0.37722219291E+03  0.00000000000E+00 0. -1.
    9000007    2    1    2  501    0 -0.28269224714E+03 -0.40164050023E+03 -0.24314592303E+02  0.63280865665E+03  0.39827829279E+03 0.  0.
    9000005    1    3    3    0    0 -0.37962997446E+03 -0.35661991517E+03  0.87280060949E+01  0.52093556174E+03  0.99999687468E+00 0.  0.
          4    1    3    3  501    0  0.96937727311E+02 -0.45020585063E+02 -0.33042598398E+02  0.11187309491E+03  0.00000000000E+00 0.  1.
   -9000007    1    1    2    0  502  0.28269224714E+03  0.40164050023E+03  0.20127107375E+04  0.21100318744E+04  0.40000000000E+03 0. -1.
<mgrwt>
<rscale>  2 0.63315555E+03</rscale>
<asrwt>0</asrwt>
<pdfrwt beam="1">  1       21 0.36394127E+00 0.63342718E+03</pdfrwt>
<pdfrwt beam="2">  1       21 0.58034185E-01 0.63342718E+03</pdfrwt>
<totfact> 0.26626198E+01</totfact>
</mgrwt>
</event>
<event>
 6    1  0.9502611E-004  0.5575544E+03  0.7818608E-02  0.9997774E-01
         21   -1    0    0  503  502  0.00000000000E+00  0.00000000000E+00  0.13243827341E+04  0.13243827341E+04  0.00000000000E+00 0.  1.
         21   -1    0    0  501  503 -0.00000000000E+00 -0.00000000000E+00 -0.24897430930E+03  0.24897430930E+03  0.00000000000E+00 0. -1.
    9000007    2    1    2  501    0  0.21217725671E+03  0.32482998514E+03  0.72686197840E+03  0.91607602830E+03  0.40041634143E+03 0.  0.
    9000005    1    3    3    0    0  0.31245098485E+03  0.16983420124E+03  0.36361449214E+03  0.50861161286E+03  0.99999687468E+00 0.  0.
          4    1    3    3  501    0 -0.10027372814E+03  0.15499578389E+03  0.36324748625E+03  0.40746441544E+03  0.00000000000E+00 0.  1.
   -9000007    1    1    2    0  502 -0.21217725671E+03 -0.32482998514E+03  0.34854644638E+03  0.65728101509E+03  0.40000000000E+03 0. -1.
<mgrwt>
<rscale>  2 0.55747969E+03</rscale>
<asrwt>0</asrwt>
<pdfrwt beam="1">  1       21 0.20375119E+00 0.55755444E+03</pdfrwt>
<pdfrwt beam="2">  1       21 0.38303741E-01 0.55755444E+03</pdfrwt>
<totfact> 0.66023826E+02</totfact>
</mgrwt>
</event>
<event>
 6    1  0.9502611E-004  0.4336891E+03  0.7818608E-02  0.1032760E+00
         21   -1    0    0  503  502  0.00000000000E+00  0.00000000000E+00  0.24536477376E+03  0.24536477376E+03  0.00000000000E+00 0. -1.
         21   -1    0    0  501  503 -0.00000000000E+00 -0.00000000000E+00 -0.76798024566E+03  0.76798024566E+03  0.00000000000E+00 0. -1.
    9000007    2    1    2  501    0  0.16038266906E+03 -0.48617229509E+02 -0.29147122031E+03  0.52190438151E+03  0.39917724839E+03 0.  0.
    9000005    1    3    3    0    0 -0.34181620610E+02  0.51247615199E+02  0.73819759518E+02  0.96151225370E+02  0.99999687468E+00 0.  0.
          4    1    3    3  501    0  0.19456428967E+03 -0.99864844708E+02 -0.36529097983E+03  0.42575315614E+03  0.00000000000E+00 0.  1.
   -9000007    1    1    2    0  502 -0.16038266906E+03  0.48617229509E+02 -0.23114425159E+03  0.49144063791E+03  0.40000000000E+03 0.  1.
<mgrwt>
<rscale>  2 0.43349929E+03</rscale>
<asrwt>0</asrwt>
<pdfrwt beam="1">  1       21 0.37748427E-01 0.43368910E+03</pdfrwt>
<pdfrwt beam="2">  1       21 0.11815081E+00 0.43368910E+03</pdfrwt>
<totfact> 0.32465377E+03</totfact>
</mgrwt>
</event>
<event>
 6    1  0.9502611E-004  0.4776485E+03  0.7818608E-02  0.1019813E+00
         21   -1    0    0  503  502  0.00000000000E+00  0.00000000000E+00  0.17088999264E+04  0.17088999264E+04  0.00000000000E+00 0.  1.
         21   -1    0    0  501  503 -0.00000000000E+00 -0.00000000000E+00 -0.33204147402E+03  0.33204147402E+03  0.00000000000E+00 0.  1.
    9000007    2    1    2  501    0  0.12142740566E+02 -0.26076927882E+03 -0.10101365667E+03  0.48779812511E+03  0.39949366591E+03 0.  0.
    9000005    1    3    3    0    0  0.17319972965E+02 -0.20801192734E+03  0.13323126989E+03  0.24762979354E+03  0.99999687468E+00 0.  0.
          4    1    3    3  501    0 -0.51772323988E+01 -0.52757351478E+02 -0.23424492656E+03  0.24016833157E+03  0.00000000000E+00 0.  1.
   -9000007    1    1    2    0  502 -0.12142740566E+02  0.26076927882E+03  0.14778721091E+04  0.15531432753E+04  0.40000000000E+03 0.  1.
<mgrwt>
<rscale>  2 0.47754245E+03</rscale>
<asrwt>0</asrwt>
<pdfrwt beam="1">  1       21 0.26290768E+00 0.47764847E+03</pdfrwt>
<pdfrwt beam="2">  1       21 0.51083305E-01 0.47764847E+03</pdfrwt>
<totfact> 0.15822759E+02</totfact>
</mgrwt>
</event>
<event>
 6    1  0.9502611E-004  0.4673163E+03  0.7818608E-02  0.1022988E+00
         21   -1    0    0  503  502  0.00000000000E+00  0.00000000000E+00  0.12273795766E+04  0.12273795766E+04  0.00000000000E+00 0.  1.
         21   -1    0    0  501  503 -0.00000000000E+00 -0.00000000000E+00 -0.23538945487E+03  0.23538945487E+03  0.00000000000E+00 0.  1.
    9000007    2    1    2  501    0  0.34068854677E+02 -0.23921501977E+03  0.12780374025E+03  0.48032177361E+03  0.39495657690E+03 0.  0.
    9000005    1    3    3    0    0 -0.14990221656E+03  0.59725270710E+01  0.80196661734E+02  0.17011422679E+03  0.99999687468E+00 0.  0.
          4    1    3    3  501    0  0.18397107124E+03 -0.24518754684E+03  0.47607078514E+02  0.31020754682E+03  0.00000000000E+00 0.  1.
   -9000007    1    1    2    0  502 -0.34068854677E+02  0.23921501977E+03  0.86418638151E+03  0.98244725788E+03  0.40000000000E+03 0.  1.
<mgrwt>
<rscale>  2 0.46623515E+03</rscale>
<asrwt>0</asrwt>
<pdfrwt beam="1">  1       21 0.18882762E+00 0.46731629E+03</pdfrwt>
<pdfrwt beam="2">  1       21 0.36213763E-01 0.46731629E+03</pdfrwt>
<totfact> 0.96935541E+02</totfact>
</mgrwt>
</event>
<event>
 6    1  0.9502611E-004  0.4355137E+03  0.7818608E-02  0.1032140E+00
         21   -1    0    0  503  502  0.00000000000E+00  0.00000000000E+00  0.64315020345E+03  0.64315020345E+03  0.00000000000E+00 0. -1.
         21   -1    0    0  501  503 -0.00000000000E+00 -0.00000000000E+00 -0.36704334682E+03  0.36704334682E+03  0.00000000000E+00 0. -1.
    9000007    2    1    2  501    0  0.94415640994E+02  0.14376412279E+03 -0.85955342287E+02  0.44391493320E+03  0.40011212277E+03 0.  0.
    9000005    1    3    3    0    0  0.11898874784E+03 -0.11579423772E+03 -0.77055273407E+02  0.18304410057E+03  0.99999687468E+00 0.  0.
          4    1    3    3  501    0 -0.24573106848E+02  0.25955836051E+03 -0.89000688801E+01  0.26087083263E+03  0.00000000000E+00 0.  1.
   -9000007    1    1    2    0  502 -0.94415640994E+02 -0.14376412279E+03  0.36206219892E+03  0.56627861707E+03  0.40000000000E+03 0. -1.
<mgrwt>
<rscale>  2 0.43548790E+03</rscale>
<asrwt>0</asrwt>
<pdfrwt beam="1">  1       21 0.98946185E-01 0.43551366E+03</pdfrwt>
<pdfrwt beam="2">  1       21 0.56468207E-01 0.43551366E+03</pdfrwt>
<totfact> 0.21567041E+03</totfact>
</mgrwt>
</event>
<event>
 6    1  0.9502611E-004  0.4187250E+03  0.7818608E-02  0.1037613E+00
         21   -1    0    0  503  502  0.00000000000E+00  0.00000000000E+00  0.73763447277E+03  0.73763447277E+03  0.00000000000E+00 0.  1.
         21   -1    0    0  501  503 -0.00000000000E+00 -0.00000000000E+00 -0.24144125029E+03  0.24144125029E+03  0.00000000000E+00 0.  1.
    9000007    2    1    2  501    0  0.33832935086E+01 -0.12377066727E+03  0.31560611286E+03  0.52306878352E+03  0.39832538090E+03 0.  0.
    9000005    1    3    3    0    0  0.17616167882E+03  0.31646081180E+02  0.94965508579E+02  0.20261751985E+03  0.99999687468E+00 0.  0.
          4    1    3    3  501    0 -0.17277838531E+03 -0.15541674845E+03  0.22064060428E+03  0.32045126366E+03  0.00000000000E+00 0.  1.
   -9000007    1    1    2    0  502 -0.33832935086E+01  0.12377066727E+03  0.18058710962E+03  0.45600693954E+03  0.40000000000E+03 0.  1.
<mgrwt>
<rscale>  2 0.41832457E+03</rscale>
<asrwt>0</asrwt>
<pdfrwt beam="1">  1       21 0.11348223E+00 0.41872500E+03</pdfrwt>
<pdfrwt beam="2">  1       21 0.37144808E-01 0.41872500E+03</pdfrwt>
<totfact> 0.37316701E+03</totfact>
</mgrwt>
</event>
<event>
 6    1  0.9502611E-004  0.5953738E+03  0.7818608E-02  0.9915097E-01
         21   -1    0    0  503  502  0.00000000000E+00  0.00000000000E+00  0.72776894457E+03  0.72776894457E+03  0.00000000000E+00 0. -1.
         21   -1    0    0  501  503 -0.00000000000E+00 -0.00000000000E+00 -0.63800108197E+03  0.63800108197E+03  0.00000000000E+00 0.  1.
    9000007    2    1    2  501    0 -0.37677698059E+03  0.22892146114E+03 -0.28734282731E+03  0.66108683466E+03  0.40012994650E+03 0.  0.
    9000005    1    3    3    0    0 -0.20034899657E+03 -0.73976207792E+02 -0.94812604681E+01  0.21378281980E+03  0.99999687468E+00 0.  0.
          4    1    3    3  501    0 -0.17642798402E+03  0.30289766894E+03 -0.27786156684E+03  0.44730401487E+03  0.00000000000E+00 0.  1.
   -9000007    1    1    2    0  502  0.37677698059E+03 -0.22892146114E+03  0.37711068990E+03  0.70468319187E+03  0.40000000000E+03 0. -1.
<mgrwt>
<rscale>  2 0.59535192E+03</rscale>
<asrwt>0</asrwt>
<pdfrwt beam="1">  1       21 0.11196445E+00 0.59537375E+03</pdfrwt>
<pdfrwt beam="2">  1       21 0.98154012E-01 0.59537375E+03</pdfrwt>
<totfact> 0.42291524E+02</totfact>
</mgrwt>
</event>
<event>
 6    1  0.9502611E-004  0.7080701E+03  0.7818608E-02  0.9703619E-01
         21   -1    0    0  503  502  0.00000000000E+00  0.00000000000E+00  0.51157409836E+03  0.51157409836E+03  0.00000000000E+00 0. -1.
         21   -1    0    0  501  503 -0.00000000000E+00 -0.00000000000E+00 -0.24409891282E+04  0.24409891282E+04  0.00000000000E+00 0.  1.
    9000007    2    1    2  501    0  0.56124285086E+03  0.16238766756E+03 -0.21068631180E+04  0.22225967094E+04  0.39962562759E+03 0.  0.
    9000005    1    3    3    0    0  0.16369029488E+03  0.20971815831E+03 -0.12331728519E+04  0.12615436977E+04  0.99999687468E+00 0.  0.
          4    1    3    3  501    0  0.39755255598E+03 -0.47330490744E+02 -0.87369026610E+03  0.96105301165E+03  0.00000000000E+00 0.  1.
   -9000007    1    1    2    0  502 -0.56124285086E+03 -0.16238766756E+03  0.17744808818E+03  0.72996651719E+03  0.40000000000E+03 0. -1.
<mgrwt>
<rscale>  2 0.70801726E+03</rscale>
<asrwt>0</asrwt>
<pdfrwt beam="1">  1       21 0.78703706E-01 0.70807012E+03</pdfrwt>
<pdfrwt beam="2">  1       21 0.37553680E+00 0.70807012E+03</pdfrwt>
<totfact> 0.10890197E+01</totfact>
</mgrwt>
</event>
<event>
 6    1  0.9502611E-004  0.4466585E+03  0.7818608E-02  0.1028737E+00
         21   -1    0    0  503  502  0.00000000000E+00  0.00000000000E+00  0.27787935023E+03  0.27787935023E+03  0.00000000000E+00 0. -1.
         21   -1    0    0  501  503 -0.00000000000E+00 -0.00000000000E+00 -0.81443737118E+03  0.81443737118E+03  0.00000000000E+00 0. -1.
    9000007    2    1    2  501    0 -0.19861856834E+03 -0.73805309931E+01 -0.79957521132E+02  0.45357747543E+03  0.39979433851E+03 0.  0.
    9000005    1    3    3    0    0  0.11884319380E+03 -0.41514925272E+02 -0.71651930428E+01  0.12609335319E+03  0.99999687468E+00 0.  0.
          4    1    3    3  501    0 -0.31746176214E+03  0.34134394279E+02 -0.72792328090E+02  0.32748412224E+03  0.00000000000E+00 0.  1.
   -9000007    1    1    2    0  502  0.19861856834E+03  0.73805309931E+01 -0.45660049982E+03  0.63873924598E+03  0.40000000000E+03 0. -1.
<mgrwt>
<rscale>  2 0.44661244E+03</rscale>
<asrwt>0</asrwt>
<pdfrwt beam="1">  1       21 0.42750669E-01 0.44665849E+03</pdfrwt>
<pdfrwt beam="2">  1       21 0.12529806E+00 0.44665849E+03</pdfrwt>
<totfact> 0.21518003E+03</totfact>
</mgrwt>
</event>
<event>
 6    1  0.9502611E-004  0.4218528E+03  0.7818608E-02  0.1036548E+00
         21   -1    0    0  503  502  0.00000000000E+00  0.00000000000E+00  0.54028875198E+03  0.54028875198E+03  0.00000000000E+00 0. -1.
         21   -1    0    0  501  503 -0.00000000000E+00 -0.00000000000E+00 -0.38393165529E+03  0.38393165529E+03  0.00000000000E+00 0. -1.
    9000007    2    1    2  501    0  0.89593073771E+02  0.95236204367E+02 -0.97202430756E+02  0.43290656923E+03  0.40107721407E+03 0.  0.
    9000005    1    3    3    0    0  0.33543635883E+02  0.65208780816E+02  0.15571385207E+03  0.17211962214E+03  0.99999687468E+00 0.  0.
          4    1    3    3  501    0  0.56049437887E+02  0.30027423551E+02 -0.25291628283E+03  0.26078694709E+03  0.00000000000E+00 0.  1.
   -9000007    1    1    2    0  502 -0.89593073771E+02 -0.95236204367E+02  0.25355952744E+03  0.49131383804E+03  0.40000000000E+03 0. -1.
<mgrwt>
<rscale>  2 0.42159656E+03</rscale>
<asrwt>0</asrwt>
<pdfrwt beam="1">  1       21 0.83121347E-01 0.42185280E+03</pdfrwt>
<pdfrwt beam="2">  1       21 0.59066408E-01 0.42185280E+03</pdfrwt>
<totfact> 0.29712941E+03</totfact>
</mgrwt>
</event>
<event>
 6    1  0.9502611E-004  0.4225225E+03  0.7818608E-02  0.1036640E+00
         21   -1    0    0  503  502  0.00000000000E+00  0.00000000000E+00  0.97155987266E+03  0.97155987266E+03  0.00000000000E+00 0. -1.
         21   -1    0    0  501  503 -0.00000000000E+00 -0.00000000000E+00 -0.19354468203E+03  0.19354468203E+03  0.00000000000E+00 0. -1.
    9000007    2    1    2  501    0  0.86771283896E+02  0.10486191363E+03  0.24256468419E+03  0.48302499813E+03  0.39490536356E+03 0.  0.
    9000005    1    3    3    0    0  0.22867429748E+03  0.11219379486E+02  0.66822877380E+02  0.23850389040E+03  0.99999687468E+00 0.  0.
          4    1    3    3  501    0 -0.14190301358E+03  0.93642534148E+02  0.17574180681E+03  0.24452110773E+03  0.00000000000E+00 0.  1.
   -9000007    1    1    2    0  502 -0.86771283896E+02 -0.10486191363E+03  0.53545050644E+03  0.68207955656E+03  0.40000000000E+03 0. -1.
<mgrwt>
<rscale>  2 0.42131237E+03</rscale>
<asrwt>0</asrwt>
<pdfrwt beam="1">  1       21 0.14947075E+00 0.42252252E+03</pdfrwt>
<pdfrwt beam="2">  1       21 0.29776106E-01 0.42252252E+03</pdfrwt>
<totfact> 0.28418800E+03</totfact>
</mgrwt>
</event>
<event>
 6    1  0.9502611E-004  0.4226952E+03  0.7818608E-02  0.1036803E+00
         21   -1    0    0  503  502  0.00000000000E+00  0.00000000000E+00  0.10238903643E+04  0.10238903643E+04  0.00000000000E+00 0. -1.
         21   -1    0    0  501  503 -0.00000000000E+00 -0.00000000000E+00 -0.32375568402E+03  0.32375568402E+03  0.00000000000E+00 0. -1.
    9000007    2    1    2  501    0  0.10080453988E+03  0.47278905274E+02 -0.11046790587E+03  0.43689174401E+03  0.40776756567E+03 0.  0.
    9000005    1    3    3    0    0 -0.74547939515E+02 -0.12959631547E+03 -0.11365584492E+03  0.18780641988E+03  0.99999687468E+00 0.  0.
          4    1    3    3  501    0  0.17535247940E+03  0.17687522074E+03  0.31879390442E+01  0.24908532414E+03  0.00000000000E+00 0.  1.
   -9000007    1    1    2    0  502 -0.10080453988E+03 -0.47278905274E+02  0.81060258618E+03  0.91075430434E+03  0.40000000000E+03 0. -1.
<mgrwt>
<rscale>  2 0.42081059E+03</rscale>
<asrwt>0</asrwt>
<pdfrwt beam="1">  1       21 0.15752159E+00 0.42269521E+03</pdfrwt>
<pdfrwt beam="2">  1       21 0.49808567E-01 0.42269521E+03</pdfrwt>
<totfact> 0.85812069E+02</totfact>
</mgrwt>
</event>
<event>
 6    1  0.9502611E-004  0.6396564E+03  0.7818608E-02  0.9826389E-01
         21   -1    0    0  503  502  0.00000000000E+00  0.00000000000E+00  0.27208364423E+03  0.27208364423E+03  0.00000000000E+00 0.  1.
         21   -1    0    0  501  503 -0.00000000000E+00 -0.00000000000E+00 -0.26152675395E+04  0.26152675395E+04  0.00000000000E+00 0. -1.
    9000007    2    1    2  501    0 -0.49133822852E+03 -0.88016998031E+02 -0.21127476566E+04  0.22074533187E+04  0.39998405871E+03 0.  0.
    9000005    1    3    3    0    0 -0.23784686179E+03 -0.10167766725E+03 -0.17230841924E+04  0.17423919226E+04  0.99999687468E+00 0.  0.
          4    1    3    3  501    0 -0.25349136673E+03  0.13660669216E+02 -0.38966346415E+03  0.46506139615E+03  0.00000000000E+00 0.  1.
   -9000007    1    1    2    0  502  0.49133822852E+03  0.88016998031E+02 -0.23043623872E+03  0.67989786502E+03  0.40000000000E+03 0.  1.
<mgrwt>
<rscale>  2 0.63965386E+03</rscale>
<asrwt>0</asrwt>
<pdfrwt beam="1">  1       21 0.41859023E-01 0.63965635E+03</pdfrwt>
<pdfrwt beam="2">  1       21 0.40234885E+00 0.63965635E+03</pdfrwt>
<totfact> 0.30359952E+01</totfact>
</mgrwt>
</event>
<event>
 6    1  0.9502611E-004  0.4247663E+03  0.7818608E-02  0.1035581E+00
         21   -1    0    0  503  502  0.00000000000E+00  0.00000000000E+00  0.82980064167E+03  0.82980064167E+03  0.00000000000E+00 0. -1.
         21   -1    0    0  501  503 -0.00000000000E+00 -0.00000000000E+00 -0.21761337723E+03  0.21761337723E+03  0.00000000000E+00 0. -1.
    9000007    2    1    2  501    0 -0.88549477522E+01 -0.14264646291E+03  0.33169426270E+03  0.53839265638E+03  0.39927327115E+03 0.  0.
    9000005    1    3    3    0    0 -0.54233582621E+02 -0.12271302690E+02 -0.83794886916E+02  0.10057061907E+03  0.99999687468E+00 0.  0.
          4    1    3    3  501    0  0.45378634869E+02 -0.13037516022E+03  0.41548914961E+03  0.43782203731E+03  0.00000000000E+00 0.  1.
   -9000007    1    1    2    0  502  0.88549477522E+01  0.14264646291E+03  0.28049300174E+03  0.50902136252E+03  0.40000000000E+03 0.  1.
<mgrwt>
<rscale>  2 0.42459514E+03</rscale>
<asrwt>0</asrwt>
<pdfrwt beam="1">  1       21 0.12766164E+00 0.42476632E+03</pdfrwt>
<pdfrwt beam="2">  1       21 0.33478982E-01 0.42476632E+03</pdfrwt>
<totfact> 0.34079567E+03</totfact>
</mgrwt>
</event>
<event>
 6    1  0.9502611E-004  0.4659863E+03  0.7818608E-02  0.1023060E+00
         21   -1    0    0  503  502  0.00000000000E+00  0.00000000000E+00  0.72748568482E+03  0.72748568482E+03  0.00000000000E+00 0.  1.
         21   -1    0    0  501  503 -0.00000000000E+00 -0.00000000000E+00 -0.51913974607E+03  0.51913974607E+03  0.00000000000E+00 0. -1.
    9000007    2    1    2  501    0 -0.14970543771E+03  0.18636381750E+03 -0.30220439380E+03  0.55539114889E+03  0.39998580235E+03 0.  0.
    9000005    1    3    3    0    0 -0.17844446555E+03  0.29959727777E+03 -0.23664213376E+03  0.42142787710E+03  0.99999687468E+00 0.  0.
          4    1    3    3  501    0  0.28739027844E+02 -0.11323346027E+03 -0.65562260038E+02  0.13396327179E+03  0.00000000000E+00 0.  1.
   -9000007    1    1    2    0  502  0.14970543771E+03 -0.18636381750E+03  0.51055033255E+03  0.69123428201E+03  0.40000000000E+03 0.  1.
<mgrwt>
<rscale>  2 0.46598321E+03</rscale>
<asrwt>0</asrwt>
<pdfrwt beam="1">  1       21 0.11192087E+00 0.46598626E+03</pdfrwt>
<pdfrwt beam="2">  1       21 0.79867653E-01 0.46598626E+03</pdfrwt>
<totfact> 0.72450911E+02</totfact>
</mgrwt>
</event>
<event>
 6    1  0.9502611E-004  0.4418129E+03  0.7818608E-02  0.1030207E+00
         21   -1    0    0  503  502  0.00000000000E+00  0.00000000000E+00  0.49014082315E+03  0.49014082315E+03  0.00000000000E+00 0. -1.
         21   -1    0    0  501  503 -0.00000000000E+00 -0.00000000000E+00 -0.73706384174E+03  0.73706384174E+03  0.00000000000E+00 0. -1.
    9000007    2    1    2  501    0 -0.18710008420E+03 -0.39999986438E+01 -0.53960761223E+03  0.69740591740E+03  0.40022018558E+03 0.  0.
    9000005    1    3    3    0    0 -0.14898572053E+03  0.98417016933E+02 -0.55863884943E+03  0.58648189932E+03  0.99999687468E+00 0.  0.
          4    1    3    3  501    0 -0.38114363669E+02 -0.10241701558E+03  0.19031237197E+02  0.11092401808E+03  0.00000000000E+00 0.  1.
   -9000007    1    1    2    0  502  0.18710008420E+03  0.39999986438E+01  0.29268459364E+03  0.52979874750E+03  0.40000000000E+03 0. -1.
<mgrwt>
<rscale>  2 0.44176303E+03</rscale>
<asrwt>0</asrwt>
<pdfrwt beam="1">  1       21 0.75406280E-01 0.44181290E+03</pdfrwt>
<pdfrwt beam="2">  1       21 0.11339444E+00 0.44181290E+03</pdfrwt>
<totfact> 0.80853658E+02</totfact>
</mgrwt>
</event>
<event>
 6    1  0.9502611E-004  0.4901864E+03  0.7818608E-02  0.1016373E+00
         21   -1    0    0  503  502  0.00000000000E+00  0.00000000000E+00  0.18737125295E+03  0.18737125295E+03  0.00000000000E+00 0. -1.
         21   -1    0    0  501  503 -0.00000000000E+00 -0.00000000000E+00 -0.12922894181E+04  0.12922894181E+04  0.00000000000E+00 0.  1.
    9000007    2    1    2  501    0  0.24172777998E+02 -0.28230464545E+03 -0.48768111839E+03  0.69145904207E+03  0.40000312197E+03 0.  0.
    9000005    1    3    3    0    0 -0.29635280410E+02  0.90597416182E+02 -0.32807048552E+02  0.10081390823E+03  0.99999687468E+00 0.  0.
          4    1    3    3  501    0  0.53808058407E+02 -0.37290206163E+03 -0.45487406984E+03  0.59064513384E+03  0.00000000000E+00 0.  1.
   -9000007    1    1    2    0  502 -0.24172777998E+02  0.28230464545E+03 -0.61723704674E+03  0.78820162897E+03  0.40000000000E+03 0. -1.
<mgrwt>
<rscale>  2 0.49018579E+03</rscale>
<asrwt>0</asrwt>
<pdfrwt beam="1">  1       21 0.28826346E-01 0.49018643E+03</pdfrwt>
<pdfrwt beam="2">  1       21 0.19881376E+00 0.49018643E+03</pdfrwt>
<totfact> 0.12980339E+03</totfact>
</mgrwt>
</event>
<event>
 6    1  0.9502611E-004  0.5624526E+03  0.7818608E-02  0.9986703E-01
         21   -1    0    0  503  502  0.00000000000E+00  0.00000000000E+00  0.55121674766E+03  0.55121674766E+03  0.00000000000E+00 0. -1.
         21   -1    0    0  501  503 -0.00000000000E+00 -0.00000000000E+00 -0.99312853136E+03  0.99312853136E+03  0.00000000000E+00 0.  1.
    9000007    2    1    2  501    0 -0.28325144154E+01  0.39494252499E+03 -0.72287247074E+03  0.91591347775E+03  0.40045632545E+03 0.  0.
    9000005    1    3    3    0    0  0.97456786213E+02  0.17524225817E+03 -0.58308062947E+02  0.20882649359E+03  0.99999687468E+00 0.  0.
          4    1    3    3  501    0 -0.10028930063E+03  0.21970026682E+03 -0.66456440779E+03  0.70708698416E+03  0.00000000000E+00 0.  1.
   -9000007    1    1    2    0  502  0.28325144154E+01 -0.39494252499E+03  0.28096068704E+03  0.62843180127E+03  0.40000000000E+03 0. -1.
<mgrwt>
<rscale>  2 0.56237135E+03</rscale>
<asrwt>0</asrwt>
<pdfrwt beam="1">  1       21 0.84802577E-01 0.56245257E+03</pdfrwt>
<pdfrwt beam="2">  1       21 0.15278900E+00 0.56245257E+03</pdfrwt>
<totfact> 0.26849665E+02</totfact>
</mgrwt>
</event>
<event>
 6    1  0.9502611E-004  0.4587481E+03  0.7818608E-02  0.1025167E+00
         21   -1    0    0  503  502  0.00000000000E+00  0.00000000000E+00  0.84117332699E+03  0.84117332699E+03  0.00000000000E+00 0. -1.
         21   -1    0    0  501  503 -0.00000000000E+00 -0.00000000000E+00 -0.39839544174E+03  0.39839544174E+03  0.00000000000E+00 0. -1.
    9000007    2    1    2  501    0 -0.64755353995E+01 -0.22451708535E+03  0.59957640400E+03  0.75476403520E+03  0.39965864238E+03 0.  0.
    9000005    1    3    3    0    0 -0.42929159749E+02 -0.20834781842E+03  0.65375327983E+03  0.68749260147E+03  0.99999687468E+00 0.  0.
          4    1    3    3  501    0  0.36453624350E+02 -0.16169266931E+02 -0.54176875832E+02  0.67271433731E+02  0.00000000000E+00 0.  1.
   -9000007    1    1    2    0  502  0.64755353995E+01  0.22451708535E+03 -0.15679851875E+03  0.48480473353E+03  0.40000000000E+03 0. -1.
<mgrwt>
<rscale>  2 0.45867372E+03</rscale>
<asrwt>0</asrwt>
<pdfrwt beam="1">  1       21 0.12941128E+00 0.45874814E+03</pdfrwt>
<pdfrwt beam="2">  1       21 0.61291607E-01 0.45874814E+03</pdfrwt>
<totfact> 0.91232182E+02</totfact>
</mgrwt>
</event>
<event>
 6    1  0.9502611E-004  0.4085469E+03  0.7818608E-02  0.1041695E+00
         21   -1    0    0  503  502  0.00000000000E+00  0.00000000000E+00  0.16863498600E+04  0.16863498600E+04  0.00000000000E+00 0. -1.
         21   -1    0    0  501  503 -0.00000000000E+00 -0.00000000000E+00 -0.10588250282E+03  0.10588250282E+03  0.00000000000E+00 0. -1.
    9000007    2    1    2  501    0 -0.48501311120E+02  0.67514417381E+02  0.51646786115E+03  0.65249313770E+03  0.38999701205E+03 0.  0.
    9000005    1    3    3    0    0 -0.15283852507E+03  0.35279638113E+01  0.36518914213E+02  0.15718362626E+03  0.99999687468E+00 0.  0.
          4    1    3    3  501    0  0.10433721395E+03  0.63986453570E+02  0.47994894694E+03  0.49530951144E+03  0.00000000000E+00 0.  1.
   -9000007    1    1    2    0  502  0.48501311120E+02 -0.67514417381E+02  0.10639994961E+04  0.11397392252E+04  0.40000000000E+03 0. -1.
<mgrwt>
<rscale>  2 0.40607747E+03</rscale>
<asrwt>0</asrwt>
<pdfrwt beam="1">  1       21 0.25943842E+00 0.40854691E+03</pdfrwt>
<pdfrwt beam="2">  1       21 0.16289617E-01 0.40854691E+03</pdfrwt>
<totfact> 0.16666862E+03</totfact>
</mgrwt>
</event>
<event>
 6    1  0.9502611E-004  0.5366225E+03  0.7818608E-02  0.1005156E+00
         21   -1    0    0  503  502  0.00000000000E+00  0.00000000000E+00  0.35466571270E+03  0.35466571270E+03  0.00000000000E+00 0. -1.
         21   -1    0    0  501  503 -0.00000000000E+00 -0.00000000000E+00 -0.11797240887E+04  0.11797240887E+04  0.00000000000E+00 0.  1.
    9000007    2    1    2  501    0 -0.15754635216E+03  0.32115854544E+03 -0.84611438680E+03  0.99735440225E+03  0.38838458225E+03 0.  0.
    9000005    1    3    3    0    0 -0.26188572235E+03  0.94403902451E+02 -0.45136423221E+03  0.53030830512E+03  0.99999687468E+00 0.  0.
          4    1    3    3  501    0  0.10433937018E+03  0.22675464299E+03 -0.39475015460E+03  0.46704609713E+03  0.00000000000E+00 0.  1.
   -9000007    1    1    2    0  502  0.15754635216E+03 -0.32115854544E+03  0.21056010770E+02  0.53703539919E+03  0.40000000000E+03 0. -1.
<mgrwt>
<rscale>  2 0.53445906E+03</rscale>
<asrwt>0</asrwt>
<pdfrwt beam="1">  1       21 0.54563956E-01 0.53662246E+03</pdfrwt>
<pdfrwt beam="2">  1       21 0.18149601E+00 0.53662246E+03</pdfrwt>
<totfact> 0.44843081E+02</totfact>
</mgrwt>
</event>
<event>
 6    1  0.9502611E-004  0.5424546E+03  0.7818608E-02  0.1003282E+00
         21   -1    0    0  503  502  0.00000000000E+00  0.00000000000E+00  0.52590472943E+03  0.52590472943E+03  0.00000000000E+00 0. -1.
         21   -1    0    0  501  503 -0.00000000000E+00 -0.00000000000E+00 -0.66532268811E+03  0.66532268811E+03  0.00000000000E+00 0. -1.
    9000007    2    1    2  501    0 -0.33180917949E+03  0.15543363161E+03  0.16834491132E+03  0.56754887086E+03  0.39939299721E+03 0.  0.
    9000005    1    3    3    0    0 -0.18284890649E+03  0.28737612715E+03  0.13180673310E+03  0.36522975775E+03  0.99999687468E+00 0.  0.
          4    1    3    3  501    0 -0.14896027300E+03 -0.13194249555E+03  0.36538178222E+02  0.20231911312E+03  0.00000000000E+00 0.  1.
   -9000007    1    1    2    0  502  0.33180917949E+03 -0.15543363161E+03 -0.30776287000E+03  0.62367854667E+03  0.40000000000E+03 0. -1.
<mgrwt>
<rscale>  2 0.54234266E+03</rscale>
<asrwt>0</asrwt>
<pdfrwt beam="1">  1       21 0.80908420E-01 0.54245456E+03</pdfrwt>
<pdfrwt beam="2">  1       21 0.10235734E+00 0.54245456E+03</pdfrwt>
<totfact> 0.85219423E+02</totfact>
</mgrwt>
</event>
