<event>
 4    1  0.4675559E-002  0.5600713E+03  0.7818608E-02  0.9991893E-01
         21   -1    0    0  501  502  0.00000000000E+00  0.00000000000E+00  0.34866449314E+03  0.34866449314E+03  0.00000000000E+00 0.  1.
         21   -1    0    0  502  503 -0.00000000000E+00 -0.00000000000E+00 -0.10245816735E+04  0.10245816735E+04  0.00000000000E+00 0.  1.
    9000007    1    1    2  501    0 -0.37515658036E+03  0.11374270350E+03 -0.98206618408E+02  0.56861621704E+03  0.40000000000E+03 0.  1.
   -9000007    1    1    2    0  503  0.37515658036E+03 -0.11374270350E+03 -0.57771056193E+03  0.80462994957E+03  0.40000000000E+03 0.  1.
<mgrwt>
<rscale>  2 0.56007130E+03</rscale>
<asrwt>0</asrwt>
<pdfrwt beam="1">  1       21 0.53640692E-01 0.56007130E+03</pdfrwt>
<pdfrwt beam="2">  1       21 0.15762795E+00 0.56007130E+03</pdfrwt>
<totfact> 0.69096560E+02</totfact>
</mgrwt>
</event>
<event>
 4    1  0.4675559E-002  0.5110258E+03  0.7818608E-02  0.1010940E+00
         21   -1    0    0  503  502  0.00000000000E+00  0.00000000000E+00  0.23200920821E+03  0.23200920821E+03  0.00000000000E+00 0.  1.
         21   -1    0    0  501  503 -0.00000000000E+00 -0.00000000000E+00 -0.12162106978E+04  0.12162106978E+04  0.00000000000E+00 0.  1.
    9000007    1    1    2  501    0  0.28030205516E+03 -0.15026004272E+03 -0.68975811096E+03  0.85843670367E+03  0.40000000000E+03 0.  1.
   -9000007    1    1    2    0  502 -0.28030205516E+03  0.15026004272E+03 -0.29444337865E+03  0.58978320237E+03  0.40000000000E+03 0.  1.
<mgrwt>
<rscale>  2 0.51102576E+03</rscale>
<asrwt>0</asrwt>
<pdfrwt beam="1">  1       21 0.35693724E-01 0.51102576E+03</pdfrwt>
<pdfrwt beam="2">  1       21 0.18710934E+00 0.51102576E+03</pdfrwt>
<totfact> 0.10075196E+03</totfact>
</mgrwt>
</event>
<event>
 4    1  0.4675559E-002  0.4605588E+03  0.7818608E-02  0.1024619E+00
         21   -1    0    0  503  502  0.00000000000E+00  0.00000000000E+00  0.59070591657E+03  0.59070591657E+03  0.00000000000E+00 0. -1.
         21   -1    0    0  501  503 -0.00000000000E+00 -0.00000000000E+00 -0.35982531245E+03  0.35982531245E+03  0.00000000000E+00 0.  1.
    9000007    1    1    2  501    0 -0.22243211891E+03  0.51365324990E+02  0.13697780946E+03  0.48049699730E+03  0.40000000000E+03 0. -1.
   -9000007    1    1    2    0  502  0.22243211891E+03 -0.51365324990E+02  0.93902794657E+02  0.47003423171E+03  0.40000000000E+03 0.  1.
<mgrwt>
<rscale>  2 0.46055884E+03</rscale>
<asrwt>0</asrwt>
<pdfrwt beam="1">  1       21 0.90877833E-01 0.46055884E+03</pdfrwt>
<pdfrwt beam="2">  1       21 0.55357741E-01 0.46055884E+03</pdfrwt>
<totfact> 0.27349448E+03</totfact>
</mgrwt>
</event>
<event>
 4    1  0.4675559E-002  0.7529092E+03  0.7818608E-02  0.9630797E-01
         21   -1    0    0  503  502  0.00000000000E+00  0.00000000000E+00  0.26342993806E+04  0.26342993806E+04  0.00000000000E+00 0.  1.
         21   -1    0    0  501  503 -0.00000000000E+00 -0.00000000000E+00 -0.30917316733E+03  0.30917316733E+03  0.00000000000E+00 0. -1.
    9000007    1    1    2  501    0  0.22191530600E+03  0.59801826658E+03  0.35112304611E+03  0.83075847496E+03  0.40000000000E+03 0. -1.
   -9000007    1    1    2    0  502 -0.22191530600E+03 -0.59801826658E+03  0.19740031672E+04  0.21127140730E+04  0.40000000000E+03 0.  1.
<mgrwt>
<rscale>  2 0.75290919E+03</rscale>
<asrwt>0</asrwt>
<pdfrwt beam="1">  1       21 0.40527681E+00 0.75290919E+03</pdfrwt>
<pdfrwt beam="2">  1       21 0.47565104E-01 0.75290919E+03</pdfrwt>
<totfact> 0.21035140E+01</totfact>
</mgrwt>
</event>
<event>
 4    1  0.4675559E-002  0.5945469E+03  0.7818608E-02  0.9916785E-01
         21   -1    0    0  501  502  0.00000000000E+00  0.00000000000E+00  0.11377552755E+04  0.11377552755E+04  0.00000000000E+00 0. -1.
         21   -1    0    0  502  503 -0.00000000000E+00 -0.00000000000E+00 -0.70292893210E+03  0.70292893210E+03  0.00000000000E+00 0.  1.
    9000007    1    1    2  501    0  0.34530785477E+03 -0.27248578204E+03  0.90490964200E+03  0.10827499601E+04  0.40000000000E+03 0. -1.
   -9000007    1    1    2    0  503 -0.34530785477E+03  0.27248578204E+03 -0.47008329855E+03  0.75793424752E+03  0.40000000000E+03 0.  1.
<mgrwt>
<rscale>  2 0.59454690E+03</rscale>
<asrwt>0</asrwt>
<pdfrwt beam="1">  1       21 0.17503927E+00 0.59454690E+03</pdfrwt>
<pdfrwt beam="2">  1       21 0.10814291E+00 0.59454690E+03</pdfrwt>
<totfact> 0.10008934E+02</totfact>
</mgrwt>
</event>
<event>
 4    1  0.4675559E-002  0.4665121E+03  0.7818608E-02  0.1022909E+00
         21   -1    0    0  503  502  0.00000000000E+00  0.00000000000E+00  0.81040388914E+03  0.81040388914E+03  0.00000000000E+00 0. -1.
         21   -1    0    0  501  503 -0.00000000000E+00 -0.00000000000E+00 -0.35353278677E+03  0.35353278677E+03  0.00000000000E+00 0.  1.
    9000007    1    1    2  501    0  0.23419991008E+03  0.52763158886E+02 -0.56896989678E+02  0.46996895243E+03  0.40000000000E+03 0.  1.
   -9000007    1    1    2    0  502 -0.23419991008E+03 -0.52763158886E+02  0.51376809205E+03  0.69396772348E+03  0.40000000000E+03 0. -1.
<mgrwt>
<rscale>  2 0.46651211E+03</rscale>
<asrwt>0</asrwt>
<pdfrwt beam="1">  1       21 0.12467752E+00 0.46651211E+03</pdfrwt>
<pdfrwt beam="2">  1       21 0.54389660E-01 0.46651211E+03</pdfrwt>
<totfact> 0.12990225E+03</totfact>
</mgrwt>
</event>
<event>
 4    1  0.4675559E-002  0.4318354E+03  0.7818608E-02  0.1033282E+00
         21   -1    0    0  503  502  0.00000000000E+00  0.00000000000E+00  0.10893040312E+04  0.10893040312E+04  0.00000000000E+00 0.  1.
         21   -1    0    0  501  503 -0.00000000000E+00 -0.00000000000E+00 -0.19406476127E+03  0.19406476127E+03  0.00000000000E+00 0.  1.
    9000007    1    1    2  501    0  0.12508208678E+03  0.10409737088E+03  0.66790873503E+03  0.79535141252E+03  0.40000000000E+03 0.  1.
   -9000007    1    1    2    0  502 -0.12508208678E+03 -0.10409737088E+03  0.22733053492E+03  0.48801737998E+03  0.40000000000E+03 0.  1.
<mgrwt>
<rscale>  2 0.43183537E+03</rscale>
<asrwt>0</asrwt>
<pdfrwt beam="1">  1       21 0.16758523E+00 0.43183537E+03</pdfrwt>
<pdfrwt beam="2">  1       21 0.29856118E-01 0.43183537E+03</pdfrwt>
<totfact> 0.20518399E+03</totfact>
</mgrwt>
</event>
<event>
 4    1  0.4675559E-002  0.4191131E+03  0.7818608E-02  0.1037355E+00
         21   -1    0    0  503  502  0.00000000000E+00  0.00000000000E+00  0.15062731276E+04  0.15062731276E+04  0.00000000000E+00 0. -1.
         21   -1    0    0  501  503 -0.00000000000E+00 -0.00000000000E+00 -0.11728196038E+03  0.11728196038E+03  0.00000000000E+00 0. -1.
    9000007    1    1    2  501    0 -0.12460193431E+03  0.11408993073E+02  0.63333250917E+03  0.75945103485E+03  0.40000000000E+03 0. -1.
   -9000007    1    1    2    0  502  0.12460193431E+03 -0.11408993073E+02  0.75565865800E+03  0.86410405309E+03  0.40000000000E+03 0. -1.
<mgrwt>
<rscale>  2 0.41911312E+03</rscale>
<asrwt>0</asrwt>
<pdfrwt beam="1">  1       21 0.23173431E+00 0.41911312E+03</pdfrwt>
<pdfrwt beam="2">  1       21 0.18043380E-01 0.41911312E+03</pdfrwt>
<totfact> 0.20267226E+03</totfact>
</mgrwt>
</event>
<event>
 4    1  0.4675559E-002  0.4222222E+03  0.7818608E-02  0.1036345E+00
         21   -1    0    0  501  502  0.00000000000E+00  0.00000000000E+00  0.42036404582E+03  0.42036404582E+03  0.00000000000E+00 0.  1.
         21   -1    0    0  502  503 -0.00000000000E+00 -0.00000000000E+00 -0.43005458424E+03  0.43005458424E+03  0.00000000000E+00 0.  1.
    9000007    1    1    2  501    0 -0.60266867962E+02 -0.12099367622E+03  0.45237118709E+02  0.42463862515E+03  0.40000000000E+03 0.  1.
   -9000007    1    1    2    0  503  0.60266867962E+02  0.12099367622E+03 -0.54927657133E+02  0.42578000491E+03  0.40000000000E+03 0.  1.
<mgrwt>
<rscale>  2 0.42222217E+03</rscale>
<asrwt>0</asrwt>
<pdfrwt beam="1">  1       21 0.64671392E-01 0.42222217E+03</pdfrwt>
<pdfrwt beam="2">  1       21 0.66162244E-01 0.42222217E+03</pdfrwt>
<totfact> 0.40888486E+03</totfact>
</mgrwt>
</event>
<event>
 4    1  0.4675559E-002  0.5162165E+03  0.7818608E-02  0.1009631E+00
         21   -1    0    0  503  502  0.00000000000E+00  0.00000000000E+00  0.52921491553E+03  0.52921491553E+03  0.00000000000E+00 0.  1.
         21   -1    0    0  501  503 -0.00000000000E+00 -0.00000000000E+00 -0.52391367070E+03  0.52391367070E+03  0.00000000000E+00 0. -1.
    9000007    1    1    2  501    0 -0.24756966465E+03 -0.21257638113E+03 -0.10119419238E+03  0.52604155848E+03  0.40000000000E+03 0. -1.
   -9000007    1    1    2    0  502  0.24756966465E+03  0.21257638113E+03  0.10649543721E+03  0.52708702775E+03  0.40000000000E+03 0. -1.
<mgrwt>
<rscale>  2 0.51621648E+03</rscale>
<asrwt>0</asrwt>
<pdfrwt beam="1">  1       21 0.81417679E-01 0.51621648E+03</pdfrwt>
<pdfrwt beam="2">  1       21 0.80602103E-01 0.51621648E+03</pdfrwt>
<totfact> 0.14981801E+03</totfact>
</mgrwt>
</event>
<event>
 4    1  0.4675559E-002  0.4599540E+03  0.7818608E-02  0.1024795E+00
         21   -1    0    0  501  502  0.00000000000E+00  0.00000000000E+00  0.32581879329E+03  0.32581879329E+03  0.00000000000E+00 0.  1.
         21   -1    0    0  502  503 -0.00000000000E+00 -0.00000000000E+00 -0.76045785273E+03  0.76045785273E+03  0.00000000000E+00 0.  1.
    9000007    1    1    2  501    0  0.17823868052E+03  0.14067210232E+03 -0.42496468871E+03  0.62622093086E+03  0.40000000000E+03 0.  1.
   -9000007    1    1    2    0  503 -0.17823868052E+03 -0.14067210232E+03 -0.96743707282E+01  0.46005571516E+03  0.40000000000E+03 0.  1.
<mgrwt>
<rscale>  2 0.45995398E+03</rscale>
<asrwt>0</asrwt>
<pdfrwt beam="1">  1       21 0.50125969E-01 0.45995398E+03</pdfrwt>
<pdfrwt beam="2">  1       21 0.11699351E+00 0.45995398E+03</pdfrwt>
<totfact> 0.18243431E+03</totfact>
</mgrwt>
</event>
<event>
 4    1  0.4675559E-002  0.4362525E+03  0.7818608E-02  0.1031903E+00
         21   -1    0    0  501  502  0.00000000000E+00  0.00000000000E+00  0.25110636910E+03  0.25110636910E+03  0.00000000000E+00 0. -1.
         21   -1    0    0  502  503 -0.00000000000E+00 -0.00000000000E+00 -0.79259072914E+03  0.79259072914E+03  0.00000000000E+00 0. -1.
    9000007    1    1    2  501    0  0.70103026492E+02  0.15937947368E+03 -0.16158343303E+03  0.46521549500E+03  0.40000000000E+03 0. -1.
   -9000007    1    1    2    0  503 -0.70103026492E+02 -0.15937947368E+03 -0.37990092701E+03  0.57848160325E+03  0.40000000000E+03 0. -1.
<mgrwt>
<rscale>  2 0.43625251E+03</rscale>
<asrwt>0</asrwt>
<pdfrwt beam="1">  1       21 0.38631749E-01 0.43625251E+03</pdfrwt>
<pdfrwt beam="2">  1       21 0.12193703E+00 0.43625251E+03</pdfrwt>
<totfact> 0.28550728E+03</totfact>
</mgrwt>
</event>
<event>
 4    1  0.4675559E-002  0.6754542E+03  0.7818608E-02  0.9760155E-01
         21   -1    0    0  503  502  0.00000000000E+00  0.00000000000E+00  0.65371030145E+03  0.65371030145E+03  0.00000000000E+00 0.  1.
         21   -1    0    0  501  503 -0.00000000000E+00 -0.00000000000E+00 -0.12237641740E+04  0.12237641740E+04  0.00000000000E+00 0.  1.
    9000007    1    1    2  501    0 -0.35843024852E+03  0.40959261865E+03 -0.90037829883E+03  0.11255751584E+04  0.40000000000E+03 0.  1.
   -9000007    1    1    2    0  502  0.35843024852E+03 -0.40959261865E+03  0.33032442629E+03  0.75189931700E+03  0.40000000000E+03 0.  1.
<mgrwt>
<rscale>  2 0.67545419E+03</rscale>
<asrwt>0</asrwt>
<pdfrwt beam="1">  1       21 0.10057082E+00 0.67545419E+03</pdfrwt>
<pdfrwt beam="2">  1       21 0.18827141E+00 0.67545419E+03</pdfrwt>
<totfact> 0.93533249E+01</totfact>
</mgrwt>
</event>
<event>
 4    1  0.4675559E-002  0.4927850E+03  0.7818608E-02  0.1015679E+00
         21   -1    0    0  501  502  0.00000000000E+00  0.00000000000E+00  0.15834741378E+04  0.15834741378E+04  0.00000000000E+00 0. -1.
         21   -1    0    0  502  503 -0.00000000000E+00 -0.00000000000E+00 -0.16733821522E+03  0.16733821522E+03  0.00000000000E+00 0. -1.
    9000007    1    1    2  501    0 -0.52090836318E+02 -0.28306112564E+03  0.96110401990E+03  0.10800731425E+04  0.40000000000E+03 0. -1.
   -9000007    1    1    2    0  503  0.52090836318E+02  0.28306112564E+03  0.45503190271E+03  0.67073921054E+03  0.40000000000E+03 0. -1.
<mgrwt>
<rscale>  2 0.49278500E+03</rscale>
<asrwt>0</asrwt>
<pdfrwt beam="1">  1       21 0.24361140E+00 0.49278500E+03</pdfrwt>
<pdfrwt beam="2">  1       21 0.25744342E-01 0.49278500E+03</pdfrwt>
<totfact> 0.83491255E+02</totfact>
</mgrwt>
</event>
<event>
 4    1  0.4675559E-002  0.5168852E+03  0.7818608E-02  0.1009463E+00
         21   -1    0    0  501  502  0.00000000000E+00  0.00000000000E+00  0.79816007475E+03  0.79816007475E+03  0.00000000000E+00 0. -1.
         21   -1    0    0  502  503 -0.00000000000E+00 -0.00000000000E+00 -0.47606725387E+03  0.47606725387E+03  0.00000000000E+00 0. -1.
    9000007    1    1    2  501    0  0.62451680802E+02  0.32135667704E+03  0.50818815822E+03  0.72486242175E+03  0.40000000000E+03 0. -1.
   -9000007    1    1    2    0  503 -0.62451680802E+02 -0.32135667704E+03 -0.18609533735E+03  0.54936490686E+03  0.40000000000E+03 0. -1.
<mgrwt>
<rscale>  2 0.51688522E+03</rscale>
<asrwt>0</asrwt>
<pdfrwt beam="1">  1       21 0.12279386E+00 0.51688522E+03</pdfrwt>
<pdfrwt beam="2">  1       21 0.73241116E-01 0.51688522E+03</pdfrwt>
<totfact> 0.68525263E+02</totfact>
</mgrwt>
</event>
<event>
 4    1  0.4675559E-002  0.4645046E+03  0.7818608E-02  0.1023483E+00
         21   -1    0    0  503  502  0.00000000000E+00  0.00000000000E+00  0.24792233697E+04  0.24792233697E+04  0.00000000000E+00 0.  1.
         21   -1    0    0  501  503 -0.00000000000E+00 -0.00000000000E+00 -0.11998740432E+03  0.11998740432E+03  0.00000000000E+00 0. -1.
    9000007    1    1    2  501    0 -0.23032502012E+03  0.52104780754E+02  0.49849387670E+03  0.68136676480E+03  0.40000000000E+03 0. -1.
   -9000007    1    1    2    0  502  0.23032502012E+03 -0.52104780754E+02  0.18607420886E+04  0.19178440092E+04  0.40000000000E+03 0.  1.
<mgrwt>
<rscale>  2 0.46450460E+03</rscale>
<asrwt>0</asrwt>
<pdfrwt beam="1">  1       21 0.38141894E+00 0.46450460E+03</pdfrwt>
<pdfrwt beam="2">  1       21 0.18459603E-01 0.46450460E+03</pdfrwt>
<totfact> 0.23108540E+02</totfact>
</mgrwt>
</event>
<event>
 4    1  0.4675559E-002  0.4996884E+03  0.7818608E-02  0.1013860E+00
         21   -1    0    0  503  502  0.00000000000E+00  0.00000000000E+00  0.36581962236E+03  0.36581962236E+03  0.00000000000E+00 0. -1.
         21   -1    0    0  501  503 -0.00000000000E+00 -0.00000000000E+00 -0.71462285170E+03  0.71462285170E+03  0.00000000000E+00 0.  1.
    9000007    1    1    2  501    0  0.29879888035E+03 -0.20192678889E+02 -0.28885611163E+03  0.57717100447E+03  0.40000000000E+03 0. -1.
   -9000007    1    1    2    0  502 -0.29879888035E+03  0.20192678889E+02 -0.59947117712E+02  0.50327146959E+03  0.40000000000E+03 0. -1.
<mgrwt>
<rscale>  2 0.49968842E+03</rscale>
<asrwt>0</asrwt>
<pdfrwt beam="1">  1       21 0.56279943E-01 0.49968842E+03</pdfrwt>
<pdfrwt beam="2">  1       21 0.10994198E+00 0.49968842E+03</pdfrwt>
<totfact> 0.16374054E+03</totfact>
</mgrwt>
</event>
<event>
 4    1  0.4675559E-002  0.4961018E+03  0.7818608E-02  0.1014801E+00
         21   -1    0    0  503  502  0.00000000000E+00  0.00000000000E+00  0.99068429630E+03  0.99068429630E+03  0.00000000000E+00 0. -1.
         21   -1    0    0  501  503 -0.00000000000E+00 -0.00000000000E+00 -0.36108151917E+03  0.36108151917E+03  0.00000000000E+00 0. -1.
    9000007    1    1    2  501    0 -0.64081198238E+02  0.28637495109E+03 -0.62714126811E+02  0.50005007177E+03  0.40000000000E+03 0. -1.
   -9000007    1    1    2    0  502  0.64081198238E+02 -0.28637495109E+03  0.69231690395E+03  0.85171574370E+03  0.40000000000E+03 0. -1.
<mgrwt>
<rscale>  2 0.49610182E+03</rscale>
<asrwt>0</asrwt>
<pdfrwt beam="1">  1       21 0.15241297E+00 0.49610182E+03</pdfrwt>
<pdfrwt beam="2">  1       21 0.55551003E-01 0.49610182E+03</pdfrwt>
<totfact> 0.72011155E+02</totfact>
</mgrwt>
</event>
<event>
 4    1  0.4675559E-002  0.4523552E+03  0.7818608E-02  0.1027022E+00
         21   -1    0    0  503  502  0.00000000000E+00  0.00000000000E+00  0.84322018377E+03  0.84322018377E+03  0.00000000000E+00 0. -1.
         21   -1    0    0  501  503 -0.00000000000E+00 -0.00000000000E+00 -0.51416986296E+03  0.51416986296E+03  0.00000000000E+00 0.  1.
    9000007    1    1    2  501    0 -0.18378375359E+03  0.10415733309E+03 -0.32865459092E+03  0.55914135802E+03  0.40000000000E+03 0.  1.
   -9000007    1    1    2    0  502  0.18378375359E+03 -0.10415733309E+03  0.65770491173E+03  0.79824868871E+03  0.40000000000E+03 0. -1.
<mgrwt>
<rscale>  2 0.45235519E+03</rscale>
<asrwt>0</asrwt>
<pdfrwt beam="1">  1       21 0.12972618E+00 0.45235519E+03</pdfrwt>
<pdfrwt beam="2">  1       21 0.79103056E-01 0.45235519E+03</pdfrwt>
<totfact> 0.51191460E+02</totfact>
</mgrwt>
</event>
<event>
 4    1  0.4675559E-002  0.4210217E+03  0.7818608E-02  0.1036734E+00
         21   -1    0    0  501  502  0.00000000000E+00  0.00000000000E+00  0.22919199286E+03  0.22919199286E+03  0.00000000000E+00 0.  1.
         21   -1    0    0  502  503 -0.00000000000E+00 -0.00000000000E+00 -0.81191688683E+03  0.81191688683E+03  0.00000000000E+00 0. -1.
    9000007    1    1    2  501    0  0.58186532967E+02  0.11778606734E+03 -0.17799633918E+03  0.45710165942E+03  0.40000000000E+03 0.  1.
   -9000007    1    1    2    0  503 -0.58186532967E+02 -0.11778606734E+03 -0.40472855478E+03  0.58400722027E+03  0.40000000000E+03 0. -1.
<mgrwt>
<rscale>  2 0.42102165E+03</rscale>
<asrwt>0</asrwt>
<pdfrwt beam="1">  1       21 0.35260307E-01 0.42102165E+03</pdfrwt>
<pdfrwt beam="2">  1       21 0.12491029E+00 0.42102165E+03</pdfrwt>
<totfact> 0.32513428E+03</totfact>
</mgrwt>
</event>
<event>
 4    1  0.4675559E-002  0.4888003E+03  0.7818608E-02  0.1016744E+00
         21   -1    0    0  501  502  0.00000000000E+00  0.00000000000E+00  0.50906304517E+03  0.50906304517E+03  0.00000000000E+00 0.  1.
         21   -1    0    0  502  503 -0.00000000000E+00 -0.00000000000E+00 -0.48770080336E+03  0.48770080336E+03  0.00000000000E+00 0. -1.
    9000007    1    1    2  501    0 -0.67728822330E+02 -0.27265086312E+03 -0.86009435546E+02  0.49630969116E+03  0.40000000000E+03 0. -1.
   -9000007    1    1    2    0  503  0.67728822330E+02  0.27265086312E+03  0.10737167736E+03  0.50045415738E+03  0.40000000000E+03 0.  1.
<mgrwt>
<rscale>  2 0.48880025E+03</rscale>
<asrwt>0</asrwt>
<pdfrwt beam="1">  1       21 0.78317392E-01 0.48880025E+03</pdfrwt>
<pdfrwt beam="2">  1       21 0.75030893E-01 0.48880025E+03</pdfrwt>
<totfact> 0.19510776E+03</totfact>
</mgrwt>
</event>
<event>
 4    1  0.4675559E-002  0.5312908E+03  0.7818608E-02  0.1005920E+00
         21   -1    0    0  501  502  0.00000000000E+00  0.00000000000E+00  0.52899233064E+03  0.52899233064E+03  0.00000000000E+00 0.  1.
         21   -1    0    0  502  503 -0.00000000000E+00 -0.00000000000E+00 -0.88586413488E+03  0.88586413488E+03  0.00000000000E+00 0. -1.
    9000007    1    1    2  501    0  0.16929909514E+03 -0.30595380140E+03  0.26766541299E+03  0.59490729153E+03  0.40000000000E+03 0.  1.
   -9000007    1    1    2    0  503 -0.16929909514E+03  0.30595380140E+03 -0.62453721723E+03  0.81994917398E+03  0.40000000000E+03 0. -1.
<mgrwt>
<rscale>  2 0.53129080E+03</rscale>
<asrwt>0</asrwt>
<pdfrwt beam="1">  1       21 0.81383436E-01 0.53129080E+03</pdfrwt>
<pdfrwt beam="2">  1       21 0.13628679E+00 0.53129080E+03</pdfrwt>
<totfact> 0.40753030E+02</totfact>
</mgrwt>
</event>
<event>
 4    1  0.4675559E-002  0.4077417E+03  0.7818608E-02  0.1041131E+00
         21   -1    0    0  501  502  0.00000000000E+00  0.00000000000E+00  0.16888382881E+03  0.16888382881E+03  0.00000000000E+00 0. -1.
         21   -1    0    0  502  503 -0.00000000000E+00 -0.00000000000E+00 -0.14956617082E+04  0.14956617082E+04  0.00000000000E+00 0.  1.
    9000007    1    1    2  501    0  0.65923750780E+02  0.43673601999E+02 -0.17680209712E+03  0.44442356595E+03  0.40000000000E+03 0. -1.
   -9000007    1    1    2    0  503 -0.65923750780E+02 -0.43673601999E+02 -0.11499757823E+04  0.12201219710E+04  0.40000000000E+03 0.  1.
<mgrwt>
<rscale>  2 0.40774174E+03</rscale>
<asrwt>0</asrwt>
<pdfrwt beam="1">  1       21 0.25982128E-01 0.40774174E+03</pdfrwt>
<pdfrwt beam="2">  1       21 0.23010180E+00 0.40774174E+03</pdfrwt>
<totfact> 0.10381300E+03</totfact>
</mgrwt>
</event>
<event>
 4    1  0.4675559E-002  0.4236129E+03  0.7818608E-02  0.1035897E+00
         21   -1    0    0  503  502  0.00000000000E+00  0.00000000000E+00  0.11215001421E+04  0.11215001421E+04  0.00000000000E+00 0. -1.
         21   -1    0    0  501  503 -0.00000000000E+00 -0.00000000000E+00 -0.23427657775E+03  0.23427657775E+03  0.00000000000E+00 0. -1.
    9000007    1    1    2  501    0 -0.75436364458E+02 -0.11729133753E+03  0.61932012957E+02  0.42811619588E+03  0.40000000000E+03 0. -1.
   -9000007    1    1    2    0  502  0.75436364458E+02  0.11729133753E+03  0.82529155143E+03  0.92766052401E+03  0.40000000000E+03 0. -1.
<mgrwt>
<rscale>  2 0.42361292E+03</rscale>
<asrwt>0</asrwt>
<pdfrwt beam="1">  1       21 0.17253848E+00 0.42361292E+03</pdfrwt>
<pdfrwt beam="2">  1       21 0.36042551E-01 0.42361292E+03</pdfrwt>
<totfact> 0.12992924E+03</totfact>
</mgrwt>
</event>
<event>
 4    1  0.4675559E-002  0.6158130E+03  0.7818608E-02  0.9873132E-01
         21   -1    0    0  501  502  0.00000000000E+00  0.00000000000E+00  0.52765687575E+03  0.52765687575E+03  0.00000000000E+00 0.  1.
         21   -1    0    0  502  503 -0.00000000000E+00 -0.00000000000E+00 -0.78466916085E+03  0.78466916085E+03  0.00000000000E+00 0. -1.
    9000007    1    1    2  501    0 -0.33649745673E+03  0.32556882070E+03  0.61753938871E+02  0.61890156274E+03  0.40000000000E+03 0. -1.
   -9000007    1    1    2    0  503  0.33649745673E+03 -0.32556882070E+03 -0.31876622398E+03  0.69342447386E+03  0.40000000000E+03 0.  1.
<mgrwt>
<rscale>  2 0.61581295E+03</rscale>
<asrwt>0</asrwt>
<pdfrwt beam="1">  1       21 0.81177980E-01 0.61581295E+03</pdfrwt>
<pdfrwt beam="2">  1       21 0.12071833E+00 0.61581295E+03</pdfrwt>
<totfact> 0.54576440E+02</totfact>
</mgrwt>
</event>
<event>
 4    1  0.4675559E-002  0.6686650E+03  0.7818608E-02  0.9772373E-01
         21   -1    0    0  501  502  0.00000000000E+00  0.00000000000E+00  0.20848144466E+04  0.20848144466E+04  0.00000000000E+00 0. -1.
         21   -1    0    0  502  503 -0.00000000000E+00 -0.00000000000E+00 -0.25730604549E+03  0.25730604549E+03  0.00000000000E+00 0.  1.
    9000007    1    1    2  501    0 -0.24752736955E+03 -0.47522944660E+03  0.13916146198E+04  0.15439248931E+04  0.40000000000E+03 0. -1.
   -9000007    1    1    2    0  503  0.24752736955E+03  0.47522944660E+03  0.43589378126E+03  0.79819559892E+03  0.40000000000E+03 0.  1.
<mgrwt>
<rscale>  2 0.66866496E+03</rscale>
<asrwt>0</asrwt>
<pdfrwt beam="1">  1       21 0.32074067E+00 0.66866496E+03</pdfrwt>
<pdfrwt beam="2">  1       21 0.39585547E-01 0.66866496E+03</pdfrwt>
<totfact> 0.10971661E+02</totfact>
</mgrwt>
</event>
<event>
 4    1  0.4675559E-002  0.5354404E+03  0.7818608E-02  0.1004921E+00
         21   -1    0    0  503  502  0.00000000000E+00  0.00000000000E+00  0.38120263836E+03  0.38120263836E+03  0.00000000000E+00 0. -1.
         21   -1    0    0  501  503 -0.00000000000E+00 -0.00000000000E+00 -0.76266328804E+03  0.76266328804E+03  0.00000000000E+00 0.  1.
    9000007    1    1    2  501    0 -0.13812932789E+03 -0.32804993165E+03 -0.25809054413E+03  0.59439649885E+03  0.40000000000E+03 0.  1.
   -9000007    1    1    2    0  502  0.13812932789E+03  0.32804993165E+03 -0.12337010555E+03  0.54946942756E+03  0.40000000000E+03 0. -1.
<mgrwt>
<rscale>  2 0.53544044E+03</rscale>
<asrwt>0</asrwt>
<pdfrwt beam="1">  1       21 0.58646561E-01 0.53544044E+03</pdfrwt>
<pdfrwt beam="2">  1       21 0.11733281E+00 0.53544044E+03</pdfrwt>
<totfact> 0.12562447E+03</totfact>
</mgrwt>
</event>
<event>
 4    1  0.4675559E-002  0.4050459E+03  0.7818608E-02  0.1042046E+00
         21   -1    0    0  501  502  0.00000000000E+00  0.00000000000E+00  0.93282402112E+03  0.93282402112E+03  0.00000000000E+00 0. -1.
         21   -1    0    0  502  503 -0.00000000000E+00 -0.00000000000E+00 -0.19707464097E+03  0.19707464097E+03  0.00000000000E+00 0. -1.
    9000007    1    1    2  501    0 -0.63317370903E+02  0.72870917827E+01  0.55315914410E+03  0.68559990509E+03  0.40000000000E+03 0. -1.
   -9000007    1    1    2    0  503  0.63317370903E+02 -0.72870917827E+01  0.18259023606E+03  0.44429875700E+03  0.40000000000E+03 0. -1.
<mgrwt>
<rscale>  2 0.40504591E+03</rscale>
<asrwt>0</asrwt>
<pdfrwt beam="1">  1       21 0.14351139E+00 0.40504591E+03</pdfrwt>
<pdfrwt beam="2">  1       21 0.30319176E-01 0.40504591E+03</pdfrwt>
<totfact> 0.30807567E+03</totfact>
</mgrwt>
</event>
<event>
 4    1  0.4675559E-002  0.5254613E+03  0.7818608E-02  0.1007339E+00
         21   -1    0    0  501  502  0.00000000000E+00  0.00000000000E+00  0.67806345252E+03  0.67806345252E+03  0.00000000000E+00 0. -1.
         21   -1    0    0  502  503 -0.00000000000E+00 -0.00000000000E+00 -0.44337182556E+03  0.44337182556E+03  0.00000000000E+00 0. -1.
    9000007    1    1    2  501    0 -0.30573810087E+03  0.15044520438E+03  0.27749573216E+03  0.59423347870E+03  0.40000000000E+03 0. -1.
   -9000007    1    1    2    0  503  0.30573810087E+03 -0.15044520438E+03 -0.42804105197E+02  0.52720179938E+03  0.40000000000E+03 0. -1.
<mgrwt>
<rscale>  2 0.52546127E+03</rscale>
<asrwt>0</asrwt>
<pdfrwt beam="1">  1       21 0.10431745E+00 0.52546127E+03</pdfrwt>
<pdfrwt beam="2">  1       21 0.68211050E-01 0.52546127E+03</pdfrwt>
<totfact> 0.12085931E+03</totfact>
</mgrwt>
</event>
<event>
 4    1  0.4675559E-002  0.4072356E+03  0.7818608E-02  0.1041303E+00
         21   -1    0    0  503  502  0.00000000000E+00  0.00000000000E+00  0.14356586726E+04  0.14356586726E+04  0.00000000000E+00 0.  1.
         21   -1    0    0  501  503 -0.00000000000E+00 -0.00000000000E+00 -0.19563699260E+03  0.19563699260E+03  0.00000000000E+00 0.  1.
    9000007    1    1    2  501    0  0.22795092531E+02 -0.72946616839E+02  0.98033414423E+02  0.41886916274E+03  0.40000000000E+03 0.  1.
   -9000007    1    1    2    0  502 -0.22795092531E+02  0.72946616839E+02  0.11419882656E+04  0.12124265025E+04  0.40000000000E+03 0.  1.
<mgrwt>
<rscale>  2 0.40723559E+03</rscale>
<asrwt>0</asrwt>
<pdfrwt beam="1">  1       21 0.22087056E+00 0.40723559E+03</pdfrwt>
<pdfrwt beam="2">  1       21 0.30098000E-01 0.40723559E+03</pdfrwt>
<totfact> 0.88917919E+02</totfact>
</mgrwt>
</event>
<event>
 4    1  0.4675559E-002  0.4317680E+03  0.7818608E-02  0.1033303E+00
         21   -1    0    0  501  502  0.00000000000E+00  0.00000000000E+00  0.77133688233E+03  0.77133688233E+03  0.00000000000E+00 0. -1.
         21   -1    0    0  502  503 -0.00000000000E+00 -0.00000000000E+00 -0.30047123441E+03  0.30047123441E+03  0.00000000000E+00 0. -1.
    9000007    1    1    2  501    0 -0.14480507062E+03  0.73858560278E+02  0.47246584565E+03  0.64003716354E+03  0.40000000000E+03 0. -1.
   -9000007    1    1    2    0  503  0.14480507062E+03 -0.73858560278E+02 -0.16001977287E+01  0.43177095321E+03  0.40000000000E+03 0. -1.
<mgrwt>
<rscale>  2 0.43176799E+03</rscale>
<asrwt>0</asrwt>
<pdfrwt beam="1">  1       21 0.11866721E+00 0.43176799E+03</pdfrwt>
<pdfrwt beam="2">  1       21 0.46226344E-01 0.43176799E+03</pdfrwt>
<totfact> 0.21120781E+03</totfact>
</mgrwt>
</event>
<event>
 4    1  0.4675559E-002  0.5782529E+03  0.7818608E-02  0.9951581E-01
         21   -1    0    0  501  502  0.00000000000E+00  0.00000000000E+00  0.55360988422E+03  0.55360988422E+03  0.00000000000E+00 0.  1.
         21   -1    0    0  502  503 -0.00000000000E+00 -0.00000000000E+00 -0.99737175777E+03  0.99737175777E+03  0.00000000000E+00 0. -1.
    9000007    1    1    2  501    0  0.39256918753E+03 -0.14235833024E+03  0.26514670902E+03  0.63614403911E+03  0.40000000000E+03 0.  1.
   -9000007    1    1    2    0  503 -0.39256918753E+03  0.14235833024E+03 -0.70890858258E+03  0.91483760288E+03  0.40000000000E+03 0. -1.
<mgrwt>
<rscale>  2 0.57825294E+03</rscale>
<asrwt>0</asrwt>
<pdfrwt beam="1">  1       21 0.85170753E-01 0.57825294E+03</pdfrwt>
<pdfrwt beam="2">  1       21 0.15344181E+00 0.57825294E+03</pdfrwt>
<totfact> 0.26106597E+02</totfact>
</mgrwt>
</event>
<event>
 4    1  0.4675559E-002  0.4050289E+03  0.7818608E-02  0.1042052E+00
         21   -1    0    0  503  502  0.00000000000E+00  0.00000000000E+00  0.12649625492E+04  0.12649625492E+04  0.00000000000E+00 0.  1.
         21   -1    0    0  501  503 -0.00000000000E+00 -0.00000000000E+00 -0.15092858658E+03  0.15092858658E+03  0.00000000000E+00 0.  1.
    9000007    1    1    2  501    0 -0.59251144014E+02 -0.23188292214E+02  0.82260842596E+03  0.91691494558E+03  0.40000000000E+03 0.  1.
   -9000007    1    1    2    0  502  0.59251144014E+02  0.23188292214E+02  0.29142553664E+03  0.49897619018E+03  0.40000000000E+03 0.  1.
<mgrwt>
<rscale>  2 0.40502888E+03</rscale>
<asrwt>0</asrwt>
<pdfrwt beam="1">  1       21 0.19460962E+00 0.40502888E+03</pdfrwt>
<pdfrwt beam="2">  1       21 0.23219783E-01 0.40502888E+03</pdfrwt>
<totfact> 0.21938179E+03</totfact>
</mgrwt>
</event>
<event>
 4    1  0.4675559E-002  0.4710087E+03  0.7818608E-02  0.1021636E+00
         21   -1    0    0  501  502  0.00000000000E+00  0.00000000000E+00  0.43087472657E+03  0.43087472657E+03  0.00000000000E+00 0.  1.
         21   -1    0    0  502  503 -0.00000000000E+00 -0.00000000000E+00 -0.13101232018E+04  0.13101232018E+04  0.00000000000E+00 0.  1.
    9000007    1    1    2  501    0  0.12621961736E+03  0.21428437798E+03  0.23858221002E+03  0.52798736480E+03  0.40000000000E+03 0.  1.
   -9000007    1    1    2    0  503 -0.12621961736E+03 -0.21428437798E+03 -0.11178306852E+04  0.12130105636E+04  0.40000000000E+03 0.  1.
<mgrwt>
<rscale>  2 0.47100869E+03</rscale>
<asrwt>0</asrwt>
<pdfrwt beam="1">  1       21 0.66288421E-01 0.47100869E+03</pdfrwt>
<pdfrwt beam="2">  1       21 0.20155741E+00 0.47100869E+03</pdfrwt>
<totfact> 0.21943530E+02</totfact>
</mgrwt>
</event>
<event>
 4    1  0.4675559E-002  0.4353968E+03  0.7818608E-02  0.1032169E+00
         21   -1    0    0  501  502  0.00000000000E+00  0.00000000000E+00  0.17644806189E+03  0.17644806189E+03  0.00000000000E+00 0. -1.
         21   -1    0    0  502  503 -0.00000000000E+00 -0.00000000000E+00 -0.11173671861E+04  0.11173671861E+04  0.00000000000E+00 0. -1.
    9000007    1    1    2  501    0  0.16905557370E+03 -0.31474175610E+02 -0.59736113556E+03  0.73919600716E+03  0.40000000000E+03 0.  1.
   -9000007    1    1    2    0  503 -0.16905557370E+03  0.31474175610E+02 -0.34355798866E+03  0.55461924083E+03  0.40000000000E+03 0.  1.
<mgrwt>
<rscale>  2 0.43539684E+03</rscale>
<asrwt>0</asrwt>
<pdfrwt beam="1">  1       21 0.27145856E-01 0.43539684E+03</pdfrwt>
<pdfrwt beam="2">  1       21 0.17190264E+00 0.43539684E+03</pdfrwt>
<totfact> 0.22997571E+03</totfact>
</mgrwt>
</event>
<event>
 4    1  0.4675559E-002  0.4241055E+03  0.7818608E-02  0.1035738E+00
         21   -1    0    0  501  502  0.00000000000E+00  0.00000000000E+00  0.19138229468E+04  0.19138229468E+04  0.00000000000E+00 0.  1.
         21   -1    0    0  502  503 -0.00000000000E+00 -0.00000000000E+00 -0.95453167208E+02  0.95453167208E+02  0.00000000000E+00 0.  1.
    9000007    1    1    2  501    0 -0.59014905593E+01  0.14082127888E+03  0.10338953540E+04  0.11174994690E+04  0.40000000000E+03 0.  1.
   -9000007    1    1    2    0  503  0.59014905593E+01 -0.14082127888E+03  0.78447442551E+03  0.89177664494E+03  0.40000000000E+03 0.  1.
<mgrwt>
<rscale>  2 0.42410548E+03</rscale>
<asrwt>0</asrwt>
<pdfrwt beam="1">  1       21 0.29443427E+00 0.42410548E+03</pdfrwt>
<pdfrwt beam="2">  1       21 0.14685104E-01 0.42410548E+03</pdfrwt>
<totfact> 0.12336721E+03</totfact>
</mgrwt>
</event>
<event>
 4    1  0.4675559E-002  0.4275217E+03  0.7818608E-02  0.1034646E+00
         21   -1    0    0  501  502  0.00000000000E+00  0.00000000000E+00  0.12403414326E+04  0.12403414326E+04  0.00000000000E+00 0. -1.
         21   -1    0    0  502  503 -0.00000000000E+00 -0.00000000000E+00 -0.19405915670E+03  0.19405915670E+03  0.00000000000E+00 0.  1.
    9000007    1    1    2  501    0 -0.45626593552E+00  0.15091258766E+03  0.87497287865E+03  0.97383384397E+03  0.40000000000E+03 0. -1.
   -9000007    1    1    2    0  503  0.45626593552E+00 -0.15091258766E+03  0.17130939722E+03  0.46056674529E+03  0.40000000000E+03 0.  1.
<mgrwt>
<rscale>  2 0.42752172E+03</rscale>
<asrwt>0</asrwt>
<pdfrwt beam="1">  1       21 0.19082175E+00 0.42752172E+03</pdfrwt>
<pdfrwt beam="2">  1       21 0.29855256E-01 0.42752172E+03</pdfrwt>
<totfact> 0.14092937E+03</totfact>
</mgrwt>
</event>
<event>
 4    1  0.4675559E-002  0.4453721E+03  0.7818608E-02  0.1029111E+00
         21   -1    0    0  503  502  0.00000000000E+00  0.00000000000E+00  0.36931235750E+03  0.36931235750E+03  0.00000000000E+00 0. -1.
         21   -1    0    0  501  503 -0.00000000000E+00 -0.00000000000E+00 -0.17886102268E+04  0.17886102268E+04  0.00000000000E+00 0. -1.
    9000007    1    1    2  501    0 -0.69538352916E+02  0.18308655201E+03 -0.16121877083E+04  0.16725745051E+04  0.40000000000E+03 0. -1.
   -9000007    1    1    2    0  502  0.69538352916E+02 -0.18308655201E+03  0.19288983901E+03  0.48534807927E+03  0.40000000000E+03 0. -1.
<mgrwt>
<rscale>  2 0.44537206E+03</rscale>
<asrwt>0</asrwt>
<pdfrwt beam="1">  1       21 0.56817287E-01 0.44537206E+03</pdfrwt>
<pdfrwt beam="2">  1       21 0.27517080E+00 0.44537206E+03</pdfrwt>
<totfact> 0.10809525E+02</totfact>
</mgrwt>
</event>
<event>
 4    1  0.4675559E-002  0.4840539E+03  0.7818608E-02  0.1018027E+00
         21   -1    0    0  501  502  0.00000000000E+00  0.00000000000E+00  0.14068507476E+04  0.14068507476E+04  0.00000000000E+00 0.  1.
         21   -1    0    0  502  503 -0.00000000000E+00 -0.00000000000E+00 -0.17780724067E+03  0.17780724067E+03  0.00000000000E+00 0.  1.
    9000007    1    1    2  501    0  0.22305061949E+03 -0.15670552860E+03  0.81390334583E+03  0.94696718945E+03  0.40000000000E+03 0.  1.
   -9000007    1    1    2    0  503 -0.22305061949E+03  0.15670552860E+03  0.41514016110E+03  0.63769079883E+03  0.40000000000E+03 0.  1.
<mgrwt>
<rscale>  2 0.48405392E+03</rscale>
<asrwt>0</asrwt>
<pdfrwt beam="1">  1       21 0.21643857E+00 0.48405392E+03</pdfrwt>
<pdfrwt beam="2">  1       21 0.27354961E-01 0.48405392E+03</pdfrwt>
<totfact> 0.11051412E+03</totfact>
</mgrwt>
</event>
<event>
 4    1  0.4675559E-002  0.4154390E+03  0.7818608E-02  0.1038561E+00
         21   -1    0    0  503  502  0.00000000000E+00  0.00000000000E+00  0.19459063675E+03  0.19459063675E+03  0.00000000000E+00 0. -1.
         21   -1    0    0  501  503 -0.00000000000E+00 -0.00000000000E+00 -0.22548945118E+04  0.22548945118E+04  0.00000000000E+00 0. -1.
    9000007    1    1    2  501    0  0.11167185759E+03  0.10908175095E+02 -0.19840853046E+04  0.20271122534E+04  0.40000000000E+03 0.  1.
   -9000007    1    1    2    0  502 -0.11167185759E+03 -0.10908175095E+02 -0.76218570456E+02  0.42237289513E+03  0.40000000000E+03 0.  1.
<mgrwt>
<rscale>  2 0.41543904E+03</rscale>
<asrwt>0</asrwt>
<pdfrwt beam="1">  1       21 0.29937021E-01 0.41543904E+03</pdfrwt>
<pdfrwt beam="2">  1       21 0.34690685E+00 0.41543904E+03</pdfrwt>
<totfact> 0.15343605E+02</totfact>
</mgrwt>
</event>
<event>
 4    1  0.4675559E-002  0.5911312E+03  0.7818608E-02  0.9923979E-01
         21   -1    0    0  503  502  0.00000000000E+00  0.00000000000E+00  0.15562554245E+03  0.15562554245E+03  0.00000000000E+00 0. -1.
         21   -1    0    0  501  503 -0.00000000000E+00 -0.00000000000E+00 -0.22456450746E+04  0.22456450746E+04  0.00000000000E+00 0.  1.
    9000007    1    1    2  501    0  0.34197880436E+03 -0.26923339720E+03 -0.10315980750E+04  0.11889620318E+04  0.40000000000E+03 0. -1.
   -9000007    1    1    2    0  502 -0.34197880436E+03  0.26923339720E+03 -0.10584214572E+04  0.12123085852E+04  0.40000000000E+03 0.  1.
<mgrwt>
<rscale>  2 0.59113122E+03</rscale>
<asrwt>0</asrwt>
<pdfrwt beam="1">  1       21 0.23942393E-01 0.59113122E+03</pdfrwt>
<pdfrwt beam="2">  1       21 0.34548383E+00 0.59113122E+03</pdfrwt>
<totfact> 0.21934408E+02</totfact>
</mgrwt>
</event>
<event>
 4    1  0.4675559E-002  0.4404096E+03  0.7818608E-02  0.1030621E+00
         21   -1    0    0  503  502  0.00000000000E+00  0.00000000000E+00  0.85518532934E+03  0.85518532934E+03  0.00000000000E+00 0.  1.
         21   -1    0    0  501  503 -0.00000000000E+00 -0.00000000000E+00 -0.22681941645E+03  0.22681941645E+03  0.00000000000E+00 0. -1.
    9000007    1    1    2  501    0 -0.18404113592E+03 -0.94597563069E+01  0.30992587209E+03  0.53853010398E+03  0.40000000000E+03 0. -1.
   -9000007    1    1    2    0  502  0.18404113592E+03  0.94597563069E+01  0.31844004080E+03  0.54347464181E+03  0.40000000000E+03 0.  1.
<mgrwt>
<rscale>  2 0.44040961E+03</rscale>
<asrwt>0</asrwt>
<pdfrwt beam="1">  1       21 0.13156697E+00 0.44040961E+03</pdfrwt>
<pdfrwt beam="2">  1       21 0.34895295E-01 0.44040961E+03</pdfrwt>
<totfact> 0.28823538E+03</totfact>
</mgrwt>
</event>
<event>
 4    1  0.4675559E-002  0.4242553E+03  0.7818608E-02  0.1035690E+00
         21   -1    0    0  503  502  0.00000000000E+00  0.00000000000E+00  0.38319999982E+03  0.38319999982E+03  0.00000000000E+00 0. -1.
         21   -1    0    0  501  503 -0.00000000000E+00 -0.00000000000E+00 -0.55904169836E+03  0.55904169836E+03  0.00000000000E+00 0. -1.
    9000007    1    1    2  501    0  0.13868032024E+02  0.14071338529E+03  0.10040714255E+03  0.43597496876E+03  0.40000000000E+03 0. -1.
   -9000007    1    1    2    0  502 -0.13868032024E+02 -0.14071338529E+03 -0.27624884109E+03  0.50626672942E+03  0.40000000000E+03 0. -1.
<mgrwt>
<rscale>  2 0.42425532E+03</rscale>
<asrwt>0</asrwt>
<pdfrwt beam="1">  1       21 0.58953846E-01 0.42425532E+03</pdfrwt>
<pdfrwt beam="2">  1       21 0.86006416E-01 0.42425532E+03</pdfrwt>
<totfact> 0.27528038E+03</totfact>
</mgrwt>
</event>
<event>
 4    1  0.4675559E-002  0.4078328E+03  0.7818608E-02  0.1041101E+00
         21   -1    0    0  503  502  0.00000000000E+00  0.00000000000E+00  0.26104406066E+03  0.26104406066E+03  0.00000000000E+00 0. -1.
         21   -1    0    0  501  503 -0.00000000000E+00 -0.00000000000E+00 -0.64811629060E+03  0.64811629060E+03  0.00000000000E+00 0. -1.
    9000007    1    1    2  501    0 -0.67047961659E+01  0.79263293301E+02 -0.25263180206E+03  0.47973998308E+03  0.40000000000E+03 0. -1.
   -9000007    1    1    2    0  502  0.67047961659E+01 -0.79263293301E+02 -0.13444042788E+03  0.42942036818E+03  0.40000000000E+03 0. -1.
<mgrwt>
<rscale>  2 0.40783284E+03</rscale>
<asrwt>0</asrwt>
<pdfrwt beam="1">  1       21 0.40160625E-01 0.40783284E+03</pdfrwt>
<pdfrwt beam="2">  1       21 0.99710197E-01 0.40783284E+03</pdfrwt>
<totfact> 0.43909294E+03</totfact>
</mgrwt>
</event>
<event>
 4    1  0.4675559E-002  0.4052223E+03  0.7818608E-02  0.1041986E+00
         21   -1    0    0  501  502  0.00000000000E+00  0.00000000000E+00  0.54175098838E+03  0.54175098838E+03  0.00000000000E+00 0.  1.
         21   -1    0    0  502  503 -0.00000000000E+00 -0.00000000000E+00 -0.44183533902E+03  0.44183533902E+03  0.00000000000E+00 0.  1.
    9000007    1    1    2  501    0  0.45552720784E+02  0.46152213119E+02 -0.22562033417E+03  0.46379910774E+03  0.40000000000E+03 0.  1.
   -9000007    1    1    2    0  503 -0.45552720784E+02 -0.46152213119E+02  0.32553598354E+03  0.51978721966E+03  0.40000000000E+03 0.  1.
<mgrwt>
<rscale>  2 0.40522226E+03</rscale>
<asrwt>0</asrwt>
<pdfrwt beam="1">  1       21 0.83346306E-01 0.40522226E+03</pdfrwt>
<pdfrwt beam="2">  1       21 0.67974668E-01 0.40522226E+03</pdfrwt>
<totfact> 0.21794738E+03</totfact>
</mgrwt>
</event>
<event>
 4    1  0.4675559E-002  0.6700244E+03  0.7818608E-02  0.9769914E-01
         21   -1    0    0  503  502  0.00000000000E+00  0.00000000000E+00  0.14825387499E+04  0.14825387499E+04  0.00000000000E+00 0.  1.
         21   -1    0    0  501  503 -0.00000000000E+00 -0.00000000000E+00 -0.41024672118E+03  0.41024672118E+03  0.00000000000E+00 0. -1.
    9000007    1    1    2  501    0  0.46952238841E+03  0.26168960446E+03  0.51841884974E+02  0.67202701087E+03  0.40000000000E+03 0.  1.
   -9000007    1    1    2    0  502 -0.46952238841E+03 -0.26168960446E+03  0.10204501438E+04  0.12207584602E+04  0.40000000000E+03 0.  1.
<mgrwt>
<rscale>  2 0.67002442E+03</rscale>
<asrwt>0</asrwt>
<pdfrwt beam="1">  1       21 0.22808288E+00 0.67002442E+03</pdfrwt>
<pdfrwt beam="2">  1       21 0.63114881E-01 0.67002442E+03</pdfrwt>
<totfact> 0.15088865E+02</totfact>
</mgrwt>
</event>
<event>
 4    1  0.4675559E-002  0.4183821E+03  0.7818608E-02  0.1037594E+00
         21   -1    0    0  501  502  0.00000000000E+00  0.00000000000E+00  0.81439796658E+02  0.81439796658E+02  0.00000000000E+00 0.  1.
         21   -1    0    0  502  503 -0.00000000000E+00 -0.00000000000E+00 -0.23020138414E+04  0.23020138414E+04  0.00000000000E+00 0.  1.
    9000007    1    1    2  501    0 -0.12152928938E+03  0.16558580527E+02 -0.80340274745E+03  0.90581429077E+03  0.40000000000E+03 0.  1.
   -9000007    1    1    2    0  503  0.12152928938E+03 -0.16558580527E+02 -0.14171712973E+04  0.14776393473E+04  0.40000000000E+03 0.  1.
<mgrwt>
<rscale>  2 0.41838207E+03</rscale>
<asrwt>0</asrwt>
<pdfrwt beam="1">  1       21 0.12529198E-01 0.41838207E+03</pdfrwt>
<pdfrwt beam="2">  1       21 0.35415603E+00 0.41838207E+03</pdfrwt>
<totfact> 0.72203871E+02</totfact>
</mgrwt>
</event>
<event>
 4    1  0.4675559E-002  0.4076231E+03  0.7818608E-02  0.1041172E+00
         21   -1    0    0  501  502  0.00000000000E+00  0.00000000000E+00  0.77618466877E+03  0.77618466877E+03  0.00000000000E+00 0.  1.
         21   -1    0    0  502  503 -0.00000000000E+00 -0.00000000000E+00 -0.26112835177E+03  0.26112835177E+03  0.00000000000E+00 0.  1.
    9000007    1    1    2  501    0  0.77911547313E+02 -0.92956145259E+01  0.47770848638E+03  0.62798249626E+03  0.40000000000E+03 0.  1.
   -9000007    1    1    2    0  503 -0.77911547313E+02  0.92956145259E+01  0.37347830616E+02  0.40933052428E+03  0.40000000000E+03 0.  1.
<mgrwt>
<rscale>  2 0.40762313E+03</rscale>
<asrwt>0</asrwt>
<pdfrwt beam="1">  1       21 0.11941303E+00 0.40762313E+03</pdfrwt>
<pdfrwt beam="2">  1       21 0.40173593E-01 0.40762313E+03</pdfrwt>
<totfact> 0.28100431E+03</totfact>
</mgrwt>
</event>
<event>
 4    1  0.4675559E-002  0.5278647E+03  0.7818608E-02  0.1006751E+00
         21   -1    0    0  501  502  0.00000000000E+00  0.00000000000E+00  0.11235787776E+04  0.11235787776E+04  0.00000000000E+00 0.  1.
         21   -1    0    0  502  503 -0.00000000000E+00 -0.00000000000E+00 -0.25118669340E+03  0.25118669340E+03  0.00000000000E+00 0. -1.
    9000007    1    1    2  501    0 -0.32746966741E+03 -0.10679296310E+03  0.35870361580E+03  0.63820796299E+03  0.40000000000E+03 0. -1.
   -9000007    1    1    2    0  503  0.32746966741E+03  0.10679296310E+03  0.51368846840E+03  0.73655750801E+03  0.40000000000E+03 0. -1.
<mgrwt>
<rscale>  2 0.52786468E+03</rscale>
<asrwt>0</asrwt>
<pdfrwt beam="1">  1       21 0.17285827E+00 0.52786468E+03</pdfrwt>
<pdfrwt beam="2">  1       21 0.38644107E-01 0.52786468E+03</pdfrwt>
<totfact> 0.10740508E+03</totfact>
</mgrwt>
</event>
<event>
 4    1  0.4675559E-002  0.4988872E+03  0.7818608E-02  0.1014070E+00
         21   -1    0    0  503  502  0.00000000000E+00  0.00000000000E+00  0.20945341727E+03  0.20945341727E+03  0.00000000000E+00 0. -1.
         21   -1    0    0  501  503 -0.00000000000E+00 -0.00000000000E+00 -0.24857156609E+04  0.24857156609E+04  0.00000000000E+00 0. -1.
    9000007    1    1    2  501    0  0.29036344213E+03 -0.67657562353E+02 -0.21117161257E+04  0.21698464162E+04  0.40000000000E+03 0. -1.
   -9000007    1    1    2    0  502 -0.29036344213E+03  0.67657562353E+02 -0.16454611792E+03  0.52532266198E+03  0.40000000000E+03 0. -1.
<mgrwt>
<rscale>  2 0.49888724E+03</rscale>
<asrwt>0</asrwt>
<pdfrwt beam="1">  1       21 0.32223599E-01 0.49888724E+03</pdfrwt>
<pdfrwt beam="2">  1       21 0.38241784E+00 0.49888724E+03</pdfrwt>
<totfact> 0.75348424E+01</totfact>
</mgrwt>
</event>
<event>
 4    1  0.4675559E-002  0.4217165E+03  0.7818608E-02  0.1036509E+00
         21   -1    0    0  501  502  0.00000000000E+00  0.00000000000E+00  0.24419297632E+03  0.24419297632E+03  0.00000000000E+00 0.  1.
         21   -1    0    0  502  503 -0.00000000000E+00 -0.00000000000E+00 -0.16978613733E+04  0.16978613733E+04  0.00000000000E+00 0.  1.
    9000007    1    1    2  501    0  0.96841781726E+02 -0.92013510221E+02  0.69507067844E+01  0.42177378899E+03  0.40000000000E+03 0.  1.
   -9000007    1    1    2    0  503 -0.96841781726E+02  0.92013510221E+02 -0.14606191037E+04  0.15202805606E+04  0.40000000000E+03 0.  1.
<mgrwt>
<rscale>  2 0.42171651E+03</rscale>
<asrwt>0</asrwt>
<pdfrwt beam="1">  1       21 0.37568151E-01 0.42171651E+03</pdfrwt>
<pdfrwt beam="2">  1       21 0.26120944E+00 0.42171651E+03</pdfrwt>
<totfact> 0.31784109E+02</totfact>
</mgrwt>
</event>
<event>
 4    1  0.4675559E-002  0.4270460E+03  0.7818608E-02  0.1034797E+00
         21   -1    0    0  501  502  0.00000000000E+00  0.00000000000E+00  0.12648036377E+04  0.12648036377E+04  0.00000000000E+00 0. -1.
         21   -1    0    0  502  503 -0.00000000000E+00 -0.00000000000E+00 -0.14703600336E+03  0.14703600336E+03  0.00000000000E+00 0. -1.
    9000007    1    1    2  501    0  0.11826282152E+03  0.91554444466E+02  0.65714587267E+03  0.78371487751E+03  0.40000000000E+03 0. -1.
   -9000007    1    1    2    0  503 -0.11826282152E+03 -0.91554444466E+02  0.46062176166E+03  0.62812476354E+03  0.40000000000E+03 0. -1.
<mgrwt>
<rscale>  2 0.42704603E+03</rscale>
<asrwt>0</asrwt>
<pdfrwt beam="1">  1       21 0.19458517E+00 0.42704603E+03</pdfrwt>
<pdfrwt beam="2">  1       21 0.22620924E-01 0.42704603E+03</pdfrwt>
<totfact> 0.22850265E+03</totfact>
</mgrwt>
</event>
<event>
 4    1  0.4675559E-002  0.4345997E+03  0.7818608E-02  0.1032417E+00
         21   -1    0    0  503  502  0.00000000000E+00  0.00000000000E+00  0.74599229905E+03  0.74599229905E+03  0.00000000000E+00 0.  1.
         21   -1    0    0  501  503 -0.00000000000E+00 -0.00000000000E+00 -0.25568877597E+03  0.25568877597E+03  0.00000000000E+00 0.  1.
    9000007    1    1    2  501    0 -0.80108862572E+02  0.14986492851E+03  0.29467486725E+03  0.52508114044E+03  0.40000000000E+03 0.  1.
   -9000007    1    1    2    0  502  0.80108862572E+02 -0.14986492851E+03  0.19562865582E+03  0.47659993458E+03  0.40000000000E+03 0.  1.
<mgrwt>
<rscale>  2 0.43459973E+03</rscale>
<asrwt>0</asrwt>
<pdfrwt beam="1">  1       21 0.11476805E+00 0.43459973E+03</pdfrwt>
<pdfrwt beam="2">  1       21 0.39336735E-01 0.43459973E+03</pdfrwt>
<totfact> 0.32079426E+03</totfact>
</mgrwt>
</event>
<event>
 4    1  0.4675559E-002  0.4484449E+03  0.7818608E-02  0.1028187E+00
         21   -1    0    0  501  502  0.00000000000E+00  0.00000000000E+00  0.16254165659E+04  0.16254165659E+04  0.00000000000E+00 0.  1.
         21   -1    0    0  502  503 -0.00000000000E+00 -0.00000000000E+00 -0.12937483272E+03  0.12937483272E+03  0.00000000000E+00 0. -1.
    9000007    1    1    2  501    0 -0.17771213138E+03  0.97576605723E+02  0.56464905110E+03  0.72106265090E+03  0.40000000000E+03 0.  1.
   -9000007    1    1    2    0  503  0.17771213138E+03 -0.97576605723E+02  0.93139268208E+03  0.10337287477E+04  0.40000000000E+03 0. -1.
<mgrwt>
<rscale>  2 0.44844486E+03</rscale>
<asrwt>0</asrwt>
<pdfrwt beam="1">  1       21 0.25006407E+00 0.44844486E+03</pdfrwt>
<pdfrwt beam="2">  1       21 0.19903821E-01 0.44844486E+03</pdfrwt>
<totfact> 0.12777996E+03</totfact>
</mgrwt>
</event>
<event>
 4    1  0.4675559E-002  0.5131870E+03  0.7818608E-02  0.1010393E+00
         21   -1    0    0  501  502  0.00000000000E+00  0.00000000000E+00  0.96569622456E+03  0.96569622456E+03  0.00000000000E+00 0.  1.
         21   -1    0    0  502  503 -0.00000000000E+00 -0.00000000000E+00 -0.31400265877E+03  0.31400265877E+03  0.00000000000E+00 0. -1.
    9000007    1    1    2  501    0  0.18733029055E+03 -0.26128188149E+03  0.93831954926E+02  0.52169463781E+03  0.40000000000E+03 0. -1.
   -9000007    1    1    2    0  503 -0.18733029055E+03  0.26128188149E+03  0.55786161086E+03  0.75800424552E+03  0.40000000000E+03 0.  1.
<mgrwt>
<rscale>  2 0.51318696E+03</rscale>
<asrwt>0</asrwt>
<pdfrwt beam="1">  1       21 0.14856865E+00 0.51318696E+03</pdfrwt>
<pdfrwt beam="2">  1       21 0.48308102E-01 0.51318696E+03</pdfrwt>
<totfact> 0.10349928E+03</totfact>
</mgrwt>
</event>
<event>
 4    1  0.4675559E-002  0.5620151E+03  0.7818608E-02  0.9987505E-01
         21   -1    0    0  503  502  0.00000000000E+00  0.00000000000E+00  0.24390719333E+03  0.24390719333E+03  0.00000000000E+00 0.  1.
         21   -1    0    0  501  503 -0.00000000000E+00 -0.00000000000E+00 -0.13085329957E+04  0.13085329957E+04  0.00000000000E+00 0.  1.
    9000007    1    1    2  501    0  0.36550656047E+03  0.14921776422E+03 -0.61123750842E+03  0.83034467458E+03  0.40000000000E+03 0. -1.
   -9000007    1    1    2    0  502 -0.36550656047E+03 -0.14921776422E+03 -0.45338829395E+03  0.72209551445E+03  0.40000000000E+03 0. -1.
<mgrwt>
<rscale>  2 0.56201511E+03</rscale>
<asrwt>0</asrwt>
<pdfrwt beam="1">  1       21 0.37524182E-01 0.56201511E+03</pdfrwt>
<pdfrwt beam="2">  1       21 0.20131277E+00 0.56201511E+03</pdfrwt>
<totfact> 0.71385807E+02</totfact>
</mgrwt>
</event>
<event>
 4    1  0.4675559E-002  0.4342509E+03  0.7818608E-02  0.1032526E+00
         21   -1    0    0  503  502  0.00000000000E+00  0.00000000000E+00  0.65341223151E+03  0.65341223151E+03  0.00000000000E+00 0. -1.
         21   -1    0    0  501  503 -0.00000000000E+00 -0.00000000000E+00 -0.33818722088E+03  0.33818722088E+03  0.00000000000E+00 0. -1.
    9000007    1    1    2  501    0 -0.77404610119E+01 -0.16886056164E+03 -0.32241185589E+02  0.43544609088E+03  0.40000000000E+03 0. -1.
   -9000007    1    1    2    0  502  0.77404610119E+01  0.16886056164E+03  0.34746619621E+03  0.55615336151E+03  0.40000000000E+03 0. -1.
<mgrwt>
<rscale>  2 0.43425085E+03</rscale>
<asrwt>0</asrwt>
<pdfrwt beam="1">  1       21 0.10052496E+00 0.43425085E+03</pdfrwt>
<pdfrwt beam="2">  1       21 0.52028803E-01 0.43425085E+03</pdfrwt>
<totfact> 0.24766143E+03</totfact>
</mgrwt>
</event>
<event>
 4    1  0.4675559E-002  0.6786383E+03  0.7818608E-02  0.9754477E-01
         21   -1    0    0  501  502  0.00000000000E+00  0.00000000000E+00  0.16264040358E+04  0.16264040358E+04  0.00000000000E+00 0. -1.
         21   -1    0    0  502  503 -0.00000000000E+00 -0.00000000000E+00 -0.29174595478E+03  0.29174595478E+03  0.00000000000E+00 0. -1.
    9000007    1    1    2  501    0 -0.52314298956E+03 -0.16392481380E+03  0.83175646037E+03  0.10734843927E+04  0.40000000000E+03 0. -1.
   -9000007    1    1    2    0  503  0.52314298956E+03  0.16392481380E+03  0.50290162061E+03  0.84466559781E+03  0.40000000000E+03 0. -1.
<mgrwt>
<rscale>  2 0.67863829E+03</rscale>
<asrwt>0</asrwt>
<pdfrwt beam="1">  1       21 0.25021600E+00 0.67863829E+03</pdfrwt>
<pdfrwt beam="2">  1       21 0.44883994E-01 0.67863829E+03</pdfrwt>
<totfact> 0.22811392E+02</totfact>
</mgrwt>
</event>
<event>
 4    1  0.4675559E-002  0.5523457E+03  0.7818608E-02  0.1000952E+00
         21   -1    0    0  503  502  0.00000000000E+00  0.00000000000E+00  0.17441789122E+04  0.17441789122E+04  0.00000000000E+00 0. -1.
         21   -1    0    0  501  503 -0.00000000000E+00 -0.00000000000E+00 -0.17639254075E+03  0.17639254075E+03  0.00000000000E+00 0.  1.
    9000007    1    1    2  501    0 -0.15090497758E+03  0.34973345968E+03  0.87173437463E+03  0.10319915818E+04  0.40000000000E+03 0. -1.
   -9000007    1    1    2    0  502  0.15090497758E+03 -0.34973345968E+03  0.69605199684E+03  0.88857987113E+03  0.40000000000E+03 0.  1.
<mgrwt>
<rscale>  2 0.55234573E+03</rscale>
<asrwt>0</asrwt>
<pdfrwt beam="1">  1       21 0.26833521E+00 0.55234573E+03</pdfrwt>
<pdfrwt beam="2">  1       21 0.27137315E-01 0.55234573E+03</pdfrwt>
<totfact> 0.51663297E+02</totfact>
</mgrwt>
</event>
<event>
 4    1  0.4675559E-002  0.4069013E+03  0.7818608E-02  0.1041416E+00
         21   -1    0    0  503  502  0.00000000000E+00  0.00000000000E+00  0.46581896376E+03  0.46581896376E+03  0.00000000000E+00 0.  1.
         21   -1    0    0  501  503 -0.00000000000E+00 -0.00000000000E+00 -0.35944831417E+03  0.35944831417E+03  0.00000000000E+00 0.  1.
    9000007    1    1    2  501    0  0.11118213607E+02  0.73790529840E+02  0.95875945160E+01  0.40701422449E+03  0.40000000000E+03 0.  1.
   -9000007    1    1    2    0  502 -0.11118213607E+02 -0.73790529840E+02  0.96783055075E+02  0.41825305345E+03  0.40000000000E+03 0.  1.
<mgrwt>
<rscale>  2 0.40690129E+03</rscale>
<asrwt>0</asrwt>
<pdfrwt beam="1">  1       21 0.71664456E-01 0.40690129E+03</pdfrwt>
<pdfrwt beam="2">  1       21 0.55299740E-01 0.40690129E+03</pdfrwt>
<totfact> 0.48407613E+03</totfact>
</mgrwt>
</event>
<event>
 4    1  0.4675559E-002  0.4355786E+03  0.7818608E-02  0.1032112E+00
         21   -1    0    0  501  502  0.00000000000E+00  0.00000000000E+00  0.12123503892E+04  0.12123503892E+04  0.00000000000E+00 0.  1.
         21   -1    0    0  502  503 -0.00000000000E+00 -0.00000000000E+00 -0.16905983166E+03  0.16905983166E+03  0.00000000000E+00 0.  1.
    9000007    1    1    2  501    0 -0.14958467633E+03  0.85750590826E+02  0.33335722063E+03  0.54850321400E+03  0.40000000000E+03 0.  1.
   -9000007    1    1    2    0  503  0.14958467633E+03 -0.85750590826E+02  0.70993333689E+03  0.83290700684E+03  0.40000000000E+03 0.  1.
<mgrwt>
<rscale>  2 0.43557863E+03</rscale>
<asrwt>0</asrwt>
<pdfrwt beam="1">  1       21 0.18651544E+00 0.43557863E+03</pdfrwt>
<pdfrwt beam="2">  1       21 0.26009206E-01 0.43557863E+03</pdfrwt>
<totfact> 0.19716570E+03</totfact>
</mgrwt>
</event>
<event>
 4    1  0.4675559E-002  0.5367774E+03  0.7818608E-02  0.1004602E+00
         21   -1    0    0  501  502  0.00000000000E+00  0.00000000000E+00  0.16047450556E+03  0.16047450556E+03  0.00000000000E+00 0. -1.
         21   -1    0    0  502  503 -0.00000000000E+00 -0.00000000000E+00 -0.17968508232E+04  0.17968508232E+04  0.00000000000E+00 0. -1.
    9000007    1    1    2  501    0  0.25020245684E+02  0.35707701904E+03 -0.84514290888E+03  0.10011975563E+04  0.40000000000E+03 0. -1.
   -9000007    1    1    2    0  503 -0.25020245684E+02 -0.35707701904E+03 -0.79123340872E+03  0.95612777247E+03  0.40000000000E+03 0. -1.
<mgrwt>
<rscale>  2 0.53677743E+03</rscale>
<asrwt>0</asrwt>
<pdfrwt beam="1">  1       21 0.24688385E-01 0.53677743E+03</pdfrwt>
<pdfrwt beam="2">  1       21 0.27643859E+00 0.53677743E+03</pdfrwt>
<totfact> 0.55880524E+02</totfact>
</mgrwt>
</event>
<event>
 4    1  0.4675559E-002  0.4855405E+03  0.7818608E-02  0.1017624E+00
         21   -1    0    0  503  502  0.00000000000E+00  0.00000000000E+00  0.44512475566E+03  0.44512475566E+03  0.00000000000E+00 0. -1.
         21   -1    0    0  501  503 -0.00000000000E+00 -0.00000000000E+00 -0.54764486624E+03  0.54764486624E+03  0.00000000000E+00 0. -1.
    9000007    1    1    2  501    0  0.24427775056E+03  0.12679870844E+03 -0.14130010691E+03  0.50568295610E+03  0.40000000000E+03 0. -1.
   -9000007    1    1    2    0  502 -0.24427775056E+03 -0.12679870844E+03  0.38779996326E+02  0.48708666579E+03  0.40000000000E+03 0. -1.
<mgrwt>
<rscale>  2 0.48554045E+03</rscale>
<asrwt>0</asrwt>
<pdfrwt beam="1">  1       21 0.68480732E-01 0.48554045E+03</pdfrwt>
<pdfrwt beam="2">  1       21 0.84253056E-01 0.48554045E+03</pdfrwt>
<totfact> 0.20276639E+03</totfact>
</mgrwt>
</event>
<event>
 4    1  0.4675559E-002  0.4224709E+03  0.7818608E-02  0.1036265E+00
         21   -1    0    0  501  502  0.00000000000E+00  0.00000000000E+00  0.40536807589E+03  0.40536807589E+03  0.00000000000E+00 0. -1.
         21   -1    0    0  502  503 -0.00000000000E+00 -0.00000000000E+00 -0.45286991614E+03  0.45286991614E+03  0.00000000000E+00 0. -1.
    9000007    1    1    2  501    0 -0.13224336226E+03 -0.31517827787E+02 -0.95256090529E+02  0.43307667117E+03  0.40000000000E+03 0. -1.
   -9000007    1    1    2    0  503  0.13224336226E+03  0.31517827787E+02  0.47754250277E+02  0.42516132085E+03  0.40000000000E+03 0. -1.
<mgrwt>
<rscale>  2 0.42247092E+03</rscale>
<asrwt>0</asrwt>
<pdfrwt beam="1">  1       21 0.62364320E-01 0.42247092E+03</pdfrwt>
<pdfrwt beam="2">  1       21 0.69672295E-01 0.42247092E+03</pdfrwt>
<totfact> 0.39466123E+03</totfact>
</mgrwt>
</event>
<event>
 4    1  0.4675559E-002  0.4650880E+03  0.7818608E-02  0.1023316E+00
         21   -1    0    0  501  502  0.00000000000E+00  0.00000000000E+00  0.13357388391E+03  0.13357388391E+03  0.00000000000E+00 0.  1.
         21   -1    0    0  502  503 -0.00000000000E+00 -0.00000000000E+00 -0.16258255439E+04  0.16258255439E+04  0.00000000000E+00 0. -1.
    9000007    1    1    2  501    0 -0.85288914151E-01  0.23729062698E+03 -0.69073547806E+03  0.83271985060E+03  0.40000000000E+03 0.  1.
   -9000007    1    1    2    0  503  0.85288914151E-01 -0.23729062698E+03 -0.80151618192E+03  0.92667957721E+03  0.40000000000E+03 0.  1.
<mgrwt>
<rscale>  2 0.46508800E+03</rscale>
<asrwt>0</asrwt>
<pdfrwt beam="1">  1       21 0.20549830E-01 0.46508800E+03</pdfrwt>
<pdfrwt beam="2">  1       21 0.25012698E+00 0.46508800E+03</pdfrwt>
<totfact> 0.11916433E+03</totfact>
</mgrwt>
</event>
<event>
 4    1  0.4675559E-002  0.4370041E+03  0.7818608E-02  0.1031670E+00
         21   -1    0    0  503  502  0.00000000000E+00  0.00000000000E+00  0.17347545095E+03  0.17347545095E+03  0.00000000000E+00 0.  1.
         21   -1    0    0  501  503 -0.00000000000E+00 -0.00000000000E+00 -0.14970343334E+04  0.14970343334E+04  0.00000000000E+00 0. -1.
    9000007    1    1    2  501    0 -0.10576659927E+03  0.14066290532E+03 -0.10914592248E+04  0.11756937806E+04  0.40000000000E+03 0. -1.
   -9000007    1    1    2    0  502  0.10576659927E+03 -0.14066290532E+03 -0.23209965767E+03  0.49481600373E+03  0.40000000000E+03 0.  1.
<mgrwt>
<rscale>  2 0.43700415E+03</rscale>
<asrwt>0</asrwt>
<pdfrwt beam="1">  1       21 0.26688530E-01 0.43700415E+03</pdfrwt>
<pdfrwt beam="2">  1       21 0.23031298E+00 0.43700415E+03</pdfrwt>
<totfact> 0.96754261E+02</totfact>
</mgrwt>
</event>
<event>
 4    1  0.4675559E-002  0.4861851E+03  0.7818608E-02  0.1017449E+00
         21   -1    0    0  503  502  0.00000000000E+00  0.00000000000E+00  0.22888103387E+03  0.22888103387E+03  0.00000000000E+00 0.  1.
         21   -1    0    0  501  503 -0.00000000000E+00 -0.00000000000E+00 -0.13138575439E+04  0.13138575439E+04  0.00000000000E+00 0. -1.
    9000007    1    1    2  501    0  0.26955689707E+03 -0.60950831272E+02 -0.89929060433E+03  0.10223010885E+04  0.40000000000E+03 0. -1.
   -9000007    1    1    2    0  502 -0.26955689707E+03  0.60950831272E+02 -0.18568590566E+03  0.52043748919E+03  0.40000000000E+03 0.  1.
<mgrwt>
<rscale>  2 0.48618507E+03</rscale>
<asrwt>0</asrwt>
<pdfrwt beam="1">  1       21 0.35212466E-01 0.48618507E+03</pdfrwt>
<pdfrwt beam="2">  1       21 0.20213194E+00 0.48618507E+03</pdfrwt>
<totfact> 0.82723695E+02</totfact>
</mgrwt>
</event>
<event>
 4    1  0.4675559E-002  0.4510019E+03  0.7818608E-02  0.1027424E+00
         21   -1    0    0  503  502  0.00000000000E+00  0.00000000000E+00  0.59233266844E+03  0.59233266844E+03  0.00000000000E+00 0.  1.
         21   -1    0    0  501  503 -0.00000000000E+00 -0.00000000000E+00 -0.35793339617E+03  0.35793339617E+03  0.00000000000E+00 0. -1.
    9000007    1    1    2  501    0  0.17240170527E+03  0.11696306235E+03  0.21434611396E+02  0.45151096166E+03  0.40000000000E+03 0. -1.
   -9000007    1    1    2    0  502 -0.17240170527E+03 -0.11696306235E+03  0.21296466088E+03  0.49875510295E+03  0.40000000000E+03 0.  1.
<mgrwt>
<rscale>  2 0.45100189E+03</rscale>
<asrwt>0</asrwt>
<pdfrwt beam="1">  1       21 0.91128103E-01 0.45100189E+03</pdfrwt>
<pdfrwt beam="2">  1       21 0.55066676E-01 0.45100189E+03</pdfrwt>
<totfact> 0.27576314E+03</totfact>
</mgrwt>
</event>
<event>
 4    1  0.4675559E-002  0.4434407E+03  0.7818608E-02  0.1029696E+00
         21   -1    0    0  503  502  0.00000000000E+00  0.00000000000E+00  0.93666127620E+03  0.93666127620E+03  0.00000000000E+00 0.  1.
         21   -1    0    0  501  503 -0.00000000000E+00 -0.00000000000E+00 -0.38178818409E+03  0.38178818409E+03  0.00000000000E+00 0. -1.
    9000007    1    1    2  501    0 -0.18012309804E+03 -0.64771511549E+02 -0.16484493536E+03  0.47308934872E+03  0.40000000000E+03 0. -1.
   -9000007    1    1    2    0  502  0.18012309804E+03  0.64771511549E+02  0.71971802747E+03  0.84536011157E+03  0.40000000000E+03 0.  1.
<mgrwt>
<rscale>  2 0.44344073E+03</rscale>
<asrwt>0</asrwt>
<pdfrwt beam="1">  1       21 0.14410173E+00 0.44344073E+03</pdfrwt>
<pdfrwt beam="2">  1       21 0.58736644E-01 0.44344073E+03</pdfrwt>
<totfact> 0.75939324E+02</totfact>
</mgrwt>
</event>
<event>
 4    1  0.4675559E-002  0.4432764E+03  0.7818608E-02  0.1029746E+00
         21   -1    0    0  501  502  0.00000000000E+00  0.00000000000E+00  0.10078955018E+04  0.10078955018E+04  0.00000000000E+00 0.  1.
         21   -1    0    0  502  503 -0.00000000000E+00 -0.00000000000E+00 -0.29086360291E+03  0.29086360291E+03  0.00000000000E+00 0.  1.
    9000007    1    1    2  501    0  0.12607495428E+03 -0.14352386823E+03 -0.14376263974E+02  0.44350949462E+03  0.40000000000E+03 0.  1.
   -9000007    1    1    2    0  503 -0.12607495428E+03  0.14352386823E+03  0.73140816284E+03  0.85524961006E+03  0.40000000000E+03 0.  1.
<mgrwt>
<rscale>  2 0.44327643E+03</rscale>
<asrwt>0</asrwt>
<pdfrwt beam="1">  1       21 0.15506085E+00 0.44327643E+03</pdfrwt>
<pdfrwt beam="2">  1       21 0.44748247E-01 0.44327643E+03</pdfrwt>
<totfact> 0.11129256E+03</totfact>
</mgrwt>
</event>
<event>
 4    1  0.4675559E-002  0.4185450E+03  0.7818608E-02  0.1037541E+00
         21   -1    0    0  501  502  0.00000000000E+00  0.00000000000E+00  0.21715600912E+04  0.21715600912E+04  0.00000000000E+00 0.  1.
         21   -1    0    0  502  503 -0.00000000000E+00 -0.00000000000E+00 -0.11364912874E+03  0.11364912874E+03  0.00000000000E+00 0.  1.
    9000007    1    1    2  501    0 -0.97460685726E+02 -0.75374589010E+02  0.16444610921E+04  0.16968889762E+04  0.40000000000E+03 0.  1.
   -9000007    1    1    2    0  503  0.97460685726E+02  0.75374589010E+02  0.41344987030E+03  0.58832024373E+03  0.40000000000E+03 0.  1.
<mgrwt>
<rscale>  2 0.41854500E+03</rscale>
<asrwt>0</asrwt>
<pdfrwt beam="1">  1       21 0.33408614E+00 0.41854500E+03</pdfrwt>
<pdfrwt beam="2">  1       21 0.17484483E-01 0.41854500E+03</pdfrwt>
<totfact> 0.51641023E+02</totfact>
</mgrwt>
</event>
<event>
 4    1  0.4675559E-002  0.4664995E+03  0.7818608E-02  0.1022913E+00
         21   -1    0    0  503  502  0.00000000000E+00  0.00000000000E+00  0.10769045721E+04  0.10769045721E+04  0.00000000000E+00 0.  1.
         21   -1    0    0  501  503 -0.00000000000E+00 -0.00000000000E+00 -0.23055290263E+03  0.23055290263E+03  0.00000000000E+00 0.  1.
    9000007    1    1    2  501    0 -0.14703734127E+03  0.18974141279E+03  0.19344371283E+03  0.50501708237E+03  0.40000000000E+03 0.  1.
   -9000007    1    1    2    0  502  0.14703734127E+03 -0.18974141279E+03  0.65290795667E+03  0.80244039239E+03  0.40000000000E+03 0.  1.
<mgrwt>
<rscale>  2 0.46649950E+03</rscale>
<asrwt>0</asrwt>
<pdfrwt beam="1">  1       21 0.16567762E+00 0.46649950E+03</pdfrwt>
<pdfrwt beam="2">  1       21 0.35469678E-01 0.46649950E+03</pdfrwt>
<totfact> 0.14786845E+03</totfact>
</mgrwt>
</event>
<event>
 4    1  0.4675559E-002  0.4206583E+03  0.7818608E-02  0.1036852E+00
         21   -1    0    0  501  502  0.00000000000E+00  0.00000000000E+00  0.29322335814E+03  0.29322335814E+03  0.00000000000E+00 0.  1.
         21   -1    0    0  502  503 -0.00000000000E+00 -0.00000000000E+00 -0.13883576100E+04  0.13883576100E+04  0.00000000000E+00 0.  1.
    9000007    1    1    2  501    0  0.12637397587E+03  0.31353242773E+02  0.84610399323E+02  0.42908312398E+03  0.40000000000E+03 0.  1.
   -9000007    1    1    2    0  503 -0.12637397587E+03 -0.31353242773E+02 -0.11797446512E+04  0.12524978441E+04  0.40000000000E+03 0.  1.
<mgrwt>
<rscale>  2 0.42065830E+03</rscale>
<asrwt>0</asrwt>
<pdfrwt beam="1">  1       21 0.45111285E-01 0.42065830E+03</pdfrwt>
<pdfrwt beam="2">  1       21 0.21359348E+00 0.42065830E+03</pdfrwt>
<totfact> 0.43132910E+02</totfact>
</mgrwt>
</event>
<event>
 4    1  0.4675559E-002  0.4825742E+03  0.7818608E-02  0.1018430E+00
         21   -1    0    0  501  502  0.00000000000E+00  0.00000000000E+00  0.12566542392E+04  0.12566542392E+04  0.00000000000E+00 0. -1.
         21   -1    0    0  502  503 -0.00000000000E+00 -0.00000000000E+00 -0.44285013079E+03  0.44285013079E+03  0.00000000000E+00 0. -1.
    9000007    1    1    2  501    0 -0.11018364591E+03  0.24644957113E+03  0.10549117534E+04  0.11600502723E+04  0.40000000000E+03 0. -1.
   -9000007    1    1    2    0  503  0.11018364591E+03 -0.24644957113E+03 -0.24110764503E+03  0.53945409761E+03  0.40000000000E+03 0. -1.
<mgrwt>
<rscale>  2 0.48257417E+03</rscale>
<asrwt>0</asrwt>
<pdfrwt beam="1">  1       21 0.19333142E+00 0.48257417E+03</pdfrwt>
<pdfrwt beam="2">  1       21 0.68130790E-01 0.48257417E+03</pdfrwt>
<totfact> 0.23308063E+02</totfact>
</mgrwt>
</event>
<event>
 4    1  0.4675559E-002  0.5570878E+03  0.7818608E-02  0.9998666E-01
         21   -1    0    0  501  502  0.00000000000E+00  0.00000000000E+00  0.62450424993E+03  0.62450424993E+03  0.00000000000E+00 0.  1.
         21   -1    0    0  502  503 -0.00000000000E+00 -0.00000000000E+00 -0.63113613221E+03  0.63113613221E+03  0.00000000000E+00 0.  1.
    9000007    1    1    2  501    0  0.27400720069E+03 -0.27434802494E+03 -0.29280298714E+03  0.62934916707E+03  0.40000000000E+03 0.  1.
   -9000007    1    1    2    0  503 -0.27400720069E+03  0.27434802494E+03  0.28617110486E+03  0.62629121507E+03  0.40000000000E+03 0.  1.
<mgrwt>
<rscale>  2 0.55708777E+03</rscale>
<asrwt>0</asrwt>
<pdfrwt beam="1">  1       21 0.96077577E-01 0.55708777E+03</pdfrwt>
<pdfrwt beam="2">  1       21 0.97097866E-01 0.55708777E+03</pdfrwt>
<totfact> 0.64177189E+02</totfact>
</mgrwt>
</event>
<event>
 4    1  0.4675559E-002  0.6525646E+03  0.7818608E-02  0.9801979E-01
         21   -1    0    0  503  502  0.00000000000E+00  0.00000000000E+00  0.22134634963E+04  0.22134634963E+04  0.00000000000E+00 0.  1.
         21   -1    0    0  501  503 -0.00000000000E+00 -0.00000000000E+00 -0.26965447369E+03  0.26965447369E+03  0.00000000000E+00 0.  1.
    9000007    1    1    2  501    0  0.16057569549E+03  0.48995508321E+03  0.30730005373E+03  0.72130011823E+03  0.40000000000E+03 0.  1.
   -9000007    1    1    2    0  502 -0.16057569549E+03 -0.48995508321E+03  0.16365089689E+04  0.17618178518E+04  0.40000000000E+03 0.  1.
<mgrwt>
<rscale>  2 0.65256458E+03</rscale>
<asrwt>0</asrwt>
<pdfrwt beam="1">  1       21 0.34053283E+00 0.65256458E+03</pdfrwt>
<pdfrwt beam="2">  1       21 0.41485305E-01 0.65256458E+03</pdfrwt>
<totfact> 0.75684401E+01</totfact>
</mgrwt>
</event>
<event>
 4    1  0.4675559E-002  0.5213276E+03  0.7818608E-02  0.1008357E+00
         21   -1    0    0  503  502  0.00000000000E+00  0.00000000000E+00  0.40760733194E+03  0.40760733194E+03  0.00000000000E+00 0.  1.
         21   -1    0    0  501  503 -0.00000000000E+00 -0.00000000000E+00 -0.71117107422E+03  0.71117107422E+03  0.00000000000E+00 0. -1.
    9000007    1    1    2  501    0 -0.31578204730E+03  0.10983706791E+03 -0.29154675646E+03  0.59731230867E+03  0.40000000000E+03 0. -1.
   -9000007    1    1    2    0  502  0.31578204730E+03 -0.10983706791E+03 -0.12016985829E+02  0.52146609749E+03  0.40000000000E+03 0.  1.
<mgrwt>
<rscale>  2 0.52132762E+03</rscale>
<asrwt>0</asrwt>
<pdfrwt beam="1">  1       21 0.62708820E-01 0.52132762E+03</pdfrwt>
<pdfrwt beam="2">  1       21 0.10941093E+00 0.52132762E+03</pdfrwt>
<totfact> 0.12974957E+03</totfact>
</mgrwt>
</event>
<event>
 4    1  0.4675559E-002  0.6095592E+03  0.7818608E-02  0.9885770E-01
         21   -1    0    0  501  502  0.00000000000E+00  0.00000000000E+00  0.58266472941E+03  0.58266472941E+03  0.00000000000E+00 0.  1.
         21   -1    0    0  502  503 -0.00000000000E+00 -0.00000000000E+00 -0.68374809538E+03  0.68374809538E+03  0.00000000000E+00 0.  1.
    9000007    1    1    2  501    0 -0.41018534838E+03 -0.20811155895E+03  0.11379185153E+03  0.62008953101E+03  0.40000000000E+03 0.  1.
   -9000007    1    1    2    0  503  0.41018534838E+03  0.20811155895E+03 -0.21487521750E+03  0.64632329378E+03  0.40000000000E+03 0.  1.
<mgrwt>
<rscale>  2 0.60955922E+03</rscale>
<asrwt>0</asrwt>
<pdfrwt beam="1">  1       21 0.89640727E-01 0.60955922E+03</pdfrwt>
<pdfrwt beam="2">  1       21 0.10519202E+00 0.60955922E+03</pdfrwt>
<totfact> 0.61200270E+02</totfact>
</mgrwt>
</event>
<event>
 4    1  0.4675559E-002  0.4077771E+03  0.7818608E-02  0.1041120E+00
         21   -1    0    0  503  502  0.00000000000E+00  0.00000000000E+00  0.26474855579E+03  0.26474855579E+03  0.00000000000E+00 0. -1.
         21   -1    0    0  501  503 -0.00000000000E+00 -0.00000000000E+00 -0.63166277773E+03  0.63166277773E+03  0.00000000000E+00 0. -1.
    9000007    1    1    2  501    0  0.54662474166E+02  0.57395018870E+02 -0.21723216087E+03  0.46203028687E+03  0.40000000000E+03 0.  1.
   -9000007    1    1    2    0  502 -0.54662474166E+02 -0.57395018870E+02 -0.14968206108E+03  0.43438104664E+03  0.40000000000E+03 0.  1.
<mgrwt>
<rscale>  2 0.40777711E+03</rscale>
<asrwt>0</asrwt>
<pdfrwt beam="1">  1       21 0.40730548E-01 0.40777711E+03</pdfrwt>
<pdfrwt beam="2">  1       21 0.97178888E-01 0.40777711E+03</pdfrwt>
<totfact> 0.45381349E+03</totfact>
</mgrwt>
</event>
<event>
 4    1  0.4675559E-002  0.5998467E+03  0.7818608E-02  0.9905724E-01
         21   -1    0    0  503  502  0.00000000000E+00  0.00000000000E+00  0.66055772756E+03  0.66055772756E+03  0.00000000000E+00 0. -1.
         21   -1    0    0  501  503 -0.00000000000E+00 -0.00000000000E+00 -0.79551312180E+03  0.79551312180E+03  0.00000000000E+00 0. -1.
    9000007    1    1    2  501    0  0.34152446075E+03 -0.28840432907E+03 -0.47625857231E+03  0.76592313062E+03  0.40000000000E+03 0. -1.
   -9000007    1    1    2    0  502 -0.34152446075E+03  0.28840432907E+03  0.34130317807E+03  0.69014771874E+03  0.40000000000E+03 0. -1.
<mgrwt>
<rscale>  2 0.59984666E+03</rscale>
<asrwt>0</asrwt>
<pdfrwt beam="1">  1       21 0.10162427E+00 0.59984666E+03</pdfrwt>
<pdfrwt beam="2">  1       21 0.12238663E+00 0.59984666E+03</pdfrwt>
<totfact> 0.30937555E+02</totfact>
</mgrwt>
</event>
<event>
 4    1  0.4675559E-002  0.4127864E+03  0.7818608E-02  0.1039440E+00
         21   -1    0    0  501  502  0.00000000000E+00  0.00000000000E+00  0.64103285166E+03  0.64103285166E+03  0.00000000000E+00 0.  1.
         21   -1    0    0  502  503 -0.00000000000E+00 -0.00000000000E+00 -0.27230693604E+03  0.27230693604E+03  0.00000000000E+00 0.  1.
    9000007    1    1    2  501    0  0.98424879460E+02 -0.26555150028E+02  0.25490425752E+03  0.48514823857E+03  0.40000000000E+03 0.  1.
   -9000007    1    1    2    0  503 -0.98424879460E+02  0.26555150028E+02  0.11382165811E+03  0.42819154913E+03  0.40000000000E+03 0.  1.
<mgrwt>
<rscale>  2 0.41278643E+03</rscale>
<asrwt>0</asrwt>
<pdfrwt beam="1">  1       21 0.98620438E-01 0.41278643E+03</pdfrwt>
<pdfrwt beam="2">  1       21 0.41893375E-01 0.41278643E+03</pdfrwt>
<totfact> 0.41248985E+03</totfact>
</mgrwt>
</event>
<event>
 4    1  0.4675559E-002  0.4227591E+03  0.7818608E-02  0.1036172E+00
         21   -1    0    0  503  502  0.00000000000E+00  0.00000000000E+00  0.55986933371E+02  0.55986933371E+02  0.00000000000E+00 0.  1.
         21   -1    0    0  501  503 -0.00000000000E+00 -0.00000000000E+00 -0.32015650976E+04  0.32015650976E+04  0.00000000000E+00 0.  1.
    9000007    1    1    2  501    0 -0.13574615425E+03  0.17270288296E+02 -0.14850162788E+04  0.15440202814E+04  0.40000000000E+03 0.  1.
   -9000007    1    1    2    0  502  0.13574615425E+03 -0.17270288296E+02 -0.16605618855E+04  0.17135317495E+04  0.40000000000E+03 0.  1.
<mgrwt>
<rscale>  2 0.42275913E+03</rscale>
<asrwt>0</asrwt>
<pdfrwt beam="1">  1       21 0.86133729E-02 0.42275913E+03</pdfrwt>
<pdfrwt beam="2">  1       21 0.49254856E+00 0.42275913E+03</pdfrwt>
<totfact> 0.17384383E+02</totfact>
</mgrwt>
</event>
<event>
 4    1  0.4675559E-002  0.4402136E+03  0.7818608E-02  0.1030681E+00
         21   -1    0    0  503  502  0.00000000000E+00  0.00000000000E+00  0.58282219717E+03  0.58282219717E+03  0.00000000000E+00 0.  1.
         21   -1    0    0  501  503 -0.00000000000E+00 -0.00000000000E+00 -0.12372134179E+04  0.12372134179E+04  0.00000000000E+00 0.  1.
    9000007    1    1    2  501    0  0.18251600537E+03  0.21814676621E+02 -0.11053813427E+04  0.11898133825E+04  0.40000000000E+03 0.  1.
   -9000007    1    1    2    0  502 -0.18251600537E+03 -0.21814676621E+02  0.45099012198E+03  0.63022223259E+03  0.40000000000E+03 0.  1.
<mgrwt>
<rscale>  2 0.44021355E+03</rscale>
<asrwt>0</asrwt>
<pdfrwt beam="1">  1       21 0.89664955E-01 0.44021355E+03</pdfrwt>
<pdfrwt beam="2">  1       21 0.19034052E+00 0.44021355E+03</pdfrwt>
<totfact> 0.13273685E+02</totfact>
</mgrwt>
</event>
<event>
 4    1  0.4675559E-002  0.4765944E+03  0.7818608E-02  0.1020075E+00
         21   -1    0    0  503  502  0.00000000000E+00  0.00000000000E+00  0.13319665150E+03  0.13319665150E+03  0.00000000000E+00 0.  1.
         21   -1    0    0  501  503 -0.00000000000E+00 -0.00000000000E+00 -0.17825502296E+04  0.17825502296E+04  0.00000000000E+00 0.  1.
    9000007    1    1    2  501    0 -0.69660526047E+02  0.24957889980E+03 -0.62529034314E+03  0.78621258533E+03  0.40000000000E+03 0.  1.
   -9000007    1    1    2    0  502  0.69660526047E+02 -0.24957889980E+03 -0.10240632350E+04  0.11295342958E+04  0.40000000000E+03 0.  1.
<mgrwt>
<rscale>  2 0.47659439E+03</rscale>
<asrwt>0</asrwt>
<pdfrwt beam="1">  1       21 0.20491793E-01 0.47659439E+03</pdfrwt>
<pdfrwt beam="2">  1       21 0.27423850E+00 0.47659439E+03</pdfrwt>
<totfact> 0.84922276E+02</totfact>
</mgrwt>
</event>
<event>
 4    1  0.4675559E-002  0.4053594E+03  0.7818608E-02  0.1041940E+00
         21   -1    0    0  503  502  0.00000000000E+00  0.00000000000E+00  0.22061425514E+03  0.22061425514E+03  0.00000000000E+00 0.  1.
         21   -1    0    0  501  503 -0.00000000000E+00 -0.00000000000E+00 -0.80350263708E+03  0.80350263708E+03  0.00000000000E+00 0.  1.
    9000007    1    1    2  501    0  0.65415029877E+02 -0.60903664009E+01 -0.15305280782E+03  0.43329133464E+03  0.40000000000E+03 0. -1.
   -9000007    1    1    2    0  502 -0.65415029877E+02  0.60903664009E+01 -0.42983557413E+03  0.59082555757E+03  0.40000000000E+03 0. -1.
<mgrwt>
<rscale>  2 0.40535937E+03</rscale>
<asrwt>0</asrwt>
<pdfrwt beam="1">  1       21 0.33940655E-01 0.40535937E+03</pdfrwt>
<pdfrwt beam="2">  1       21 0.12361579E+00 0.40535937E+03</pdfrwt>
<totfact> 0.36285778E+03</totfact>
</mgrwt>
</event>
<event>
 4    1  0.4675559E-002  0.6067626E+03  0.7818608E-02  0.9891474E-01
         21   -1    0    0  503  502  0.00000000000E+00  0.00000000000E+00  0.11138743453E+04  0.11138743453E+04  0.00000000000E+00 0. -1.
         21   -1    0    0  501  503 -0.00000000000E+00 -0.00000000000E+00 -0.39037565717E+03  0.39037565717E+03  0.00000000000E+00 0.  1.
    9000007    1    1    2  501    0  0.43891070920E+03  0.12457212220E+03  0.67245311975E+02  0.61047748219E+03  0.40000000000E+03 0.  1.
   -9000007    1    1    2    0  502 -0.43891070920E+03 -0.12457212220E+03  0.65625337618E+03  0.89377252029E+03  0.40000000000E+03 0. -1.
<mgrwt>
<rscale>  2 0.60676258E+03</rscale>
<asrwt>0</asrwt>
<pdfrwt beam="1">  1       21 0.17136528E+00 0.60676258E+03</pdfrwt>
<pdfrwt beam="2">  1       21 0.60057794E-01 0.60676258E+03</pdfrwt>
<totfact> 0.41891318E+02</totfact>
</mgrwt>
</event>
<event>
 4    1  0.4675559E-002  0.4076070E+03  0.7818608E-02  0.1041177E+00
         21   -1    0    0  501  502  0.00000000000E+00  0.00000000000E+00  0.82417039390E+03  0.82417039390E+03  0.00000000000E+00 0. -1.
         21   -1    0    0  502  503 -0.00000000000E+00 -0.00000000000E+00 -0.22220908053E+03  0.22220908053E+03  0.00000000000E+00 0. -1.
    9000007    1    1    2  501    0 -0.94491701689E+01  0.77808831108E+02  0.46035773146E+03  0.61487620049E+03  0.40000000000E+03 0. -1.
   -9000007    1    1    2    0  503  0.94491701689E+01 -0.77808831108E+02  0.14160358191E+03  0.43150327394E+03  0.40000000000E+03 0. -1.
<mgrwt>
<rscale>  2 0.40760704E+03</rscale>
<asrwt>0</asrwt>
<pdfrwt beam="1">  1       21 0.12679544E+00 0.40760704E+03</pdfrwt>
<pdfrwt beam="2">  1       21 0.34186013E-01 0.40760704E+03</pdfrwt>
<totfact> 0.33477568E+03</totfact>
</mgrwt>
</event>
<event>
 4    1  0.4675559E-002  0.5190242E+03  0.7818608E-02  0.1008929E+00
         21   -1    0    0  501  502  0.00000000000E+00  0.00000000000E+00  0.10231296880E+04  0.10231296880E+04  0.00000000000E+00 0. -1.
         21   -1    0    0  502  503 -0.00000000000E+00 -0.00000000000E+00 -0.29224167635E+03  0.29224167635E+03  0.00000000000E+00 0. -1.
    9000007    1    1    2  501    0 -0.50677144668E+02 -0.32683009704E+03  0.57242868596E+03  0.77269702073E+03  0.40000000000E+03 0. -1.
   -9000007    1    1    2    0  503  0.50677144668E+02  0.32683009704E+03  0.15845932567E+03  0.54267434361E+03  0.40000000000E+03 0. -1.
<mgrwt>
<rscale>  2 0.51902417E+03</rscale>
<asrwt>0</asrwt>
<pdfrwt beam="1">  1       21 0.15740457E+00 0.51902417E+03</pdfrwt>
<pdfrwt beam="2">  1       21 0.44960259E-01 0.51902417E+03</pdfrwt>
<totfact> 0.10254925E+03</totfact>
</mgrwt>
</event>
<event>
 4    1  0.4675559E-002  0.5133420E+03  0.7818608E-02  0.1010354E+00
         21   -1    0    0  501  502  0.00000000000E+00  0.00000000000E+00  0.47174997296E+03  0.47174997296E+03  0.00000000000E+00 0.  1.
         21   -1    0    0  502  503 -0.00000000000E+00 -0.00000000000E+00 -0.59412535308E+03  0.59412535308E+03  0.00000000000E+00 0.  1.
    9000007    1    1    2  501    0 -0.31039736807E+03 -0.84696615782E+02  0.69128984957E+02  0.51797573243E+03  0.40000000000E+03 0.  1.
   -9000007    1    1    2    0  503  0.31039736807E+03  0.84696615782E+02 -0.19150436508E+03  0.54789959361E+03  0.40000000000E+03 0.  1.
<mgrwt>
<rscale>  2 0.51334203E+03</rscale>
<asrwt>0</asrwt>
<pdfrwt beam="1">  1       21 0.72576919E-01 0.51334203E+03</pdfrwt>
<pdfrwt beam="2">  1       21 0.91403900E-01 0.51334203E+03</pdfrwt>
<totfact> 0.14530529E+03</totfact>
</mgrwt>
</event>
<event>
 4    1  0.4675559E-002  0.4257588E+03  0.7818608E-02  0.1035208E+00
         21   -1    0    0  503  502  0.00000000000E+00  0.00000000000E+00  0.18294683739E+04  0.18294683739E+04  0.00000000000E+00 0. -1.
         21   -1    0    0  501  503 -0.00000000000E+00 -0.00000000000E+00 -0.18577150862E+03  0.18577150862E+03  0.00000000000E+00 0. -1.
    9000007    1    1    2  501    0  0.76365456445E+02  0.12425326805E+03  0.13353518680E+03  0.44620869968E+03  0.40000000000E+03 0. -1.
   -9000007    1    1    2    0  502 -0.76365456445E+02 -0.12425326805E+03  0.15101616785E+04  0.15690311828E+04  0.40000000000E+03 0. -1.
<mgrwt>
<rscale>  2 0.42575880E+03</rscale>
<asrwt>0</asrwt>
<pdfrwt beam="1">  1       21 0.28145666E+00 0.42575880E+03</pdfrwt>
<pdfrwt beam="2">  1       21 0.28580233E-01 0.42575880E+03</pdfrwt>
<totfact> 0.41415617E+02</totfact>
</mgrwt>
</event>
<event>
 4    1  0.4675559E-002  0.5991662E+03  0.7818608E-02  0.9907137E-01
         21   -1    0    0  503  502  0.00000000000E+00  0.00000000000E+00  0.73067342725E+03  0.73067342725E+03  0.00000000000E+00 0. -1.
         21   -1    0    0  501  503 -0.00000000000E+00 -0.00000000000E+00 -0.63858336965E+03  0.63858336965E+03  0.00000000000E+00 0.  1.
    9000007    1    1    2  501    0  0.42920377973E+03  0.12159052358E+03 -0.28271728502E+03  0.66251732295E+03  0.40000000000E+03 0. -1.
   -9000007    1    1    2    0  502 -0.42920377973E+03 -0.12159052358E+03  0.37480734262E+03  0.70673947395E+03  0.40000000000E+03 0. -1.
<mgrwt>
<rscale>  2 0.59916620E+03</rscale>
<asrwt>0</asrwt>
<pdfrwt beam="1">  1       21 0.11241130E+00 0.59916620E+03</pdfrwt>
<pdfrwt beam="2">  1       21 0.98243596E-01 0.59916620E+03</pdfrwt>
<totfact> 0.41724844E+02</totfact>
</mgrwt>
</event>
<event>
 4    1  0.4675559E-002  0.5126129E+03  0.7818608E-02  0.1010538E+00
         21   -1    0    0  503  502  0.00000000000E+00  0.00000000000E+00  0.86428736682E+03  0.86428736682E+03  0.00000000000E+00 0.  1.
         21   -1    0    0  501  503 -0.00000000000E+00 -0.00000000000E+00 -0.31441117548E+03  0.31441117548E+03  0.00000000000E+00 0. -1.
    9000007    1    1    2  501    0  0.31811359423E+03  0.39695327382E+02  0.16786461423E+03  0.53939828194E+03  0.40000000000E+03 0. -1.
   -9000007    1    1    2    0  502 -0.31811359423E+03 -0.39695327382E+02  0.38201157710E+03  0.63930026036E+03  0.40000000000E+03 0.  1.
<mgrwt>
<rscale>  2 0.51261289E+03</rscale>
<asrwt>0</asrwt>
<pdfrwt beam="1">  1       21 0.13296729E+00 0.51261289E+03</pdfrwt>
<pdfrwt beam="2">  1       21 0.48370950E-01 0.51261289E+03</pdfrwt>
<totfact> 0.13886159E+03</totfact>
</mgrwt>
</event>
<event>
 4    1  0.4675559E-002  0.5915663E+03  0.7818608E-02  0.9923059E-01
         21   -1    0    0  501  502  0.00000000000E+00  0.00000000000E+00  0.36440221196E+03  0.36440221196E+03  0.00000000000E+00 0.  1.
         21   -1    0    0  502  503 -0.00000000000E+00 -0.00000000000E+00 -0.99812777654E+03  0.99812777654E+03  0.00000000000E+00 0.  1.
    9000007    1    1    2  501    0 -0.24257673627E+03 -0.36208730151E+03 -0.18431021027E+03  0.61961354125E+03  0.40000000000E+03 0.  1.
   -9000007    1    1    2    0  503  0.24257673627E+03  0.36208730151E+03 -0.44941535431E+03  0.74291644725E+03  0.40000000000E+03 0.  1.
<mgrwt>
<rscale>  2 0.59156630E+03</rscale>
<asrwt>0</asrwt>
<pdfrwt beam="1">  1       21 0.56061879E-01 0.59156630E+03</pdfrwt>
<pdfrwt beam="2">  1       21 0.15355812E+00 0.59156630E+03</pdfrwt>
<totfact> 0.66782177E+02</totfact>
</mgrwt>
</event>
<event>
 4    1  0.4675559E-002  0.4106224E+03  0.7818608E-02  0.1040162E+00
         21   -1    0    0  501  502  0.00000000000E+00  0.00000000000E+00  0.17012050995E+03  0.17012050995E+03  0.00000000000E+00 0.  1.
         21   -1    0    0  502  503 -0.00000000000E+00 -0.00000000000E+00 -0.11400241166E+04  0.11400241166E+04  0.00000000000E+00 0.  1.
    9000007    1    1    2  501    0  0.91254938778E+02 -0.16830624219E+02 -0.24820838506E+03  0.47981052112E+03  0.40000000000E+03 0.  1.
   -9000007    1    1    2    0  503 -0.91254938778E+02  0.16830624219E+02 -0.72169522154E+03  0.83033410538E+03  0.40000000000E+03 0.  1.
<mgrwt>
<rscale>  2 0.41062237E+03</rscale>
<asrwt>0</asrwt>
<pdfrwt beam="1">  1       21 0.26172386E-01 0.41062237E+03</pdfrwt>
<pdfrwt beam="2">  1       21 0.17538833E+00 0.41062237E+03</pdfrwt>
<totfact> 0.23566020E+03</totfact>
</mgrwt>
</event>
<event>
 4    1  0.4675559E-002  0.5523777E+03  0.7818608E-02  0.1000945E+00
         21   -1    0    0  503  502  0.00000000000E+00  0.00000000000E+00  0.10840431086E+04  0.10840431086E+04  0.00000000000E+00 0. -1.
         21   -1    0    0  501  503 -0.00000000000E+00 -0.00000000000E+00 -0.31360869435E+03  0.31360869435E+03  0.00000000000E+00 0. -1.
    9000007    1    1    2  501    0  0.84413491382E+02  0.37147747750E+03  0.16149100163E+03  0.57550021497E+03  0.40000000000E+03 0. -1.
   -9000007    1    1    2    0  502 -0.84413491382E+02 -0.37147747750E+03  0.60894341258E+03  0.82215158793E+03  0.40000000000E+03 0. -1.
<mgrwt>
<rscale>  2 0.55237773E+03</rscale>
<asrwt>0</asrwt>
<pdfrwt beam="1">  1       21 0.16677586E+00 0.55237773E+03</pdfrwt>
<pdfrwt beam="2">  1       21 0.48247492E-01 0.55237773E+03</pdfrwt>
<totfact> 0.74158138E+02</totfact>
</mgrwt>
</event>
<event>
 4    1  0.4675559E-002  0.6421027E+03  0.7818608E-02  0.9821712E-01
         21   -1    0    0  503  502  0.00000000000E+00  0.00000000000E+00  0.34548600718E+03  0.34548600718E+03  0.00000000000E+00 0. -1.
         21   -1    0    0  501  503 -0.00000000000E+00 -0.00000000000E+00 -0.17934367980E+04  0.17934367980E+04  0.00000000000E+00 0. -1.
    9000007    1    1    2  501    0  0.44142801443E+03 -0.23966055922E+03 -0.13425875988E+04  0.14882329575E+04  0.40000000000E+03 0. -1.
   -9000007    1    1    2    0  502 -0.44142801443E+03  0.23966055922E+03 -0.10536319205E+03  0.65068984763E+03  0.40000000000E+03 0. -1.
<mgrwt>
<rscale>  2 0.64210270E+03</rscale>
<asrwt>0</asrwt>
<pdfrwt beam="1">  1       21 0.53151693E-01 0.64210270E+03</pdfrwt>
<pdfrwt beam="2">  1       21 0.27591336E+00 0.64210270E+03</pdfrwt>
<totfact> 0.11178916E+02</totfact>
</mgrwt>
</event>
<event>
 4    1  0.4675559E-002  0.4457261E+03  0.7818608E-02  0.1029004E+00
         21   -1    0    0  503  502  0.00000000000E+00  0.00000000000E+00  0.38703407957E+03  0.38703407957E+03  0.00000000000E+00 0. -1.
         21   -1    0    0  501  503 -0.00000000000E+00 -0.00000000000E+00 -0.10854197815E+04  0.10854197815E+04  0.00000000000E+00 0. -1.
    9000007    1    1    2  501    0 -0.18572925232E+03  0.64624763990E+02 -0.88369484631E+03  0.98974153024E+03  0.40000000000E+03 0. -1.
   -9000007    1    1    2    0  502  0.18572925232E+03 -0.64624763990E+02  0.18530914442E+03  0.48271233079E+03  0.40000000000E+03 0. -1.
<mgrwt>
<rscale>  2 0.44572605E+03</rscale>
<asrwt>0</asrwt>
<pdfrwt beam="1">  1       21 0.59543706E-01 0.44572605E+03</pdfrwt>
<pdfrwt beam="2">  1       21 0.16698765E+00 0.44572605E+03</pdfrwt>
<totfact> 0.49081340E+02</totfact>
</mgrwt>
</event>
<event>
 4    1  0.4675559E-002  0.4101752E+03  0.7818608E-02  0.1040312E+00
         21   -1    0    0  501  502  0.00000000000E+00  0.00000000000E+00  0.11081380204E+04  0.11081380204E+04  0.00000000000E+00 0. -1.
         21   -1    0    0  502  503 -0.00000000000E+00 -0.00000000000E+00 -0.33906476347E+03  0.33906476347E+03  0.00000000000E+00 0. -1.
    9000007    1    1    2  501    0  0.61402834658E+02  0.66883510976E+02  0.92225691105E+03  0.10093569845E+04  0.40000000000E+03 0. -1.
   -9000007    1    1    2    0  503 -0.61402834658E+02 -0.66883510976E+02 -0.15318365413E+03  0.43784579938E+03  0.40000000000E+03 0. -1.
<mgrwt>
<rscale>  2 0.41017522E+03</rscale>
<asrwt>0</asrwt>
<pdfrwt beam="1">  1       21 0.17048277E+00 0.41017522E+03</pdfrwt>
<pdfrwt beam="2">  1       21 0.52163810E-01 0.41017522E+03</pdfrwt>
<totfact> 0.62693126E+02</totfact>
</mgrwt>
</event>
<event>
 4    1  0.4675559E-002  0.5346533E+03  0.7818608E-02  0.1005110E+00
         21   -1    0    0  503  502  0.00000000000E+00  0.00000000000E+00  0.62133678935E+03  0.62133678935E+03  0.00000000000E+00 0. -1.
         21   -1    0    0  501  503 -0.00000000000E+00 -0.00000000000E+00 -0.72975677525E+03  0.72975677525E+03  0.00000000000E+00 0.  1.
    9000007    1    1    2  501    0  0.26273671055E+03  0.23837706510E+03 -0.46488818910E+03  0.70850210486E+03  0.40000000000E+03 0.  1.
   -9000007    1    1    2    0  502 -0.26273671055E+03 -0.23837706510E+03  0.35646820320E+03  0.64259145974E+03  0.40000000000E+03 0. -1.
<mgrwt>
<rscale>  2 0.53465335E+03</rscale>
<asrwt>0</asrwt>
<pdfrwt beam="1">  1       21 0.95590276E-01 0.53465335E+03</pdfrwt>
<pdfrwt beam="2">  1       21 0.11227027E+00 0.53465335E+03</pdfrwt>
<totfact> 0.45777008E+02</totfact>
</mgrwt>
</event>
<event>
 4    1  0.4675559E-002  0.4720474E+03  0.7818608E-02  0.1021344E+00
         21   -1    0    0  501  502  0.00000000000E+00  0.00000000000E+00  0.70807909006E+03  0.70807909006E+03  0.00000000000E+00 0. -1.
         21   -1    0    0  502  503 -0.00000000000E+00 -0.00000000000E+00 -0.32898512260E+03  0.32898512260E+03  0.00000000000E+00 0.  1.
    9000007    1    1    2  501    0  0.15010782435E+03  0.20073970186E+03  0.29761793779E+03  0.55803693761E+03  0.40000000000E+03 0. -1.
   -9000007    1    1    2    0  503 -0.15010782435E+03 -0.20073970186E+03  0.81476029660E+02  0.47902727505E+03  0.40000000000E+03 0.  1.
<mgrwt>
<rscale>  2 0.47204744E+03</rscale>
<asrwt>0</asrwt>
<pdfrwt beam="1">  1       21 0.10893524E+00 0.47204744E+03</pdfrwt>
<pdfrwt beam="2">  1       21 0.50613096E-01 0.47204744E+03</pdfrwt>
<totfact> 0.21259220E+03</totfact>
</mgrwt>
</event>
<event>
 4    1  0.4675559E-002  0.4065375E+03  0.7818608E-02  0.1041539E+00
         21   -1    0    0  501  502  0.00000000000E+00  0.00000000000E+00  0.78943591873E+03  0.78943591873E+03  0.00000000000E+00 0. -1.
         21   -1    0    0  502  503 -0.00000000000E+00 -0.00000000000E+00 -0.39754554722E+03  0.39754554722E+03  0.00000000000E+00 0.  1.
    9000007    1    1    2  501    0 -0.21324758234E+02  0.69411548648E+02  0.60428232698E+03  0.72830614380E+03  0.40000000000E+03 0. -1.
   -9000007    1    1    2    0  503  0.21324758234E+02 -0.69411548648E+02 -0.21239195547E+03  0.45867532215E+03  0.40000000000E+03 0.  1.
<mgrwt>
<rscale>  2 0.40653746E+03</rscale>
<asrwt>0</asrwt>
<pdfrwt beam="1">  1       21 0.12145168E+00 0.40653746E+03</pdfrwt>
<pdfrwt beam="2">  1       21 0.61160853E-01 0.40653746E+03</pdfrwt>
<totfact> 0.11039131E+03</totfact>
</mgrwt>
</event>
<event>
 4    1  0.4675559E-002  0.4358490E+03  0.7818608E-02  0.1032028E+00
         21   -1    0    0  503  502  0.00000000000E+00  0.00000000000E+00  0.44596884130E+03  0.44596884130E+03  0.00000000000E+00 0.  1.
         21   -1    0    0  501  503 -0.00000000000E+00 -0.00000000000E+00 -0.42597272774E+03  0.42597272774E+03  0.00000000000E+00 0.  1.
    9000007    1    1    2  501    0 -0.39166576659E+02  0.16861292449E+03  0.12493664969E+02  0.43602801595E+03  0.40000000000E+03 0.  1.
   -9000007    1    1    2    0  502  0.39166576659E+02 -0.16861292449E+03  0.75024485840E+01  0.43591355309E+03  0.40000000000E+03 0.  1.
<mgrwt>
<rscale>  2 0.43584899E+03</rscale>
<asrwt>0</asrwt>
<pdfrwt beam="1">  1       21 0.68610591E-01 0.43584899E+03</pdfrwt>
<pdfrwt beam="2">  1       21 0.65534266E-01 0.43584899E+03</pdfrwt>
<totfact> 0.36429682E+03</totfact>
</mgrwt>
</event>
<event>
 4    1  0.4675559E-002  0.4150275E+03  0.7818608E-02  0.1038697E+00
         21   -1    0    0  501  502  0.00000000000E+00  0.00000000000E+00  0.14026708675E+03  0.14026708675E+03  0.00000000000E+00 0.  1.
         21   -1    0    0  502  503 -0.00000000000E+00 -0.00000000000E+00 -0.14132941077E+04  0.14132941077E+04  0.00000000000E+00 0.  1.
    9000007    1    1    2  501    0  0.70660007649E+02  0.85176360072E+02 -0.35524959707E+03  0.54630588978E+03  0.40000000000E+03 0.  1.
   -9000007    1    1    2    0  503 -0.70660007649E+02 -0.85176360072E+02 -0.91777742385E+03  0.10072553046E+04  0.40000000000E+03 0.  1.
<mgrwt>
<rscale>  2 0.41502753E+03</rscale>
<asrwt>0</asrwt>
<pdfrwt beam="1">  1       21 0.21579551E-01 0.41502753E+03</pdfrwt>
<pdfrwt beam="2">  1       21 0.21742987E+00 0.41502753E+03</pdfrwt>
<totfact> 0.17807169E+03</totfact>
</mgrwt>
</event>
<event>
 4    1  0.4675559E-002  0.4779113E+03  0.7818608E-02  0.1019711E+00
         21   -1    0    0  503  502  0.00000000000E+00  0.00000000000E+00  0.83917847942E+03  0.83917847942E+03  0.00000000000E+00 0.  1.
         21   -1    0    0  501  503 -0.00000000000E+00 -0.00000000000E+00 -0.32706533725E+03  0.32706533725E+03  0.00000000000E+00 0. -1.
    9000007    1    1    2  501    0  0.19481315513E+03  0.17449068061E+03  0.17159935506E+02  0.47821922422E+03  0.40000000000E+03 0. -1.
   -9000007    1    1    2    0  502 -0.19481315513E+03 -0.17449068061E+03  0.49495320666E+03  0.68802459245E+03  0.40000000000E+03 0.  1.
<mgrwt>
<rscale>  2 0.47791125E+03</rscale>
<asrwt>0</asrwt>
<pdfrwt beam="1">  1       21 0.12910438E+00 0.47791125E+03</pdfrwt>
<pdfrwt beam="2">  1       21 0.50317745E-01 0.47791125E+03</pdfrwt>
<totfact> 0.13963827E+03</totfact>
</mgrwt>
</event>
<event>
 4    1  0.4675559E-002  0.5089445E+03  0.7818608E-02  0.1011470E+00
         21   -1    0    0  501  502  0.00000000000E+00  0.00000000000E+00  0.10929072288E+03  0.10929072288E+03  0.00000000000E+00 0.  1.
         21   -1    0    0  502  503 -0.00000000000E+00 -0.00000000000E+00 -0.26322284623E+04  0.26322284623E+04  0.00000000000E+00 0.  1.
    9000007    1    1    2  501    0 -0.27886135234E+03 -0.14581109047E+03 -0.82885779895E+03  0.97264062162E+03  0.40000000000E+03 0.  1.
   -9000007    1    1    2    0  503  0.27886135234E+03  0.14581109047E+03 -0.16940799404E+04  0.17688785635E+04  0.40000000000E+03 0.  1.
<mgrwt>
<rscale>  2 0.50894452E+03</rscale>
<asrwt>0</asrwt>
<pdfrwt beam="1">  1       21 0.16813959E-01 0.50894452E+03</pdfrwt>
<pdfrwt beam="2">  1       21 0.40495817E+00 0.50894452E+03</pdfrwt>
<totfact> 0.18962274E+02</totfact>
</mgrwt>
</event>
<event>
 4    1  0.4675559E-002  0.4262413E+03  0.7818608E-02  0.1035054E+00
         21   -1    0    0  501  502  0.00000000000E+00  0.00000000000E+00  0.30225928045E+03  0.30225928045E+03  0.00000000000E+00 0.  1.
         21   -1    0    0  502  503 -0.00000000000E+00 -0.00000000000E+00 -0.69507622095E+03  0.69507622095E+03  0.00000000000E+00 0. -1.
    9000007    1    1    2  501    0 -0.14000180979E+03  0.45619260768E+02 -0.13027948757E+02  0.42644032542E+03  0.40000000000E+03 0.  1.
   -9000007    1    1    2    0  503  0.14000180979E+03 -0.45619260768E+02 -0.37978899174E+03  0.57089517597E+03  0.40000000000E+03 0. -1.
<mgrwt>
<rscale>  2 0.42624127E+03</rscale>
<asrwt>0</asrwt>
<pdfrwt beam="1">  1       21 0.46501428E-01 0.42624127E+03</pdfrwt>
<pdfrwt beam="2">  1       21 0.10693480E+00 0.42624127E+03</pdfrwt>
<totfact> 0.27087979E+03</totfact>
</mgrwt>
</event>
<event>
 4    1  0.4675559E-002  0.7332576E+03  0.7818608E-02  0.9661989E-01
         21   -1    0    0  501  502  0.00000000000E+00  0.00000000000E+00  0.12809414358E+04  0.12809414358E+04  0.00000000000E+00 0.  1.
         21   -1    0    0  502  503 -0.00000000000E+00 -0.00000000000E+00 -0.72380479123E+03  0.72380479123E+03  0.00000000000E+00 0.  1.
    9000007    1    1    2  501    0 -0.19086408016E+02  0.61424945191E+03  0.92824808681E+03  0.11829248458E+04  0.40000000000E+03 0.  1.
   -9000007    1    1    2    0  503  0.19086408016E+02 -0.61424945191E+03 -0.37111144221E+03  0.82182138125E+03  0.40000000000E+03 0.  1.
<mgrwt>
<rscale>  2 0.73325758E+03</rscale>
<asrwt>0</asrwt>
<pdfrwt beam="1">  1       21 0.19706791E+00 0.73325758E+03</pdfrwt>
<pdfrwt beam="2">  1       21 0.11135458E+00 0.73325758E+03</pdfrwt>
<totfact> 0.61774022E+01</totfact>
</mgrwt>
</event>
<event>
 4    1  0.4675559E-002  0.4272738E+03  0.7818608E-02  0.1034725E+00
         21   -1    0    0  503  502  0.00000000000E+00  0.00000000000E+00  0.65903818629E+03  0.65903818629E+03  0.00000000000E+00 0. -1.
         21   -1    0    0  501  503 -0.00000000000E+00 -0.00000000000E+00 -0.29270050279E+03  0.29270050279E+03  0.00000000000E+00 0. -1.
    9000007    1    1    2  501    0 -0.28872606590E+02  0.14740853861E+03  0.73005538897E+02  0.43346593104E+03  0.40000000000E+03 0. -1.
   -9000007    1    1    2    0  502  0.28872606590E+02 -0.14740853861E+03  0.29333214460E+03  0.51827275803E+03  0.40000000000E+03 0. -1.
<mgrwt>
<rscale>  2 0.42727381E+03</rscale>
<asrwt>0</asrwt>
<pdfrwt beam="1">  1       21 0.10139049E+00 0.42727381E+03</pdfrwt>
<pdfrwt beam="2">  1       21 0.45030847E-01 0.42727381E+03</pdfrwt>
<totfact> 0.33007151E+03</totfact>
</mgrwt>
</event>
<event>
 4    1  0.4675559E-002  0.4635407E+03  0.7818608E-02  0.1023759E+00
         21   -1    0    0  501  502  0.00000000000E+00  0.00000000000E+00  0.34918629120E+03  0.34918629120E+03  0.00000000000E+00 0. -1.
         21   -1    0    0  502  503 -0.00000000000E+00 -0.00000000000E+00 -0.84043233016E+03  0.84043233016E+03  0.00000000000E+00 0. -1.
    9000007    1    1    2  501    0 -0.23023503997E+03  0.43148196016E+02  0.62200768455E+02  0.46769528119E+03  0.40000000000E+03 0. -1.
   -9000007    1    1    2    0  503  0.23023503997E+03 -0.43148196016E+02 -0.55344680741E+03  0.72192334017E+03  0.40000000000E+03 0. -1.
<mgrwt>
<rscale>  2 0.46354066E+03</rscale>
<asrwt>0</asrwt>
<pdfrwt beam="1">  1       21 0.53720967E-01 0.46354066E+03</pdfrwt>
<pdfrwt beam="2">  1       21 0.12929728E+00 0.46354066E+03</pdfrwt>
<totfact> 0.12158562E+03</totfact>
</mgrwt>
</event>
<event>
 4    1  0.4675559E-002  0.4711611E+03  0.7818608E-02  0.1021593E+00
         21   -1    0    0  501  502  0.00000000000E+00  0.00000000000E+00  0.38602776865E+03  0.38602776865E+03  0.00000000000E+00 0. -1.
         21   -1    0    0  502  503 -0.00000000000E+00 -0.00000000000E+00 -0.14710805104E+04  0.14710805104E+04  0.00000000000E+00 0.  1.
    9000007    1    1    2  501    0  0.16910709210E+03 -0.18274446290E+03  0.18215269068E+03  0.50514587006E+03  0.40000000000E+03 0. -1.
   -9000007    1    1    2    0  503 -0.16910709210E+03  0.18274446290E+03 -0.12672054325E+04  0.13519624090E+04  0.40000000000E+03 0.  1.
<mgrwt>
<rscale>  2 0.47116106E+03</rscale>
<asrwt>0</asrwt>
<pdfrwt beam="1">  1       21 0.59388888E-01 0.47116106E+03</pdfrwt>
<pdfrwt beam="2">  1       21 0.22632008E+00 0.47116106E+03</pdfrwt>
<totfact> 0.19328229E+02</totfact>
</mgrwt>
</event>
<event>
 4    1  0.4675559E-002  0.4719828E+03  0.7818608E-02  0.1021362E+00
         21   -1    0    0  503  502  0.00000000000E+00  0.00000000000E+00  0.18615145130E+04  0.18615145130E+04  0.00000000000E+00 0.  1.
         21   -1    0    0  501  503 -0.00000000000E+00 -0.00000000000E+00 -0.28793353955E+03  0.28793353955E+03  0.00000000000E+00 0. -1.
    9000007    1    1    2  501    0 -0.50559810311E+02  0.24538033224E+03 -0.34781439216E+02  0.47326266532E+03  0.40000000000E+03 0.  1.
   -9000007    1    1    2    0  502  0.50559810311E+02 -0.24538033224E+03  0.16083624127E+04  0.16761853873E+04  0.40000000000E+03 0.  1.
<mgrwt>
<rscale>  2 0.47198284E+03</rscale>
<asrwt>0</asrwt>
<pdfrwt beam="1">  1       21 0.28638684E+00 0.47198284E+03</pdfrwt>
<pdfrwt beam="2">  1       21 0.44297469E-01 0.47198284E+03</pdfrwt>
<totfact> 0.15464774E+02</totfact>
</mgrwt>
</event>
<event>
 4    1  0.4675559E-002  0.4279899E+03  0.7818608E-02  0.1034497E+00
         21   -1    0    0  501  502  0.00000000000E+00  0.00000000000E+00  0.25479955131E+03  0.25479955131E+03  0.00000000000E+00 0.  1.
         21   -1    0    0  502  503 -0.00000000000E+00 -0.00000000000E+00 -0.15852555846E+04  0.15852555846E+04  0.00000000000E+00 0.  1.
    9000007    1    1    2  501    0 -0.12317942584E+03  0.89454852326E+02  0.14913584627E+02  0.42824964280E+03  0.40000000000E+03 0.  1.
   -9000007    1    1    2    0  503  0.12317942584E+03 -0.89454852326E+02 -0.13453696180E+04  0.14118054931E+04  0.40000000000E+03 0.  1.
<mgrwt>
<rscale>  2 0.42798988E+03</rscale>
<asrwt>0</asrwt>
<pdfrwt beam="1">  1       21 0.39199931E-01 0.42798988E+03</pdfrwt>
<pdfrwt beam="2">  1       21 0.24388547E+00 0.42798988E+03</pdfrwt>
<totfact> 0.37049156E+02</totfact>
</mgrwt>
</event>
<event>
 4    1  0.4675559E-002  0.4331671E+03  0.7818608E-02  0.1032864E+00
         21   -1    0    0  501  502  0.00000000000E+00  0.00000000000E+00  0.47514813680E+03  0.47514813680E+03  0.00000000000E+00 0. -1.
         21   -1    0    0  502  503 -0.00000000000E+00 -0.00000000000E+00 -0.52671127660E+03  0.52671127660E+03  0.00000000000E+00 0. -1.
    9000007    1    1    2  501    0  0.13621510076E+03 -0.95284790208E+02  0.22481468612E+03  0.48803215879E+03  0.40000000000E+03 0. -1.
   -9000007    1    1    2    0  503 -0.13621510076E+03  0.95284790208E+02 -0.27637782591E+03  0.51382725461E+03  0.40000000000E+03 0. -1.
<mgrwt>
<rscale>  2 0.43316711E+03</rscale>
<asrwt>0</asrwt>
<pdfrwt beam="1">  1       21 0.73099713E-01 0.43316711E+03</pdfrwt>
<pdfrwt beam="2">  1       21 0.81032504E-01 0.43316711E+03</pdfrwt>
<totfact> 0.19533131E+03</totfact>
</mgrwt>
</event>
<event>
 4    1  0.4675559E-002  0.5224360E+03  0.7818608E-02  0.1008083E+00
         21   -1    0    0  503  502  0.00000000000E+00  0.00000000000E+00  0.28873398959E+04  0.28873398959E+04  0.00000000000E+00 0.  1.
         21   -1    0    0  501  503 -0.00000000000E+00 -0.00000000000E+00 -0.96341974177E+02  0.96341974177E+02  0.00000000000E+00 0.  1.
    9000007    1    1    2  501    0 -0.31831150556E+03  0.10778293076E+03  0.11908890453E+04  0.13004445751E+04  0.40000000000E+03 0.  1.
   -9000007    1    1    2    0  502  0.31831150556E+03 -0.10778293076E+03  0.16001088764E+04  0.16832372949E+04  0.40000000000E+03 0.  1.
<mgrwt>
<rscale>  2 0.52243600E+03</rscale>
<asrwt>0</asrwt>
<pdfrwt beam="1">  1       21 0.44420607E+00 0.52243600E+03</pdfrwt>
<pdfrwt beam="2">  1       21 0.14821844E-01 0.52243600E+03</pdfrwt>
<totfact> 0.13105669E+02</totfact>
</mgrwt>
</event>
<event>
 4    1  0.4675559E-002  0.4473883E+03  0.7818608E-02  0.1028504E+00
         21   -1    0    0  503  502  0.00000000000E+00  0.00000000000E+00  0.12233242929E+04  0.12233242929E+04  0.00000000000E+00 0. -1.
         21   -1    0    0  501  503 -0.00000000000E+00 -0.00000000000E+00 -0.18454973187E+03  0.18454973187E+03  0.00000000000E+00 0. -1.
    9000007    1    1    2  501    0 -0.19042945735E+03  0.62393380766E+02  0.28230837251E+03  0.52901259850E+03  0.40000000000E+03 0. -1.
   -9000007    1    1    2    0  502  0.19042945735E+03 -0.62393380766E+02  0.75646618850E+03  0.87886142624E+03  0.40000000000E+03 0. -1.
<mgrwt>
<rscale>  2 0.44738832E+03</rscale>
<asrwt>0</asrwt>
<pdfrwt beam="1">  1       21 0.18820373E+00 0.44738832E+03</pdfrwt>
<pdfrwt beam="2">  1       21 0.28392267E-01 0.44738832E+03</pdfrwt>
<totfact> 0.16078590E+03</totfact>
</mgrwt>
</event>
<event>
 4    1  0.4675559E-002  0.5771181E+03  0.7818608E-02  0.9954050E-01
         21   -1    0    0  503  502  0.00000000000E+00  0.00000000000E+00  0.59194523909E+03  0.59194523909E+03  0.00000000000E+00 0. -1.
         21   -1    0    0  501  503 -0.00000000000E+00 -0.00000000000E+00 -0.58391542546E+03  0.58391542546E+03  0.00000000000E+00 0.  1.
    9000007    1    1    2  501    0  0.14916451787E+03 -0.38834937856E+03 -0.10815126285E+03  0.58716436274E+03  0.40000000000E+03 0.  1.
   -9000007    1    1    2    0  502 -0.14916451787E+03  0.38834937856E+03  0.11618107648E+03  0.58869630180E+03  0.40000000000E+03 0. -1.
<mgrwt>
<rscale>  2 0.57711809E+03</rscale>
<asrwt>0</asrwt>
<pdfrwt beam="1">  1       21 0.91068499E-01 0.57711809E+03</pdfrwt>
<pdfrwt beam="2">  1       21 0.89833142E-01 0.57711809E+03</pdfrwt>
<totfact> 0.87389134E+02</totfact>
</mgrwt>
</event>
<event>
 4    1  0.4675559E-002  0.7368165E+03  0.7818608E-02  0.9656263E-01
         21   -1    0    0  501  502  0.00000000000E+00  0.00000000000E+00  0.67010277942E+03  0.67010277942E+03  0.00000000000E+00 0. -1.
         21   -1    0    0  502  503 -0.00000000000E+00 -0.00000000000E+00 -0.82555205040E+03  0.82555205040E+03  0.00000000000E+00 0.  1.
    9000007    1    1    2  501    0 -0.14199505691E+03 -0.60227564611E+03  0.24347491726E+02  0.73721865850E+03  0.40000000000E+03 0.  1.
   -9000007    1    1    2    0  503  0.14199505691E+03  0.60227564611E+03 -0.17979676270E+03  0.75843617132E+03  0.40000000000E+03 0. -1.
<mgrwt>
<rscale>  2 0.73681650E+03</rscale>
<asrwt>0</asrwt>
<pdfrwt beam="1">  1       21 0.10309274E+00 0.73681650E+03</pdfrwt>
<pdfrwt beam="2">  1       21 0.12700801E+00 0.73681650E+03</pdfrwt>
<totfact> 0.25966830E+02</totfact>
</mgrwt>
</event>
<event>
 4    1  0.4675559E-002  0.4969816E+03  0.7818608E-02  0.1014570E+00
         21   -1    0    0  503  502  0.00000000000E+00  0.00000000000E+00  0.61544100426E+03  0.61544100426E+03  0.00000000000E+00 0.  1.
         21   -1    0    0  501  503 -0.00000000000E+00 -0.00000000000E+00 -0.59832344111E+03  0.59832344111E+03  0.00000000000E+00 0.  1.
    9000007    1    1    2  501    0  0.28182410301E+02 -0.29359237327E+03 -0.33967414094E+03  0.60197113877E+03  0.40000000000E+03 0.  1.
   -9000007    1    1    2    0  502 -0.28182410301E+02  0.29359237327E+03  0.35679170408E+03  0.61179330660E+03  0.40000000000E+03 0.  1.
<mgrwt>
<rscale>  2 0.49698162E+03</rscale>
<asrwt>0</asrwt>
<pdfrwt beam="1">  1       21 0.94683232E-01 0.49698162E+03</pdfrwt>
<pdfrwt beam="2">  1       21 0.92049760E-01 0.49698162E+03</pdfrwt>
<totfact> 0.77244598E+02</totfact>
</mgrwt>
</event>
<event>
 4    1  0.4675559E-002  0.4507024E+03  0.7818608E-02  0.1027513E+00
         21   -1    0    0  503  502  0.00000000000E+00  0.00000000000E+00  0.28118622706E+03  0.28118622706E+03  0.00000000000E+00 0.  1.
         21   -1    0    0  501  503 -0.00000000000E+00 -0.00000000000E+00 -0.73562806835E+03  0.73562806835E+03  0.00000000000E+00 0. -1.
    9000007    1    1    2  501    0 -0.11932313286E+03  0.16998429339E+03 -0.15907932658E+03  0.47795282422E+03  0.40000000000E+03 0.  1.
   -9000007    1    1    2    0  502  0.11932313286E+03 -0.16998429339E+03 -0.29536251471E+03  0.53886147119E+03  0.40000000000E+03 0.  1.
<mgrwt>
<rscale>  2 0.45070242E+03</rscale>
<asrwt>0</asrwt>
<pdfrwt beam="1">  1       21 0.43259420E-01 0.45070242E+03</pdfrwt>
<pdfrwt beam="2">  1       21 0.11317355E+00 0.45070242E+03</pdfrwt>
<totfact> 0.27127436E+03</totfact>
</mgrwt>
</event>
<event>
 4    1  0.4675559E-002  0.4976501E+03  0.7818608E-02  0.1014394E+00
         21   -1    0    0  503  502  0.00000000000E+00  0.00000000000E+00  0.15259402191E+04  0.15259402191E+04  0.00000000000E+00 0. -1.
         21   -1    0    0  501  503 -0.00000000000E+00 -0.00000000000E+00 -0.16887291082E+03  0.16887291082E+03  0.00000000000E+00 0. -1.
    9000007    1    1    2  501    0 -0.14113135306E+03  0.26026432750E+03  0.51131354419E+03  0.71351042001E+03  0.40000000000E+03 0. -1.
   -9000007    1    1    2    0  502  0.14113135306E+03 -0.26026432750E+03  0.84575376405E+03  0.98130270986E+03  0.40000000000E+03 0. -1.
<mgrwt>
<rscale>  2 0.49765006E+03</rscale>
<asrwt>0</asrwt>
<pdfrwt beam="1">  1       21 0.23476002E+00 0.49765006E+03</pdfrwt>
<pdfrwt beam="2">  1       21 0.25980449E-01 0.49765006E+03</pdfrwt>
<totfact> 0.92939617E+02</totfact>
</mgrwt>
</event>
<event>
 4    1  0.4675559E-002  0.7098547E+03  0.7818608E-02  0.9700526E-01
         21   -1    0    0  501  502  0.00000000000E+00  0.00000000000E+00  0.33495924152E+03  0.33495924152E+03  0.00000000000E+00 0. -1.
         21   -1    0    0  502  503 -0.00000000000E+00 -0.00000000000E+00 -0.17668242423E+04  0.17668242423E+04  0.00000000000E+00 0. -1.
    9000007    1    1    2  501    0  0.42603271683E+03 -0.40297626162E+03 -0.31088116982E+03  0.77494570454E+03  0.40000000000E+03 0. -1.
   -9000007    1    1    2    0  503 -0.42603271683E+03  0.40297626162E+03 -0.11209838309E+04  0.13268377793E+04  0.40000000000E+03 0. -1.
<mgrwt>
<rscale>  2 0.70985473E+03</rscale>
<asrwt>0</asrwt>
<pdfrwt beam="1">  1       21 0.51532191E-01 0.70985473E+03</pdfrwt>
<pdfrwt beam="2">  1       21 0.27181911E+00 0.70985473E+03</pdfrwt>
<totfact> 0.12330611E+02</totfact>
</mgrwt>
</event>
<event>
 4    1  0.4675559E-002  0.4061446E+03  0.7818608E-02  0.1041673E+00
         21   -1    0    0  503  502  0.00000000000E+00  0.00000000000E+00  0.69904694901E+03  0.69904694901E+03  0.00000000000E+00 0.  1.
         21   -1    0    0  501  503 -0.00000000000E+00 -0.00000000000E+00 -0.26517784595E+03  0.26517784595E+03  0.00000000000E+00 0.  1.
    9000007    1    1    2  501    0  0.41083976820E+02  0.57145170931E+02  0.56928538801E+02  0.41011501099E+03  0.40000000000E+03 0.  1.
   -9000007    1    1    2    0  502 -0.41083976820E+02 -0.57145170931E+02  0.37694056425E+03  0.55410978397E+03  0.40000000000E+03 0.  1.
<mgrwt>
<rscale>  2 0.40614463E+03</rscale>
<asrwt>0</asrwt>
<pdfrwt beam="1">  1       21 0.10754568E+00 0.40614463E+03</pdfrwt>
<pdfrwt beam="2">  1       21 0.40796592E-01 0.40614463E+03</pdfrwt>
<totfact> 0.35350251E+03</totfact>
</mgrwt>
</event>
<event>
 4    1  0.4675559E-002  0.4905556E+03  0.7818608E-02  0.1016274E+00
         21   -1    0    0  501  502  0.00000000000E+00  0.00000000000E+00  0.19862048153E+03  0.19862048153E+03  0.00000000000E+00 0.  1.
         21   -1    0    0  502  503 -0.00000000000E+00 -0.00000000000E+00 -0.16461522963E+04  0.16461522963E+04  0.00000000000E+00 0.  1.
    9000007    1    1    2  501    0 -0.16205839774E+03  0.23319910980E+03 -0.24984209484E+03  0.55051414282E+03  0.40000000000E+03 0.  1.
   -9000007    1    1    2    0  503  0.16205839774E+03 -0.23319910980E+03 -0.11976897200E+04  0.12942586350E+04  0.40000000000E+03 0.  1.
<mgrwt>
<rscale>  2 0.49055555E+03</rscale>
<asrwt>0</asrwt>
<pdfrwt beam="1">  1       21 0.30556998E-01 0.49055555E+03</pdfrwt>
<pdfrwt beam="2">  1       21 0.25325419E+00 0.49055555E+03</pdfrwt>
<totfact> 0.51942817E+02</totfact>
</mgrwt>
</event>
<event>
 4    1  0.4675559E-002  0.6214364E+03  0.7818608E-02  0.9861904E-01
         21   -1    0    0  503  502  0.00000000000E+00  0.00000000000E+00  0.37570857677E+03  0.37570857677E+03  0.00000000000E+00 0.  1.
         21   -1    0    0  501  503 -0.00000000000E+00 -0.00000000000E+00 -0.10991972490E+04  0.10991972490E+04  0.00000000000E+00 0. -1.
    9000007    1    1    2  501    0  0.30291557208E+03 -0.36664059313E+03 -0.54958737060E+03  0.82959595362E+03  0.40000000000E+03 0. -1.
   -9000007    1    1    2    0  502 -0.30291557208E+03  0.36664059313E+03 -0.17390130159E+03  0.64530987210E+03  0.40000000000E+03 0.  1.
<mgrwt>
<rscale>  2 0.62143638E+03</rscale>
<asrwt>0</asrwt>
<pdfrwt beam="1">  1       21 0.57801320E-01 0.62143638E+03</pdfrwt>
<pdfrwt beam="2">  1       21 0.16910727E+00 0.62143638E+03</pdfrwt>
<totfact> 0.47115265E+02</totfact>
</mgrwt>
</event>
<event>
 4    1  0.4675559E-002  0.5134823E+03  0.7818608E-02  0.1010319E+00
         21   -1    0    0  503  502  0.00000000000E+00  0.00000000000E+00  0.29847901833E+03  0.29847901833E+03  0.00000000000E+00 0.  1.
         21   -1    0    0  501  503 -0.00000000000E+00 -0.00000000000E+00 -0.94824031912E+03  0.94824031912E+03  0.00000000000E+00 0.  1.
    9000007    1    1    2  501    0 -0.32170885469E+03 -0.12942776127E+02 -0.48793770819E+03  0.70834123819E+03  0.40000000000E+03 0.  1.
   -9000007    1    1    2    0  502  0.32170885469E+03  0.12942776127E+02 -0.16182359261E+03  0.53837809926E+03  0.40000000000E+03 0.  1.
<mgrwt>
<rscale>  2 0.51348233E+03</rscale>
<asrwt>0</asrwt>
<pdfrwt beam="1">  1       21 0.45919849E-01 0.51348233E+03</pdfrwt>
<pdfrwt beam="2">  1       21 0.14588312E+00 0.51348233E+03</pdfrwt>
<totfact> 0.12104295E+03</totfact>
</mgrwt>
</event>
<event>
 4    1  0.4675559E-002  0.6374105E+03  0.7818608E-02  0.9830694E-01
         21   -1    0    0  501  502  0.00000000000E+00  0.00000000000E+00  0.18872044986E+04  0.18872044986E+04  0.00000000000E+00 0.  1.
         21   -1    0    0  502  503 -0.00000000000E+00 -0.00000000000E+00 -0.36111513052E+03  0.36111513052E+03  0.00000000000E+00 0. -1.
    9000007    1    1    2  501    0 -0.45370286862E+03 -0.20111144684E+03  0.14774170966E+04  0.16090535679E+04  0.40000000000E+03 0.  1.
   -9000007    1    1    2    0  503  0.45370286862E+03  0.20111144684E+03  0.48672271505E+02  0.63926606124E+03  0.40000000000E+03 0. -1.
<mgrwt>
<rscale>  2 0.63741047E+03</rscale>
<asrwt>0</asrwt>
<pdfrwt beam="1">  1       21 0.29033915E+00 0.63741047E+03</pdfrwt>
<pdfrwt beam="2">  1       21 0.55556175E-01 0.63741047E+03</pdfrwt>
<totfact> 0.83038679E+01</totfact>
</mgrwt>
</event>
<event>
 4    1  0.4675559E-002  0.5176734E+03  0.7818608E-02  0.1009266E+00
         21   -1    0    0  503  502  0.00000000000E+00  0.00000000000E+00  0.64241954478E+03  0.64241954478E+03  0.00000000000E+00 0.  1.
         21   -1    0    0  501  503 -0.00000000000E+00 -0.00000000000E+00 -0.48895008574E+03  0.48895008574E+03  0.00000000000E+00 0. -1.
    9000007    1    1    2  501    0  0.29870451368E+03  0.13697216672E+03 -0.14003699411E+03  0.53627989023E+03  0.40000000000E+03 0. -1.
   -9000007    1    1    2    0  502 -0.29870451368E+03 -0.13697216672E+03  0.29350645315E+03  0.59508974028E+03  0.40000000000E+03 0.  1.
<mgrwt>
<rscale>  2 0.51767341E+03</rscale>
<asrwt>0</asrwt>
<pdfrwt beam="1">  1       21 0.98833776E-01 0.51767341E+03</pdfrwt>
<pdfrwt beam="2">  1       21 0.75223090E-01 0.51767341E+03</pdfrwt>
<totfact> 0.11078906E+03</totfact>
</mgrwt>
</event>
<event>
 4    1  0.4675559E-002  0.4865877E+03  0.7818608E-02  0.1017340E+00
         21   -1    0    0  501  502  0.00000000000E+00  0.00000000000E+00  0.19485549044E+03  0.19485549044E+03  0.00000000000E+00 0.  1.
         21   -1    0    0  502  503 -0.00000000000E+00 -0.00000000000E+00 -0.13108399291E+04  0.13108399291E+04  0.00000000000E+00 0.  1.
    9000007    1    1    2  501    0  0.18370906217E+03 -0.20740917441E+03 -0.35452510185E+03  0.60204288302E+03  0.40000000000E+03 0. -1.
   -9000007    1    1    2    0  503 -0.18370906217E+03  0.20740917441E+03 -0.76145933686E+03  0.90365253657E+03  0.40000000000E+03 0. -1.
<mgrwt>
<rscale>  2 0.48658770E+03</rscale>
<asrwt>0</asrwt>
<pdfrwt beam="1">  1       21 0.29977769E-01 0.48658770E+03</pdfrwt>
<pdfrwt beam="2">  1       21 0.20166767E+00 0.48658770E+03</pdfrwt>
<totfact> 0.11509898E+03</totfact>
</mgrwt>
</event>
<event>
 4    1  0.4675559E-002  0.6186486E+03  0.7818608E-02  0.9867454E-01
         21   -1    0    0  503  502  0.00000000000E+00  0.00000000000E+00  0.10631775017E+04  0.10631775017E+04  0.00000000000E+00 0. -1.
         21   -1    0    0  501  503 -0.00000000000E+00 -0.00000000000E+00 -0.67732572146E+03  0.67732572146E+03  0.00000000000E+00 0. -1.
    9000007    1    1    2  501    0 -0.22685123515E+03  0.41384134935E+03 -0.40275013084E+03  0.73819632430E+03  0.40000000000E+03 0. -1.
   -9000007    1    1    2    0  502  0.22685123515E+03 -0.41384134935E+03  0.78860191109E+03  0.10023068989E+04  0.40000000000E+03 0. -1.
<mgrwt>
<rscale>  2 0.61864864E+03</rscale>
<asrwt>0</asrwt>
<pdfrwt beam="1">  1       21 0.16356577E+00 0.61864864E+03</pdfrwt>
<pdfrwt beam="2">  1       21 0.10420396E+00 0.61864864E+03</pdfrwt>
<totfact> 0.13212073E+02</totfact>
</mgrwt>
</event>
<event>
 4    1  0.4675559E-002  0.4033328E+03  0.7818608E-02  0.1042632E+00
         21   -1    0    0  501  502  0.00000000000E+00  0.00000000000E+00  0.59480850407E+03  0.59480850407E+03  0.00000000000E+00 0.  1.
         21   -1    0    0  502  503 -0.00000000000E+00 -0.00000000000E+00 -0.27393743168E+03  0.27393743168E+03  0.00000000000E+00 0.  1.
    9000007    1    1    2  501    0 -0.46404535934E+02  0.22890394992E+02  0.17788554622E+03  0.44081812428E+03  0.40000000000E+03 0.  1.
   -9000007    1    1    2    0  503  0.46404535934E+02 -0.22890394992E+02  0.14298552616E+03  0.42792781147E+03  0.40000000000E+03 0.  1.
<mgrwt>
<rscale>  2 0.40333280E+03</rscale>
<asrwt>0</asrwt>
<pdfrwt beam="1">  1       21 0.91509000E-01 0.40333280E+03</pdfrwt>
<pdfrwt beam="2">  1       21 0.42144221E-01 0.40333280E+03</pdfrwt>
<totfact> 0.48899262E+03</totfact>
</mgrwt>
</event>
<event>
 4    1  0.4675559E-002  0.4533592E+03  0.7818608E-02  0.1026725E+00
         21   -1    0    0  503  502  0.00000000000E+00  0.00000000000E+00  0.54428269567E+03  0.54428269567E+03  0.00000000000E+00 0. -1.
         21   -1    0    0  501  503 -0.00000000000E+00 -0.00000000000E+00 -0.51519692990E+03  0.51519692990E+03  0.00000000000E+00 0.  1.
    9000007    1    1    2  501    0 -0.12534808030E+03 -0.17269178114E+03 -0.25919906968E+03  0.52222480813E+03  0.40000000000E+03 0.  1.
   -9000007    1    1    2    0  502  0.12534808030E+03  0.17269178114E+03  0.28828483545E+03  0.53725481743E+03  0.40000000000E+03 0. -1.
<mgrwt>
<rscale>  2 0.45335923E+03</rscale>
<asrwt>0</asrwt>
<pdfrwt beam="1">  1       21 0.83735799E-01 0.45335923E+03</pdfrwt>
<pdfrwt beam="2">  1       21 0.79261066E-01 0.45335923E+03</pdfrwt>
<totfact> 0.14923733E+03</totfact>
</mgrwt>
</event>
<event>
 4    1  0.4675559E-002  0.4393695E+03  0.7818608E-02  0.1030940E+00
         21   -1    0    0  501  502  0.00000000000E+00  0.00000000000E+00  0.16274994223E+03  0.16274994223E+03  0.00000000000E+00 0. -1.
         21   -1    0    0  502  503 -0.00000000000E+00 -0.00000000000E+00 -0.12988982104E+04  0.12988982104E+04  0.00000000000E+00 0. -1.
    9000007    1    1    2  501    0  0.53984410010E+02 -0.17358345965E+03 -0.78339384302E+03  0.89819343533E+03  0.40000000000E+03 0. -1.
   -9000007    1    1    2    0  503 -0.53984410010E+02  0.17358345965E+03 -0.35275442514E+03  0.56345471729E+03  0.40000000000E+03 0. -1.
<mgrwt>
<rscale>  2 0.43936947E+03</rscale>
<asrwt>0</asrwt>
<pdfrwt beam="1">  1       21 0.25038452E-01 0.43936947E+03</pdfrwt>
<pdfrwt beam="2">  1       21 0.19983050E+00 0.43936947E+03</pdfrwt>
<totfact> 0.17219955E+03</totfact>
</mgrwt>
</event>
<event>
 4    1  0.4675559E-002  0.4012956E+03  0.7818608E-02  0.1043332E+00
         21   -1    0    0  501  502  0.00000000000E+00  0.00000000000E+00  0.34701524761E+03  0.34701524761E+03  0.00000000000E+00 0.  1.
         21   -1    0    0  502  503 -0.00000000000E+00 -0.00000000000E+00 -0.47983035421E+03  0.47983035421E+03  0.00000000000E+00 0.  1.
    9000007    1    1    2  501    0  0.30016787431E+02  0.11710551760E+02 -0.14134209285E+03  0.42545943609E+03  0.40000000000E+03 0.  1.
   -9000007    1    1    2    0  503 -0.30016787431E+02 -0.11710551760E+02  0.85269862471E+01  0.40138616574E+03  0.40000000000E+03 0.  1.
<mgrwt>
<rscale>  2 0.40129558E+03</rscale>
<asrwt>0</asrwt>
<pdfrwt beam="1">  1       21 0.53386962E-01 0.40129558E+03</pdfrwt>
<pdfrwt beam="2">  1       21 0.73820054E-01 0.40129558E+03</pdfrwt>
<totfact> 0.48929131E+03</totfact>
</mgrwt>
</event>
<event>
 4    1  0.4675559E-002  0.5575795E+03  0.7818608E-02  0.9997547E-01
         21   -1    0    0  501  502  0.00000000000E+00  0.00000000000E+00  0.14083068106E+04  0.14083068106E+04  0.00000000000E+00 0.  1.
         21   -1    0    0  502  503 -0.00000000000E+00 -0.00000000000E+00 -0.22082586715E+03  0.22082586715E+03  0.00000000000E+00 0. -1.
    9000007    1    1    2  501    0  0.32567917980E+03  0.21172604859E+03  0.60803155594E+03  0.82498316396E+03  0.40000000000E+03 0.  1.
   -9000007    1    1    2    0  503 -0.32567917980E+03 -0.21172604859E+03  0.57944938749E+03  0.80414951375E+03  0.40000000000E+03 0. -1.
<mgrwt>
<rscale>  2 0.55757945E+03</rscale>
<asrwt>0</asrwt>
<pdfrwt beam="1">  1       21 0.21666258E+00 0.55757945E+03</pdfrwt>
<pdfrwt beam="2">  1       21 0.33973211E-01 0.55757945E+03</pdfrwt>
<totfact> 0.69356500E+02</totfact>
</mgrwt>
</event>
<event>
 4    1  0.4675559E-002  0.7105267E+03  0.7818608E-02  0.9699398E-01
         21   -1    0    0  501  502  0.00000000000E+00  0.00000000000E+00  0.23221619362E+04  0.23221619362E+04  0.00000000000E+00 0.  1.
         21   -1    0    0  502  503 -0.00000000000E+00 -0.00000000000E+00 -0.22072657204E+03  0.22072657204E+03  0.00000000000E+00 0. -1.
    9000007    1    1    2  501    0  0.35663240940E+02  0.58615389985E+03  0.12067016581E+04  0.14003489396E+04  0.40000000000E+03 0.  1.
   -9000007    1    1    2    0  503 -0.35663240940E+02 -0.58615389985E+03  0.89473370606E+03  0.11425395686E+04  0.40000000000E+03 0. -1.
<mgrwt>
<rscale>  2 0.71052675E+03</rscale>
<asrwt>0</asrwt>
<pdfrwt beam="1">  1       21 0.35725567E+00 0.71052675E+03</pdfrwt>
<pdfrwt beam="2">  1       21 0.33957936E-01 0.71052675E+03</pdfrwt>
<totfact> 0.87691424E+01</totfact>
</mgrwt>
</event>
<event>
 4    1  0.4675559E-002  0.4817121E+03  0.7818608E-02  0.1018666E+00
         21   -1    0    0  501  502  0.00000000000E+00  0.00000000000E+00  0.11714031373E+04  0.11714031373E+04  0.00000000000E+00 0.  1.
         21   -1    0    0  502  503 -0.00000000000E+00 -0.00000000000E+00 -0.21485517391E+03  0.21485517391E+03  0.00000000000E+00 0.  1.
    9000007    1    1    2  501    0  0.26790419898E+03 -0.16549869449E+02  0.67187546587E+03  0.82671833151E+03  0.40000000000E+03 0.  1.
   -9000007    1    1    2    0  503 -0.26790419898E+03  0.16549869449E+02  0.28467249748E+03  0.55953997965E+03  0.40000000000E+03 0.  1.
<mgrwt>
<rscale>  2 0.48171211E+03</rscale>
<asrwt>0</asrwt>
<pdfrwt beam="1">  1       21 0.18021586E+00 0.48171211E+03</pdfrwt>
<pdfrwt beam="2">  1       21 0.33054643E-01 0.48171211E+03</pdfrwt>
<totfact> 0.13305186E+03</totfact>
</mgrwt>
</event>
<event>
 4    1  0.4675559E-002  0.4583583E+03  0.7818608E-02  0.1025258E+00
         21   -1    0    0  501  502  0.00000000000E+00  0.00000000000E+00  0.31999599719E+03  0.31999599719E+03  0.00000000000E+00 0. -1.
         21   -1    0    0  502  503 -0.00000000000E+00 -0.00000000000E+00 -0.82268336751E+03  0.82268336751E+03  0.00000000000E+00 0. -1.
    9000007    1    1    2  501    0 -0.47533204362E+02  0.21870745059E+03  0.54064143773E+01  0.45839020908E+03  0.40000000000E+03 0. -1.
   -9000007    1    1    2    0  503  0.47533204362E+02 -0.21870745059E+03 -0.50809378470E+03  0.68428915563E+03  0.40000000000E+03 0. -1.
<mgrwt>
<rscale>  2 0.45835833E+03</rscale>
<asrwt>0</asrwt>
<pdfrwt beam="1">  1       21 0.49230153E-01 0.45835833E+03</pdfrwt>
<pdfrwt beam="2">  1       21 0.12656667E+00 0.45835833E+03</pdfrwt>
<totfact> 0.15516458E+03</totfact>
</mgrwt>
</event>
<event>
 4    1  0.4675559E-002  0.4219977E+03  0.7818608E-02  0.1036418E+00
         21   -1    0    0  501  502  0.00000000000E+00  0.00000000000E+00  0.22077355661E+03  0.22077355661E+03  0.00000000000E+00 0. -1.
         21   -1    0    0  502  503 -0.00000000000E+00 -0.00000000000E+00 -0.95537469448E+03  0.95537469448E+03  0.00000000000E+00 0. -1.
    9000007    1    1    2  501    0 -0.95680704213E+02 -0.94484381176E+02 -0.59934391044E+03  0.73300424175E+03  0.40000000000E+03 0. -1.
   -9000007    1    1    2    0  503  0.95680704213E+02  0.94484381176E+02 -0.13525722743E+03  0.44314400934E+03  0.40000000000E+03 0. -1.
<mgrwt>
<rscale>  2 0.42199774E+03</rscale>
<asrwt>0</asrwt>
<pdfrwt beam="1">  1       21 0.33965163E-01 0.42199774E+03</pdfrwt>
<pdfrwt beam="2">  1       21 0.14698072E+00 0.42199774E+03</pdfrwt>
<totfact> 0.22865663E+03</totfact>
</mgrwt>
</event>
<event>
 4    1  0.4675559E-002  0.4944073E+03  0.7818608E-02  0.1015249E+00
         21   -1    0    0  503  502  0.00000000000E+00  0.00000000000E+00  0.40027176078E+03  0.40027176078E+03  0.00000000000E+00 0.  1.
         21   -1    0    0  501  503 -0.00000000000E+00 -0.00000000000E+00 -0.62322010366E+03  0.62322010366E+03  0.00000000000E+00 0. -1.
    9000007    1    1    2  501    0  0.56460425892E+02  0.28504526614E+03 -0.18406089847E+03  0.52755757769E+03  0.40000000000E+03 0. -1.
   -9000007    1    1    2    0  502 -0.56460425892E+02 -0.28504526614E+03 -0.38887444416E+02  0.49593428675E+03  0.40000000000E+03 0.  1.
<mgrwt>
<rscale>  2 0.49440731E+03</rscale>
<asrwt>0</asrwt>
<pdfrwt beam="1">  1       21 0.61580271E-01 0.49440731E+03</pdfrwt>
<pdfrwt beam="2">  1       21 0.95880015E-01 0.49440731E+03</pdfrwt>
<totfact> 0.18841144E+03</totfact>
</mgrwt>
</event>
<event>
 4    1  0.4675559E-002  0.4313931E+03  0.7818608E-02  0.1033421E+00
         21   -1    0    0  501  502  0.00000000000E+00  0.00000000000E+00  0.12719425586E+04  0.12719425586E+04  0.00000000000E+00 0.  1.
         21   -1    0    0  502  503 -0.00000000000E+00 -0.00000000000E+00 -0.15291478295E+03  0.15291478295E+03  0.00000000000E+00 0. -1.
    9000007    1    1    2  501    0  0.10302558895E+03 -0.12444158192E+03  0.70755849183E+03  0.82869716945E+03  0.40000000000E+03 0. -1.
   -9000007    1    1    2    0  503 -0.10302558895E+03  0.12444158192E+03  0.41146928383E+03  0.59616017212E+03  0.40000000000E+03 0. -1.
<mgrwt>
<rscale>  2 0.43139307E+03</rscale>
<asrwt>0</asrwt>
<pdfrwt beam="1">  1       21 0.19568346E+00 0.43139307E+03</pdfrwt>
<pdfrwt beam="2">  1       21 0.23525352E-01 0.43139307E+03</pdfrwt>
<totfact> 0.20788813E+03</totfact>
</mgrwt>
</event>
<event>
 4    1  0.4675559E-002  0.4263820E+03  0.7818608E-02  0.1035009E+00
         21   -1    0    0  501  502  0.00000000000E+00  0.00000000000E+00  0.46942290687E+03  0.46942290687E+03  0.00000000000E+00 0.  1.
         21   -1    0    0  502  503 -0.00000000000E+00 -0.00000000000E+00 -0.47806343971E+03  0.47806343971E+03  0.00000000000E+00 0.  1.
    9000007    1    1    2  501    0  0.14569601288E+03  0.23964145977E+02  0.20211583793E+03  0.47186059425E+03  0.40000000000E+03 0.  1.
   -9000007    1    1    2    0  503 -0.14569601288E+03 -0.23964145977E+02 -0.21075637077E+03  0.47562575233E+03  0.40000000000E+03 0.  1.
<mgrwt>
<rscale>  2 0.42638200E+03</rscale>
<asrwt>0</asrwt>
<pdfrwt beam="1">  1       21 0.72218909E-01 0.42638200E+03</pdfrwt>
<pdfrwt beam="2">  1       21 0.73548221E-01 0.42638200E+03</pdfrwt>
<totfact> 0.25135114E+03</totfact>
</mgrwt>
</event>
<event>
 4    1  0.4675559E-002  0.4561776E+03  0.7818608E-02  0.1025896E+00
         21   -1    0    0  503  502  0.00000000000E+00  0.00000000000E+00  0.39980151747E+03  0.39980151747E+03  0.00000000000E+00 0. -1.
         21   -1    0    0  501  503 -0.00000000000E+00 -0.00000000000E+00 -0.57003832925E+03  0.57003832925E+03  0.00000000000E+00 0. -1.
    9000007    1    1    2  501    0 -0.19744692204E+03  0.95460665696E+02 -0.22806507145E+03  0.51001147294E+03  0.40000000000E+03 0. -1.
   -9000007    1    1    2    0  502  0.19744692204E+03 -0.95460665696E+02  0.57828259669E+02  0.45982837378E+03  0.40000000000E+03 0. -1.
<mgrwt>
<rscale>  2 0.45617763E+03</rscale>
<asrwt>0</asrwt>
<pdfrwt beam="1">  1       21 0.61507926E-01 0.45617763E+03</pdfrwt>
<pdfrwt beam="2">  1       21 0.87698205E-01 0.45617763E+03</pdfrwt>
<totfact> 0.23680087E+03</totfact>
</mgrwt>
</event>
<event>
 4    1  0.4675559E-002  0.4079016E+03  0.7818608E-02  0.1041077E+00
         21   -1    0    0  501  502  0.00000000000E+00  0.00000000000E+00  0.10847867942E+04  0.10847867942E+04  0.00000000000E+00 0.  1.
         21   -1    0    0  502  503 -0.00000000000E+00 -0.00000000000E+00 -0.17365042387E+03  0.17365042387E+03  0.00000000000E+00 0.  1.
    9000007    1    1    2  501    0 -0.75935543625E+02 -0.24848940026E+02  0.67055120212E+03  0.78487106665E+03  0.40000000000E+03 0. -1.
   -9000007    1    1    2    0  503  0.75935543625E+02  0.24848940026E+02  0.24058516820E+03  0.47356615142E+03  0.40000000000E+03 0. -1.
<mgrwt>
<rscale>  2 0.40790155E+03</rscale>
<asrwt>0</asrwt>
<pdfrwt beam="1">  1       21 0.16689027E+00 0.40790155E+03</pdfrwt>
<pdfrwt beam="2">  1       21 0.26715451E-01 0.40790155E+03</pdfrwt>
<totfact> 0.26108078E+03</totfact>
</mgrwt>
</event>
<event>
 4    1  0.4675559E-002  0.4208273E+03  0.7818608E-02  0.1036797E+00
         21   -1    0    0  501  502  0.00000000000E+00  0.00000000000E+00  0.30625276046E+03  0.30625276046E+03  0.00000000000E+00 0. -1.
         21   -1    0    0  502  503 -0.00000000000E+00 -0.00000000000E+00 -0.96142549534E+03  0.96142549534E+03  0.00000000000E+00 0. -1.
    9000007    1    1    2  501    0 -0.71473938656E+02 -0.10948569090E+03  0.72552624094E+02  0.42703574052E+03  0.40000000000E+03 0. -1.
   -9000007    1    1    2    0  503  0.71473938656E+02  0.10948569090E+03 -0.72772535897E+03  0.84064251528E+03  0.40000000000E+03 0. -1.
<mgrwt>
<rscale>  2 0.42082733E+03</rscale>
<asrwt>0</asrwt>
<pdfrwt beam="1">  1       21 0.47115809E-01 0.42082733E+03</pdfrwt>
<pdfrwt beam="2">  1       21 0.14791162E+00 0.42082733E+03</pdfrwt>
<totfact> 0.11468531E+03</totfact>
</mgrwt>
</event>
<event>
 4    1  0.4675559E-002  0.4607943E+03  0.7818608E-02  0.1024551E+00
         21   -1    0    0  503  502  0.00000000000E+00  0.00000000000E+00  0.13660686788E+04  0.13660686788E+04  0.00000000000E+00 0.  1.
         21   -1    0    0  501  503 -0.00000000000E+00 -0.00000000000E+00 -0.36658496737E+03  0.36658496737E+03  0.00000000000E+00 0.  1.
    9000007    1    1    2  501    0 -0.21071966360E+03  0.89042832654E+02 -0.15775331337E+03  0.48704980295E+03  0.40000000000E+03 0.  1.
   -9000007    1    1    2    0  502  0.21071966360E+03 -0.89042832654E+02  0.11572370248E+04  0.12456038432E+04  0.40000000000E+03 0.  1.
<mgrwt>
<rscale>  2 0.46079432E+03</rscale>
<asrwt>0</asrwt>
<pdfrwt beam="1">  1       21 0.21016441E+00 0.46079432E+03</pdfrwt>
<pdfrwt beam="2">  1       21 0.56397688E-01 0.46079432E+03</pdfrwt>
<totfact> 0.27628171E+02</totfact>
</mgrwt>
</event>
<event>
 4    1  0.4675559E-002  0.5758495E+03  0.7818608E-02  0.9956817E-01
         21   -1    0    0  501  502  0.00000000000E+00  0.00000000000E+00  0.11040662818E+04  0.11040662818E+04  0.00000000000E+00 0.  1.
         21   -1    0    0  502  503 -0.00000000000E+00 -0.00000000000E+00 -0.37192728438E+03  0.37192728438E+03  0.00000000000E+00 0. -1.
    9000007    1    1    2  501    0 -0.28831964724E+02 -0.41324488102E+03  0.68982951082E+03  0.89859188060E+03  0.40000000000E+03 0.  1.
   -9000007    1    1    2    0  503  0.28831964724E+02  0.41324488102E+03  0.42309486624E+02  0.57740168560E+03  0.40000000000E+03 0.  1.
<mgrwt>
<rscale>  2 0.57584947E+03</rscale>
<asrwt>0</asrwt>
<pdfrwt beam="1">  1       21 0.16985635E+00 0.57584947E+03</pdfrwt>
<pdfrwt beam="2">  1       21 0.57219582E-01 0.57584947E+03</pdfrwt>
<totfact> 0.48323121E+02</totfact>
</mgrwt>
</event>
<event>
 4    1  0.4675559E-002  0.5339866E+03  0.7818608E-02  0.1005270E+00
         21   -1    0    0  501  502  0.00000000000E+00  0.00000000000E+00  0.39963777343E+03  0.39963777343E+03  0.00000000000E+00 0. -1.
         21   -1    0    0  502  503 -0.00000000000E+00 -0.00000000000E+00 -0.90907088132E+03  0.90907088132E+03  0.00000000000E+00 0.  1.
    9000007    1    1    2  501    0 -0.25727629482E+03  0.24279733586E+03  0.48788523206E+02  0.53621074045E+03  0.40000000000E+03 0. -1.
   -9000007    1    1    2    0  503  0.25727629482E+03 -0.24279733586E+03 -0.55822163110E+03  0.77249791430E+03  0.40000000000E+03 0.  1.
<mgrwt>
<rscale>  2 0.53398655E+03</rscale>
<asrwt>0</asrwt>
<pdfrwt beam="1">  1       21 0.61482735E-01 0.53398655E+03</pdfrwt>
<pdfrwt beam="2">  1       21 0.13985706E+00 0.53398655E+03</pdfrwt>
<totfact> 0.71743303E+02</totfact>
</mgrwt>
</event>
<event>
 4    1  0.4675559E-002  0.4210273E+03  0.7818608E-02  0.1036732E+00
         21   -1    0    0  503  502  0.00000000000E+00  0.00000000000E+00  0.18314393185E+03  0.18314393185E+03  0.00000000000E+00 0. -1.
         21   -1    0    0  501  503 -0.00000000000E+00 -0.00000000000E+00 -0.10733702334E+04  0.10733702334E+04  0.00000000000E+00 0. -1.
    9000007    1    1    2  501    0  0.12941153053E+03  0.22729157242E+02 -0.24817066814E+03  0.48872552557E+03  0.40000000000E+03 0. -1.
   -9000007    1    1    2    0  502 -0.12941153053E+03 -0.22729157242E+02 -0.64205563343E+03  0.76778863969E+03  0.40000000000E+03 0. -1.
<mgrwt>
<rscale>  2 0.42102727E+03</rscale>
<asrwt>0</asrwt>
<pdfrwt beam="1">  1       21 0.28175989E-01 0.42102727E+03</pdfrwt>
<pdfrwt beam="2">  1       21 0.16513388E+00 0.42102727E+03</pdfrwt>
<totfact> 0.24092984E+03</totfact>
</mgrwt>
</event>
<event>
 4    1  0.4675559E-002  0.4324017E+03  0.7818608E-02  0.1033104E+00
         21   -1    0    0  501  502  0.00000000000E+00  0.00000000000E+00  0.18101329120E+03  0.18101329120E+03  0.00000000000E+00 0.  1.
         21   -1    0    0  502  503 -0.00000000000E+00 -0.00000000000E+00 -0.19328355369E+04  0.19328355369E+04  0.00000000000E+00 0.  1.
    9000007    1    1    2  501    0  0.14911660631E+03  0.68814737082E+02 -0.15970994876E+04  0.16545990461E+04  0.40000000000E+03 0.  1.
   -9000007    1    1    2    0  503 -0.14911660631E+03 -0.68814737082E+02 -0.15472275810E+03  0.45924978192E+03  0.40000000000E+03 0.  1.
<mgrwt>
<rscale>  2 0.43240170E+03</rscale>
<asrwt>0</asrwt>
<pdfrwt beam="1">  1       21 0.27848198E-01 0.43240170E+03</pdfrwt>
<pdfrwt beam="2">  1       21 0.29735932E+00 0.43240170E+03</pdfrwt>
<totfact> 0.34847902E+02</totfact>
</mgrwt>
</event>
<event>
 4    1  0.4675559E-002  0.4096064E+03  0.7818608E-02  0.1040503E+00
         21   -1    0    0  501  502  0.00000000000E+00  0.00000000000E+00  0.21787727508E+03  0.21787727508E+03  0.00000000000E+00 0. -1.
         21   -1    0    0  502  503 -0.00000000000E+00 -0.00000000000E+00 -0.87557827538E+03  0.87557827538E+03  0.00000000000E+00 0. -1.
    9000007    1    1    2  501    0  0.47978849331E+02 -0.73996387897E+02 -0.51865139233E+03  0.66089083983E+03  0.40000000000E+03 0. -1.
   -9000007    1    1    2    0  503 -0.47978849331E+02  0.73996387897E+02 -0.13904960798E+03  0.43256471063E+03  0.40000000000E+03 0. -1.
<mgrwt>
<rscale>  2 0.40960644E+03</rscale>
<asrwt>0</asrwt>
<pdfrwt beam="1">  1       21 0.33519581E-01 0.40960644E+03</pdfrwt>
<pdfrwt beam="2">  1       21 0.13470435E+00 0.40960644E+03</pdfrwt>
<totfact> 0.29753021E+03</totfact>
</mgrwt>
</event>
<event>
 4    1  0.4675559E-002  0.4614241E+03  0.7818608E-02  0.1024369E+00
         21   -1    0    0  503  502  0.00000000000E+00  0.00000000000E+00  0.18555104289E+03  0.18555104289E+03  0.00000000000E+00 0.  1.
         21   -1    0    0  501  503 -0.00000000000E+00 -0.00000000000E+00 -0.25953046946E+04  0.25953046946E+04  0.00000000000E+00 0.  1.
    9000007    1    1    2  501    0  0.22237808021E+03  0.58823722082E+02 -0.22433981194E+04  0.22903596580E+04  0.40000000000E+03 0.  1.
   -9000007    1    1    2    0  502 -0.22237808021E+03 -0.58823722082E+02 -0.16635553227E+03  0.49049607945E+03  0.40000000000E+03 0.  1.
<mgrwt>
<rscale>  2 0.46142414E+03</rscale>
<asrwt>0</asrwt>
<pdfrwt beam="1">  1       21 0.28546314E-01 0.46142414E+03</pdfrwt>
<pdfrwt beam="2">  1       21 0.39927765E+00 0.46142414E+03</pdfrwt>
<totfact> 0.76816898E+01</totfact>
</mgrwt>
</event>
<event>
 4    1  0.4675559E-002  0.4698207E+03  0.7818608E-02  0.1021971E+00
         21   -1    0    0  501  502  0.00000000000E+00  0.00000000000E+00  0.42319944938E+03  0.42319944938E+03  0.00000000000E+00 0.  1.
         21   -1    0    0  502  503 -0.00000000000E+00 -0.00000000000E+00 -0.53586789626E+03  0.53586789626E+03  0.00000000000E+00 0.  1.
    9000007    1    1    2  501    0 -0.16150761470E+03 -0.18613646413E+03  0.21973723377E+02  0.47033428261E+03  0.40000000000E+03 0.  1.
   -9000007    1    1    2    0  503  0.16150761470E+03  0.18613646413E+03 -0.13464217026E+03  0.48873306303E+03  0.40000000000E+03 0.  1.
<mgrwt>
<rscale>  2 0.46982070E+03</rscale>
<asrwt>0</asrwt>
<pdfrwt beam="1">  1       21 0.65107608E-01 0.46982070E+03</pdfrwt>
<pdfrwt beam="2">  1       21 0.82441215E-01 0.46982070E+03</pdfrwt>
<totfact> 0.24014070E+03</totfact>
</mgrwt>
</event>
<event>
 4    1  0.4675559E-002  0.4818709E+03  0.7818608E-02  0.1018622E+00
         21   -1    0    0  501  502  0.00000000000E+00  0.00000000000E+00  0.85842722812E+03  0.85842722812E+03  0.00000000000E+00 0.  1.
         21   -1    0    0  502  503 -0.00000000000E+00 -0.00000000000E+00 -0.27194847403E+03  0.27194847403E+03  0.00000000000E+00 0.  1.
    9000007    1    1    2  501    0 -0.10188673553E+03  0.24863362068E+03  0.25190865442E+03  0.54374401549E+03  0.40000000000E+03 0.  1.
   -9000007    1    1    2    0  503  0.10188673553E+03 -0.24863362068E+03  0.33457009967E+03  0.58663168667E+03  0.40000000000E+03 0.  1.
<mgrwt>
<rscale>  2 0.48187092E+03</rscale>
<asrwt>0</asrwt>
<pdfrwt beam="1">  1       21 0.13206573E+00 0.48187092E+03</pdfrwt>
<pdfrwt beam="2">  1       21 0.41838227E-01 0.48187092E+03</pdfrwt>
<totfact> 0.19379739E+03</totfact>
</mgrwt>
</event>
<event>
 4    1  0.4675559E-002  0.4120314E+03  0.7818608E-02  0.1039691E+00
         21   -1    0    0  501  502  0.00000000000E+00  0.00000000000E+00  0.16897166950E+04  0.16897166950E+04  0.00000000000E+00 0.  1.
         21   -1    0    0  502  503 -0.00000000000E+00 -0.00000000000E+00 -0.10985001756E+03  0.10985001756E+03  0.00000000000E+00 0.  1.
    9000007    1    1    2  501    0 -0.61163359919E+02 -0.77645876855E+02  0.52703679687E+03  0.66898252895E+03  0.40000000000E+03 0.  1.
   -9000007    1    1    2    0  503  0.61163359919E+02  0.77645876855E+02  0.10528298806E+04  0.11305841836E+04  0.40000000000E+03 0.  1.
<mgrwt>
<rscale>  2 0.41203136E+03</rscale>
<asrwt>0</asrwt>
<pdfrwt beam="1">  1       21 0.25995640E+00 0.41203136E+03</pdfrwt>
<pdfrwt beam="2">  1       21 0.16900004E-01 0.41203136E+03</pdfrwt>
<totfact> 0.15419853E+03</totfact>
</mgrwt>
</event>
<event>
 4    1  0.4675559E-002  0.4459479E+03  0.7818608E-02  0.1028937E+00
         21   -1    0    0  503  502  0.00000000000E+00  0.00000000000E+00  0.97053396505E+03  0.97053396505E+03  0.00000000000E+00 0.  1.
         21   -1    0    0  501  503 -0.00000000000E+00 -0.00000000000E+00 -0.31997033434E+03  0.31997033434E+03  0.00000000000E+00 0. -1.
    9000007    1    1    2  501    0 -0.17214906832E+03  0.96095008704E+02 -0.61657091990E+02  0.45019012585E+03  0.40000000000E+03 0. -1.
   -9000007    1    1    2    0  502  0.17214906832E+03 -0.96095008704E+02  0.71222072270E+03  0.84031417355E+03  0.40000000000E+03 0.  1.
<mgrwt>
<rscale>  2 0.44594793E+03</rscale>
<asrwt>0</asrwt>
<pdfrwt beam="1">  1       21 0.14931292E+00 0.44594793E+03</pdfrwt>
<pdfrwt beam="2">  1       21 0.49226206E-01 0.44594793E+03</pdfrwt>
<totfact> 0.10078700E+03</totfact>
</mgrwt>
</event>
<event>
 4    1  0.4675559E-002  0.5123061E+03  0.7818608E-02  0.1010616E+00
         21   -1    0    0  501  502  0.00000000000E+00  0.00000000000E+00  0.46811414675E+03  0.46811414675E+03  0.00000000000E+00 0.  1.
         21   -1    0    0  502  503 -0.00000000000E+00 -0.00000000000E+00 -0.66174563522E+03  0.66174563522E+03  0.00000000000E+00 0.  1.
    9000007    1    1    2  501    0  0.23709908159E+03 -0.21503848116E+03  0.12397070521E+03  0.52709226766E+03  0.40000000000E+03 0.  1.
   -9000007    1    1    2    0  503 -0.23709908159E+03  0.21503848116E+03 -0.31760219369E+03  0.60276751431E+03  0.40000000000E+03 0.  1.
<mgrwt>
<rscale>  2 0.51230608E+03</rscale>
<asrwt>0</asrwt>
<pdfrwt beam="1">  1       21 0.72017561E-01 0.51230608E+03</pdfrwt>
<pdfrwt beam="2">  1       21 0.10180702E+00 0.51230608E+03</pdfrwt>
<totfact> 0.11402346E+03</totfact>
</mgrwt>
</event>
<event>
 4    1  0.4675559E-002  0.4670524E+03  0.7818608E-02  0.1022755E+00
         21   -1    0    0  503  502  0.00000000000E+00  0.00000000000E+00  0.68806546615E+03  0.68806546615E+03  0.00000000000E+00 0.  1.
         21   -1    0    0  501  503 -0.00000000000E+00 -0.00000000000E+00 -0.48052631175E+03  0.48052631175E+03  0.00000000000E+00 0.  1.
    9000007    1    1    2  501    0  0.17949425752E+03 -0.16099616164E+03 -0.23705205150E+03  0.52376676838E+03  0.40000000000E+03 0.  1.
   -9000007    1    1    2    0  502 -0.17949425752E+03  0.16099616164E+03  0.44459120590E+03  0.64482500952E+03  0.40000000000E+03 0.  1.
<mgrwt>
<rscale>  2 0.46705241E+03</rscale>
<asrwt>0</asrwt>
<pdfrwt beam="1">  1       21 0.10585623E+00 0.46705241E+03</pdfrwt>
<pdfrwt beam="2">  1       21 0.73927125E-01 0.46705241E+03</pdfrwt>
<totfact> 0.99275660E+02</totfact>
</mgrwt>
</event>
<event>
 4    1  0.4675559E-002  0.4775139E+03  0.7818608E-02  0.1019821E+00
         21   -1    0    0  503  502  0.00000000000E+00  0.00000000000E+00  0.24534503714E+04  0.24534503714E+04  0.00000000000E+00 0. -1.
         21   -1    0    0  501  503 -0.00000000000E+00 -0.00000000000E+00 -0.17465284549E+03  0.17465284549E+03  0.00000000000E+00 0. -1.
    9000007    1    1    2  501    0  0.22251415386E+03  0.13604031275E+03  0.24057558175E+03  0.53469255269E+03  0.40000000000E+03 0. -1.
   -9000007    1    1    2    0  502 -0.22251415386E+03 -0.13604031275E+03  0.20382219441E+04  0.20934106642E+04  0.40000000000E+03 0. -1.
<mgrwt>
<rscale>  2 0.47751389E+03</rscale>
<asrwt>0</asrwt>
<pdfrwt beam="1">  1       21 0.37745388E+00 0.47751389E+03</pdfrwt>
<pdfrwt beam="2">  1       21 0.26869670E-01 0.47751389E+03</pdfrwt>
<totfact> 0.11779358E+02</totfact>
</mgrwt>
</event>
<event>
 4    1  0.4675559E-002  0.4357934E+03  0.7818608E-02  0.1032045E+00
         21   -1    0    0  501  502  0.00000000000E+00  0.00000000000E+00  0.61666412654E+03  0.61666412654E+03  0.00000000000E+00 0.  1.
         21   -1    0    0  502  503 -0.00000000000E+00 -0.00000000000E+00 -0.76419565789E+03  0.76419565789E+03  0.00000000000E+00 0. -1.
    9000007    1    1    2  501    0  0.11105035271E+03  0.13260364087E+03  0.45969897997E+03  0.63343433645E+03  0.40000000000E+03 0.  1.
   -9000007    1    1    2    0  503 -0.11105035271E+03 -0.13260364087E+03 -0.60723051132E+03  0.74742544798E+03  0.40000000000E+03 0. -1.
<mgrwt>
<rscale>  2 0.43579342E+03</rscale>
<asrwt>0</asrwt>
<pdfrwt beam="1">  1       21 0.94871404E-01 0.43579342E+03</pdfrwt>
<pdfrwt beam="2">  1       21 0.11756856E+00 0.43579342E+03</pdfrwt>
<totfact> 0.43311196E+02</totfact>
</mgrwt>
</event>
<event>
 4    1  0.4675559E-002  0.4677934E+03  0.7818608E-02  0.1022545E+00
         21   -1    0    0  501  502  0.00000000000E+00  0.00000000000E+00  0.11751760068E+04  0.11751760068E+04  0.00000000000E+00 0. -1.
         21   -1    0    0  502  503 -0.00000000000E+00 -0.00000000000E+00 -0.24369196904E+03  0.24369196904E+03  0.00000000000E+00 0. -1.
    9000007    1    1    2  501    0 -0.17007947162E+03 -0.17292669971E+03  0.81029302075E+03  0.93563104353E+03  0.40000000000E+03 0. -1.
   -9000007    1    1    2    0  503  0.17007947162E+03  0.17292669971E+03  0.12119101702E+03  0.48323693231E+03  0.40000000000E+03 0. -1.
<mgrwt>
<rscale>  2 0.46779341E+03</rscale>
<asrwt>0</asrwt>
<pdfrwt beam="1">  1       21 0.18079631E+00 0.46779341E+03</pdfrwt>
<pdfrwt beam="2">  1       21 0.37491073E-01 0.46779341E+03</pdfrwt>
<totfact> 0.10269725E+03</totfact>
</mgrwt>
</event>
<event>
 4    1  0.4675559E-002  0.4411032E+03  0.7818608E-02  0.1030409E+00
         21   -1    0    0  501  502  0.00000000000E+00  0.00000000000E+00  0.22609004260E+04  0.22609004260E+04  0.00000000000E+00 0.  1.
         21   -1    0    0  502  503 -0.00000000000E+00 -0.00000000000E+00 -0.22207700985E+03  0.22207700985E+03  0.00000000000E+00 0.  1.
    9000007    1    1    2  501    0 -0.18554992432E+03  0.11967238692E+02  0.19910136317E+04  0.20392908745E+04  0.40000000000E+03 0.  1.
   -9000007    1    1    2    0  503  0.18554992432E+03 -0.11967238692E+02  0.47809784428E+02  0.44368656133E+03  0.40000000000E+03 0.  1.
<mgrwt>
<rscale>  2 0.44110315E+03</rscale>
<asrwt>0</asrwt>
<pdfrwt beam="1">  1       21 0.34783082E+00 0.44110315E+03</pdfrwt>
<pdfrwt beam="2">  1       21 0.34165695E-01 0.44110315E+03</pdfrwt>
<totfact> 0.11423801E+02</totfact>
</mgrwt>
</event>
<event>
 4    1  0.4675559E-002  0.5501864E+03  0.7818608E-02  0.1001451E+00
         21   -1    0    0  501  502  0.00000000000E+00  0.00000000000E+00  0.11029223793E+04  0.11029223793E+04  0.00000000000E+00 0. -1.
         21   -1    0    0  502  503 -0.00000000000E+00 -0.00000000000E+00 -0.58167577723E+03  0.58167577723E+03  0.00000000000E+00 0. -1.
    9000007    1    1    2  501    0 -0.37704474434E+03 -0.23287086321E+02  0.87276159311E+03  0.10317062693E+04  0.40000000000E+03 0. -1.
   -9000007    1    1    2    0  503  0.37704474434E+03  0.23287086321E+02 -0.35151499100E+03  0.65289188731E+03  0.40000000000E+03 0. -1.
<mgrwt>
<rscale>  2 0.55018636E+03</rscale>
<asrwt>0</asrwt>
<pdfrwt beam="1">  1       21 0.16968037E+00 0.55018636E+03</pdfrwt>
<pdfrwt beam="2">  1       21 0.89488581E-01 0.55018636E+03</pdfrwt>
<totfact> 0.17693968E+02</totfact>
</mgrwt>
</event>
<event>
 4    1  0.4675559E-002  0.5377536E+03  0.7818608E-02  0.1004369E+00
         21   -1    0    0  503  502  0.00000000000E+00  0.00000000000E+00  0.17935228583E+04  0.17935228583E+04  0.00000000000E+00 0.  1.
         21   -1    0    0  501  503 -0.00000000000E+00 -0.00000000000E+00 -0.17065083251E+03  0.17065083251E+03  0.00000000000E+00 0.  1.
    9000007    1    1    2  501    0  0.18801745526E+03 -0.30631415712E+03  0.58074982051E+03  0.79148548967E+03  0.40000000000E+03 0.  1.
   -9000007    1    1    2    0  502 -0.18801745526E+03  0.30631415712E+03  0.10421222052E+04  0.11726882011E+04  0.40000000000E+03 0.  1.
<mgrwt>
<rscale>  2 0.53775359E+03</rscale>
<asrwt>0</asrwt>
<pdfrwt beam="1">  1       21 0.27592658E+00 0.53775359E+03</pdfrwt>
<pdfrwt beam="2">  1       21 0.26253976E-01 0.53775359E+03</pdfrwt>
<totfact> 0.49881532E+02</totfact>
</mgrwt>
</event>
<event>
 4    1  0.4675559E-002  0.4854164E+03  0.7818608E-02  0.1017657E+00
         21   -1    0    0  503  502  0.00000000000E+00  0.00000000000E+00  0.23287231302E+04  0.23287231302E+04  0.00000000000E+00 0.  1.
         21   -1    0    0  501  503 -0.00000000000E+00 -0.00000000000E+00 -0.11741665151E+03  0.11741665151E+03  0.00000000000E+00 0.  1.
    9000007    1    1    2  501    0  0.24928006651E+03 -0.11614001502E+03  0.65089158037E+03  0.81196607321E+03  0.40000000000E+03 0.  1.
   -9000007    1    1    2    0  502 -0.24928006651E+03  0.11614001502E+03  0.15604148983E+04  0.16341737085E+04  0.40000000000E+03 0.  1.
<mgrwt>
<rscale>  2 0.48541637E+03</rscale>
<asrwt>0</asrwt>
<pdfrwt beam="1">  1       21 0.35826506E+00 0.48541637E+03</pdfrwt>
<pdfrwt beam="2">  1       21 0.18064102E-01 0.48541637E+03</pdfrwt>
<totfact> 0.33158124E+02</totfact>
</mgrwt>
</event>
<event>
 4    1  0.4675559E-002  0.5625812E+03  0.7818608E-02  0.9986231E-01
         21   -1    0    0  503  502  0.00000000000E+00  0.00000000000E+00  0.12531277124E+04  0.12531277124E+04  0.00000000000E+00 0.  1.
         21   -1    0    0  501  503 -0.00000000000E+00 -0.00000000000E+00 -0.49647154910E+03  0.49647154910E+03  0.00000000000E+00 0. -1.
    9000007    1    1    2  501    0 -0.39532595069E+03  0.14664505433E+02 -0.23482950438E+03  0.60962492660E+03  0.40000000000E+03 0. -1.
   -9000007    1    1    2    0  502  0.39532595069E+03 -0.14664505433E+02  0.99148566764E+03  0.11399743349E+04  0.40000000000E+03 0.  1.
<mgrwt>
<rscale>  2 0.56258124E+03</rscale>
<asrwt>0</asrwt>
<pdfrwt beam="1">  1       21 0.19278888E+00 0.56258124E+03</pdfrwt>
<pdfrwt beam="2">  1       21 0.76380239E-01 0.56258124E+03</pdfrwt>
<totfact> 0.17487077E+02</totfact>
</mgrwt>
</event>
<event>
 4    1  0.4675559E-002  0.4138617E+03  0.7818608E-02  0.1039083E+00
         21   -1    0    0  501  502  0.00000000000E+00  0.00000000000E+00  0.76372224843E+02  0.76372224843E+02  0.00000000000E+00 0. -1.
         21   -1    0    0  502  503 -0.00000000000E+00 -0.00000000000E+00 -0.24067997101E+04  0.24067997101E+04  0.00000000000E+00 0.  1.
    9000007    1    1    2  501    0 -0.14798872154E+02 -0.10517857680E+03 -0.84103550838E+03  0.93734852963E+03  0.40000000000E+03 0. -1.
   -9000007    1    1    2    0  503  0.14798872154E+02  0.10517857680E+03 -0.14893919768E+04  0.15458234053E+04  0.40000000000E+03 0.  1.
<mgrwt>
<rscale>  2 0.41386174E+03</rscale>
<asrwt>0</asrwt>
<pdfrwt beam="1">  1       21 0.11749572E-01 0.41386174E+03</pdfrwt>
<pdfrwt beam="2">  1       21 0.37027690E+00 0.41386174E+03</pdfrwt>
<totfact> 0.64720200E+02</totfact>
</mgrwt>
</event>
<event>
 4    1  0.4675559E-002  0.4127312E+03  0.7818608E-02  0.1039458E+00
         21   -1    0    0  503  502  0.00000000000E+00  0.00000000000E+00  0.14074258501E+04  0.14074258501E+04  0.00000000000E+00 0.  1.
         21   -1    0    0  501  503 -0.00000000000E+00 -0.00000000000E+00 -0.59844569203E+03  0.59844569203E+03  0.00000000000E+00 0. -1.
    9000007    1    1    2  501    0  0.10817630938E+02  0.10114368486E+03 -0.49130165900E+03  0.64165753036E+03  0.40000000000E+03 0. -1.
   -9000007    1    1    2    0  502 -0.10817630938E+02 -0.10114368486E+03  0.13002818171E+04  0.13642140118E+04  0.40000000000E+03 0.  1.
<mgrwt>
<rscale>  2 0.41273123E+03</rscale>
<asrwt>0</asrwt>
<pdfrwt beam="1">  1       21 0.21652705E+00 0.41273123E+03</pdfrwt>
<pdfrwt beam="2">  1       21 0.92068568E-01 0.41273123E+03</pdfrwt>
<totfact> 0.85095395E+01</totfact>
</mgrwt>
</event>
<event>
 4    1  0.4675559E-002  0.5065420E+03  0.7818608E-02  0.1012085E+00
         21   -1    0    0  501  502  0.00000000000E+00  0.00000000000E+00  0.32998636422E+03  0.32998636422E+03  0.00000000000E+00 0. -1.
         21   -1    0    0  502  503 -0.00000000000E+00 -0.00000000000E+00 -0.79548079583E+03  0.79548079583E+03  0.00000000000E+00 0.  1.
    9000007    1    1    2  501    0 -0.29118319183E+03  0.10861448314E+03 -0.14828818930E+03  0.52780123554E+03  0.40000000000E+03 0.  1.
   -9000007    1    1    2    0  503  0.29118319183E+03 -0.10861448314E+03 -0.31720624231E+03  0.59766592450E+03  0.40000000000E+03 0.  1.
<mgrwt>
<rscale>  2 0.50654196E+03</rscale>
<asrwt>0</asrwt>
<pdfrwt beam="1">  1       21 0.50767133E-01 0.50654196E+03</pdfrwt>
<pdfrwt beam="2">  1       21 0.12238166E+00 0.50654196E+03</pdfrwt>
<totfact> 0.15566803E+03</totfact>
</mgrwt>
</event>
<event>
 4    1  0.4675559E-002  0.4891947E+03  0.7818608E-02  0.1016638E+00
         21   -1    0    0  503  502  0.00000000000E+00  0.00000000000E+00  0.20429041716E+03  0.20429041716E+03  0.00000000000E+00 0.  1.
         21   -1    0    0  501  503 -0.00000000000E+00 -0.00000000000E+00 -0.12810444657E+04  0.12810444657E+04  0.00000000000E+00 0. -1.
    9000007    1    1    2  501    0  0.27618616672E+03 -0.55069948286E+02 -0.75562230158E+03  0.90015363163E+03  0.40000000000E+03 0. -1.
   -9000007    1    1    2    0  502 -0.27618616672E+03  0.55069948286E+02 -0.32113174696E+03  0.58518125124E+03  0.40000000000E+03 0.  1.
<mgrwt>
<rscale>  2 0.48919474E+03</rscale>
<asrwt>0</asrwt>
<pdfrwt beam="1">  1       21 0.31429295E-01 0.48919474E+03</pdfrwt>
<pdfrwt beam="2">  1       21 0.19708376E+00 0.48919474E+03</pdfrwt>
<totfact> 0.11229120E+03</totfact>
</mgrwt>
</event>
<event>
 4    1  0.4675559E-002  0.5944255E+03  0.7818608E-02  0.9917039E-01
         21   -1    0    0  501  502  0.00000000000E+00  0.00000000000E+00  0.12241521004E+04  0.12241521004E+04  0.00000000000E+00 0.  1.
         21   -1    0    0  502  503 -0.00000000000E+00 -0.00000000000E+00 -0.39533741308E+03  0.39533741308E+03  0.00000000000E+00 0.  1.
    9000007    1    1    2  501    0 -0.37740016057E+03  0.22563427621E+03  0.83507300830E+03  0.10250310420E+04  0.40000000000E+03 0.  1.
   -9000007    1    1    2    0  503  0.37740016057E+03 -0.22563427621E+03 -0.62583209533E+01  0.59445847154E+03  0.40000000000E+03 0.  1.
<mgrwt>
<rscale>  2 0.59442553E+03</rscale>
<asrwt>0</asrwt>
<pdfrwt beam="1">  1       21 0.18833109E+00 0.59442553E+03</pdfrwt>
<pdfrwt beam="2">  1       21 0.60821141E-01 0.59442553E+03</pdfrwt>
<totfact> 0.30968260E+02</totfact>
</mgrwt>
</event>
<event>
 4    1  0.4675559E-002  0.6074139E+03  0.7818608E-02  0.9890143E-01
         21   -1    0    0  503  502  0.00000000000E+00  0.00000000000E+00  0.94247683629E+03  0.94247683629E+03  0.00000000000E+00 0.  1.
         21   -1    0    0  501  503 -0.00000000000E+00 -0.00000000000E+00 -0.42153651785E+03  0.42153651785E+03  0.00000000000E+00 0.  1.
    9000007    1    1    2  501    0 -0.38792107642E+03 -0.24180338963E+03  0.78327865743E+02  0.61244338132E+03  0.40000000000E+03 0.  1.
   -9000007    1    1    2    0  502  0.38792107642E+03  0.24180338963E+03  0.44261245269E+03  0.75156997282E+03  0.40000000000E+03 0.  1.
<mgrwt>
<rscale>  2 0.60741390E+03</rscale>
<asrwt>0</asrwt>
<pdfrwt beam="1">  1       21 0.14499644E+00 0.60741390E+03</pdfrwt>
<pdfrwt beam="2">  1       21 0.64851772E-01 0.60741390E+03</pdfrwt>
<totfact> 0.56357218E+02</totfact>
</mgrwt>
</event>
<event>
 4    1  0.4675559E-002  0.4304972E+03  0.7818608E-02  0.1033703E+00
         21   -1    0    0  501  502  0.00000000000E+00  0.00000000000E+00  0.28896276495E+03  0.28896276495E+03  0.00000000000E+00 0.  1.
         21   -1    0    0  502  503 -0.00000000000E+00 -0.00000000000E+00 -0.12168627782E+04  0.12168627782E+04  0.00000000000E+00 0.  1.
    9000007    1    1    2  501    0  0.14964211449E+03 -0.54176720985E+02  0.53834729285E+02  0.43385027095E+03  0.40000000000E+03 0. -1.
   -9000007    1    1    2    0  503 -0.14964211449E+03  0.54176720985E+02 -0.98173474253E+03  0.10719752722E+04  0.40000000000E+03 0. -1.
<mgrwt>
<rscale>  2 0.43049725E+03</rscale>
<asrwt>0</asrwt>
<pdfrwt beam="1">  1       21 0.44455810E-01 0.43049725E+03</pdfrwt>
<pdfrwt beam="2">  1       21 0.18720966E+00 0.43049725E+03</pdfrwt>
<totfact> 0.66292674E+02</totfact>
</mgrwt>
</event>
<event>
 4    1  0.4675559E-002  0.5048153E+03  0.7818608E-02  0.1012530E+00
         21   -1    0    0  501  502  0.00000000000E+00  0.00000000000E+00  0.24664359112E+03  0.24664359112E+03  0.00000000000E+00 0.  1.
         21   -1    0    0  502  503 -0.00000000000E+00 -0.00000000000E+00 -0.12681971504E+04  0.12681971504E+04  0.00000000000E+00 0.  1.
    9000007    1    1    2  501    0  0.11938061561E+02 -0.30772716349E+03 -0.18475167649E+03  0.53756088626E+03  0.40000000000E+03 0.  1.
   -9000007    1    1    2    0  503 -0.11938061561E+02  0.30772716349E+03 -0.83680188281E+03  0.97727985528E+03  0.40000000000E+03 0.  1.
<mgrwt>
<rscale>  2 0.50481534E+03</rscale>
<asrwt>0</asrwt>
<pdfrwt beam="1">  1       21 0.37945167E-01 0.50481534E+03</pdfrwt>
<pdfrwt beam="2">  1       21 0.19510726E+00 0.50481534E+03</pdfrwt>
<totfact> 0.78570436E+02</totfact>
</mgrwt>
</event>
<event>
 4    1  0.4675559E-002  0.4314169E+03  0.7818608E-02  0.1033413E+00
         21   -1    0    0  501  502  0.00000000000E+00  0.00000000000E+00  0.52862767563E+03  0.52862767563E+03  0.00000000000E+00 0. -1.
         21   -1    0    0  502  503 -0.00000000000E+00 -0.00000000000E+00 -0.39772565571E+03  0.39772565571E+03  0.00000000000E+00 0. -1.
    9000007    1    1    2  501    0  0.97687917766E+02  0.12875391112E+03  0.22235832564E+03  0.48534907426E+03  0.40000000000E+03 0.  1.
   -9000007    1    1    2    0  503 -0.97687917766E+02 -0.12875391112E+03 -0.91456305719E+02  0.44100425708E+03  0.40000000000E+03 0.  1.
<mgrwt>
<rscale>  2 0.43141685E+03</rscale>
<asrwt>0</asrwt>
<pdfrwt beam="1">  1       21 0.81327335E-01 0.43141685E+03</pdfrwt>
<pdfrwt beam="2">  1       21 0.61188562E-01 0.43141685E+03</pdfrwt>
<totfact> 0.28827406E+03</totfact>
</mgrwt>
</event>
<event>
 4    1  0.4675559E-002  0.8212369E+03  0.7818608E-02  0.9529776E-01
         21   -1    0    0  501  502  0.00000000000E+00  0.00000000000E+00  0.56675623815E+03  0.56675623815E+03  0.00000000000E+00 0. -1.
         21   -1    0    0  502  503 -0.00000000000E+00 -0.00000000000E+00 -0.12654946678E+04  0.12654946678E+04  0.00000000000E+00 0.  1.
    9000007    1    1    2  501    0 -0.56583241005E+03 -0.44075365477E+03 -0.12558328617E+03  0.83078352308E+03  0.40000000000E+03 0. -1.
   -9000007    1    1    2    0  503  0.56583241005E+03  0.44075365477E+03 -0.57315514350E+03  0.10014673829E+04  0.40000000000E+03 0.  1.
<mgrwt>
<rscale>  2 0.82123693E+03</rscale>
<asrwt>0</asrwt>
<pdfrwt beam="1">  1       21 0.87193270E-01 0.82123693E+03</pdfrwt>
<pdfrwt beam="2">  1       21 0.19469148E+00 0.82123693E+03</pdfrwt>
<totfact> 0.11371247E+02</totfact>
</mgrwt>
</event>
<event>
 4    1  0.4675559E-002  0.5340214E+03  0.7818608E-02  0.1005262E+00
         21   -1    0    0  501  502  0.00000000000E+00  0.00000000000E+00  0.29198917785E+03  0.29198917785E+03  0.00000000000E+00 0.  1.
         21   -1    0    0  502  503 -0.00000000000E+00 -0.00000000000E+00 -0.10512806909E+04  0.10512806909E+04  0.00000000000E+00 0.  1.
    9000007    1    1    2  501    0 -0.35273099922E+03  0.27561674325E+02 -0.55856505479E+03  0.77277016256E+03  0.40000000000E+03 0.  1.
   -9000007    1    1    2    0  503  0.35273099922E+03 -0.27561674325E+02 -0.20072645824E+03  0.57049970617E+03  0.40000000000E+03 0.  1.
<mgrwt>
<rscale>  2 0.53402135E+03</rscale>
<asrwt>0</asrwt>
<pdfrwt beam="1">  1       21 0.44921412E-01 0.53402135E+03</pdfrwt>
<pdfrwt beam="2">  1       21 0.16173549E+00 0.53402135E+03</pdfrwt>
<totfact> 0.94699151E+02</totfact>
</mgrwt>
</event>
<event>
 4    1  0.4675559E-002  0.4228871E+03  0.7818608E-02  0.1036131E+00
         21   -1    0    0  501  502  0.00000000000E+00  0.00000000000E+00  0.91278475961E+03  0.91278475961E+03  0.00000000000E+00 0.  1.
         21   -1    0    0  502  503 -0.00000000000E+00 -0.00000000000E+00 -0.20401140639E+03  0.20401140639E+03  0.00000000000E+00 0.  1.
    9000007    1    1    2  501    0 -0.12725331837E+03 -0.51381758185E+02  0.24318583857E+03  0.48782460392E+03  0.40000000000E+03 0. -1.
   -9000007    1    1    2    0  503  0.12725331837E+03  0.51381758185E+02  0.46558751465E+03  0.62897156208E+03  0.40000000000E+03 0. -1.
<mgrwt>
<rscale>  2 0.42288709E+03</rscale>
<asrwt>0</asrwt>
<pdfrwt beam="1">  1       21 0.14042842E+00 0.42288709E+03</pdfrwt>
<pdfrwt beam="2">  1       21 0.31386371E-01 0.42288709E+03</pdfrwt>
<totfact> 0.30252304E+03</totfact>
</mgrwt>
</event>
<event>
 4    1  0.4675559E-002  0.6251567E+03  0.7818608E-02  0.9854546E-01
         21   -1    0    0  501  502  0.00000000000E+00  0.00000000000E+00  0.19116481962E+03  0.19116481962E+03  0.00000000000E+00 0.  1.
         21   -1    0    0  502  503 -0.00000000000E+00 -0.00000000000E+00 -0.24070054600E+04  0.24070054600E+04  0.00000000000E+00 0. -1.
    9000007    1    1    2  501    0 -0.13874370424E+03  0.45996861805E+03 -0.60371780575E+03  0.86907774913E+03  0.40000000000E+03 0.  1.
   -9000007    1    1    2    0  503  0.13874370424E+03 -0.45996861805E+03 -0.16121228346E+04  0.17290925305E+04  0.40000000000E+03 0. -1.
<mgrwt>
<rscale>  2 0.62515674E+03</rscale>
<asrwt>0</asrwt>
<pdfrwt beam="1">  1       21 0.29409971E-01 0.62515674E+03</pdfrwt>
<pdfrwt beam="2">  1       21 0.37030854E+00 0.62515674E+03</pdfrwt>
<totfact> 0.10072603E+02</totfact>
</mgrwt>
</event>
<event>
 4    1  0.4675559E-002  0.4501585E+03  0.7818608E-02  0.1027675E+00
         21   -1    0    0  503  502  0.00000000000E+00  0.00000000000E+00  0.95430045336E+03  0.95430045336E+03  0.00000000000E+00 0.  1.
         21   -1    0    0  501  503 -0.00000000000E+00 -0.00000000000E+00 -0.33217232616E+03  0.33217232616E+03  0.00000000000E+00 0.  1.
    9000007    1    1    2  501    0  0.29181737677E+02  0.20442866442E+03 -0.75270482360E+02  0.45640803911E+03  0.40000000000E+03 0.  1.
   -9000007    1    1    2    0  502 -0.29181737677E+02 -0.20442866442E+03  0.69739860956E+03  0.83006474041E+03  0.40000000000E+03 0.  1.
<mgrwt>
<rscale>  2 0.45015848E+03</rscale>
<asrwt>0</asrwt>
<pdfrwt beam="1">  1       21 0.14681545E+00 0.45015848E+03</pdfrwt>
<pdfrwt beam="2">  1       21 0.51103435E-01 0.45015848E+03</pdfrwt>
<totfact> 0.97238581E+02</totfact>
</mgrwt>
</event>
<event>
 4    1  0.4675559E-002  0.5997118E+03  0.7818608E-02  0.9906004E-01
         21   -1    0    0  503  502  0.00000000000E+00  0.00000000000E+00  0.79409441775E+03  0.79409441775E+03  0.00000000000E+00 0. -1.
         21   -1    0    0  501  503 -0.00000000000E+00 -0.00000000000E+00 -0.46928657804E+03  0.46928657804E+03  0.00000000000E+00 0. -1.
    9000007    1    1    2  501    0  0.44168609978E+03 -0.67584681534E+02  0.44404409313E+02  0.60135351623E+03  0.40000000000E+03 0. -1.
   -9000007    1    1    2    0  502 -0.44168609978E+03  0.67584681534E+02  0.28040343040E+03  0.66202747956E+03  0.40000000000E+03 0. -1.
<mgrwt>
<rscale>  2 0.59971185E+03</rscale>
<asrwt>0</asrwt>
<pdfrwt beam="1">  1       21 0.12216837E+00 0.59971185E+03</pdfrwt>
<pdfrwt beam="2">  1       21 0.72197935E-01 0.59971185E+03</pdfrwt>
<totfact> 0.69706645E+02</totfact>
</mgrwt>
</event>
<event>
 4    1  0.4675559E-002  0.4290291E+03  0.7818608E-02  0.1034167E+00
         21   -1    0    0  501  502  0.00000000000E+00  0.00000000000E+00  0.22713753361E+03  0.22713753361E+03  0.00000000000E+00 0.  1.
         21   -1    0    0  502  503 -0.00000000000E+00 -0.00000000000E+00 -0.81561571252E+03  0.81561571252E+03  0.00000000000E+00 0.  1.
    9000007    1    1    2  501    0 -0.63094375573E+02  0.14172193101E+03 -0.33604218129E+03  0.54496821335E+03  0.40000000000E+03 0. -1.
   -9000007    1    1    2    0  503  0.63094375573E+02 -0.14172193101E+03 -0.25243599762E+03  0.49778503277E+03  0.40000000000E+03 0. -1.
<mgrwt>
<rscale>  2 0.42902914E+03</rscale>
<asrwt>0</asrwt>
<pdfrwt beam="1">  1       21 0.34944236E-01 0.42902914E+03</pdfrwt>
<pdfrwt beam="2">  1       21 0.12547934E+00 0.42902914E+03</pdfrwt>
<totfact> 0.32626593E+03</totfact>
</mgrwt>
</event>
<event>
 4    1  0.4675559E-002  0.5245776E+03  0.7818608E-02  0.1007556E+00
         21   -1    0    0  503  502  0.00000000000E+00  0.00000000000E+00  0.30987107684E+03  0.30987107684E+03  0.00000000000E+00 0. -1.
         21   -1    0    0  501  503 -0.00000000000E+00 -0.00000000000E+00 -0.90690419401E+03  0.90690419401E+03  0.00000000000E+00 0. -1.
    9000007    1    1    2  501    0  0.29175007431E+03  0.17338836549E+03 -0.21080020612E+03  0.56534799730E+03  0.40000000000E+03 0. -1.
   -9000007    1    1    2    0  502 -0.29175007431E+03 -0.17338836549E+03 -0.38623291104E+03  0.65142727355E+03  0.40000000000E+03 0. -1.
<mgrwt>
<rscale>  2 0.52457757E+03</rscale>
<asrwt>0</asrwt>
<pdfrwt beam="1">  1       21 0.47672473E-01 0.52457757E+03</pdfrwt>
<pdfrwt beam="2">  1       21 0.13952372E+00 0.52457757E+03</pdfrwt>
<totfact> 0.12557834E+03</totfact>
</mgrwt>
</event>
<event>
 4    1  0.4675559E-002  0.4261068E+03  0.7818608E-02  0.1035097E+00
         21   -1    0    0  503  502  0.00000000000E+00  0.00000000000E+00  0.18384848926E+04  0.18384848926E+04  0.00000000000E+00 0. -1.
         21   -1    0    0  501  503 -0.00000000000E+00 -0.00000000000E+00 -0.98870850227E+02  0.98870850227E+02  0.00000000000E+00 0. -1.
    9000007    1    1    2  501    0 -0.10168923249E+03 -0.10595406525E+03  0.83722880426E+03  0.93942484246E+03  0.40000000000E+03 0. -1.
   -9000007    1    1    2    0  502  0.10168923249E+03  0.10595406525E+03  0.90238523813E+03  0.99793090039E+03  0.40000000000E+03 0. -1.
<mgrwt>
<rscale>  2 0.42610675E+03</rscale>
<asrwt>0</asrwt>
<pdfrwt beam="1">  1       21 0.28284381E+00 0.42610675E+03</pdfrwt>
<pdfrwt beam="2">  1       21 0.15210901E-01 0.42610675E+03</pdfrwt>
<totfact> 0.13551717E+03</totfact>
</mgrwt>
</event>
<event>
 4    1  0.4675559E-002  0.5659921E+03  0.7818608E-02  0.9978587E-01
         21   -1    0    0  501  502  0.00000000000E+00  0.00000000000E+00  0.11782997694E+04  0.11782997694E+04  0.00000000000E+00 0. -1.
         21   -1    0    0  502  503 -0.00000000000E+00 -0.00000000000E+00 -0.27367705939E+03  0.27367705939E+03  0.00000000000E+00 0.  1.
    9000007    1    1    2  501    0 -0.28948521697E+03  0.27666830054E+03  0.51126669011E+03  0.76271925883E+03  0.40000000000E+03 0.  1.
   -9000007    1    1    2    0  503  0.28948521697E+03 -0.27666830054E+03  0.39335601992E+03  0.68925756998E+03  0.40000000000E+03 0. -1.
<mgrwt>
<rscale>  2 0.56599208E+03</rscale>
<asrwt>0</asrwt>
<pdfrwt beam="1">  1       21 0.18127688E+00 0.56599208E+03</pdfrwt>
<pdfrwt beam="2">  1       21 0.42104164E-01 0.56599208E+03</pdfrwt>
<totfact> 0.77178402E+02</totfact>
</mgrwt>
</event>
<event>
 4    1  0.4675559E-002  0.5739019E+03  0.7818608E-02  0.9961081E-01
         21   -1    0    0  503  502  0.00000000000E+00  0.00000000000E+00  0.19513633957E+04  0.19513633957E+04  0.00000000000E+00 0. -1.
         21   -1    0    0  501  503 -0.00000000000E+00 -0.00000000000E+00 -0.79027348906E+03  0.79027348906E+03  0.00000000000E+00 0. -1.
    9000007    1    1    2  501    0 -0.39905182031E+03  0.10060362157E+03 -0.63510157996E+03  0.85598917098E+03  0.40000000000E+03 0. -1.
   -9000007    1    1    2    0  502  0.39905182031E+03 -0.10060362157E+03  0.17961914866E+04  0.18856477138E+04  0.40000000000E+03 0. -1.
<mgrwt>
<rscale>  2 0.57390195E+03</rscale>
<asrwt>0</asrwt>
<pdfrwt beam="1">  1       21 0.30020975E+00 0.57390195E+03</pdfrwt>
<pdfrwt beam="2">  1       21 0.12158054E+00 0.57390195E+03</pdfrwt>
<totfact> 0.11838422E+01</totfact>
</mgrwt>
</event>
<event>
 4    1  0.4675559E-002  0.4433699E+03  0.7818608E-02  0.1029718E+00
         21   -1    0    0  503  502  0.00000000000E+00  0.00000000000E+00  0.35199307410E+03  0.35199307410E+03  0.00000000000E+00 0.  1.
         21   -1    0    0  501  503 -0.00000000000E+00 -0.00000000000E+00 -0.98303095375E+03  0.98303095375E+03  0.00000000000E+00 0.  1.
    9000007    1    1    2  501    0 -0.71310154895E+02  0.17745903898E+03 -0.75419765844E+03  0.87486625076E+03  0.40000000000E+03 0.  1.
   -9000007    1    1    2    0  502  0.71310154895E+02 -0.17745903898E+03  0.12315977880E+03  0.46015777710E+03  0.40000000000E+03 0.  1.
<mgrwt>
<rscale>  2 0.44336988E+03</rscale>
<asrwt>0</asrwt>
<pdfrwt beam="1">  1       21 0.54152781E-01 0.44336988E+03</pdfrwt>
<pdfrwt beam="2">  1       21 0.15123553E+00 0.44336988E+03</pdfrwt>
<totfact> 0.79484344E+02</totfact>
</mgrwt>
</event>
<event>
 4    1  0.4675559E-002  0.4461876E+03  0.7818608E-02  0.1028865E+00
         21   -1    0    0  503  502  0.00000000000E+00  0.00000000000E+00  0.12799874181E+03  0.12799874181E+03  0.00000000000E+00 0.  1.
         21   -1    0    0  501  503 -0.00000000000E+00 -0.00000000000E+00 -0.16269152072E+04  0.16269152072E+04  0.00000000000E+00 0.  1.
    9000007    1    1    2  501    0 -0.71174719341E+02 -0.18443837937E+03 -0.93348549581E+03  0.10346393223E+04  0.40000000000E+03 0.  1.
   -9000007    1    1    2    0  502  0.71174719341E+02  0.18443837937E+03 -0.56543096957E+03  0.72027462665E+03  0.40000000000E+03 0.  1.
<mgrwt>
<rscale>  2 0.44618758E+03</rscale>
<asrwt>0</asrwt>
<pdfrwt beam="1">  1       21 0.19692114E-01 0.44618758E+03</pdfrwt>
<pdfrwt beam="2">  1       21 0.25029465E+00 0.44618758E+03</pdfrwt>
<totfact> 0.13012386E+03</totfact>
</mgrwt>
</event>
<event>
 4    1  0.4675559E-002  0.4434462E+03  0.7818608E-02  0.1029695E+00
         21   -1    0    0  501  502  0.00000000000E+00  0.00000000000E+00  0.84872542274E+03  0.84872542274E+03  0.00000000000E+00 0. -1.
         21   -1    0    0  502  503 -0.00000000000E+00 -0.00000000000E+00 -0.25793647756E+03  0.25793647756E+03  0.00000000000E+00 0. -1.
    9000007    1    1    2  501    0  0.65269867225E+02  0.17995658122E+03  0.47188914333E+03  0.64755222978E+03  0.40000000000E+03 0. -1.
   -9000007    1    1    2    0  503 -0.65269867225E+02 -0.17995658122E+03  0.11889980185E+03  0.45910967053E+03  0.40000000000E+03 0. -1.
<mgrwt>
<rscale>  2 0.44344619E+03</rscale>
<asrwt>0</asrwt>
<pdfrwt beam="1">  1       21 0.13057314E+00 0.44344619E+03</pdfrwt>
<pdfrwt beam="2">  1       21 0.39682535E-01 0.44344619E+03</pdfrwt>
<totfact> 0.22592538E+03</totfact>
</mgrwt>
</event>
<event>
 4    1  0.4675559E-002  0.4267138E+03  0.7818608E-02  0.1034903E+00
         21   -1    0    0  503  502  0.00000000000E+00  0.00000000000E+00  0.29111336826E+03  0.29111336826E+03  0.00000000000E+00 0.  1.
         21   -1    0    0  501  503 -0.00000000000E+00 -0.00000000000E+00 -0.67885085946E+03  0.67885085946E+03  0.00000000000E+00 0.  1.
    9000007    1    1    2  501    0  0.12529432412E+03  0.79912563247E+02 -0.32985758603E+03  0.53934285245E+03  0.40000000000E+03 0.  1.
   -9000007    1    1    2    0  502 -0.12529432412E+03 -0.79912563247E+02 -0.57879905162E+02  0.43062137527E+03  0.40000000000E+03 0.  1.
<mgrwt>
<rscale>  2 0.42671382E+03</rscale>
<asrwt>0</asrwt>
<pdfrwt beam="1">  1       21 0.44786673E-01 0.42671382E+03</pdfrwt>
<pdfrwt beam="2">  1       21 0.10443859E+00 0.42671382E+03</pdfrwt>
<totfact> 0.31056192E+03</totfact>
</mgrwt>
</event>
<event>
 4    1  0.4675559E-002  0.4210447E+03  0.7818608E-02  0.1036727E+00
         21   -1    0    0  503  502  0.00000000000E+00  0.00000000000E+00  0.30584162934E+03  0.30584162934E+03  0.00000000000E+00 0.  1.
         21   -1    0    0  501  503 -0.00000000000E+00 -0.00000000000E+00 -0.21266611704E+04  0.21266611704E+04  0.00000000000E+00 0.  1.
    9000007    1    1    2  501    0 -0.12261845506E+03  0.47364210484E+02 -0.19477519806E+04  0.19927409344E+04  0.40000000000E+03 0.  1.
   -9000007    1    1    2    0  502  0.12261845506E+03 -0.47364210484E+02  0.12693243953E+03  0.43976186529E+03  0.40000000000E+03 0.  1.
<mgrwt>
<rscale>  2 0.42104472E+03</rscale>
<asrwt>0</asrwt>
<pdfrwt beam="1">  1       21 0.47052558E-01 0.42104472E+03</pdfrwt>
<pdfrwt beam="2">  1       21 0.32717864E+00 0.42104472E+03</pdfrwt>
<totfact> 0.80007469E+01</totfact>
</mgrwt>
</event>
<event>
 4    1  0.4675559E-002  0.4103035E+03  0.7818608E-02  0.1040269E+00
         21   -1    0    0  503  502  0.00000000000E+00  0.00000000000E+00  0.33638368728E+03  0.33638368728E+03  0.00000000000E+00 0.  1.
         21   -1    0    0  501  503 -0.00000000000E+00 -0.00000000000E+00 -0.57698038375E+03  0.57698038375E+03  0.00000000000E+00 0.  1.
    9000007    1    1    2  501    0  0.44670117831E+02  0.79708880374E+02 -0.28660215517E+03  0.50048948079E+03  0.40000000000E+03 0. -1.
   -9000007    1    1    2    0  502 -0.44670117831E+02 -0.79708880374E+02  0.46005458696E+02  0.41287459024E+03  0.40000000000E+03 0. -1.
<mgrwt>
<rscale>  2 0.41030345E+03</rscale>
<asrwt>0</asrwt>
<pdfrwt beam="1">  1       21 0.51751337E-01 0.41030345E+03</pdfrwt>
<pdfrwt beam="2">  1       21 0.88766212E-01 0.41030345E+03</pdfrwt>
<totfact> 0.34035925E+03</totfact>
</mgrwt>
</event>
<event>
 4    1  0.4675559E-002  0.4160517E+03  0.7818608E-02  0.1038359E+00
         21   -1    0    0  503  502  0.00000000000E+00  0.00000000000E+00  0.24208957753E+03  0.24208957753E+03  0.00000000000E+00 0.  1.
         21   -1    0    0  501  503 -0.00000000000E+00 -0.00000000000E+00 -0.10159070262E+04  0.10159070262E+04  0.00000000000E+00 0.  1.
    9000007    1    1    2  501    0  0.38689742053E+00 -0.11445046237E+03 -0.72922198253E+03  0.83956164623E+03  0.40000000000E+03 0.  1.
   -9000007    1    1    2    0  502 -0.38689742053E+00  0.11445046237E+03 -0.44595466107E+02  0.41843495746E+03  0.40000000000E+03 0.  1.
<mgrwt>
<rscale>  2 0.41605175E+03</rscale>
<asrwt>0</asrwt>
<pdfrwt beam="1">  1       21 0.37244550E-01 0.41605175E+03</pdfrwt>
<pdfrwt beam="2">  1       21 0.15629339E+00 0.41605175E+03</pdfrwt>
<totfact> 0.16095097E+03</totfact>
</mgrwt>
</event>
<event>
 4    1  0.4675559E-002  0.4052302E+03  0.7818608E-02  0.1041984E+00
         21   -1    0    0  501  502  0.00000000000E+00  0.00000000000E+00  0.10991226722E+04  0.10991226722E+04  0.00000000000E+00 0.  1.
         21   -1    0    0  502  503 -0.00000000000E+00 -0.00000000000E+00 -0.18425721486E+03  0.18425721486E+03  0.00000000000E+00 0.  1.
    9000007    1    1    2  501    0  0.59472263111E+02  0.25972322821E+02  0.17834247185E+03  0.44273869144E+03  0.40000000000E+03 0. -1.
   -9000007    1    1    2    0  503 -0.59472263111E+02 -0.25972322821E+02  0.73652298550E+03  0.84064119564E+03  0.40000000000E+03 0. -1.
<mgrwt>
<rscale>  2 0.40523020E+03</rscale>
<asrwt>0</asrwt>
<pdfrwt beam="1">  1       21 0.16909579E+00 0.40523020E+03</pdfrwt>
<pdfrwt beam="2">  1       21 0.28347264E-01 0.40523020E+03</pdfrwt>
<totfact> 0.22420902E+03</totfact>
</mgrwt>
</event>
<event>
 4    1  0.4675559E-002  0.4140615E+03  0.7818608E-02  0.1039017E+00
         21   -1    0    0  503  502  0.00000000000E+00  0.00000000000E+00  0.60380231564E+03  0.60380231564E+03  0.00000000000E+00 0. -1.
         21   -1    0    0  501  503 -0.00000000000E+00 -0.00000000000E+00 -0.52392455424E+03  0.52392455424E+03  0.00000000000E+00 0. -1.
    9000007    1    1    2  501    0  0.88644881619E+02  0.59908537899E+02 -0.34167681502E+03  0.53683330175E+03  0.40000000000E+03 0. -1.
   -9000007    1    1    2    0  502 -0.88644881619E+02 -0.59908537899E+02  0.42155457642E+03  0.59089356813E+03  0.40000000000E+03 0. -1.
<mgrwt>
<rscale>  2 0.41406153E+03</rscale>
<asrwt>0</asrwt>
<pdfrwt beam="1">  1       21 0.92892663E-01 0.41406153E+03</pdfrwt>
<pdfrwt beam="2">  1       21 0.80603778E-01 0.41406153E+03</pdfrwt>
<totfact> 0.11425692E+03</totfact>
</mgrwt>
</event>
<event>
 4    1  0.4675559E-002  0.4841546E+03  0.7818608E-02  0.1018000E+00
         21   -1    0    0  501  502  0.00000000000E+00  0.00000000000E+00  0.62025527802E+03  0.62025527802E+03  0.00000000000E+00 0.  1.
         21   -1    0    0  502  503 -0.00000000000E+00 -0.00000000000E+00 -0.37793811567E+03  0.37793811567E+03  0.00000000000E+00 0. -1.
    9000007    1    1    2  501    0  0.25072605109E+03 -0.10743445660E+03  0.11752924471E+03  0.49821565463E+03  0.40000000000E+03 0.  1.
   -9000007    1    1    2    0  503 -0.25072605109E+03  0.10743445660E+03  0.12478791764E+03  0.49997773905E+03  0.40000000000E+03 0.  1.
<mgrwt>
<rscale>  2 0.48415464E+03</rscale>
<asrwt>0</asrwt>
<pdfrwt beam="1">  1       21 0.95423889E-01 0.48415464E+03</pdfrwt>
<pdfrwt beam="2">  1       21 0.58144326E-01 0.48415464E+03</pdfrwt>
<totfact> 0.21695531E+03</totfact>
</mgrwt>
</event>
<event>
 4    1  0.4675559E-002  0.4908366E+03  0.7818608E-02  0.1016199E+00
         21   -1    0    0  503  502  0.00000000000E+00  0.00000000000E+00  0.51489837586E+03  0.51489837586E+03  0.00000000000E+00 0.  1.
         21   -1    0    0  501  503 -0.00000000000E+00 -0.00000000000E+00 -0.54759267098E+03  0.54759267098E+03  0.00000000000E+00 0. -1.
    9000007    1    1    2  501    0 -0.12137472235E+03 -0.25727179502E+03 -0.21901157000E+03  0.53748178344E+03  0.40000000000E+03 0. -1.
   -9000007    1    1    2    0  502  0.12137472235E+03  0.25727179502E+03  0.18631727488E+03  0.52500926340E+03  0.40000000000E+03 0.  1.
<mgrwt>
<rscale>  2 0.49083663E+03</rscale>
<asrwt>0</asrwt>
<pdfrwt beam="1">  1       21 0.79215135E-01 0.49083663E+03</pdfrwt>
<pdfrwt beam="2">  1       21 0.84245026E-01 0.49083663E+03</pdfrwt>
<totfact> 0.14528277E+03</totfact>
</mgrwt>
</event>
<event>
 4    1  0.4675559E-002  0.4958643E+03  0.7818608E-02  0.1014864E+00
         21   -1    0    0  503  502  0.00000000000E+00  0.00000000000E+00  0.49167587482E+03  0.49167587482E+03  0.00000000000E+00 0.  1.
         21   -1    0    0  501  503 -0.00000000000E+00 -0.00000000000E+00 -0.78923269358E+03  0.78923269358E+03  0.00000000000E+00 0.  1.
    9000007    1    1    2  501    0 -0.23096353614E+03  0.18038094972E+03 -0.53643114442E+03  0.73050654669E+03  0.40000000000E+03 0. -1.
   -9000007    1    1    2    0  502  0.23096353614E+03 -0.18038094972E+03  0.23887432567E+03  0.55040202172E+03  0.40000000000E+03 0. -1.
<mgrwt>
<rscale>  2 0.49586434E+03</rscale>
<asrwt>0</asrwt>
<pdfrwt beam="1">  1       21 0.75642442E-01 0.49586434E+03</pdfrwt>
<pdfrwt beam="2">  1       21 0.12142041E+00 0.49586434E+03</pdfrwt>
<totfact> 0.66048794E+02</totfact>
</mgrwt>
</event>
<event>
 4    1  0.4675559E-002  0.5860513E+03  0.7818608E-02  0.9934775E-01
         21   -1    0    0  503  502  0.00000000000E+00  0.00000000000E+00  0.12563511241E+04  0.12563511241E+04  0.00000000000E+00 0. -1.
         21   -1    0    0  501  503 -0.00000000000E+00 -0.00000000000E+00 -0.28107420485E+03  0.28107420485E+03  0.00000000000E+00 0.  1.
    9000007    1    1    2  501    0  0.41763724535E+03 -0.95053687899E+02  0.61485750957E+03  0.84941499243E+03  0.40000000000E+03 0. -1.
   -9000007    1    1    2    0  502 -0.41763724535E+03  0.95053687899E+02  0.36041940967E+03  0.68801033651E+03  0.40000000000E+03 0. -1.
<mgrwt>
<rscale>  2 0.58605125E+03</rscale>
<asrwt>0</asrwt>
<pdfrwt beam="1">  1       21 0.19328478E+00 0.58605125E+03</pdfrwt>
<pdfrwt beam="2">  1       21 0.43242186E-01 0.58605125E+03</pdfrwt>
<totfact> 0.59777658E+02</totfact>
</mgrwt>
</event>
<event>
 4    1  0.4675559E-002  0.4483481E+03  0.7818608E-02  0.1028216E+00
         21   -1    0    0  501  502  0.00000000000E+00  0.00000000000E+00  0.42712578015E+03  0.42712578015E+03  0.00000000000E+00 0. -1.
         21   -1    0    0  502  503 -0.00000000000E+00 -0.00000000000E+00 -0.68070975898E+03  0.68070975898E+03  0.00000000000E+00 0.  1.
    9000007    1    1    2  501    0 -0.99863058700E+02 -0.17619144090E+03  0.18093218908E+03  0.48347958735E+03  0.40000000000E+03 0. -1.
   -9000007    1    1    2    0  503  0.99863058700E+02  0.17619144090E+03 -0.43451616791E+03  0.62435595177E+03  0.40000000000E+03 0.  1.
<mgrwt>
<rscale>  2 0.44834814E+03</rscale>
<asrwt>0</asrwt>
<pdfrwt beam="1">  1       21 0.65711659E-01 0.44834814E+03</pdfrwt>
<pdfrwt beam="2">  1       21 0.10472458E+00 0.44834814E+03</pdfrwt>
<totfact> 0.13389712E+03</totfact>
</mgrwt>
</event>
<event>
 4    1  0.4675559E-002  0.4354910E+03  0.7818608E-02  0.1032139E+00
         21   -1    0    0  501  502  0.00000000000E+00  0.00000000000E+00  0.31366455489E+03  0.31366455489E+03  0.00000000000E+00 0.  1.
         21   -1    0    0  502  503 -0.00000000000E+00 -0.00000000000E+00 -0.14459165364E+04  0.14459165364E+04  0.00000000000E+00 0. -1.
    9000007    1    1    2  501    0  0.10121243132E+03 -0.13931436639E+03  0.10496043643E+03  0.44796109446E+03  0.40000000000E+03 0.  1.
   -9000007    1    1    2    0  503 -0.10121243132E+03  0.13931436639E+03 -0.12372124180E+04  0.13116199969E+04  0.40000000000E+03 0. -1.
<mgrwt>
<rscale>  2 0.43549104E+03</rscale>
<asrwt>0</asrwt>
<pdfrwt beam="1">  1       21 0.48256084E-01 0.43549104E+03</pdfrwt>
<pdfrwt beam="2">  1       21 0.22244870E+00 0.43549104E+03</pdfrwt>
<totfact> 0.32585312E+02</totfact>
</mgrwt>
</event>
<event>
 4    1  0.4675559E-002  0.4311880E+03  0.7818608E-02  0.1033485E+00
         21   -1    0    0  503  502  0.00000000000E+00  0.00000000000E+00  0.50013315151E+03  0.50013315151E+03  0.00000000000E+00 0. -1.
         21   -1    0    0  501  503 -0.00000000000E+00 -0.00000000000E+00 -0.37175292448E+03  0.37175292448E+03  0.00000000000E+00 0. -1.
    9000007    1    1    2  501    0  0.89238936018E+01  0.16075895642E+03  0.65906988662E+02  0.43619583801E+03  0.40000000000E+03 0. -1.
   -9000007    1    1    2    0  502 -0.89238936018E+01 -0.16075895642E+03  0.62473238368E+02  0.43569023797E+03  0.40000000000E+03 0. -1.
<mgrwt>
<rscale>  2 0.43118798E+03</rscale>
<asrwt>0</asrwt>
<pdfrwt beam="1">  1       21 0.76943562E-01 0.43118798E+03</pdfrwt>
<pdfrwt beam="2">  1       21 0.57192758E-01 0.43118798E+03</pdfrwt>
<totfact> 0.37960067E+03</totfact>
</mgrwt>
</event>
<event>
 4    1  0.4675559E-002  0.6812636E+03  0.7818608E-02  0.9749822E-01
         21   -1    0    0  501  502  0.00000000000E+00  0.00000000000E+00  0.65768890917E+03  0.65768890917E+03  0.00000000000E+00 0. -1.
         21   -1    0    0  502  503 -0.00000000000E+00 -0.00000000000E+00 -0.11479936626E+04  0.11479936626E+04  0.00000000000E+00 0.  1.
    9000007    1    1    2  501    0  0.13866082954E+03  0.53375390576E+03  0.31525680108E+03  0.75067097199E+03  0.40000000000E+03 0. -1.
   -9000007    1    1    2    0  503 -0.13866082954E+03 -0.53375390576E+03 -0.80556155449E+03  0.10550115998E+04  0.40000000000E+03 0.  1.
<mgrwt>
<rscale>  2 0.68126357E+03</rscale>
<asrwt>0</asrwt>
<pdfrwt beam="1">  1       21 0.10118291E+00 0.68126357E+03</pdfrwt>
<pdfrwt beam="2">  1       21 0.17661441E+00 0.68126357E+03</pdfrwt>
<totfact> 0.11127228E+02</totfact>
</mgrwt>
</event>
<event>
 4    1  0.4675559E-002  0.4997516E+03  0.7818608E-02  0.1013844E+00
         21   -1    0    0  503  502  0.00000000000E+00  0.00000000000E+00  0.77968247556E+03  0.77968247556E+03  0.00000000000E+00 0.  1.
         21   -1    0    0  501  503 -0.00000000000E+00 -0.00000000000E+00 -0.37491813022E+03  0.37491813022E+03  0.00000000000E+00 0.  1.
    9000007    1    1    2  501    0 -0.12858897454E+02 -0.29930975611E+03 -0.17912051858E+02  0.50007251769E+03  0.40000000000E+03 0.  1.
   -9000007    1    1    2    0  502  0.12858897454E+02  0.29930975611E+03  0.42267639720E+03  0.65452808809E+03  0.40000000000E+03 0.  1.
<mgrwt>
<rscale>  2 0.49975162E+03</rscale>
<asrwt>0</asrwt>
<pdfrwt beam="1">  1       21 0.11995115E+00 0.49975162E+03</pdfrwt>
<pdfrwt beam="2">  1       21 0.57679713E-01 0.49975162E+03</pdfrwt>
<totfact> 0.12470115E+03</totfact>
</mgrwt>
</event>
<event>
 4    1  0.4675559E-002  0.5374036E+03  0.7818608E-02  0.1004452E+00
         21   -1    0    0  503  502  0.00000000000E+00  0.00000000000E+00  0.10078494432E+04  0.10078494432E+04  0.00000000000E+00 0.  1.
         21   -1    0    0  501  503 -0.00000000000E+00 -0.00000000000E+00 -0.15167256701E+04  0.15167256701E+04  0.00000000000E+00 0.  1.
    9000007    1    1    2  501    0 -0.35669933142E+03  0.39600344315E+02 -0.13912477957E+04  0.14914332131E+04  0.40000000000E+03 0.  1.
   -9000007    1    1    2    0  502  0.35669933142E+03 -0.39600344315E+02  0.88237156881E+03  0.10331419001E+04  0.40000000000E+03 0.  1.
<mgrwt>
<rscale>  2 0.53740357E+03</rscale>
<asrwt>0</asrwt>
<pdfrwt beam="1">  1       21 0.15505376E+00 0.53740357E+03</pdfrwt>
<pdfrwt beam="2">  1       21 0.23334241E+00 0.53740357E+03</pdfrwt>
<totfact> 0.16313631E+01</totfact>
</mgrwt>
</event>
<event>
 4    1  0.4675559E-002  0.6022955E+03  0.7818608E-02  0.9900655E-01
         21   -1    0    0  503  502  0.00000000000E+00  0.00000000000E+00  0.49522996735E+03  0.49522996735E+03  0.00000000000E+00 0. -1.
         21   -1    0    0  501  503 -0.00000000000E+00 -0.00000000000E+00 -0.73273392170E+03  0.73273392170E+03  0.00000000000E+00 0. -1.
    9000007    1    1    2  501    0  0.18723096576E+03 -0.40951737596E+03 -0.12953289991E+03  0.61606711316E+03  0.40000000000E+03 0. -1.
   -9000007    1    1    2    0  502 -0.18723096576E+03  0.40951737596E+03 -0.10797105443E+03  0.61189677589E+03  0.40000000000E+03 0. -1.
<mgrwt>
<rscale>  2 0.60229554E+03</rscale>
<asrwt>0</asrwt>
<pdfrwt beam="1">  1       21 0.76189226E-01 0.60229554E+03</pdfrwt>
<pdfrwt beam="2">  1       21 0.11272830E+00 0.60229554E+03</pdfrwt>
<totfact> 0.75533586E+02</totfact>
</mgrwt>
</event>
<event>
 4    1  0.4675559E-002  0.4358946E+03  0.7818608E-02  0.1032014E+00
         21   -1    0    0  503  502  0.00000000000E+00  0.00000000000E+00  0.34854063561E+03  0.34854063561E+03  0.00000000000E+00 0. -1.
         21   -1    0    0  501  503 -0.00000000000E+00 -0.00000000000E+00 -0.56653180822E+03  0.56653180822E+03  0.00000000000E+00 0. -1.
    9000007    1    1    2  501    0 -0.11929316752E+03  0.12559162468E+03 -0.20092374166E+02  0.43635744466E+03  0.40000000000E+03 0. -1.
   -9000007    1    1    2    0  502  0.11929316752E+03 -0.12559162468E+03 -0.19789879845E+03  0.47871499918E+03  0.40000000000E+03 0. -1.
<mgrwt>
<rscale>  2 0.43589462E+03</rscale>
<asrwt>0</asrwt>
<pdfrwt beam="1">  1       21 0.53621636E-01 0.43589462E+03</pdfrwt>
<pdfrwt beam="2">  1       21 0.87158740E-01 0.43589462E+03</pdfrwt>
<totfact> 0.32619203E+03</totfact>
</mgrwt>
</event>
<event>
 4    1  0.4675559E-002  0.7138173E+03  0.7818608E-02  0.9693890E-01
         21   -1    0    0  501  502  0.00000000000E+00  0.00000000000E+00  0.11524895474E+04  0.11524895474E+04  0.00000000000E+00 0.  1.
         21   -1    0    0  502  503 -0.00000000000E+00 -0.00000000000E+00 -0.66874288409E+03  0.66874288409E+03  0.00000000000E+00 0. -1.
    9000007    1    1    2  501    0  0.34444158852E+03 -0.48051541701E+03  0.77197683083E+03  0.10514196599E+04  0.40000000000E+03 0.  1.
   -9000007    1    1    2    0  503 -0.34444158852E+03  0.48051541701E+03 -0.28823016750E+03  0.76981277162E+03  0.40000000000E+03 0. -1.
<mgrwt>
<rscale>  2 0.71381726E+03</rscale>
<asrwt>0</asrwt>
<pdfrwt beam="1">  1       21 0.17730608E+00 0.71381726E+03</pdfrwt>
<pdfrwt beam="2">  1       21 0.10288352E+00 0.71381726E+03</pdfrwt>
<totfact> 0.10435845E+02</totfact>
</mgrwt>
</event>
<event>
 4    1  0.4675559E-002  0.4211274E+03  0.7818608E-02  0.1036700E+00
         21   -1    0    0  503  502  0.00000000000E+00  0.00000000000E+00  0.19492774897E+03  0.19492774897E+03  0.00000000000E+00 0. -1.
         21   -1    0    0  501  503 -0.00000000000E+00 -0.00000000000E+00 -0.14759256534E+04  0.14759256534E+04  0.00000000000E+00 0. -1.
    9000007    1    1    2  501    0 -0.86115235065E+02 -0.99661832791E+02 -0.11578990775E+04  0.12321033188E+04  0.40000000000E+03 0. -1.
   -9000007    1    1    2    0  502  0.86115235065E+02  0.99661832791E+02 -0.12309882696E+03  0.43875008356E+03  0.40000000000E+03 0. -1.
<mgrwt>
<rscale>  2 0.42112743E+03</rscale>
<asrwt>0</asrwt>
<pdfrwt beam="1">  1       21 0.29988884E-01 0.42112743E+03</pdfrwt>
<pdfrwt beam="2">  1       21 0.22706549E+00 0.42112743E+03</pdfrwt>
<totfact> 0.81239191E+02</totfact>
</mgrwt>
</event>
<event>
 4    1  0.4675559E-002  0.7972511E+03  0.7818608E-02  0.9564005E-01
         21   -1    0    0  503  502  0.00000000000E+00  0.00000000000E+00  0.48668440543E+03  0.48668440543E+03  0.00000000000E+00 0.  1.
         21   -1    0    0  501  503 -0.00000000000E+00 -0.00000000000E+00 -0.15117610427E+04  0.15117610427E+04  0.00000000000E+00 0. -1.
    9000007    1    1    2  501    0 -0.63722706957E+02  0.68669406315E+03 -0.88117913337E+03  0.11883122421E+04  0.40000000000E+03 0. -1.
   -9000007    1    1    2    0  502  0.63722706957E+02 -0.68669406315E+03 -0.14389750386E+03  0.81013320594E+03  0.40000000000E+03 0.  1.
<mgrwt>
<rscale>  2 0.79725110E+03</rscale>
<asrwt>0</asrwt>
<pdfrwt beam="1">  1       21 0.74874525E-01 0.79725110E+03</pdfrwt>
<pdfrwt beam="2">  1       21 0.23257862E+00 0.79725110E+03</pdfrwt>
<totfact> 0.91736829E+01</totfact>
</mgrwt>
</event>
<event>
 4    1  0.4675559E-002  0.4537749E+03  0.7818608E-02  0.1026602E+00
         21   -1    0    0  503  502  0.00000000000E+00  0.00000000000E+00  0.29443035216E+03  0.29443035216E+03  0.00000000000E+00 0. -1.
         21   -1    0    0  501  503 -0.00000000000E+00 -0.00000000000E+00 -0.72732783160E+03  0.72732783160E+03  0.00000000000E+00 0.  1.
    9000007    1    1    2  501    0 -0.17332222788E+03  0.12598039762E+03 -0.31663609241E+03  0.55332636868E+03  0.40000000000E+03 0.  1.
   -9000007    1    1    2    0  502  0.17332222788E+03 -0.12598039762E+03 -0.11626138702E+03  0.46843181507E+03  0.40000000000E+03 0.  1.
<mgrwt>
<rscale>  2 0.45377489E+03</rscale>
<asrwt>0</asrwt>
<pdfrwt beam="1">  1       21 0.45296978E-01 0.45377489E+03</pdfrwt>
<pdfrwt beam="2">  1       21 0.11189659E+00 0.45377489E+03</pdfrwt>
<totfact> 0.25317401E+03</totfact>
</mgrwt>
</event>
<event>
 4    1  0.4675559E-002  0.4718961E+03  0.7818608E-02  0.1021386E+00
         21   -1    0    0  503  502  0.00000000000E+00  0.00000000000E+00  0.82972554910E+03  0.82972554910E+03  0.00000000000E+00 0. -1.
         21   -1    0    0  501  503 -0.00000000000E+00 -0.00000000000E+00 -0.28025432614E+03  0.28025432614E+03  0.00000000000E+00 0.  1.
    9000007    1    1    2  501    0  0.81209719880E+02 -0.23683523736E+03  0.16052124727E+03  0.49845061850E+03  0.40000000000E+03 0.  1.
   -9000007    1    1    2    0  502 -0.81209719880E+02  0.23683523736E+03  0.38894997568E+03  0.61152925673E+03  0.40000000000E+03 0. -1.
<mgrwt>
<rscale>  2 0.47189612E+03</rscale>
<asrwt>0</asrwt>
<pdfrwt beam="1">  1       21 0.12765008E+00 0.47189612E+03</pdfrwt>
<pdfrwt beam="2">  1       21 0.43116051E-01 0.47189612E+03</pdfrwt>
<totfact> 0.19958798E+03</totfact>
</mgrwt>
</event>
<event>
 4    1  0.4675559E-002  0.4167244E+03  0.7818608E-02  0.1038138E+00
         21   -1    0    0  501  502  0.00000000000E+00  0.00000000000E+00  0.16251919144E+03  0.16251919144E+03  0.00000000000E+00 0.  1.
         21   -1    0    0  502  503 -0.00000000000E+00 -0.00000000000E+00 -0.11304100222E+04  0.11304100222E+04  0.00000000000E+00 0.  1.
    9000007    1    1    2  501    0  0.30155905699E+02 -0.11291527272E+03 -0.63517811689E+03  0.75967787755E+03  0.40000000000E+03 0.  1.
   -9000007    1    1    2    0  503 -0.30155905699E+02  0.11291527272E+03 -0.33271271383E+03  0.53325133606E+03  0.40000000000E+03 0.  1.
<mgrwt>
<rscale>  2 0.41672441E+03</rscale>
<asrwt>0</asrwt>
<pdfrwt beam="1">  1       21 0.25002951E-01 0.41672441E+03</pdfrwt>
<pdfrwt beam="2">  1       21 0.17390924E+00 0.41672441E+03</pdfrwt>
<totfact> 0.26325709E+03</totfact>
</mgrwt>
</event>
<event>
 4    1  0.4675559E-002  0.5543224E+03  0.7818608E-02  0.1000498E+00
         21   -1    0    0  501  502  0.00000000000E+00  0.00000000000E+00  0.91763562762E+03  0.91763562762E+03  0.00000000000E+00 0. -1.
         21   -1    0    0  502  503 -0.00000000000E+00 -0.00000000000E+00 -0.50171901504E+03  0.50171901504E+03  0.00000000000E+00 0. -1.
    9000007    1    1    2  501    0 -0.37215472158E+03  0.93670716930E+02 -0.20131570908E+03  0.58974685648E+03  0.40000000000E+03 0. -1.
   -9000007    1    1    2    0  503  0.37215472158E+03 -0.93670716930E+02  0.61723232166E+03  0.82960778619E+03  0.40000000000E+03 0. -1.
<mgrwt>
<rscale>  2 0.55432242E+03</rscale>
<asrwt>0</asrwt>
<pdfrwt beam="1">  1       21 0.14117471E+00 0.55432242E+03</pdfrwt>
<pdfrwt beam="2">  1       21 0.77187541E-01 0.55432242E+03</pdfrwt>
<totfact> 0.41565445E+02</totfact>
</mgrwt>
</event>
<event>
 4    1  0.4675559E-002  0.4813117E+03  0.7818608E-02  0.1018775E+00
         21   -1    0    0  501  502  0.00000000000E+00  0.00000000000E+00  0.13131777382E+04  0.13131777382E+04  0.00000000000E+00 0.  1.
         21   -1    0    0  502  503 -0.00000000000E+00 -0.00000000000E+00 -0.21204210518E+03  0.21204210518E+03  0.00000000000E+00 0.  1.
    9000007    1    1    2  501    0 -0.21267090292E+03  0.16257946762E+03  0.86317342846E+03  0.98829619237E+03  0.40000000000E+03 0. -1.
   -9000007    1    1    2    0  503  0.21267090292E+03 -0.16257946762E+03  0.23796220459E+03  0.53692365104E+03  0.40000000000E+03 0. -1.
<mgrwt>
<rscale>  2 0.48131175E+03</rscale>
<asrwt>0</asrwt>
<pdfrwt beam="1">  1       21 0.20202734E+00 0.48131175E+03</pdfrwt>
<pdfrwt beam="2">  1       21 0.32621863E-01 0.48131175E+03</pdfrwt>
<totfact> 0.96884694E+02</totfact>
</mgrwt>
</event>
<event>
 4    1  0.4675559E-002  0.4447355E+03  0.7818608E-02  0.1029304E+00
         21   -1    0    0  503  502  0.00000000000E+00  0.00000000000E+00  0.22241902218E+04  0.22241902218E+04  0.00000000000E+00 0.  1.
         21   -1    0    0  501  503 -0.00000000000E+00 -0.00000000000E+00 -0.14511503102E+03  0.14511503102E+03  0.00000000000E+00 0.  1.
    9000007    1    1    2  501    0 -0.58801413143E+02 -0.18528920307E+03  0.30238357479E+03  0.53779691452E+03  0.40000000000E+03 0.  1.
   -9000007    1    1    2    0  502  0.58801413143E+02  0.18528920307E+03  0.17766916160E+04  0.18315083383E+04  0.40000000000E+03 0.  1.
<mgrwt>
<rscale>  2 0.44473553E+03</rscale>
<asrwt>0</asrwt>
<pdfrwt beam="1">  1       21 0.34218309E+00 0.44473553E+03</pdfrwt>
<pdfrwt beam="2">  1       21 0.22325391E-01 0.44473553E+03</pdfrwt>
<totfact> 0.28508606E+02</totfact>
</mgrwt>
</event>
<event>
 4    1  0.4675559E-002  0.4482617E+03  0.7818608E-02  0.1028242E+00
         21   -1    0    0  503  502  0.00000000000E+00  0.00000000000E+00  0.19056796855E+03  0.19056796855E+03  0.00000000000E+00 0.  1.
         21   -1    0    0  501  503 -0.00000000000E+00 -0.00000000000E+00 -0.14180951688E+04  0.14180951688E+04  0.00000000000E+00 0.  1.
    9000007    1    1    2  501    0 -0.13285434361E+03 -0.15260498444E+03 -0.10210872480E+04  0.11151491945E+04  0.40000000000E+03 0.  1.
   -9000007    1    1    2    0  502  0.13285434361E+03  0.15260498444E+03 -0.20643995217E+03  0.49351394281E+03  0.40000000000E+03 0.  1.
<mgrwt>
<rscale>  2 0.44826171E+03</rscale>
<asrwt>0</asrwt>
<pdfrwt beam="1">  1       21 0.29318148E-01 0.44826171E+03</pdfrwt>
<pdfrwt beam="2">  1       21 0.21816850E+00 0.44826171E+03</pdfrwt>
<totfact> 0.95482089E+02</totfact>
</mgrwt>
</event>
<event>
 4    1  0.4675559E-002  0.4546569E+03  0.7818608E-02  0.1026342E+00
         21   -1    0    0  501  502  0.00000000000E+00  0.00000000000E+00  0.13919355477E+04  0.13919355477E+04  0.00000000000E+00 0.  1.
         21   -1    0    0  502  503 -0.00000000000E+00 -0.00000000000E+00 -0.26725442635E+03  0.26725442635E+03  0.00000000000E+00 0.  1.
    9000007    1    1    2  501    0  0.10271298698E+03  0.19016562546E+03  0.11153273836E+04  0.12044368375E+04  0.40000000000E+03 0.  1.
   -9000007    1    1    2    0  503 -0.10271298698E+03 -0.19016562546E+03  0.93537377063E+01  0.45475313656E+03  0.40000000000E+03 0.  1.
<mgrwt>
<rscale>  2 0.45465693E+03</rscale>
<asrwt>0</asrwt>
<pdfrwt beam="1">  1       21 0.21414393E+00 0.45465693E+03</pdfrwt>
<pdfrwt beam="2">  1       21 0.41116066E-01 0.45465693E+03</pdfrwt>
<totfact> 0.50979150E+02</totfact>
</mgrwt>
</event>
<event>
 4    1  0.4675559E-002  0.6847115E+03  0.7818608E-02  0.9743741E-01
         21   -1    0    0  501  502  0.00000000000E+00  0.00000000000E+00  0.87003577639E+03  0.87003577639E+03  0.00000000000E+00 0. -1.
         21   -1    0    0  502  503 -0.00000000000E+00 -0.00000000000E+00 -0.71874687204E+03  0.71874687204E+03  0.00000000000E+00 0.  1.
    9000007    1    1    2  501    0  0.32797520522E+03  0.44862251888E+03  0.47305819786E+03  0.83223431691E+03  0.40000000000E+03 0. -1.
   -9000007    1    1    2    0  503 -0.32797520522E+03 -0.44862251888E+03 -0.32176929351E+03  0.75654833152E+03  0.40000000000E+03 0.  1.
<mgrwt>
<rscale>  2 0.68471154E+03</rscale>
<asrwt>0</asrwt>
<pdfrwt beam="1">  1       21 0.13385166E+00 0.68471154E+03</pdfrwt>
<pdfrwt beam="2">  1       21 0.11057644E+00 0.68471154E+03</pdfrwt>
<totfact> 0.19288424E+02</totfact>
</mgrwt>
</event>
<event>
 4    1  0.4675559E-002  0.4089305E+03  0.7818608E-02  0.1040731E+00
         21   -1    0    0  501  502  0.00000000000E+00  0.00000000000E+00  0.41422481049E+03  0.41422481049E+03  0.00000000000E+00 0. -1.
         21   -1    0    0  502  503 -0.00000000000E+00 -0.00000000000E+00 -0.40598465054E+03  0.40598465054E+03  0.00000000000E+00 0. -1.
    9000007    1    1    2  501    0 -0.68263819370E+02 -0.50637845901E+02  0.34858814905E+02  0.41041354443E+03  0.40000000000E+03 0. -1.
   -9000007    1    1    2    0  503  0.68263819370E+02  0.50637845901E+02 -0.26618654958E+02  0.40979591660E+03  0.40000000000E+03 0. -1.
<mgrwt>
<rscale>  2 0.40893048E+03</rscale>
<asrwt>0</asrwt>
<pdfrwt beam="1">  1       21 0.63726894E-01 0.40893048E+03</pdfrwt>
<pdfrwt beam="2">  1       21 0.62459177E-01 0.40893048E+03</pdfrwt>
<totfact> 0.48217274E+03</totfact>
</mgrwt>
</event>
<event>
 4    1  0.4675559E-002  0.4469330E+03  0.7818608E-02  0.1028641E+00
         21   -1    0    0  501  502  0.00000000000E+00  0.00000000000E+00  0.24160549504E+03  0.24160549504E+03  0.00000000000E+00 0.  1.
         21   -1    0    0  502  503 -0.00000000000E+00 -0.00000000000E+00 -0.12554551573E+04  0.12554551573E+04  0.00000000000E+00 0. -1.
    9000007    1    1    2  501    0  0.19155036997E+03 -0.55294992084E+02 -0.69519059487E+02  0.45230739549E+03  0.40000000000E+03 0.  1.
   -9000007    1    1    2    0  503 -0.19155036997E+03  0.55294992084E+02 -0.94433060281E+03  0.10447532569E+04  0.40000000000E+03 0. -1.
<mgrwt>
<rscale>  2 0.44693297E+03</rscale>
<asrwt>0</asrwt>
<pdfrwt beam="1">  1       21 0.37170077E-01 0.44693297E+03</pdfrwt>
<pdfrwt beam="2">  1       21 0.19314694E+00 0.44693297E+03</pdfrwt>
<totfact> 0.86685310E+02</totfact>
</mgrwt>
</event>
<event>
 4    1  0.4675559E-002  0.5050517E+03  0.7818608E-02  0.1012469E+00
         21   -1    0    0  503  502  0.00000000000E+00  0.00000000000E+00  0.16926515623E+03  0.16926515623E+03  0.00000000000E+00 0.  1.
         21   -1    0    0  501  503 -0.00000000000E+00 -0.00000000000E+00 -0.15102200998E+04  0.15102200998E+04  0.00000000000E+00 0.  1.
    9000007    1    1    2  501    0  0.21522757934E+03 -0.22080371155E+03 -0.63151004715E+03  0.80862978525E+03  0.40000000000E+03 0.  1.
   -9000007    1    1    2    0  502 -0.21522757934E+03  0.22080371155E+03 -0.70944489644E+03  0.87085547080E+03  0.40000000000E+03 0.  1.
<mgrwt>
<rscale>  2 0.50505167E+03</rscale>
<asrwt>0</asrwt>
<pdfrwt beam="1">  1       21 0.26040792E-01 0.50505167E+03</pdfrwt>
<pdfrwt beam="2">  1       21 0.23234156E+00 0.50505167E+03</pdfrwt>
<totfact> 0.95518026E+02</totfact>
</mgrwt>
</event>
<event>
 4    1  0.4675559E-002  0.7899249E+03  0.7818608E-02  0.9574716E-01
         21   -1    0    0  503  502  0.00000000000E+00  0.00000000000E+00  0.10906663125E+04  0.10906663125E+04  0.00000000000E+00 0.  1.
         21   -1    0    0  501  503 -0.00000000000E+00 -0.00000000000E+00 -0.79274808369E+03  0.79274808369E+03  0.00000000000E+00 0. -1.
    9000007    1    1    2  501    0  0.31250260731E+03  0.60524655405E+03  0.64576688215E+03  0.10202921821E+04  0.40000000000E+03 0.  1.
   -9000007    1    1    2    0  502 -0.31250260731E+03 -0.60524655405E+03 -0.34784865337E+03  0.86312221407E+03  0.40000000000E+03 0. -1.
<mgrwt>
<rscale>  2 0.78992485E+03</rscale>
<asrwt>0</asrwt>
<pdfrwt beam="1">  1       21 0.16779482E+00 0.78992485E+03</pdfrwt>
<pdfrwt beam="2">  1       21 0.12196124E+00 0.78992485E+03</pdfrwt>
<totfact> 0.77809947E+01</totfact>
</mgrwt>
</event>
<event>
 4    1  0.4675559E-002  0.4845686E+03  0.7818608E-02  0.1017887E+00
         21   -1    0    0  503  502  0.00000000000E+00  0.00000000000E+00  0.68267273253E+02  0.68267273253E+02  0.00000000000E+00 0.  1.
         21   -1    0    0  501  503 -0.00000000000E+00 -0.00000000000E+00 -0.35972384192E+04  0.35972384192E+04  0.00000000000E+00 0.  1.
    9000007    1    1    2  501    0  0.27300889428E+03 -0.16518822121E+02 -0.21482449171E+04  0.22022177349E+04  0.40000000000E+03 0.  1.
   -9000007    1    1    2    0  502 -0.27300889428E+03  0.16518822121E+02 -0.13807262288E+04  0.14632879576E+04  0.40000000000E+03 0.  1.
<mgrwt>
<rscale>  2 0.48456860E+03</rscale>
<asrwt>0</asrwt>
<pdfrwt beam="1">  1       21 0.10502654E-01 0.48456860E+03</pdfrwt>
<pdfrwt beam="2">  1       21 0.55342147E+00 0.48456860E+03</pdfrwt>
<totfact> 0.41921485E+01</totfact>
</mgrwt>
</event>
<event>
 4    1  0.4675559E-002  0.4878262E+03  0.7818608E-02  0.1017006E+00
         21   -1    0    0  503  502  0.00000000000E+00  0.00000000000E+00  0.37436715121E+03  0.37436715121E+03  0.00000000000E+00 0.  1.
         21   -1    0    0  501  503 -0.00000000000E+00 -0.00000000000E+00 -0.67947965311E+03  0.67947965311E+03  0.00000000000E+00 0. -1.
    9000007    1    1    2  501    0  0.16557206038E+03  0.22485608923E+03 -0.28635093445E+03  0.56565999125E+03  0.40000000000E+03 0. -1.
   -9000007    1    1    2    0  502 -0.16557206038E+03 -0.22485608923E+03 -0.18761567446E+02  0.48818681307E+03  0.40000000000E+03 0.  1.
<mgrwt>
<rscale>  2 0.48782617E+03</rscale>
<asrwt>0</asrwt>
<pdfrwt beam="1">  1       21 0.57594947E-01 0.48782617E+03</pdfrwt>
<pdfrwt beam="2">  1       21 0.10453533E+00 0.48782617E+03</pdfrwt>
<totfact> 0.17716513E+03</totfact>
</mgrwt>
</event>
<event>
 4    1  0.4675559E-002  0.4621249E+03  0.7818608E-02  0.1024167E+00
         21   -1    0    0  501  502  0.00000000000E+00  0.00000000000E+00  0.38813260711E+03  0.38813260711E+03  0.00000000000E+00 0. -1.
         21   -1    0    0  502  503 -0.00000000000E+00 -0.00000000000E+00 -0.99286283591E+03  0.99286283591E+03  0.00000000000E+00 0. -1.
    9000007    1    1    2  501    0 -0.67652793150E+02 -0.22132003121E+03  0.15867945357E+03  0.48860886773E+03  0.40000000000E+03 0. -1.
   -9000007    1    1    2    0  503  0.67652793150E+02  0.22132003121E+03 -0.76340968237E+03  0.89238657530E+03  0.40000000000E+03 0. -1.
<mgrwt>
<rscale>  2 0.46212494E+03</rscale>
<asrwt>0</asrwt>
<pdfrwt beam="1">  1       21 0.59712709E-01 0.46212494E+03</pdfrwt>
<pdfrwt beam="2">  1       21 0.15274813E+00 0.46212494E+03</pdfrwt>
<totfact> 0.62042967E+02</totfact>
</mgrwt>
</event>
<event>
 4    1  0.4675559E-002  0.5447870E+03  0.7818608E-02  0.1002708E+00
         21   -1    0    0  501  502  0.00000000000E+00  0.00000000000E+00  0.50196262877E+03  0.50196262877E+03  0.00000000000E+00 0.  1.
         21   -1    0    0  502  503 -0.00000000000E+00 -0.00000000000E+00 -0.60630940128E+03  0.60630940128E+03  0.00000000000E+00 0. -1.
    9000007    1    1    2  501    0 -0.16011725715E+02 -0.36950846410E+03 -0.13946212396E+03  0.56235448288E+03  0.40000000000E+03 0. -1.
   -9000007    1    1    2    0  503  0.16011725715E+02  0.36950846410E+03  0.35115351449E+02  0.54591754717E+03  0.40000000000E+03 0.  1.
<mgrwt>
<rscale>  2 0.54478700E+03</rscale>
<asrwt>0</asrwt>
<pdfrwt beam="1">  1       21 0.77225020E-01 0.54478700E+03</pdfrwt>
<pdfrwt beam="2">  1       21 0.93278369E-01 0.54478700E+03</pdfrwt>
<totfact> 0.11883597E+03</totfact>
</mgrwt>
</event>
<event>
 4    1  0.4675559E-002  0.4527393E+03  0.7818608E-02  0.1026908E+00
         21   -1    0    0  501  502  0.00000000000E+00  0.00000000000E+00  0.10499571676E+04  0.10499571676E+04  0.00000000000E+00 0.  1.
         21   -1    0    0  502  503 -0.00000000000E+00 -0.00000000000E+00 -0.27799858922E+03  0.27799858922E+03  0.00000000000E+00 0. -1.
    9000007    1    1    2  501    0  0.18720283716E+03 -0.99639379630E+02  0.74829790630E+03  0.87459857351E+03  0.40000000000E+03 0.  1.
   -9000007    1    1    2    0  503 -0.18720283716E+03  0.99639379630E+02  0.23660672041E+02  0.45335718326E+03  0.40000000000E+03 0. -1.
<mgrwt>
<rscale>  2 0.45273934E+03</rscale>
<asrwt>0</asrwt>
<pdfrwt beam="1">  1       21 0.16153187E+00 0.45273934E+03</pdfrwt>
<pdfrwt beam="2">  1       21 0.42769014E-01 0.45273934E+03</pdfrwt>
<totfact> 0.10874183E+03</totfact>
</mgrwt>
</event>
<event>
 4    1  0.4675559E-002  0.5378136E+03  0.7818608E-02  0.1004355E+00
         21   -1    0    0  503  502  0.00000000000E+00  0.00000000000E+00  0.14573681660E+04  0.14573681660E+04  0.00000000000E+00 0. -1.
         21   -1    0    0  501  503 -0.00000000000E+00 -0.00000000000E+00 -0.23378327980E+03  0.23378327980E+03  0.00000000000E+00 0. -1.
    9000007    1    1    2  501    0 -0.15623309063E+03 -0.32378184597E+03  0.94042946544E+03  0.10833517628E+04  0.40000000000E+03 0. -1.
   -9000007    1    1    2    0  502  0.15623309063E+03  0.32378184597E+03  0.28315542072E+03  0.60779968301E+03  0.40000000000E+03 0. -1.
<mgrwt>
<rscale>  2 0.53781359E+03</rscale>
<asrwt>0</asrwt>
<pdfrwt beam="1">  1       21 0.22421048E+00 0.53781359E+03</pdfrwt>
<pdfrwt beam="2">  1       21 0.35966659E-01 0.53781359E+03</pdfrwt>
<totfact> 0.55663638E+02</totfact>
</mgrwt>
</event>
<event>
 4    1  0.4675559E-002  0.4574210E+03  0.7818608E-02  0.1025532E+00
         21   -1    0    0  503  502  0.00000000000E+00  0.00000000000E+00  0.42406283578E+03  0.42406283578E+03  0.00000000000E+00 0. -1.
         21   -1    0    0  501  503 -0.00000000000E+00 -0.00000000000E+00 -0.62747288994E+03  0.62747288994E+03  0.00000000000E+00 0. -1.
    9000007    1    1    2  501    0 -0.19757195832E+03 -0.10099166875E+03 -0.34473605257E+03  0.57278001171E+03  0.40000000000E+03 0. -1.
   -9000007    1    1    2    0  502  0.19757195832E+03  0.10099166875E+03  0.14132599842E+03  0.47875571401E+03  0.40000000000E+03 0. -1.
<mgrwt>
<rscale>  2 0.45742103E+03</rscale>
<asrwt>0</asrwt>
<pdfrwt beam="1">  1       21 0.65240437E-01 0.45742103E+03</pdfrwt>
<pdfrwt beam="2">  1       21 0.96534290E-01 0.45742103E+03</pdfrwt>
<totfact> 0.16530757E+03</totfact>
</mgrwt>
</event>
<event>
 4    1  0.4675559E-002  0.4177911E+03  0.7818608E-02  0.1037788E+00
         21   -1    0    0  503  502  0.00000000000E+00  0.00000000000E+00  0.16163066527E+04  0.16163066527E+04  0.00000000000E+00 0.  1.
         21   -1    0    0  501  503 -0.00000000000E+00 -0.00000000000E+00 -0.10800290077E+03  0.10800290077E+03  0.00000000000E+00 0.  1.
    9000007    1    1    2  501    0  0.83866444206E+02  0.86693687121E+02  0.76251637720E+03  0.86947144941E+03  0.40000000000E+03 0.  1.
   -9000007    1    1    2    0  502 -0.83866444206E+02 -0.86693687121E+02  0.74578737474E+03  0.85483810407E+03  0.40000000000E+03 0.  1.
<mgrwt>
<rscale>  2 0.41779107E+03</rscale>
<asrwt>0</asrwt>
<pdfrwt beam="1">  1       21 0.24866254E+00 0.41779107E+03</pdfrwt>
<pdfrwt beam="2">  1       21 0.16615832E-01 0.41779107E+03</pdfrwt>
<totfact> 0.18596325E+03</totfact>
</mgrwt>
</event>
<event>
 4    1  0.4675559E-002  0.4808518E+03  0.7818608E-02  0.1018901E+00
         21   -1    0    0  501  502  0.00000000000E+00  0.00000000000E+00  0.56930968091E+03  0.56930968091E+03  0.00000000000E+00 0. -1.
         21   -1    0    0  502  503 -0.00000000000E+00 -0.00000000000E+00 -0.73203605852E+03  0.73203605852E+03  0.00000000000E+00 0. -1.
    9000007    1    1    2  501    0 -0.21349345033E+03 -0.16012181729E+03  0.35278417438E+03  0.59638504626E+03  0.40000000000E+03 0. -1.
   -9000007    1    1    2    0  503  0.21349345033E+03  0.16012181729E+03 -0.51551055199E+03  0.70496069317E+03  0.40000000000E+03 0. -1.
<mgrwt>
<rscale>  2 0.48085180E+03</rscale>
<asrwt>0</asrwt>
<pdfrwt beam="1">  1       21 0.87586105E-01 0.48085180E+03</pdfrwt>
<pdfrwt beam="2">  1       21 0.11262093E+00 0.48085180E+03</pdfrwt>
<totfact> 0.57153613E+02</totfact>
</mgrwt>
</event>
<event>
 4    1  0.4675559E-002  0.4094090E+03  0.7818608E-02  0.1040570E+00
         21   -1    0    0  501  502  0.00000000000E+00  0.00000000000E+00  0.23102003307E+03  0.23102003307E+03  0.00000000000E+00 0.  1.
         21   -1    0    0  502  503 -0.00000000000E+00 -0.00000000000E+00 -0.86843357015E+03  0.86843357015E+03  0.00000000000E+00 0.  1.
    9000007    1    1    2  501    0  0.85928108271E+02  0.15235047189E+02 -0.95721962101E+02  0.42045028301E+03  0.40000000000E+03 0.  1.
   -9000007    1    1    2    0  503 -0.85928108271E+02 -0.15235047189E+02 -0.54169157498E+03  0.67900332021E+03  0.40000000000E+03 0.  1.
<mgrwt>
<rscale>  2 0.40940902E+03</rscale>
<asrwt>0</asrwt>
<pdfrwt beam="1">  1       21 0.35541543E-01 0.40940902E+03</pdfrwt>
<pdfrwt beam="2">  1       21 0.13360517E+00 0.40940902E+03</pdfrwt>
<totfact> 0.27011574E+03</totfact>
</mgrwt>
</event>
<event>
 4    1  0.4675559E-002  0.4146831E+03  0.7818608E-02  0.1038811E+00
         21   -1    0    0  501  502  0.00000000000E+00  0.00000000000E+00  0.15539794638E+03  0.15539794638E+03  0.00000000000E+00 0. -1.
         21   -1    0    0  502  503 -0.00000000000E+00 -0.00000000000E+00 -0.11478649501E+04  0.11478649501E+04  0.00000000000E+00 0. -1.
    9000007    1    1    2  501    0 -0.66929412606E+02 -0.86501445054E+02 -0.37266948001E+03  0.55753438244E+03  0.40000000000E+03 0. -1.
   -9000007    1    1    2    0  503  0.66929412606E+02  0.86501445054E+02 -0.61979752371E+03  0.74572851405E+03  0.40000000000E+03 0. -1.
<mgrwt>
<rscale>  2 0.41468307E+03</rscale>
<asrwt>0</asrwt>
<pdfrwt beam="1">  1       21 0.23907377E-01 0.41468307E+03</pdfrwt>
<pdfrwt beam="2">  1       21 0.17659461E+00 0.41468307E+03</pdfrwt>
<totfact> 0.27497465E+03</totfact>
</mgrwt>
</event>
<event>
 4    1  0.4675559E-002  0.4080799E+03  0.7818608E-02  0.1041017E+00
         21   -1    0    0  501  502  0.00000000000E+00  0.00000000000E+00  0.23334813977E+03  0.23334813977E+03  0.00000000000E+00 0.  1.
         21   -1    0    0  502  503 -0.00000000000E+00 -0.00000000000E+00 -0.10312598447E+04  0.10312598447E+04  0.00000000000E+00 0. -1.
    9000007    1    1    2  501    0  0.34246707188E+02  0.73187431034E+02 -0.48052222973E+02  0.41089932240E+03  0.40000000000E+03 0.  1.
   -9000007    1    1    2    0  503 -0.34246707188E+02 -0.73187431034E+02 -0.74985948200E+03  0.85370866211E+03  0.40000000000E+03 0. -1.
<mgrwt>
<rscale>  2 0.40807994E+03</rscale>
<asrwt>0</asrwt>
<pdfrwt beam="1">  1       21 0.35899714E-01 0.40807994E+03</pdfrwt>
<pdfrwt beam="2">  1       21 0.15865536E+00 0.40807994E+03</pdfrwt>
<totfact> 0.16698684E+03</totfact>
</mgrwt>
</event>
<event>
 4    1  0.4675559E-002  0.5894770E+03  0.7818608E-02  0.9927482E-01
         21   -1    0    0  503  502  0.00000000000E+00  0.00000000000E+00  0.21540620739E+03  0.21540620739E+03  0.00000000000E+00 0.  1.
         21   -1    0    0  501  503 -0.00000000000E+00 -0.00000000000E+00 -0.26960744101E+04  0.26960744101E+04  0.00000000000E+00 0. -1.
    9000007    1    1    2  501    0 -0.64558854612E+02  0.42815341354E+03 -0.21629404110E+04  0.22418283638E+04  0.40000000000E+03 0. -1.
   -9000007    1    1    2    0  502  0.64558854612E+02 -0.42815341354E+03 -0.31772779169E+03  0.66965225367E+03  0.40000000000E+03 0.  1.
<mgrwt>
<rscale>  2 0.58947705E+03</rscale>
<asrwt>0</asrwt>
<pdfrwt beam="1">  1       21 0.33139416E-01 0.58947705E+03</pdfrwt>
<pdfrwt beam="2">  1       21 0.41478068E+00 0.58947705E+03</pdfrwt>
<totfact> 0.41767342E+01</totfact>
</mgrwt>
</event>
<event>
 4    1  0.4675559E-002  0.4117438E+03  0.7818608E-02  0.1039787E+00
         21   -1    0    0  503  502  0.00000000000E+00  0.00000000000E+00  0.72288512526E+03  0.72288512526E+03  0.00000000000E+00 0.  1.
         21   -1    0    0  501  503 -0.00000000000E+00 -0.00000000000E+00 -0.27769534966E+03  0.27769534966E+03  0.00000000000E+00 0.  1.
    9000007    1    1    2  501    0  0.92974877827E+02  0.29809445667E+02  0.25333375768E+02  0.41252237622E+03  0.40000000000E+03 0.  1.
   -9000007    1    1    2    0  502 -0.92974877827E+02 -0.29809445667E+02  0.41985639984E+03  0.58805809870E+03  0.40000000000E+03 0.  1.
<mgrwt>
<rscale>  2 0.41174377E+03</rscale>
<asrwt>0</asrwt>
<pdfrwt beam="1">  1       21 0.11121310E+00 0.41174377E+03</pdfrwt>
<pdfrwt beam="2">  1       21 0.42722362E-01 0.41174377E+03</pdfrwt>
<totfact> 0.29510859E+03</totfact>
</mgrwt>
</event>
<event>
 4    1  0.4675559E-002  0.4106159E+03  0.7818608E-02  0.1040165E+00
         21   -1    0    0  501  502  0.00000000000E+00  0.00000000000E+00  0.82979940357E+03  0.82979940357E+03  0.00000000000E+00 0.  1.
         21   -1    0    0  502  503 -0.00000000000E+00 -0.00000000000E+00 -0.24736125038E+03  0.24736125038E+03  0.00000000000E+00 0. -1.
    9000007    1    1    2  501    0  0.77373579465E+02 -0.51173909026E+02  0.51881442991E+03  0.66164480837E+03  0.40000000000E+03 0.  1.
   -9000007    1    1    2    0  503 -0.77373579465E+02  0.51173909026E+02  0.63623723276E+02  0.41551584558E+03  0.40000000000E+03 0. -1.
<mgrwt>
<rscale>  2 0.41061593E+03</rscale>
<asrwt>0</asrwt>
<pdfrwt beam="1">  1       21 0.12766144E+00 0.41061593E+03</pdfrwt>
<pdfrwt beam="2">  1       21 0.38055578E-01 0.41061593E+03</pdfrwt>
<totfact> 0.26436055E+03</totfact>
</mgrwt>
</event>
<event>
 4    1  0.4675559E-002  0.4013063E+03  0.7818608E-02  0.1043328E+00
         21   -1    0    0  501  502  0.00000000000E+00  0.00000000000E+00  0.95668570809E+02  0.95668570809E+02  0.00000000000E+00 0.  1.
         21   -1    0    0  502  503 -0.00000000000E+00 -0.00000000000E+00 -0.17848603443E+04  0.17848603443E+04  0.00000000000E+00 0.  1.
    9000007    1    1    2  501    0  0.34110430029E+01 -0.32172740219E+02 -0.62039607230E+03  0.73887617836E+03  0.40000000000E+03 0.  1.
   -9000007    1    1    2    0  503 -0.34110430029E+01  0.32172740219E+02 -0.10687957011E+04  0.11416527367E+04  0.40000000000E+03 0.  1.
<mgrwt>
<rscale>  2 0.40130627E+03</rscale>
<asrwt>0</asrwt>
<pdfrwt beam="1">  1       21 0.14718242E-01 0.40130627E+03</pdfrwt>
<pdfrwt beam="2">  1       21 0.27459389E+00 0.40130627E+03</pdfrwt>
<totfact> 0.16365715E+03</totfact>
</mgrwt>
</event>
<event>
 4    1  0.4675559E-002  0.4985552E+03  0.7818608E-02  0.1014157E+00
         21   -1    0    0  503  502  0.00000000000E+00  0.00000000000E+00  0.26119155503E+03  0.26119155503E+03  0.00000000000E+00 0.  1.
         21   -1    0    0  501  503 -0.00000000000E+00 -0.00000000000E+00 -0.10766849773E+04  0.10766849773E+04  0.00000000000E+00 0.  1.
    9000007    1    1    2  501    0 -0.14841336110E+03  0.25793553875E+03 -0.63572590133E+03  0.80790141077E+03  0.40000000000E+03 0.  1.
   -9000007    1    1    2    0  502  0.14841336110E+03 -0.25793553875E+03 -0.17976752096E+03  0.52997512158E+03  0.40000000000E+03 0.  1.
<mgrwt>
<rscale>  2 0.49855518E+03</rscale>
<asrwt>0</asrwt>
<pdfrwt beam="1">  1       21 0.40183316E-01 0.49855518E+03</pdfrwt>
<pdfrwt beam="2">  1       21 0.16564384E+00 0.49855518E+03</pdfrwt>
<totfact> 0.11315722E+03</totfact>
</mgrwt>
</event>
<event>
 4    1  0.4675559E-002  0.5368027E+03  0.7818608E-02  0.1004596E+00
         21   -1    0    0  503  502  0.00000000000E+00  0.00000000000E+00  0.78936251422E+03  0.78936251422E+03  0.00000000000E+00 0. -1.
         21   -1    0    0  501  503 -0.00000000000E+00 -0.00000000000E+00 -0.37809287724E+03  0.37809287724E+03  0.00000000000E+00 0. -1.
    9000007    1    1    2  501    0  0.32795950996E+03 -0.14352589700E+03  0.97219503200E+02  0.54553529225E+03  0.40000000000E+03 0. -1.
   -9000007    1    1    2    0  502 -0.32795950996E+03  0.14352589700E+03  0.31405013378E+03  0.62192009922E+03  0.40000000000E+03 0. -1.
<mgrwt>
<rscale>  2 0.53680269E+03</rscale>
<asrwt>0</asrwt>
<pdfrwt beam="1">  1       21 0.12144039E+00 0.53680269E+03</pdfrwt>
<pdfrwt beam="2">  1       21 0.58168135E-01 0.53680269E+03</pdfrwt>
<totfact> 0.11709725E+03</totfact>
</mgrwt>
</event>
<event>
 4    1  0.4675559E-002  0.4136679E+03  0.7818608E-02  0.1039147E+00
         21   -1    0    0  503  502  0.00000000000E+00  0.00000000000E+00  0.36893823217E+04  0.36893823217E+04  0.00000000000E+00 0. -1.
         21   -1    0    0  501  503 -0.00000000000E+00 -0.00000000000E+00 -0.46437040486E+02  0.46437040486E+02  0.00000000000E+00 0. -1.
    9000007    1    1    2  501    0  0.10521299669E+03  0.71641973302E+01  0.17571915333E+04  0.18052266299E+04  0.40000000000E+03 0. -1.
   -9000007    1    1    2    0  502 -0.10521299669E+03 -0.71641973302E+01  0.18857537479E+04  0.19305927323E+04  0.40000000000E+03 0. -1.
<mgrwt>
<rscale>  2 0.41366786E+03</rscale>
<asrwt>0</asrwt>
<pdfrwt beam="1">  1       21 0.56759705E+00 0.41366786E+03</pdfrwt>
<pdfrwt beam="2">  1       21 0.71441630E-02 0.41366786E+03</pdfrwt>
<totfact> 0.68421637E+01</totfact>
</mgrwt>
</event>
<event>
 4    1  0.4675559E-002  0.5569761E+03  0.7818608E-02  0.9998920E-01
         21   -1    0    0  503  502  0.00000000000E+00  0.00000000000E+00  0.19838083243E+03  0.19838083243E+03  0.00000000000E+00 0. -1.
         21   -1    0    0  501  503 -0.00000000000E+00 -0.00000000000E+00 -0.21353934212E+04  0.21353934212E+04  0.00000000000E+00 0. -1.
    9000007    1    1    2  501    0 -0.13171215596E+03  0.36451929591E+03 -0.15722381776E+04  0.16679794052E+04  0.40000000000E+03 0. -1.
   -9000007    1    1    2    0  502  0.13171215596E+03 -0.36451929591E+03 -0.36477441117E+03  0.66579484841E+03  0.40000000000E+03 0. -1.
<mgrwt>
<rscale>  2 0.55697613E+03</rscale>
<asrwt>0</asrwt>
<pdfrwt beam="1">  1       21 0.30520126E-01 0.55697613E+03</pdfrwt>
<pdfrwt beam="2">  1       21 0.32852208E+00 0.55697613E+03</pdfrwt>
<totfact> 0.17568476E+02</totfact>
</mgrwt>
</event>
<event>
 4    1  0.4675559E-002  0.5252310E+03  0.7818608E-02  0.1007395E+00
         21   -1    0    0  501  502  0.00000000000E+00  0.00000000000E+00  0.34371846575E+03  0.34371846575E+03  0.00000000000E+00 0. -1.
         21   -1    0    0  502  503 -0.00000000000E+00 -0.00000000000E+00 -0.83629614355E+03  0.83629614355E+03  0.00000000000E+00 0.  1.
    9000007    1    1    2  501    0 -0.33097588936E+03  0.79514458906E+02 -0.12785292478E+03  0.54056818153E+03  0.40000000000E+03 0. -1.
   -9000007    1    1    2    0  503  0.33097588936E+03 -0.79514458906E+02 -0.36472475303E+03  0.63944642777E+03  0.40000000000E+03 0.  1.
<mgrwt>
<rscale>  2 0.52523099E+03</rscale>
<asrwt>0</asrwt>
<pdfrwt beam="1">  1       21 0.52879764E-01 0.52523099E+03</pdfrwt>
<pdfrwt beam="2">  1       21 0.12866094E+00 0.52523099E+03</pdfrwt>
<totfact> 0.12452526E+03</totfact>
</mgrwt>
</event>
<event>
 4    1  0.4675559E-002  0.4548370E+03  0.7818608E-02  0.1026289E+00
         21   -1    0    0  503  502  0.00000000000E+00  0.00000000000E+00  0.59419662869E+03  0.59419662869E+03  0.00000000000E+00 0. -1.
         21   -1    0    0  501  503 -0.00000000000E+00 -0.00000000000E+00 -0.35490875505E+03  0.35490875505E+03  0.00000000000E+00 0. -1.
    9000007    1    1    2  501    0  0.21542658402E+03 -0.21634548717E+02  0.54214281771E+02  0.45805660693E+03  0.40000000000E+03 0. -1.
   -9000007    1    1    2    0  502 -0.21542658402E+03  0.21634548717E+02  0.18507359186E+03  0.49104877681E+03  0.40000000000E+03 0. -1.
<mgrwt>
<rscale>  2 0.45483697E+03</rscale>
<asrwt>0</asrwt>
<pdfrwt beam="1">  1       21 0.91414866E-01 0.45483697E+03</pdfrwt>
<pdfrwt beam="2">  1       21 0.54601347E-01 0.45483697E+03</pdfrwt>
<totfact> 0.27838856E+03</totfact>
</mgrwt>
</event>
<event>
 4    1  0.4675559E-002  0.4172911E+03  0.7818608E-02  0.1037952E+00
         21   -1    0    0  501  502  0.00000000000E+00  0.00000000000E+00  0.18183110545E+04  0.18183110545E+04  0.00000000000E+00 0.  1.
         21   -1    0    0  502  503 -0.00000000000E+00 -0.00000000000E+00 -0.29074140701E+03  0.29074140701E+03  0.00000000000E+00 0.  1.
    9000007    1    1    2  501    0  0.60094224914E+02  0.10256975262E+03  0.16273481115E+04  0.16799981387E+04  0.40000000000E+03 0.  1.
   -9000007    1    1    2    0  503 -0.60094224914E+02 -0.10256975262E+03 -0.99778464031E+02  0.42905432279E+03  0.40000000000E+03 0.  1.
<mgrwt>
<rscale>  2 0.41729111E+03</rscale>
<asrwt>0</asrwt>
<pdfrwt beam="1">  1       21 0.27974016E+00 0.41729111E+03</pdfrwt>
<pdfrwt beam="2">  1       21 0.44729448E-01 0.41729111E+03</pdfrwt>
<totfact> 0.17185966E+02</totfact>
</mgrwt>
</event>
<event>
 4    1  0.4675559E-002  0.6643382E+03  0.7818608E-02  0.9780240E-01
         21   -1    0    0  501  502  0.00000000000E+00  0.00000000000E+00  0.75737739041E+03  0.75737739041E+03  0.00000000000E+00 0. -1.
         21   -1    0    0  502  503 -0.00000000000E+00 -0.00000000000E+00 -0.68114575794E+03  0.68114575794E+03  0.00000000000E+00 0.  1.
    9000007    1    1    2  501    0  0.48757124970E+03  0.20885289757E+03  0.31151854990E+03  0.73375000054E+03  0.40000000000E+03 0. -1.
   -9000007    1    1    2    0  503 -0.48757124970E+03 -0.20885289757E+03 -0.23528691743E+03  0.70477314781E+03  0.40000000000E+03 0. -1.
<mgrwt>
<rscale>  2 0.66433821E+03</rscale>
<asrwt>0</asrwt>
<pdfrwt beam="1">  1       21 0.11651960E+00 0.66433821E+03</pdfrwt>
<pdfrwt beam="2">  1       21 0.10479165E+00 0.66433821E+03</pdfrwt>
<totfact> 0.31837373E+02</totfact>
</mgrwt>
</event>
<event>
 4    1  0.4675559E-002  0.4393915E+03  0.7818608E-02  0.1030934E+00
         21   -1    0    0  503  502  0.00000000000E+00  0.00000000000E+00  0.47031809499E+03  0.47031809499E+03  0.00000000000E+00 0. -1.
         21   -1    0    0  501  503 -0.00000000000E+00 -0.00000000000E+00 -0.66755518172E+03  0.66755518172E+03  0.00000000000E+00 0. -1.
    9000007    1    1    2  501    0  0.17538464050E+03  0.48011757646E+02 -0.45166732252E+03  0.63013353444E+03  0.40000000000E+03 0. -1.
   -9000007    1    1    2    0  502 -0.17538464050E+03 -0.48011757646E+02  0.25443023579E+03  0.50773974227E+03  0.40000000000E+03 0. -1.
<mgrwt>
<rscale>  2 0.43939151E+03</rscale>
<asrwt>0</asrwt>
<pdfrwt beam="1">  1       21 0.72356631E-01 0.43939151E+03</pdfrwt>
<pdfrwt beam="2">  1       21 0.10270080E+00 0.43939151E+03</pdfrwt>
<totfact> 0.11356142E+03</totfact>
</mgrwt>
</event>
<event>
 4    1  0.4675559E-002  0.4182744E+03  0.7818608E-02  0.1037629E+00
         21   -1    0    0  503  502  0.00000000000E+00  0.00000000000E+00  0.45569634050E+03  0.45569634050E+03  0.00000000000E+00 0.  1.
         21   -1    0    0  501  503 -0.00000000000E+00 -0.00000000000E+00 -0.82412761731E+03  0.82412761731E+03  0.00000000000E+00 0.  1.
    9000007    1    1    2  501    0 -0.12174434863E+03  0.11479413380E+02 -0.65189590993E+03  0.77454615146E+03  0.40000000000E+03 0.  1.
   -9000007    1    1    2    0  502  0.12174434863E+03 -0.11479413380E+02  0.28346463313E+03  0.50527780635E+03  0.40000000000E+03 0.  1.
<mgrwt>
<rscale>  2 0.41827439E+03</rscale>
<asrwt>0</asrwt>
<pdfrwt beam="1">  1       21 0.70107129E-01 0.41827439E+03</pdfrwt>
<pdfrwt beam="2">  1       21 0.12678886E+00 0.41827439E+03</pdfrwt>
<totfact> 0.72621279E+02</totfact>
</mgrwt>
</event>
<event>
 4    1  0.4675559E-002  0.4558427E+03  0.7818608E-02  0.1025994E+00
         21   -1    0    0  501  502  0.00000000000E+00  0.00000000000E+00  0.34107436741E+03  0.34107436741E+03  0.00000000000E+00 0. -1.
         21   -1    0    0  502  503 -0.00000000000E+00 -0.00000000000E+00 -0.78649666383E+03  0.78649666383E+03  0.00000000000E+00 0. -1.
    9000007    1    1    2  501    0  0.55303878167E+01 -0.21854523625E+03  0.44946390001E+02  0.45805325395E+03  0.40000000000E+03 0. -1.
   -9000007    1    1    2    0  503 -0.55303878167E+01  0.21854523625E+03 -0.49036868642E+03  0.66951777728E+03  0.40000000000E+03 0. -1.
<mgrwt>
<rscale>  2 0.45584274E+03</rscale>
<asrwt>0</asrwt>
<pdfrwt beam="1">  1       21 0.52472980E-01 0.45584274E+03</pdfrwt>
<pdfrwt beam="2">  1       21 0.12099949E+00 0.45584274E+03</pdfrwt>
<totfact> 0.15214955E+03</totfact>
</mgrwt>
</event>
<event>
 4    1  0.4675559E-002  0.4016454E+03  0.7818608E-02  0.1043211E+00
         21   -1    0    0  503  502  0.00000000000E+00  0.00000000000E+00  0.96846359964E+03  0.96846359964E+03  0.00000000000E+00 0.  1.
         21   -1    0    0  501  503 -0.00000000000E+00 -0.00000000000E+00 -0.16872073851E+03  0.16872073851E+03  0.00000000000E+00 0.  1.
    9000007    1    1    2  501    0 -0.33436284571E+02 -0.14178567567E+02  0.33570643363E+03  0.52346712073E+03  0.40000000000E+03 0. -1.
   -9000007    1    1    2    0  502  0.33436284571E+02  0.14178567567E+02  0.46403642750E+03  0.61371721741E+03  0.40000000000E+03 0. -1.
<mgrwt>
<rscale>  2 0.40164539E+03</rscale>
<asrwt>0</asrwt>
<pdfrwt beam="1">  1       21 0.14899440E+00 0.40164539E+03</pdfrwt>
<pdfrwt beam="2">  1       21 0.25957037E-01 0.40164539E+03</pdfrwt>
<totfact> 0.37865939E+03</totfact>
</mgrwt>
</event>
<event>
 4    1  0.4675559E-002  0.4656566E+03  0.7818608E-02  0.1023153E+00
         21   -1    0    0  501  502  0.00000000000E+00  0.00000000000E+00  0.18327510550E+03  0.18327510550E+03  0.00000000000E+00 0.  1.
         21   -1    0    0  502  503 -0.00000000000E+00 -0.00000000000E+00 -0.13248854812E+04  0.13248854812E+04  0.00000000000E+00 0.  1.
    9000007    1    1    2  501    0  0.22930198596E+03 -0.65243173805E+02 -0.32413494346E+03  0.56736190749E+03  0.40000000000E+03 0.  1.
   -9000007    1    1    2    0  503 -0.22930198596E+03  0.65243173805E+02 -0.81747543224E+03  0.94079867921E+03  0.40000000000E+03 0.  1.
<mgrwt>
<rscale>  2 0.46565660E+03</rscale>
<asrwt>0</asrwt>
<pdfrwt beam="1">  1       21 0.28196170E-01 0.46565660E+03</pdfrwt>
<pdfrwt beam="2">  1       21 0.20382854E+00 0.46565660E+03</pdfrwt>
<totfact> 0.12687770E+03</totfact>
</mgrwt>
</event>
<event>
 4    1  0.4675559E-002  0.4893999E+03  0.7818608E-02  0.1016583E+00
         21   -1    0    0  503  502  0.00000000000E+00  0.00000000000E+00  0.64283664432E+03  0.64283664432E+03  0.00000000000E+00 0.  1.
         21   -1    0    0  501  503 -0.00000000000E+00 -0.00000000000E+00 -0.64603489302E+03  0.64603489302E+03  0.00000000000E+00 0.  1.
    9000007    1    1    2  501    0 -0.19052950306E+03  0.20787206156E+03 -0.42086479147E+03  0.64547614844E+03  0.40000000000E+03 0.  1.
   -9000007    1    1    2    0  502  0.19052950306E+03 -0.20787206156E+03  0.41766654276E+03  0.64339538890E+03  0.40000000000E+03 0.  1.
<mgrwt>
<rscale>  2 0.48939992E+03</rscale>
<asrwt>0</asrwt>
<pdfrwt beam="1">  1       21 0.98897946E-01 0.48939992E+03</pdfrwt>
<pdfrwt beam="2">  1       21 0.99389983E-01 0.48939992E+03</pdfrwt>
<totfact> 0.57989806E+02</totfact>
</mgrwt>
</event>
<event>
 4    1  0.4675559E-002  0.4273101E+03  0.7818608E-02  0.1034713E+00
         21   -1    0    0  501  502  0.00000000000E+00  0.00000000000E+00  0.55003585612E+03  0.55003585612E+03  0.00000000000E+00 0. -1.
         21   -1    0    0  502  503 -0.00000000000E+00 -0.00000000000E+00 -0.56893803545E+03  0.56893803545E+03  0.00000000000E+00 0. -1.
    9000007    1    1    2  501    0  0.14994485983E+03 -0.10510008291E+02  0.35163006808E+03  0.55338741045E+03  0.40000000000E+03 0. -1.
   -9000007    1    1    2    0  503 -0.14994485983E+03  0.10510008291E+02 -0.37053224741E+03  0.56558648113E+03  0.40000000000E+03 0. -1.
<mgrwt>
<rscale>  2 0.42731010E+03</rscale>
<asrwt>0</asrwt>
<pdfrwt beam="1">  1       21 0.84620901E-01 0.42731010E+03</pdfrwt>
<pdfrwt beam="2">  1       21 0.87528928E-01 0.42731010E+03</pdfrwt>
<totfact> 0.11680543E+03</totfact>
</mgrwt>
</event>
<event>
 4    1  0.4675559E-002  0.4321641E+03  0.7818608E-02  0.1033179E+00
         21   -1    0    0  503  502  0.00000000000E+00  0.00000000000E+00  0.83671372339E+02  0.83671372339E+02  0.00000000000E+00 0. -1.
         21   -1    0    0  501  503 -0.00000000000E+00 -0.00000000000E+00 -0.22321371397E+04  0.22321371397E+04  0.00000000000E+00 0. -1.
    9000007    1    1    2  501    0 -0.10081050989E+03  0.12885280366E+03 -0.10731158429E+04  0.11568679338E+04  0.40000000000E+03 0.  1.
   -9000007    1    1    2    0  502  0.10081050989E+03 -0.12885280366E+03 -0.10753499245E+04  0.11589405783E+04  0.40000000000E+03 0.  1.
<mgrwt>
<rscale>  2 0.43216409E+03</rscale>
<asrwt>0</asrwt>
<pdfrwt beam="1">  1       21 0.12872520E-01 0.43216409E+03</pdfrwt>
<pdfrwt beam="2">  1       21 0.34340570E+00 0.43216409E+03</pdfrwt>
<totfact> 0.79286336E+02</totfact>
</mgrwt>
</event>
<event>
 4    1  0.4675559E-002  0.4023778E+03  0.7818608E-02  0.1042959E+00
         21   -1    0    0  503  502  0.00000000000E+00  0.00000000000E+00  0.23494759334E+03  0.23494759334E+03  0.00000000000E+00 0.  1.
         21   -1    0    0  501  503 -0.00000000000E+00 -0.00000000000E+00 -0.91139900415E+03  0.91139900415E+03  0.00000000000E+00 0.  1.
    9000007    1    1    2  501    0  0.19456597233E+02  0.39106979440E+02 -0.62128501815E+03  0.74020469385E+03  0.40000000000E+03 0.  1.
   -9000007    1    1    2    0  502 -0.19456597233E+02 -0.39106979440E+02 -0.55166392655E+02  0.40614190364E+03  0.40000000000E+03 0.  1.
<mgrwt>
<rscale>  2 0.40237783E+03</rscale>
<asrwt>0</asrwt>
<pdfrwt beam="1">  1       21 0.36145783E-01 0.40237783E+03</pdfrwt>
<pdfrwt beam="2">  1       21 0.14021523E+00 0.40237783E+03</pdfrwt>
<totfact> 0.23063077E+03</totfact>
</mgrwt>
</event>
<event>
 4    1  0.4675559E-002  0.4454892E+03  0.7818608E-02  0.1029076E+00
         21   -1    0    0  503  502  0.00000000000E+00  0.00000000000E+00  0.96246258055E+02  0.96246258055E+02  0.00000000000E+00 0.  1.
         21   -1    0    0  501  503 -0.00000000000E+00 -0.00000000000E+00 -0.21612536795E+04  0.21612536795E+04  0.00000000000E+00 0.  1.
    9000007    1    1    2  501    0  0.11819943078E+03 -0.15649123687E+03 -0.12743833719E+04  0.13500050338E+04  0.40000000000E+03 0.  1.
   -9000007    1    1    2    0  502 -0.11819943078E+03  0.15649123687E+03 -0.79062404951E+03  0.90749490374E+03  0.40000000000E+03 0.  1.
<mgrwt>
<rscale>  2 0.44548918E+03</rscale>
<asrwt>0</asrwt>
<pdfrwt beam="1">  1       21 0.14807117E-01 0.44548918E+03</pdfrwt>
<pdfrwt beam="2">  1       21 0.33250055E+00 0.44548918E+03</pdfrwt>
<totfact> 0.70809736E+02</totfact>
</mgrwt>
</event>
<event>
 4    1  0.4675559E-002  0.4229168E+03  0.7818608E-02  0.1036121E+00
         21   -1    0    0  501  502  0.00000000000E+00  0.00000000000E+00  0.17029625324E+04  0.17029625324E+04  0.00000000000E+00 0.  1.
         21   -1    0    0  502  503 -0.00000000000E+00 -0.00000000000E+00 -0.13094179185E+03  0.13094179185E+03  0.00000000000E+00 0.  1.
    9000007    1    1    2  501    0  0.13224366055E+03  0.37016424606E+02  0.11939291947E+04  0.12666197233E+04  0.40000000000E+03 0.  1.
   -9000007    1    1    2    0  503 -0.13224366055E+03 -0.37016424606E+02  0.37809154581E+03  0.56728460094E+03  0.40000000000E+03 0.  1.
<mgrwt>
<rscale>  2 0.42291678E+03</rscale>
<asrwt>0</asrwt>
<pdfrwt beam="1">  1       21 0.26199422E+00 0.42291678E+03</pdfrwt>
<pdfrwt beam="2">  1       21 0.20144892E-01 0.42291678E+03</pdfrwt>
<totfact> 0.10699891E+03</totfact>
</mgrwt>
</event>
<event>
 4    1  0.4675559E-002  0.5030119E+03  0.7818608E-02  0.1012996E+00
         21   -1    0    0  503  502  0.00000000000E+00  0.00000000000E+00  0.23609061581E+03  0.23609061581E+03  0.00000000000E+00 0.  1.
         21   -1    0    0  501  503 -0.00000000000E+00 -0.00000000000E+00 -0.13697133210E+04  0.13697133210E+04  0.00000000000E+00 0. -1.
    9000007    1    1    2  501    0  0.18417959133E+03 -0.24310251627E+03 -0.94131613363E+03  0.10672848817E+04  0.40000000000E+03 0. -1.
   -9000007    1    1    2    0  502 -0.18417959133E+03  0.24310251627E+03 -0.19230657159E+03  0.53851905514E+03  0.40000000000E+03 0. -1.
<mgrwt>
<rscale>  2 0.50301188E+03</rscale>
<asrwt>0</asrwt>
<pdfrwt beam="1">  1       21 0.36321633E-01 0.50301188E+03</pdfrwt>
<pdfrwt beam="2">  1       21 0.21072513E+00 0.50301188E+03</pdfrwt>
<totfact> 0.67676082E+02</totfact>
</mgrwt>
</event>
<event>
 4    1  0.4675559E-002  0.5871084E+03  0.7818608E-02  0.9932519E-01
         21   -1    0    0  501  502  0.00000000000E+00  0.00000000000E+00  0.14313087395E+04  0.14313087395E+04  0.00000000000E+00 0. -1.
         21   -1    0    0  502  503 -0.00000000000E+00 -0.00000000000E+00 -0.39076103512E+03  0.39076103512E+03  0.00000000000E+00 0. -1.
    9000007    1    1    2  501    0 -0.35041007987E+03 -0.24881529685E+03  0.10846011114E+04  0.12333109287E+04  0.40000000000E+03 0. -1.
   -9000007    1    1    2    0  503  0.35041007987E+03  0.24881529685E+03 -0.44053406983E+02  0.58875884595E+03  0.40000000000E+03 0. -1.
<mgrwt>
<rscale>  2 0.58710840E+03</rscale>
<asrwt>0</asrwt>
<pdfrwt beam="1">  1       21 0.22020134E+00 0.58710840E+03</pdfrwt>
<pdfrwt beam="2">  1       21 0.60117083E-01 0.58710840E+03</pdfrwt>
<totfact> 0.19507245E+02</totfact>
</mgrwt>
</event>
<event>
 4    1  0.4675559E-002  0.4513815E+03  0.7818608E-02  0.1027311E+00
         21   -1    0    0  503  502  0.00000000000E+00  0.00000000000E+00  0.64011031304E+03  0.64011031304E+03  0.00000000000E+00 0.  1.
         21   -1    0    0  501  503 -0.00000000000E+00 -0.00000000000E+00 -0.31923724832E+03  0.31923724832E+03  0.00000000000E+00 0. -1.
    9000007    1    1    2  501    0  0.18783250247E+03  0.92000963925E+02  0.13440509171E+03  0.47096704240E+03  0.40000000000E+03 0. -1.
   -9000007    1    1    2    0  502 -0.18783250247E+03 -0.92000963925E+02  0.18646797301E+03  0.48838051897E+03  0.40000000000E+03 0. -1.
<mgrwt>
<rscale>  2 0.45138146E+03</rscale>
<asrwt>0</asrwt>
<pdfrwt beam="1">  1       21 0.98478510E-01 0.45138146E+03</pdfrwt>
<pdfrwt beam="2">  1       21 0.49113423E-01 0.45138146E+03</pdfrwt>
<totfact> 0.29249120E+03</totfact>
</mgrwt>
</event>
<event>
 4    1  0.4675559E-002  0.5750684E+03  0.7818608E-02  0.9958525E-01
         21   -1    0    0  503  502  0.00000000000E+00  0.00000000000E+00  0.25865200935E+03  0.25865200935E+03  0.00000000000E+00 0.  1.
         21   -1    0    0  501  503 -0.00000000000E+00 -0.00000000000E+00 -0.14903660311E+04  0.14903660311E+04  0.00000000000E+00 0.  1.
    9000007    1    1    2  501    0 -0.28403644763E+03  0.30004486272E+03 -0.94552820179E+03  0.11066739373E+04  0.40000000000E+03 0.  1.
   -9000007    1    1    2    0  502  0.28403644763E+03 -0.30004486272E+03 -0.28618581994E+03  0.64234410308E+03  0.40000000000E+03 0.  1.
<mgrwt>
<rscale>  2 0.57506836E+03</rscale>
<asrwt>0</asrwt>
<pdfrwt beam="1">  1       21 0.39792615E-01 0.57506836E+03</pdfrwt>
<pdfrwt beam="2">  1       21 0.22928709E+00 0.57506836E+03</pdfrwt>
<totfact> 0.41346634E+02</totfact>
</mgrwt>
</event>
<event>
 4    1  0.4675559E-002  0.4251964E+03  0.7818608E-02  0.1035388E+00
         21   -1    0    0  501  502  0.00000000000E+00  0.00000000000E+00  0.18711615571E+04  0.18711615571E+04  0.00000000000E+00 0. -1.
         21   -1    0    0  502  503 -0.00000000000E+00 -0.00000000000E+00 -0.10129382424E+03  0.10129382424E+03  0.00000000000E+00 0. -1.
    9000007    1    1    2  501    0  0.14353748857E+03 -0.13747315093E+02  0.10967761835E+04  0.11763120317E+04  0.40000000000E+03 0. -1.
   -9000007    1    1    2    0  503 -0.14353748857E+03  0.13747315093E+02  0.67309154935E+03  0.79614334959E+03  0.40000000000E+03 0. -1.
<mgrwt>
<rscale>  2 0.42519642E+03</rscale>
<asrwt>0</asrwt>
<pdfrwt beam="1">  1       21 0.28787098E+00 0.42519642E+03</pdfrwt>
<pdfrwt beam="2">  1       21 0.15583667E-01 0.42519642E+03</pdfrwt>
<totfact> 0.12091765E+03</totfact>
</mgrwt>
</event>
<event>
 4    1  0.4675559E-002  0.5270778E+03  0.7818608E-02  0.1006943E+00
         21   -1    0    0  503  502  0.00000000000E+00  0.00000000000E+00  0.97704795220E+03  0.97704795220E+03  0.00000000000E+00 0. -1.
         21   -1    0    0  501  503 -0.00000000000E+00 -0.00000000000E+00 -0.37265533433E+03  0.37265533433E+03  0.00000000000E+00 0. -1.
    9000007    1    1    2  501    0 -0.11590258901E+03 -0.32307516449E+03 -0.26337335112E+02  0.52773537618E+03  0.40000000000E+03 0. -1.
   -9000007    1    1    2    0  502  0.11590258901E+03  0.32307516449E+03  0.63072995298E+03  0.82196791035E+03  0.40000000000E+03 0. -1.
<mgrwt>
<rscale>  2 0.52707777E+03</rscale>
<asrwt>0</asrwt>
<pdfrwt beam="1">  1       21 0.15031507E+00 0.52707777E+03</pdfrwt>
<pdfrwt beam="2">  1       21 0.57331590E-01 0.52707777E+03</pdfrwt>
<totfact> 0.69007434E+02</totfact>
</mgrwt>
</event>
<event>
 4    1  0.4675559E-002  0.4015941E+03  0.7818608E-02  0.1043229E+00
         21   -1    0    0  501  502  0.00000000000E+00  0.00000000000E+00  0.76260730336E+03  0.76260730336E+03  0.00000000000E+00 0.  1.
         21   -1    0    0  502  503 -0.00000000000E+00 -0.00000000000E+00 -0.23867535088E+03  0.23867535088E+03  0.00000000000E+00 0.  1.
    9000007    1    1    2  501    0 -0.16520779671E+02  0.31699622374E+02  0.43095301308E+03  0.58906561748E+03  0.40000000000E+03 0.  1.
   -9000007    1    1    2    0  503  0.16520779671E+02 -0.31699622374E+02  0.92978939408E+02  0.41221703676E+03  0.40000000000E+03 0.  1.
<mgrwt>
<rscale>  2 0.40159408E+03</rscale>
<asrwt>0</asrwt>
<pdfrwt beam="1">  1       21 0.11732420E+00 0.40159408E+03</pdfrwt>
<pdfrwt beam="2">  1       21 0.36719285E-01 0.40159408E+03</pdfrwt>
<totfact> 0.35390863E+03</totfact>
</mgrwt>
</event>
<event>
 4    1  0.4675559E-002  0.6281829E+03  0.7818608E-02  0.9848601E-01
         21   -1    0    0  503  502  0.00000000000E+00  0.00000000000E+00  0.11749119458E+04  0.11749119458E+04  0.00000000000E+00 0.  1.
         21   -1    0    0  501  503 -0.00000000000E+00 -0.00000000000E+00 -0.37530155092E+03  0.37530155092E+03  0.00000000000E+00 0.  1.
    9000007    1    1    2  501    0  0.69597047220E+02  0.47934325174E+03  0.14855183044E+03  0.64550859661E+03  0.40000000000E+03 0.  1.
   -9000007    1    1    2    0  502 -0.69597047220E+02 -0.47934325174E+03  0.65105856445E+03  0.90470490013E+03  0.40000000000E+03 0.  1.
<mgrwt>
<rscale>  2 0.62818286E+03</rscale>
<asrwt>0</asrwt>
<pdfrwt beam="1">  1       21 0.18075568E+00 0.62818286E+03</pdfrwt>
<pdfrwt beam="2">  1       21 0.57738701E-01 0.62818286E+03</pdfrwt>
<totfact> 0.38792544E+02</totfact>
</mgrwt>
</event>
<event>
 4    1  0.4675559E-002  0.5684891E+03  0.7818608E-02  0.9973028E-01
         21   -1    0    0  501  502  0.00000000000E+00  0.00000000000E+00  0.48226913863E+04  0.48226913863E+04  0.00000000000E+00 0.  1.
         21   -1    0    0  502  503 -0.00000000000E+00 -0.00000000000E+00 -0.67100242435E+02  0.67100242435E+02  0.00000000000E+00 0.  1.
    9000007    1    1    2  501    0  0.31519117456E+03  0.25265474976E+03  0.22893113419E+04  0.23588400368E+04  0.40000000000E+03 0.  1.
   -9000007    1    1    2    0  503 -0.31519117456E+03 -0.25265474976E+03  0.24662798020E+04  0.25309515919E+04  0.40000000000E+03 0.  1.
<mgrwt>
<rscale>  2 0.56848914E+03</rscale>
<asrwt>0</asrwt>
<pdfrwt beam="1">  1       21 0.74195225E+00 0.56848914E+03</pdfrwt>
<pdfrwt beam="2">  1       21 0.10323118E-01 0.56848914E+03</pdfrwt>
<totfact> 0.10021122E+00</totfact>
</mgrwt>
</event>
<event>
 4    1  0.4675559E-002  0.4037807E+03  0.7818608E-02  0.1042478E+00
         21   -1    0    0  503  502  0.00000000000E+00  0.00000000000E+00  0.11854219031E+04  0.11854219031E+04  0.00000000000E+00 0.  1.
         21   -1    0    0  501  503 -0.00000000000E+00 -0.00000000000E+00 -0.20142622461E+03  0.20142622461E+03  0.00000000000E+00 0.  1.
    9000007    1    1    2  501    0  0.38986871762E+02  0.38972394914E+02  0.10146614638E+03  0.41633424384E+03  0.40000000000E+03 0.  1.
   -9000007    1    1    2    0  502 -0.38986871762E+02 -0.38972394914E+02  0.88252953211E+03  0.97051388387E+03  0.40000000000E+03 0.  1.
<mgrwt>
<rscale>  2 0.40378066E+03</rscale>
<asrwt>0</asrwt>
<pdfrwt beam="1">  1       21 0.18237260E+00 0.40378066E+03</pdfrwt>
<pdfrwt beam="2">  1       21 0.30988651E-01 0.40378066E+03</pdfrwt>
<totfact> 0.15130533E+03</totfact>
</mgrwt>
</event>
<event>
 4    1  0.4675559E-002  0.4010692E+03  0.7818608E-02  0.1043410E+00
         21   -1    0    0  503  502  0.00000000000E+00  0.00000000000E+00  0.35734997841E+03  0.35734997841E+03  0.00000000000E+00 0.  1.
         21   -1    0    0  501  503 -0.00000000000E+00 -0.00000000000E+00 -0.62098831541E+03  0.62098831541E+03  0.00000000000E+00 0.  1.
    9000007    1    1    2  501    0 -0.25982684691E+02 -0.13467742224E+02 -0.38840128894E+03  0.55831177780E+03  0.40000000000E+03 0.  1.
   -9000007    1    1    2    0  502  0.25982684691E+02  0.13467742224E+02  0.12476295194E+03  0.42002651602E+03  0.40000000000E+03 0.  1.
<mgrwt>
<rscale>  2 0.40106917E+03</rscale>
<asrwt>0</asrwt>
<pdfrwt beam="1">  1       21 0.54976920E-01 0.40106917E+03</pdfrwt>
<pdfrwt beam="2">  1       21 0.95536664E-01 0.40106917E+03</pdfrwt>
<totfact> 0.25204777E+03</totfact>
</mgrwt>
</event>
<event>
 4    1  0.4675559E-002  0.4151977E+03  0.7818608E-02  0.1038641E+00
         21   -1    0    0  501  502  0.00000000000E+00  0.00000000000E+00  0.99241907660E+03  0.99241907660E+03  0.00000000000E+00 0. -1.
         21   -1    0    0  502  503 -0.00000000000E+00 -0.00000000000E+00 -0.17371150695E+03  0.17371150695E+03  0.00000000000E+00 0.  1.
    9000007    1    1    2  501    0  0.38714364518E+02  0.10435671395E+03  0.40606417161E+03  0.58075574662E+03  0.40000000000E+03 0.  1.
   -9000007    1    1    2    0  503 -0.38714364518E+02 -0.10435671395E+03  0.41264339804E+03  0.58537483693E+03  0.40000000000E+03 0.  1.
<mgrwt>
<rscale>  2 0.41519769E+03</rscale>
<asrwt>0</asrwt>
<pdfrwt beam="1">  1       21 0.15267985E+00 0.41519769E+03</pdfrwt>
<pdfrwt beam="2">  1       21 0.26724848E-01 0.41519769E+03</pdfrwt>
<totfact> 0.33292069E+03</totfact>
</mgrwt>
</event>
<event>
 4    1  0.4675559E-002  0.4258507E+03  0.7818608E-02  0.1035179E+00
         21   -1    0    0  501  502  0.00000000000E+00  0.00000000000E+00  0.43706158217E+03  0.43706158217E+03  0.00000000000E+00 0. -1.
         21   -1    0    0  502  503 -0.00000000000E+00 -0.00000000000E+00 -0.42751388286E+03  0.42751388286E+03  0.00000000000E+00 0. -1.
    9000007    1    1    2  501    0 -0.14141332724E+03 -0.36756867084E+02  0.78947757443E+02  0.43310685149E+03  0.40000000000E+03 0. -1.
   -9000007    1    1    2    0  503  0.14141332724E+03  0.36756867084E+02 -0.69400058134E+02  0.43146861354E+03  0.40000000000E+03 0. -1.
<mgrwt>
<rscale>  2 0.42585067E+03</rscale>
<asrwt>0</asrwt>
<pdfrwt beam="1">  1       21 0.67240243E-01 0.42585067E+03</pdfrwt>
<pdfrwt beam="2">  1       21 0.65771367E-01 0.42585067E+03</pdfrwt>
<totfact> 0.37942156E+03</totfact>
</mgrwt>
</event>
<event>
 4    1  0.4675559E-002  0.4280250E+03  0.7818608E-02  0.1034486E+00
         21   -1    0    0  501  502  0.00000000000E+00  0.00000000000E+00  0.55994712330E+03  0.55994712330E+03  0.00000000000E+00 0.  1.
         21   -1    0    0  502  503 -0.00000000000E+00 -0.00000000000E+00 -0.38185407667E+03  0.38185407667E+03  0.00000000000E+00 0.  1.
    9000007    1    1    2  501    0 -0.11389659254E+03  0.10115811551E+03 -0.89132999572E+02  0.43720714740E+03  0.40000000000E+03 0.  1.
   -9000007    1    1    2    0  503  0.11389659254E+03 -0.10115811551E+03  0.26722604620E+03  0.50459405257E+03  0.40000000000E+03 0.  1.
<mgrwt>
<rscale>  2 0.42802500E+03</rscale>
<asrwt>0</asrwt>
<pdfrwt beam="1">  1       21 0.86145711E-01 0.42802500E+03</pdfrwt>
<pdfrwt beam="2">  1       21 0.58746781E-01 0.42802500E+03</pdfrwt>
<totfact> 0.27595864E+03</totfact>
</mgrwt>
</event>
<event>
 4    1  0.4675559E-002  0.4183434E+03  0.7818608E-02  0.1037607E+00
         21   -1    0    0  503  502  0.00000000000E+00  0.00000000000E+00  0.22077148282E+03  0.22077148282E+03  0.00000000000E+00 0. -1.
         21   -1    0    0  501  503 -0.00000000000E+00 -0.00000000000E+00 -0.15463114317E+04  0.15463114317E+04  0.00000000000E+00 0. -1.
    9000007    1    1    2  501    0 -0.12159166777E+03  0.15055491458E+02 -0.12795706167E+04  0.13462214397E+04  0.40000000000E+03 0. -1.
   -9000007    1    1    2    0  502  0.12159166777E+03 -0.15055491458E+02 -0.45969332146E+02  0.42086147482E+03  0.40000000000E+03 0. -1.
<mgrwt>
<rscale>  2 0.41834340E+03</rscale>
<asrwt>0</asrwt>
<pdfrwt beam="1">  1       21 0.33964844E-01 0.41834340E+03</pdfrwt>
<pdfrwt beam="2">  1       21 0.23789406E+00 0.41834340E+03</pdfrwt>
<totfact> 0.54280777E+02</totfact>
</mgrwt>
</event>
<event>
 4    1  0.4675559E-002  0.5330547E+03  0.7818608E-02  0.1005494E+00
         21   -1    0    0  503  502  0.00000000000E+00  0.00000000000E+00  0.11714064719E+04  0.11714064719E+04  0.00000000000E+00 0. -1.
         21   -1    0    0  501  503 -0.00000000000E+00 -0.00000000000E+00 -0.41217238997E+03  0.41217238997E+03  0.00000000000E+00 0.  1.
    9000007    1    1    2  501    0  0.18162466499E+03  0.30192684111E+03 -0.12829327726E+03  0.54827593537E+03  0.40000000000E+03 0.  1.
   -9000007    1    1    2    0  502 -0.18162466499E+03 -0.30192684111E+03  0.88752735923E+03  0.10353029265E+04  0.40000000000E+03 0. -1.
<mgrwt>
<rscale>  2 0.53305472E+03</rscale>
<asrwt>0</asrwt>
<pdfrwt beam="1">  1       21 0.18021638E+00 0.53305472E+03</pdfrwt>
<pdfrwt beam="2">  1       21 0.63411138E-01 0.53305472E+03</pdfrwt>
<totfact> 0.32983770E+02</totfact>
</mgrwt>
</event>
<event>
 4    1  0.4675559E-002  0.4375003E+03  0.7818608E-02  0.1031517E+00
         21   -1    0    0  503  502  0.00000000000E+00  0.00000000000E+00  0.84303207383E+03  0.84303207383E+03  0.00000000000E+00 0. -1.
         21   -1    0    0  501  503 -0.00000000000E+00 -0.00000000000E+00 -0.28822857449E+03  0.28822857449E+03  0.00000000000E+00 0. -1.
    9000007    1    1    2  501    0  0.15161148384E+03  0.91762905131E+02  0.16798087431E+02  0.43782262222E+03  0.40000000000E+03 0. -1.
   -9000007    1    1    2    0  502 -0.15161148384E+03 -0.91762905131E+02  0.53800541191E+03  0.69343802609E+03  0.40000000000E+03 0. -1.
<mgrwt>
<rscale>  2 0.43750025E+03</rscale>
<asrwt>0</asrwt>
<pdfrwt beam="1">  1       21 0.12969724E+00 0.43750025E+03</pdfrwt>
<pdfrwt beam="2">  1       21 0.44342858E-01 0.43750025E+03</pdfrwt>
<totfact> 0.18305237E+03</totfact>
</mgrwt>
</event>
<event>
 4    1  0.4675559E-002  0.4317602E+03  0.7818608E-02  0.1033305E+00
         21   -1    0    0  503  502  0.00000000000E+00  0.00000000000E+00  0.12591459469E+04  0.12591459469E+04  0.00000000000E+00 0. -1.
         21   -1    0    0  501  503 -0.00000000000E+00 -0.00000000000E+00 -0.15226529665E+03  0.15226529665E+03  0.00000000000E+00 0. -1.
    9000007    1    1    2  501    0  0.14647212848E+03  0.70447342631E+02  0.43602557583E+03  0.61362465342E+03  0.40000000000E+03 0.  1.
   -9000007    1    1    2    0  502 -0.14647212848E+03 -0.70447342631E+02  0.67085507441E+03  0.79778659011E+03  0.40000000000E+03 0.  1.
<mgrwt>
<rscale>  2 0.43176025E+03</rscale>
<asrwt>0</asrwt>
<pdfrwt beam="1">  1       21 0.19371475E+00 0.43176025E+03</pdfrwt>
<pdfrwt beam="2">  1       21 0.23425431E-01 0.43176025E+03</pdfrwt>
<totfact> 0.21608591E+03</totfact>
</mgrwt>
</event>
<event>
 4    1  0.4675559E-002  0.4352360E+03  0.7818608E-02  0.1032219E+00
         21   -1    0    0  501  502  0.00000000000E+00  0.00000000000E+00  0.97643415757E+03  0.97643415757E+03  0.00000000000E+00 0.  1.
         21   -1    0    0  502  503 -0.00000000000E+00 -0.00000000000E+00 -0.27332363144E+03  0.27332363144E+03  0.00000000000E+00 0.  1.
    9000007    1    1    2  501    0  0.17094022731E+03 -0.14485075339E+02  0.68818503713E+03  0.81426594184E+03  0.40000000000E+03 0.  1.
   -9000007    1    1    2    0  503 -0.17094022731E+03  0.14485075339E+02  0.14925489002E+02  0.43549184716E+03  0.40000000000E+03 0.  1.
<mgrwt>
<rscale>  2 0.43523600E+03</rscale>
<asrwt>0</asrwt>
<pdfrwt beam="1">  1       21 0.15022064E+00 0.43523600E+03</pdfrwt>
<pdfrwt beam="2">  1       21 0.42049790E-01 0.43523600E+03</pdfrwt>
<totfact> 0.13860828E+03</totfact>
</mgrwt>
</event>
<event>
 4    1  0.4675559E-002  0.4055035E+03  0.7818608E-02  0.1041890E+00
         21   -1    0    0  503  502  0.00000000000E+00  0.00000000000E+00  0.28260814023E+03  0.28260814023E+03  0.00000000000E+00 0. -1.
         21   -1    0    0  501  503 -0.00000000000E+00 -0.00000000000E+00 -0.67254349345E+03  0.67254349345E+03  0.00000000000E+00 0. -1.
    9000007    1    1    2  501    0  0.64193768622E+02 -0.17671620132E+02 -0.37035197476E+03  0.54917548315E+03  0.40000000000E+03 0. -1.
   -9000007    1    1    2    0  502 -0.64193768622E+02  0.17671620132E+02 -0.19583378467E+02  0.40597615053E+03  0.40000000000E+03 0. -1.
<mgrwt>
<rscale>  2 0.40550355E+03</rscale>
<asrwt>0</asrwt>
<pdfrwt beam="1">  1       21 0.43478175E-01 0.40550355E+03</pdfrwt>
<pdfrwt beam="2">  1       21 0.10346823E+00 0.40550355E+03</pdfrwt>
<totfact> 0.34078490E+03</totfact>
</mgrwt>
</event>
<event>
 4    1  0.4675559E-002  0.4858491E+03  0.7818608E-02  0.1017540E+00
         21   -1    0    0  503  502  0.00000000000E+00  0.00000000000E+00  0.54650303411E+03  0.54650303411E+03  0.00000000000E+00 0. -1.
         21   -1    0    0  501  503 -0.00000000000E+00 -0.00000000000E+00 -0.45887894726E+03  0.45887894726E+03  0.00000000000E+00 0.  1.
    9000007    1    1    2  501    0 -0.14367734969E+02  0.27539591571E+03 -0.78016260323E+02  0.49207304241E+03  0.40000000000E+03 0.  1.
   -9000007    1    1    2    0  502  0.14367734969E+02 -0.27539591571E+03  0.16564034717E+03  0.51330893895E+03  0.40000000000E+03 0. -1.
<mgrwt>
<rscale>  2 0.48584909E+03</rscale>
<asrwt>0</asrwt>
<pdfrwt beam="1">  1       21 0.84077390E-01 0.48584909E+03</pdfrwt>
<pdfrwt beam="2">  1       21 0.70596761E-01 0.48584909E+03</pdfrwt>
<totfact> 0.19023521E+03</totfact>
</mgrwt>
</event>
<event>
 4    1  0.4675559E-002  0.4367437E+03  0.7818608E-02  0.1031751E+00
         21   -1    0    0  501  502  0.00000000000E+00  0.00000000000E+00  0.21462826133E+03  0.21462826133E+03  0.00000000000E+00 0. -1.
         21   -1    0    0  502  503 -0.00000000000E+00 -0.00000000000E+00 -0.10383336579E+04  0.10383336579E+04  0.00000000000E+00 0.  1.
    9000007    1    1    2  501    0 -0.12142814241E+03  0.12649199446E+03 -0.17404766591E+03  0.47014636916E+03  0.40000000000E+03 0. -1.
   -9000007    1    1    2    0  503  0.12142814241E+03 -0.12649199446E+03 -0.64965773068E+03  0.78281555009E+03  0.40000000000E+03 0.  1.
<mgrwt>
<rscale>  2 0.43674365E+03</rscale>
<asrwt>0</asrwt>
<pdfrwt beam="1">  1       21 0.33019733E-01 0.43674365E+03</pdfrwt>
<pdfrwt beam="2">  1       21 0.15974364E+00 0.43674365E+03</pdfrwt>
<totfact> 0.19156603E+03</totfact>
</mgrwt>
</event>
<event>
 4    1  0.4675559E-002  0.4023768E+03  0.7818608E-02  0.1042960E+00
         21   -1    0    0  501  502  0.00000000000E+00  0.00000000000E+00  0.14575438712E+03  0.14575438712E+03  0.00000000000E+00 0. -1.
         21   -1    0    0  502  503 -0.00000000000E+00 -0.00000000000E+00 -0.18674024453E+04  0.18674024453E+04  0.00000000000E+00 0. -1.
    9000007    1    1    2  501    0 -0.33213336572E+02 -0.28354047902E+02 -0.22012154296E+03  0.45865081645E+03  0.40000000000E+03 0. -1.
   -9000007    1    1    2    0  503  0.33213336572E+02  0.28354047902E+02 -0.15015265152E+04  0.15545060159E+04  0.40000000000E+03 0. -1.
<mgrwt>
<rscale>  2 0.40237679E+03</rscale>
<asrwt>0</asrwt>
<pdfrwt beam="1">  1       21 0.22423751E-01 0.40237679E+03</pdfrwt>
<pdfrwt beam="2">  1       21 0.28729269E+00 0.40237679E+03</pdfrwt>
<totfact> 0.62132559E+02</totfact>
</mgrwt>
</event>
<event>
 4    1  0.4675559E-002  0.5193911E+03  0.7818608E-02  0.1008838E+00
         21   -1    0    0  503  502  0.00000000000E+00  0.00000000000E+00  0.36404666650E+03  0.36404666650E+03  0.00000000000E+00 0.  1.
         21   -1    0    0  501  503 -0.00000000000E+00 -0.00000000000E+00 -0.82144730351E+03  0.82144730351E+03  0.00000000000E+00 0.  1.
    9000007    1    1    2  501    0 -0.42120108026E+02 -0.32862286990E+03 -0.43230986950E+02  0.52118711837E+03  0.40000000000E+03 0.  1.
   -9000007    1    1    2    0  502  0.42120108026E+02  0.32862286990E+03 -0.41416965006E+03  0.66430685165E+03  0.40000000000E+03 0.  1.
<mgrwt>
<rscale>  2 0.51939108E+03</rscale>
<asrwt>0</asrwt>
<pdfrwt beam="1">  1       21 0.56007179E-01 0.51939108E+03</pdfrwt>
<pdfrwt beam="2">  1       21 0.12637651E+00 0.51939108E+03</pdfrwt>
<totfact> 0.11544447E+03</totfact>
</mgrwt>
</event>
<event>
 4    1  0.4675559E-002  0.4837705E+03  0.7818608E-02  0.1018104E+00
         21   -1    0    0  501  502  0.00000000000E+00  0.00000000000E+00  0.31586150590E+03  0.31586150590E+03  0.00000000000E+00 0. -1.
         21   -1    0    0  502  503 -0.00000000000E+00 -0.00000000000E+00 -0.74357679280E+03  0.74357679280E+03  0.00000000000E+00 0. -1.
    9000007    1    1    2  501    0  0.94660761816E+02  0.25509448805E+03 -0.24541266026E+03  0.54245850669E+03  0.40000000000E+03 0. -1.
   -9000007    1    1    2    0  503 -0.94660761816E+02 -0.25509448805E+03 -0.18230262664E+03  0.51697979201E+03  0.40000000000E+03 0. -1.
<mgrwt>
<rscale>  2 0.48377046E+03</rscale>
<asrwt>0</asrwt>
<pdfrwt beam="1">  1       21 0.48594078E-01 0.48377046E+03</pdfrwt>
<pdfrwt beam="2">  1       21 0.11439643E+00 0.48377046E+03</pdfrwt>
<totfact> 0.20436002E+03</totfact>
</mgrwt>
</event>
<event>
 4    1  0.4675559E-002  0.4054478E+03  0.7818608E-02  0.1041909E+00
         21   -1    0    0  501  502  0.00000000000E+00  0.00000000000E+00  0.35493614763E+03  0.35493614763E+03  0.00000000000E+00 0.  1.
         21   -1    0    0  502  503 -0.00000000000E+00 -0.00000000000E+00 -0.51030492984E+03  0.51030492984E+03  0.00000000000E+00 0.  1.
    9000007    1    1    2  501    0  0.43215107930E+02 -0.50203474501E+02 -0.20919640694E+03  0.45623576261E+03  0.40000000000E+03 0. -1.
   -9000007    1    1    2    0  503 -0.43215107930E+02  0.50203474501E+02  0.53827624731E+02  0.40900531487E+03  0.40000000000E+03 0. -1.
<mgrwt>
<rscale>  2 0.40544782E+03</rscale>
<asrwt>0</asrwt>
<pdfrwt beam="1">  1       21 0.54605561E-01 0.40544782E+03</pdfrwt>
<pdfrwt beam="2">  1       21 0.78508450E-01 0.40544782E+03</pdfrwt>
<totfact> 0.40440284E+03</totfact>
</mgrwt>
</event>
<event>
 4    1  0.4675559E-002  0.4583257E+03  0.7818608E-02  0.1025268E+00
         21   -1    0    0  503  502  0.00000000000E+00  0.00000000000E+00  0.37111578088E+03  0.37111578088E+03  0.00000000000E+00 0.  1.
         21   -1    0    0  501  503 -0.00000000000E+00 -0.00000000000E+00 -0.56630099867E+03  0.56630099867E+03  0.00000000000E+00 0.  1.
    9000007    1    1    2  501    0 -0.19470887344E+03  0.11023122586E+03 -0.87329301096E+02  0.46657140438E+03  0.40000000000E+03 0.  1.
   -9000007    1    1    2    0  502  0.19470887344E+03 -0.11023122586E+03 -0.10785591670E+03  0.47084537517E+03  0.40000000000E+03 0.  1.
<mgrwt>
<rscale>  2 0.45832572E+03</rscale>
<asrwt>0</asrwt>
<pdfrwt beam="1">  1       21 0.57094736E-01 0.45832572E+03</pdfrwt>
<pdfrwt beam="2">  1       21 0.87123230E-01 0.45832572E+03</pdfrwt>
<totfact> 0.28283167E+03</totfact>
</mgrwt>
</event>
<event>
 4    1  0.4675559E-002  0.4039590E+03  0.7818608E-02  0.1042417E+00
         21   -1    0    0  501  502  0.00000000000E+00  0.00000000000E+00  0.28362818709E+03  0.28362818709E+03  0.00000000000E+00 0.  1.
         21   -1    0    0  502  503 -0.00000000000E+00 -0.00000000000E+00 -0.58079684113E+03  0.58079684113E+03  0.00000000000E+00 0.  1.
    9000007    1    1    2  501    0  0.55864701277E+02 -0.78722270535E+01 -0.19047606885E+03  0.44661389321E+03  0.40000000000E+03 0.  1.
   -9000007    1    1    2    0  503 -0.55864701277E+02  0.78722270535E+01 -0.10669258519E+03  0.41781113502E+03  0.40000000000E+03 0.  1.
<mgrwt>
<rscale>  2 0.40395895E+03</rscale>
<asrwt>0</asrwt>
<pdfrwt beam="1">  1       21 0.43635107E-01 0.40395895E+03</pdfrwt>
<pdfrwt beam="2">  1       21 0.89353359E-01 0.40395895E+03</pdfrwt>
<totfact> 0.48121377E+03</totfact>
</mgrwt>
</event>
<event>
 4    1  0.4675559E-002  0.4326335E+03  0.7818608E-02  0.1033031E+00
         21   -1    0    0  501  502  0.00000000000E+00  0.00000000000E+00  0.16145482510E+03  0.16145482510E+03  0.00000000000E+00 0. -1.
         21   -1    0    0  502  503 -0.00000000000E+00 -0.00000000000E+00 -0.13580771661E+04  0.13580771661E+04  0.00000000000E+00 0. -1.
    9000007    1    1    2  501    0  0.13662971774E+03 -0.92217641603E+02 -0.30762802063E+03  0.53085475629E+03  0.40000000000E+03 0. -1.
   -9000007    1    1    2    0  503 -0.13662971774E+03  0.92217641603E+02 -0.88899432038E+03  0.98867723492E+03  0.40000000000E+03 0. -1.
<mgrwt>
<rscale>  2 0.43263353E+03</rscale>
<asrwt>0</asrwt>
<pdfrwt beam="1">  1       21 0.24839205E-01 0.43263353E+03</pdfrwt>
<pdfrwt beam="2">  1       21 0.20893494E+00 0.43263353E+03</pdfrwt>
<totfact> 0.15279311E+03</totfact>
</mgrwt>
</event>
<event>
 4    1  0.4675559E-002  0.4276435E+03  0.7818608E-02  0.1034607E+00
         21   -1    0    0  501  502  0.00000000000E+00  0.00000000000E+00  0.18546877042E+04  0.18546877042E+04  0.00000000000E+00 0. -1.
         21   -1    0    0  502  503 -0.00000000000E+00 -0.00000000000E+00 -0.20904304884E+03  0.20904304884E+03  0.00000000000E+00 0.  1.
    9000007    1    1    2  501    0  0.14921732046E+03  0.24761911932E+02  0.15728325955E+04  0.16299329233E+04  0.40000000000E+03 0. -1.
   -9000007    1    1    2    0  503 -0.14921732046E+03 -0.24761911932E+02  0.72812059849E+02  0.43379782972E+03  0.40000000000E+03 0.  1.
<mgrwt>
<rscale>  2 0.42764350E+03</rscale>
<asrwt>0</asrwt>
<pdfrwt beam="1">  1       21 0.28533656E+00 0.42764350E+03</pdfrwt>
<pdfrwt beam="2">  1       21 0.32160470E-01 0.42764350E+03</pdfrwt>
<totfact> 0.31010582E+02</totfact>
</mgrwt>
</event>
<event>
 4    1  0.4675559E-002  0.4143690E+03  0.7818608E-02  0.1038915E+00
         21   -1    0    0  501  502  0.00000000000E+00  0.00000000000E+00  0.90746265193E+03  0.90746265193E+03  0.00000000000E+00 0.  1.
         21   -1    0    0  502  503 -0.00000000000E+00 -0.00000000000E+00 -0.35322426048E+03  0.35322426048E+03  0.00000000000E+00 0. -1.
    9000007    1    1    2  501    0 -0.10623990445E+03 -0.20365604728E+02 -0.15240913936E+03  0.44150902699E+03  0.40000000000E+03 0. -1.
   -9000007    1    1    2    0  503  0.10623990445E+03  0.20365604728E+02  0.70664753081E+03  0.81917788542E+03  0.40000000000E+03 0.  1.
<mgrwt>
<rscale>  2 0.41436901E+03</rscale>
<asrwt>0</asrwt>
<pdfrwt beam="1">  1       21 0.13960964E+00 0.41436901E+03</pdfrwt>
<pdfrwt beam="2">  1       21 0.54342194E-01 0.41436901E+03</pdfrwt>
<totfact> 0.99092256E+02</totfact>
</mgrwt>
</event>
<event>
 4    1  0.4675559E-002  0.4725641E+03  0.7818608E-02  0.1021199E+00
         21   -1    0    0  501  502  0.00000000000E+00  0.00000000000E+00  0.58323294809E+03  0.58323294809E+03  0.00000000000E+00 0.  1.
         21   -1    0    0  502  503 -0.00000000000E+00 -0.00000000000E+00 -0.17966030344E+04  0.17966030344E+04  0.00000000000E+00 0.  1.
    9000007    1    1    2  501    0 -0.17956673021E+03 -0.17627436149E+03  0.44884563653E+03  0.65175092371E+03  0.40000000000E+03 0.  1.
   -9000007    1    1    2    0  503  0.17956673021E+03  0.17627436149E+03 -0.16622157228E+04  0.17280850587E+04  0.40000000000E+03 0.  1.
<mgrwt>
<rscale>  2 0.47256413E+03</rscale>
<asrwt>0</asrwt>
<pdfrwt beam="1">  1       21 0.89728147E-01 0.47256413E+03</pdfrwt>
<pdfrwt beam="2">  1       21 0.27640046E+00 0.47256413E+03</pdfrwt>
<totfact> 0.37107372E+01</totfact>
</mgrwt>
</event>
<event>
 4    1  0.4675559E-002  0.4391873E+03  0.7818608E-02  0.1030996E+00
         21   -1    0    0  501  502  0.00000000000E+00  0.00000000000E+00  0.47665662316E+03  0.47665662316E+03  0.00000000000E+00 0. -1.
         21   -1    0    0  502  503 -0.00000000000E+00 -0.00000000000E+00 -0.62935092555E+03  0.62935092555E+03  0.00000000000E+00 0. -1.
    9000007    1    1    2  501    0 -0.78539429057E+02  0.16345357011E+03  0.25407647613E+03  0.50738581693E+03  0.40000000000E+03 0. -1.
   -9000007    1    1    2    0  503  0.78539429057E+02 -0.16345357011E+03 -0.40677077852E+03  0.59862173177E+03  0.40000000000E+03 0. -1.
<mgrwt>
<rscale>  2 0.43918733E+03</rscale>
<asrwt>0</asrwt>
<pdfrwt beam="1">  1       21 0.73331788E-01 0.43918733E+03</pdfrwt>
<pdfrwt beam="2">  1       21 0.96823219E-01 0.43918733E+03</pdfrwt>
<totfact> 0.12711739E+03</totfact>
</mgrwt>
</event>
<event>
 4    1  0.4675559E-002  0.4431506E+03  0.7818608E-02  0.1029784E+00
         21   -1    0    0  503  502  0.00000000000E+00  0.00000000000E+00  0.43638870510E+03  0.43638870510E+03  0.00000000000E+00 0. -1.
         21   -1    0    0  501  503 -0.00000000000E+00 -0.00000000000E+00 -0.51446862629E+03  0.51446862629E+03  0.00000000000E+00 0. -1.
    9000007    1    1    2  501    0  0.15101093141E+03 -0.11652546838E+03 -0.20731577296E+03  0.48924668206E+03  0.40000000000E+03 0. -1.
   -9000007    1    1    2    0  502 -0.15101093141E+03  0.11652546838E+03  0.12923585177E+03  0.46161064933E+03  0.40000000000E+03 0. -1.
<mgrwt>
<rscale>  2 0.44315064E+03</rscale>
<asrwt>0</asrwt>
<pdfrwt beam="1">  1       21 0.67136724E-01 0.44315064E+03</pdfrwt>
<pdfrwt beam="2">  1       21 0.79149019E-01 0.44315064E+03</pdfrwt>
<totfact> 0.24882717E+03</totfact>
</mgrwt>
</event>
<event>
 4    1  0.4675559E-002  0.4083939E+03  0.7818608E-02  0.1040911E+00
         21   -1    0    0  503  502  0.00000000000E+00  0.00000000000E+00  0.92806773053E+03  0.92806773053E+03  0.00000000000E+00 0. -1.
         21   -1    0    0  501  503 -0.00000000000E+00 -0.00000000000E+00 -0.17987918699E+03  0.17987918699E+03  0.00000000000E+00 0. -1.
    9000007    1    1    2  501    0 -0.75170105683E+02 -0.33689913433E+02  0.35724068722E+03  0.54259235496E+03  0.40000000000E+03 0. -1.
   -9000007    1    1    2    0  502  0.75170105683E+02  0.33689913433E+02  0.39094785632E+03  0.56535456256E+03  0.40000000000E+03 0. -1.
<mgrwt>
<rscale>  2 0.40839387E+03</rscale>
<asrwt>0</asrwt>
<pdfrwt beam="1">  1       21 0.14277965E+00 0.40839387E+03</pdfrwt>
<pdfrwt beam="2">  1       21 0.27673722E-01 0.40839387E+03</pdfrwt>
<totfact> 0.37349262E+03</totfact>
</mgrwt>
</event>
<event>
 4    1  0.4675559E-002  0.4398043E+03  0.7818608E-02  0.1030807E+00
         21   -1    0    0  503  502  0.00000000000E+00  0.00000000000E+00  0.10024132899E+04  0.10024132899E+04  0.00000000000E+00 0. -1.
         21   -1    0    0  501  503 -0.00000000000E+00 -0.00000000000E+00 -0.28608804158E+03  0.28608804158E+03  0.00000000000E+00 0. -1.
    9000007    1    1    2  501    0 -0.17952353975E+03 -0.34627769102E+02 -0.94076127690E+01  0.43990486119E+03  0.40000000000E+03 0. -1.
   -9000007    1    1    2    0  502  0.17952353975E+03  0.34627769102E+02  0.72573286109E+03  0.84859647028E+03  0.40000000000E+03 0. -1.
<mgrwt>
<rscale>  2 0.43980426E+03</rscale>
<asrwt>0</asrwt>
<pdfrwt beam="1">  1       21 0.15421743E+00 0.43980426E+03</pdfrwt>
<pdfrwt beam="2">  1       21 0.44013545E-01 0.43980426E+03</pdfrwt>
<totfact> 0.11712011E+03</totfact>
</mgrwt>
</event>
<event>
 4    1  0.4675559E-002  0.4096664E+03  0.7818608E-02  0.1040483E+00
         21   -1    0    0  501  502  0.00000000000E+00  0.00000000000E+00  0.12554571553E+03  0.12554571553E+03  0.00000000000E+00 0. -1.
         21   -1    0    0  502  503 -0.00000000000E+00 -0.00000000000E+00 -0.15805632822E+04  0.15805632822E+04  0.00000000000E+00 0. -1.
    9000007    1    1    2  501    0  0.25696837218E+02 -0.84653703441E+02 -0.39248487079E+03  0.56733671726E+03  0.40000000000E+03 0. -1.
   -9000007    1    1    2    0  503 -0.25696837218E+02  0.84653703441E+02 -0.10625326959E+04  0.11387722804E+04  0.40000000000E+03 0. -1.
<mgrwt>
<rscale>  2 0.40966642E+03</rscale>
<asrwt>0</asrwt>
<pdfrwt beam="1">  1       21 0.19314725E-01 0.40966642E+03</pdfrwt>
<pdfrwt beam="2">  1       21 0.24316358E+00 0.40966642E+03</pdfrwt>
<totfact> 0.15208339E+03</totfact>
</mgrwt>
</event>
<event>
 4    1  0.4675559E-002  0.4078050E+03  0.7818608E-02  0.1041110E+00
         21   -1    0    0  503  502  0.00000000000E+00  0.00000000000E+00  0.16873732114E+04  0.16873732114E+04  0.00000000000E+00 0.  1.
         21   -1    0    0  501  503 -0.00000000000E+00 -0.00000000000E+00 -0.10007559061E+03  0.10007559061E+03  0.00000000000E+00 0.  1.
    9000007    1    1    2  501    0  0.79316534098E+02 -0.37135391021E+01  0.68360865186E+03  0.79600608782E+03  0.40000000000E+03 0.  1.
   -9000007    1    1    2    0  502 -0.79316534098E+02  0.37135391021E+01  0.90368896897E+03  0.99144271423E+03  0.40000000000E+03 0.  1.
<mgrwt>
<rscale>  2 0.40780498E+03</rscale>
<asrwt>0</asrwt>
<pdfrwt beam="1">  1       21 0.25959586E+00 0.40780498E+03</pdfrwt>
<pdfrwt beam="2">  1       21 0.15396246E-01 0.40780498E+03</pdfrwt>
<totfact> 0.18476972E+03</totfact>
</mgrwt>
</event>
<event>
 4    1  0.4675559E-002  0.4607189E+03  0.7818608E-02  0.1024573E+00
         21   -1    0    0  503  502  0.00000000000E+00  0.00000000000E+00  0.28651911616E+03  0.28651911616E+03  0.00000000000E+00 0.  1.
         21   -1    0    0  501  503 -0.00000000000E+00 -0.00000000000E+00 -0.83553047315E+03  0.83553047315E+03  0.00000000000E+00 0.  1.
    9000007    1    1    2  501    0  0.28916370680E+02  0.22677246414E+03 -0.46338194164E+03  0.65344068654E+03  0.40000000000E+03 0.  1.
   -9000007    1    1    2    0  502 -0.28916370680E+02 -0.22677246414E+03 -0.85629415349E+02  0.46860890277E+03  0.40000000000E+03 0.  1.
<mgrwt>
<rscale>  2 0.46071890E+03</rscale>
<asrwt>0</asrwt>
<pdfrwt beam="1">  1       21 0.44079864E-01 0.46071890E+03</pdfrwt>
<pdfrwt beam="2">  1       21 0.12854315E+00 0.46071890E+03</pdfrwt>
<totfact> 0.18796687E+03</totfact>
</mgrwt>
</event>
<event>
 4    1  0.4675559E-002  0.4156394E+03  0.7818608E-02  0.1038495E+00
         21   -1    0    0  503  502  0.00000000000E+00  0.00000000000E+00  0.42695333505E+03  0.42695333505E+03  0.00000000000E+00 0.  1.
         21   -1    0    0  501  503 -0.00000000000E+00 -0.00000000000E+00 -0.40924800008E+03  0.40924800008E+03  0.00000000000E+00 0.  1.
    9000007    1    1    2  501    0  0.53575756241E+02  0.99426968890E+02 -0.35583803453E+02  0.41715979057E+03  0.40000000000E+03 0.  1.
   -9000007    1    1    2    0  502 -0.53575756241E+02 -0.99426968890E+02  0.53289138423E+02  0.41904154457E+03  0.40000000000E+03 0.  1.
<mgrwt>
<rscale>  2 0.41563937E+03</rscale>
<asrwt>0</asrwt>
<pdfrwt beam="1">  1       21 0.65685129E-01 0.41563937E+03</pdfrwt>
<pdfrwt beam="2">  1       21 0.62961231E-01 0.41563937E+03</pdfrwt>
<totfact> 0.44193558E+03</totfact>
</mgrwt>
</event>
<event>
 4    1  0.4675559E-002  0.4470977E+03  0.7818608E-02  0.1028591E+00
         21   -1    0    0  501  502  0.00000000000E+00  0.00000000000E+00  0.14049594094E+03  0.14049594094E+03  0.00000000000E+00 0. -1.
         21   -1    0    0  502  503 -0.00000000000E+00 -0.00000000000E+00 -0.15000833666E+04  0.15000833666E+04  0.00000000000E+00 0.  1.
    9000007    1    1    2  501    0  0.36134592638E+02 -0.19644505545E+03 -0.86599285378E+03  0.97459734834E+03  0.40000000000E+03 0.  1.
   -9000007    1    1    2    0  503 -0.36134592638E+02  0.19644505545E+03 -0.49359457188E+03  0.66598195920E+03  0.40000000000E+03 0. -1.
<mgrwt>
<rscale>  2 0.44709772E+03</rscale>
<asrwt>0</asrwt>
<pdfrwt beam="1">  1       21 0.21614761E-01 0.44709772E+03</pdfrwt>
<pdfrwt beam="2">  1       21 0.23078204E+00 0.44709772E+03</pdfrwt>
<totfact> 0.14388528E+03</totfact>
</mgrwt>
</event>
<event>
 4    1  0.4675559E-002  0.4053143E+03  0.7818608E-02  0.1041955E+00
         21   -1    0    0  503  502  0.00000000000E+00  0.00000000000E+00  0.82242244378E+03  0.82242244378E+03  0.00000000000E+00 0. -1.
         21   -1    0    0  501  503 -0.00000000000E+00 -0.00000000000E+00 -0.20229550815E+03  0.20229550815E+03  0.00000000000E+00 0. -1.
    9000007    1    1    2  501    0  0.24650818696E+02  0.60597139641E+02  0.36752619059E+03  0.54713360065E+03  0.40000000000E+03 0. -1.
   -9000007    1    1    2    0  502 -0.24650818696E+02 -0.60597139641E+02  0.25260074504E+03  0.47758435128E+03  0.40000000000E+03 0. -1.
<mgrwt>
<rscale>  2 0.40531429E+03</rscale>
<asrwt>0</asrwt>
<pdfrwt beam="1">  1       21 0.12652653E+00 0.40531429E+03</pdfrwt>
<pdfrwt beam="2">  1       21 0.31122386E-01 0.40531429E+03</pdfrwt>
<totfact> 0.40660260E+03</totfact>
</mgrwt>
</event>
<event>
 4    1  0.4675559E-002  0.5233775E+03  0.7818608E-02  0.1007851E+00
         21   -1    0    0  503  502  0.00000000000E+00  0.00000000000E+00  0.95000428345E+03  0.95000428345E+03  0.00000000000E+00 0. -1.
         21   -1    0    0  501  503 -0.00000000000E+00 -0.00000000000E+00 -0.29682831822E+03  0.29682831822E+03  0.00000000000E+00 0.  1.
    9000007    1    1    2  501    0  0.21609993254E+03  0.25927748560E+03  0.22116318665E+03  0.56818760151E+03  0.40000000000E+03 0.  1.
   -9000007    1    1    2    0  502 -0.21609993254E+03 -0.25927748560E+03  0.43201277858E+03  0.67864500016E+03  0.40000000000E+03 0.  1.
<mgrwt>
<rscale>  2 0.52337749E+03</rscale>
<asrwt>0</asrwt>
<pdfrwt beam="1">  1       21 0.14615450E+00 0.52337749E+03</pdfrwt>
<pdfrwt beam="2">  1       21 0.45665896E-01 0.52337749E+03</pdfrwt>
<totfact> 0.12142250E+03</totfact>
</mgrwt>
</event>
<event>
 4    1  0.4675559E-002  0.4130290E+03  0.7818608E-02  0.1039359E+00
         21   -1    0    0  501  502  0.00000000000E+00  0.00000000000E+00  0.25895611659E+03  0.25895611659E+03  0.00000000000E+00 0. -1.
         21   -1    0    0  502  503 -0.00000000000E+00 -0.00000000000E+00 -0.67893246348E+03  0.67893246348E+03  0.00000000000E+00 0.  1.
    9000007    1    1    2  501    0 -0.74453207415E+02  0.71060953374E+02 -0.12917868351E+03  0.43275867578E+03  0.40000000000E+03 0. -1.
   -9000007    1    1    2    0  503  0.74453207415E+02 -0.71060953374E+02 -0.29079766338E+03  0.50512990430E+03  0.40000000000E+03 0.  1.
<mgrwt>
<rscale>  2 0.41302898E+03</rscale>
<asrwt>0</asrwt>
<pdfrwt beam="1">  1       21 0.39839403E-01 0.41302898E+03</pdfrwt>
<pdfrwt beam="2">  1       21 0.10445115E+00 0.41302898E+03</pdfrwt>
<totfact> 0.39778342E+03</totfact>
</mgrwt>
</event>
<event>
 4    1  0.4675559E-002  0.5024583E+03  0.7818608E-02  0.1013139E+00
         21   -1    0    0  503  502  0.00000000000E+00  0.00000000000E+00  0.36685251948E+03  0.36685251948E+03  0.00000000000E+00 0. -1.
         21   -1    0    0  501  503 -0.00000000000E+00 -0.00000000000E+00 -0.79852861344E+03  0.79852861344E+03  0.00000000000E+00 0.  1.
    9000007    1    1    2  501    0 -0.17724782129E+02 -0.30356245606E+03  0.76072253271E+00  0.50245886531E+03  0.40000000000E+03 0. -1.
   -9000007    1    1    2    0  502  0.17724782129E+02  0.30356245606E+03 -0.43243681649E+03  0.66292226760E+03  0.40000000000E+03 0.  1.
<mgrwt>
<rscale>  2 0.50245829E+03</rscale>
<asrwt>0</asrwt>
<pdfrwt beam="1">  1       21 0.56438850E-01 0.50245829E+03</pdfrwt>
<pdfrwt beam="2">  1       21 0.12285055E+00 0.50245829E+03</pdfrwt>
<totfact> 0.12286667E+03</totfact>
</mgrwt>
</event>
<event>
 4    1  0.4675559E-002  0.4048490E+03  0.7818608E-02  0.1042113E+00
         21   -1    0    0  503  502  0.00000000000E+00  0.00000000000E+00  0.10501522803E+04  0.10501522803E+04  0.00000000000E+00 0.  1.
         21   -1    0    0  501  503 -0.00000000000E+00 -0.00000000000E+00 -0.74433555658E+03  0.74433555658E+03  0.00000000000E+00 0.  1.
    9000007    1    1    2  501    0  0.33606660298E+01  0.62381407621E+02 -0.64473899252E+03  0.76130880894E+03  0.40000000000E+03 0.  1.
   -9000007    1    1    2    0  502 -0.33606660298E+01 -0.62381407621E+02  0.95055571622E+03  0.10331790279E+04  0.40000000000E+03 0.  1.
<mgrwt>
<rscale>  2 0.40484903E+03</rscale>
<asrwt>0</asrwt>
<pdfrwt beam="1">  1       21 0.16156189E+00 0.40484903E+03</pdfrwt>
<pdfrwt beam="2">  1       21 0.11451316E+00 0.40484903E+03</pdfrwt>
<totfact> 0.11991824E+02</totfact>
</mgrwt>
</event>
<event>
 4    1  0.4675559E-002  0.4316678E+03  0.7818608E-02  0.1033334E+00
         21   -1    0    0  501  502  0.00000000000E+00  0.00000000000E+00  0.22004480265E+03  0.22004480265E+03  0.00000000000E+00 0.  1.
         21   -1    0    0  502  503 -0.00000000000E+00 -0.00000000000E+00 -0.84685322083E+03  0.84685322083E+03  0.00000000000E+00 0.  1.
    9000007    1    1    2  501    0 -0.15992680994E+03  0.27576774506E+02 -0.31702538381E+03  0.53557647167E+03  0.40000000000E+03 0.  1.
   -9000007    1    1    2    0  503  0.15992680994E+03 -0.27576774506E+02 -0.30978303437E+03  0.53132155181E+03  0.40000000000E+03 0.  1.
<mgrwt>
<rscale>  2 0.43166777E+03</rscale>
<asrwt>0</asrwt>
<pdfrwt beam="1">  1       21 0.33853046E-01 0.43166777E+03</pdfrwt>
<pdfrwt beam="2">  1       21 0.13028511E+00 0.43166777E+03</pdfrwt>
<totfact> 0.31535476E+03</totfact>
</mgrwt>
</event>
<event>
 4    1  0.4675559E-002  0.4635060E+03  0.7818608E-02  0.1023769E+00
         21   -1    0    0  503  502  0.00000000000E+00  0.00000000000E+00  0.66786442624E+03  0.66786442624E+03  0.00000000000E+00 0. -1.
         21   -1    0    0  501  503 -0.00000000000E+00 -0.00000000000E+00 -0.54441085373E+03  0.54441085373E+03  0.00000000000E+00 0. -1.
    9000007    1    1    2  501    0  0.23629412549E+02  0.23297955115E+03 -0.32597628102E+03  0.56665541221E+03  0.40000000000E+03 0. -1.
   -9000007    1    1    2    0  502 -0.23629412549E+02 -0.23297955115E+03  0.44942985353E+03  0.64561986776E+03  0.40000000000E+03 0. -1.
<mgrwt>
<rscale>  2 0.46350601E+03</rscale>
<asrwt>0</asrwt>
<pdfrwt beam="1">  1       21 0.10274837E+00 0.46350601E+03</pdfrwt>
<pdfrwt beam="2">  1       21 0.83755516E-01 0.46350601E+03</pdfrwt>
<totfact> 0.80235637E+02</totfact>
</mgrwt>
</event>
<event>
 4    1  0.4675559E-002  0.4289214E+03  0.7818608E-02  0.1034201E+00
         21   -1    0    0  501  502  0.00000000000E+00  0.00000000000E+00  0.39174630231E+03  0.39174630231E+03  0.00000000000E+00 0.  1.
         21   -1    0    0  502  503 -0.00000000000E+00 -0.00000000000E+00 -0.53140432928E+03  0.53140432928E+03  0.00000000000E+00 0.  1.
    9000007    1    1    2  501    0 -0.12778275448E+03  0.87436559477E+02  0.87552629518E+02  0.43776597311E+03  0.40000000000E+03 0.  1.
   -9000007    1    1    2    0  503  0.12778275448E+03 -0.87436559477E+02 -0.22721065649E+03  0.48538465849E+03  0.40000000000E+03 0.  1.
<mgrwt>
<rscale>  2 0.42892142E+03</rscale>
<asrwt>0</asrwt>
<pdfrwt beam="1">  1       21 0.60268662E-01 0.42892142E+03</pdfrwt>
<pdfrwt beam="2">  1       21 0.81754512E-01 0.42892142E+03</pdfrwt>
<totfact> 0.29469421E+03</totfact>
</mgrwt>
</event>
<event>
 4    1  0.4675559E-002  0.4142598E+03  0.7818608E-02  0.1038951E+00
         21   -1    0    0  501  502  0.00000000000E+00  0.00000000000E+00  0.11496937607E+04  0.11496937607E+04  0.00000000000E+00 0.  1.
         21   -1    0    0  502  503 -0.00000000000E+00 -0.00000000000E+00 -0.15567933739E+03  0.15567933739E+03  0.00000000000E+00 0.  1.
    9000007    1    1    2  501    0  0.10579144017E+03 -0.20477766232E+02  0.36454183145E+03  0.55181692127E+03  0.40000000000E+03 0. -1.
   -9000007    1    1    2    0  503 -0.10579144017E+03  0.20477766232E+02  0.62947259182E+03  0.75355617679E+03  0.40000000000E+03 0. -1.
<mgrwt>
<rscale>  2 0.41425978E+03</rscale>
<asrwt>0</asrwt>
<pdfrwt beam="1">  1       21 0.17687596E+00 0.41425978E+03</pdfrwt>
<pdfrwt beam="2">  1       21 0.23950668E-01 0.41425978E+03</pdfrwt>
<totfact> 0.27280512E+03</totfact>
</mgrwt>
</event>
<event>
 4    1  0.4675559E-002  0.4723426E+03  0.7818608E-02  0.1021261E+00
         21   -1    0    0  503  502  0.00000000000E+00  0.00000000000E+00  0.29705156980E+03  0.29705156980E+03  0.00000000000E+00 0.  1.
         21   -1    0    0  501  503 -0.00000000000E+00 -0.00000000000E+00 -0.86642744391E+03  0.86642744391E+03  0.00000000000E+00 0. -1.
    9000007    1    1    2  501    0  0.23951254659E+03  0.75771216154E+02 -0.49695315738E+03  0.68561649470E+03  0.40000000000E+03 0. -1.
   -9000007    1    1    2    0  502 -0.23951254659E+03 -0.75771216154E+02 -0.72422716726E+02  0.47786251900E+03  0.40000000000E+03 0. -1.
<mgrwt>
<rscale>  2 0.47234261E+03</rscale>
<asrwt>0</asrwt>
<pdfrwt beam="1">  1       21 0.45700242E-01 0.47234261E+03</pdfrwt>
<pdfrwt beam="2">  1       21 0.13329653E+00 0.47234261E+03</pdfrwt>
<totfact> 0.15786003E+03</totfact>
</mgrwt>
</event>
<event>
 4    1  0.4675559E-002  0.4402981E+03  0.7818608E-02  0.1030655E+00
         21   -1    0    0  501  502  0.00000000000E+00  0.00000000000E+00  0.22615366443E+03  0.22615366443E+03  0.00000000000E+00 0. -1.
         21   -1    0    0  502  503 -0.00000000000E+00 -0.00000000000E+00 -0.12380035762E+04  0.12380035762E+04  0.00000000000E+00 0.  1.
    9000007    1    1    2  501    0  0.18326721497E+03  0.16599070014E+02 -0.99913293602E+02  0.45149204583E+03  0.40000000000E+03 0. -1.
   -9000007    1    1    2    0  503 -0.18326721497E+03 -0.16599070014E+02 -0.91193661819E+03  0.10126651948E+04  0.40000000000E+03 0.  1.
<mgrwt>
<rscale>  2 0.44029808E+03</rscale>
<asrwt>0</asrwt>
<pdfrwt beam="1">  1       21 0.34792871E-01 0.44029808E+03</pdfrwt>
<pdfrwt beam="2">  1       21 0.19046209E+00 0.44029808E+03</pdfrwt>
<totfact> 0.10370884E+03</totfact>
</mgrwt>
</event>
<event>
 4    1  0.4675559E-002  0.4335661E+03  0.7818608E-02  0.1032739E+00
         21   -1    0    0  501  502  0.00000000000E+00  0.00000000000E+00  0.12513744434E+03  0.12513744434E+03  0.00000000000E+00 0.  1.
         21   -1    0    0  502  503 -0.00000000000E+00 -0.00000000000E+00 -0.22737050312E+04  0.22737050312E+04  0.00000000000E+00 0.  1.
    9000007    1    1    2  501    0 -0.16242734042E+01 -0.16726312951E+03 -0.37560385365E+03  0.57363564014E+03  0.40000000000E+03 0.  1.
   -9000007    1    1    2    0  503  0.16242734042E+01  0.16726312951E+03 -0.17729637333E+04  0.18252068355E+04  0.40000000000E+03 0.  1.
<mgrwt>
<rscale>  2 0.43356613E+03</rscale>
<asrwt>0</asrwt>
<pdfrwt beam="1">  1       21 0.19251916E-01 0.43356613E+03</pdfrwt>
<pdfrwt beam="2">  1       21 0.34980074E+00 0.43356613E+03</pdfrwt>
<totfact> 0.34221469E+02</totfact>
</mgrwt>
</event>
<event>
 4    1  0.4675559E-002  0.5997581E+03  0.7818608E-02  0.9905908E-01
         21   -1    0    0  501  502  0.00000000000E+00  0.00000000000E+00  0.13290846825E+04  0.13290846825E+04  0.00000000000E+00 0.  1.
         21   -1    0    0  502  503 -0.00000000000E+00 -0.00000000000E+00 -0.54168182405E+03  0.54168182405E+03  0.00000000000E+00 0. -1.
    9000007    1    1    2  501    0 -0.38811594820E+03  0.22153057891E+03  0.10553567538E+04  0.12138730018E+04  0.40000000000E+03 0.  1.
   -9000007    1    1    2    0  503  0.38811594820E+03 -0.22153057891E+03 -0.26795389532E+03  0.65689350480E+03  0.40000000000E+03 0. -1.
<mgrwt>
<rscale>  2 0.59975811E+03</rscale>
<asrwt>0</asrwt>
<pdfrwt beam="1">  1       21 0.20447457E+00 0.59975811E+03</pdfrwt>
<pdfrwt beam="2">  1       21 0.83335666E-01 0.59975811E+03</pdfrwt>
<totfact> 0.11719372E+02</totfact>
</mgrwt>
</event>
<event>
 4    1  0.4675559E-002  0.8703394E+03  0.7818608E-02  0.9463437E-01
         21   -1    0    0  503  502  0.00000000000E+00  0.00000000000E+00  0.28196209416E+04  0.28196209416E+04  0.00000000000E+00 0. -1.
         21   -1    0    0  501  503 -0.00000000000E+00 -0.00000000000E+00 -0.48848368251E+03  0.48848368251E+03  0.00000000000E+00 0. -1.
    9000007    1    1    2  501    0 -0.61572639935E+03  0.46730258538E+03  0.55955749807E+02  0.87213631452E+03  0.40000000000E+03 0. -1.
   -9000007    1    1    2    0  502  0.61572639935E+03 -0.46730258538E+03  0.22751815092E+04  0.24359683096E+04  0.40000000000E+03 0. -1.
<mgrwt>
<rscale>  2 0.87033942E+03</rscale>
<asrwt>0</asrwt>
<pdfrwt beam="1">  1       21 0.43378783E+00 0.87033942E+03</pdfrwt>
<pdfrwt beam="2">  1       21 0.75151337E-01 0.87033942E+03</pdfrwt>
<totfact> 0.46888471E+00</totfact>
</mgrwt>
</event>
<event>
 4    1  0.4675559E-002  0.5838018E+03  0.7818608E-02  0.9939594E-01
         21   -1    0    0  503  502  0.00000000000E+00  0.00000000000E+00  0.23246872364E+04  0.23246872364E+04  0.00000000000E+00 0.  1.
         21   -1    0    0  501  503 -0.00000000000E+00 -0.00000000000E+00 -0.14863446212E+03  0.14863446212E+03  0.00000000000E+00 0.  1.
    9000007    1    1    2  501    0  0.18549368525E+03  0.38264428743E+03  0.94373317808E+03  0.11097102637E+04  0.40000000000E+03 0.  1.
   -9000007    1    1    2    0  502 -0.18549368525E+03 -0.38264428743E+03  0.12323195962E+04  0.13636114348E+04  0.40000000000E+03 0.  1.
<mgrwt>
<rscale>  2 0.58380181E+03</rscale>
<asrwt>0</asrwt>
<pdfrwt beam="1">  1       21 0.35764416E+00 0.58380181E+03</pdfrwt>
<pdfrwt beam="2">  1       21 0.22866842E-01 0.58380181E+03</pdfrwt>
<totfact> 0.20229948E+02</totfact>
</mgrwt>
</event>
<event>
 4    1  0.4675559E-002  0.4092430E+03  0.7818608E-02  0.1040625E+00
         21   -1    0    0  501  502  0.00000000000E+00  0.00000000000E+00  0.58643597971E+03  0.58643597971E+03  0.00000000000E+00 0.  1.
         21   -1    0    0  502  503 -0.00000000000E+00 -0.00000000000E+00 -0.28849910952E+03  0.28849910952E+03  0.00000000000E+00 0.  1.
    9000007    1    1    2  501    0  0.16328689921E+02  0.84930396132E+02  0.19290350343E+03  0.45242851362E+03  0.40000000000E+03 0.  1.
   -9000007    1    1    2    0  503 -0.16328689921E+02 -0.84930396132E+02  0.10503336677E+03  0.42250657561E+03  0.40000000000E+03 0.  1.
<mgrwt>
<rscale>  2 0.40924296E+03</rscale>
<asrwt>0</asrwt>
<pdfrwt beam="1">  1       21 0.90220920E-01 0.40924296E+03</pdfrwt>
<pdfrwt beam="2">  1       21 0.44384478E-01 0.40924296E+03</pdfrwt>
<totfact> 0.45305997E+03</totfact>
</mgrwt>
</event>
<event>
 4    1  0.4675559E-002  0.4352976E+03  0.7818608E-02  0.1032199E+00
         21   -1    0    0  503  502  0.00000000000E+00  0.00000000000E+00  0.12826886711E+04  0.12826886711E+04  0.00000000000E+00 0.  1.
         21   -1    0    0  501  503 -0.00000000000E+00 -0.00000000000E+00 -0.15064863548E+03  0.15064863548E+03  0.00000000000E+00 0. -1.
    9000007    1    1    2  501    0 -0.54292483106E+02  0.16289975205E+03  0.66587409303E+03  0.79553272133E+03  0.40000000000E+03 0.  1.
   -9000007    1    1    2    0  502  0.54292483106E+02 -0.16289975205E+03  0.46616594259E+03  0.63780458525E+03  0.40000000000E+03 0. -1.
<mgrwt>
<rscale>  2 0.43529760E+03</rscale>
<asrwt>0</asrwt>
<pdfrwt beam="1">  1       21 0.19733671E+00 0.43529760E+03</pdfrwt>
<pdfrwt beam="2">  1       21 0.23176714E-01 0.43529760E+03</pdfrwt>
<totfact> 0.20820671E+03</totfact>
</mgrwt>
</event>
<event>
 4    1  0.4675559E-002  0.4033031E+03  0.7818608E-02  0.1042642E+00
         21   -1    0    0  501  502  0.00000000000E+00  0.00000000000E+00  0.11267739481E+03  0.11267739481E+03  0.00000000000E+00 0. -1.
         21   -1    0    0  502  503 -0.00000000000E+00 -0.00000000000E+00 -0.14438508058E+04  0.14438508058E+04  0.00000000000E+00 0. -1.
    9000007    1    1    2  501    0  0.44767857194E+02  0.25479649799E+02 -0.67715954631E+03  0.78816142049E+03  0.40000000000E+03 0.  1.
   -9000007    1    1    2    0  503 -0.44767857194E+02 -0.25479649799E+02 -0.65401386467E+03  0.76836678011E+03  0.40000000000E+03 0.  1.
<mgrwt>
<rscale>  2 0.40330308E+03</rscale>
<asrwt>0</asrwt>
<pdfrwt beam="1">  1       21 0.17334984E-01 0.40330308E+03</pdfrwt>
<pdfrwt beam="2">  1       21 0.22213089E+00 0.40330308E+03</pdfrwt>
<totfact> 0.25307451E+03</totfact>
</mgrwt>
</event>
<event>
 4    1  0.4675559E-002  0.8234553E+03  0.7818608E-02  0.9526674E-01
         21   -1    0    0  503  502  0.00000000000E+00  0.00000000000E+00  0.22565020340E+03  0.22565020340E+03  0.00000000000E+00 0.  1.
         21   -1    0    0  501  503 -0.00000000000E+00 -0.00000000000E+00 -0.30462520639E+04  0.30462520639E+04  0.00000000000E+00 0.  1.
    9000007    1    1    2  501    0  0.58234242254E+03  0.42303189503E+03 -0.16006779161E+04  0.18000690188E+04  0.40000000000E+03 0.  1.
   -9000007    1    1    2    0  502 -0.58234242254E+03 -0.42303189503E+03 -0.12199239444E+04  0.14718332485E+04  0.40000000000E+03 0.  1.
<mgrwt>
<rscale>  2 0.82345533E+03</rscale>
<asrwt>0</asrwt>
<pdfrwt beam="1">  1       21 0.34715419E-01 0.82345533E+03</pdfrwt>
<pdfrwt beam="2">  1       21 0.46865412E+00 0.82345533E+03</pdfrwt>
<totfact> 0.14715763E+01</totfact>
</mgrwt>
</event>
<event>
 4    1  0.4675559E-002  0.4333890E+03  0.7818608E-02  0.1032795E+00
         21   -1    0    0  501  502  0.00000000000E+00  0.00000000000E+00  0.14932693159E+03  0.14932693159E+03  0.00000000000E+00 0. -1.
         21   -1    0    0  502  503 -0.00000000000E+00 -0.00000000000E+00 -0.19661308970E+04  0.19661308970E+04  0.00000000000E+00 0. -1.
    9000007    1    1    2  501    0  0.62151584205E+02 -0.15480053393E+03 -0.27353769664E+03  0.51249282552E+03  0.40000000000E+03 0. -1.
   -9000007    1    1    2    0  503 -0.62151584205E+02  0.15480053393E+03 -0.15432662688E+04  0.16029650031E+04  0.40000000000E+03 0. -1.
<mgrwt>
<rscale>  2 0.43338900E+03</rscale>
<asrwt>0</asrwt>
<pdfrwt beam="1">  1       21 0.22973375E-01 0.43338900E+03</pdfrwt>
<pdfrwt beam="2">  1       21 0.30248166E+00 0.43338900E+03</pdfrwt>
<totfact> 0.47195947E+02</totfact>
</mgrwt>
</event>
<event>
 4    1  0.4675559E-002  0.4554734E+03  0.7818608E-02  0.1026102E+00
         21   -1    0    0  503  502  0.00000000000E+00  0.00000000000E+00  0.10341675966E+04  0.10341675966E+04  0.00000000000E+00 0.  1.
         21   -1    0    0  501  503 -0.00000000000E+00 -0.00000000000E+00 -0.56506935915E+03  0.56506935915E+03  0.00000000000E+00 0.  1.
    9000007    1    1    2  501    0  0.91496316828E+02  0.19769774952E+03 -0.40763761070E+03  0.61124822930E+03  0.40000000000E+03 0.  1.
   -9000007    1    1    2    0  502 -0.91496316828E+02 -0.19769774952E+03  0.87673584819E+03  0.98798872649E+03  0.40000000000E+03 0.  1.
<mgrwt>
<rscale>  2 0.45547335E+03</rscale>
<asrwt>0</asrwt>
<pdfrwt beam="1">  1       21 0.15910271E+00 0.45547335E+03</pdfrwt>
<pdfrwt beam="2">  1       21 0.86933748E-01 0.45547335E+03</pdfrwt>
<totfact> 0.23735731E+02</totfact>
</mgrwt>
</event>
<event>
 4    1  0.4675559E-002  0.4492200E+03  0.7818608E-02  0.1027955E+00
         21   -1    0    0  501  502  0.00000000000E+00  0.00000000000E+00  0.61785702336E+03  0.61785702336E+03  0.00000000000E+00 0. -1.
         21   -1    0    0  502  503 -0.00000000000E+00 -0.00000000000E+00 -0.43617462473E+03  0.43617462473E+03  0.00000000000E+00 0. -1.
    9000007    1    1    2  501    0 -0.20178778593E+03  0.32867481542E+02 -0.17329484797E+03  0.48148695333E+03  0.40000000000E+03 0. -1.
   -9000007    1    1    2    0  503  0.20178778593E+03 -0.32867481542E+02  0.35497724661E+03  0.57254469476E+03  0.40000000000E+03 0. -1.
<mgrwt>
<rscale>  2 0.44921997E+03</rscale>
<asrwt>0</asrwt>
<pdfrwt beam="1">  1       21 0.95054927E-01 0.44921997E+03</pdfrwt>
<pdfrwt beam="2">  1       21 0.67103788E-01 0.44921997E+03</pdfrwt>
<totfact> 0.16162295E+03</totfact>
</mgrwt>
</event>
<event>
 4    1  0.4675559E-002  0.5274050E+03  0.7818608E-02  0.1006863E+00
         21   -1    0    0  501  502  0.00000000000E+00  0.00000000000E+00  0.10925171232E+04  0.10925171232E+04  0.00000000000E+00 0. -1.
         21   -1    0    0  502  503 -0.00000000000E+00 -0.00000000000E+00 -0.27619368531E+03  0.27619368531E+03  0.00000000000E+00 0. -1.
    9000007    1    1    2  501    0  0.18864813109E+03 -0.28734634467E+03  0.59951122920E+03  0.79847965102E+03  0.40000000000E+03 0. -1.
   -9000007    1    1    2    0  503 -0.18864813109E+03  0.28734634467E+03  0.21681220875E+03  0.57023115753E+03  0.40000000000E+03 0. -1.
<mgrwt>
<rscale>  2 0.52740500E+03</rscale>
<asrwt>0</asrwt>
<pdfrwt beam="1">  1       21 0.16807956E+00 0.52740500E+03</pdfrwt>
<pdfrwt beam="2">  1       21 0.42491337E-01 0.52740500E+03</pdfrwt>
<totfact> 0.95637915E+02</totfact>
</mgrwt>
</event>
<event>
 4    1  0.4675559E-002  0.4392485E+03  0.7818608E-02  0.1030978E+00
         21   -1    0    0  503  502  0.00000000000E+00  0.00000000000E+00  0.59981519412E+03  0.59981519412E+03  0.00000000000E+00 0.  1.
         21   -1    0    0  501  503 -0.00000000000E+00 -0.00000000000E+00 -0.32179642781E+03  0.32179642781E+03  0.00000000000E+00 0.  1.
    9000007    1    1    2  501    0  0.13014450522E+03  0.12649754119E+03  0.14834170543E+03  0.46362105403E+03  0.40000000000E+03 0.  1.
   -9000007    1    1    2    0  502 -0.13014450522E+03 -0.12649754119E+03  0.12967706089E+03  0.45799056790E+03  0.40000000000E+03 0.  1.
<mgrwt>
<rscale>  2 0.43924847E+03</rscale>
<asrwt>0</asrwt>
<pdfrwt beam="1">  1       21 0.92279260E-01 0.43924847E+03</pdfrwt>
<pdfrwt beam="2">  1       21 0.49507143E-01 0.43924847E+03</pdfrwt>
<totfact> 0.33756613E+03</totfact>
</mgrwt>
</event>
<event>
 4    1  0.4675559E-002  0.4457536E+03  0.7818608E-02  0.1028996E+00
         21   -1    0    0  501  502  0.00000000000E+00  0.00000000000E+00  0.41514801115E+03  0.41514801115E+03  0.00000000000E+00 0.  1.
         21   -1    0    0  502  503 -0.00000000000E+00 -0.00000000000E+00 -0.57291443580E+03  0.57291443580E+03  0.00000000000E+00 0. -1.
    9000007    1    1    2  501    0  0.16326100752E+03  0.10973649414E+03  0.12154691941E+03  0.46202803848E+03  0.40000000000E+03 0.  1.
   -9000007    1    1    2    0  503 -0.16326100752E+03 -0.10973649414E+03 -0.27931334406E+03  0.52603440847E+03  0.40000000000E+03 0. -1.
<mgrwt>
<rscale>  2 0.44575358E+03</rscale>
<asrwt>0</asrwt>
<pdfrwt beam="1">  1       21 0.63868924E-01 0.44575358E+03</pdfrwt>
<pdfrwt beam="2">  1       21 0.88140683E-01 0.44575358E+03</pdfrwt>
<totfact> 0.21616031E+03</totfact>
</mgrwt>
</event>
<event>
 4    1  0.4675559E-002  0.5151731E+03  0.7818608E-02  0.1009893E+00
         21   -1    0    0  501  502  0.00000000000E+00  0.00000000000E+00  0.84148230313E+03  0.84148230313E+03  0.00000000000E+00 0.  1.
         21   -1    0    0  502  503 -0.00000000000E+00 -0.00000000000E+00 -0.38458688773E+03  0.38458688773E+03  0.00000000000E+00 0.  1.
    9000007    1    1    2  501    0 -0.32369385431E+03 -0.25011201555E+02 -0.31568587197E+02  0.51613936802E+03  0.40000000000E+03 0.  1.
   -9000007    1    1    2    0  503  0.32369385431E+03  0.25011201555E+02  0.48846400260E+03  0.70992982284E+03  0.40000000000E+03 0.  1.
<mgrwt>
<rscale>  2 0.51517305E+03</rscale>
<asrwt>0</asrwt>
<pdfrwt beam="1">  1       21 0.12945882E+00 0.51517305E+03</pdfrwt>
<pdfrwt beam="2">  1       21 0.59167214E-01 0.51517305E+03</pdfrwt>
<totfact> 0.96344832E+02</totfact>
</mgrwt>
</event>
<event>
 4    1  0.4675559E-002  0.4656773E+03  0.7818608E-02  0.1023147E+00
         21   -1    0    0  503  502  0.00000000000E+00  0.00000000000E+00  0.13230307069E+04  0.13230307069E+04  0.00000000000E+00 0. -1.
         21   -1    0    0  501  503 -0.00000000000E+00 -0.00000000000E+00 -0.33983367120E+03  0.33983367120E+03  0.00000000000E+00 0.  1.
    9000007    1    1    2  501    0  0.12062855231E+02  0.23813823267E+03 -0.10661776055E+03  0.47772657158E+03  0.40000000000E+03 0.  1.
   -9000007    1    1    2    0  502 -0.12062855231E+02 -0.23813823267E+03  0.10898147963E+04  0.11851378066E+04  0.40000000000E+03 0. -1.
<mgrwt>
<rscale>  2 0.46567728E+03</rscale>
<asrwt>0</asrwt>
<pdfrwt beam="1">  1       21 0.20354318E+00 0.46567728E+03</pdfrwt>
<pdfrwt beam="2">  1       21 0.52282104E-01 0.46567728E+03</pdfrwt>
<totfact> 0.35867862E+02</totfact>
</mgrwt>
</event>
<event>
 4    1  0.4675559E-002  0.4428564E+03  0.7818608E-02  0.1029874E+00
         21   -1    0    0  501  502  0.00000000000E+00  0.00000000000E+00  0.12053239291E+04  0.12053239291E+04  0.00000000000E+00 0. -1.
         21   -1    0    0  502  503 -0.00000000000E+00 -0.00000000000E+00 -0.23089140147E+03  0.23089140147E+03  0.00000000000E+00 0. -1.
    9000007    1    1    2  501    0  0.18995999032E+03 -0.60803550670E+01  0.87743611971E+03  0.98286108521E+03  0.40000000000E+03 0. -1.
   -9000007    1    1    2    0  503 -0.18995999032E+03  0.60803550670E+01  0.96996407930E+02  0.45335424537E+03  0.40000000000E+03 0. -1.
<mgrwt>
<rscale>  2 0.44285637E+03</rscale>
<asrwt>0</asrwt>
<pdfrwt beam="1">  1       21 0.18543445E+00 0.44285637E+03</pdfrwt>
<pdfrwt beam="2">  1       21 0.35521755E-01 0.44285637E+03</pdfrwt>
<totfact> 0.10755526E+03</totfact>
</mgrwt>
</event>
<event>
 4    1  0.4675559E-002  0.4626967E+03  0.7818608E-02  0.1024002E+00
         21   -1    0    0  501  502  0.00000000000E+00  0.00000000000E+00  0.20071200169E+04  0.20071200169E+04  0.00000000000E+00 0. -1.
         21   -1    0    0  502  503 -0.00000000000E+00 -0.00000000000E+00 -0.18229878955E+03  0.18229878955E+03  0.00000000000E+00 0. -1.
    9000007    1    1    2  501    0 -0.17617235878E+03 -0.15182720457E+03  0.16175365410E+04  0.16824127501E+04  0.40000000000E+03 0. -1.
   -9000007    1    1    2    0  503  0.17617235878E+03  0.15182720457E+03  0.20728468635E+03  0.50700605641E+03  0.40000000000E+03 0. -1.
<mgrwt>
<rscale>  2 0.46269666E+03</rscale>
<asrwt>0</asrwt>
<pdfrwt beam="1">  1       21 0.30878768E+00 0.46269666E+03</pdfrwt>
<pdfrwt beam="2">  1       21 0.28045969E-01 0.46269666E+03</pdfrwt>
<totfact> 0.28810961E+02</totfact>
</mgrwt>
</event>
<event>
 4    1  0.4675559E-002  0.4061281E+03  0.7818608E-02  0.1041678E+00
         21   -1    0    0  501  502  0.00000000000E+00  0.00000000000E+00  0.11374732514E+03  0.11374732514E+03  0.00000000000E+00 0. -1.
         21   -1    0    0  502  503 -0.00000000000E+00 -0.00000000000E+00 -0.14530509985E+04  0.14530509985E+04  0.00000000000E+00 0. -1.
    9000007    1    1    2  501    0 -0.65914891644E+02  0.24398786185E+02 -0.63408965127E+03  0.75300050435E+03  0.40000000000E+03 0. -1.
   -9000007    1    1    2    0  503  0.65914891644E+02 -0.24398786185E+02 -0.70521402207E+03  0.81379781926E+03  0.40000000000E+03 0. -1.
<mgrwt>
<rscale>  2 0.40612815E+03</rscale>
<asrwt>0</asrwt>
<pdfrwt beam="1">  1       21 0.17499589E-01 0.40612815E+03</pdfrwt>
<pdfrwt beam="2">  1       21 0.22354630E+00 0.40612815E+03</pdfrwt>
<totfact> 0.24321097E+03</totfact>
</mgrwt>
</event>
<event>
 4    1  0.4675559E-002  0.4161845E+03  0.7818608E-02  0.1038315E+00
         21   -1    0    0  501  502  0.00000000000E+00  0.00000000000E+00  0.46451334199E+03  0.46451334199E+03  0.00000000000E+00 0. -1.
         21   -1    0    0  502  503 -0.00000000000E+00 -0.00000000000E+00 -0.44998078080E+03  0.44998078080E+03  0.00000000000E+00 0. -1.
    9000007    1    1    2  501    0  0.63347200685E+02  0.95899289991E+02  0.19653218055E+03  0.46025475516E+03  0.40000000000E+03 0. -1.
   -9000007    1    1    2    0  503 -0.63347200685E+02 -0.95899289991E+02 -0.18199961936E+03  0.45423936763E+03  0.40000000000E+03 0. -1.
<mgrwt>
<rscale>  2 0.41618450E+03</rscale>
<asrwt>0</asrwt>
<pdfrwt beam="1">  1       21 0.71463592E-01 0.41618450E+03</pdfrwt>
<pdfrwt beam="2">  1       21 0.69227812E-01 0.41618450E+03</pdfrwt>
<totfact> 0.29621947E+03</totfact>
</mgrwt>
</event>
<event>
 4    1  0.4675559E-002  0.4220751E+03  0.7818608E-02  0.1036393E+00
         21   -1    0    0  503  502  0.00000000000E+00  0.00000000000E+00  0.86477337342E+03  0.86477337342E+03  0.00000000000E+00 0. -1.
         21   -1    0    0  501  503 -0.00000000000E+00 -0.00000000000E+00 -0.23210674313E+03  0.23210674313E+03  0.00000000000E+00 0. -1.
    9000007    1    1    2  501    0 -0.11529559877E+03  0.69673143104E+02  0.13241620639E+03  0.44235898734E+03  0.40000000000E+03 0. -1.
   -9000007    1    1    2    0  502  0.11529559877E+03 -0.69673143104E+02  0.50025042390E+03  0.65452112921E+03  0.40000000000E+03 0. -1.
<mgrwt>
<rscale>  2 0.42207514E+03</rscale>
<asrwt>0</asrwt>
<pdfrwt beam="1">  1       21 0.13304206E+00 0.42207514E+03</pdfrwt>
<pdfrwt beam="2">  1       21 0.35708730E-01 0.42207514E+03</pdfrwt>
<totfact> 0.26914188E+03</totfact>
</mgrwt>
</event>
<event>
 4    1  0.4675559E-002  0.4077195E+03  0.7818608E-02  0.1041139E+00
         21   -1    0    0  501  502  0.00000000000E+00  0.00000000000E+00  0.20663684793E+03  0.20663684793E+03  0.00000000000E+00 0.  1.
         21   -1    0    0  502  503 -0.00000000000E+00 -0.00000000000E+00 -0.15756837877E+04  0.15756837877E+04  0.00000000000E+00 0.  1.
    9000007    1    1    2  501    0 -0.54937402437E+02  0.56719369296E+02 -0.61067350413E+02  0.41226742089E+03  0.40000000000E+03 0.  1.
   -9000007    1    1    2    0  503  0.54937402437E+02 -0.56719369296E+02 -0.13079795894E+04  0.13700532147E+04  0.40000000000E+03 0.  1.
<mgrwt>
<rscale>  2 0.40771952E+03</rscale>
<asrwt>0</asrwt>
<pdfrwt beam="1">  1       21 0.31790284E-01 0.40771952E+03</pdfrwt>
<pdfrwt beam="2">  1       21 0.24241290E+00 0.40771952E+03</pdfrwt>
<totfact> 0.58466246E+02</totfact>
</mgrwt>
</event>
<event>
 4    1  0.4675559E-002  0.4853214E+03  0.7818608E-02  0.1017683E+00
         21   -1    0    0  503  502  0.00000000000E+00  0.00000000000E+00  0.30927817769E+03  0.30927817769E+03  0.00000000000E+00 0. -1.
         21   -1    0    0  501  503 -0.00000000000E+00 -0.00000000000E+00 -0.11191952695E+04  0.11191952695E+04  0.00000000000E+00 0.  1.
    9000007    1    1    2  501    0 -0.19810572037E+03  0.19050202149E+03 -0.80870015505E+03  0.94315048503E+03  0.40000000000E+03 0.  1.
   -9000007    1    1    2    0  502  0.19810572037E+03 -0.19050202149E+03 -0.12169367308E+01  0.48532296213E+03  0.40000000000E+03 0. -1.
<mgrwt>
<rscale>  2 0.48532144E+03</rscale>
<asrwt>0</asrwt>
<pdfrwt beam="1">  1       21 0.47581258E-01 0.48532144E+03</pdfrwt>
<pdfrwt beam="2">  1       21 0.17218389E+00 0.48532144E+03</pdfrwt>
<totfact> 0.71560335E+02</totfact>
</mgrwt>
</event>
<event>
 4    1  0.4675559E-002  0.4065656E+03  0.7818608E-02  0.1041530E+00
         21   -1    0    0  501  502  0.00000000000E+00  0.00000000000E+00  0.64575824214E+03  0.64575824214E+03  0.00000000000E+00 0. -1.
         21   -1    0    0  502  503 -0.00000000000E+00 -0.00000000000E+00 -0.35593333408E+03  0.35593333408E+03  0.00000000000E+00 0. -1.
    9000007    1    1    2  501    0 -0.37914772886E+02  0.62113166596E+02  0.41033465195E+03  0.57764184583E+03  0.40000000000E+03 0. -1.
   -9000007    1    1    2    0  503  0.37914772886E+02 -0.62113166596E+02 -0.12050974389E+03  0.42404973039E+03  0.40000000000E+03 0. -1.
<mgrwt>
<rscale>  2 0.40656559E+03</rscale>
<asrwt>0</asrwt>
<pdfrwt beam="1">  1       21 0.99347422E-01 0.40656559E+03</pdfrwt>
<pdfrwt beam="2">  1       21 0.54758974E-01 0.40656559E+03</pdfrwt>
<totfact> 0.23086819E+03</totfact>
</mgrwt>
</event>
<event>
 4    1  0.4675559E-002  0.8546670E+03  0.7818608E-02  0.9484094E-01
         21   -1    0    0  501  502  0.00000000000E+00  0.00000000000E+00  0.43004926076E+03  0.43004926076E+03  0.00000000000E+00 0. -1.
         21   -1    0    0  502  503 -0.00000000000E+00 -0.00000000000E+00 -0.18822331654E+04  0.18822331654E+04  0.00000000000E+00 0. -1.
    9000007    1    1    2  501    0 -0.18109592935E+03  0.73325298146E+03 -0.36491400674E+03  0.92931044477E+03  0.40000000000E+03 0. -1.
   -9000007    1    1    2    0  503  0.18109592935E+03 -0.73325298146E+03 -0.10872698979E+04  0.13829719814E+04  0.40000000000E+03 0. -1.
<mgrwt>
<rscale>  2 0.85466699E+03</rscale>
<asrwt>0</asrwt>
<pdfrwt beam="1">  1       21 0.66161424E-01 0.85466699E+03</pdfrwt>
<pdfrwt beam="2">  1       21 0.28957434E+00 0.85466699E+03</pdfrwt>
<totfact> 0.52477723E+01</totfact>
</mgrwt>
</event>
<event>
 4    1  0.4675559E-002  0.4239327E+03  0.7818608E-02  0.1035794E+00
         21   -1    0    0  503  502  0.00000000000E+00  0.00000000000E+00  0.26955696677E+03  0.26955696677E+03  0.00000000000E+00 0.  1.
         21   -1    0    0  501  503 -0.00000000000E+00 -0.00000000000E+00 -0.71876474980E+03  0.71876474980E+03  0.00000000000E+00 0.  1.
    9000007    1    1    2  501    0 -0.11759246703E+03  0.76752283112E+02 -0.35757744409E+03  0.55459943183E+03  0.40000000000E+03 0.  1.
   -9000007    1    1    2    0  502  0.11759246703E+03 -0.76752283112E+02 -0.91630338931E+02  0.43372228474E+03  0.40000000000E+03 0.  1.
<mgrwt>
<rscale>  2 0.42393266E+03</rscale>
<asrwt>0</asrwt>
<pdfrwt beam="1">  1       21 0.41470302E-01 0.42393266E+03</pdfrwt>
<pdfrwt beam="2">  1       21 0.11057919E+00 0.42393266E+03</pdfrwt>
<totfact> 0.31685470E+03</totfact>
</mgrwt>
</event>
<event>
 4    1  0.4675559E-002  0.4137889E+03  0.7818608E-02  0.1039107E+00
         21   -1    0    0  503  502  0.00000000000E+00  0.00000000000E+00  0.10298054665E+03  0.10298054665E+03  0.00000000000E+00 0. -1.
         21   -1    0    0  501  503 -0.00000000000E+00 -0.00000000000E+00 -0.19567212211E+04  0.19567212211E+04  0.00000000000E+00 0. -1.
    9000007    1    1    2  501    0  0.84123939488E+02 -0.64377213645E+02 -0.13261079228E+04  0.13891664716E+04  0.40000000000E+03 0. -1.
   -9000007    1    1    2    0  502 -0.84123939488E+02  0.64377213645E+02 -0.52763275170E+03  0.67053529624E+03  0.40000000000E+03 0. -1.
<mgrwt>
<rscale>  2 0.41378891E+03</rscale>
<asrwt>0</asrwt>
<pdfrwt beam="1">  1       21 0.15843163E-01 0.41378891E+03</pdfrwt>
<pdfrwt beam="2">  1       21 0.30103399E+00 0.41378891E+03</pdfrwt>
<totfact> 0.98409707E+02</totfact>
</mgrwt>
</event>
<event>
 4    1  0.4675559E-002  0.5545707E+03  0.7818608E-02  0.1000441E+00
         21   -1    0    0  503  502  0.00000000000E+00  0.00000000000E+00  0.47842142738E+03  0.47842142738E+03  0.00000000000E+00 0.  1.
         21   -1    0    0  501  503 -0.00000000000E+00 -0.00000000000E+00 -0.64321611838E+03  0.64321611838E+03  0.00000000000E+00 0. -1.
    9000007    1    1    2  501    0 -0.18294161375E+03 -0.33775880270E+03 -0.68843896753E+02  0.55882745545E+03  0.40000000000E+03 0.  1.
   -9000007    1    1    2    0  502  0.18294161375E+03  0.33775880270E+03 -0.95950794254E+02  0.56281009031E+03  0.40000000000E+03 0.  1.
<mgrwt>
<rscale>  2 0.55457068E+03</rscale>
<asrwt>0</asrwt>
<pdfrwt beam="1">  1       21 0.73603297E-01 0.55457068E+03</pdfrwt>
<pdfrwt beam="2">  1       21 0.98956326E-01 0.55457068E+03</pdfrwt>
<totfact> 0.11466600E+03</totfact>
</mgrwt>
</event>
<event>
 4    1  0.4675559E-002  0.5020488E+03  0.7818608E-02  0.1013246E+00
         21   -1    0    0  501  502  0.00000000000E+00  0.00000000000E+00  0.50389314674E+03  0.50389314674E+03  0.00000000000E+00 0. -1.
         21   -1    0    0  502  503 -0.00000000000E+00 -0.00000000000E+00 -0.51046603482E+03  0.51046603482E+03  0.00000000000E+00 0. -1.
    9000007    1    1    2  501    0 -0.13853644054E+03  0.26992704350E+03  0.68599572654E+02  0.50671378069E+03  0.40000000000E+03 0. -1.
   -9000007    1    1    2    0  503  0.13853644054E+03 -0.26992704350E+03 -0.75172460728E+02  0.50764540087E+03  0.40000000000E+03 0. -1.
<mgrwt>
<rscale>  2 0.50204876E+03</rscale>
<asrwt>0</asrwt>
<pdfrwt beam="1">  1       21 0.77522023E-01 0.50204876E+03</pdfrwt>
<pdfrwt beam="2">  1       21 0.78533236E-01 0.50204876E+03</pdfrwt>
<totfact> 0.17907028E+03</totfact>
</mgrwt>
</event>
<event>
 4    1  0.4675559E-002  0.4798291E+03  0.7818608E-02  0.1019182E+00
         21   -1    0    0  503  502  0.00000000000E+00  0.00000000000E+00  0.10051741835E+04  0.10051741835E+04  0.00000000000E+00 0.  1.
         21   -1    0    0  501  503 -0.00000000000E+00 -0.00000000000E+00 -0.23380487572E+03  0.23380487572E+03  0.00000000000E+00 0.  1.
    9000007    1    1    2  501    0  0.31091673127E+02  0.26319051258E+03  0.29734802552E+03  0.56449250335E+03  0.40000000000E+03 0.  1.
   -9000007    1    1    2    0  502 -0.31091673127E+02 -0.26319051258E+03  0.47402128230E+03  0.67448655592E+03  0.40000000000E+03 0.  1.
<mgrwt>
<rscale>  2 0.47982907E+03</rscale>
<asrwt>0</asrwt>
<pdfrwt beam="1">  1       21 0.15464218E+00 0.47982907E+03</pdfrwt>
<pdfrwt beam="2">  1       21 0.35969981E-01 0.47982907E+03</pdfrwt>
<totfact> 0.17330337E+03</totfact>
</mgrwt>
</event>
<event>
 4    1  0.4675559E-002  0.4456513E+03  0.7818608E-02  0.1029027E+00
         21   -1    0    0  503  502  0.00000000000E+00  0.00000000000E+00  0.36858009009E+03  0.36858009009E+03  0.00000000000E+00 0.  1.
         21   -1    0    0  501  503 -0.00000000000E+00 -0.00000000000E+00 -0.59669991333E+03  0.59669991333E+03  0.00000000000E+00 0.  1.
    9000007    1    1    2  501    0  0.17186223675E+03  0.95228524152E+02 -0.26435343969E+03  0.51815812385E+03  0.40000000000E+03 0.  1.
   -9000007    1    1    2    0  502 -0.17186223675E+03 -0.95228524152E+02  0.36233616446E+02  0.44712187958E+03  0.40000000000E+03 0.  1.
<mgrwt>
<rscale>  2 0.44565132E+03</rscale>
<asrwt>0</asrwt>
<pdfrwt beam="1">  1       21 0.56704630E-01 0.44565132E+03</pdfrwt>
<pdfrwt beam="2">  1       21 0.91799986E-01 0.44565132E+03</pdfrwt>
<totfact> 0.25483083E+03</totfact>
</mgrwt>
</event>
<event>
 4    1  0.4675559E-002  0.4501078E+03  0.7818608E-02  0.1027690E+00
         21   -1    0    0  503  502  0.00000000000E+00  0.00000000000E+00  0.46542417570E+03  0.46542417570E+03  0.00000000000E+00 0.  1.
         21   -1    0    0  501  503 -0.00000000000E+00 -0.00000000000E+00 -0.44367317604E+03  0.44367317604E+03  0.00000000000E+00 0.  1.
    9000007    1    1    2  501    0  0.32587786413E+02 -0.20380159396E+03  0.73336704371E+02  0.45604311828E+03  0.40000000000E+03 0.  1.
   -9000007    1    1    2    0  502 -0.32587786413E+02  0.20380159396E+03 -0.51585704708E+02  0.45305423346E+03  0.40000000000E+03 0.  1.
<mgrwt>
<rscale>  2 0.45010782E+03</rscale>
<asrwt>0</asrwt>
<pdfrwt beam="1">  1       21 0.71603719E-01 0.45010782E+03</pdfrwt>
<pdfrwt beam="2">  1       21 0.68257412E-01 0.45010782E+03</pdfrwt>
<totfact> 0.30062903E+03</totfact>
</mgrwt>
</event>
<event>
 4    1  0.4675559E-002  0.4114494E+03  0.7818608E-02  0.1039886E+00
         21   -1    0    0  503  502  0.00000000000E+00  0.00000000000E+00  0.15210726809E+03  0.15210726809E+03  0.00000000000E+00 0.  1.
         21   -1    0    0  501  503 -0.00000000000E+00 -0.00000000000E+00 -0.11393704360E+04  0.11393704360E+04  0.00000000000E+00 0.  1.
    9000007    1    1    2  501    0  0.84552240920E+02 -0.46277023450E+02 -0.39533468301E+03  0.57059631609E+03  0.40000000000E+03 0.  1.
   -9000007    1    1    2    0  502 -0.84552240920E+02  0.46277023450E+02 -0.59192848491E+03  0.72088138802E+03  0.40000000000E+03 0.  1.
<mgrwt>
<rscale>  2 0.41144944E+03</rscale>
<asrwt>0</asrwt>
<pdfrwt beam="1">  1       21 0.23401118E-01 0.41144944E+03</pdfrwt>
<pdfrwt beam="2">  1       21 0.17528776E+00 0.41144944E+03</pdfrwt>
<totfact> 0.29319425E+03</totfact>
</mgrwt>
</event>
<event>
 4    1  0.4675559E-002  0.4265749E+03  0.7818608E-02  0.1034947E+00
         21   -1    0    0  503  502  0.00000000000E+00  0.00000000000E+00  0.42715803589E+03  0.42715803589E+03  0.00000000000E+00 0.  1.
         21   -1    0    0  501  503 -0.00000000000E+00 -0.00000000000E+00 -0.65525562491E+03  0.65525562491E+03  0.00000000000E+00 0.  1.
    9000007    1    1    2  501    0  0.73217225410E+02 -0.12886198814E+03 -0.43417768778E+03  0.60866775720E+03  0.40000000000E+03 0.  1.
   -9000007    1    1    2    0  502 -0.73217225410E+02  0.12886198814E+03  0.20608009876E+03  0.47374590361E+03  0.40000000000E+03 0.  1.
<mgrwt>
<rscale>  2 0.42657493E+03</rscale>
<asrwt>0</asrwt>
<pdfrwt beam="1">  1       21 0.65716621E-01 0.42657493E+03</pdfrwt>
<pdfrwt beam="2">  1       21 0.10080856E+00 0.42657493E+03</pdfrwt>
<totfact> 0.14827715E+03</totfact>
</mgrwt>
</event>
<event>
 4    1  0.4675559E-002  0.4324071E+03  0.7818608E-02  0.1033102E+00
         21   -1    0    0  501  502  0.00000000000E+00  0.00000000000E+00  0.67296441516E+03  0.67296441516E+03  0.00000000000E+00 0. -1.
         21   -1    0    0  502  503 -0.00000000000E+00 -0.00000000000E+00 -0.33078987545E+03  0.33078987545E+03  0.00000000000E+00 0. -1.
    9000007    1    1    2  501    0  0.15027052242E+03  0.66292106582E+02  0.37188425953E+03  0.57032777925E+03  0.40000000000E+03 0. -1.
   -9000007    1    1    2    0  503 -0.15027052242E+03 -0.66292106582E+02 -0.29709719817E+02  0.43342651137E+03  0.40000000000E+03 0. -1.
<mgrwt>
<rscale>  2 0.43240707E+03</rscale>
<asrwt>0</asrwt>
<pdfrwt beam="1">  1       21 0.10353299E+00 0.43240707E+03</pdfrwt>
<pdfrwt beam="2">  1       21 0.50890750E-01 0.43240707E+03</pdfrwt>
<totfact> 0.24174900E+03</totfact>
</mgrwt>
</event>
<event>
 4    1  0.4675559E-002  0.4280637E+03  0.7818608E-02  0.1034473E+00
         21   -1    0    0  501  502  0.00000000000E+00  0.00000000000E+00  0.18322520502E+03  0.18322520502E+03  0.00000000000E+00 0. -1.
         21   -1    0    0  502  503 -0.00000000000E+00 -0.00000000000E+00 -0.10141434720E+04  0.10141434720E+04  0.00000000000E+00 0. -1.
    9000007    1    1    2  501    0 -0.12643803953E+03  0.85158593419E+02 -0.34494049346E+03  0.54974767658E+03  0.40000000000E+03 0.  1.
   -9000007    1    1    2    0  503  0.12643803953E+03 -0.85158593419E+02 -0.48597777356E+03  0.64762100048E+03  0.40000000000E+03 0.  1.
<mgrwt>
<rscale>  2 0.42806374E+03</rscale>
<asrwt>0</asrwt>
<pdfrwt beam="1">  1       21 0.28188493E-01 0.42806374E+03</pdfrwt>
<pdfrwt beam="2">  1       21 0.15602207E+00 0.42806374E+03</pdfrwt>
<totfact> 0.28111388E+03</totfact>
</mgrwt>
</event>
<event>
 4    1  0.4675559E-002  0.4982764E+03  0.7818608E-02  0.1014230E+00
         21   -1    0    0  503  502  0.00000000000E+00  0.00000000000E+00  0.74778088666E+03  0.74778088666E+03  0.00000000000E+00 0.  1.
         21   -1    0    0  501  503 -0.00000000000E+00 -0.00000000000E+00 -0.47933532997E+03  0.47933532997E+03  0.00000000000E+00 0. -1.
    9000007    1    1    2  501    0 -0.95223013498E+02  0.28144610238E+03 -0.20591724847E+03  0.53914862891E+03  0.40000000000E+03 0. -1.
   -9000007    1    1    2    0  502  0.95223013498E+02 -0.28144610238E+03  0.47436280515E+03  0.68796758772E+03  0.40000000000E+03 0.  1.
<mgrwt>
<rscale>  2 0.49827636E+03</rscale>
<asrwt>0</asrwt>
<pdfrwt beam="1">  1       21 0.11504321E+00 0.49827636E+03</pdfrwt>
<pdfrwt beam="2">  1       21 0.73743897E-01 0.49827636E+03</pdfrwt>
<totfact> 0.80176816E+02</totfact>
</mgrwt>
</event>
<event>
 4    1  0.4675559E-002  0.4062650E+03  0.7818608E-02  0.1041632E+00
         21   -1    0    0  501  502  0.00000000000E+00  0.00000000000E+00  0.62287956571E+03  0.62287956571E+03  0.00000000000E+00 0. -1.
         21   -1    0    0  502  503 -0.00000000000E+00 -0.00000000000E+00 -0.41096097107E+03  0.41096097107E+03  0.00000000000E+00 0. -1.
    9000007    1    1    2  501    0 -0.70608935943E+02  0.81014495737E+01  0.41404383063E+03  0.58007202053E+03  0.40000000000E+03 0. -1.
   -9000007    1    1    2    0  503  0.70608935943E+02 -0.81014495737E+01 -0.20212523599E+03  0.45376851626E+03  0.40000000000E+03 0. -1.
<mgrwt>
<rscale>  2 0.40626501E+03</rscale>
<asrwt>0</asrwt>
<pdfrwt beam="1">  1       21 0.95827625E-01 0.40626501E+03</pdfrwt>
<pdfrwt beam="2">  1       21 0.63224765E-01 0.40626501E+03</pdfrwt>
<totfact> 0.18409408E+03</totfact>
</mgrwt>
</event>
<event>
 4    1  0.4675559E-002  0.4254030E+03  0.7818608E-02  0.1035322E+00
         21   -1    0    0  503  502  0.00000000000E+00  0.00000000000E+00  0.15124856628E+04  0.15124856628E+04  0.00000000000E+00 0. -1.
         21   -1    0    0  501  503 -0.00000000000E+00 -0.00000000000E+00 -0.12795066664E+03  0.12795066664E+03  0.00000000000E+00 0. -1.
    9000007    1    1    2  501    0 -0.12401984487E+03  0.74745041067E+02  0.48334521294E+03  0.64388689842E+03  0.40000000000E+03 0. -1.
   -9000007    1    1    2    0  502  0.12401984487E+03 -0.74745041067E+02  0.90118978317E+03  0.99654943098E+03  0.40000000000E+03 0. -1.
<mgrwt>
<rscale>  2 0.42540304E+03</rscale>
<asrwt>0</asrwt>
<pdfrwt beam="1">  1       21 0.23269009E+00 0.42540304E+03</pdfrwt>
<pdfrwt beam="2">  1       21 0.19684719E-01 0.42540304E+03</pdfrwt>
<totfact> 0.16905733E+03</totfact>
</mgrwt>
</event>
<event>
 4    1  0.4675559E-002  0.4159337E+03  0.7818608E-02  0.1038398E+00
         21   -1    0    0  501  502  0.00000000000E+00  0.00000000000E+00  0.14500393821E+04  0.14500393821E+04  0.00000000000E+00 0. -1.
         21   -1    0    0  502  503 -0.00000000000E+00 -0.00000000000E+00 -0.23473800940E+03  0.23473800940E+03  0.00000000000E+00 0. -1.
    9000007    1    1    2  501    0 -0.13797778157E+01 -0.11401272749E+03  0.11983695322E+04  0.12684992477E+04  0.40000000000E+03 0. -1.
   -9000007    1    1    2    0  503  0.13797778157E+01  0.11401272749E+03  0.16931840584E+02  0.41627814384E+03  0.40000000000E+03 0. -1.
<mgrwt>
<rscale>  2 0.41593366E+03</rscale>
<asrwt>0</asrwt>
<pdfrwt beam="1">  1       21 0.22308298E+00 0.41593366E+03</pdfrwt>
<pdfrwt beam="2">  1       21 0.36113541E-01 0.41593366E+03</pdfrwt>
<totfact> 0.59459494E+02</totfact>
</mgrwt>
</event>
<event>
 4    1  0.4675559E-002  0.4385684E+03  0.7818608E-02  0.1031187E+00
         21   -1    0    0  503  502  0.00000000000E+00  0.00000000000E+00  0.11910190667E+03  0.11910190667E+03  0.00000000000E+00 0.  1.
         21   -1    0    0  501  503 -0.00000000000E+00 -0.00000000000E+00 -0.16276743568E+04  0.16276743568E+04  0.00000000000E+00 0. -1.
    9000007    1    1    2  501    0 -0.11328186131E+02  0.17948235013E+03 -0.83154350750E+03  0.94011001838E+03  0.40000000000E+03 0. -1.
   -9000007    1    1    2    0  502  0.11328186131E+02 -0.17948235013E+03 -0.67702894263E+03  0.80666624509E+03  0.40000000000E+03 0.  1.
<mgrwt>
<rscale>  2 0.43856840E+03</rscale>
<asrwt>0</asrwt>
<pdfrwt beam="1">  1       21 0.18323371E-01 0.43856840E+03</pdfrwt>
<pdfrwt beam="2">  1       21 0.25041143E+00 0.43856840E+03</pdfrwt>
<totfact> 0.14945147E+03</totfact>
</mgrwt>
</event>
<event>
 4    1  0.4675559E-002  0.4397039E+03  0.7818608E-02  0.1030838E+00
         21   -1    0    0  501  502  0.00000000000E+00  0.00000000000E+00  0.12082494566E+04  0.12082494566E+04  0.00000000000E+00 0.  1.
         21   -1    0    0  502  503 -0.00000000000E+00 -0.00000000000E+00 -0.16036611376E+03  0.16036611376E+03  0.00000000000E+00 0.  1.
    9000007    1    1    2  501    0  0.42015805798E+02 -0.17769122869E+03  0.55590621501E+03  0.70878150411E+03  0.40000000000E+03 0.  1.
   -9000007    1    1    2    0  503 -0.42015805798E+02  0.17769122869E+03  0.49197712785E+03  0.65983406628E+03  0.40000000000E+03 0.  1.
<mgrwt>
<rscale>  2 0.43970388E+03</rscale>
<asrwt>0</asrwt>
<pdfrwt beam="1">  1       21 0.18588453E+00 0.43970388E+03</pdfrwt>
<pdfrwt beam="2">  1       21 0.24671711E-01 0.43970388E+03</pdfrwt>
<totfact> 0.22032957E+03</totfact>
</mgrwt>
</event>
<event>
 4    1  0.4675559E-002  0.4510586E+03  0.7818608E-02  0.1027407E+00
         21   -1    0    0  501  502  0.00000000000E+00  0.00000000000E+00  0.10015474225E+03  0.10015474225E+03  0.00000000000E+00 0.  1.
         21   -1    0    0  502  503 -0.00000000000E+00 -0.00000000000E+00 -0.20319665110E+04  0.20319665110E+04  0.00000000000E+00 0. -1.
    9000007    1    1    2  501    0  0.32618451692E+02  0.20588797488E+03 -0.98378787115E+03  0.10822626285E+04  0.40000000000E+03 0. -1.
   -9000007    1    1    2    0  503 -0.32618451692E+02 -0.20588797488E+03 -0.94802389762E+03  0.10498586248E+04  0.40000000000E+03 0. -1.
<mgrwt>
<rscale>  2 0.45105856E+03</rscale>
<asrwt>0</asrwt>
<pdfrwt beam="1">  1       21 0.15408424E-01 0.45105856E+03</pdfrwt>
<pdfrwt beam="2">  1       21 0.31261020E+00 0.45105856E+03</pdfrwt>
<totfact> 0.86460833E+02</totfact>
</mgrwt>
</event>
<event>
 4    1  0.4675559E-002  0.6351618E+03  0.7818608E-02  0.9835027E-01
         21   -1    0    0  501  502  0.00000000000E+00  0.00000000000E+00  0.31039177290E+04  0.31039177290E+04  0.00000000000E+00 0. -1.
         21   -1    0    0  502  503 -0.00000000000E+00 -0.00000000000E+00 -0.24117142495E+03  0.24117142495E+03  0.00000000000E+00 0.  1.
    9000007    1    1    2  501    0 -0.40163323701E+03  0.28656808354E+03  0.25670661116E+04  0.26444770646E+04  0.40000000000E+03 0. -1.
   -9000007    1    1    2    0  503  0.40163323701E+03 -0.28656808354E+03  0.29568019239E+03  0.70061208935E+03  0.40000000000E+03 0.  1.
<mgrwt>
<rscale>  2 0.63516181E+03</rscale>
<asrwt>0</asrwt>
<pdfrwt beam="1">  1       21 0.47752578E+00 0.63516181E+03</pdfrwt>
<pdfrwt beam="2">  1       21 0.37103298E-01 0.63516181E+03</pdfrwt>
<totfact> 0.12146882E+01</totfact>
</mgrwt>
</event>
<event>
 4    1  0.4675559E-002  0.4216376E+03  0.7818608E-02  0.1036535E+00
         21   -1    0    0  503  502  0.00000000000E+00  0.00000000000E+00  0.12872454492E+03  0.12872454492E+03  0.00000000000E+00 0. -1.
         21   -1    0    0  501  503 -0.00000000000E+00 -0.00000000000E+00 -0.32186871269E+04  0.32186871269E+04  0.00000000000E+00 0. -1.
    9000007    1    1    2  501    0  0.12918858356E+03 -0.32993800377E+02 -0.28096205081E+04  0.28410817799E+04  0.40000000000E+03 0. -1.
   -9000007    1    1    2    0  502 -0.12918858356E+03  0.32993800377E+02 -0.28034207387E+03  0.50632989184E+03  0.40000000000E+03 0. -1.
<mgrwt>
<rscale>  2 0.42163762E+03</rscale>
<asrwt>0</asrwt>
<pdfrwt beam="1">  1       21 0.19803777E-01 0.42163762E+03</pdfrwt>
<pdfrwt beam="2">  1       21 0.49518262E+00 0.42163762E+03</pdfrwt>
<totfact> 0.36192969E+01</totfact>
</mgrwt>
</event>
<event>
 4    1  0.4675559E-002  0.6204595E+03  0.7818608E-02  0.9863845E-01
         21   -1    0    0  503  502  0.00000000000E+00  0.00000000000E+00  0.39847246162E+03  0.39847246162E+03  0.00000000000E+00 0.  1.
         21   -1    0    0  501  503 -0.00000000000E+00 -0.00000000000E+00 -0.11113187896E+04  0.11113187896E+04  0.00000000000E+00 0.  1.
    9000007    1    1    2  501    0 -0.44190455890E+03  0.17230889128E+03 -0.83552143364E+02  0.62605986443E+03  0.40000000000E+03 0.  1.
   -9000007    1    1    2    0  502  0.44190455890E+03 -0.17230889128E+03 -0.62929418458E+03  0.88373138675E+03  0.40000000000E+03 0.  1.
<mgrwt>
<rscale>  2 0.62045950E+03</rscale>
<asrwt>0</asrwt>
<pdfrwt beam="1">  1       21 0.61303455E-01 0.62045950E+03</pdfrwt>
<pdfrwt beam="2">  1       21 0.17097212E+00 0.62045950E+03</pdfrwt>
<totfact> 0.40111263E+02</totfact>
</mgrwt>
</event>
<event>
 4    1  0.4675559E-002  0.4309990E+03  0.7818608E-02  0.1033545E+00
         21   -1    0    0  501  502  0.00000000000E+00  0.00000000000E+00  0.46130125901E+03  0.46130125901E+03  0.00000000000E+00 0.  1.
         21   -1    0    0  502  503 -0.00000000000E+00 -0.00000000000E+00 -0.41020579348E+03  0.41020579348E+03  0.00000000000E+00 0.  1.
    9000007    1    1    2  501    0 -0.14485261710E+03 -0.69121791858E+02  0.84541878323E+02  0.43921228578E+03  0.40000000000E+03 0.  1.
   -9000007    1    1    2    0  503  0.14485261710E+03  0.69121791858E+02 -0.33446412799E+02  0.43229476670E+03  0.40000000000E+03 0.  1.
<mgrwt>
<rscale>  2 0.43099896E+03</rscale>
<asrwt>0</asrwt>
<pdfrwt beam="1">  1       21 0.70969425E-01 0.43099896E+03</pdfrwt>
<pdfrwt beam="2">  1       21 0.63108583E-01 0.43099896E+03</pdfrwt>
<totfact> 0.36770157E+03</totfact>
</mgrwt>
</event>
<event>
 4    1  0.4675559E-002  0.5890791E+03  0.7818608E-02  0.9928326E-01
         21   -1    0    0  503  502  0.00000000000E+00  0.00000000000E+00  0.23594303951E+04  0.23594303951E+04  0.00000000000E+00 0. -1.
         21   -1    0    0  501  503 -0.00000000000E+00 -0.00000000000E+00 -0.29252184175E+03  0.29252184175E+03  0.00000000000E+00 0.  1.
    9000007    1    1    2  501    0  0.29895960250E+03  0.31246983598E+03  0.98461928114E+02  0.59725119809E+03  0.40000000000E+03 0.  1.
   -9000007    1    1    2    0  502 -0.29895960250E+03 -0.31246983598E+03  0.19684466253E+04  0.20547010388E+04  0.40000000000E+03 0. -1.
<mgrwt>
<rscale>  2 0.58907915E+03</rscale>
<asrwt>0</asrwt>
<pdfrwt beam="1">  1       21 0.36298928E+00 0.58907915E+03</pdfrwt>
<pdfrwt beam="2">  1       21 0.45003362E-01 0.58907915E+03</pdfrwt>
<totfact> 0.47699442E+01</totfact>
</mgrwt>
</event>
<event>
 4    1  0.4675559E-002  0.4610714E+03  0.7818608E-02  0.1024471E+00
         21   -1    0    0  503  502  0.00000000000E+00  0.00000000000E+00  0.46554520312E+03  0.46554520312E+03  0.00000000000E+00 0.  1.
         21   -1    0    0  501  503 -0.00000000000E+00 -0.00000000000E+00 -0.45712823113E+03  0.45712823113E+03  0.00000000000E+00 0.  1.
    9000007    1    1    2  501    0  0.45709754606E+02 -0.22471637891E+03 -0.10859410101E+02  0.46119926214E+03  0.40000000000E+03 0.  1.
   -9000007    1    1    2    0  502 -0.45709754606E+02  0.22471637891E+03  0.19276382083E+02  0.46147417211E+03  0.40000000000E+03 0.  1.
<mgrwt>
<rscale>  2 0.46107140E+03</rscale>
<asrwt>0</asrwt>
<pdfrwt beam="1">  1       21 0.71622339E-01 0.46107140E+03</pdfrwt>
<pdfrwt beam="2">  1       21 0.70327420E-01 0.46107140E+03</pdfrwt>
<totfact> 0.27985319E+03</totfact>
</mgrwt>
</event>
<event>
 4    1  0.4675559E-002  0.4285101E+03  0.7818608E-02  0.1034332E+00
         21   -1    0    0  501  502  0.00000000000E+00  0.00000000000E+00  0.34437501272E+03  0.34437501272E+03  0.00000000000E+00 0. -1.
         21   -1    0    0  502  503 -0.00000000000E+00 -0.00000000000E+00 -0.77274373962E+03  0.77274373962E+03  0.00000000000E+00 0. -1.
    9000007    1    1    2  501    0  0.54190082648E+02 -0.14382047851E+03 -0.52517237486E+03  0.67781038529E+03  0.40000000000E+03 0. -1.
   -9000007    1    1    2    0  503 -0.54190082648E+02  0.14382047851E+03  0.96803647954E+02  0.43930836704E+03  0.40000000000E+03 0. -1.
<mgrwt>
<rscale>  2 0.42851009E+03</rscale>
<asrwt>0</asrwt>
<pdfrwt beam="1">  1       21 0.52980771E-01 0.42851009E+03</pdfrwt>
<pdfrwt beam="2">  1       21 0.11888365E+00 0.42851009E+03</pdfrwt>
<totfact> 0.15761140E+03</totfact>
</mgrwt>
</event>
<event>
 4    1  0.4675559E-002  0.5429546E+03  0.7818608E-02  0.1003138E+00
         21   -1    0    0  503  502  0.00000000000E+00  0.00000000000E+00  0.18383445516E+03  0.18383445516E+03  0.00000000000E+00 0.  1.
         21   -1    0    0  501  503 -0.00000000000E+00 -0.00000000000E+00 -0.16225675079E+04  0.16225675079E+04  0.00000000000E+00 0. -1.
    9000007    1    1    2  501    0 -0.28283514014E+03 -0.23410257706E+03 -0.81698087494E+03  0.98094723767E+03  0.40000000000E+03 0. -1.
   -9000007    1    1    2    0  502  0.28283514014E+03  0.23410257706E+03 -0.62175217785E+03  0.82545472543E+03  0.40000000000E+03 0.  1.
<mgrwt>
<rscale>  2 0.54295463E+03</rscale>
<asrwt>0</asrwt>
<pdfrwt beam="1">  1       21 0.28282223E-01 0.54295463E+03</pdfrwt>
<pdfrwt beam="2">  1       21 0.24962578E+00 0.54295463E+03</pdfrwt>
<totfact> 0.62309084E+02</totfact>
</mgrwt>
</event>
<event>
 4    1  0.4675559E-002  0.5249897E+03  0.7818608E-02  0.1007454E+00
         21   -1    0    0  501  502  0.00000000000E+00  0.00000000000E+00  0.16655521752E+03  0.16655521752E+03  0.00000000000E+00 0.  1.
         21   -1    0    0  502  503 -0.00000000000E+00 -0.00000000000E+00 -0.19019060750E+04  0.19019060750E+04  0.00000000000E+00 0.  1.
    9000007    1    1    2  501    0  0.20613247715E+03  0.27041375296E+03 -0.49487890710E+03  0.72147025484E+03  0.40000000000E+03 0.  1.
   -9000007    1    1    2    0  503 -0.20613247715E+03 -0.27041375296E+03 -0.12404719504E+04  0.13469910377E+04  0.40000000000E+03 0.  1.
<mgrwt>
<rscale>  2 0.52498971E+03</rscale>
<asrwt>0</asrwt>
<pdfrwt beam="1">  1       21 0.25623879E-01 0.52498971E+03</pdfrwt>
<pdfrwt beam="2">  1       21 0.29260094E+00 0.52498971E+03</pdfrwt>
<totfact> 0.41687551E+02</totfact>
</mgrwt>
</event>
<event>
 4    1  0.4675559E-002  0.4759077E+03  0.7818608E-02  0.1020266E+00
         21   -1    0    0  503  502  0.00000000000E+00  0.00000000000E+00  0.92978146782E+03  0.92978146782E+03  0.00000000000E+00 0.  1.
         21   -1    0    0  501  503 -0.00000000000E+00 -0.00000000000E+00 -0.25991493654E+03  0.25991493654E+03  0.00000000000E+00 0.  1.
    9000007    1    1    2  501    0  0.21377508989E+03 -0.14418160324E+03  0.18586737320E+03  0.51091565272E+03  0.40000000000E+03 0.  1.
   -9000007    1    1    2    0  502 -0.21377508989E+03  0.14418160324E+03  0.48399915808E+03  0.67878075164E+03  0.40000000000E+03 0.  1.
<mgrwt>
<rscale>  2 0.47590768E+03</rscale>
<asrwt>0</asrwt>
<pdfrwt beam="1">  1       21 0.14304330E+00 0.47590768E+03</pdfrwt>
<pdfrwt beam="2">  1       21 0.39986914E-01 0.47590768E+03</pdfrwt>
<totfact> 0.17267448E+03</totfact>
</mgrwt>
</event>
<event>
 4    1  0.4675559E-002  0.5113610E+03  0.7818608E-02  0.1010855E+00
         21   -1    0    0  501  502  0.00000000000E+00  0.00000000000E+00  0.53695606223E+03  0.53695606223E+03  0.00000000000E+00 0. -1.
         21   -1    0    0  502  503 -0.00000000000E+00 -0.00000000000E+00 -0.90004685118E+03  0.90004685118E+03  0.00000000000E+00 0.  1.
    9000007    1    1    2  501    0  0.27596922689E+03  0.15915736542E+03  0.30520029709E+03  0.59551431763E+03  0.40000000000E+03 0. -1.
   -9000007    1    1    2    0  503 -0.27596922689E+03 -0.15915736542E+03 -0.66829108603E+03  0.84148859578E+03  0.40000000000E+03 0.  1.
<mgrwt>
<rscale>  2 0.51136101E+03</rscale>
<asrwt>0</asrwt>
<pdfrwt beam="1">  1       21 0.82608625E-01 0.51136101E+03</pdfrwt>
<pdfrwt beam="2">  1       21 0.13846875E+00 0.51136101E+03</pdfrwt>
<totfact> 0.38033289E+02</totfact>
</mgrwt>
</event>
<event>
 4    1  0.4675559E-002  0.5631927E+03  0.7818608E-02  0.9984856E-01
         21   -1    0    0  501  502  0.00000000000E+00  0.00000000000E+00  0.71103076968E+03  0.71103076968E+03  0.00000000000E+00 0.  1.
         21   -1    0    0  502  503 -0.00000000000E+00 -0.00000000000E+00 -0.61565834260E+03  0.61565834260E+03  0.00000000000E+00 0. -1.
    9000007    1    1    2  501    0 -0.76555066029E+02  0.38900557202E+03  0.39581307549E+03  0.68837054260E+03  0.40000000000E+03 0.  1.
   -9000007    1    1    2    0  503  0.76555066029E+02 -0.38900557202E+03 -0.30044064840E+03  0.63831856969E+03  0.40000000000E+03 0. -1.
<mgrwt>
<rscale>  2 0.56319270E+03</rscale>
<asrwt>0</asrwt>
<pdfrwt beam="1">  1       21 0.10938935E+00 0.56319270E+03</pdfrwt>
<pdfrwt beam="2">  1       21 0.94716667E-01 0.56319270E+03</pdfrwt>
<totfact> 0.49420722E+02</totfact>
</mgrwt>
</event>
<event>
 4    1  0.4675559E-002  0.4794931E+03  0.7818608E-02  0.1019275E+00
         21   -1    0    0  501  502  0.00000000000E+00  0.00000000000E+00  0.60029494508E+03  0.60029494508E+03  0.00000000000E+00 0.  1.
         21   -1    0    0  502  503 -0.00000000000E+00 -0.00000000000E+00 -0.42080584366E+03  0.42080584366E+03  0.00000000000E+00 0.  1.
    9000007    1    1    2  501    0 -0.16241553232E+03  0.20865010086E+03  0.24277239099E+03  0.53744962885E+03  0.40000000000E+03 0.  1.
   -9000007    1    1    2    0  503  0.16241553232E+03 -0.20865010086E+03 -0.63283289563E+02  0.48365115989E+03  0.40000000000E+03 0.  1.
<mgrwt>
<rscale>  2 0.47949314E+03</rscale>
<asrwt>0</asrwt>
<pdfrwt beam="1">  1       21 0.92353069E-01 0.47949314E+03</pdfrwt>
<pdfrwt beam="2">  1       21 0.64739360E-01 0.47949314E+03</pdfrwt>
<totfact> 0.18547185E+03</totfact>
</mgrwt>
</event>
<event>
 4    1  0.4675559E-002  0.4159638E+03  0.7818608E-02  0.1038388E+00
         21   -1    0    0  503  502  0.00000000000E+00  0.00000000000E+00  0.72428082415E+03  0.72428082415E+03  0.00000000000E+00 0.  1.
         21   -1    0    0  501  503 -0.00000000000E+00 -0.00000000000E+00 -0.26769564494E+03  0.26769564494E+03  0.00000000000E+00 0.  1.
    9000007    1    1    2  501    0  0.11214140023E+03  0.21217452008E+02  0.65601318306E+02  0.42110498320E+03  0.40000000000E+03 0.  1.
   -9000007    1    1    2    0  502 -0.11214140023E+03 -0.21217452008E+02  0.39098386090E+03  0.57087148589E+03  0.40000000000E+03 0.  1.
<mgrwt>
<rscale>  2 0.41596379E+03</rscale>
<asrwt>0</asrwt>
<pdfrwt beam="1">  1       21 0.11142782E+00 0.41596379E+03</pdfrwt>
<pdfrwt beam="2">  1       21 0.41183946E-01 0.41596379E+03</pdfrwt>
<totfact> 0.31634993E+03</totfact>
</mgrwt>
</event>
<event>
 4    1  0.4675559E-002  0.5441852E+03  0.7818608E-02  0.1002849E+00
         21   -1    0    0  501  502  0.00000000000E+00  0.00000000000E+00  0.13548732126E+04  0.13548732126E+04  0.00000000000E+00 0. -1.
         21   -1    0    0  502  503 -0.00000000000E+00 -0.00000000000E+00 -0.22045640555E+03  0.22045640555E+03  0.00000000000E+00 0.  1.
    9000007    1    1    2  501    0  0.13047344707E+03 -0.34512920858E+03  0.64002914407E+03  0.84010403895E+03  0.40000000000E+03 0.  1.
   -9000007    1    1    2    0  503 -0.13047344707E+03  0.34512920858E+03  0.49438766298E+03  0.73522557920E+03  0.40000000000E+03 0. -1.
<mgrwt>
<rscale>  2 0.54418516E+03</rscale>
<asrwt>0</asrwt>
<pdfrwt beam="1">  1       21 0.20844203E+00 0.54418516E+03</pdfrwt>
<pdfrwt beam="2">  1       21 0.33916371E-01 0.54418516E+03</pdfrwt>
<totfact> 0.79180845E+02</totfact>
</mgrwt>
</event>
<event>
 4    1  0.4675559E-002  0.4344348E+03  0.7818608E-02  0.1032468E+00
         21   -1    0    0  501  502  0.00000000000E+00  0.00000000000E+00  0.10045895240E+03  0.10045895240E+03  0.00000000000E+00 0.  1.
         21   -1    0    0  502  503 -0.00000000000E+00 -0.00000000000E+00 -0.20680118924E+04  0.20680118924E+04  0.00000000000E+00 0.  1.
    9000007    1    1    2  501    0  0.94797309126E+02  0.14052425635E+03 -0.65574125668E+03  0.78659404533E+03  0.40000000000E+03 0.  1.
   -9000007    1    1    2    0  503 -0.94797309126E+02 -0.14052425635E+03 -0.13118116834E+04  0.13818767995E+04  0.40000000000E+03 0.  1.
<mgrwt>
<rscale>  2 0.43443480E+03</rscale>
<asrwt>0</asrwt>
<pdfrwt beam="1">  1       21 0.15455225E-01 0.43443480E+03</pdfrwt>
<pdfrwt beam="2">  1       21 0.31815564E+00 0.43443480E+03</pdfrwt>
<totfact> 0.80364098E+02</totfact>
</mgrwt>
</event>
<event>
 4    1  0.4675559E-002  0.4398386E+03  0.7818608E-02  0.1030796E+00
         21   -1    0    0  503  502  0.00000000000E+00  0.00000000000E+00  0.22341929471E+03  0.22341929471E+03  0.00000000000E+00 0.  1.
         21   -1    0    0  501  503 -0.00000000000E+00 -0.00000000000E+00 -0.91109433973E+03  0.91109433973E+03  0.00000000000E+00 0.  1.
    9000007    1    1    2  501    0 -0.13398539618E+03 -0.12452284692E+03 -0.47018192861E+03  0.64383932140E+03  0.40000000000E+03 0.  1.
   -9000007    1    1    2    0  502  0.13398539618E+03  0.12452284692E+03 -0.21749311641E+03  0.49067431304E+03  0.40000000000E+03 0.  1.
<mgrwt>
<rscale>  2 0.43983864E+03</rscale>
<asrwt>0</asrwt>
<pdfrwt beam="1">  1       21 0.34372198E-01 0.43983864E+03</pdfrwt>
<pdfrwt beam="2">  1       21 0.14016836E+00 0.43983864E+03</pdfrwt>
<totfact> 0.25166968E+03</totfact>
</mgrwt>
</event>
<event>
 4    1  0.4675559E-002  0.4894068E+03  0.7818608E-02  0.1016581E+00
         21   -1    0    0  503  502  0.00000000000E+00  0.00000000000E+00  0.11928355813E+04  0.11928355813E+04  0.00000000000E+00 0. -1.
         21   -1    0    0  501  503 -0.00000000000E+00 -0.00000000000E+00 -0.11061679126E+04  0.11061679126E+04  0.00000000000E+00 0. -1.
    9000007    1    1    2  501    0  0.25784178258E+03 -0.11417793687E+03 -0.99661539865E+03  0.11102978154E+04  0.40000000000E+03 0. -1.
   -9000007    1    1    2    0  502 -0.25784178258E+03  0.11417793687E+03  0.10832830673E+04  0.11887056785E+04  0.40000000000E+03 0. -1.
<mgrwt>
<rscale>  2 0.48940677E+03</rscale>
<asrwt>0</asrwt>
<pdfrwt beam="1">  1       21 0.18351317E+00 0.48940677E+03</pdfrwt>
<pdfrwt beam="2">  1       21 0.17017968E+00 0.48940677E+03</pdfrwt>
<totfact> 0.27542181E+01</totfact>
</mgrwt>
</event>
<event>
 4    1  0.4675559E-002  0.4818400E+03  0.7818608E-02  0.1018631E+00
         21   -1    0    0  501  502  0.00000000000E+00  0.00000000000E+00  0.34907147248E+03  0.34907147248E+03  0.00000000000E+00 0.  1.
         21   -1    0    0  502  503 -0.00000000000E+00 -0.00000000000E+00 -0.14159129680E+04  0.14159129680E+04  0.00000000000E+00 0.  1.
    9000007    1    1    2  501    0 -0.21020025735E+03  0.16728903774E+03  0.10920268034E+03  0.49405970867E+03  0.40000000000E+03 0.  1.
   -9000007    1    1    2    0  503  0.21020025735E+03 -0.16728903774E+03 -0.11760441759E+04  0.12709247318E+04  0.40000000000E+03 0.  1.
<mgrwt>
<rscale>  2 0.48183998E+03</rscale>
<asrwt>0</asrwt>
<pdfrwt beam="1">  1       21 0.53703302E-01 0.48183998E+03</pdfrwt>
<pdfrwt beam="2">  1       21 0.21783277E+00 0.48183998E+03</pdfrwt>
<totfact> 0.27095430E+02</totfact>
</mgrwt>
</event>
<event>
 4    1  0.4675559E-002  0.4039796E+03  0.7818608E-02  0.1042410E+00
         21   -1    0    0  501  502  0.00000000000E+00  0.00000000000E+00  0.37796746006E+03  0.37796746006E+03  0.00000000000E+00 0.  1.
         21   -1    0    0  502  503 -0.00000000000E+00 -0.00000000000E+00 -0.62267374622E+03  0.62267374622E+03  0.00000000000E+00 0.  1.
    9000007    1    1    2  501    0  0.49474894973E+02  0.27418681551E+02  0.15466720769E+03  0.43257542055E+03  0.40000000000E+03 0.  1.
   -9000007    1    1    2    0  503 -0.49474894973E+02 -0.27418681551E+02 -0.39937349385E+03  0.56806578573E+03  0.40000000000E+03 0.  1.
<mgrwt>
<rscale>  2 0.40397964E+03</rscale>
<asrwt>0</asrwt>
<pdfrwt beam="1">  1       21 0.58148840E-01 0.40397964E+03</pdfrwt>
<pdfrwt beam="2">  1       21 0.95795961E-01 0.40397964E+03</pdfrwt>
<totfact> 0.22152785E+03</totfact>
</mgrwt>
</event>
<event>
 4    1  0.4675559E-002  0.4140662E+03  0.7818608E-02  0.1039015E+00
         21   -1    0    0  503  502  0.00000000000E+00  0.00000000000E+00  0.10412528116E+04  0.10412528116E+04  0.00000000000E+00 0. -1.
         21   -1    0    0  501  503 -0.00000000000E+00 -0.00000000000E+00 -0.16611577973E+03  0.16611577973E+03  0.00000000000E+00 0. -1.
    9000007    1    1    2  501    0  0.10524284052E+03  0.19357846318E+02  0.38101948427E+03  0.56269585842E+03  0.40000000000E+03 0. -1.
   -9000007    1    1    2    0  502 -0.10524284052E+03 -0.19357846318E+02  0.49411754757E+03  0.64467273287E+03  0.40000000000E+03 0. -1.
<mgrwt>
<rscale>  2 0.41406616E+03</rscale>
<asrwt>0</asrwt>
<pdfrwt beam="1">  1       21 0.16019274E+00 0.41406616E+03</pdfrwt>
<pdfrwt beam="2">  1       21 0.25556274E-01 0.41406616E+03</pdfrwt>
<totfact> 0.31842820E+03</totfact>
</mgrwt>
</event>
<event>
 4    1  0.4675559E-002  0.5513606E+03  0.7818608E-02  0.1001179E+00
         21   -1    0    0  503  502  0.00000000000E+00  0.00000000000E+00  0.11742411750E+04  0.11742411750E+04  0.00000000000E+00 0.  1.
         21   -1    0    0  501  503 -0.00000000000E+00 -0.00000000000E+00 -0.34873190182E+03  0.34873190182E+03  0.00000000000E+00 0.  1.
    9000007    1    1    2  501    0  0.11862555858E+02  0.37928590468E+03  0.26247546382E+02  0.55198501013E+03  0.40000000000E+03 0.  1.
   -9000007    1    1    2    0  502 -0.11862555858E+02 -0.37928590468E+03  0.79926172681E+03  0.97098806669E+03  0.40000000000E+03 0.  1.
<mgrwt>
<rscale>  2 0.55136061E+03</rscale>
<asrwt>0</asrwt>
<pdfrwt beam="1">  1       21 0.18065249E+00 0.55136061E+03</pdfrwt>
<pdfrwt beam="2">  1       21 0.53651062E-01 0.55136061E+03</pdfrwt>
<totfact> 0.46880084E+02</totfact>
</mgrwt>
</event>
<event>
 4    1  0.4675559E-002  0.4196343E+03  0.7818608E-02  0.1037185E+00
         21   -1    0    0  503  502  0.00000000000E+00  0.00000000000E+00  0.34427426744E+03  0.34427426744E+03  0.00000000000E+00 0.  1.
         21   -1    0    0  501  503 -0.00000000000E+00 -0.00000000000E+00 -0.12209857688E+04  0.12209857688E+04  0.00000000000E+00 0.  1.
    9000007    1    1    2  501    0 -0.12496763894E+03  0.21819028818E+02 -0.10349457715E+04  0.11167836544E+04  0.40000000000E+03 0.  1.
   -9000007    1    1    2    0  502  0.12496763894E+03 -0.21819028818E+02  0.15823427015E+03  0.44847638182E+03  0.40000000000E+03 0.  1.
<mgrwt>
<rscale>  2 0.41963434E+03</rscale>
<asrwt>0</asrwt>
<pdfrwt beam="1">  1       21 0.52965271E-01 0.41963434E+03</pdfrwt>
<pdfrwt beam="2">  1       21 0.18784397E+00 0.41963434E+03</pdfrwt>
<totfact> 0.45560326E+02</totfact>
</mgrwt>
</event>
<event>
 4    1  0.4675559E-002  0.4687675E+03  0.7818608E-02  0.1022269E+00
         21   -1    0    0  503  502  0.00000000000E+00  0.00000000000E+00  0.42600841234E+03  0.42600841234E+03  0.00000000000E+00 0.  1.
         21   -1    0    0  501  503 -0.00000000000E+00 -0.00000000000E+00 -0.57706694394E+03  0.57706694394E+03  0.00000000000E+00 0. -1.
    9000007    1    1    2  501    0  0.65927971286E+02  0.23536455864E+03 -0.23892412576E+03  0.52614419196E+03  0.40000000000E+03 0. -1.
   -9000007    1    1    2    0  502 -0.65927971286E+02 -0.23536455864E+03  0.87865594160E+02  0.47693116432E+03  0.40000000000E+03 0. -1.
<mgrwt>
<rscale>  2 0.46876750E+03</rscale>
<asrwt>0</asrwt>
<pdfrwt beam="1">  1       21 0.65539756E-01 0.46876750E+03</pdfrwt>
<pdfrwt beam="2">  1       21 0.88779529E-01 0.46876750E+03</pdfrwt>
<totfact> 0.19896580E+03</totfact>
</mgrwt>
</event>
<event>
 4    1  0.4675559E-002  0.4604544E+03  0.7818608E-02  0.1024650E+00
         21   -1    0    0  501  502  0.00000000000E+00  0.00000000000E+00  0.31526789075E+03  0.31526789075E+03  0.00000000000E+00 0.  1.
         21   -1    0    0  502  503 -0.00000000000E+00 -0.00000000000E+00 -0.97285026918E+03  0.97285026918E+03  0.00000000000E+00 0.  1.
    9000007    1    1    2  501    0 -0.10238896916E+03 -0.20380071938E+03  0.29070653234E+02  0.46137114898E+03  0.40000000000E+03 0.  1.
   -9000007    1    1    2    0  503  0.10238896916E+03  0.20380071938E+03 -0.68665303167E+03  0.82674701096E+03  0.40000000000E+03 0.  1.
<mgrwt>
<rscale>  2 0.46045438E+03</rscale>
<asrwt>0</asrwt>
<pdfrwt beam="1">  1       21 0.48502753E-01 0.46045438E+03</pdfrwt>
<pdfrwt beam="2">  1       21 0.14966927E+00 0.46045438E+03</pdfrwt>
<totfact> 0.10269419E+03</totfact>
</mgrwt>
</event>
<event>
 4    1  0.4675559E-002  0.4985400E+03  0.7818608E-02  0.1014161E+00
         21   -1    0    0  503  502  0.00000000000E+00  0.00000000000E+00  0.15610336781E+03  0.15610336781E+03  0.00000000000E+00 0.  1.
         21   -1    0    0  501  503 -0.00000000000E+00 -0.00000000000E+00 -0.19900429226E+04  0.19900429226E+04  0.00000000000E+00 0.  1.
    9000007    1    1    2  501    0 -0.19738993864E+03 -0.22266410476E+03 -0.43715477868E+03  0.66305836240E+03  0.40000000000E+03 0.  1.
   -9000007    1    1    2    0  502  0.19738993864E+03  0.22266410476E+03 -0.13967847761E+04  0.14830879280E+04  0.40000000000E+03 0.  1.
<mgrwt>
<rscale>  2 0.49853996E+03</rscale>
<asrwt>0</asrwt>
<pdfrwt beam="1">  1       21 0.24015904E-01 0.49853996E+03</pdfrwt>
<pdfrwt beam="2">  1       21 0.30616043E+00 0.49853996E+03</pdfrwt>
<totfact> 0.39676001E+02</totfact>
</mgrwt>
</event>
<event>
 4    1  0.4675559E-002  0.4153429E+03  0.7818608E-02  0.1038593E+00
         21   -1    0    0  501  502  0.00000000000E+00  0.00000000000E+00  0.83610201688E+03  0.83610201688E+03  0.00000000000E+00 0.  1.
         21   -1    0    0  502  503 -0.00000000000E+00 -0.00000000000E+00 -0.29764286680E+03  0.29764286680E+03  0.00000000000E+00 0.  1.
    9000007    1    1    2  501    0 -0.79285794361E+01 -0.11156550138E+03  0.58321732991E+03  0.71599733056E+03  0.40000000000E+03 0.  1.
   -9000007    1    1    2    0  503  0.79285794361E+01  0.11156550138E+03 -0.44758179822E+02  0.41774755311E+03  0.40000000000E+03 0.  1.
<mgrwt>
<rscale>  2 0.41534290E+03</rscale>
<asrwt>0</asrwt>
<pdfrwt beam="1">  1       21 0.12863108E+00 0.41534290E+03</pdfrwt>
<pdfrwt beam="2">  1       21 0.45791211E-01 0.41534290E+03</pdfrwt>
<totfact> 0.17644226E+03</totfact>
</mgrwt>
</event>
<event>
 4    1  0.4675559E-002  0.4537475E+03  0.7818608E-02  0.1026610E+00
         21   -1    0    0  501  502  0.00000000000E+00  0.00000000000E+00  0.40861057453E+03  0.40861057453E+03  0.00000000000E+00 0. -1.
         21   -1    0    0  502  503 -0.00000000000E+00 -0.00000000000E+00 -0.51205336618E+03  0.51205336618E+03  0.00000000000E+00 0. -1.
    9000007    1    1    2  501    0 -0.18859741250E+03  0.10157681047E+03 -0.10991363720E+03  0.46687026043E+03  0.40000000000E+03 0.  1.
   -9000007    1    1    2    0  503  0.18859741250E+03 -0.10157681047E+03  0.64708455472E+01  0.45379368029E+03  0.40000000000E+03 0.  1.
<mgrwt>
<rscale>  2 0.45374754E+03</rscale>
<asrwt>0</asrwt>
<pdfrwt beam="1">  1       21 0.62863166E-01 0.45374754E+03</pdfrwt>
<pdfrwt beam="2">  1       21 0.78777441E-01 0.45374754E+03</pdfrwt>
<totfact> 0.29000885E+03</totfact>
</mgrwt>
</event>
<event>
 4    1  0.4675559E-002  0.6784045E+03  0.7818608E-02  0.9754893E-01
         21   -1    0    0  503  502  0.00000000000E+00  0.00000000000E+00  0.56601170910E+03  0.56601170910E+03  0.00000000000E+00 0.  1.
         21   -1    0    0  501  503 -0.00000000000E+00 -0.00000000000E+00 -0.96179724656E+03  0.96179724656E+03  0.00000000000E+00 0. -1.
    9000007    1    1    2  501    0  0.13572336162E+03  0.53085948409E+03 -0.49824220257E+03  0.84171130155E+03  0.40000000000E+03 0. -1.
   -9000007    1    1    2    0  502 -0.13572336162E+03 -0.53085948409E+03  0.10245666510E+03  0.68609765410E+03  0.40000000000E+03 0.  1.
<mgrwt>
<rscale>  2 0.67840447E+03</rscale>
<asrwt>0</asrwt>
<pdfrwt beam="1">  1       21 0.87078726E-01 0.67840447E+03</pdfrwt>
<pdfrwt beam="2">  1       21 0.14796881E+00 0.67840447E+03</pdfrwt>
<totfact> 0.26444174E+02</totfact>
</mgrwt>
</event>
<event>
 4    1  0.4675559E-002  0.4466017E+03  0.7818608E-02  0.1028740E+00
         21   -1    0    0  503  502  0.00000000000E+00  0.00000000000E+00  0.47555926499E+03  0.47555926499E+03  0.00000000000E+00 0.  1.
         21   -1    0    0  501  503 -0.00000000000E+00 -0.00000000000E+00 -0.51897921606E+03  0.51897921606E+03  0.00000000000E+00 0. -1.
    9000007    1    1    2  501    0 -0.19157208340E+03 -0.52470895076E+02 -0.23952353127E+03  0.50677863017E+03  0.40000000000E+03 0. -1.
   -9000007    1    1    2    0  502  0.19157208340E+03  0.52470895076E+02  0.19610358020E+03  0.48775985089E+03  0.40000000000E+03 0.  1.
<mgrwt>
<rscale>  2 0.44660168E+03</rscale>
<asrwt>0</asrwt>
<pdfrwt beam="1">  1       21 0.73162964E-01 0.44660168E+03</pdfrwt>
<pdfrwt beam="2">  1       21 0.79842956E-01 0.44660168E+03</pdfrwt>
<totfact> 0.20069051E+03</totfact>
</mgrwt>
</event>
<event>
 4    1  0.4675559E-002  0.4133696E+03  0.7818608E-02  0.1039246E+00
         21   -1    0    0  501  502  0.00000000000E+00  0.00000000000E+00  0.54032516619E+03  0.54032516619E+03  0.00000000000E+00 0. -1.
         21   -1    0    0  502  503 -0.00000000000E+00 -0.00000000000E+00 -0.10439267999E+04  0.10439267999E+04  0.00000000000E+00 0. -1.
    9000007    1    1    2  501    0 -0.88615975334E+02 -0.54969110029E+02  0.40954772392E+03  0.58189666807E+03  0.40000000000E+03 0. -1.
   -9000007    1    1    2    0  503  0.88615975334E+02  0.54969110029E+02 -0.91314935767E+03  0.10023552981E+04  0.40000000000E+03 0. -1.
<mgrwt>
<rscale>  2 0.41336956E+03</rscale>
<asrwt>0</asrwt>
<pdfrwt beam="1">  1       21 0.83126949E-01 0.41336956E+03</pdfrwt>
<pdfrwt beam="2">  1       21 0.16060412E+00 0.41336956E+03</pdfrwt>
<totfact> 0.26245906E+02</totfact>
</mgrwt>
</event>
<event>
 4    1  0.4675559E-002  0.4101224E+03  0.7818608E-02  0.1040330E+00
         21   -1    0    0  501  502  0.00000000000E+00  0.00000000000E+00  0.31453197328E+03  0.31453197328E+03  0.00000000000E+00 0. -1.
         21   -1    0    0  502  503 -0.00000000000E+00 -0.00000000000E+00 -0.11639632161E+04  0.11639632161E+04  0.00000000000E+00 0. -1.
    9000007    1    1    2  501    0  0.54307661674E+02 -0.72464238239E+02  0.11880292208E+03  0.42698304678E+03  0.40000000000E+03 0. -1.
   -9000007    1    1    2    0  503 -0.54307661674E+02  0.72464238239E+02 -0.96823416492E+03  0.10515121426E+04  0.40000000000E+03 0. -1.
<mgrwt>
<rscale>  2 0.41012241E+03</rscale>
<asrwt>0</asrwt>
<pdfrwt beam="1">  1       21 0.48389535E-01 0.41012241E+03</pdfrwt>
<pdfrwt beam="2">  1       21 0.17907126E+00 0.41012241E+03</pdfrwt>
<totfact> 0.63853225E+02</totfact>
</mgrwt>
</event>
<event>
 4    1  0.4675559E-002  0.4442701E+03  0.7818608E-02  0.1029445E+00
         21   -1    0    0  503  502  0.00000000000E+00  0.00000000000E+00  0.68546290633E+03  0.68546290633E+03  0.00000000000E+00 0. -1.
         21   -1    0    0  501  503 -0.00000000000E+00 -0.00000000000E+00 -0.44627875171E+03  0.44627875171E+03  0.00000000000E+00 0. -1.
    9000007    1    1    2  501    0  0.19080059478E+03  0.31161793224E+02  0.45664673817E+03  0.63710451875E+03  0.40000000000E+03 0. -1.
   -9000007    1    1    2    0  502 -0.19080059478E+03 -0.31161793224E+02 -0.21746258355E+03  0.49463713930E+03  0.40000000000E+03 0. -1.
<mgrwt>
<rscale>  2 0.44427010E+03</rscale>
<asrwt>0</asrwt>
<pdfrwt beam="1">  1       21 0.10545583E+00 0.44427010E+03</pdfrwt>
<pdfrwt beam="2">  1       21 0.68658269E-01 0.44427010E+03</pdfrwt>
<totfact> 0.11953043E+03</totfact>
</mgrwt>
</event>
<event>
 4    1  0.4675559E-002  0.4905504E+03  0.7818608E-02  0.1016275E+00
         21   -1    0    0  503  502  0.00000000000E+00  0.00000000000E+00  0.94172065638E+03  0.94172065638E+03  0.00000000000E+00 0. -1.
         21   -1    0    0  501  503 -0.00000000000E+00 -0.00000000000E+00 -0.30389854359E+03  0.30389854359E+03  0.00000000000E+00 0.  1.
    9000007    1    1    2  501    0 -0.25758496221E+03  0.11953958779E+03  0.56737518152E+03  0.75003621406E+03  0.40000000000E+03 0. -1.
   -9000007    1    1    2    0  502  0.25758496221E+03 -0.11953958779E+03  0.70446931272E+02  0.49558298592E+03  0.40000000000E+03 0.  1.
<mgrwt>
<rscale>  2 0.49055043E+03</rscale>
<asrwt>0</asrwt>
<pdfrwt beam="1">  1       21 0.14488010E+00 0.49055043E+03</pdfrwt>
<pdfrwt beam="2">  1       21 0.46753623E-01 0.49055043E+03</pdfrwt>
<totfact> 0.11973548E+03</totfact>
</mgrwt>
</event>
<event>
 4    1  0.4675559E-002  0.6759242E+03  0.7818608E-02  0.9759315E-01
         21   -1    0    0  501  502  0.00000000000E+00  0.00000000000E+00  0.48572346348E+03  0.48572346348E+03  0.00000000000E+00 0.  1.
         21   -1    0    0  502  503 -0.00000000000E+00 -0.00000000000E+00 -0.10680911636E+04  0.10680911636E+04  0.00000000000E+00 0. -1.
    9000007    1    1    2  501    0  0.29526790202E+03  0.45791961518E+03 -0.22774269069E+02  0.67630775189E+03  0.40000000000E+03 0.  1.
   -9000007    1    1    2    0  503 -0.29526790202E+03 -0.45791961518E+03 -0.55959343104E+03  0.87750687518E+03  0.40000000000E+03 0.  1.
<mgrwt>
<rscale>  2 0.67592419E+03</rscale>
<asrwt>0</asrwt>
<pdfrwt beam="1">  1       21 0.74726687E-01 0.67592419E+03</pdfrwt>
<pdfrwt beam="2">  1       21 0.16432172E+00 0.67592419E+03</pdfrwt>
<totfact> 0.28228260E+02</totfact>
</mgrwt>
</event>
<event>
 4    1  0.4675559E-002  0.5234427E+03  0.7818608E-02  0.1007835E+00
         21   -1    0    0  501  502  0.00000000000E+00  0.00000000000E+00  0.59137593050E+03  0.59137593050E+03  0.00000000000E+00 0.  1.
         21   -1    0    0  502  503 -0.00000000000E+00 -0.00000000000E+00 -0.59376396561E+03  0.59376396561E+03  0.00000000000E+00 0.  1.
    9000007    1    1    2  501    0 -0.25227493830E+03  0.22438718261E+03  0.27655727168E+03  0.59201028431E+03  0.40000000000E+03 0.  1.
   -9000007    1    1    2    0  503  0.25227493830E+03 -0.22438718261E+03 -0.27894530679E+03  0.59312961180E+03  0.40000000000E+03 0.  1.
<mgrwt>
<rscale>  2 0.52344269E+03</rscale>
<asrwt>0</asrwt>
<pdfrwt beam="1">  1       21 0.90980912E-01 0.52344269E+03</pdfrwt>
<pdfrwt beam="2">  1       21 0.91348303E-01 0.52344269E+03</pdfrwt>
<totfact> 0.85709296E+02</totfact>
</mgrwt>
</event>
<event>
 4    1  0.4675559E-002  0.4367589E+03  0.7818608E-02  0.1031746E+00
         21   -1    0    0  503  502  0.00000000000E+00  0.00000000000E+00  0.80197543714E+03  0.80197543714E+03  0.00000000000E+00 0. -1.
         21   -1    0    0  501  503 -0.00000000000E+00 -0.00000000000E+00 -0.66572958568E+03  0.66572958568E+03  0.00000000000E+00 0. -1.
    9000007    1    1    2  501    0 -0.85714679385E+02  0.15300770109E+03 -0.52019930199E+03  0.67923904235E+03  0.40000000000E+03 0. -1.
   -9000007    1    1    2    0  502  0.85714679385E+02 -0.15300770109E+03  0.65644515346E+03  0.78846598047E+03  0.40000000000E+03 0. -1.
<mgrwt>
<rscale>  2 0.43675893E+03</rscale>
<asrwt>0</asrwt>
<pdfrwt beam="1">  1       21 0.12338084E+00 0.43675893E+03</pdfrwt>
<pdfrwt beam="2">  1       21 0.10241994E+00 0.43675893E+03</pdfrwt>
<totfact> 0.31817211E+02</totfact>
</mgrwt>
</event>
<event>
 4    1  0.4675559E-002  0.4046458E+03  0.7818608E-02  0.1042183E+00
         21   -1    0    0  501  502  0.00000000000E+00  0.00000000000E+00  0.16070117381E+03  0.16070117381E+03  0.00000000000E+00 0.  1.
         21   -1    0    0  502  503 -0.00000000000E+00 -0.00000000000E+00 -0.12897887504E+04  0.12897887504E+04  0.00000000000E+00 0.  1.
    9000007    1    1    2  501    0 -0.27013949631E+02 -0.54849887381E+02 -0.23217386018E+03  0.46652220201E+03  0.40000000000E+03 0.  1.
   -9000007    1    1    2    0  503  0.27013949631E+02  0.54849887381E+02 -0.89691371637E+03  0.98396772215E+03  0.40000000000E+03 0.  1.
<mgrwt>
<rscale>  2 0.40464585E+03</rscale>
<asrwt>0</asrwt>
<pdfrwt beam="1">  1       21 0.24723257E-01 0.40464585E+03</pdfrwt>
<pdfrwt beam="2">  1       21 0.19842904E+00 0.40464585E+03</pdfrwt>
<totfact> 0.18323438E+03</totfact>
</mgrwt>
</event>
<event>
 4    1  0.4675559E-002  0.4159133E+03  0.7818608E-02  0.1038405E+00
         21   -1    0    0  501  502  0.00000000000E+00  0.00000000000E+00  0.10917223235E+04  0.10917223235E+04  0.00000000000E+00 0. -1.
         21   -1    0    0  502  503 -0.00000000000E+00 -0.00000000000E+00 -0.16914357323E+03  0.16914357323E+03  0.00000000000E+00 0. -1.
    9000007    1    1    2  501    0  0.22725773775E+02  0.11165771760E+03  0.61980175670E+03  0.74641685692E+03  0.40000000000E+03 0. -1.
   -9000007    1    1    2    0  503 -0.22725773775E+02 -0.11165771760E+03  0.30277699353E+03  0.51444903976E+03  0.40000000000E+03 0. -1.
<mgrwt>
<rscale>  2 0.41591334E+03</rscale>
<asrwt>0</asrwt>
<pdfrwt beam="1">  1       21 0.16795728E+00 0.41591334E+03</pdfrwt>
<pdfrwt beam="2">  1       21 0.26022089E-01 0.41591334E+03</pdfrwt>
<totfact> 0.26901620E+03</totfact>
</mgrwt>
</event>
<event>
 4    1  0.4675559E-002  0.6626505E+03  0.7818608E-02  0.9783327E-01
         21   -1    0    0  503  502  0.00000000000E+00  0.00000000000E+00  0.31696985271E+03  0.31696985271E+03  0.00000000000E+00 0.  1.
         21   -1    0    0  501  503 -0.00000000000E+00 -0.00000000000E+00 -0.15498792382E+04  0.15498792382E+04  0.00000000000E+00 0.  1.
    9000007    1    1    2  501    0  0.51014631978E+03  0.13731878418E+03 -0.92060418251E+03  0.11342917512E+04  0.40000000000E+03 0.  1.
   -9000007    1    1    2    0  502 -0.51014631978E+03 -0.13731878418E+03 -0.31230520295E+03  0.73255733964E+03  0.40000000000E+03 0.  1.
<mgrwt>
<rscale>  2 0.66265052E+03</rscale>
<asrwt>0</asrwt>
<pdfrwt beam="1">  1       21 0.48764593E-01 0.66265052E+03</pdfrwt>
<pdfrwt beam="2">  1       21 0.23844296E+00 0.66265052E+03</pdfrwt>
<totfact> 0.22813510E+02</totfact>
</mgrwt>
</event>
<event>
 4    1  0.4675559E-002  0.6935118E+03  0.7818608E-02  0.9728393E-01
         21   -1    0    0  501  502  0.00000000000E+00  0.00000000000E+00  0.49345372040E+03  0.49345372040E+03  0.00000000000E+00 0. -1.
         21   -1    0    0  502  503 -0.00000000000E+00 -0.00000000000E+00 -0.11877635099E+04  0.11877635099E+04  0.00000000000E+00 0. -1.
    9000007    1    1    2  501    0  0.56184899161E+03  0.72693462975E+02 -0.70320040170E+03  0.98764843638E+03  0.40000000000E+03 0. -1.
   -9000007    1    1    2    0  503 -0.56184899161E+03 -0.72693462975E+02  0.88906121825E+01  0.69356879393E+03  0.40000000000E+03 0. -1.
<mgrwt>
<rscale>  2 0.69351181E+03</rscale>
<asrwt>0</asrwt>
<pdfrwt beam="1">  1       21 0.75915959E-01 0.69351181E+03</pdfrwt>
<pdfrwt beam="2">  1       21 0.18273284E+00 0.69351181E+03</pdfrwt>
<totfact> 0.19851607E+02</totfact>
</mgrwt>
</event>
<event>
 4    1  0.4675559E-002  0.4058022E+03  0.7818608E-02  0.1041789E+00
         21   -1    0    0  503  502  0.00000000000E+00  0.00000000000E+00  0.13492705774E+03  0.13492705774E+03  0.00000000000E+00 0.  1.
         21   -1    0    0  501  503 -0.00000000000E+00 -0.00000000000E+00 -0.12421425417E+04  0.12421425417E+04  0.00000000000E+00 0.  1.
    9000007    1    1    2  501    0  0.55782405142E+02  0.39544089906E+02 -0.64454082135E+03  0.76164839798E+03  0.40000000000E+03 0. -1.
   -9000007    1    1    2    0  502 -0.55782405142E+02 -0.39544089906E+02 -0.46267466257E+03  0.61542120142E+03  0.40000000000E+03 0. -1.
<mgrwt>
<rscale>  2 0.40580218E+03</rscale>
<asrwt>0</asrwt>
<pdfrwt beam="1">  1       21 0.20758010E-01 0.40580218E+03</pdfrwt>
<pdfrwt beam="2">  1       21 0.19109884E+00 0.40580218E+03</pdfrwt>
<totfact> 0.28713072E+03</totfact>
</mgrwt>
</event>
<event>
 4    1  0.4675559E-002  0.8800109E+03  0.7818608E-02  0.9450920E-01
         21   -1    0    0  501  502  0.00000000000E+00  0.00000000000E+00  0.12793890069E+04  0.12793890069E+04  0.00000000000E+00 0. -1.
         21   -1    0    0  502  503 -0.00000000000E+00 -0.00000000000E+00 -0.60975289892E+03  0.60975289892E+03  0.00000000000E+00 0.  1.
    9000007    1    1    2  501    0  0.33196973964E+03 -0.71008122004E+03  0.41550166074E+03  0.97317052831E+03  0.40000000000E+03 0. -1.
   -9000007    1    1    2    0  503 -0.33196973964E+03  0.71008122004E+03  0.25413444719E+03  0.91597137746E+03  0.40000000000E+03 0.  1.
<mgrwt>
<rscale>  2 0.88001094E+03</rscale>
<asrwt>0</asrwt>
<pdfrwt beam="1">  1       21 0.19682908E+00 0.88001094E+03</pdfrwt>
<pdfrwt beam="2">  1       21 0.93808138E-01 0.88001094E+03</pdfrwt>
<totfact> 0.90634048E+01</totfact>
</mgrwt>
</event>
<event>
 4    1  0.4675559E-002  0.6278302E+03  0.7818608E-02  0.9849292E-01
         21   -1    0    0  501  502  0.00000000000E+00  0.00000000000E+00  0.49172666151E+03  0.49172666151E+03  0.00000000000E+00 0.  1.
         21   -1    0    0  502  503 -0.00000000000E+00 -0.00000000000E+00 -0.82173320760E+03  0.82173320760E+03  0.00000000000E+00 0. -1.
    9000007    1    1    2  501    0  0.14403007261E+03  0.46198068717E+03 -0.62221029052E+02  0.63090591501E+03  0.40000000000E+03 0.  1.
   -9000007    1    1    2    0  503 -0.14403007261E+03 -0.46198068717E+03 -0.26778551704E+03  0.68255395411E+03  0.40000000000E+03 0. -1.
<mgrwt>
<rscale>  2 0.62783025E+03</rscale>
<asrwt>0</asrwt>
<pdfrwt beam="1">  1       21 0.75650256E-01 0.62783025E+03</pdfrwt>
<pdfrwt beam="2">  1       21 0.12642049E+00 0.62783025E+03</pdfrwt>
<totfact> 0.56817309E+02</totfact>
</mgrwt>
</event>
<event>
 4    1  0.4675559E-002  0.4627688E+03  0.7818608E-02  0.1023981E+00
         21   -1    0    0  503  502  0.00000000000E+00  0.00000000000E+00  0.76389106738E+03  0.76389106738E+03  0.00000000000E+00 0. -1.
         21   -1    0    0  501  503 -0.00000000000E+00 -0.00000000000E+00 -0.28514821686E+03  0.28514821686E+03  0.00000000000E+00 0. -1.
    9000007    1    1    2  501    0 -0.22569121926E+03  0.56731498295E+02  0.17131373556E+03  0.49346062188E+03  0.40000000000E+03 0. -1.
   -9000007    1    1    2    0  502  0.22569121926E+03 -0.56731498295E+02  0.30742911496E+03  0.55557866237E+03  0.40000000000E+03 0. -1.
<mgrwt>
<rscale>  2 0.46276883E+03</rscale>
<asrwt>0</asrwt>
<pdfrwt beam="1">  1       21 0.11752170E+00 0.46276883E+03</pdfrwt>
<pdfrwt beam="2">  1       21 0.43868957E-01 0.46276883E+03</pdfrwt>
<totfact> 0.23868866E+03</totfact>
</mgrwt>
</event>
<event>
 4    1  0.4675559E-002  0.4545161E+03  0.7818608E-02  0.1026384E+00
         21   -1    0    0  503  502  0.00000000000E+00  0.00000000000E+00  0.28835753824E+03  0.28835753824E+03  0.00000000000E+00 0. -1.
         21   -1    0    0  501  503 -0.00000000000E+00 -0.00000000000E+00 -0.72119209810E+03  0.72119209810E+03  0.00000000000E+00 0. -1.
    9000007    1    1    2  501    0 -0.89106428985E+02 -0.19658307489E+03 -0.17535285163E+03  0.48716884506E+03  0.40000000000E+03 0. -1.
   -9000007    1    1    2    0  502  0.89106428985E+02  0.19658307489E+03 -0.25748170823E+03  0.52238079127E+03  0.40000000000E+03 0. -1.
<mgrwt>
<rscale>  2 0.45451607E+03</rscale>
<asrwt>0</asrwt>
<pdfrwt beam="1">  1       21 0.44362698E-01 0.45451607E+03</pdfrwt>
<pdfrwt beam="2">  1       21 0.11095263E+00 0.45451607E+03</pdfrwt>
<totfact> 0.27002753E+03</totfact>
</mgrwt>
</event>
<event>
 4    1  0.4675559E-002  0.4349126E+03  0.7818608E-02  0.1032319E+00
         21   -1    0    0  503  502  0.00000000000E+00  0.00000000000E+00  0.36798383531E+03  0.36798383531E+03  0.00000000000E+00 0. -1.
         21   -1    0    0  501  503 -0.00000000000E+00 -0.00000000000E+00 -0.60708281151E+03  0.60708281151E+03  0.00000000000E+00 0. -1.
    9000007    1    1    2  501    0  0.16098995543E+03 -0.56843457366E+02 -0.31043887323E+03  0.53434187409E+03  0.40000000000E+03 0. -1.
   -9000007    1    1    2    0  502 -0.16098995543E+03  0.56843457366E+02  0.71339897033E+02  0.44072477274E+03  0.40000000000E+03 0. -1.
<mgrwt>
<rscale>  2 0.43491257E+03</rscale>
<asrwt>0</asrwt>
<pdfrwt beam="1">  1       21 0.56612898E-01 0.43491257E+03</pdfrwt>
<pdfrwt beam="2">  1       21 0.93397355E-01 0.43491257E+03</pdfrwt>
<totfact> 0.24641616E+03</totfact>
</mgrwt>
</event>
<event>
 4    1  0.4675559E-002  0.6060957E+03  0.7818608E-02  0.9892839E-01
         21   -1    0    0  503  502  0.00000000000E+00  0.00000000000E+00  0.17815275761E+03  0.17815275761E+03  0.00000000000E+00 0. -1.
         21   -1    0    0  501  503 -0.00000000000E+00 -0.00000000000E+00 -0.22383523663E+04  0.22383523663E+04  0.00000000000E+00 0. -1.
    9000007    1    1    2  501    0 -0.24925695620E+03 -0.38108135456E+03 -0.69096142909E+03  0.91911899420E+03  0.40000000000E+03 0. -1.
   -9000007    1    1    2    0  502  0.24925695620E+03  0.38108135456E+03 -0.13692381795E+04  0.14973861297E+04  0.40000000000E+03 0. -1.
<mgrwt>
<rscale>  2 0.60609573E+03</rscale>
<asrwt>0</asrwt>
<pdfrwt beam="1">  1       21 0.27408115E-01 0.60609573E+03</pdfrwt>
<pdfrwt beam="2">  1       21 0.34436193E+00 0.60609573E+03</pdfrwt>
<totfact> 0.16976035E+02</totfact>
</mgrwt>
</event>
<event>
 4    1  0.4675559E-002  0.4625180E+03  0.7818608E-02  0.1024053E+00
         21   -1    0    0  501  502  0.00000000000E+00  0.00000000000E+00  0.11552035621E+04  0.11552035621E+04  0.00000000000E+00 0.  1.
         21   -1    0    0  502  503 -0.00000000000E+00 -0.00000000000E+00 -0.19246558859E+03  0.19246558859E+03  0.00000000000E+00 0.  1.
    9000007    1    1    2  501    0  0.23208158081E+03 -0.78149940054E+01  0.61245269543E+03  0.76747719082E+03  0.40000000000E+03 0. -1.
   -9000007    1    1    2    0  503 -0.23208158081E+03  0.78149940054E+01  0.35028527813E+03  0.58019195992E+03  0.40000000000E+03 0. -1.
<mgrwt>
<rscale>  2 0.46251804E+03</rscale>
<asrwt>0</asrwt>
<pdfrwt beam="1">  1       21 0.17772362E+00 0.46251804E+03</pdfrwt>
<pdfrwt beam="2">  1       21 0.29610091E-01 0.46251804E+03</pdfrwt>
<totfact> 0.17402653E+03</totfact>
</mgrwt>
</event>
<event>
 4    1  0.4675559E-002  0.4318387E+03  0.7818608E-02  0.1033281E+00
         21   -1    0    0  501  502  0.00000000000E+00  0.00000000000E+00  0.36179333053E+03  0.36179333053E+03  0.00000000000E+00 0. -1.
         21   -1    0    0  502  503 -0.00000000000E+00 -0.00000000000E+00 -0.51652608775E+03  0.51652608775E+03  0.00000000000E+00 0. -1.
    9000007    1    1    2  501    0  0.14281663099E+02 -0.16211319574E+03 -0.57277468626E+02  0.43562066359E+03  0.40000000000E+03 0. -1.
   -9000007    1    1    2    0  503 -0.14281663099E+02  0.16211319574E+03 -0.97455288587E+02  0.44269875469E+03  0.40000000000E+03 0. -1.
<mgrwt>
<rscale>  2 0.43183869E+03</rscale>
<asrwt>0</asrwt>
<pdfrwt beam="1">  1       21 0.55660512E-01 0.43183869E+03</pdfrwt>
<pdfrwt beam="2">  1       21 0.79465552E-01 0.43183869E+03</pdfrwt>
<totfact> 0.37375461E+03</totfact>
</mgrwt>
</event>
<event>
 4    1  0.4675559E-002  0.4088498E+03  0.7818608E-02  0.1040758E+00
         21   -1    0    0  501  502  0.00000000000E+00  0.00000000000E+00  0.22622405436E+03  0.22622405436E+03  0.00000000000E+00 0.  1.
         21   -1    0    0  502  503 -0.00000000000E+00 -0.00000000000E+00 -0.91274285539E+03  0.91274285539E+03  0.00000000000E+00 0.  1.
    9000007    1    1    2  501    0  0.25554715724E+02  0.80654233036E+02 -0.94729460588E+02  0.41968061607E+03  0.40000000000E+03 0.  1.
   -9000007    1    1    2    0  503 -0.25554715724E+02 -0.80654233036E+02 -0.59178934045E+03  0.71928629367E+03  0.40000000000E+03 0.  1.
<mgrwt>
<rscale>  2 0.40884979E+03</rscale>
<asrwt>0</asrwt>
<pdfrwt beam="1">  1       21 0.34803701E-01 0.40884979E+03</pdfrwt>
<pdfrwt beam="2">  1       21 0.14042198E+00 0.40884979E+03</pdfrwt>
<totfact> 0.24730410E+03</totfact>
</mgrwt>
</event>
<event>
 4    1  0.4675559E-002  0.4445496E+03  0.7818608E-02  0.1029360E+00
         21   -1    0    0  503  502  0.00000000000E+00  0.00000000000E+00  0.69185128216E+03  0.69185128216E+03  0.00000000000E+00 0. -1.
         21   -1    0    0  501  503 -0.00000000000E+00 -0.00000000000E+00 -0.32880986611E+03  0.32880986611E+03  0.00000000000E+00 0.  1.
    9000007    1    1    2  501    0 -0.16561010278E+03 -0.10098339163E+03 -0.33809429810E+01  0.44456246164E+03  0.40000000000E+03 0.  1.
   -9000007    1    1    2    0  502  0.16561010278E+03  0.10098339163E+03  0.36642235904E+03  0.57609868662E+03  0.40000000000E+03 0. -1.
<mgrwt>
<rscale>  2 0.44454961E+03</rscale>
<asrwt>0</asrwt>
<pdfrwt beam="1">  1       21 0.10643866E+00 0.44454961E+03</pdfrwt>
<pdfrwt beam="2">  1       21 0.50586133E-01 0.44454961E+03</pdfrwt>
<totfact> 0.22769472E+03</totfact>
</mgrwt>
</event>
<event>
 4    1  0.4675559E-002  0.4505738E+03  0.7818608E-02  0.1027551E+00
         21   -1    0    0  503  502  0.00000000000E+00  0.00000000000E+00  0.97878803959E+03  0.97878803959E+03  0.00000000000E+00 0. -1.
         21   -1    0    0  501  503 -0.00000000000E+00 -0.00000000000E+00 -0.20741894610E+03  0.20741894610E+03  0.00000000000E+00 0. -1.
    9000007    1    1    2  501    0 -0.17592841951E+03  0.10984490326E+03  0.38361492278E+03  0.59175765356E+03  0.40000000000E+03 0. -1.
   -9000007    1    1    2    0  502  0.17592841951E+03 -0.10984490326E+03  0.38775417071E+03  0.59444933213E+03  0.40000000000E+03 0. -1.
<mgrwt>
<rscale>  2 0.45057376E+03</rscale>
<asrwt>0</asrwt>
<pdfrwt beam="1">  1       21 0.15058277E+00 0.45057376E+03</pdfrwt>
<pdfrwt beam="2">  1       21 0.31910608E-01 0.45057376E+03</pdfrwt>
<totfact> 0.23997755E+03</totfact>
</mgrwt>
</event>
<event>
 4    1  0.4675559E-002  0.4494350E+03  0.7818608E-02  0.1027891E+00
         21   -1    0    0  501  502  0.00000000000E+00  0.00000000000E+00  0.43287017759E+03  0.43287017759E+03  0.00000000000E+00 0. -1.
         21   -1    0    0  502  503 -0.00000000000E+00 -0.00000000000E+00 -0.12098421162E+04  0.12098421162E+04  0.00000000000E+00 0.  1.
    9000007    1    1    2  501    0  0.10927763227E+03  0.17335009059E+03  0.25527174047E+03  0.51687088940E+03  0.40000000000E+03 0. -1.
   -9000007    1    1    2    0  503 -0.10927763227E+03 -0.17335009059E+03 -0.10322436790E+04  0.11258414043E+04  0.40000000000E+03 0.  1.
<mgrwt>
<rscale>  2 0.44943504E+03</rscale>
<asrwt>0</asrwt>
<pdfrwt beam="1">  1       21 0.66595413E-01 0.44943504E+03</pdfrwt>
<pdfrwt beam="2">  1       21 0.18612955E+00 0.44943504E+03</pdfrwt>
<totfact> 0.27943081E+02</totfact>
</mgrwt>
</event>
<event>
 4    1  0.4675559E-002  0.4930148E+03  0.7818608E-02  0.1015618E+00
         21   -1    0    0  501  502  0.00000000000E+00  0.00000000000E+00  0.49941217500E+03  0.49941217500E+03  0.00000000000E+00 0. -1.
         21   -1    0    0  502  503 -0.00000000000E+00 -0.00000000000E+00 -0.54639014922E+03  0.54639014922E+03  0.00000000000E+00 0.  1.
    9000007    1    1    2  501    0 -0.21755115210E+03 -0.18903716188E+03 -0.19632016183E+03  0.53066482670E+03  0.40000000000E+03 0.  1.
   -9000007    1    1    2    0  503  0.21755115210E+03  0.18903716188E+03  0.14934218761E+03  0.51513749752E+03  0.40000000000E+03 0. -1.
<mgrwt>
<rscale>  2 0.49301476E+03</rscale>
<asrwt>0</asrwt>
<pdfrwt beam="1">  1       21 0.76832642E-01 0.49301476E+03</pdfrwt>
<pdfrwt beam="2">  1       21 0.84060023E-01 0.49301476E+03</pdfrwt>
<totfact> 0.15655272E+03</totfact>
</mgrwt>
</event>
<event>
 4    1  0.4675559E-002  0.5438007E+03  0.7818608E-02  0.1002939E+00
         21   -1    0    0  503  502  0.00000000000E+00  0.00000000000E+00  0.16635230263E+04  0.16635230263E+04  0.00000000000E+00 0. -1.
         21   -1    0    0  501  503 -0.00000000000E+00 -0.00000000000E+00 -0.18656190005E+03  0.18656190005E+03  0.00000000000E+00 0.  1.
    9000007    1    1    2  501    0  0.36772588095E+03 -0.22290478156E+02  0.53763130612E+03  0.76470034017E+03  0.40000000000E+03 0.  1.
   -9000007    1    1    2    0  502 -0.36772588095E+03  0.22290478156E+02  0.93932982014E+03  0.10853845862E+04  0.40000000000E+03 0. -1.
<mgrwt>
<rscale>  2 0.54380069E+03</rscale>
<asrwt>0</asrwt>
<pdfrwt beam="1">  1       21 0.25592661E+00 0.54380069E+03</pdfrwt>
<pdfrwt beam="2">  1       21 0.28701832E-01 0.54380069E+03</pdfrwt>
<totfact> 0.55304832E+02</totfact>
</mgrwt>
</event>
<event>
 4    1  0.4675559E-002  0.5148854E+03  0.7818608E-02  0.1009965E+00
         21   -1    0    0  503  502  0.00000000000E+00  0.00000000000E+00  0.17101056818E+03  0.17101056818E+03  0.00000000000E+00 0.  1.
         21   -1    0    0  501  503 -0.00000000000E+00 -0.00000000000E+00 -0.16134821542E+04  0.16134821542E+04  0.00000000000E+00 0.  1.
    9000007    1    1    2  501    0  0.88022396537E+02  0.31202405409E+03 -0.89788654007E+03  0.10350397053E+04  0.40000000000E+03 0.  1.
   -9000007    1    1    2    0  502 -0.88022396537E+02 -0.31202405409E+03 -0.54458504599E+03  0.74945301717E+03  0.40000000000E+03 0.  1.
<mgrwt>
<rscale>  2 0.51488538E+03</rscale>
<asrwt>0</asrwt>
<pdfrwt beam="1">  1       21 0.26309319E-01 0.51488538E+03</pdfrwt>
<pdfrwt beam="2">  1       21 0.24822802E+00 0.51488538E+03</pdfrwt>
<totfact> 0.74190010E+02</totfact>
</mgrwt>
</event>
<event>
 4    1  0.4675559E-002  0.5432400E+03  0.7818608E-02  0.1003071E+00
         21   -1    0    0  501  502  0.00000000000E+00  0.00000000000E+00  0.46044800080E+03  0.46044800080E+03  0.00000000000E+00 0.  1.
         21   -1    0    0  502  503 -0.00000000000E+00 -0.00000000000E+00 -0.73787297940E+03  0.73787297940E+03  0.00000000000E+00 0.  1.
    9000007    1    1    2  501    0 -0.35321460509E+03  0.10173075594E+03  0.78475598633E+02  0.54887896984E+03  0.40000000000E+03 0.  1.
   -9000007    1    1    2    0  503  0.35321460509E+03 -0.10173075594E+03 -0.35590057723E+03  0.64944201036E+03  0.40000000000E+03 0.  1.
<mgrwt>
<rscale>  2 0.54324001E+03</rscale>
<asrwt>0</asrwt>
<pdfrwt beam="1">  1       21 0.70838154E-01 0.54324001E+03</pdfrwt>
<pdfrwt beam="2">  1       21 0.11351892E+00 0.54324001E+03</pdfrwt>
<totfact> 0.89378972E+02</totfact>
</mgrwt>
</event>
<event>
 4    1  0.4675559E-002  0.4586690E+03  0.7818608E-02  0.1025168E+00
         21   -1    0    0  503  502  0.00000000000E+00  0.00000000000E+00  0.51638869475E+03  0.51638869475E+03  0.00000000000E+00 0. -1.
         21   -1    0    0  501  503 -0.00000000000E+00 -0.00000000000E+00 -0.41200430079E+03  0.41200430079E+03  0.00000000000E+00 0. -1.
    9000007    1    1    2  501    0 -0.22440211645E+03  0.45732297884E+01  0.10125924083E+03  0.46971337872E+03  0.40000000000E+03 0. -1.
   -9000007    1    1    2    0  502  0.22440211645E+03 -0.45732297884E+01  0.31251531285E+01  0.45867961681E+03  0.40000000000E+03 0. -1.
<mgrwt>
<rscale>  2 0.45866897E+03</rscale>
<asrwt>0</asrwt>
<pdfrwt beam="1">  1       21 0.79444415E-01 0.45866897E+03</pdfrwt>
<pdfrwt beam="2">  1       21 0.63385277E-01 0.45866897E+03</pdfrwt>
<totfact> 0.27878625E+03</totfact>
</mgrwt>
</event>
<event>
 4    1  0.4675559E-002  0.4885508E+03  0.7818608E-02  0.1016811E+00
         21   -1    0    0  501  502  0.00000000000E+00  0.00000000000E+00  0.11669543037E+04  0.11669543037E+04  0.00000000000E+00 0.  1.
         21   -1    0    0  502  503 -0.00000000000E+00 -0.00000000000E+00 -0.30189316510E+03  0.30189316510E+03  0.00000000000E+00 0.  1.
    9000007    1    1    2  501    0  0.12088355863E+03 -0.25311872910E+03  0.84959994661E+03  0.98005203690E+03  0.40000000000E+03 0.  1.
   -9000007    1    1    2    0  503 -0.12088355863E+03  0.25311872910E+03  0.15461191982E+02  0.48879543188E+03  0.40000000000E+03 0.  1.
<mgrwt>
<rscale>  2 0.48855084E+03</rscale>
<asrwt>0</asrwt>
<pdfrwt beam="1">  1       21 0.17953143E+00 0.48855084E+03</pdfrwt>
<pdfrwt beam="2">  1       21 0.46445103E-01 0.48855084E+03</pdfrwt>
<totfact> 0.66614951E+02</totfact>
</mgrwt>
</event>
<event>
 4    1  0.4675559E-002  0.4294333E+03  0.7818608E-02  0.1034039E+00
         21   -1    0    0  501  502  0.00000000000E+00  0.00000000000E+00  0.27119886648E+03  0.27119886648E+03  0.00000000000E+00 0. -1.
         21   -1    0    0  502  503 -0.00000000000E+00 -0.00000000000E+00 -0.77278489326E+03  0.77278489326E+03  0.00000000000E+00 0. -1.
    9000007    1    1    2  501    0  0.31900161705E+02  0.15295530107E+03 -0.69912081341E+02  0.43508693793E+03  0.40000000000E+03 0. -1.
   -9000007    1    1    2    0  503 -0.31900161705E+02 -0.15295530107E+03 -0.43167394544E+03  0.60889682181E+03  0.40000000000E+03 0. -1.
<mgrwt>
<rscale>  2 0.42943328E+03</rscale>
<asrwt>0</asrwt>
<pdfrwt beam="1">  1       21 0.41722903E-01 0.42943328E+03</pdfrwt>
<pdfrwt beam="2">  1       21 0.11888998E+00 0.42943328E+03</pdfrwt>
<totfact> 0.26054518E+03</totfact>
</mgrwt>
</event>
<event>
 4    1  0.4675559E-002  0.4226193E+03  0.7818608E-02  0.1036217E+00
         21   -1    0    0  503  502  0.00000000000E+00  0.00000000000E+00  0.35233716870E+03  0.35233716870E+03  0.00000000000E+00 0.  1.
         21   -1    0    0  501  503 -0.00000000000E+00 -0.00000000000E+00 -0.56045159233E+03  0.56045159233E+03  0.00000000000E+00 0.  1.
    9000007    1    1    2  501    0 -0.41282615894E+02  0.13001082551E+03  0.36992670642E+02  0.42423522580E+03  0.40000000000E+03 0.  1.
   -9000007    1    1    2    0  502  0.41282615894E+02 -0.13001082551E+03 -0.24510709427E+03  0.48855353523E+03  0.40000000000E+03 0.  1.
<mgrwt>
<rscale>  2 0.42261930E+03</rscale>
<asrwt>0</asrwt>
<pdfrwt beam="1">  1       21 0.54205719E-01 0.42261930E+03</pdfrwt>
<pdfrwt beam="2">  1       21 0.86223321E-01 0.42261930E+03</pdfrwt>
<totfact> 0.32845179E+03</totfact>
</mgrwt>
</event>
<event>
 4    1  0.4675559E-002  0.5427728E+03  0.7818608E-02  0.1003181E+00
         21   -1    0    0  501  502  0.00000000000E+00  0.00000000000E+00  0.75204108547E+03  0.75204108547E+03  0.00000000000E+00 0. -1.
         21   -1    0    0  502  503 -0.00000000000E+00 -0.00000000000E+00 -0.93668232116E+03  0.93668232116E+03  0.00000000000E+00 0.  1.
    9000007    1    1    2  501    0  0.28539284210E+03 -0.23054980836E+03  0.55171345678E+03  0.77394445980E+03  0.40000000000E+03 0. -1.
   -9000007    1    1    2    0  503 -0.28539284210E+03  0.23054980836E+03 -0.73635469246E+03  0.91477894683E+03  0.40000000000E+03 0. -1.
<mgrwt>
<rscale>  2 0.54277278E+03</rscale>
<asrwt>0</asrwt>
<pdfrwt beam="1">  1       21 0.11569863E+00 0.54277278E+03</pdfrwt>
<pdfrwt beam="2">  1       21 0.14410497E+00 0.54277278E+03</pdfrwt>
<totfact> 0.14893559E+02</totfact>
</mgrwt>
</event>
<event>
 4    1  0.4675559E-002  0.4148631E+03  0.7818608E-02  0.1038751E+00
         21   -1    0    0  501  502  0.00000000000E+00  0.00000000000E+00  0.67240023996E+03  0.67240023996E+03  0.00000000000E+00 0. -1.
         21   -1    0    0  502  503 -0.00000000000E+00 -0.00000000000E+00 -0.98334365517E+03  0.98334365517E+03  0.00000000000E+00 0. -1.
    9000007    1    1    2  501    0  0.70377929630E+02  0.84606894843E+02  0.55654565215E+03  0.69415736152E+03  0.40000000000E+03 0. -1.
   -9000007    1    1    2    0  503 -0.70377929630E+02 -0.84606894843E+02 -0.86748906735E+03  0.96158653360E+03  0.40000000000E+03 0. -1.
<mgrwt>
<rscale>  2 0.41486309E+03</rscale>
<asrwt>0</asrwt>
<pdfrwt beam="1">  1       21 0.10344619E+00 0.41486309E+03</pdfrwt>
<pdfrwt beam="2">  1       21 0.15128364E+00 0.41486309E+03</pdfrwt>
<totfact> 0.18360428E+02</totfact>
</mgrwt>
</event>
<event>
 4    1  0.4675559E-002  0.6453186E+03  0.7818608E-02  0.9815603E-01
         21   -1    0    0  503  502  0.00000000000E+00  0.00000000000E+00  0.16162989609E+04  0.16162989609E+04  0.00000000000E+00 0. -1.
         21   -1    0    0  501  503 -0.00000000000E+00 -0.00000000000E+00 -0.45570364498E+03  0.45570364498E+03  0.00000000000E+00 0. -1.
    9000007    1    1    2  501    0 -0.43634149273E+03 -0.25698666937E+03 -0.10268985494E+03  0.65343802524E+03  0.40000000000E+03 0. -1.
   -9000007    1    1    2    0  502  0.43634149273E+03  0.25698666937E+03  0.12632851709E+04  0.14185645806E+04  0.40000000000E+03 0. -1.
<mgrwt>
<rscale>  2 0.64531856E+03</rscale>
<asrwt>0</asrwt>
<pdfrwt beam="1">  1       21 0.24866138E+00 0.64531856E+03</pdfrwt>
<pdfrwt beam="2">  1       21 0.70108254E-01 0.64531856E+03</pdfrwt>
<totfact> 0.89101061E+01</totfact>
</mgrwt>
</event>
<event>
 4    1  0.4675559E-002  0.4464058E+03  0.7818608E-02  0.1028799E+00
         21   -1    0    0  503  502  0.00000000000E+00  0.00000000000E+00  0.59108155112E+03  0.59108155112E+03  0.00000000000E+00 0.  1.
         21   -1    0    0  501  503 -0.00000000000E+00 -0.00000000000E+00 -0.39453421026E+03  0.39453421026E+03  0.00000000000E+00 0. -1.
    9000007    1    1    2  501    0 -0.19337911512E+03 -0.43389220109E+02 -0.89685607701E+02  0.45532583368E+03  0.40000000000E+03 0.  1.
   -9000007    1    1    2    0  502  0.19337911512E+03  0.43389220109E+02  0.28623294855E+03  0.53028992770E+03  0.40000000000E+03 0.  1.
<mgrwt>
<rscale>  2 0.44640576E+03</rscale>
<asrwt>0</asrwt>
<pdfrwt beam="1">  1       21 0.90935623E-01 0.44640576E+03</pdfrwt>
<pdfrwt beam="2">  1       21 0.60697571E-01 0.44640576E+03</pdfrwt>
<totfact> 0.22458433E+03</totfact>
</mgrwt>
</event>
<event>
 4    1  0.4675559E-002  0.4789954E+03  0.7818608E-02  0.1019412E+00
         21   -1    0    0  503  502  0.00000000000E+00  0.00000000000E+00  0.81436014195E+03  0.81436014195E+03  0.00000000000E+00 0.  1.
         21   -1    0    0  501  503 -0.00000000000E+00 -0.00000000000E+00 -0.29214890393E+03  0.29214890393E+03  0.00000000000E+00 0. -1.
    9000007    1    1    2  501    0 -0.13760102494E+03  0.22472767604E+03  0.36554337075E+03  0.60254338129E+03  0.40000000000E+03 0.  1.
   -9000007    1    1    2    0  502  0.13760102494E+03 -0.22472767604E+03  0.15666786727E+03  0.50396566458E+03  0.40000000000E+03 0. -1.
<mgrwt>
<rscale>  2 0.47899538E+03</rscale>
<asrwt>0</asrwt>
<pdfrwt beam="1">  1       21 0.12528617E+00 0.47899538E+03</pdfrwt>
<pdfrwt beam="2">  1       21 0.44945986E-01 0.47899538E+03</pdfrwt>
<totfact> 0.19152459E+03</totfact>
</mgrwt>
</event>
<event>
 4    1  0.4675559E-002  0.5747927E+03  0.7818608E-02  0.9959129E-01
         21   -1    0    0  501  502  0.00000000000E+00  0.00000000000E+00  0.74843670055E+03  0.74843670055E+03  0.00000000000E+00 0. -1.
         21   -1    0    0  502  503 -0.00000000000E+00 -0.00000000000E+00 -0.45093893499E+03  0.45093893499E+03  0.00000000000E+00 0. -1.
    9000007    1    1    2  501    0 -0.35321452556E+03 -0.21360268939E+03  0.23580598251E+03  0.62128179707E+03  0.40000000000E+03 0. -1.
   -9000007    1    1    2    0  503  0.35321452556E+03  0.21360268939E+03  0.61691783042E+02  0.57809383847E+03  0.40000000000E+03 0. -1.
<mgrwt>
<rscale>  2 0.57479267E+03</rscale>
<asrwt>0</asrwt>
<pdfrwt beam="1">  1       21 0.11514411E+00 0.57479267E+03</pdfrwt>
<pdfrwt beam="2">  1       21 0.69375221E-01 0.57479267E+03</pdfrwt>
<totfact> 0.89464802E+02</totfact>
</mgrwt>
</event>
<event>
 4    1  0.4675559E-002  0.4493446E+03  0.7818608E-02  0.1027918E+00
         21   -1    0    0  501  502  0.00000000000E+00  0.00000000000E+00  0.73646062104E+03  0.73646062104E+03  0.00000000000E+00 0.  1.
         21   -1    0    0  502  503 -0.00000000000E+00 -0.00000000000E+00 -0.39990125448E+03  0.39990125448E+03  0.00000000000E+00 0.  1.
    9000007    1    1    2  501    0  0.19999154955E+03  0.43749143301E+02  0.48687776675E+03  0.66254099284E+03  0.40000000000E+03 0.  1.
   -9000007    1    1    2    0  503 -0.19999154955E+03 -0.43749143301E+02 -0.15031840020E+03  0.47382088268E+03  0.40000000000E+03 0.  1.
<mgrwt>
<rscale>  2 0.44934464E+03</rscale>
<asrwt>0</asrwt>
<pdfrwt beam="1">  1       21 0.11330163E+00 0.44934464E+03</pdfrwt>
<pdfrwt beam="2">  1       21 0.61523270E-01 0.44934464E+03</pdfrwt>
<totfact> 0.12741773E+03</totfact>
</mgrwt>
</event>
<event>
 4    1  0.4675559E-002  0.5681102E+03  0.7818608E-02  0.9973869E-01
         21   -1    0    0  503  502  0.00000000000E+00  0.00000000000E+00  0.18851451799E+04  0.18851451799E+04  0.00000000000E+00 0. -1.
         21   -1    0    0  501  503 -0.00000000000E+00 -0.00000000000E+00 -0.17121887071E+03  0.17121887071E+03  0.00000000000E+00 0. -1.
    9000007    1    1    2  501    0  0.21593845165E+03 -0.34076347031E+03  0.84823280691E+03  0.10209055061E+04  0.40000000000E+03 0. -1.
   -9000007    1    1    2    0  502 -0.21593845165E+03  0.34076347031E+03  0.86569350233E+03  0.10354585446E+04  0.40000000000E+03 0. -1.
<mgrwt>
<rscale>  2 0.56811016E+03</rscale>
<asrwt>0</asrwt>
<pdfrwt beam="1">  1       21 0.29002232E+00 0.56811016E+03</pdfrwt>
<pdfrwt beam="2">  1       21 0.26341366E-01 0.56811016E+03</pdfrwt>
<totfact> 0.40131010E+02</totfact>
</mgrwt>
</event>
<event>
 4    1  0.4675559E-002  0.8814970E+03  0.7818608E-02  0.9449011E-01
         21   -1    0    0  503  502  0.00000000000E+00  0.00000000000E+00  0.62623149119E+03  0.62623149119E+03  0.00000000000E+00 0. -1.
         21   -1    0    0  501  503 -0.00000000000E+00 -0.00000000000E+00 -0.14803191469E+04  0.14803191469E+04  0.00000000000E+00 0.  1.
    9000007    1    1    2  501    0 -0.65714042273E+02 -0.78276344582E+03 -0.85070771196E+03  0.12250471659E+04  0.40000000000E+03 0.  1.
   -9000007    1    1    2    0  502  0.65714042273E+02  0.78276344582E+03 -0.33799437465E+01  0.88150347219E+03  0.40000000000E+03 0. -1.
<mgrwt>
<rscale>  2 0.88149699E+03</rscale>
<asrwt>0</asrwt>
<pdfrwt beam="1">  1       21 0.96343306E-01 0.88149699E+03</pdfrwt>
<pdfrwt beam="2">  1       21 0.22774141E+00 0.88149699E+03</pdfrwt>
<totfact> 0.52779015E+01</totfact>
</mgrwt>
</event>
<event>
 4    1  0.4675559E-002  0.4218943E+03  0.7818608E-02  0.1036452E+00
         21   -1    0    0  503  502  0.00000000000E+00  0.00000000000E+00  0.30635190371E+03  0.30635190371E+03  0.00000000000E+00 0.  1.
         21   -1    0    0  501  503 -0.00000000000E+00 -0.00000000000E+00 -0.10223323406E+04  0.10223323406E+04  0.00000000000E+00 0.  1.
    9000007    1    1    2  501    0  0.13341852406E+03  0.13939674376E+02 -0.79447751857E+03  0.89954952315E+03  0.40000000000E+03 0.  1.
   -9000007    1    1    2    0  502 -0.13341852406E+03 -0.13939674376E+02  0.78497081676E+02  0.42913472117E+03  0.40000000000E+03 0.  1.
<mgrwt>
<rscale>  2 0.42189432E+03</rscale>
<asrwt>0</asrwt>
<pdfrwt beam="1">  1       21 0.47131062E-01 0.42189432E+03</pdfrwt>
<pdfrwt beam="2">  1       21 0.15728190E+00 0.42189432E+03</pdfrwt>
<totfact> 0.96889675E+02</totfact>
</mgrwt>
</event>
<event>
 4    1  0.4675559E-002  0.4579223E+03  0.7818608E-02  0.1025386E+00
         21   -1    0    0  501  502  0.00000000000E+00  0.00000000000E+00  0.85737975376E+02  0.85737975376E+02  0.00000000000E+00 0.  1.
         21   -1    0    0  502  503 -0.00000000000E+00 -0.00000000000E+00 -0.34059864948E+04  0.34059864948E+04  0.00000000000E+00 0.  1.
    9000007    1    1    2  501    0  0.18796971366E+03  0.11983431991E+03 -0.73312441778E+03  0.86438665504E+03  0.40000000000E+03 0.  1.
   -9000007    1    1    2    0  503 -0.18796971366E+03 -0.11983431991E+03 -0.25871241016E+04  0.26273378151E+04  0.40000000000E+03 0.  1.
<mgrwt>
<rscale>  2 0.45792235E+03</rscale>
<asrwt>0</asrwt>
<pdfrwt beam="1">  1       21 0.13190456E-01 0.45792235E+03</pdfrwt>
<pdfrwt beam="2">  1       21 0.52399799E+00 0.45792235E+03</pdfrwt>
<totfact> 0.46616090E+01</totfact>
</mgrwt>
</event>
<event>
 4    1  0.4675559E-002  0.4774298E+03  0.7818608E-02  0.1019844E+00
         21   -1    0    0  503  502  0.00000000000E+00  0.00000000000E+00  0.47358359551E+03  0.47358359551E+03  0.00000000000E+00 0. -1.
         21   -1    0    0  501  503 -0.00000000000E+00 -0.00000000000E+00 -0.50168788237E+03  0.50168788237E+03  0.00000000000E+00 0. -1.
    9000007    1    1    2  501    0 -0.23036362286E+03 -0.12195010152E+03 -0.11233717230E+03  0.49046800740E+03  0.40000000000E+03 0. -1.
   -9000007    1    1    2    0  502  0.23036362286E+03  0.12195010152E+03  0.84232885441E+02  0.48480347048E+03  0.40000000000E+03 0. -1.
<mgrwt>
<rscale>  2 0.47742981E+03</rscale>
<asrwt>0</asrwt>
<pdfrwt beam="1">  1       21 0.72859015E-01 0.47742981E+03</pdfrwt>
<pdfrwt beam="2">  1       21 0.77182751E-01 0.47742981E+03</pdfrwt>
<totfact> 0.21659775E+03</totfact>
</mgrwt>
</event>
<event>
 4    1  0.4675559E-002  0.4941262E+03  0.7818608E-02  0.1015324E+00
         21   -1    0    0  503  502  0.00000000000E+00  0.00000000000E+00  0.82715227233E+03  0.82715227233E+03  0.00000000000E+00 0.  1.
         21   -1    0    0  501  503 -0.00000000000E+00 -0.00000000000E+00 -0.56412278499E+03  0.56412278499E+03  0.00000000000E+00 0.  1.
    9000007    1    1    2  501    0 -0.28945580049E+03 -0.19391954006E+02 -0.34879818478E+03  0.60483128393E+03  0.40000000000E+03 0.  1.
   -9000007    1    1    2    0  502  0.28945580049E+03  0.19391954006E+02  0.61182767213E+03  0.78644377339E+03  0.40000000000E+03 0.  1.
<mgrwt>
<rscale>  2 0.49412621E+03</rscale>
<asrwt>0</asrwt>
<pdfrwt beam="1">  1       21 0.12725420E+00 0.49412621E+03</pdfrwt>
<pdfrwt beam="2">  1       21 0.86788121E-01 0.49412621E+03</pdfrwt>
<totfact> 0.42564780E+02</totfact>
</mgrwt>
</event>
<event>
 4    1  0.4675559E-002  0.4513097E+03  0.7818608E-02  0.1027332E+00
         21   -1    0    0  503  502  0.00000000000E+00  0.00000000000E+00  0.14798827517E+03  0.14798827517E+03  0.00000000000E+00 0. -1.
         21   -1    0    0  501  503 -0.00000000000E+00 -0.00000000000E+00 -0.14613828803E+04  0.14613828803E+04  0.00000000000E+00 0. -1.
    9000007    1    1    2  501    0  0.18601114973E+03  0.95290547984E+02 -0.85082759941E+03  0.96311372136E+03  0.40000000000E+03 0. -1.
   -9000007    1    1    2    0  502 -0.18601114973E+03 -0.95290547984E+02 -0.46256700574E+03  0.64625743412E+03  0.40000000000E+03 0. -1.
<mgrwt>
<rscale>  2 0.45130969E+03</rscale>
<asrwt>0</asrwt>
<pdfrwt beam="1">  1       21 0.22767427E-01 0.45130969E+03</pdfrwt>
<pdfrwt beam="2">  1       21 0.22482813E+00 0.45130969E+03</pdfrwt>
<totfact> 0.14169776E+03</totfact>
</mgrwt>
</event>
<event>
 4    1  0.4675559E-002  0.4353578E+03  0.7818608E-02  0.1032181E+00
         21   -1    0    0  503  502  0.00000000000E+00  0.00000000000E+00  0.24285313410E+03  0.24285313410E+03  0.00000000000E+00 0. -1.
         21   -1    0    0  501  503 -0.00000000000E+00 -0.00000000000E+00 -0.87098742932E+03  0.87098742932E+03  0.00000000000E+00 0.  1.
    9000007    1    1    2  501    0 -0.17165031585E+03  0.85214311583E+01 -0.49361665186E+03  0.65817463086E+03  0.40000000000E+03 0.  1.
   -9000007    1    1    2    0  502  0.17165031585E+03 -0.85214311583E+01 -0.13451764337E+03  0.45566593256E+03  0.40000000000E+03 0. -1.
<mgrwt>
<rscale>  2 0.43535784E+03</rscale>
<asrwt>0</asrwt>
<pdfrwt beam="1">  1       21 0.37362020E-01 0.43535784E+03</pdfrwt>
<pdfrwt beam="2">  1       21 0.13399807E+00 0.43535784E+03</pdfrwt>
<totfact> 0.23968913E+03</totfact>
</mgrwt>
</event>
<event>
 4    1  0.4675559E-002  0.4501515E+03  0.7818608E-02  0.1027677E+00
         21   -1    0    0  503  502  0.00000000000E+00  0.00000000000E+00  0.14477154950E+03  0.14477154950E+03  0.00000000000E+00 0.  1.
         21   -1    0    0  501  503 -0.00000000000E+00 -0.00000000000E+00 -0.14071079165E+04  0.14071079165E+04  0.00000000000E+00 0.  1.
    9000007    1    1    2  501    0 -0.20585791585E+03 -0.16091443653E+02 -0.57485922874E+03  0.73013666457E+03  0.40000000000E+03 0.  1.
   -9000007    1    1    2    0  502  0.20585791585E+03  0.16091443653E+02 -0.68747713827E+03  0.82174280144E+03  0.40000000000E+03 0.  1.
<mgrwt>
<rscale>  2 0.45015155E+03</rscale>
<asrwt>0</asrwt>
<pdfrwt beam="1">  1       21 0.22272547E-01 0.45015155E+03</pdfrwt>
<pdfrwt beam="2">  1       21 0.21647814E+00 0.45015155E+03</pdfrwt>
<totfact> 0.16722821E+03</totfact>
</mgrwt>
</event>
<event>
 4    1  0.4675559E-002  0.4892545E+03  0.7818608E-02  0.1016622E+00
         21   -1    0    0  501  502  0.00000000000E+00  0.00000000000E+00  0.12972727582E+03  0.12972727582E+03  0.00000000000E+00 0.  1.
         21   -1    0    0  502  503 -0.00000000000E+00 -0.00000000000E+00 -0.21758162011E+04  0.21758162011E+04  0.00000000000E+00 0. -1.
    9000007    1    1    2  501    0 -0.22633226627E+03  0.16776077292E+03 -0.57366993929E+03  0.75396761928E+03  0.40000000000E+03 0.  1.
   -9000007    1    1    2    0  503  0.22633226627E+03 -0.16776077292E+03 -0.14724189860E+04  0.15515758577E+04  0.40000000000E+03 0. -1.
<mgrwt>
<rscale>  2 0.48925451E+03</rscale>
<asrwt>0</asrwt>
<pdfrwt beam="1">  1       21 0.19958044E-01 0.48925451E+03</pdfrwt>
<pdfrwt beam="2">  1       21 0.33474093E+00 0.48925451E+03</pdfrwt>
<totfact> 0.38193234E+02</totfact>
</mgrwt>
</event>
<event>
 4    1  0.4675559E-002  0.4220226E+03  0.7818608E-02  0.1036410E+00
         21   -1    0    0  503  502  0.00000000000E+00  0.00000000000E+00  0.14927508986E+04  0.14927508986E+04  0.00000000000E+00 0.  1.
         21   -1    0    0  501  503 -0.00000000000E+00 -0.00000000000E+00 -0.23203174752E+03  0.23203174752E+03  0.00000000000E+00 0.  1.
    9000007    1    1    2  501    0 -0.11952670743E+03  0.61777362828E+02  0.29281758101E+02  0.42303722969E+03  0.40000000000E+03 0.  1.
   -9000007    1    1    2    0  502  0.11952670743E+03 -0.61777362828E+02  0.12314373930E+04  0.13017454164E+04  0.40000000000E+03 0.  1.
<mgrwt>
<rscale>  2 0.42202260E+03</rscale>
<asrwt>0</asrwt>
<pdfrwt beam="1">  1       21 0.22965398E+00 0.42202260E+03</pdfrwt>
<pdfrwt beam="2">  1       21 0.35697193E-01 0.42202260E+03</pdfrwt>
<totfact> 0.55154828E+02</totfact>
</mgrwt>
</event>
<event>
 4    1  0.4675559E-002  0.4903325E+03  0.7818608E-02  0.1016334E+00
         21   -1    0    0  503  502  0.00000000000E+00  0.00000000000E+00  0.15920021157E+03  0.15920021157E+03  0.00000000000E+00 0.  1.
         21   -1    0    0  501  503 -0.00000000000E+00 -0.00000000000E+00 -0.16789624972E+04  0.16789624972E+04  0.00000000000E+00 0. -1.
    9000007    1    1    2  501    0  0.22394016205E+03  0.17400218652E+03 -0.10512592383E+04  0.11599879065E+04  0.40000000000E+03 0. -1.
   -9000007    1    1    2    0  502 -0.22394016205E+03 -0.17400218652E+03 -0.46850304736E+03  0.67817480230E+03  0.40000000000E+03 0.  1.
<mgrwt>
<rscale>  2 0.49033250E+03</rscale>
<asrwt>0</asrwt>
<pdfrwt beam="1">  1       21 0.24492341E-01 0.49033250E+03</pdfrwt>
<pdfrwt beam="2">  1       21 0.25830192E+00 0.49033250E+03</pdfrwt>
<totfact> 0.74786344E+02</totfact>
</mgrwt>
</event>
<event>
 4    1  0.4675559E-002  0.4349312E+03  0.7818608E-02  0.1032313E+00
         21   -1    0    0  501  502  0.00000000000E+00  0.00000000000E+00  0.42244143532E+03  0.42244143532E+03  0.00000000000E+00 0.  1.
         21   -1    0    0  502  503 -0.00000000000E+00 -0.00000000000E+00 -0.52523468832E+03  0.52523468832E+03  0.00000000000E+00 0.  1.
    9000007    1    1    2  501    0 -0.29804129242E+02  0.16815726322E+03  0.13055183632E+03  0.45410233787E+03  0.40000000000E+03 0.  1.
   -9000007    1    1    2    0  503  0.29804129242E+02 -0.16815726322E+03 -0.23334508932E+03  0.49357378577E+03  0.40000000000E+03 0.  1.
<mgrwt>
<rscale>  2 0.43493120E+03</rscale>
<asrwt>0</asrwt>
<pdfrwt beam="1">  1       21 0.64990990E-01 0.43493120E+03</pdfrwt>
<pdfrwt beam="2">  1       21 0.80805336E-01 0.43493120E+03</pdfrwt>
<totfact> 0.25578749E+03</totfact>
</mgrwt>
</event>
<event>
 4    1  0.4675559E-002  0.4522743E+03  0.7818608E-02  0.1027046E+00
         21   -1    0    0  501  502  0.00000000000E+00  0.00000000000E+00  0.12664401891E+04  0.12664401891E+04  0.00000000000E+00 0.  1.
         21   -1    0    0  502  503 -0.00000000000E+00 -0.00000000000E+00 -0.16547085519E+03  0.16547085519E+03  0.00000000000E+00 0. -1.
    9000007    1    1    2  501    0  0.14095224884E+03  0.15711315997E+03  0.66115103423E+03  0.80104479996E+03  0.40000000000E+03 0.  1.
   -9000007    1    1    2    0  503 -0.14095224884E+03 -0.15711315997E+03  0.43981829967E+03  0.63086624432E+03  0.40000000000E+03 0. -1.
<mgrwt>
<rscale>  2 0.45227434E+03</rscale>
<asrwt>0</asrwt>
<pdfrwt beam="1">  1       21 0.19483695E+00 0.45227434E+03</pdfrwt>
<pdfrwt beam="2">  1       21 0.25457055E-01 0.45227434E+03</pdfrwt>
<totfact> 0.17910266E+03</totfact>
</mgrwt>
</event>
<event>
 4    1  0.4675559E-002  0.4423226E+03  0.7818608E-02  0.1030037E+00
         21   -1    0    0  503  502  0.00000000000E+00  0.00000000000E+00  0.20748242541E+03  0.20748242541E+03  0.00000000000E+00 0.  1.
         21   -1    0    0  501  503 -0.00000000000E+00 -0.00000000000E+00 -0.12141020794E+04  0.12141020794E+04  0.00000000000E+00 0. -1.
    9000007    1    1    2  501    0 -0.17353206320E+03 -0.74403760311E+02 -0.83920758437E+03  0.94864043039E+03  0.40000000000E+03 0. -1.
   -9000007    1    1    2    0  502  0.17353206320E+03  0.74403760311E+02 -0.16741206967E+03  0.47294407447E+03  0.40000000000E+03 0.  1.
<mgrwt>
<rscale>  2 0.44232262E+03</rscale>
<asrwt>0</asrwt>
<pdfrwt beam="1">  1       21 0.31920373E-01 0.44232262E+03</pdfrwt>
<pdfrwt beam="2">  1       21 0.18678493E+00 0.44232262E+03</pdfrwt>
<totfact> 0.13058267E+03</totfact>
</mgrwt>
</event>
<event>
 4    1  0.4675559E-002  0.4423596E+03  0.7818608E-02  0.1030025E+00
         21   -1    0    0  501  502  0.00000000000E+00  0.00000000000E+00  0.13072054845E+04  0.13072054845E+04  0.00000000000E+00 0. -1.
         21   -1    0    0  502  503 -0.00000000000E+00 -0.00000000000E+00 -0.35377269413E+03  0.35377269413E+03  0.00000000000E+00 0. -1.
    9000007    1    1    2  501    0 -0.18657973151E+03  0.29496382784E+02  0.11074843492E+04  0.11925617873E+04  0.40000000000E+03 0. -1.
   -9000007    1    1    2    0  503  0.18657973151E+03 -0.29496382784E+02 -0.15405155889E+03  0.46841639126E+03  0.40000000000E+03 0. -1.
<mgrwt>
<rscale>  2 0.44235962E+03</rscale>
<asrwt>0</asrwt>
<pdfrwt beam="1">  1       21 0.20110853E+00 0.44235962E+03</pdfrwt>
<pdfrwt beam="2">  1       21 0.54426569E-01 0.44235962E+03</pdfrwt>
<totfact> 0.34552733E+02</totfact>
</mgrwt>
</event>
<event>
 4    1  0.4675559E-002  0.4059668E+03  0.7818608E-02  0.1041733E+00
         21   -1    0    0  503  502  0.00000000000E+00  0.00000000000E+00  0.10719949136E+04  0.10719949136E+04  0.00000000000E+00 0.  1.
         21   -1    0    0  501  503 -0.00000000000E+00 -0.00000000000E+00 -0.15501352539E+03  0.15501352539E+03  0.00000000000E+00 0.  1.
    9000007    1    1    2  501    0  0.28421279284E+01  0.69288796281E+02  0.40289331496E+03  0.57195457706E+03  0.40000000000E+03 0. -1.
   -9000007    1    1    2    0  502 -0.28421279284E+01 -0.69288796281E+02  0.51408807330E+03  0.65505386198E+03  0.40000000000E+03 0. -1.
<mgrwt>
<rscale>  2 0.40596677E+03</rscale>
<asrwt>0</asrwt>
<pdfrwt beam="1">  1       21 0.16492229E+00 0.40596677E+03</pdfrwt>
<pdfrwt beam="2">  1       21 0.23848235E-01 0.40596677E+03</pdfrwt>
<totfact> 0.33687390E+03</totfact>
</mgrwt>
</event>
<event>
 4    1  0.4675559E-002  0.4456115E+03  0.7818608E-02  0.1029039E+00
         21   -1    0    0  503  502  0.00000000000E+00  0.00000000000E+00  0.24897664941E+03  0.24897664941E+03  0.00000000000E+00 0.  1.
         21   -1    0    0  501  503 -0.00000000000E+00 -0.00000000000E+00 -0.83392108220E+03  0.83392108220E+03  0.00000000000E+00 0. -1.
    9000007    1    1    2  501    0  0.61043539245E+02  0.18666361021E+03 -0.40555957924E+03  0.60253480345E+03  0.40000000000E+03 0. -1.
   -9000007    1    1    2    0  502 -0.61043539245E+02 -0.18666361021E+03 -0.17938485356E+03  0.48036292815E+03  0.40000000000E+03 0.  1.
<mgrwt>
<rscale>  2 0.44561151E+03</rscale>
<asrwt>0</asrwt>
<pdfrwt beam="1">  1       21 0.38304099E-01 0.44561151E+03</pdfrwt>
<pdfrwt beam="2">  1       21 0.12829555E+00 0.44561151E+03</pdfrwt>
<totfact> 0.25404199E+03</totfact>
</mgrwt>
</event>
<event>
 4    1  0.4675559E-002  0.4438783E+03  0.7818608E-02  0.1029563E+00
         21   -1    0    0  503  502  0.00000000000E+00  0.00000000000E+00  0.10994215550E+04  0.10994215550E+04  0.00000000000E+00 0. -1.
         21   -1    0    0  501  503 -0.00000000000E+00 -0.00000000000E+00 -0.32305216008E+03  0.32305216008E+03  0.00000000000E+00 0. -1.
    9000007    1    1    2  501    0  0.13647931747E+03  0.13565166568E+03 -0.86407011515E+02  0.45221029416E+03  0.40000000000E+03 0. -1.
   -9000007    1    1    2    0  502 -0.13647931747E+03 -0.13565166568E+03  0.86277640643E+03  0.97026342093E+03  0.40000000000E+03 0. -1.
<mgrwt>
<rscale>  2 0.44387834E+03</rscale>
<asrwt>0</asrwt>
<pdfrwt beam="1">  1       21 0.16914178E+00 0.44387834E+03</pdfrwt>
<pdfrwt beam="2">  1       21 0.49700333E-01 0.44387834E+03</pdfrwt>
<totfact> 0.69928930E+02</totfact>
</mgrwt>
</event>
<event>
 4    1  0.4675559E-002  0.5166599E+03  0.7818608E-02  0.1009520E+00
         21   -1    0    0  501  502  0.00000000000E+00  0.00000000000E+00  0.62085091526E+03  0.62085091526E+03  0.00000000000E+00 0.  1.
         21   -1    0    0  502  503 -0.00000000000E+00 -0.00000000000E+00 -0.44127640505E+03  0.44127640505E+03  0.00000000000E+00 0. -1.
    9000007    1    1    2  501    0 -0.41293338983E+01  0.32698686819E+03  0.47211415520E+01  0.51668148074E+03  0.40000000000E+03 0. -1.
   -9000007    1    1    2    0  503  0.41293338983E+01 -0.32698686819E+03  0.17485336866E+03  0.54544583956E+03  0.40000000000E+03 0.  1.
<mgrwt>
<rscale>  2 0.51665991E+03</rscale>
<asrwt>0</asrwt>
<pdfrwt beam="1">  1       21 0.95515526E-01 0.51665991E+03</pdfrwt>
<pdfrwt beam="2">  1       21 0.67888678E-01 0.51665991E+03</pdfrwt>
<totfact> 0.15189839E+03</totfact>
</mgrwt>
</event>
<event>
 4    1  0.4675559E-002  0.4043215E+03  0.7818608E-02  0.1042293E+00
         21   -1    0    0  503  502  0.00000000000E+00  0.00000000000E+00  0.38807304874E+03  0.38807304874E+03  0.00000000000E+00 0. -1.
         21   -1    0    0  501  503 -0.00000000000E+00 -0.00000000000E+00 -0.45356930383E+03  0.45356930383E+03  0.00000000000E+00 0. -1.
    9000007    1    1    2  501    0  0.43812258266E+02 -0.39451213298E+02 -0.14508034341E+03  0.42956282224E+03  0.40000000000E+03 0.  1.
   -9000007    1    1    2    0  502 -0.43812258266E+02  0.39451213298E+02  0.79584088315E+02  0.41207953033E+03  0.40000000000E+03 0.  1.
<mgrwt>
<rscale>  2 0.40432155E+03</rscale>
<asrwt>0</asrwt>
<pdfrwt beam="1">  1       21 0.59703547E-01 0.40432155E+03</pdfrwt>
<pdfrwt beam="2">  1       21 0.69779892E-01 0.40432155E+03</pdfrwt>
<totfact> 0.43567770E+03</totfact>
</mgrwt>
</event>
<event>
 4    1  0.4675559E-002  0.4167175E+03  0.7818608E-02  0.1038140E+00
         21   -1    0    0  503  502  0.00000000000E+00  0.00000000000E+00  0.38812742730E+03  0.38812742730E+03  0.00000000000E+00 0. -1.
         21   -1    0    0  501  503 -0.00000000000E+00 -0.00000000000E+00 -0.45037313706E+03  0.45037313706E+03  0.00000000000E+00 0. -1.
    9000007    1    1    2  501    0  0.68818753067E+02  0.94432459602E+02  0.28627577918E+01  0.41672737561E+03  0.40000000000E+03 0. -1.
   -9000007    1    1    2    0  502 -0.68818753067E+02 -0.94432459602E+02 -0.65108467547E+02  0.42177318875E+03  0.40000000000E+03 0. -1.
<mgrwt>
<rscale>  2 0.41671754E+03</rscale>
<asrwt>0</asrwt>
<pdfrwt beam="1">  1       21 0.59711912E-01 0.41671754E+03</pdfrwt>
<pdfrwt beam="2">  1       21 0.69288174E-01 0.41671754E+03</pdfrwt>
<totfact> 0.44049432E+03</totfact>
</mgrwt>
</event>
<event>
 4    1  0.4675559E-002  0.4490098E+03  0.7818608E-02  0.1028018E+00
         21   -1    0    0  503  502  0.00000000000E+00  0.00000000000E+00  0.15740438487E+04  0.15740438487E+04  0.00000000000E+00 0.  1.
         21   -1    0    0  501  503 -0.00000000000E+00 -0.00000000000E+00 -0.12837944061E+03  0.12837944061E+03  0.00000000000E+00 0.  1.
    9000007    1    1    2  501    0 -0.20321161839E+03  0.17744668140E+02  0.76366636303E+03  0.88588721016E+03  0.40000000000E+03 0. -1.
   -9000007    1    1    2    0  502  0.20321161839E+03 -0.17744668140E+02  0.68199804501E+03  0.81653607911E+03  0.40000000000E+03 0. -1.
<mgrwt>
<rscale>  2 0.44900984E+03</rscale>
<asrwt>0</asrwt>
<pdfrwt beam="1">  1       21 0.24216058E+00 0.44900984E+03</pdfrwt>
<pdfrwt beam="2">  1       21 0.19750684E-01 0.44900984E+03</pdfrwt>
<totfact> 0.14502518E+03</totfact>
</mgrwt>
</event>
<event>
 4    1  0.4675559E-002  0.5160032E+03  0.7818608E-02  0.1009684E+00
         21   -1    0    0  501  502  0.00000000000E+00  0.00000000000E+00  0.85581469619E+03  0.85581469619E+03  0.00000000000E+00 0.  1.
         21   -1    0    0  502  503 -0.00000000000E+00 -0.00000000000E+00 -0.31697925800E+03  0.31697925800E+03  0.00000000000E+00 0.  1.
    9000007    1    1    2  501    0 -0.15465996529E+02  0.32560724609E+03  0.18967790447E+03  0.54976084182E+03  0.40000000000E+03 0.  1.
   -9000007    1    1    2    0  503  0.15465996529E+02 -0.32560724609E+03  0.34915753372E+03  0.62303311237E+03  0.40000000000E+03 0.  1.
<mgrwt>
<rscale>  2 0.51600317E+03</rscale>
<asrwt>0</asrwt>
<pdfrwt beam="1">  1       21 0.13166380E+00 0.51600317E+03</pdfrwt>
<pdfrwt beam="2">  1       21 0.48766040E-01 0.51600317E+03</pdfrwt>
<totfact> 0.13988033E+03</totfact>
</mgrwt>
</event>
<event>
 4    1  0.4675559E-002  0.4152824E+03  0.7818608E-02  0.1038613E+00
         21   -1    0    0  503  502  0.00000000000E+00  0.00000000000E+00  0.30721894706E+03  0.30721894706E+03  0.00000000000E+00 0.  1.
         21   -1    0    0  501  503 -0.00000000000E+00 -0.00000000000E+00 -0.57816729129E+03  0.57816729129E+03  0.00000000000E+00 0. -1.
    9000007    1    1    2  501    0 -0.11141839205E+03 -0.67372393561E+01 -0.21096011255E+03  0.46579353534E+03  0.40000000000E+03 0. -1.
   -9000007    1    1    2    0  502  0.11141839205E+03  0.67372393561E+01 -0.59988231677E+02  0.41959270301E+03  0.40000000000E+03 0. -1.
<mgrwt>
<rscale>  2 0.41528237E+03</rscale>
<asrwt>0</asrwt>
<pdfrwt beam="1">  1       21 0.47264454E-01 0.41528237E+03</pdfrwt>
<pdfrwt beam="2">  1       21 0.88948814E-01 0.41528237E+03</pdfrwt>
<totfact> 0.40975084E+03</totfact>
</mgrwt>
</event>
<event>
 4    1  0.4675559E-002  0.4971618E+03  0.7818608E-02  0.1014522E+00
         21   -1    0    0  503  502  0.00000000000E+00  0.00000000000E+00  0.13977169605E+04  0.13977169605E+04  0.00000000000E+00 0.  1.
         21   -1    0    0  501  503 -0.00000000000E+00 -0.00000000000E+00 -0.20669404168E+03  0.20669404168E+03  0.00000000000E+00 0.  1.
    9000007    1    1    2  501    0  0.26340144442E+03  0.13337738549E+03  0.29062663035E+03  0.57587645042E+03  0.40000000000E+03 0.  1.
   -9000007    1    1    2    0  502 -0.26340144442E+03 -0.13337738549E+03  0.90039628843E+03  0.10285345517E+04  0.40000000000E+03 0.  1.
<mgrwt>
<rscale>  2 0.49716179E+03</rscale>
<asrwt>0</asrwt>
<pdfrwt beam="1">  1       21 0.21503337E+00 0.49716179E+03</pdfrwt>
<pdfrwt beam="2">  1       21 0.31799084E-01 0.49716179E+03</pdfrwt>
<totfact> 0.83204356E+02</totfact>
</mgrwt>
</event>
<event>
 4    1  0.4675559E-002  0.5222413E+03  0.7818608E-02  0.1008131E+00
         21   -1    0    0  503  502  0.00000000000E+00  0.00000000000E+00  0.38341408877E+03  0.38341408877E+03  0.00000000000E+00 0.  1.
         21   -1    0    0  501  503 -0.00000000000E+00 -0.00000000000E+00 -0.11542090360E+04  0.11542090360E+04  0.00000000000E+00 0. -1.
    9000007    1    1    2  501    0 -0.30284427366E+03 -0.14498748012E+03 -0.86162837615E+03  0.10075413054E+04  0.40000000000E+03 0. -1.
   -9000007    1    1    2    0  502  0.30284427366E+03  0.14498748012E+03  0.90833428875E+02  0.53008181942E+03  0.40000000000E+03 0.  1.
<mgrwt>
<rscale>  2 0.52224135E+03</rscale>
<asrwt>0</asrwt>
<pdfrwt beam="1">  1       21 0.58986783E-01 0.52224135E+03</pdfrwt>
<pdfrwt beam="2">  1       21 0.17757062E+00 0.52224135E+03</pdfrwt>
<totfact> 0.40587888E+02</totfact>
</mgrwt>
</event>
<event>
 4    1  0.4675559E-002  0.4938632E+03  0.7818608E-02  0.1015393E+00
         21   -1    0    0  501  502  0.00000000000E+00  0.00000000000E+00  0.12479583642E+04  0.12479583642E+04  0.00000000000E+00 0.  1.
         21   -1    0    0  502  503 -0.00000000000E+00 -0.00000000000E+00 -0.24058678453E+03  0.24058678453E+03  0.00000000000E+00 0.  1.
    9000007    1    1    2  501    0 -0.65714582483E+02 -0.28210353734E+03  0.82609705044E+03  0.96246410265E+03  0.40000000000E+03 0.  1.
   -9000007    1    1    2    0  503  0.65714582483E+02  0.28210353734E+03  0.18127452928E+03  0.52608104613E+03  0.40000000000E+03 0.  1.
<mgrwt>
<rscale>  2 0.49386315E+03</rscale>
<asrwt>0</asrwt>
<pdfrwt beam="1">  1       21 0.19199359E+00 0.49386315E+03</pdfrwt>
<pdfrwt beam="2">  1       21 0.37013352E-01 0.49386315E+03</pdfrwt>
<totfact> 0.87198169E+02</totfact>
</mgrwt>
</event>
<event>
 4    1  0.4675559E-002  0.5181283E+03  0.7818608E-02  0.1009153E+00
         21   -1    0    0  501  502  0.00000000000E+00  0.00000000000E+00  0.22596363174E+03  0.22596363174E+03  0.00000000000E+00 0. -1.
         21   -1    0    0  502  503 -0.00000000000E+00 -0.00000000000E+00 -0.12282064420E+04  0.12282064420E+04  0.00000000000E+00 0.  1.
    9000007    1    1    2  501    0 -0.32473015470E+03 -0.54838477187E+02 -0.63258546786E+03  0.81769267216E+03  0.40000000000E+03 0.  1.
   -9000007    1    1    2    0  503  0.32473015470E+03  0.54838477187E+02 -0.36965734243E+03  0.63647740162E+03  0.40000000000E+03 0.  1.
<mgrwt>
<rscale>  2 0.51812830E+03</rscale>
<asrwt>0</asrwt>
<pdfrwt beam="1">  1       21 0.34763635E-01 0.51812830E+03</pdfrwt>
<pdfrwt beam="2">  1       21 0.18895484E+00 0.51812830E+03</pdfrwt>
<totfact> 0.10294390E+03</totfact>
</mgrwt>
</event>
<event>
 4    1  0.4675559E-002  0.4140420E+03  0.7818608E-02  0.1039023E+00
         21   -1    0    0  501  502  0.00000000000E+00  0.00000000000E+00  0.16344284653E+04  0.16344284653E+04  0.00000000000E+00 0. -1.
         21   -1    0    0  502  503 -0.00000000000E+00 -0.00000000000E+00 -0.12389156681E+03  0.12389156681E+03  0.00000000000E+00 0. -1.
    9000007    1    1    2  501    0  0.10418769352E+03  0.23993223756E+02  0.10995968808E+04  0.11749655529E+04  0.40000000000E+03 0. -1.
   -9000007    1    1    2    0  503 -0.10418769352E+03 -0.23993223756E+02  0.41094001769E+03  0.58335447920E+03  0.40000000000E+03 0. -1.
<mgrwt>
<rscale>  2 0.41404197E+03</rscale>
<asrwt>0</asrwt>
<pdfrwt beam="1">  1       21 0.25145052E+00 0.41404197E+03</pdfrwt>
<pdfrwt beam="2">  1       21 0.19060242E-01 0.41404197E+03</pdfrwt>
<totfact> 0.13841227E+03</totfact>
</mgrwt>
</event>
<event>
 4    1  0.4675559E-002  0.4224497E+03  0.7818608E-02  0.1036272E+00
         21   -1    0    0  501  502  0.00000000000E+00  0.00000000000E+00  0.19729519134E+03  0.19729519134E+03  0.00000000000E+00 0.  1.
         21   -1    0    0  502  503 -0.00000000000E+00 -0.00000000000E+00 -0.23713549310E+04  0.23713549310E+04  0.00000000000E+00 0.  1.
    9000007    1    1    2  501    0  0.61365889038E+02  0.12123508130E+03 -0.76934005806E+02  0.42939790233E+03  0.40000000000E+03 0.  1.
   -9000007    1    1    2    0  503 -0.61365889038E+02 -0.12123508130E+03 -0.20971257339E+04  0.21392522201E+04  0.40000000000E+03 0.  1.
<mgrwt>
<rscale>  2 0.42244966E+03</rscale>
<asrwt>0</asrwt>
<pdfrwt beam="1">  1       21 0.30353105E-01 0.42244966E+03</pdfrwt>
<pdfrwt beam="2">  1       21 0.36482385E+00 0.42244966E+03</pdfrwt>
<totfact> 0.11527591E+02</totfact>
</mgrwt>
</event>
<event>
 4    1  0.4675559E-002  0.4058064E+03  0.7818608E-02  0.1041787E+00
         21   -1    0    0  503  502  0.00000000000E+00  0.00000000000E+00  0.10251218784E+04  0.10251218784E+04  0.00000000000E+00 0. -1.
         21   -1    0    0  501  503 -0.00000000000E+00 -0.00000000000E+00 -0.16454017781E+03  0.16454017781E+03  0.00000000000E+00 0. -1.
    9000007    1    1    2  501    0 -0.11687972508E+00 -0.68401616441E+02  0.33874786178E+03  0.52861035617E+03  0.40000000000E+03 0. -1.
   -9000007    1    1    2    0  502  0.11687972508E+00  0.68401616441E+02  0.52183383882E+03  0.66105170004E+03  0.40000000000E+03 0. -1.
<mgrwt>
<rscale>  2 0.40580635E+03</rscale>
<asrwt>0</asrwt>
<pdfrwt beam="1">  1       21 0.15771105E+00 0.40580635E+03</pdfrwt>
<pdfrwt beam="2">  1       21 0.25313874E-01 0.40580635E+03</pdfrwt>
<totfact> 0.33990205E+03</totfact>
</mgrwt>
</event>
<event>
 4    1  0.4675559E-002  0.4925128E+03  0.7818608E-02  0.1015752E+00
         21   -1    0    0  503  502  0.00000000000E+00  0.00000000000E+00  0.25600652754E+03  0.25600652754E+03  0.00000000000E+00 0.  1.
         21   -1    0    0  501  503 -0.00000000000E+00 -0.00000000000E+00 -0.11828064998E+04  0.11828064998E+04  0.00000000000E+00 0.  1.
    9000007    1    1    2  501    0  0.25049011456E+03 -0.14079622717E+03 -0.78426678282E+03  0.92609030970E+03  0.40000000000E+03 0.  1.
   -9000007    1    1    2    0  502 -0.25049011456E+03  0.14079622717E+03 -0.14253318941E+03  0.51272271762E+03  0.40000000000E+03 0.  1.
<mgrwt>
<rscale>  2 0.49251282E+03</rscale>
<asrwt>0</asrwt>
<pdfrwt beam="1">  1       21 0.39385620E-01 0.49251282E+03</pdfrwt>
<pdfrwt beam="2">  1       21 0.18197023E+00 0.49251282E+03</pdfrwt>
<totfact> 0.90124187E+02</totfact>
</mgrwt>
</event>
<event>
 4    1  0.4675559E-002  0.4213229E+03  0.7818608E-02  0.1036637E+00
         21   -1    0    0  501  502  0.00000000000E+00  0.00000000000E+00  0.25680900657E+03  0.25680900657E+03  0.00000000000E+00 0. -1.
         21   -1    0    0  502  503 -0.00000000000E+00 -0.00000000000E+00 -0.70417646733E+03  0.70417646733E+03  0.00000000000E+00 0. -1.
    9000007    1    1    2  501    0 -0.13066457302E+03  0.20970795220E+02 -0.28884545150E+03  0.51082746574E+03  0.40000000000E+03 0. -1.
   -9000007    1    1    2    0  503  0.13066457302E+03 -0.20970795220E+02 -0.15852200926E+03  0.45015800817E+03  0.40000000000E+03 0. -1.
<mgrwt>
<rscale>  2 0.42132292E+03</rscale>
<asrwt>0</asrwt>
<pdfrwt beam="1">  1       21 0.39509078E-01 0.42132292E+03</pdfrwt>
<pdfrwt beam="2">  1       21 0.10833484E+00 0.42132292E+03</pdfrwt>
<totfact> 0.36872278E+03</totfact>
</mgrwt>
</event>
<event>
 4    1  0.4675559E-002  0.4749086E+03  0.7818608E-02  0.1020544E+00
         21   -1    0    0  503  502  0.00000000000E+00  0.00000000000E+00  0.10254009041E+04  0.10254009041E+04  0.00000000000E+00 0.  1.
         21   -1    0    0  501  503 -0.00000000000E+00 -0.00000000000E+00 -0.22112675722E+03  0.22112675722E+03  0.00000000000E+00 0.  1.
    9000007    1    1    2  501    0  0.17753456415E+03 -0.18444427731E+03  0.44757970907E+03  0.65258394775E+03  0.40000000000E+03 0.  1.
   -9000007    1    1    2    0  502 -0.17753456415E+03  0.18444427731E+03  0.35669443778E+03  0.59394371353E+03  0.40000000000E+03 0.  1.
<mgrwt>
<rscale>  2 0.47490864E+03</rscale>
<asrwt>0</asrwt>
<pdfrwt beam="1">  1       21 0.15775398E+00 0.47490864E+03</pdfrwt>
<pdfrwt beam="2">  1       21 0.34019502E-01 0.47490864E+03</pdfrwt>
<totfact> 0.18396774E+03</totfact>
</mgrwt>
</event>
<event>
 4    1  0.4675559E-002  0.4035885E+03  0.7818608E-02  0.1042544E+00
         21   -1    0    0  503  502  0.00000000000E+00  0.00000000000E+00  0.14453454976E+03  0.14453454976E+03  0.00000000000E+00 0.  1.
         21   -1    0    0  501  503 -0.00000000000E+00 -0.00000000000E+00 -0.12024193084E+04  0.12024193084E+04  0.00000000000E+00 0.  1.
    9000007    1    1    2  501    0 -0.11549459330E+02 -0.52443538131E+02 -0.69766367689E+03  0.80598903265E+03  0.40000000000E+03 0.  1.
   -9000007    1    1    2    0  502  0.11549459330E+02  0.52443538131E+02 -0.36022108177E+03  0.54096482552E+03  0.40000000000E+03 0.  1.
<mgrwt>
<rscale>  2 0.40358855E+03</rscale>
<asrwt>0</asrwt>
<pdfrwt beam="1">  1       21 0.22236084E-01 0.40358855E+03</pdfrwt>
<pdfrwt beam="2">  1       21 0.18498759E+00 0.40358855E+03</pdfrwt>
<totfact> 0.27748052E+03</totfact>
</mgrwt>
</event>
<event>
 4    1  0.4675559E-002  0.4765710E+03  0.7818608E-02  0.1020082E+00
         21   -1    0    0  503  502  0.00000000000E+00  0.00000000000E+00  0.31530858527E+03  0.31530858527E+03  0.00000000000E+00 0. -1.
         21   -1    0    0  501  503 -0.00000000000E+00 -0.00000000000E+00 -0.73151119308E+03  0.73151119308E+03  0.00000000000E+00 0.  1.
    9000007    1    1    2  501    0  0.97948794231E+02  0.23984574502E+03 -0.27286957567E+03  0.54916095366E+03  0.40000000000E+03 0. -1.
   -9000007    1    1    2    0  502 -0.97948794231E+02 -0.23984574502E+03 -0.14333303213E+03  0.49765882470E+03  0.40000000000E+03 0.  1.
<mgrwt>
<rscale>  2 0.47657103E+03</rscale>
<asrwt>0</asrwt>
<pdfrwt beam="1">  1       21 0.48509014E-01 0.47657103E+03</pdfrwt>
<pdfrwt beam="2">  1       21 0.11254018E+00 0.47657103E+03</pdfrwt>
<totfact> 0.21423172E+03</totfact>
</mgrwt>
</event>
<event>
 4    1  0.4675559E-002  0.4287691E+03  0.7818608E-02  0.1034249E+00
         21   -1    0    0  503  502  0.00000000000E+00  0.00000000000E+00  0.48011154430E+03  0.48011154430E+03  0.00000000000E+00 0. -1.
         21   -1    0    0  501  503 -0.00000000000E+00 -0.00000000000E+00 -0.20756998813E+04  0.20756998813E+04  0.00000000000E+00 0. -1.
    9000007    1    1    2  501    0  0.13980701146E+03  0.65551136150E+02 -0.19518242761E+04  0.19983645705E+04  0.40000000000E+03 0. -1.
   -9000007    1    1    2    0  502 -0.13980701146E+03 -0.65551136150E+02  0.35623593912E+03  0.55744685507E+03  0.40000000000E+03 0. -1.
<mgrwt>
<rscale>  2 0.42876911E+03</rscale>
<asrwt>0</asrwt>
<pdfrwt beam="1">  1       21 0.73863315E-01 0.42876911E+03</pdfrwt>
<pdfrwt beam="2">  1       21 0.31933844E+00 0.42876911E+03</pdfrwt>
<totfact> 0.33130681E+01</totfact>
</mgrwt>
</event>
<event>
 4    1  0.4675559E-002  0.4087086E+03  0.7818608E-02  0.1040805E+00
         21   -1    0    0  503  502  0.00000000000E+00  0.00000000000E+00  0.34463672087E+03  0.34463672087E+03  0.00000000000E+00 0. -1.
         21   -1    0    0  501  503 -0.00000000000E+00 -0.00000000000E+00 -0.65087006820E+03  0.65087006820E+03  0.00000000000E+00 0.  1.
    9000007    1    1    2  501    0 -0.48443991524E+02 -0.68526699801E+02 -0.40462575911E+03  0.57512149485E+03  0.40000000000E+03 0.  1.
   -9000007    1    1    2    0  502  0.48443991524E+02  0.68526699801E+02  0.98392411786E+02  0.42038529422E+03  0.40000000000E+03 0. -1.
<mgrwt>
<rscale>  2 0.40870861E+03</rscale>
<asrwt>0</asrwt>
<pdfrwt beam="1">  1       21 0.53021034E-01 0.40870861E+03</pdfrwt>
<pdfrwt beam="2">  1       21 0.10013386E+00 0.40870861E+03</pdfrwt>
<totfact> 0.24253000E+03</totfact>
</mgrwt>
</event>
<event>
 4    1  0.4675559E-002  0.4646214E+03  0.7818608E-02  0.1023449E+00
         21   -1    0    0  503  502  0.00000000000E+00  0.00000000000E+00  0.85889487022E+03  0.85889487022E+03  0.00000000000E+00 0. -1.
         21   -1    0    0  501  503 -0.00000000000E+00 -0.00000000000E+00 -0.31171669212E+03  0.31171669212E+03  0.00000000000E+00 0. -1.
    9000007    1    1    2  501    0  0.11777413376E+03 -0.20494458252E+03  0.15990087076E+02  0.46489645231E+03  0.40000000000E+03 0. -1.
   -9000007    1    1    2    0  502 -0.11777413376E+03  0.20494458252E+03  0.53118809103E+03  0.70571511004E+03  0.40000000000E+03 0. -1.
<mgrwt>
<rscale>  2 0.46462138E+03</rscale>
<asrwt>0</asrwt>
<pdfrwt beam="1">  1       21 0.13213767E+00 0.46462138E+03</pdfrwt>
<pdfrwt beam="2">  1       21 0.47956415E-01 0.46462138E+03</pdfrwt>
<totfact> 0.14633198E+03</totfact>
</mgrwt>
</event>
<event>
 4    1  0.4675559E-002  0.4443126E+03  0.7818608E-02  0.1029432E+00
         21   -1    0    0  503  502  0.00000000000E+00  0.00000000000E+00  0.13884712345E+04  0.13884712345E+04  0.00000000000E+00 0.  1.
         21   -1    0    0  501  503 -0.00000000000E+00 -0.00000000000E+00 -0.14712587728E+03  0.14712587728E+03  0.00000000000E+00 0. -1.
    9000007    1    1    2  501    0 -0.94183742380E+02  0.16894713838E+03  0.47990698441E+03  0.65400644231E+03  0.40000000000E+03 0. -1.
   -9000007    1    1    2    0  502  0.94183742380E+02 -0.16894713838E+03  0.76143837281E+03  0.88159066946E+03  0.40000000000E+03 0.  1.
<mgrwt>
<rscale>  2 0.44431263E+03</rscale>
<asrwt>0</asrwt>
<pdfrwt beam="1">  1       21 0.21361095E+00 0.44431263E+03</pdfrwt>
<pdfrwt beam="2">  1       21 0.22634751E-01 0.44431263E+03</pdfrwt>
<totfact> 0.16962010E+03</totfact>
</mgrwt>
</event>
<event>
 4    1  0.4675559E-002  0.4907225E+03  0.7818608E-02  0.1016229E+00
         21   -1    0    0  501  502  0.00000000000E+00  0.00000000000E+00  0.35384181102E+03  0.35384181102E+03  0.00000000000E+00 0. -1.
         21   -1    0    0  502  503 -0.00000000000E+00 -0.00000000000E+00 -0.69414545800E+03  0.69414545800E+03  0.00000000000E+00 0. -1.
    9000007    1    1    2  501    0 -0.17121306008E+03 -0.22692424942E+03 -0.24347322601E+03  0.54780264576E+03  0.40000000000E+03 0. -1.
   -9000007    1    1    2    0  503  0.17121306008E+03  0.22692424942E+03 -0.96830420974E+02  0.50018462326E+03  0.40000000000E+03 0. -1.
<mgrwt>
<rscale>  2 0.49072245E+03</rscale>
<asrwt>0</asrwt>
<pdfrwt beam="1">  1       21 0.54437202E-01 0.49072245E+03</pdfrwt>
<pdfrwt beam="2">  1       21 0.10679161E+00 0.49072245E+03</pdfrwt>
<totfact> 0.18973563E+03</totfact>
</mgrwt>
</event>
<event>
 4    1  0.4675559E-002  0.4185350E+03  0.7818608E-02  0.1037544E+00
         21   -1    0    0  503  502  0.00000000000E+00  0.00000000000E+00  0.20493702386E+03  0.20493702386E+03  0.00000000000E+00 0.  1.
         21   -1    0    0  501  503 -0.00000000000E+00 -0.00000000000E+00 -0.96586181534E+03  0.96586181534E+03  0.00000000000E+00 0.  1.
    9000007    1    1    2  501    0  0.88373684644E+02 -0.85799973072E+02 -0.57900761713E+03  0.71443779590E+03  0.40000000000E+03 0.  1.
   -9000007    1    1    2    0  502 -0.88373684644E+02  0.85799973072E+02 -0.18191717435E+03  0.45636104330E+03  0.40000000000E+03 0.  1.
<mgrwt>
<rscale>  2 0.41853500E+03</rscale>
<asrwt>0</asrwt>
<pdfrwt beam="1">  1       21 0.31528773E-01 0.41853500E+03</pdfrwt>
<pdfrwt beam="2">  1       21 0.14859412E+00 0.41853500E+03</pdfrwt>
<totfact> 0.25811370E+03</totfact>
</mgrwt>
</event>
<event>
 4    1  0.4675559E-002  0.4756904E+03  0.7818608E-02  0.1020326E+00
         21   -1    0    0  501  502  0.00000000000E+00  0.00000000000E+00  0.41178612669E+03  0.41178612669E+03  0.00000000000E+00 0.  1.
         21   -1    0    0  502  503 -0.00000000000E+00 -0.00000000000E+00 -0.55720951873E+03  0.55720951873E+03  0.00000000000E+00 0.  1.
    9000007    1    1    2  501    0 -0.13281726044E+03 -0.22054693238E+03 -0.12965739886E+03  0.49304402961E+03  0.40000000000E+03 0. -1.
   -9000007    1    1    2    0  503  0.13281726044E+03  0.22054693238E+03 -0.15765993187E+02  0.47595161581E+03  0.40000000000E+03 0. -1.
<mgrwt>
<rscale>  2 0.47569042E+03</rscale>
<asrwt>0</asrwt>
<pdfrwt beam="1">  1       21 0.63351712E-01 0.47569042E+03</pdfrwt>
<pdfrwt beam="2">  1       21 0.85724542E-01 0.47569042E+03</pdfrwt>
<totfact> 0.23242892E+03</totfact>
</mgrwt>
</event>
<event>
 4    1  0.4675559E-002  0.6184021E+03  0.7818608E-02  0.9867946E-01
         21   -1    0    0  501  502  0.00000000000E+00  0.00000000000E+00  0.13667974645E+04  0.13667974645E+04  0.00000000000E+00 0. -1.
         21   -1    0    0  502  503 -0.00000000000E+00 -0.00000000000E+00 -0.31850129917E+03  0.31850129917E+03  0.00000000000E+00 0.  1.
    9000007    1    1    2  501    0 -0.47154597738E+03 -0.80978729312E+01  0.81790626735E+03  0.10253740032E+04  0.40000000000E+03 0.  1.
   -9000007    1    1    2    0  503  0.47154597738E+03  0.80978729312E+01  0.23038989795E+03  0.65992476042E+03  0.40000000000E+03 0. -1.
<mgrwt>
<rscale>  2 0.61840212E+03</rscale>
<asrwt>0</asrwt>
<pdfrwt beam="1">  1       21 0.21027653E+00 0.61840212E+03</pdfrwt>
<pdfrwt beam="2">  1       21 0.49000201E-01 0.61840212E+03</pdfrwt>
<totfact> 0.34868750E+02</totfact>
</mgrwt>
</event>
<event>
 4    1  0.4675559E-002  0.8686933E+03  0.7818608E-02  0.9465585E-01
         21   -1    0    0  501  502  0.00000000000E+00  0.00000000000E+00  0.12915936498E+04  0.12915936498E+04  0.00000000000E+00 0. -1.
         21   -1    0    0  502  503 -0.00000000000E+00 -0.00000000000E+00 -0.72916235966E+03  0.72916235966E+03  0.00000000000E+00 0.  1.
    9000007    1    1    2  501    0  0.35695502383E+03 -0.68352844730E+03  0.73162533601E+03  0.11357392569E+04  0.40000000000E+03 0. -1.
   -9000007    1    1    2    0  503 -0.35695502383E+03  0.68352844730E+03 -0.16919404583E+03  0.88501675264E+03  0.40000000000E+03 0.  1.
<mgrwt>
<rscale>  2 0.86869329E+03</rscale>
<asrwt>0</asrwt>
<pdfrwt beam="1">  1       21 0.19870671E+00 0.86869329E+03</pdfrwt>
<pdfrwt beam="2">  1       21 0.11217882E+00 0.86869329E+03</pdfrwt>
<totfact> 0.56576750E+01</totfact>
</mgrwt>
</event>
<event>
 4    1  0.4675559E-002  0.5743088E+03  0.7818608E-02  0.9960189E-01
         21   -1    0    0  501  502  0.00000000000E+00  0.00000000000E+00  0.13023551663E+04  0.13023551663E+04  0.00000000000E+00 0.  1.
         21   -1    0    0  502  503 -0.00000000000E+00 -0.00000000000E+00 -0.50609014547E+03  0.50609014547E+03  0.00000000000E+00 0.  1.
    9000007    1    1    2  501    0 -0.36180027945E+03  0.19730986979E+03  0.10372466196E+04  0.11856269130E+04  0.40000000000E+03 0.  1.
   -9000007    1    1    2    0  503  0.36180027945E+03 -0.19730986979E+03 -0.24098159876E+03  0.62281839879E+03  0.40000000000E+03 0.  1.
<mgrwt>
<rscale>  2 0.57430883E+03</rscale>
<asrwt>0</asrwt>
<pdfrwt beam="1">  1       21 0.20036233E+00 0.57430883E+03</pdfrwt>
<pdfrwt beam="2">  1       21 0.77860023E-01 0.57430883E+03</pdfrwt>
<totfact> 0.14786411E+02</totfact>
</mgrwt>
</event>
<event>
 4    1  0.4675559E-002  0.4547742E+03  0.7818608E-02  0.1026308E+00
         21   -1    0    0  501  502  0.00000000000E+00  0.00000000000E+00  0.29140446625E+03  0.29140446625E+03  0.00000000000E+00 0. -1.
         21   -1    0    0  502  503 -0.00000000000E+00 -0.00000000000E+00 -0.73852627131E+03  0.73852627131E+03  0.00000000000E+00 0. -1.
    9000007    1    1    2  501    0 -0.92191549048E+02 -0.19575574043E+03 -0.12188109486E+03  0.47082331390E+03  0.40000000000E+03 0. -1.
   -9000007    1    1    2    0  503  0.92191549048E+02  0.19575574043E+03 -0.32524071019E+03  0.55910742366E+03  0.40000000000E+03 0. -1.
<mgrwt>
<rscale>  2 0.45477422E+03</rscale>
<asrwt>0</asrwt>
<pdfrwt beam="1">  1       21 0.44831456E-01 0.45477422E+03</pdfrwt>
<pdfrwt beam="2">  1       21 0.11361943E+00 0.45477422E+03</pdfrwt>
<totfact> 0.24895491E+03</totfact>
</mgrwt>
</event>
<event>
 4    1  0.4675559E-002  0.5389690E+03  0.7818608E-02  0.1004080E+00
         21   -1    0    0  503  502  0.00000000000E+00  0.00000000000E+00  0.64939621864E+03  0.64939621864E+03  0.00000000000E+00 0.  1.
         21   -1    0    0  501  503 -0.00000000000E+00 -0.00000000000E+00 -0.64048690489E+03  0.64048690489E+03  0.00000000000E+00 0.  1.
    9000007    1    1    2  501    0  0.22881132634E+03  0.27952281412E+03  0.35864123523E+03  0.64738795346E+03  0.40000000000E+03 0.  1.
   -9000007    1    1    2    0  502 -0.22881132634E+03 -0.27952281412E+03 -0.34973192147E+03  0.64249517007E+03  0.40000000000E+03 0.  1.
<mgrwt>
<rscale>  2 0.53896904E+03</rscale>
<asrwt>0</asrwt>
<pdfrwt beam="1">  1       21 0.99907111E-01 0.53896904E+03</pdfrwt>
<pdfrwt beam="2">  1       21 0.98536447E-01 0.53896904E+03</pdfrwt>
<totfact> 0.56690588E+02</totfact>
</mgrwt>
</event>
<event>
 4    1  0.4675559E-002  0.4554004E+03  0.7818608E-02  0.1026124E+00
         21   -1    0    0  501  502  0.00000000000E+00  0.00000000000E+00  0.34090337064E+03  0.34090337064E+03  0.00000000000E+00 0.  1.
         21   -1    0    0  502  503 -0.00000000000E+00 -0.00000000000E+00 -0.61213864745E+03  0.61213864745E+03  0.00000000000E+00 0.  1.
    9000007    1    1    2  501    0 -0.12166509142E+03 -0.18051905274E+03 -0.17309234444E+03  0.48718629145E+03  0.40000000000E+03 0.  1.
   -9000007    1    1    2    0  503  0.12166509142E+03  0.18051905274E+03 -0.98142932359E+02  0.46585572664E+03  0.40000000000E+03 0.  1.
<mgrwt>
<rscale>  2 0.45540040E+03</rscale>
<asrwt>0</asrwt>
<pdfrwt beam="1">  1       21 0.52446673E-01 0.45540040E+03</pdfrwt>
<pdfrwt beam="2">  1       21 0.94175175E-01 0.45540040E+03</pdfrwt>
<totfact> 0.28271161E+03</totfact>
</mgrwt>
</event>
<event>
 4    1  0.4675559E-002  0.6418196E+03  0.7818608E-02  0.9822251E-01
         21   -1    0    0  503  502  0.00000000000E+00  0.00000000000E+00  0.21668729001E+03  0.21668729001E+03  0.00000000000E+00 0. -1.
         21   -1    0    0  501  503 -0.00000000000E+00 -0.00000000000E+00 -0.20445933793E+04  0.20445933793E+04  0.00000000000E+00 0. -1.
    9000007    1    1    2  501    0 -0.50092476774E+03  0.31728817130E+02 -0.61436823662E+03  0.88847097361E+03  0.40000000000E+03 0. -1.
   -9000007    1    1    2    0  502  0.50092476774E+03 -0.31728817130E+02 -0.12135378526E+04  0.13728096957E+04  0.40000000000E+03 0. -1.
<mgrwt>
<rscale>  2 0.64181955E+03</rscale>
<asrwt>0</asrwt>
<pdfrwt beam="1">  1       21 0.33336507E-01 0.64181955E+03</pdfrwt>
<pdfrwt beam="2">  1       21 0.31455282E+00 0.64181955E+03</pdfrwt>
<totfact> 0.17218627E+02</totfact>
</mgrwt>
</event>
<event>
 4    1  0.4675559E-002  0.4470851E+03  0.7818608E-02  0.1028595E+00
         21   -1    0    0  503  502  0.00000000000E+00  0.00000000000E+00  0.22066278914E+03  0.22066278914E+03  0.00000000000E+00 0. -1.
         21   -1    0    0  501  503 -0.00000000000E+00 -0.00000000000E+00 -0.10687698776E+04  0.10687698776E+04  0.00000000000E+00 0. -1.
    9000007    1    1    2  501    0 -0.14612813854E+03  0.13613110115E+03 -0.67577913382E+03  0.81028547270E+03  0.40000000000E+03 0. -1.
   -9000007    1    1    2    0  502  0.14612813854E+03 -0.13613110115E+03 -0.17232795461E+03  0.47914719399E+03  0.40000000000E+03 0. -1.
<mgrwt>
<rscale>  2 0.44708513E+03</rscale>
<asrwt>0</asrwt>
<pdfrwt beam="1">  1       21 0.33948122E-01 0.44708513E+03</pdfrwt>
<pdfrwt beam="2">  1       21 0.16442613E+00 0.44708513E+03</pdfrwt>
<totfact> 0.16638949E+03</totfact>
</mgrwt>
</event>
<event>
 4    1  0.4675559E-002  0.5273601E+03  0.7818608E-02  0.1006874E+00
         21   -1    0    0  501  502  0.00000000000E+00  0.00000000000E+00  0.74504227854E+03  0.74504227854E+03  0.00000000000E+00 0.  1.
         21   -1    0    0  502  503 -0.00000000000E+00 -0.00000000000E+00 -0.67555660546E+03  0.67555660546E+03  0.00000000000E+00 0.  1.
    9000007    1    1    2  501    0  0.68959589866E+02  0.33667975277E+03  0.50987403137E+03  0.73353950733E+03  0.40000000000E+03 0.  1.
   -9000007    1    1    2    0  503 -0.68959589866E+02 -0.33667975277E+03 -0.44038835829E+03  0.68705937667E+03  0.40000000000E+03 0.  1.
<mgrwt>
<rscale>  2 0.52736011E+03</rscale>
<asrwt>0</asrwt>
<pdfrwt beam="1">  1       21 0.11462189E+00 0.52736011E+03</pdfrwt>
<pdfrwt beam="2">  1       21 0.10393178E+00 0.52736011E+03</pdfrwt>
<totfact> 0.35537938E+02</totfact>
</mgrwt>
</event>
<event>
 4    1  0.4675559E-002  0.4401890E+03  0.7818608E-02  0.1030689E+00
         21   -1    0    0  501  502  0.00000000000E+00  0.00000000000E+00  0.14564236973E+03  0.14564236973E+03  0.00000000000E+00 0.  1.
         21   -1    0    0  502  503 -0.00000000000E+00 -0.00000000000E+00 -0.15513705132E+04  0.15513705132E+04  0.00000000000E+00 0.  1.
    9000007    1    1    2  501    0  0.46562637090E+02 -0.17775916446E+03 -0.38265107229E+03  0.58325658406E+03  0.40000000000E+03 0.  1.
   -9000007    1    1    2    0  503 -0.46562637090E+02  0.17775916446E+03 -0.10230770712E+04  0.11137562989E+04  0.40000000000E+03 0.  1.
<mgrwt>
<rscale>  2 0.44018905E+03</rscale>
<asrwt>0</asrwt>
<pdfrwt beam="1">  1       21 0.22406517E-01 0.44018905E+03</pdfrwt>
<pdfrwt beam="2">  1       21 0.23867240E+00 0.44018905E+03</pdfrwt>
<totfact> 0.12026547E+03</totfact>
</mgrwt>
</event>
<event>
 4    1  0.4675559E-002  0.4041653E+03  0.7818608E-02  0.1042347E+00
         21   -1    0    0  501  502  0.00000000000E+00  0.00000000000E+00  0.45682321268E+03  0.45682321268E+03  0.00000000000E+00 0.  1.
         21   -1    0    0  502  503 -0.00000000000E+00 -0.00000000000E+00 -0.43967927990E+03  0.43967927990E+03  0.00000000000E+00 0.  1.
    9000007    1    1    2  501    0 -0.56315938712E+02 -0.13345382330E+02  0.20227234789E+03  0.45195540367E+03  0.40000000000E+03 0.  1.
   -9000007    1    1    2    0  503  0.56315938712E+02  0.13345382330E+02 -0.18512841510E+03  0.44454708891E+03  0.40000000000E+03 0.  1.
<mgrwt>
<rscale>  2 0.40416529E+03</rscale>
<asrwt>0</asrwt>
<pdfrwt beam="1">  1       21 0.70280494E-01 0.40416529E+03</pdfrwt>
<pdfrwt beam="2">  1       21 0.67642966E-01 0.40416529E+03</pdfrwt>
<totfact> 0.32544641E+03</totfact>
</mgrwt>
</event>
<event>
 4    1  0.4675559E-002  0.7081601E+03  0.7818608E-02  0.9703378E-01
         21   -1    0    0  503  502  0.00000000000E+00  0.00000000000E+00  0.10351660515E+04  0.10351660515E+04  0.00000000000E+00 0.  1.
         21   -1    0    0  501  503 -0.00000000000E+00 -0.00000000000E+00 -0.48785122931E+03  0.48785122931E+03  0.00000000000E+00 0. -1.
    9000007    1    1    2  501    0 -0.32820924137E+03 -0.48349705142E+03  0.21011397659E+03  0.73867353277E+03  0.40000000000E+03 0. -1.
   -9000007    1    1    2    0  502  0.32820924137E+03  0.48349705142E+03  0.33720084565E+03  0.78434374808E+03  0.40000000000E+03 0.  1.
<mgrwt>
<rscale>  2 0.70816008E+03</rscale>
<asrwt>0</asrwt>
<pdfrwt beam="1">  1       21 0.15925632E+00 0.70816008E+03</pdfrwt>
<pdfrwt beam="2">  1       21 0.75054036E-01 0.70816008E+03</pdfrwt>
<totfact> 0.30237300E+02</totfact>
</mgrwt>
</event>
<event>
 4    1  0.4675559E-002  0.4433545E+03  0.7818608E-02  0.1029723E+00
         21   -1    0    0  501  502  0.00000000000E+00  0.00000000000E+00  0.20990498081E+03  0.20990498081E+03  0.00000000000E+00 0. -1.
         21   -1    0    0  502  503 -0.00000000000E+00 -0.00000000000E+00 -0.16580684269E+04  0.16580684269E+04  0.00000000000E+00 0. -1.
    9000007    1    1    2  501    0  0.10003528614E+02  0.19095332099E+03 -0.10791740926E+03  0.45629969165E+03  0.40000000000E+03 0. -1.
   -9000007    1    1    2    0  503 -0.10003528614E+02 -0.19095332099E+03 -0.13402460368E+04  0.14116737160E+04  0.40000000000E+03 0. -1.
<mgrwt>
<rscale>  2 0.44335453E+03</rscale>
<asrwt>0</asrwt>
<pdfrwt beam="1">  1       21 0.32293073E-01 0.44335453E+03</pdfrwt>
<pdfrwt beam="2">  1       21 0.25508746E+00 0.44335453E+03</pdfrwt>
<totfact> 0.46444627E+02</totfact>
</mgrwt>
</event>
<event>
 4    1  0.4675559E-002  0.4227587E+03  0.7818608E-02  0.1036172E+00
         21   -1    0    0  503  502  0.00000000000E+00  0.00000000000E+00  0.43353667309E+03  0.43353667309E+03  0.00000000000E+00 0. -1.
         21   -1    0    0  501  503 -0.00000000000E+00 -0.00000000000E+00 -0.42613006053E+03  0.42613006053E+03  0.00000000000E+00 0. -1.
    9000007    1    1    2  501    0  0.59351475534E+02 -0.12329767242E+03 -0.73875955301E+02  0.42916496880E+03  0.40000000000E+03 0. -1.
   -9000007    1    1    2    0  502 -0.59351475534E+02  0.12329767242E+03  0.81282567868E+02  0.43050176482E+03  0.40000000000E+03 0. -1.
<mgrwt>
<rscale>  2 0.42275869E+03</rscale>
<asrwt>0</asrwt>
<pdfrwt beam="1">  1       21 0.66697949E-01 0.42275869E+03</pdfrwt>
<pdfrwt beam="2">  1       21 0.65558471E-01 0.42275869E+03</pdfrwt>
<totfact> 0.38956724E+03</totfact>
</mgrwt>
</event>
<event>
 4    1  0.4675559E-002  0.5036979E+03  0.7818608E-02  0.1012818E+00
         21   -1    0    0  503  502  0.00000000000E+00  0.00000000000E+00  0.10729396273E+04  0.10729396273E+04  0.00000000000E+00 0. -1.
         21   -1    0    0  501  503 -0.00000000000E+00 -0.00000000000E+00 -0.45367180843E+03  0.45367180843E+03  0.00000000000E+00 0. -1.
    9000007    1    1    2  501    0  0.30459478567E+03  0.30554330640E+02 -0.21852593435E+03  0.54905840724E+03  0.40000000000E+03 0. -1.
   -9000007    1    1    2    0  502 -0.30459478567E+03 -0.30554330640E+02  0.83779375321E+03  0.97755302848E+03  0.40000000000E+03 0. -1.
<mgrwt>
<rscale>  2 0.50369788E+03</rscale>
<asrwt>0</asrwt>
<pdfrwt beam="1">  1       21 0.16506763E+00 0.50369788E+03</pdfrwt>
<pdfrwt beam="2">  1       21 0.69795663E-01 0.50369788E+03</pdfrwt>
<totfact> 0.34699258E+02</totfact>
</mgrwt>
</event>
<event>
 4    1  0.4675559E-002  0.4246784E+03  0.7818608E-02  0.1035554E+00
         21   -1    0    0  501  502  0.00000000000E+00  0.00000000000E+00  0.61442402975E+03  0.61442402975E+03  0.00000000000E+00 0.  1.
         21   -1    0    0  502  503 -0.00000000000E+00 -0.00000000000E+00 -0.29467033332E+03  0.29467033332E+03  0.00000000000E+00 0.  1.
    9000007    1    1    2  501    0  0.13419509574E+03 -0.48408875124E+02  0.13159740583E+03  0.44460051747E+03  0.40000000000E+03 0.  1.
   -9000007    1    1    2    0  503 -0.13419509574E+03  0.48408875124E+02  0.18815629061E+03  0.46449384561E+03  0.40000000000E+03 0.  1.
<mgrwt>
<rscale>  2 0.42467840E+03</rscale>
<asrwt>0</asrwt>
<pdfrwt beam="1">  1       21 0.94526773E-01 0.42467840E+03</pdfrwt>
<pdfrwt beam="2">  1       21 0.45333898E-01 0.42467840E+03</pdfrwt>
<totfact> 0.38579494E+03</totfact>
</mgrwt>
</event>
<event>
 4    1  0.4675559E-002  0.4465124E+03  0.7818608E-02  0.1028767E+00
         21   -1    0    0  503  502  0.00000000000E+00  0.00000000000E+00  0.43211051102E+03  0.43211051102E+03  0.00000000000E+00 0. -1.
         21   -1    0    0  501  503 -0.00000000000E+00 -0.00000000000E+00 -0.74605888071E+03  0.74605888071E+03  0.00000000000E+00 0. -1.
    9000007    1    1    2  501    0 -0.19838765386E+03 -0.39522354553E+01 -0.52085401627E+03  0.68604824002E+03  0.40000000000E+03 0. -1.
   -9000007    1    1    2    0  502  0.19838765386E+03  0.39522354553E+01  0.20690564658E+03  0.49212115170E+03  0.40000000000E+03 0. -1.
<mgrwt>
<rscale>  2 0.44651235E+03</rscale>
<asrwt>0</asrwt>
<pdfrwt beam="1">  1       21 0.66478541E-01 0.44651235E+03</pdfrwt>
<pdfrwt beam="2">  1       21 0.11477829E+00 0.44651235E+03</pdfrwt>
<totfact> 0.10402836E+03</totfact>
</mgrwt>
</event>
<event>
 4    1  0.4675559E-002  0.5674284E+03  0.7818608E-02  0.9975385E-01
         21   -1    0    0  503  502  0.00000000000E+00  0.00000000000E+00  0.26267066416E+03  0.26267066416E+03  0.00000000000E+00 0. -1.
         21   -1    0    0  501  503 -0.00000000000E+00 -0.00000000000E+00 -0.23064208789E+04  0.23064208789E+04  0.00000000000E+00 0. -1.
    9000007    1    1    2  501    0 -0.39671686987E+03  0.67754731924E+02 -0.19011448382E+04  0.19840178109E+04  0.40000000000E+03 0. -1.
   -9000007    1    1    2    0  502  0.39671686987E+03 -0.67754731924E+02 -0.14260537655E+03  0.58507373207E+03  0.40000000000E+03 0. -1.
<mgrwt>
<rscale>  2 0.56742839E+03</rscale>
<asrwt>0</asrwt>
<pdfrwt beam="1">  1       21 0.40410870E-01 0.56742839E+03</pdfrwt>
<pdfrwt beam="2">  1       21 0.35483399E+00 0.56742839E+03</pdfrwt>
<totfact> 0.67956532E+01</totfact>
</mgrwt>
</event>
<event>
 4    1  0.4675559E-002  0.5327858E+03  0.7818608E-02  0.1005559E+00
         21   -1    0    0  501  502  0.00000000000E+00  0.00000000000E+00  0.12281848583E+03  0.12281848583E+03  0.00000000000E+00 0. -1.
         21   -1    0    0  502  503 -0.00000000000E+00 -0.00000000000E+00 -0.28283603675E+04  0.28283603675E+04  0.00000000000E+00 0. -1.
    9000007    1    1    2  501    0  0.22726180359E+03  0.26872435472E+03 -0.72181095573E+03  0.89714645516E+03  0.40000000000E+03 0. -1.
   -9000007    1    1    2    0  503 -0.22726180359E+03 -0.26872435472E+03 -0.19837309259E+04  0.20540323981E+04  0.40000000000E+03 0. -1.
<mgrwt>
<rscale>  2 0.53278580E+03</rscale>
<asrwt>0</asrwt>
<pdfrwt beam="1">  1       21 0.18895152E-01 0.53278580E+03</pdfrwt>
<pdfrwt beam="2">  1       21 0.43513236E+00 0.53278580E+03</pdfrwt>
<totfact> 0.95002272E+01</totfact>
</mgrwt>
</event>
<event>
 4    1  0.4675559E-002  0.4537244E+03  0.7818608E-02  0.1026617E+00
         21   -1    0    0  501  502  0.00000000000E+00  0.00000000000E+00  0.21464303845E+03  0.21464303845E+03  0.00000000000E+00 0.  1.
         21   -1    0    0  502  503 -0.00000000000E+00 -0.00000000000E+00 -0.10068451078E+04  0.10068451078E+04  0.00000000000E+00 0.  1.
    9000007    1    1    2  501    0 -0.21235082363E+03 -0.27802319606E+02 -0.26311492593E+03  0.52449528646E+03  0.40000000000E+03 0.  1.
   -9000007    1    1    2    0  503  0.21235082363E+03  0.27802319606E+02 -0.52908714347E+03  0.69699285983E+03  0.40000000000E+03 0.  1.
<mgrwt>
<rscale>  2 0.45372441E+03</rscale>
<asrwt>0</asrwt>
<pdfrwt beam="1">  1       21 0.33022006E-01 0.45372441E+03</pdfrwt>
<pdfrwt beam="2">  1       21 0.15489925E+00 0.45372441E+03</pdfrwt>
<totfact> 0.20715938E+03</totfact>
</mgrwt>
</event>
<event>
 4    1  0.4675559E-002  0.5221629E+03  0.7818608E-02  0.1008151E+00
         21   -1    0    0  501  502  0.00000000000E+00  0.00000000000E+00  0.37538237089E+03  0.37538237089E+03  0.00000000000E+00 0.  1.
         21   -1    0    0  502  503 -0.00000000000E+00 -0.00000000000E+00 -0.14411225022E+04  0.14411225022E+04  0.00000000000E+00 0. -1.
    9000007    1    1    2  501    0  0.60449723723E+02  0.33015140738E+03  0.10678225043E+03  0.53296957690E+03  0.40000000000E+03 0.  1.
   -9000007    1    1    2    0  503 -0.60449723723E+02 -0.33015140738E+03 -0.11725223817E+04  0.12835352962E+04  0.40000000000E+03 0. -1.
<mgrwt>
<rscale>  2 0.52216293E+03</rscale>
<asrwt>0</asrwt>
<pdfrwt beam="1">  1       21 0.57751133E-01 0.52216293E+03</pdfrwt>
<pdfrwt beam="2">  1       21 0.22171116E+00 0.52216293E+03</pdfrwt>
<totfact> 0.21436240E+02</totfact>
</mgrwt>
</event>
<event>
 4    1  0.4675559E-002  0.4282942E+03  0.7818608E-02  0.1034400E+00
         21   -1    0    0  503  502  0.00000000000E+00  0.00000000000E+00  0.10660604757E+04  0.10660604757E+04  0.00000000000E+00 0. -1.
         21   -1    0    0  501  503 -0.00000000000E+00 -0.00000000000E+00 -0.34629265577E+03  0.34629265577E+03  0.00000000000E+00 0. -1.
    9000007    1    1    2  501    0  0.14160406812E+03 -0.58174297467E+02 -0.14100938826E+03  0.45090975657E+03  0.40000000000E+03 0. -1.
   -9000007    1    1    2    0  502 -0.14160406812E+03  0.58174297467E+02  0.86077720823E+03  0.96144337494E+03  0.40000000000E+03 0. -1.
<mgrwt>
<rscale>  2 0.42829425E+03</rscale>
<asrwt>0</asrwt>
<pdfrwt beam="1">  1       21 0.16400930E+00 0.42829425E+03</pdfrwt>
<pdfrwt beam="2">  1       21 0.53275794E-01 0.42829425E+03</pdfrwt>
<totfact> 0.66251705E+02</totfact>
</mgrwt>
</event>
<event>
 4    1  0.4675559E-002  0.4991494E+03  0.7818608E-02  0.1014001E+00
         21   -1    0    0  503  502  0.00000000000E+00  0.00000000000E+00  0.33332141736E+03  0.33332141736E+03  0.00000000000E+00 0. -1.
         21   -1    0    0  501  503 -0.00000000000E+00 -0.00000000000E+00 -0.79787560545E+03  0.79787560545E+03  0.00000000000E+00 0. -1.
    9000007    1    1    2  501    0 -0.12728714300E+03 -0.27008899802E+03 -0.90126052444E+02  0.50722065115E+03  0.40000000000E+03 0. -1.
   -9000007    1    1    2    0  502  0.12728714300E+03  0.27008899802E+03 -0.37442813564E+03  0.62397637166E+03  0.40000000000E+03 0. -1.
<mgrwt>
<rscale>  2 0.49914936E+03</rscale>
<asrwt>0</asrwt>
<pdfrwt beam="1">  1       21 0.51280218E-01 0.49914936E+03</pdfrwt>
<pdfrwt beam="2">  1       21 0.12275009E+00 0.49914936E+03</pdfrwt>
<totfact> 0.15157280E+03</totfact>
</mgrwt>
</event>
<event>
 4    1  0.4675559E-002  0.4760629E+03  0.7818608E-02  0.1020223E+00
         21   -1    0    0  503  502  0.00000000000E+00  0.00000000000E+00  0.96530874343E+03  0.96530874343E+03  0.00000000000E+00 0.  1.
         21   -1    0    0  501  503 -0.00000000000E+00 -0.00000000000E+00 -0.47137266443E+03  0.47137266443E+03  0.00000000000E+00 0.  1.
    9000007    1    1    2  501    0  0.11000814414E+03  0.23352533857E+03 -0.26195048792E+03  0.54337273915E+03  0.40000000000E+03 0.  1.
   -9000007    1    1    2    0  502 -0.11000814414E+03 -0.23352533857E+03  0.75588656692E+03  0.89330866870E+03  0.40000000000E+03 0.  1.
<mgrwt>
<rscale>  2 0.47606289E+03</rscale>
<asrwt>0</asrwt>
<pdfrwt beam="1">  1       21 0.14850904E+00 0.47606289E+03</pdfrwt>
<pdfrwt beam="2">  1       21 0.72518872E-01 0.47606289E+03</pdfrwt>
<totfact> 0.43164081E+02</totfact>
</mgrwt>
</event>
<event>
 4    1  0.4675559E-002  0.4300762E+03  0.7818608E-02  0.1033836E+00
         21   -1    0    0  503  502  0.00000000000E+00  0.00000000000E+00  0.62118101491E+03  0.62118101491E+03  0.00000000000E+00 0.  1.
         21   -1    0    0  501  503 -0.00000000000E+00 -0.00000000000E+00 -0.51133119529E+03  0.51133119529E+03  0.00000000000E+00 0.  1.
    9000007    1    1    2  501    0 -0.45877616196E+02 -0.15119778932E+03 -0.31103096614E+03  0.53075963398E+03  0.40000000000E+03 0.  1.
   -9000007    1    1    2    0  502  0.45877616196E+02  0.15119778932E+03  0.42088078576E+03  0.60175257622E+03  0.40000000000E+03 0.  1.
<mgrwt>
<rscale>  2 0.43007619E+03</rscale>
<asrwt>0</asrwt>
<pdfrwt beam="1">  1       21 0.95566310E-01 0.43007619E+03</pdfrwt>
<pdfrwt beam="2">  1       21 0.78666338E-01 0.43007619E+03</pdfrwt>
<totfact> 0.11215011E+03</totfact>
</mgrwt>
</event>
<event>
 4    1  0.4675559E-002  0.4762280E+03  0.7818608E-02  0.1020177E+00
         21   -1    0    0  501  502  0.00000000000E+00  0.00000000000E+00  0.29682067930E+03  0.29682067930E+03  0.00000000000E+00 0.  1.
         21   -1    0    0  502  503 -0.00000000000E+00 -0.00000000000E+00 -0.10943887991E+04  0.10943887991E+04  0.00000000000E+00 0. -1.
    9000007    1    1    2  501    0 -0.65477783759E+02  0.25001146559E+03 -0.16628232729E+02  0.47651817512E+03  0.40000000000E+03 0.  1.
   -9000007    1    1    2    0  503  0.65477783759E+02 -0.25001146559E+03 -0.78093988710E+03  0.91469130331E+03  0.40000000000E+03 0. -1.
<mgrwt>
<rscale>  2 0.47622796E+03</rscale>
<asrwt>0</asrwt>
<pdfrwt beam="1">  1       21 0.45664719E-01 0.47622796E+03</pdfrwt>
<pdfrwt beam="2">  1       21 0.16836751E+00 0.47622796E+03</pdfrwt>
<totfact> 0.83521594E+02</totfact>
</mgrwt>
</event>
<event>
 4    1  0.4675559E-002  0.4048515E+03  0.7818608E-02  0.1042113E+00
         21   -1    0    0  501  502  0.00000000000E+00  0.00000000000E+00  0.20773007531E+04  0.20773007531E+04  0.00000000000E+00 0. -1.
         21   -1    0    0  502  503 -0.00000000000E+00 -0.00000000000E+00 -0.12181720489E+03  0.12181720489E+03  0.00000000000E+00 0. -1.
    9000007    1    1    2  501    0 -0.47068341278E+02 -0.41101013467E+02  0.16303703156E+04  0.16798845460E+04  0.40000000000E+03 0. -1.
   -9000007    1    1    2    0  503  0.47068341278E+02  0.41101013467E+02  0.32511323261E+03  0.51923341194E+03  0.40000000000E+03 0. -1.
<mgrwt>
<rscale>  2 0.40485148E+03</rscale>
<asrwt>0</asrwt>
<pdfrwt beam="1">  1       21 0.31958471E+00 0.40485148E+03</pdfrwt>
<pdfrwt beam="2">  1       21 0.18741110E-01 0.40485148E+03</pdfrwt>
<totfact> 0.55920823E+02</totfact>
</mgrwt>
</event>
<event>
 4    1  0.4675559E-002  0.4906701E+03  0.7818608E-02  0.1016243E+00
         21   -1    0    0  503  502  0.00000000000E+00  0.00000000000E+00  0.12859217186E+04  0.12859217186E+04  0.00000000000E+00 0. -1.
         21   -1    0    0  501  503 -0.00000000000E+00 -0.00000000000E+00 -0.38679316633E+03  0.38679316633E+03  0.00000000000E+00 0. -1.
    9000007    1    1    2  501    0 -0.10145061985E+03  0.26545232774E+03 -0.15119123424E+03  0.51343544471E+03  0.40000000000E+03 0. -1.
   -9000007    1    1    2    0  502  0.10145061985E+03 -0.26545232774E+03  0.10503197865E+04  0.11592794402E+04  0.40000000000E+03 0. -1.
<mgrwt>
<rscale>  2 0.49067012E+03</rscale>
<asrwt>0</asrwt>
<pdfrwt beam="1">  1       21 0.19783411E+00 0.49067012E+03</pdfrwt>
<pdfrwt beam="2">  1       21 0.59506641E-01 0.49067012E+03</pdfrwt>
<totfact> 0.29221385E+02</totfact>
</mgrwt>
</event>
<event>
 4    1  0.4675559E-002  0.5269474E+03  0.7818608E-02  0.1006975E+00
         21   -1    0    0  503  502  0.00000000000E+00  0.00000000000E+00  0.14727358817E+04  0.14727358817E+04  0.00000000000E+00 0.  1.
         21   -1    0    0  501  503 -0.00000000000E+00 -0.00000000000E+00 -0.44989980962E+03  0.44989980962E+03  0.00000000000E+00 0.  1.
    9000007    1    1    2  501    0  0.31009031331E+03  0.14668868738E+03 -0.22128210282E+03  0.57152370243E+03  0.40000000000E+03 0.  1.
   -9000007    1    1    2    0  502 -0.31009031331E+03 -0.14668868738E+03  0.12441181749E+04  0.13511119889E+04  0.40000000000E+03 0.  1.
<mgrwt>
<rscale>  2 0.52694741E+03</rscale>
<asrwt>0</asrwt>
<pdfrwt beam="1">  1       21 0.22657475E+00 0.52694741E+03</pdfrwt>
<pdfrwt beam="2">  1       21 0.69215356E-01 0.52694741E+03</pdfrwt>
<totfact> 0.13321292E+02</totfact>
</mgrwt>
</event>
<event>
 4    1  0.4675559E-002  0.4943947E+03  0.7818608E-02  0.1015252E+00
         21   -1    0    0  503  502  0.00000000000E+00  0.00000000000E+00  0.11634134552E+04  0.11634134552E+04  0.00000000000E+00 0. -1.
         21   -1    0    0  501  503 -0.00000000000E+00 -0.00000000000E+00 -0.21201117484E+03  0.21201117484E+03  0.00000000000E+00 0. -1.
    9000007    1    1    2  501    0 -0.17268276582E+03 -0.23368086939E+03  0.41030260317E+03  0.64247514543E+03  0.40000000000E+03 0. -1.
   -9000007    1    1    2    0  502  0.17268276582E+03  0.23368086939E+03  0.54109967721E+03  0.73294948462E+03  0.40000000000E+03 0. -1.
<mgrwt>
<rscale>  2 0.49439467E+03</rscale>
<asrwt>0</asrwt>
<pdfrwt beam="1">  1       21 0.17898668E+00 0.49439467E+03</pdfrwt>
<pdfrwt beam="2">  1       21 0.32617104E-01 0.49439467E+03</pdfrwt>
<totfact> 0.13872600E+03</totfact>
</mgrwt>
</event>
<event>
 4    1  0.4675559E-002  0.4239194E+03  0.7818608E-02  0.1035798E+00
         21   -1    0    0  503  502  0.00000000000E+00  0.00000000000E+00  0.41449277430E+03  0.41449277430E+03  0.00000000000E+00 0.  1.
         21   -1    0    0  501  503 -0.00000000000E+00 -0.00000000000E+00 -0.63301846185E+03  0.63301846185E+03  0.00000000000E+00 0.  1.
    9000007    1    1    2  501    0 -0.92016702463E+02 -0.10602144906E+03 -0.40326220528E+03  0.58508805098E+03  0.40000000000E+03 0.  1.
   -9000007    1    1    2    0  502  0.92016702463E+02  0.10602144906E+03  0.18473651774E+03  0.46242318517E+03  0.40000000000E+03 0.  1.
<mgrwt>
<rscale>  2 0.42391936E+03</rscale>
<asrwt>0</asrwt>
<pdfrwt beam="1">  1       21 0.63768119E-01 0.42391936E+03</pdfrwt>
<pdfrwt beam="2">  1       21 0.97387455E-01 0.42391936E+03</pdfrwt>
<totfact> 0.17250840E+03</totfact>
</mgrwt>
</event>
<event>
 4    1  0.4675559E-002  0.4175464E+03  0.7818608E-02  0.1037868E+00
         21   -1    0    0  501  502  0.00000000000E+00  0.00000000000E+00  0.10183256993E+04  0.10183256993E+04  0.00000000000E+00 0. -1.
         21   -1    0    0  502  503 -0.00000000000E+00 -0.00000000000E+00 -0.17244139211E+03  0.17244139211E+03  0.00000000000E+00 0. -1.
    9000007    1    1    2  501    0 -0.11559810079E+03 -0.31338621077E+02  0.47330484974E+03  0.63115965560E+03  0.40000000000E+03 0. -1.
   -9000007    1    1    2    0  503  0.11559810079E+03  0.31338621077E+02  0.37257945740E+03  0.55960743576E+03  0.40000000000E+03 0. -1.
<mgrwt>
<rscale>  2 0.41754644E+03</rscale>
<asrwt>0</asrwt>
<pdfrwt beam="1">  1       21 0.15666549E+00 0.41754644E+03</pdfrwt>
<pdfrwt beam="2">  1       21 0.26529446E-01 0.41754644E+03</pdfrwt>
<totfact> 0.31441965E+03</totfact>
</mgrwt>
</event>
<event>
 4    1  0.4675559E-002  0.4955645E+03  0.7818608E-02  0.1014943E+00
         21   -1    0    0  503  502  0.00000000000E+00  0.00000000000E+00  0.52019755340E+03  0.52019755340E+03  0.00000000000E+00 0. -1.
         21   -1    0    0  501  503 -0.00000000000E+00 -0.00000000000E+00 -0.52277937804E+03  0.52277937804E+03  0.00000000000E+00 0. -1.
    9000007    1    1    2  501    0  0.23626241999E+03  0.17252327137E+03 -0.16366241449E+03  0.52189040629E+03  0.40000000000E+03 0. -1.
   -9000007    1    1    2    0  502 -0.23626241999E+03 -0.17252327137E+03  0.16108058985E+03  0.52108652515E+03  0.40000000000E+03 0. -1.
<mgrwt>
<rscale>  2 0.49556454E+03</rscale>
<asrwt>0</asrwt>
<pdfrwt beam="1">  1       21 0.80030393E-01 0.49556454E+03</pdfrwt>
<pdfrwt beam="2">  1       21 0.80427596E-01 0.49556454E+03</pdfrwt>
<totfact> 0.15779991E+03</totfact>
</mgrwt>
</event>
<event>
 4    1  0.4675559E-002  0.6510784E+03  0.7818608E-02  0.9804758E-01
         21   -1    0    0  501  502  0.00000000000E+00  0.00000000000E+00  0.78413705444E+03  0.78413705444E+03  0.00000000000E+00 0.  1.
         21   -1    0    0  502  503 -0.00000000000E+00 -0.00000000000E+00 -0.54060058911E+03  0.54060058911E+03  0.00000000000E+00 0.  1.
    9000007    1    1    2  501    0 -0.38622015448E+03  0.33872857136E+03  0.12317082733E+03  0.66262667128E+03  0.40000000000E+03 0.  1.
   -9000007    1    1    2    0  503  0.38622015448E+03 -0.33872857136E+03  0.12036563800E+03  0.66211097227E+03  0.40000000000E+03 0.  1.
<mgrwt>
<rscale>  2 0.65107838E+03</rscale>
<asrwt>0</asrwt>
<pdfrwt beam="1">  1       21 0.12063647E+00 0.65107838E+03</pdfrwt>
<pdfrwt beam="2">  1       21 0.83169322E-01 0.65107838E+03</pdfrwt>
<totfact> 0.51097231E+02</totfact>
</mgrwt>
</event>
<event>
 4    1  0.4675559E-002  0.4010450E+03  0.7818608E-02  0.1043418E+00
         21   -1    0    0  503  502  0.00000000000E+00  0.00000000000E+00  0.21025687980E+03  0.21025687980E+03  0.00000000000E+00 0.  1.
         21   -1    0    0  501  503 -0.00000000000E+00 -0.00000000000E+00 -0.11941579802E+04  0.11941579802E+04  0.00000000000E+00 0.  1.
    9000007    1    1    2  501    0  0.23859985670E+01 -0.28834045669E+02 -0.91293474092E+03  0.99713937659E+03  0.40000000000E+03 0.  1.
   -9000007    1    1    2    0  502 -0.23859985670E+01  0.28834045669E+02 -0.70966359446E+02  0.40727548337E+03  0.40000000000E+03 0.  1.
<mgrwt>
<rscale>  2 0.40104500E+03</rscale>
<asrwt>0</asrwt>
<pdfrwt beam="1">  1       21 0.32347213E-01 0.40104500E+03</pdfrwt>
<pdfrwt beam="2">  1       21 0.18371661E+00 0.40104500E+03</pdfrwt>
<totfact> 0.13612217E+03</totfact>
</mgrwt>
</event>
<event>
 4    1  0.4675559E-002  0.4915274E+03  0.7818608E-02  0.1016014E+00
         21   -1    0    0  501  502  0.00000000000E+00  0.00000000000E+00  0.18516881659E+04  0.18516881659E+04  0.00000000000E+00 0.  1.
         21   -1    0    0  502  503 -0.00000000000E+00 -0.00000000000E+00 -0.22914042868E+03  0.22914042868E+03  0.00000000000E+00 0.  1.
    9000007    1    1    2  501    0 -0.69364269458E+02 -0.27710606342E+03  0.14939862291E+04  0.15727663606E+04  0.40000000000E+03 0.  1.
   -9000007    1    1    2    0  503  0.69364269458E+02  0.27710606342E+03  0.12856150815E+03  0.50806223402E+03  0.40000000000E+03 0.  1.
<mgrwt>
<rscale>  2 0.49152739E+03</rscale>
<asrwt>0</asrwt>
<pdfrwt beam="1">  1       21 0.28487509E+00 0.49152739E+03</pdfrwt>
<pdfrwt beam="2">  1       21 0.35252375E-01 0.49152739E+03</pdfrwt>
<totfact> 0.25001871E+02</totfact>
</mgrwt>
</event>
<event>
 4    1  0.4675559E-002  0.4274130E+03  0.7818608E-02  0.1034680E+00
         21   -1    0    0  503  502  0.00000000000E+00  0.00000000000E+00  0.98036283558E+03  0.98036283558E+03  0.00000000000E+00 0. -1.
         21   -1    0    0  501  503 -0.00000000000E+00 -0.00000000000E+00 -0.21746689844E+03  0.21746689844E+03  0.00000000000E+00 0. -1.
    9000007    1    1    2  501    0  0.16161569518E+02  0.14973525392E+03  0.60803189350E+03  0.74322582443E+03  0.40000000000E+03 0. -1.
   -9000007    1    1    2    0  502 -0.16161569518E+02 -0.14973525392E+03  0.15486404364E+03  0.45460390958E+03  0.40000000000E+03 0. -1.
<mgrwt>
<rscale>  2 0.42741296E+03</rscale>
<asrwt>0</asrwt>
<pdfrwt beam="1">  1       21 0.15082505E+00 0.42741296E+03</pdfrwt>
<pdfrwt beam="2">  1       21 0.33456446E-01 0.42741296E+03</pdfrwt>
<totfact> 0.21932234E+03</totfact>
</mgrwt>
</event>
<event>
 4    1  0.4675559E-002  0.4423882E+03  0.7818608E-02  0.1030017E+00
         21   -1    0    0  501  502  0.00000000000E+00  0.00000000000E+00  0.64988969208E+03  0.64988969208E+03  0.00000000000E+00 0.  1.
         21   -1    0    0  502  503 -0.00000000000E+00 -0.00000000000E+00 -0.32906476392E+03  0.32906476392E+03  0.00000000000E+00 0.  1.
    9000007    1    1    2  501    0 -0.71480485455E+02  0.17492255598E+03  0.30300329497E+03  0.53620738260E+03  0.40000000000E+03 0.  1.
   -9000007    1    1    2    0  503  0.71480485455E+02 -0.17492255598E+03  0.17821633183E+02  0.44274707340E+03  0.40000000000E+03 0.  1.
<mgrwt>
<rscale>  2 0.44238825E+03</rscale>
<asrwt>0</asrwt>
<pdfrwt beam="1">  1       21 0.99983029E-01 0.44238825E+03</pdfrwt>
<pdfrwt beam="2">  1       21 0.50625349E-01 0.44238825E+03</pdfrwt>
<totfact> 0.26521633E+03</totfact>
</mgrwt>
</event>
<event>
 4    1  0.4675559E-002  0.4096449E+03  0.7818608E-02  0.1040490E+00
         21   -1    0    0  501  502  0.00000000000E+00  0.00000000000E+00  0.13546538978E+04  0.13546538978E+04  0.00000000000E+00 0.  1.
         21   -1    0    0  502  503 -0.00000000000E+00 -0.00000000000E+00 -0.20710813275E+03  0.20710813275E+03  0.00000000000E+00 0.  1.
    9000007    1    1    2  501    0  0.36990414930E+01 -0.88290909935E+02  0.10688035063E+04  0.11446177977E+04  0.40000000000E+03 0.  1.
   -9000007    1    1    2    0  503 -0.36990414930E+01  0.88290909935E+02  0.78742258729E+02  0.41714423284E+03  0.40000000000E+03 0.  1.
<mgrwt>
<rscale>  2 0.40964493E+03</rscale>
<asrwt>0</asrwt>
<pdfrwt beam="1">  1       21 0.20840829E+00 0.40964493E+03</pdfrwt>
<pdfrwt beam="2">  1       21 0.31862790E-01 0.40964493E+03</pdfrwt>
<totfact> 0.95363217E+02</totfact>
</mgrwt>
</event>
<event>
 4    1  0.4675559E-002  0.4494987E+03  0.7818608E-02  0.1027872E+00
         21   -1    0    0  501  502  0.00000000000E+00  0.00000000000E+00  0.77039405123E+03  0.77039405123E+03  0.00000000000E+00 0.  1.
         21   -1    0    0  502  503 -0.00000000000E+00 -0.00000000000E+00 -0.30440565505E+03  0.30440565505E+03  0.00000000000E+00 0.  1.
    9000007    1    1    2  501    0  0.10722680685E+03  0.17478985474E+03  0.43293919972E+03  0.62408767980E+03  0.40000000000E+03 0.  1.
   -9000007    1    1    2    0  503 -0.10722680685E+03 -0.17478985474E+03  0.33049196460E+02  0.45071202648E+03  0.40000000000E+03 0.  1.
<mgrwt>
<rscale>  2 0.44949870E+03</rscale>
<asrwt>0</asrwt>
<pdfrwt beam="1">  1       21 0.11852216E+00 0.44949870E+03</pdfrwt>
<pdfrwt beam="2">  1       21 0.46831640E-01 0.44949870E+03</pdfrwt>
<totfact> 0.20472861E+03</totfact>
</mgrwt>
</event>
<event>
 4    1  0.4675559E-002  0.4390720E+03  0.7818608E-02  0.1031032E+00
         21   -1    0    0  503  502  0.00000000000E+00  0.00000000000E+00  0.45379506011E+03  0.45379506011E+03  0.00000000000E+00 0. -1.
         21   -1    0    0  501  503 -0.00000000000E+00 -0.00000000000E+00 -0.43663318960E+03  0.43663318960E+03  0.00000000000E+00 0. -1.
    9000007    1    1    2  501    0 -0.57441032265E+02 -0.17171131906E+03 -0.64629216044E+02  0.44380309243E+03  0.40000000000E+03 0. -1.
   -9000007    1    1    2    0  502  0.57441032265E+02  0.17171131906E+03  0.81791086548E+02  0.44662515729E+03  0.40000000000E+03 0. -1.
<mgrwt>
<rscale>  2 0.43907203E+03</rscale>
<asrwt>0</asrwt>
<pdfrwt beam="1">  1       21 0.69814625E-01 0.43907203E+03</pdfrwt>
<pdfrwt beam="2">  1       21 0.67174337E-01 0.43907203E+03</pdfrwt>
<totfact> 0.33117938E+03</totfact>
</mgrwt>
</event>
<event>
 4    1  0.4675559E-002  0.4765418E+03  0.7818608E-02  0.1020090E+00
         21   -1    0    0  503  502  0.00000000000E+00  0.00000000000E+00  0.12513345144E+04  0.12513345144E+04  0.00000000000E+00 0.  1.
         21   -1    0    0  501  503 -0.00000000000E+00 -0.00000000000E+00 -0.11275518432E+04  0.11275518432E+04  0.00000000000E+00 0. -1.
    9000007    1    1    2  501    0  0.14725981620E+03  0.21308831950E+03 -0.10276344621E+04  0.11327509316E+04  0.40000000000E+03 0. -1.
   -9000007    1    1    2    0  502 -0.14725981620E+03 -0.21308831950E+03  0.11514171333E+04  0.12461354261E+04  0.40000000000E+03 0.  1.
<mgrwt>
<rscale>  2 0.47654180E+03</rscale>
<asrwt>0</asrwt>
<pdfrwt beam="1">  1       21 0.19251300E+00 0.47654180E+03</pdfrwt>
<pdfrwt beam="2">  1       21 0.17346952E+00 0.47654180E+03</pdfrwt>
<totfact> 0.22782298E+01</totfact>
</mgrwt>
</event>
<event>
 4    1  0.4675559E-002  0.4393205E+03  0.7818608E-02  0.1030955E+00
         21   -1    0    0  501  502  0.00000000000E+00  0.00000000000E+00  0.46617098608E+03  0.46617098608E+03  0.00000000000E+00 0.  1.
         21   -1    0    0  502  503 -0.00000000000E+00 -0.00000000000E+00 -0.42271738052E+03  0.42271738052E+03  0.00000000000E+00 0. -1.
    9000007    1    1    2  501    0 -0.16635009750E+03  0.73008110634E+02  0.85490077471E+02  0.44756127234E+03  0.40000000000E+03 0.  1.
   -9000007    1    1    2    0  503  0.16635009750E+03 -0.73008110634E+02 -0.42036471916E+02  0.44132709426E+03  0.40000000000E+03 0. -1.
<mgrwt>
<rscale>  2 0.43932054E+03</rscale>
<asrwt>0</asrwt>
<pdfrwt beam="1">  1       21 0.71718613E-01 0.43932054E+03</pdfrwt>
<pdfrwt beam="2">  1       21 0.65033443E-01 0.43932054E+03</pdfrwt>
<totfact> 0.33497061E+03</totfact>
</mgrwt>
</event>
<event>
 4    1  0.4675559E-002  0.4086911E+03  0.7818608E-02  0.1040811E+00
         21   -1    0    0  501  502  0.00000000000E+00  0.00000000000E+00  0.26029601702E+03  0.26029601702E+03  0.00000000000E+00 0.  1.
         21   -1    0    0  502  503 -0.00000000000E+00 -0.00000000000E+00 -0.20203609204E+04  0.20203609204E+04  0.00000000000E+00 0.  1.
    9000007    1    1    2  501    0  0.83822939314E+02  0.14732986087E+01  0.61957643997E+02  0.41336086585E+03  0.40000000000E+03 0.  1.
   -9000007    1    1    2    0  503 -0.83822939314E+02 -0.14732986087E+01 -0.18220225473E+04  0.18672960715E+04  0.40000000000E+03 0.  1.
<mgrwt>
<rscale>  2 0.40869115E+03</rscale>
<asrwt>0</asrwt>
<pdfrwt beam="1">  1       21 0.40045541E-01 0.40869115E+03</pdfrwt>
<pdfrwt beam="2">  1       21 0.31082476E+00 0.40869115E+03</pdfrwt>
<totfact> 0.14156983E+02</totfact>
</mgrwt>
</event>
<event>
 4    1  0.4675559E-002  0.4604257E+03  0.7818608E-02  0.1024658E+00
         21   -1    0    0  503  502  0.00000000000E+00  0.00000000000E+00  0.19691510440E+04  0.19691510440E+04  0.00000000000E+00 0.  1.
         21   -1    0    0  501  503 -0.00000000000E+00 -0.00000000000E+00 -0.10956021521E+03  0.10956021521E+03  0.00000000000E+00 0.  1.
    9000007    1    1    2  501    0  0.13111968457E+03 -0.18654604476E+03  0.79278766033E+03  0.91679009205E+03  0.40000000000E+03 0.  1.
   -9000007    1    1    2    0  502 -0.13111968457E+03  0.18654604476E+03  0.10668031684E+04  0.11619211672E+04  0.40000000000E+03 0.  1.
<mgrwt>
<rscale>  2 0.46042567E+03</rscale>
<asrwt>0</asrwt>
<pdfrwt beam="1">  1       21 0.30294629E+00 0.46042567E+03</pdfrwt>
<pdfrwt beam="2">  1       21 0.16855419E-01 0.46042567E+03</pdfrwt>
<totfact> 0.83182862E+02</totfact>
</mgrwt>
</event>
<event>
 4    1  0.4675559E-002  0.4912181E+03  0.7818608E-02  0.1016097E+00
         21   -1    0    0  501  502  0.00000000000E+00  0.00000000000E+00  0.40103038013E+03  0.40103038013E+03  0.00000000000E+00 0.  1.
         21   -1    0    0  502  503 -0.00000000000E+00 -0.00000000000E+00 -0.60300063874E+03  0.60300063874E+03  0.00000000000E+00 0.  1.
    9000007    1    1    2  501    0  0.38015766655E+02  0.28257748737E+03 -0.12440599814E+03  0.50672683692E+03  0.40000000000E+03 0.  1.
   -9000007    1    1    2    0  503 -0.38015766655E+02 -0.28257748737E+03 -0.77564260469E+02  0.49730418195E+03  0.40000000000E+03 0.  1.
<mgrwt>
<rscale>  2 0.49121811E+03</rscale>
<asrwt>0</asrwt>
<pdfrwt beam="1">  1       21 0.61696982E-01 0.49121811E+03</pdfrwt>
<pdfrwt beam="2">  1       21 0.92769328E-01 0.49121811E+03</pdfrwt>
<totfact> 0.20329668E+03</totfact>
</mgrwt>
</event>
<event>
 4    1  0.4675559E-002  0.4268159E+03  0.7818608E-02  0.1034871E+00
         21   -1    0    0  503  502  0.00000000000E+00  0.00000000000E+00  0.20103884625E+03  0.20103884625E+03  0.00000000000E+00 0.  1.
         21   -1    0    0  501  503 -0.00000000000E+00 -0.00000000000E+00 -0.25983842160E+04  0.25983842160E+04  0.00000000000E+00 0.  1.
    9000007    1    1    2  501    0 -0.18145137053E+02 -0.14779231852E+03 -0.23282521665E+04  0.23670509007E+04  0.40000000000E+03 0.  1.
   -9000007    1    1    2    0  502  0.18145137053E+02  0.14779231852E+03 -0.69093203257E+02  0.43237216163E+03  0.40000000000E+03 0.  1.
<mgrwt>
<rscale>  2 0.42681590E+03</rscale>
<asrwt>0</asrwt>
<pdfrwt beam="1">  1       21 0.30929055E-01 0.42681590E+03</pdfrwt>
<pdfrwt beam="2">  1       21 0.39975140E+00 0.42681590E+03</pdfrwt>
<totfact> 0.66721615E+01</totfact>
</mgrwt>
</event>
<event>
 4    1  0.4675559E-002  0.4230230E+03  0.7818608E-02  0.1036087E+00
         21   -1    0    0  501  502  0.00000000000E+00  0.00000000000E+00  0.11992378184E+03  0.11992378184E+03  0.00000000000E+00 0.  1.
         21   -1    0    0  502  503 -0.00000000000E+00 -0.00000000000E+00 -0.15880261580E+04  0.15880261580E+04  0.00000000000E+00 0.  1.
    9000007    1    1    2  501    0  0.11808889432E+03 -0.70735155436E+02 -0.94384501495E+03  0.10343074308E+04  0.40000000000E+03 0.  1.
   -9000007    1    1    2    0  503 -0.11808889432E+03  0.70735155436E+02 -0.52425736120E+03  0.67364250901E+03  0.40000000000E+03 0.  1.
<mgrwt>
<rscale>  2 0.42302299E+03</rscale>
<asrwt>0</asrwt>
<pdfrwt beam="1">  1       21 0.18449813E-01 0.42302299E+03</pdfrwt>
<pdfrwt beam="2">  1       21 0.24431171E+00 0.42302299E+03</pdfrwt>
<totfact> 0.16206479E+03</totfact>
</mgrwt>
</event>
<event>
 4    1  0.4675559E-002  0.5784955E+03  0.7818608E-02  0.9951054E-01
         21   -1    0    0  503  502  0.00000000000E+00  0.00000000000E+00  0.20433316791E+03  0.20433316791E+03  0.00000000000E+00 0.  1.
         21   -1    0    0  501  503 -0.00000000000E+00 -0.00000000000E+00 -0.17787865447E+04  0.17787865447E+04  0.00000000000E+00 0. -1.
    9000007    1    1    2  501    0  0.36378600503E+03  0.20571049037E+03 -0.50807237862E+03  0.76993155878E+03  0.40000000000E+03 0.  1.
   -9000007    1    1    2    0  502 -0.36378600503E+03 -0.20571049037E+03 -0.10663809982E+04  0.12131881538E+04  0.40000000000E+03 0. -1.
<mgrwt>
<rscale>  2 0.57849552E+03</rscale>
<asrwt>0</asrwt>
<pdfrwt beam="1">  1       21 0.31435873E-01 0.57849552E+03</pdfrwt>
<pdfrwt beam="2">  1       21 0.27365946E+00 0.57849552E+03</pdfrwt>
<totfact> 0.35366122E+02</totfact>
</mgrwt>
</event>
<event>
 4    1  0.4675559E-002  0.5919237E+03  0.7818608E-02  0.9922305E-01
         21   -1    0    0  501  502  0.00000000000E+00  0.00000000000E+00  0.93162594356E+03  0.93162594356E+03  0.00000000000E+00 0. -1.
         21   -1    0    0  502  503 -0.00000000000E+00 -0.00000000000E+00 -0.43233143954E+03  0.43233143954E+03  0.00000000000E+00 0.  1.
    9000007    1    1    2  501    0 -0.19569621342E+03  0.38997010334E+03  0.36689072439E+01  0.59193508962E+03  0.40000000000E+03 0.  1.
   -9000007    1    1    2    0  503  0.19569621342E+03 -0.38997010334E+03  0.49562559678E+03  0.77202229348E+03  0.40000000000E+03 0. -1.
<mgrwt>
<rscale>  2 0.59192372E+03</rscale>
<asrwt>0</asrwt>
<pdfrwt beam="1">  1       21 0.14332707E+00 0.59192372E+03</pdfrwt>
<pdfrwt beam="2">  1       21 0.66512530E-01 0.59192372E+03</pdfrwt>
<totfact> 0.55232570E+02</totfact>
</mgrwt>
</event>
<event>
 4    1  0.4675559E-002  0.6292423E+03  0.7818608E-02  0.9846529E-01
         21   -1    0    0  501  502  0.00000000000E+00  0.00000000000E+00  0.13241246346E+04  0.13241246346E+04  0.00000000000E+00 0. -1.
         21   -1    0    0  502  503 -0.00000000000E+00 -0.00000000000E+00 -0.56955348088E+03  0.56955348088E+03  0.00000000000E+00 0.  1.
    9000007    1    1    2  501    0 -0.45883238988E+03 -0.15943247711E+03  0.10298384475E+04  0.12068608473E+04  0.40000000000E+03 0. -1.
   -9000007    1    1    2    0  503  0.45883238988E+03  0.15943247711E+03 -0.27526729385E+03  0.68681726814E+03  0.40000000000E+03 0.  1.
<mgrwt>
<rscale>  2 0.62924230E+03</rscale>
<asrwt>0</asrwt>
<pdfrwt beam="1">  1       21 0.20371148E+00 0.62924230E+03</pdfrwt>
<pdfrwt beam="2">  1       21 0.87623613E-01 0.62924230E+03</pdfrwt>
<totfact> 0.10410266E+02</totfact>
</mgrwt>
</event>
<event>
 4    1  0.4675559E-002  0.4674020E+03  0.7818608E-02  0.1022656E+00
         21   -1    0    0  503  502  0.00000000000E+00  0.00000000000E+00  0.45304227012E+03  0.45304227012E+03  0.00000000000E+00 0. -1.
         21   -1    0    0  501  503 -0.00000000000E+00 -0.00000000000E+00 -0.86645083449E+03  0.86645083449E+03  0.00000000000E+00 0. -1.
    9000007    1    1    2  501    0  0.11462170252E+03  0.21290017212E+03 -0.64604661576E+03  0.79739629277E+03  0.40000000000E+03 0. -1.
   -9000007    1    1    2    0  502 -0.11462170252E+03 -0.21290017212E+03  0.23263805140E+03  0.52209681184E+03  0.40000000000E+03 0. -1.
<mgrwt>
<rscale>  2 0.46740199E+03</rscale>
<asrwt>0</asrwt>
<pdfrwt beam="1">  1       21 0.69698811E-01 0.46740199E+03</pdfrwt>
<pdfrwt beam="2">  1       21 0.13330013E+00 0.46740199E+03</pdfrwt>
<totfact> 0.63214716E+02</totfact>
</mgrwt>
</event>
<event>
 4    1  0.4675559E-002  0.4781080E+03  0.7818608E-02  0.1019656E+00
         21   -1    0    0  503  502  0.00000000000E+00  0.00000000000E+00  0.67962978205E+03  0.67962978205E+03  0.00000000000E+00 0.  1.
         21   -1    0    0  501  503 -0.00000000000E+00 -0.00000000000E+00 -0.43850336612E+03  0.43850336612E+03  0.00000000000E+00 0. -1.
    9000007    1    1    2  501    0 -0.25043825591E+03  0.76602368881E+02  0.39041350502E+03  0.61726003260E+03  0.40000000000E+03 0.  1.
   -9000007    1    1    2    0  502  0.25043825591E+03 -0.76602368881E+02 -0.14928708909E+03  0.50087311558E+03  0.40000000000E+03 0. -1.
<mgrwt>
<rscale>  2 0.47810798E+03</rscale>
<asrwt>0</asrwt>
<pdfrwt beam="1">  1       21 0.10455843E+00 0.47810798E+03</pdfrwt>
<pdfrwt beam="2">  1       21 0.67462056E-01 0.47810798E+03</pdfrwt>
<totfact> 0.12529352E+03</totfact>
</mgrwt>
</event>
<event>
 4    1  0.4675559E-002  0.4172361E+03  0.7818608E-02  0.1037970E+00
         21   -1    0    0  501  502  0.00000000000E+00  0.00000000000E+00  0.26076041410E+03  0.26076041410E+03  0.00000000000E+00 0. -1.
         21   -1    0    0  502  503 -0.00000000000E+00 -0.00000000000E+00 -0.10700419110E+04  0.10700419110E+04  0.00000000000E+00 0. -1.
    9000007    1    1    2  501    0 -0.49860514051E+02 -0.10770292836E+03  0.34247922117E+01  0.41725018974E+03  0.40000000000E+03 0. -1.
   -9000007    1    1    2    0  503  0.49860514051E+02  0.10770292836E+03 -0.81270628907E+03  0.91355213532E+03  0.40000000000E+03 0. -1.
<mgrwt>
<rscale>  2 0.41723613E+03</rscale>
<asrwt>0</asrwt>
<pdfrwt beam="1">  1       21 0.40116988E-01 0.41723613E+03</pdfrwt>
<pdfrwt beam="2">  1       21 0.16462183E+00 0.41723613E+03</pdfrwt>
<totfact> 0.11959458E+03</totfact>
</mgrwt>
</event>
<event>
 4    1  0.4675559E-002  0.5067632E+03  0.7818608E-02  0.1012029E+00
         21   -1    0    0  503  502  0.00000000000E+00  0.00000000000E+00  0.90499570092E+03  0.90499570092E+03  0.00000000000E+00 0.  1.
         21   -1    0    0  501  503 -0.00000000000E+00 -0.00000000000E+00 -0.40834660477E+03  0.40834660477E+03  0.00000000000E+00 0.  1.
    9000007    1    1    2  501    0 -0.27887876077E+03 -0.13796945043E+03 -0.11438165143E+03  0.51951139992E+03  0.40000000000E+03 0.  1.
   -9000007    1    1    2    0  502  0.27887876077E+03  0.13796945043E+03  0.61103074758E+03  0.79383090577E+03  0.40000000000E+03 0.  1.
<mgrwt>
<rscale>  2 0.50676319E+03</rscale>
<asrwt>0</asrwt>
<pdfrwt beam="1">  1       21 0.13923011E+00 0.50676319E+03</pdfrwt>
<pdfrwt beam="2">  1       21 0.62822555E-01 0.50676319E+03</pdfrwt>
<totfact> 0.69937170E+02</totfact>
</mgrwt>
</event>
<event>
 4    1  0.4675559E-002  0.5637312E+03  0.7818608E-02  0.9983647E-01
         21   -1    0    0  501  502  0.00000000000E+00  0.00000000000E+00  0.57932222068E+03  0.57932222068E+03  0.00000000000E+00 0.  1.
         21   -1    0    0  502  503 -0.00000000000E+00 -0.00000000000E+00 -0.54867400285E+03  0.54867400285E+03  0.00000000000E+00 0.  1.
    9000007    1    1    2  501    0 -0.22564640443E+03  0.32691980403E+03  0.71857702087E+01  0.56377698906E+03  0.40000000000E+03 0.  1.
   -9000007    1    1    2    0  503  0.22564640443E+03 -0.32691980403E+03  0.23462447619E+02  0.56421923447E+03  0.40000000000E+03 0.  1.
<mgrwt>
<rscale>  2 0.56373119E+03</rscale>
<asrwt>0</asrwt>
<pdfrwt beam="1">  1       21 0.89126495E-01 0.56373119E+03</pdfrwt>
<pdfrwt beam="2">  1       21 0.84411386E-01 0.56373119E+03</pdfrwt>
<totfact> 0.10705316E+03</totfact>
</mgrwt>
</event>
<event>
 4    1  0.4675559E-002  0.5593256E+03  0.7818608E-02  0.9993582E-01
         21   -1    0    0  501  502  0.00000000000E+00  0.00000000000E+00  0.50893543642E+03  0.50893543642E+03  0.00000000000E+00 0.  1.
         21   -1    0    0  502  503 -0.00000000000E+00 -0.00000000000E+00 -0.89780404136E+03  0.89780404136E+03  0.00000000000E+00 0. -1.
    9000007    1    1    2  501    0  0.33755750376E+03 -0.19723084697E+03  0.20053398308E+03  0.59418764183E+03  0.40000000000E+03 0.  1.
   -9000007    1    1    2    0  503 -0.33755750376E+03  0.19723084697E+03 -0.58940258802E+03  0.81255183595E+03  0.40000000000E+03 0. -1.
<mgrwt>
<rscale>  2 0.55932555E+03</rscale>
<asrwt>0</asrwt>
<pdfrwt beam="1">  1       21 0.78297760E-01 0.55932555E+03</pdfrwt>
<pdfrwt beam="2">  1       21 0.13812370E+00 0.55932555E+03</pdfrwt>
<totfact> 0.42561712E+02</totfact>
</mgrwt>
</event>
<event>
 4    1  0.4675559E-002  0.4614098E+03  0.7818608E-02  0.1024373E+00
         21   -1    0    0  503  502  0.00000000000E+00  0.00000000000E+00  0.14166265925E+04  0.14166265925E+04  0.00000000000E+00 0. -1.
         21   -1    0    0  501  503 -0.00000000000E+00 -0.00000000000E+00 -0.22168597464E+03  0.22168597464E+03  0.00000000000E+00 0.  1.
    9000007    1    1    2  501    0 -0.22166223225E+03 -0.61358360602E+02  0.13258372839E+03  0.48008065849E+03  0.40000000000E+03 0.  1.
   -9000007    1    1    2    0  502  0.22166223225E+03  0.61358360602E+02  0.10623568895E+04  0.11582319087E+04  0.40000000000E+03 0. -1.
<mgrwt>
<rscale>  2 0.46140979E+03</rscale>
<asrwt>0</asrwt>
<pdfrwt beam="1">  1       21 0.21794255E+00 0.46140979E+03</pdfrwt>
<pdfrwt beam="2">  1       21 0.34105535E-01 0.46140979E+03</pdfrwt>
<totfact> 0.70353573E+02</totfact>
</mgrwt>
</event>
<event>
 4    1  0.4675559E-002  0.4012383E+03  0.7818608E-02  0.1043352E+00
         21   -1    0    0  501  502  0.00000000000E+00  0.00000000000E+00  0.12502874314E+04  0.12502874314E+04  0.00000000000E+00 0. -1.
         21   -1    0    0  502  503 -0.00000000000E+00 -0.00000000000E+00 -0.13336308993E+03  0.13336308993E+03  0.00000000000E+00 0. -1.
    9000007    1    1    2  501    0 -0.20481206620E+02  0.23930627939E+02  0.68693435429E+03  0.79553187358E+03  0.40000000000E+03 0.  1.
   -9000007    1    1    2    0  503  0.20481206620E+02 -0.23930627939E+02  0.42998998723E+03  0.58811864780E+03  0.40000000000E+03 0.  1.
<mgrwt>
<rscale>  2 0.40123828E+03</rscale>
<asrwt>0</asrwt>
<pdfrwt beam="1">  1       21 0.19235190E+00 0.40123828E+03</pdfrwt>
<pdfrwt beam="2">  1       21 0.20517399E-01 0.40123828E+03</pdfrwt>
<totfact> 0.28850209E+03</totfact>
</mgrwt>
</event>
<event>
 4    1  0.4675559E-002  0.5833634E+03  0.7818608E-02  0.9940536E-01
         21   -1    0    0  503  502  0.00000000000E+00  0.00000000000E+00  0.11752620712E+04  0.11752620712E+04  0.00000000000E+00 0.  1.
         21   -1    0    0  501  503 -0.00000000000E+00 -0.00000000000E+00 -0.45018187788E+03  0.45018187788E+03  0.00000000000E+00 0. -1.
    9000007    1    1    2  501    0 -0.40834507529E+03  0.11647792377E+03 -0.12291139101E+03  0.59617113086E+03  0.40000000000E+03 0. -1.
   -9000007    1    1    2    0  502  0.40834507529E+03 -0.11647792377E+03  0.84799158437E+03  0.10292728183E+04  0.40000000000E+03 0.  1.
<mgrwt>
<rscale>  2 0.58336336E+03</rscale>
<asrwt>0</asrwt>
<pdfrwt beam="1">  1       21 0.18080955E+00 0.58336336E+03</pdfrwt>
<pdfrwt beam="2">  1       21 0.69258751E-01 0.58336336E+03</pdfrwt>
<totfact> 0.26270454E+02</totfact>
</mgrwt>
</event>
<event>
 4    1  0.4675559E-002  0.5331469E+03  0.7818608E-02  0.1005472E+00
         21   -1    0    0  503  502  0.00000000000E+00  0.00000000000E+00  0.13468060557E+04  0.13468060557E+04  0.00000000000E+00 0. -1.
         21   -1    0    0  501  503 -0.00000000000E+00 -0.00000000000E+00 -0.21107017339E+03  0.21107017339E+03  0.00000000000E+00 0.  1.
    9000007    1    1    2  501    0  0.35169546374E+03  0.23577716853E+02  0.56056612454E+03  0.77361488347E+03  0.40000000000E+03 0.  1.
   -9000007    1    1    2    0  502 -0.35169546374E+03 -0.23577716853E+02  0.57516975773E+03  0.78426134557E+03  0.40000000000E+03 0. -1.
<mgrwt>
<rscale>  2 0.53314689E+03</rscale>
<asrwt>0</asrwt>
<pdfrwt beam="1">  1       21 0.20720093E+00 0.53314689E+03</pdfrwt>
<pdfrwt beam="2">  1       21 0.32472335E-01 0.53314689E+03</pdfrwt>
<totfact> 0.88470752E+02</totfact>
</mgrwt>
</event>
<event>
 4    1  0.4675559E-002  0.4481909E+03  0.7818608E-02  0.1028263E+00
         21   -1    0    0  501  502  0.00000000000E+00  0.00000000000E+00  0.95699889120E+02  0.95699889120E+02  0.00000000000E+00 0.  1.
         21   -1    0    0  502  503 -0.00000000000E+00 -0.00000000000E+00 -0.28038072708E+04  0.28038072708E+04  0.00000000000E+00 0.  1.
    9000007    1    1    2  501    0 -0.12560550648E+03 -0.15842442342E+03 -0.62719135842E+03  0.77087226002E+03  0.40000000000E+03 0.  1.
   -9000007    1    1    2    0  503  0.12560550648E+03  0.15842442342E+03 -0.20809160232E+04  0.21286348999E+04  0.40000000000E+03 0.  1.
<mgrwt>
<rscale>  2 0.44819085E+03</rscale>
<asrwt>0</asrwt>
<pdfrwt beam="1">  1       21 0.14723061E-01 0.44819085E+03</pdfrwt>
<pdfrwt beam="2">  1       21 0.43135494E+00 0.44819085E+03</pdfrwt>
<totfact> 0.16962177E+02</totfact>
</mgrwt>
</event>
<event>
 4    1  0.4675559E-002  0.6950599E+03  0.7818608E-02  0.9725718E-01
         21   -1    0    0  501  502  0.00000000000E+00  0.00000000000E+00  0.84436416889E+03  0.84436416889E+03  0.00000000000E+00 0. -1.
         21   -1    0    0  502  503 -0.00000000000E+00 -0.00000000000E+00 -0.63840436746E+03  0.63840436746E+03  0.00000000000E+00 0.  1.
    9000007    1    1    2  501    0  0.28973649727E+03 -0.48904091448E+03  0.34180619767E+03  0.77455776457E+03  0.40000000000E+03 0. -1.
   -9000007    1    1    2    0  503 -0.28973649727E+03  0.48904091448E+03 -0.13584639624E+03  0.70821077177E+03  0.40000000000E+03 0.  1.
<mgrwt>
<rscale>  2 0.69505989E+03</rscale>
<asrwt>0</asrwt>
<pdfrwt beam="1">  1       21 0.12990218E+00 0.69505989E+03</pdfrwt>
<pdfrwt beam="2">  1       21 0.98216056E-01 0.69505989E+03</pdfrwt>
<totfact> 0.27924245E+02</totfact>
</mgrwt>
</event>
<event>
 4    1  0.4675559E-002  0.4518846E+03  0.7818608E-02  0.1027162E+00
         21   -1    0    0  501  502  0.00000000000E+00  0.00000000000E+00  0.22514929038E+03  0.22514929038E+03  0.00000000000E+00 0. -1.
         21   -1    0    0  502  503 -0.00000000000E+00 -0.00000000000E+00 -0.90721956149E+03  0.90721956149E+03  0.00000000000E+00 0. -1.
    9000007    1    1    2  501    0 -0.20487512708E+03  0.47179321297E+02 -0.33132046548E+03  0.56033289828E+03  0.40000000000E+03 0. -1.
   -9000007    1    1    2    0  503  0.20487512708E+03 -0.47179321297E+02 -0.35074980563E+03  0.57203595359E+03  0.40000000000E+03 0. -1.
<mgrwt>
<rscale>  2 0.45188462E+03</rscale>
<asrwt>0</asrwt>
<pdfrwt beam="1">  1       21 0.34638352E-01 0.45188462E+03</pdfrwt>
<pdfrwt beam="2">  1       21 0.13957224E+00 0.45188462E+03</pdfrwt>
<totfact> 0.24944764E+03</totfact>
</mgrwt>
</event>
<event>
 4    1  0.4675559E-002  0.5217735E+03  0.7818608E-02  0.1008247E+00
         21   -1    0    0  501  502  0.00000000000E+00  0.00000000000E+00  0.11342867303E+04  0.11342867303E+04  0.00000000000E+00 0. -1.
         21   -1    0    0  502  503 -0.00000000000E+00 -0.00000000000E+00 -0.32229742062E+03  0.32229742062E+03  0.00000000000E+00 0.  1.
    9000007    1    1    2  501    0  0.23199855768E+03 -0.24171106275E+03  0.77397672059E+03  0.93342784008E+03  0.40000000000E+03 0. -1.
   -9000007    1    1    2    0  503 -0.23199855768E+03  0.24171106275E+03  0.38012589068E+02  0.52315631082E+03  0.40000000000E+03 0.  1.
<mgrwt>
<rscale>  2 0.52177348E+03</rscale>
<asrwt>0</asrwt>
<pdfrwt beam="1">  1       21 0.17450565E+00 0.52177348E+03</pdfrwt>
<pdfrwt beam="2">  1       21 0.49584219E-01 0.52177348E+03</pdfrwt>
<totfact> 0.62149810E+02</totfact>
</mgrwt>
</event>
<event>
 4    1  0.4675559E-002  0.7246981E+03  0.7818608E-02  0.9675903E-01
         21   -1    0    0  503  502  0.00000000000E+00  0.00000000000E+00  0.63771819415E+03  0.63771819415E+03  0.00000000000E+00 0. -1.
         21   -1    0    0  501  503 -0.00000000000E+00 -0.00000000000E+00 -0.82976077033E+03  0.82976077033E+03  0.00000000000E+00 0. -1.
    9000007    1    1    2  501    0 -0.20981810055E+03 -0.56671300549E+03 -0.32496620780E+02  0.72542628590E+03  0.40000000000E+03 0. -1.
   -9000007    1    1    2    0  502  0.20981810055E+03  0.56671300549E+03 -0.15954595540E+03  0.74205267858E+03  0.40000000000E+03 0. -1.
<mgrwt>
<rscale>  2 0.72469805E+03</rscale>
<asrwt>0</asrwt>
<pdfrwt beam="1">  1       21 0.98110491E-01 0.72469805E+03</pdfrwt>
<pdfrwt beam="2">  1       21 0.12765550E+00 0.72469805E+03</pdfrwt>
<totfact> 0.29051540E+02</totfact>
</mgrwt>
</event>
<event>
 4    1  0.4675559E-002  0.5242399E+03  0.7818608E-02  0.1007639E+00
         21   -1    0    0  501  502  0.00000000000E+00  0.00000000000E+00  0.98378742190E+03  0.98378742190E+03  0.00000000000E+00 0.  1.
         21   -1    0    0  502  503 -0.00000000000E+00 -0.00000000000E+00 -0.28275439987E+03  0.28275439987E+03  0.00000000000E+00 0. -1.
    9000007    1    1    2  501    0 -0.19143239040E+03  0.27960886947E+03  0.41993667835E+03  0.67169508991E+03  0.40000000000E+03 0.  1.
   -9000007    1    1    2    0  503  0.19143239040E+03 -0.27960886947E+03  0.28109634368E+03  0.59484673187E+03  0.40000000000E+03 0. -1.
<mgrwt>
<rscale>  2 0.52423991E+03</rscale>
<asrwt>0</asrwt>
<pdfrwt beam="1">  1       21 0.15135191E+00 0.52423991E+03</pdfrwt>
<pdfrwt beam="2">  1       21 0.43500677E-01 0.52423991E+03</pdfrwt>
<totfact> 0.12221742E+03</totfact>
</mgrwt>
</event>
<event>
 4    1  0.4675559E-002  0.4224593E+03  0.7818608E-02  0.1036269E+00
         21   -1    0    0  501  502  0.00000000000E+00  0.00000000000E+00  0.10863136196E+04  0.10863136196E+04  0.00000000000E+00 0.  1.
         21   -1    0    0  502  503 -0.00000000000E+00 -0.00000000000E+00 -0.16452272926E+03  0.16452272926E+03  0.00000000000E+00 0.  1.
    9000007    1    1    2  501    0 -0.12703019596E+03  0.48323718666E+02  0.48435326574E+03  0.64270517230E+03  0.40000000000E+03 0.  1.
   -9000007    1    1    2    0  503  0.12703019596E+03 -0.48323718666E+02  0.43743762456E+03  0.60813117652E+03  0.40000000000E+03 0.  1.
<mgrwt>
<rscale>  2 0.42245929E+03</rscale>
<asrwt>0</asrwt>
<pdfrwt beam="1">  1       21 0.16712517E+00 0.42245929E+03</pdfrwt>
<pdfrwt beam="2">  1       21 0.25311190E-01 0.42245929E+03</pdfrwt>
<totfact> 0.28715898E+03</totfact>
</mgrwt>
</event>
<event>
 4    1  0.4675559E-002  0.4372222E+03  0.7818608E-02  0.1031603E+00
         21   -1    0    0  501  502  0.00000000000E+00  0.00000000000E+00  0.10289067982E+03  0.10289067982E+03  0.00000000000E+00 0. -1.
         21   -1    0    0  502  503 -0.00000000000E+00 -0.00000000000E+00 -0.18642567492E+04  0.18642567492E+04  0.00000000000E+00 0. -1.
    9000007    1    1    2  501    0 -0.12727013661E+03  0.12233383183E+03 -0.82336561359E+03  0.93225221251E+03  0.40000000000E+03 0. -1.
   -9000007    1    1    2    0  503  0.12727013661E+03 -0.12233383183E+03 -0.93800045574E+03  0.10348952165E+04  0.40000000000E+03 0. -1.
<mgrwt>
<rscale>  2 0.43722220E+03</rscale>
<asrwt>0</asrwt>
<pdfrwt beam="1">  1       21 0.15829337E-01 0.43722220E+03</pdfrwt>
<pdfrwt beam="2">  1       21 0.28680870E+00 0.43722220E+03</pdfrwt>
<totfact> 0.11841838E+03</totfact>
</mgrwt>
</event>
<event>
 4    1  0.4675559E-002  0.4090963E+03  0.7818608E-02  0.1040675E+00
         21   -1    0    0  501  502  0.00000000000E+00  0.00000000000E+00  0.16593339878E+04  0.16593339878E+04  0.00000000000E+00 0. -1.
         21   -1    0    0  502  503 -0.00000000000E+00 -0.00000000000E+00 -0.17363811751E+03  0.17363811751E+03  0.00000000000E+00 0. -1.
    9000007    1    1    2  501    0 -0.60742345678E+02 -0.60581843820E+02  0.13361896385E+04  0.13974128032E+04  0.40000000000E+03 0. -1.
   -9000007    1    1    2    0  503  0.60742345678E+02  0.60581843820E+02  0.14950623178E+03  0.43555930216E+03  0.40000000000E+03 0. -1.
<mgrwt>
<rscale>  2 0.40909631E+03</rscale>
<asrwt>0</asrwt>
<pdfrwt beam="1">  1       21 0.25528214E+00 0.40909631E+03</pdfrwt>
<pdfrwt beam="2">  1       21 0.26713558E-01 0.40909631E+03</pdfrwt>
<totfact> 0.68721498E+02</totfact>
</mgrwt>
</event>
<event>
 4    1  0.4675559E-002  0.4442224E+03  0.7818608E-02  0.1029459E+00
         21   -1    0    0  501  502  0.00000000000E+00  0.00000000000E+00  0.10937186874E+04  0.10937186874E+04  0.00000000000E+00 0.  1.
         21   -1    0    0  502  503 -0.00000000000E+00 -0.00000000000E+00 -0.26336813904E+03  0.26336813904E+03  0.00000000000E+00 0. -1.
    9000007    1    1    2  501    0 -0.43501745448E+02 -0.18825824942E+03  0.79596721529E+03  0.91153572511E+03  0.40000000000E+03 0.  1.
   -9000007    1    1    2    0  503  0.43501745448E+02  0.18825824942E+03  0.34383333095E+02  0.44555110136E+03  0.40000000000E+03 0. -1.
<mgrwt>
<rscale>  2 0.44422243E+03</rscale>
<asrwt>0</asrwt>
<pdfrwt beam="1">  1       21 0.16826441E+00 0.44422243E+03</pdfrwt>
<pdfrwt beam="2">  1       21 0.40518176E-01 0.44422243E+03</pdfrwt>
<totfact> 0.10882416E+03</totfact>
</mgrwt>
</event>
<event>
 4    1  0.4675559E-002  0.6002376E+03  0.7818608E-02  0.9904913E-01
         21   -1    0    0  503  502  0.00000000000E+00  0.00000000000E+00  0.17314754170E+04  0.17314754170E+04  0.00000000000E+00 0. -1.
         21   -1    0    0  501  503 -0.00000000000E+00 -0.00000000000E+00 -0.10846047455E+04  0.10846047455E+04  0.00000000000E+00 0.  1.
    9000007    1    1    2  501    0 -0.26873507355E+03  0.35786405558E+03 -0.94235385967E+03  0.11172806357E+04  0.40000000000E+03 0.  1.
   -9000007    1    1    2    0  502  0.26873507355E+03 -0.35786405558E+03  0.15892245312E+04  0.16987995269E+04  0.40000000000E+03 0. -1.
<mgrwt>
<rscale>  2 0.60023764E+03</rscale>
<asrwt>0</asrwt>
<pdfrwt beam="1">  1       21 0.26638083E+00 0.60023764E+03</pdfrwt>
<pdfrwt beam="2">  1       21 0.16686227E+00 0.60023764E+03</pdfrwt>
<totfact> 0.79754717E+00</totfact>
</mgrwt>
</event>
<event>
 4    1  0.4675559E-002  0.4509830E+03  0.7818608E-02  0.1027429E+00
         21   -1    0    0  503  502  0.00000000000E+00  0.00000000000E+00  0.46612005174E+03  0.46612005174E+03  0.00000000000E+00 0.  1.
         21   -1    0    0  501  503 -0.00000000000E+00 -0.00000000000E+00 -0.98138047303E+03  0.98138047303E+03  0.00000000000E+00 0.  1.
    9000007    1    1    2  501    0  0.20815908937E+03  0.74470667777E+01 -0.79699848077E+03  0.91574682290E+03  0.40000000000E+03 0.  1.
   -9000007    1    1    2    0  502 -0.20815908937E+03 -0.74470667777E+01  0.28173805949E+03  0.53175370187E+03  0.40000000000E+03 0.  1.
<mgrwt>
<rscale>  2 0.45098300E+03</rscale>
<asrwt>0</asrwt>
<pdfrwt beam="1">  1       21 0.71710778E-01 0.45098300E+03</pdfrwt>
<pdfrwt beam="2">  1       21 0.15098161E+00 0.45098300E+03</pdfrwt>
<totfact> 0.42822775E+02</totfact>
</mgrwt>
</event>
<event>
 4    1  0.4675559E-002  0.4885025E+03  0.7818608E-02  0.1016824E+00
         21   -1    0    0  501  502  0.00000000000E+00  0.00000000000E+00  0.65975302547E+03  0.65975302547E+03  0.00000000000E+00 0. -1.
         21   -1    0    0  502  503 -0.00000000000E+00 -0.00000000000E+00 -0.76088357588E+03  0.76088357588E+03  0.00000000000E+00 0. -1.
    9000007    1    1    2  501    0  0.27325134907E+03 -0.62995399905E+02 -0.56505717348E+03  0.74694332414E+03  0.40000000000E+03 0. -1.
   -9000007    1    1    2    0  503 -0.27325134907E+03  0.62995399905E+02  0.46392662307E+03  0.67369327722E+03  0.40000000000E+03 0. -1.
<mgrwt>
<rscale>  2 0.48850253E+03</rscale>
<asrwt>0</asrwt>
<pdfrwt beam="1">  1       21 0.10150047E+00 0.48850253E+03</pdfrwt>
<pdfrwt beam="2">  1       21 0.11705901E+00 0.48850253E+03</pdfrwt>
<totfact> 0.36303095E+02</totfact>
</mgrwt>
</event>
<event>
 4    1  0.4675559E-002  0.4495941E+03  0.7818608E-02  0.1027843E+00
         21   -1    0    0  503  502  0.00000000000E+00  0.00000000000E+00  0.22500380856E+03  0.22500380856E+03  0.00000000000E+00 0.  1.
         21   -1    0    0  501  503 -0.00000000000E+00 -0.00000000000E+00 -0.12371220068E+04  0.12371220068E+04  0.00000000000E+00 0. -1.
    9000007    1    1    2  501    0 -0.20346466965E+03  0.27147460629E+02 -0.88861472444E+03  0.99587699286E+03  0.40000000000E+03 0. -1.
   -9000007    1    1    2    0  502  0.20346466965E+03 -0.27147460629E+02 -0.12350347377E+03  0.46624882246E+03  0.40000000000E+03 0.  1.
<mgrwt>
<rscale>  2 0.44959410E+03</rscale>
<asrwt>0</asrwt>
<pdfrwt beam="1">  1       21 0.34615970E-01 0.44959410E+03</pdfrwt>
<pdfrwt beam="2">  1       21 0.19032647E+00 0.44959410E+03</pdfrwt>
<totfact> 0.10456230E+03</totfact>
</mgrwt>
</event>
<event>
 4    1  0.4675559E-002  0.4229490E+03  0.7818608E-02  0.1036111E+00
         21   -1    0    0  503  502  0.00000000000E+00  0.00000000000E+00  0.15835751607E+04  0.15835751607E+04  0.00000000000E+00 0.  1.
         21   -1    0    0  501  503 -0.00000000000E+00 -0.00000000000E+00 -0.23220260708E+03  0.23220260708E+03  0.00000000000E+00 0.  1.
    9000007    1    1    2  501    0 -0.49627296135E+02 -0.12815230621E+03  0.25094053669E+02  0.42369280574E+03  0.40000000000E+03 0.  1.
   -9000007    1    1    2    0  502  0.49627296135E+02  0.12815230621E+03  0.13262785000E+04  0.13920849621E+04  0.40000000000E+03 0.  1.
<mgrwt>
<rscale>  2 0.42294903E+03</rscale>
<asrwt>0</asrwt>
<pdfrwt beam="1">  1       21 0.24362694E+00 0.42294903E+03</pdfrwt>
<pdfrwt beam="2">  1       21 0.35723479E-01 0.42294903E+03</pdfrwt>
<totfact> 0.45062525E+02</totfact>
</mgrwt>
</event>
<event>
 4    1  0.4675559E-002  0.4817961E+03  0.7818608E-02  0.1018643E+00
         21   -1    0    0  503  502  0.00000000000E+00  0.00000000000E+00  0.22757654459E+03  0.22757654459E+03  0.00000000000E+00 0. -1.
         21   -1    0    0  501  503 -0.00000000000E+00 -0.00000000000E+00 -0.10289989497E+04  0.10289989497E+04  0.00000000000E+00 0. -1.
    9000007    1    1    2  501    0  0.27106467207E+02  0.26719412089E+03 -0.45947534661E+03  0.66576651534E+03  0.40000000000E+03 0. -1.
   -9000007    1    1    2    0  502 -0.27106467207E+02 -0.26719412089E+03 -0.34194705851E+03  0.59080897897E+03  0.40000000000E+03 0. -1.
<mgrwt>
<rscale>  2 0.48179608E+03</rscale>
<asrwt>0</asrwt>
<pdfrwt beam="1">  1       21 0.35011776E-01 0.48179608E+03</pdfrwt>
<pdfrwt beam="2">  1       21 0.15830753E+00 0.48179608E+03</pdfrwt>
<totfact> 0.17143641E+03</totfact>
</mgrwt>
</event>
<event>
 4    1  0.4675559E-002  0.5014334E+03  0.7818608E-02  0.1013405E+00
         21   -1    0    0  503  502  0.00000000000E+00  0.00000000000E+00  0.29123412482E+03  0.29123412482E+03  0.00000000000E+00 0.  1.
         21   -1    0    0  501  503 -0.00000000000E+00 -0.00000000000E+00 -0.86783050050E+03  0.86783050050E+03  0.00000000000E+00 0. -1.
    9000007    1    1    2  501    0 -0.14838984725E+03 -0.26346894051E+03 -0.32996417077E+03  0.60025976324E+03  0.40000000000E+03 0. -1.
   -9000007    1    1    2    0  502  0.14838984725E+03  0.26346894051E+03 -0.24663220492E+03  0.55880486208E+03  0.40000000000E+03 0.  1.
<mgrwt>
<rscale>  2 0.50143337E+03</rscale>
<asrwt>0</asrwt>
<pdfrwt beam="1">  1       21 0.44805250E-01 0.50143337E+03</pdfrwt>
<pdfrwt beam="2">  1       21 0.13351238E+00 0.50143337E+03</pdfrwt>
<totfact> 0.16211084E+03</totfact>
</mgrwt>
</event>
<event>
 4    1  0.4675559E-002  0.4388349E+03  0.7818608E-02  0.1031105E+00
         21   -1    0    0  501  502  0.00000000000E+00  0.00000000000E+00  0.33893340737E+03  0.33893340737E+03  0.00000000000E+00 0.  1.
         21   -1    0    0  502  503 -0.00000000000E+00 -0.00000000000E+00 -0.88759080773E+03  0.88759080773E+03  0.00000000000E+00 0.  1.
    9000007    1    1    2  501    0  0.17394180483E+03  0.48169530775E+02  0.93556899334E+02  0.44869694514E+03  0.40000000000E+03 0.  1.
   -9000007    1    1    2    0  503 -0.17394180483E+03 -0.48169530775E+02 -0.64221429969E+03  0.77782726996E+03  0.40000000000E+03 0.  1.
<mgrwt>
<rscale>  2 0.43883488E+03</rscale>
<asrwt>0</asrwt>
<pdfrwt beam="1">  1       21 0.52143601E-01 0.43883488E+03</pdfrwt>
<pdfrwt beam="2">  1       21 0.13655243E+00 0.43883488E+03</pdfrwt>
<totfact> 0.11356776E+03</totfact>
</mgrwt>
</event>
<event>
 4    1  0.4675559E-002  0.6794284E+03  0.7818608E-02  0.9753074E-01
         21   -1    0    0  503  502  0.00000000000E+00  0.00000000000E+00  0.31714436175E+03  0.31714436175E+03  0.00000000000E+00 0. -1.
         21   -1    0    0  501  503 -0.00000000000E+00 -0.00000000000E+00 -0.15351288368E+04  0.15351288368E+04  0.00000000000E+00 0.  1.
    9000007    1    1    2  501    0  0.47953687637E+03  0.26770751631E+03 -0.81984131372E+03  0.10647829402E+04  0.40000000000E+03 0.  1.
   -9000007    1    1    2    0  502 -0.47953687637E+03 -0.26770751631E+03 -0.39814316137E+03  0.78749025837E+03  0.40000000000E+03 0. -1.
<mgrwt>
<rscale>  2 0.67942838E+03</rscale>
<asrwt>0</asrwt>
<pdfrwt beam="1">  1       21 0.48791440E-01 0.67942838E+03</pdfrwt>
<pdfrwt beam="2">  1       21 0.23617367E+00 0.67942838E+03</pdfrwt>
<totfact> 0.23412550E+02</totfact>
</mgrwt>
</event>
<event>
 4    1  0.4675559E-002  0.4288275E+03  0.7818608E-02  0.1034231E+00
         21   -1    0    0  503  502  0.00000000000E+00  0.00000000000E+00  0.26528046932E+03  0.26528046932E+03  0.00000000000E+00 0.  1.
         21   -1    0    0  501  503 -0.00000000000E+00 -0.00000000000E+00 -0.81001965357E+03  0.81001965357E+03  0.00000000000E+00 0.  1.
    9000007    1    1    2  501    0  0.75656789764E+02  0.13479268430E+03 -0.47654606667E+03  0.64108437138E+03  0.40000000000E+03 0.  1.
   -9000007    1    1    2    0  502 -0.75656789764E+02 -0.13479268430E+03 -0.68193117582E+02  0.43421575151E+03  0.40000000000E+03 0.  1.
<mgrwt>
<rscale>  2 0.42882749E+03</rscale>
<asrwt>0</asrwt>
<pdfrwt beam="1">  1       21 0.40812380E-01 0.42882749E+03</pdfrwt>
<pdfrwt beam="2">  1       21 0.12461841E+00 0.42882749E+03</pdfrwt>
<totfact> 0.24189834E+03</totfact>
</mgrwt>
</event>
<event>
 4    1  0.4675559E-002  0.4132829E+03  0.7818608E-02  0.1039275E+00
         21   -1    0    0  501  502  0.00000000000E+00  0.00000000000E+00  0.22432347664E+03  0.22432347664E+03  0.00000000000E+00 0. -1.
         21   -1    0    0  502  503 -0.00000000000E+00 -0.00000000000E+00 -0.89312443017E+03  0.89312443017E+03  0.00000000000E+00 0. -1.
    9000007    1    1    2  501    0 -0.98119157592E+02 -0.34284222208E+02 -0.54896271518E+03  0.68714106240E+03  0.40000000000E+03 0. -1.
   -9000007    1    1    2    0  503  0.98119157592E+02  0.34284222208E+02 -0.11983823834E+03  0.43030684441E+03  0.40000000000E+03 0. -1.
<mgrwt>
<rscale>  2 0.41328293E+03</rscale>
<asrwt>0</asrwt>
<pdfrwt beam="1">  1       21 0.34511304E-01 0.41328293E+03</pdfrwt>
<pdfrwt beam="2">  1       21 0.13740376E+00 0.41328293E+03</pdfrwt>
<totfact> 0.26596129E+03</totfact>
</mgrwt>
</event>
<event>
 4    1  0.4675559E-002  0.8912579E+03  0.7818608E-02  0.9436576E-01
         21   -1    0    0  503  502  0.00000000000E+00  0.00000000000E+00  0.15183047209E+04  0.15183047209E+04  0.00000000000E+00 0. -1.
         21   -1    0    0  501  503 -0.00000000000E+00 -0.00000000000E+00 -0.80814171457E+03  0.80814171457E+03  0.00000000000E+00 0.  1.
    9000007    1    1    2  501    0 -0.74794775721E+03 -0.27370561775E+03  0.10458230747E+04  0.13740766049E+04  0.40000000000E+03 0. -1.
   -9000007    1    1    2    0  502  0.74794775721E+03  0.27370561775E+03 -0.33566006833E+03  0.95236983056E+03  0.40000000000E+03 0.  1.
<mgrwt>
<rscale>  2 0.89125788E+03</rscale>
<asrwt>0</asrwt>
<pdfrwt beam="1">  1       21 0.23358534E+00 0.89125788E+03</pdfrwt>
<pdfrwt beam="2">  1       21 0.12432949E+00 0.89125788E+03</pdfrwt>
<totfact> 0.25320527E+01</totfact>
</mgrwt>
</event>
<event>
 4    1  0.4675559E-002  0.4363889E+03  0.7818608E-02  0.1031861E+00
         21   -1    0    0  501  502  0.00000000000E+00  0.00000000000E+00  0.64423825983E+03  0.64423825983E+03  0.00000000000E+00 0.  1.
         21   -1    0    0  502  503 -0.00000000000E+00 -0.00000000000E+00 -0.30366992344E+03  0.30366992344E+03  0.00000000000E+00 0. -1.
    9000007    1    1    2  501    0  0.91748526076E+02  0.14838283836E+03  0.24755857764E+03  0.50171755811E+03  0.40000000000E+03 0.  1.
   -9000007    1    1    2    0  503 -0.91748526076E+02 -0.14838283836E+03  0.93009758750E+02  0.44619062516E+03  0.40000000000E+03 0. -1.
<mgrwt>
<rscale>  2 0.43638888E+03</rscale>
<asrwt>0</asrwt>
<pdfrwt beam="1">  1       21 0.99113578E-01 0.43638888E+03</pdfrwt>
<pdfrwt beam="2">  1       21 0.46718450E-01 0.43638888E+03</pdfrwt>
<totfact> 0.32180750E+03</totfact>
</mgrwt>
</event>
<event>
 4    1  0.4675559E-002  0.5296436E+03  0.7818608E-02  0.1006319E+00
         21   -1    0    0  503  502  0.00000000000E+00  0.00000000000E+00  0.40508845690E+03  0.40508845690E+03  0.00000000000E+00 0.  1.
         21   -1    0    0  501  503 -0.00000000000E+00 -0.00000000000E+00 -0.81572865774E+03  0.81572865774E+03  0.00000000000E+00 0.  1.
    9000007    1    1    2  501    0  0.53707520328E+01 -0.34712171318E+03 -0.44257206792E+03  0.69021182549E+03  0.40000000000E+03 0.  1.
   -9000007    1    1    2    0  502 -0.53707520328E+01  0.34712171318E+03  0.31931867079E+02  0.53060528915E+03  0.40000000000E+03 0.  1.
<mgrwt>
<rscale>  2 0.52964359E+03</rscale>
<asrwt>0</asrwt>
<pdfrwt beam="1">  1       21 0.62321302E-01 0.52964359E+03</pdfrwt>
<pdfrwt beam="2">  1       21 0.12549672E+00 0.52964359E+03</pdfrwt>
<totfact> 0.92662825E+02</totfact>
</mgrwt>
</event>
<event>
 4    1  0.4675559E-002  0.4935054E+03  0.7818608E-02  0.1015488E+00
         21   -1    0    0  503  502  0.00000000000E+00  0.00000000000E+00  0.17334384431E+03  0.17334384431E+03  0.00000000000E+00 0. -1.
         21   -1    0    0  501  503 -0.00000000000E+00 -0.00000000000E+00 -0.17393286891E+04  0.17393286891E+04  0.00000000000E+00 0.  1.
    9000007    1    1    2  501    0  0.12378960341E+03 -0.26119667934E+03 -0.12022767258E+04  0.12996218283E+04  0.40000000000E+03 0.  1.
   -9000007    1    1    2    0  502 -0.12378960341E+03  0.26119667934E+03 -0.36370811900E+03  0.61305070511E+03  0.40000000000E+03 0. -1.
<mgrwt>
<rscale>  2 0.49350539E+03</rscale>
<asrwt>0</asrwt>
<pdfrwt beam="1">  1       21 0.26668285E-01 0.49350539E+03</pdfrwt>
<pdfrwt beam="2">  1       21 0.26758902E+00 0.49350539E+03</pdfrwt>
<totfact> 0.55493247E+02</totfact>
</mgrwt>
</event>
<event>
 4    1  0.4675559E-002  0.7241194E+03  0.7818608E-02  0.9676851E-01
         21   -1    0    0  501  502  0.00000000000E+00  0.00000000000E+00  0.47522283966E+03  0.47522283966E+03  0.00000000000E+00 0. -1.
         21   -1    0    0  502  503 -0.00000000000E+00 -0.00000000000E+00 -0.14078517983E+04  0.14078517983E+04  0.00000000000E+00 0. -1.
    9000007    1    1    2  501    0 -0.60353865814E+03  0.94834803215E+01 -0.28453343407E+02  0.72467816376E+03  0.40000000000E+03 0. -1.
   -9000007    1    1    2    0  503  0.60353865814E+03 -0.94834803215E+01 -0.90417561522E+03  0.11583964742E+04  0.40000000000E+03 0. -1.
<mgrwt>
<rscale>  2 0.72411936E+03</rscale>
<asrwt>0</asrwt>
<pdfrwt beam="1">  1       21 0.73111206E-01 0.72411936E+03</pdfrwt>
<pdfrwt beam="2">  1       21 0.21659259E+00 0.72411936E+03</pdfrwt>
<totfact> 0.12601360E+02</totfact>
</mgrwt>
</event>
<event>
 4    1  0.4675559E-002  0.4189560E+03  0.7818608E-02  0.1037407E+00
         21   -1    0    0  501  502  0.00000000000E+00  0.00000000000E+00  0.34006118168E+03  0.34006118168E+03  0.00000000000E+00 0.  1.
         21   -1    0    0  502  503 -0.00000000000E+00 -0.00000000000E+00 -0.12803284266E+04  0.12803284266E+04  0.00000000000E+00 0.  1.
    9000007    1    1    2  501    0  0.12199372688E+03  0.25330807246E+02  0.15579506872E+03  0.44698570741E+03  0.40000000000E+03 0.  1.
   -9000007    1    1    2    0  503 -0.12199372688E+03 -0.25330807246E+02 -0.10960623136E+04  0.11734039008E+04  0.40000000000E+03 0.  1.
<mgrwt>
<rscale>  2 0.41895599E+03</rscale>
<asrwt>0</asrwt>
<pdfrwt beam="1">  1       21 0.52317105E-01 0.41895599E+03</pdfrwt>
<pdfrwt beam="2">  1       21 0.19697360E+00 0.41895599E+03</pdfrwt>
<totfact> 0.40577243E+02</totfact>
</mgrwt>
</event>
<event>
 4    1  0.4675559E-002  0.4687702E+03  0.7818608E-02  0.1022268E+00
         21   -1    0    0  503  502  0.00000000000E+00  0.00000000000E+00  0.55813084715E+03  0.55813084715E+03  0.00000000000E+00 0. -1.
         21   -1    0    0  501  503 -0.00000000000E+00 -0.00000000000E+00 -0.10538932346E+04  0.10538932346E+04  0.00000000000E+00 0.  1.
    9000007    1    1    2  501    0 -0.28590772001E+02 -0.24275099555E+03 -0.88581150477E+03  0.10022013271E+04  0.40000000000E+03 0.  1.
   -9000007    1    1    2    0  502  0.28590772001E+02  0.24275099555E+03  0.39004911736E+03  0.60982275460E+03  0.40000000000E+03 0. -1.
<mgrwt>
<rscale>  2 0.46877018E+03</rscale>
<asrwt>0</asrwt>
<pdfrwt beam="1">  1       21 0.85866285E-01 0.46877018E+03</pdfrwt>
<pdfrwt beam="2">  1       21 0.16213742E+00 0.46877018E+03</pdfrwt>
<totfact> 0.23026104E+02</totfact>
</mgrwt>
</event>
<event>
 4    1  0.4675559E-002  0.5049892E+03  0.7818608E-02  0.1012485E+00
         21   -1    0    0  503  502  0.00000000000E+00  0.00000000000E+00  0.35921098251E+03  0.35921098251E+03  0.00000000000E+00 0. -1.
         21   -1    0    0  501  503 -0.00000000000E+00 -0.00000000000E+00 -0.86863505646E+03  0.86863505646E+03  0.00000000000E+00 0.  1.
    9000007    1    1    2  501    0 -0.30492477670E+03 -0.45110190882E+02 -0.51712961586E+03  0.72279809654E+03  0.40000000000E+03 0.  1.
   -9000007    1    1    2    0  502  0.30492477670E+03  0.45110190882E+02  0.77055419108E+01  0.50504794242E+03  0.40000000000E+03 0. -1.
<mgrwt>
<rscale>  2 0.50498916E+03</rscale>
<asrwt>0</asrwt>
<pdfrwt beam="1">  1       21 0.55263228E-01 0.50498916E+03</pdfrwt>
<pdfrwt beam="2">  1       21 0.13363616E+00 0.50498916E+03</pdfrwt>
<totfact> 0.10328278E+03</totfact>
</mgrwt>
</event>
<event>
 4    1  0.4675559E-002  0.4249738E+03  0.7818608E-02  0.1035460E+00
         21   -1    0    0  501  502  0.00000000000E+00  0.00000000000E+00  0.21981259254E+03  0.21981259254E+03  0.00000000000E+00 0. -1.
         21   -1    0    0  502  503 -0.00000000000E+00 -0.00000000000E+00 -0.83880336947E+03  0.83880336947E+03  0.00000000000E+00 0. -1.
    9000007    1    1    2  501    0 -0.18102127497E+02  0.14239039070E+03 -0.23373957607E+03  0.48501226769E+03  0.40000000000E+03 0. -1.
   -9000007    1    1    2    0  503  0.18102127497E+02 -0.14239039070E+03 -0.38525120086E+03  0.57360369433E+03  0.40000000000E+03 0. -1.
<mgrwt>
<rscale>  2 0.42497378E+03</rscale>
<asrwt>0</asrwt>
<pdfrwt beam="1">  1       21 0.33817322E-01 0.42497378E+03</pdfrwt>
<pdfrwt beam="2">  1       21 0.12904667E+00 0.42497378E+03</pdfrwt>
<totfact> 0.32476731E+03</totfact>
</mgrwt>
</event>
<event>
 4    1  0.4675559E-002  0.5073470E+03  0.7818608E-02  0.1011879E+00
         21   -1    0    0  503  502  0.00000000000E+00  0.00000000000E+00  0.30198464663E+03  0.30198464663E+03  0.00000000000E+00 0.  1.
         21   -1    0    0  501  503 -0.00000000000E+00 -0.00000000000E+00 -0.15488578998E+04  0.15488578998E+04  0.00000000000E+00 0. -1.
    9000007    1    1    2  501    0  0.30671955572E+03 -0.57654834539E+02 -0.12440086904E+04  0.13434874721E+04  0.40000000000E+03 0. -1.
   -9000007    1    1    2    0  502 -0.30671955572E+03  0.57654834539E+02 -0.28645628199E+01  0.50735507441E+03  0.40000000000E+03 0.  1.
<mgrwt>
<rscale>  2 0.50734699E+03</rscale>
<asrwt>0</asrwt>
<pdfrwt beam="1">  1       21 0.46459176E-01 0.50734699E+03</pdfrwt>
<pdfrwt beam="2">  1       21 0.23828583E+00 0.50734699E+03</pdfrwt>
<totfact> 0.27034932E+02</totfact>
</mgrwt>
</event>
<event>
 4    1  0.4675559E-002  0.4303184E+03  0.7818608E-02  0.1033759E+00
         21   -1    0    0  501  502  0.00000000000E+00  0.00000000000E+00  0.82019247586E+03  0.82019247586E+03  0.00000000000E+00 0. -1.
         21   -1    0    0  502  503 -0.00000000000E+00 -0.00000000000E+00 -0.49842603954E+03  0.49842603954E+03  0.00000000000E+00 0. -1.
    9000007    1    1    2  501    0  0.41276137155E+02 -0.15320002289E+03  0.64852087562E+03  0.77830154351E+03  0.40000000000E+03 0. -1.
   -9000007    1    1    2    0  503 -0.41276137155E+02  0.15320002289E+03 -0.32675443929E+03  0.54031697189E+03  0.40000000000E+03 0. -1.
<mgrwt>
<rscale>  2 0.43031845E+03</rscale>
<asrwt>0</asrwt>
<pdfrwt beam="1">  1       21 0.12618346E+00 0.43031845E+03</pdfrwt>
<pdfrwt beam="2">  1       21 0.76680930E-01 0.43031845E+03</pdfrwt>
<totfact> 0.59659660E+02</totfact>
</mgrwt>
</event>
<event>
 4    1  0.4675559E-002  0.4109649E+03  0.7818608E-02  0.1040048E+00
         21   -1    0    0  501  502  0.00000000000E+00  0.00000000000E+00  0.47033361392E+03  0.47033361392E+03  0.00000000000E+00 0.  1.
         21   -1    0    0  502  503 -0.00000000000E+00 -0.00000000000E+00 -0.41426861565E+03  0.41426861565E+03  0.00000000000E+00 0.  1.
    9000007    1    1    2  501    0 -0.28615054763E+02 -0.89851720244E+02  0.18945421251E+03  0.45253182388E+03  0.40000000000E+03 0.  1.
   -9000007    1    1    2    0  503  0.28615054763E+02  0.89851720244E+02 -0.13338921424E+03  0.43207040568E+03  0.40000000000E+03 0.  1.
<mgrwt>
<rscale>  2 0.41096490E+03</rscale>
<asrwt>0</asrwt>
<pdfrwt beam="1">  1       21 0.72359017E-01 0.41096490E+03</pdfrwt>
<pdfrwt beam="2">  1       21 0.63733633E-01 0.41096490E+03</pdfrwt>
<totfact> 0.34691097E+03</totfact>
</mgrwt>
</event>
<event>
 4    1  0.4675559E-002  0.7364531E+03  0.7818608E-02  0.9656846E-01
         21   -1    0    0  501  502  0.00000000000E+00  0.00000000000E+00  0.27219104662E+03  0.27219104662E+03  0.00000000000E+00 0.  1.
         21   -1    0    0  502  503 -0.00000000000E+00 -0.00000000000E+00 -0.20488143703E+04  0.20488143703E+04  0.00000000000E+00 0. -1.
    9000007    1    1    2  501    0  0.53671445761E+03  0.30708419935E+03 -0.69605290042E+03  0.10133374338E+04  0.40000000000E+03 0. -1.
   -9000007    1    1    2    0  503 -0.53671445761E+03 -0.30708419935E+03 -0.10805704232E+04  0.13076679831E+04  0.40000000000E+03 0. -1.
<mgrwt>
<rscale>  2 0.73645306E+03</rscale>
<asrwt>0</asrwt>
<pdfrwt beam="1">  1       21 0.41875545E-01 0.73645306E+03</pdfrwt>
<pdfrwt beam="2">  1       21 0.31520222E+00 0.73645306E+03</pdfrwt>
<totfact> 0.10270537E+02</totfact>
</mgrwt>
</event>
<event>
 4    1  0.4675559E-002  0.4715403E+03  0.7818608E-02  0.1021486E+00
         21   -1    0    0  503  502  0.00000000000E+00  0.00000000000E+00  0.26085047269E+03  0.26085047269E+03  0.00000000000E+00 0.  1.
         21   -1    0    0  501  503 -0.00000000000E+00 -0.00000000000E+00 -0.15154364654E+04  0.15154364654E+04  0.00000000000E+00 0.  1.
    9000007    1    1    2  501    0  0.14239347707E+03 -0.20512030558E+03 -0.12147571017E+04  0.13030675570E+04  0.40000000000E+03 0.  1.
   -9000007    1    1    2    0  502 -0.14239347707E+03  0.20512030558E+03 -0.39828891047E+02  0.47321938108E+03  0.40000000000E+03 0.  1.
<mgrwt>
<rscale>  2 0.47154029E+03</rscale>
<asrwt>0</asrwt>
<pdfrwt beam="1">  1       21 0.40130842E-01 0.47154029E+03</pdfrwt>
<pdfrwt beam="2">  1       21 0.23314407E+00 0.47154029E+03</pdfrwt>
<totfact> 0.40226471E+02</totfact>
</mgrwt>
</event>
<event>
 4    1  0.4675559E-002  0.4353917E+03  0.7818608E-02  0.1032170E+00
         21   -1    0    0  503  502  0.00000000000E+00  0.00000000000E+00  0.10871688886E+03  0.10871688886E+03  0.00000000000E+00 0.  1.
         21   -1    0    0  501  503 -0.00000000000E+00 -0.00000000000E+00 -0.17460602283E+04  0.17460602283E+04  0.00000000000E+00 0.  1.
    9000007    1    1    2  501    0 -0.54556635334E+02 -0.16306292729E+03 -0.78433064513E+03  0.89707330002E+03  0.40000000000E+03 0.  1.
   -9000007    1    1    2    0  502  0.54556635334E+02  0.16306292729E+03 -0.85301269430E+03  0.95770381713E+03  0.40000000000E+03 0.  1.
<mgrwt>
<rscale>  2 0.43539171E+03</rscale>
<asrwt>0</asrwt>
<pdfrwt beam="1">  1       21 0.16725676E-01 0.43539171E+03</pdfrwt>
<pdfrwt beam="2">  1       21 0.26862464E+00 0.43539171E+03</pdfrwt>
<totfact> 0.13764406E+03</totfact>
</mgrwt>
</event>
<event>
 4    1  0.4675559E-002  0.6906347E+03  0.7818608E-02  0.9733383E-01
         21   -1    0    0  503  502  0.00000000000E+00  0.00000000000E+00  0.25759850953E+03  0.25759850953E+03  0.00000000000E+00 0.  1.
         21   -1    0    0  501  503 -0.00000000000E+00 -0.00000000000E+00 -0.21902676457E+04  0.21902676457E+04  0.00000000000E+00 0. -1.
    9000007    1    1    2  501    0  0.32466687469E+03 -0.45996493332E+03 -0.14475933965E+04  0.16039024163E+04  0.40000000000E+03 0. -1.
   -9000007    1    1    2    0  502 -0.32466687469E+03  0.45996493332E+03 -0.48507573965E+03  0.84396373891E+03  0.40000000000E+03 0.  1.
<mgrwt>
<rscale>  2 0.69063472E+03</rscale>
<asrwt>0</asrwt>
<pdfrwt beam="1">  1       21 0.39630540E-01 0.69063472E+03</pdfrwt>
<pdfrwt beam="2">  1       21 0.33696425E+00 0.69063472E+03</pdfrwt>
<totfact> 0.86141664E+01</totfact>
</mgrwt>
</event>
<event>
 4    1  0.4675559E-002  0.4562517E+03  0.7818608E-02  0.1025874E+00
         21   -1    0    0  501  502  0.00000000000E+00  0.00000000000E+00  0.18668222438E+03  0.18668222438E+03  0.00000000000E+00 0. -1.
         21   -1    0    0  502  503 -0.00000000000E+00 -0.00000000000E+00 -0.13758449992E+04  0.13758449992E+04  0.00000000000E+00 0. -1.
    9000007    1    1    2  501    0 -0.20946610308E+03  0.65494892192E+02 -0.25445727079E+03  0.52241184127E+03  0.40000000000E+03 0. -1.
   -9000007    1    1    2    0  503  0.20946610308E+03 -0.65494892192E+02 -0.93470550407E+03  0.10401153823E+04  0.40000000000E+03 0. -1.
<mgrwt>
<rscale>  2 0.45625172E+03</rscale>
<asrwt>0</asrwt>
<pdfrwt beam="1">  1       21 0.28720343E-01 0.45625172E+03</pdfrwt>
<pdfrwt beam="2">  1       21 0.21166846E+00 0.45625172E+03</pdfrwt>
<totfact> 0.10914720E+03</totfact>
</mgrwt>
</event>
<event>
 4    1  0.4675559E-002  0.5009195E+03  0.7818608E-02  0.1013539E+00
         21   -1    0    0  503  502  0.00000000000E+00  0.00000000000E+00  0.21564080575E+03  0.21564080575E+03  0.00000000000E+00 0. -1.
         21   -1    0    0  501  503 -0.00000000000E+00 -0.00000000000E+00 -0.17233741690E+04  0.17233741690E+04  0.00000000000E+00 0.  1.
    9000007    1    1    2  501    0 -0.25232166573E+03 -0.16508808918E+03 -0.13064103670E+04  0.13991527247E+04  0.40000000000E+03 0.  1.
   -9000007    1    1    2    0  502  0.25232166573E+03  0.16508808918E+03 -0.20132299631E+03  0.53986225005E+03  0.40000000000E+03 0. -1.
<mgrwt>
<rscale>  2 0.50091945E+03</rscale>
<asrwt>0</asrwt>
<pdfrwt beam="1">  1       21 0.33175511E-01 0.50091945E+03</pdfrwt>
<pdfrwt beam="2">  1       21 0.26513447E+00 0.50091945E+03</pdfrwt>
<totfact> 0.37070457E+02</totfact>
</mgrwt>
</event>
<event>
 4    1  0.4675559E-002  0.5128984E+03  0.7818608E-02  0.1010466E+00
         21   -1    0    0  503  502  0.00000000000E+00  0.00000000000E+00  0.11068438373E+04  0.11068438373E+04  0.00000000000E+00 0.  1.
         21   -1    0    0  501  503 -0.00000000000E+00 -0.00000000000E+00 -0.25599039674E+03  0.25599039674E+03  0.00000000000E+00 0.  1.
    9000007    1    1    2  501    0 -0.29580003149E+03  0.12476805626E+03  0.24313946490E+03  0.56761036450E+03  0.40000000000E+03 0.  1.
   -9000007    1    1    2    0  502  0.29580003149E+03 -0.12476805626E+03  0.60771397565E+03  0.79522386954E+03  0.40000000000E+03 0.  1.
<mgrwt>
<rscale>  2 0.51289836E+03</rscale>
<asrwt>0</asrwt>
<pdfrwt beam="1">  1       21 0.17028367E+00 0.51289836E+03</pdfrwt>
<pdfrwt beam="2">  1       21 0.39383138E-01 0.51289836E+03</pdfrwt>
<totfact> 0.10844644E+03</totfact>
</mgrwt>
</event>
<event>
 4    1  0.4675559E-002  0.4038296E+03  0.7818608E-02  0.1042462E+00
         21   -1    0    0  503  502  0.00000000000E+00  0.00000000000E+00  0.23437911314E+03  0.23437911314E+03  0.00000000000E+00 0. -1.
         21   -1    0    0  501  503 -0.00000000000E+00 -0.00000000000E+00 -0.71171390232E+03  0.71171390232E+03  0.00000000000E+00 0. -1.
    9000007    1    1    2  501    0  0.10107989075E+02  0.54554466743E+02 -0.30942811829E+03  0.50874760115E+03  0.40000000000E+03 0. -1.
   -9000007    1    1    2    0  502 -0.10107989075E+02 -0.54554466743E+02 -0.16790667089E+03  0.43734541431E+03  0.40000000000E+03 0. -1.
<mgrwt>
<rscale>  2 0.40382962E+03</rscale>
<asrwt>0</asrwt>
<pdfrwt beam="1">  1       21 0.36058326E-01 0.40382962E+03</pdfrwt>
<pdfrwt beam="2">  1       21 0.10949444E+00 0.40382962E+03</pdfrwt>
<totfact> 0.43561544E+03</totfact>
</mgrwt>
</event>
<event>
 4    1  0.4675559E-002  0.4018408E+03  0.7818608E-02  0.1043144E+00
         21   -1    0    0  501  502  0.00000000000E+00  0.00000000000E+00  0.61008790697E+02  0.61008790697E+02  0.00000000000E+00 0.  1.
         21   -1    0    0  502  503 -0.00000000000E+00 -0.00000000000E+00 -0.27747994883E+04  0.27747994883E+04  0.00000000000E+00 0.  1.
    9000007    1    1    2  501    0 -0.38366277392E+02 -0.20128735482E+01 -0.10523219126E+04  0.11264357197E+04  0.40000000000E+03 0.  1.
   -9000007    1    1    2    0  503  0.38366277392E+02  0.20128735482E+01 -0.16614687850E+04  0.17093725593E+04  0.40000000000E+03 0.  1.
<mgrwt>
<rscale>  2 0.40184079E+03</rscale>
<asrwt>0</asrwt>
<pdfrwt beam="1">  1       21 0.93859657E-02 0.40184079E+03</pdfrwt>
<pdfrwt beam="2">  1       21 0.42689233E+00 0.40184079E+03</pdfrwt>
<totfact> 0.42529938E+02</totfact>
</mgrwt>
</event>
<event>
 4    1  0.4675559E-002  0.6635983E+03  0.7818608E-02  0.9781592E-01
         21   -1    0    0  501  502  0.00000000000E+00  0.00000000000E+00  0.88656530679E+03  0.88656530679E+03  0.00000000000E+00 0.  1.
         21   -1    0    0  502  503 -0.00000000000E+00 -0.00000000000E+00 -0.61559107648E+03  0.61559107648E+03  0.00000000000E+00 0. -1.
    9000007    1    1    2  501    0 -0.47729191162E+03  0.22924897273E+03  0.46555398707E+03  0.81061900747E+03  0.40000000000E+03 0. -1.
   -9000007    1    1    2    0  503  0.47729191162E+03 -0.22924897273E+03 -0.19457975676E+03  0.69153737580E+03  0.40000000000E+03 0.  1.
<mgrwt>
<rscale>  2 0.66359827E+03</rscale>
<asrwt>0</asrwt>
<pdfrwt beam="1">  1       21 0.13639466E+00 0.66359827E+03</pdfrwt>
<pdfrwt beam="2">  1       21 0.94706320E-01 0.66359827E+03</pdfrwt>
<totfact> 0.27085141E+02</totfact>
</mgrwt>
</event>
<event>
 4    1  0.4675559E-002  0.4010918E+03  0.7818608E-02  0.1043402E+00
         21   -1    0    0  503  502  0.00000000000E+00  0.00000000000E+00  0.37880664084E+03  0.37880664084E+03  0.00000000000E+00 0. -1.
         21   -1    0    0  501  503 -0.00000000000E+00 -0.00000000000E+00 -0.62807427802E+03  0.62807427802E+03  0.00000000000E+00 0. -1.
    9000007    1    1    2  501    0 -0.20356205522E+02 -0.21452907965E+02 -0.41111989969E+03  0.57436414781E+03  0.40000000000E+03 0. -1.
   -9000007    1    1    2    0  502  0.20356205522E+02  0.21452907965E+02  0.16185226252E+03  0.43251677106E+03  0.40000000000E+03 0. -1.
<mgrwt>
<rscale>  2 0.40109176E+03</rscale>
<asrwt>0</asrwt>
<pdfrwt beam="1">  1       21 0.58277946E-01 0.40109176E+03</pdfrwt>
<pdfrwt beam="2">  1       21 0.96626810E-01 0.40109176E+03</pdfrwt>
<totfact> 0.21621088E+03</totfact>
</mgrwt>
</event>
<event>
 4    1  0.4675559E-002  0.4676747E+03  0.7818608E-02  0.1022579E+00
         21   -1    0    0  503  502  0.00000000000E+00  0.00000000000E+00  0.11176321330E+04  0.11176321330E+04  0.00000000000E+00 0.  1.
         21   -1    0    0  501  503 -0.00000000000E+00 -0.00000000000E+00 -0.21562984653E+03  0.21562984653E+03  0.00000000000E+00 0.  1.
    9000007    1    1    2  501    0  0.24230140458E+03 -0.31128582912E+01  0.24832983086E+03  0.52951616165E+03  0.40000000000E+03 0.  1.
   -9000007    1    1    2    0  502 -0.24230140458E+03  0.31128582912E+01  0.65367245561E+03  0.80374581789E+03  0.40000000000E+03 0.  1.
<mgrwt>
<rscale>  2 0.46767474E+03</rscale>
<asrwt>0</asrwt>
<pdfrwt beam="1">  1       21 0.17194340E+00 0.46767474E+03</pdfrwt>
<pdfrwt beam="2">  1       21 0.33173823E-01 0.46767474E+03</pdfrwt>
<totfact> 0.15224605E+03</totfact>
</mgrwt>
</event>
<event>
 4    1  0.4675559E-002  0.4443719E+03  0.7818608E-02  0.1029414E+00
         21   -1    0    0  501  502  0.00000000000E+00  0.00000000000E+00  0.54261678251E+03  0.54261678251E+03  0.00000000000E+00 0. -1.
         21   -1    0    0  502  503 -0.00000000000E+00 -0.00000000000E+00 -0.89654672906E+03  0.89654672906E+03  0.00000000000E+00 0. -1.
    9000007    1    1    2  501    0 -0.13104101178E+03 -0.14245913525E+03  0.37766996198E+03  0.58318174883E+03  0.40000000000E+03 0. -1.
   -9000007    1    1    2    0  503  0.13104101178E+03  0.14245913525E+03 -0.73159990853E+03  0.85598176274E+03  0.40000000000E+03 0. -1.
<mgrwt>
<rscale>  2 0.44437186E+03</rscale>
<asrwt>0</asrwt>
<pdfrwt beam="1">  1       21 0.83479505E-01 0.44437186E+03</pdfrwt>
<pdfrwt beam="2">  1       21 0.13793027E+00 0.44437186E+03</pdfrwt>
<totfact> 0.38635862E+02</totfact>
</mgrwt>
</event>
<event>
 4    1  0.4675559E-002  0.4205312E+03  0.7818608E-02  0.1036894E+00
         21   -1    0    0  501  502  0.00000000000E+00  0.00000000000E+00  0.38842038832E+03  0.38842038832E+03  0.00000000000E+00 0.  1.
         21   -1    0    0  502  503 -0.00000000000E+00 -0.00000000000E+00 -0.51357211484E+03  0.51357211484E+03  0.00000000000E+00 0.  1.
    9000007    1    1    2  501    0  0.12456752865E+02 -0.12919490515E+03  0.89344209196E+02  0.42991729661E+03  0.40000000000E+03 0. -1.
   -9000007    1    1    2    0  503 -0.12456752865E+02  0.12919490515E+03 -0.21449593572E+03  0.47207520656E+03  0.40000000000E+03 0. -1.
<mgrwt>
<rscale>  2 0.42053120E+03</rscale>
<asrwt>0</asrwt>
<pdfrwt beam="1">  1       21 0.59756983E-01 0.42053120E+03</pdfrwt>
<pdfrwt beam="2">  1       21 0.79011094E-01 0.42053120E+03</pdfrwt>
<totfact> 0.32588469E+03</totfact>
</mgrwt>
</event>
<event>
 4    1  0.4675559E-002  0.4224239E+03  0.7818608E-02  0.1036280E+00
         21   -1    0    0  501  502  0.00000000000E+00  0.00000000000E+00  0.12274717433E+04  0.12274717433E+04  0.00000000000E+00 0. -1.
         21   -1    0    0  502  503 -0.00000000000E+00 -0.00000000000E+00 -0.22461372308E+03  0.22461372308E+03  0.00000000000E+00 0.  1.
    9000007    1    1    2  501    0  0.11095256223E+03  0.78303952060E+02  0.93266661408E+03  0.10238696172E+04  0.40000000000E+03 0. -1.
   -9000007    1    1    2    0  503 -0.11095256223E+03 -0.78303952060E+02  0.70191406102E+02  0.42821584915E+03  0.40000000000E+03 0.  1.
<mgrwt>
<rscale>  2 0.42242393E+03</rscale>
<asrwt>0</asrwt>
<pdfrwt beam="1">  1       21 0.18884180E+00 0.42242393E+03</pdfrwt>
<pdfrwt beam="2">  1       21 0.34555958E-01 0.42242393E+03</pdfrwt>
<totfact> 0.10876827E+03</totfact>
</mgrwt>
</event>
<event>
 4    1  0.4675559E-002  0.4142515E+03  0.7818608E-02  0.1038954E+00
         21   -1    0    0  501  502  0.00000000000E+00  0.00000000000E+00  0.43820342660E+03  0.43820342660E+03  0.00000000000E+00 0. -1.
         21   -1    0    0  502  503 -0.00000000000E+00 -0.00000000000E+00 -0.40320678710E+03  0.40320678710E+03  0.00000000000E+00 0. -1.
    9000007    1    1    2  501    0 -0.35050967580E+02  0.10186145160E+03 -0.53853466957E+02  0.41773738348E+03  0.40000000000E+03 0. -1.
   -9000007    1    1    2    0  503  0.35050967580E+02 -0.10186145160E+03  0.88850106454E+02  0.42367283022E+03  0.40000000000E+03 0. -1.
<mgrwt>
<rscale>  2 0.41425152E+03</rscale>
<asrwt>0</asrwt>
<pdfrwt beam="1">  1       21 0.67415912E-01 0.41425152E+03</pdfrwt>
<pdfrwt beam="2">  1       21 0.62031814E-01 0.41425152E+03</pdfrwt>
<totfact> 0.43116860E+03</totfact>
</mgrwt>
</event>
<event>
 4    1  0.4675559E-002  0.4359047E+03  0.7818608E-02  0.1032011E+00
         21   -1    0    0  501  502  0.00000000000E+00  0.00000000000E+00  0.10526072831E+04  0.10526072831E+04  0.00000000000E+00 0. -1.
         21   -1    0    0  502  503 -0.00000000000E+00 -0.00000000000E+00 -0.22231068921E+03  0.22231068921E+03  0.00000000000E+00 0. -1.
    9000007    1    1    2  501    0 -0.17318043780E+03  0.46315690909E+01  0.69154340923E+03  0.81746266112E+03  0.40000000000E+03 0. -1.
   -9000007    1    1    2    0  503  0.17318043780E+03 -0.46315690909E+01  0.13875318464E+03  0.45745531117E+03  0.40000000000E+03 0. -1.
<mgrwt>
<rscale>  2 0.43590471E+03</rscale>
<asrwt>0</asrwt>
<pdfrwt beam="1">  1       21 0.16193958E+00 0.43590471E+03</pdfrwt>
<pdfrwt beam="2">  1       21 0.34201645E-01 0.43590471E+03</pdfrwt>
<totfact> 0.17186973E+03</totfact>
</mgrwt>
</event>
<event>
 4    1  0.4675559E-002  0.4423388E+03  0.7818608E-02  0.1030032E+00
         21   -1    0    0  501  502  0.00000000000E+00  0.00000000000E+00  0.40965332624E+03  0.40965332624E+03  0.00000000000E+00 0. -1.
         21   -1    0    0  502  503 -0.00000000000E+00 -0.00000000000E+00 -0.60528149089E+03  0.60528149089E+03  0.00000000000E+00 0. -1.
    9000007    1    1    2  501    0  0.18458790931E+03 -0.39886426427E+02  0.13523030406E+03  0.46254822280E+03  0.40000000000E+03 0. -1.
   -9000007    1    1    2    0  503 -0.18458790931E+03  0.39886426427E+02 -0.33085846872E+03  0.55238659433E+03  0.40000000000E+03 0. -1.
<mgrwt>
<rscale>  2 0.44233881E+03</rscale>
<asrwt>0</asrwt>
<pdfrwt beam="1">  1       21 0.63023589E-01 0.44233881E+03</pdfrwt>
<pdfrwt beam="2">  1       21 0.93120229E-01 0.44233881E+03</pdfrwt>
<totfact> 0.19567978E+03</totfact>
</mgrwt>
</event>
<event>
 4    1  0.4675559E-002  0.4253252E+03  0.7818608E-02  0.1035347E+00
         21   -1    0    0  503  502  0.00000000000E+00  0.00000000000E+00  0.25651021779E+03  0.25651021779E+03  0.00000000000E+00 0. -1.
         21   -1    0    0  501  503 -0.00000000000E+00 -0.00000000000E+00 -0.91263441459E+03  0.91263441459E+03  0.00000000000E+00 0. -1.
    9000007    1    1    2  501    0 -0.12584510631E+03  0.71165362566E+02 -0.60673028925E+03  0.74096095950E+03  0.40000000000E+03 0. -1.
   -9000007    1    1    2    0  502  0.12584510631E+03 -0.71165362566E+02 -0.49393907551E+02  0.42818367287E+03  0.40000000000E+03 0. -1.
<mgrwt>
<rscale>  2 0.42532517E+03</rscale>
<asrwt>0</asrwt>
<pdfrwt beam="1">  1       21 0.39463110E-01 0.42532517E+03</pdfrwt>
<pdfrwt beam="2">  1       21 0.14040530E+00 0.42532517E+03</pdfrwt>
<totfact> 0.19025539E+03</totfact>
</mgrwt>
</event>
<event>
 4    1  0.4675559E-002  0.4082129E+03  0.7818608E-02  0.1040972E+00
         21   -1    0    0  501  502  0.00000000000E+00  0.00000000000E+00  0.24854623010E+03  0.24854623010E+03  0.00000000000E+00 0.  1.
         21   -1    0    0  502  503 -0.00000000000E+00 -0.00000000000E+00 -0.10474894760E+04  0.10474894760E+04  0.00000000000E+00 0.  1.
    9000007    1    1    2  501    0  0.80756502971E+02  0.10778302098E+02 -0.10690087691E+02  0.40835286523E+03  0.40000000000E+03 0.  1.
   -9000007    1    1    2    0  503 -0.80756502971E+02 -0.10778302098E+02 -0.78825315824E+03  0.88768284091E+03  0.40000000000E+03 0.  1.
<mgrwt>
<rscale>  2 0.40821292E+03</rscale>
<asrwt>0</asrwt>
<pdfrwt beam="1">  1       21 0.38237881E-01 0.40821292E+03</pdfrwt>
<pdfrwt beam="2">  1       21 0.16115223E+00 0.40821292E+03</pdfrwt>
<totfact> 0.14063284E+03</totfact>
</mgrwt>
</event>
<event>
 4    1  0.4675559E-002  0.4831377E+03  0.7818608E-02  0.1018276E+00
         21   -1    0    0  501  502  0.00000000000E+00  0.00000000000E+00  0.23748970933E+03  0.23748970933E+03  0.00000000000E+00 0.  1.
         21   -1    0    0  502  503 -0.00000000000E+00 -0.00000000000E+00 -0.98377985868E+03  0.98377985868E+03  0.00000000000E+00 0. -1.
    9000007    1    1    2  501    0 -0.24908278419E+03 -0.10667619218E+03 -0.35459765456E+03  0.59930087600E+03  0.40000000000E+03 0.  1.
   -9000007    1    1    2    0  503  0.24908278419E+03  0.10667619218E+03 -0.39169249480E+03  0.62196869201E+03  0.40000000000E+03 0. -1.
<mgrwt>
<rscale>  2 0.48313771E+03</rscale>
<asrwt>0</asrwt>
<pdfrwt beam="1">  1       21 0.36536878E-01 0.48313771E+03</pdfrwt>
<pdfrwt beam="2">  1       21 0.15135075E+00 0.48313771E+03</pdfrwt>
<totfact> 0.17783427E+03</totfact>
</mgrwt>
</event>
<event>
 4    1  0.4675559E-002  0.4158720E+03  0.7818608E-02  0.1038418E+00
         21   -1    0    0  501  502  0.00000000000E+00  0.00000000000E+00  0.17678137298E+03  0.17678137298E+03  0.00000000000E+00 0. -1.
         21   -1    0    0  502  503 -0.00000000000E+00 -0.00000000000E+00 -0.15457969898E+04  0.15457969898E+04  0.00000000000E+00 0. -1.
    9000007    1    1    2  501    0  0.37108696657E+01  0.11373543971E+03 -0.16265835936E+03  0.44655040328E+03  0.40000000000E+03 0. -1.
   -9000007    1    1    2    0  503 -0.37108696657E+01 -0.11373543971E+03 -0.12063572575E+04  0.12760279595E+04  0.40000000000E+03 0. -1.
<mgrwt>
<rscale>  2 0.41587200E+03</rscale>
<asrwt>0</asrwt>
<pdfrwt beam="1">  1       21 0.27197133E-01 0.41587200E+03</pdfrwt>
<pdfrwt beam="2">  1       21 0.23781493E+00 0.41587200E+03</pdfrwt>
<totfact> 0.84620970E+02</totfact>
</mgrwt>
</event>
<event>
 4    1  0.4675559E-002  0.5364567E+03  0.7818608E-02  0.1004678E+00
         21   -1    0    0  501  502  0.00000000000E+00  0.00000000000E+00  0.99638093590E+03  0.99638093590E+03  0.00000000000E+00 0.  1.
         21   -1    0    0  502  503 -0.00000000000E+00 -0.00000000000E+00 -0.30502820029E+03  0.30502820029E+03  0.00000000000E+00 0. -1.
    9000007    1    1    2  501    0 -0.35795946249E+01  0.35745348956E+03  0.49562150104E+03  0.73036051577E+03  0.40000000000E+03 0. -1.
   -9000007    1    1    2    0  503  0.35795946249E+01 -0.35745348956E+03  0.19573123456E+03  0.57104862042E+03  0.40000000000E+03 0.  1.
<mgrwt>
<rscale>  2 0.53645672E+03</rscale>
<asrwt>0</asrwt>
<pdfrwt beam="1">  1       21 0.15328937E+00 0.53645672E+03</pdfrwt>
<pdfrwt beam="2">  1       21 0.46927416E-01 0.53645672E+03</pdfrwt>
<totfact> 0.10019227E+03</totfact>
</mgrwt>
</event>
<event>
 4    1  0.4675559E-002  0.4714675E+03  0.7818608E-02  0.1021507E+00
         21   -1    0    0  503  502  0.00000000000E+00  0.00000000000E+00  0.25254201113E+03  0.25254201113E+03  0.00000000000E+00 0. -1.
         21   -1    0    0  501  503 -0.00000000000E+00 -0.00000000000E+00 -0.93810471429E+03  0.93810471429E+03  0.00000000000E+00 0. -1.
    9000007    1    1    2  501    0  0.23897133093E+03 -0.71932377749E+02 -0.49071672521E+03  0.68050309946E+03  0.40000000000E+03 0.  1.
   -9000007    1    1    2    0  502 -0.23897133093E+03  0.71932377749E+02 -0.19484597795E+03  0.51014362595E+03  0.40000000000E+03 0.  1.
<mgrwt>
<rscale>  2 0.47146746E+03</rscale>
<asrwt>0</asrwt>
<pdfrwt beam="1">  1       21 0.38852617E-01 0.47146746E+03</pdfrwt>
<pdfrwt beam="2">  1       21 0.14432380E+00 0.47146746E+03</pdfrwt>
<totfact> 0.17917816E+03</totfact>
</mgrwt>
</event>
<event>
 4    1  0.4675559E-002  0.7181160E+03  0.7818608E-02  0.9686743E-01
         21   -1    0    0  503  502  0.00000000000E+00  0.00000000000E+00  0.26937715836E+03  0.26937715836E+03  0.00000000000E+00 0. -1.
         21   -1    0    0  501  503 -0.00000000000E+00 -0.00000000000E+00 -0.19144114927E+04  0.19144114927E+04  0.00000000000E+00 0.  1.
    9000007    1    1    2  501    0  0.44319305221E+03 -0.39908700390E+03 -0.82687372749E+03  0.10951760952E+04  0.40000000000E+03 0. -1.
   -9000007    1    1    2    0  502 -0.44319305221E+03  0.39908700390E+03 -0.81816060680E+03  0.10886125558E+04  0.40000000000E+03 0.  1.
<mgrwt>
<rscale>  2 0.71811595E+03</rscale>
<asrwt>0</asrwt>
<pdfrwt beam="1">  1       21 0.41442640E-01 0.71811595E+03</pdfrwt>
<pdfrwt beam="2">  1       21 0.29452484E+00 0.71811595E+03</pdfrwt>
<totfact> 0.14156526E+02</totfact>
</mgrwt>
</event>
<event>
 4    1  0.4675559E-002  0.4384527E+03  0.7818608E-02  0.1031223E+00
         21   -1    0    0  501  502  0.00000000000E+00  0.00000000000E+00  0.37690932753E+03  0.37690932753E+03  0.00000000000E+00 0.  1.
         21   -1    0    0  502  503 -0.00000000000E+00 -0.00000000000E+00 -0.77935262153E+03  0.77935262153E+03  0.00000000000E+00 0.  1.
    9000007    1    1    2  501    0  0.13547329468E+03  0.11784639928E+03  0.13862533029E+03  0.45984537574E+03  0.40000000000E+03 0.  1.
   -9000007    1    1    2    0  503 -0.13547329468E+03 -0.11784639928E+03 -0.54106862430E+03  0.69641657332E+03  0.40000000000E+03 0.  1.
<mgrwt>
<rscale>  2 0.43845272E+03</rscale>
<asrwt>0</asrwt>
<pdfrwt beam="1">  1       21 0.57986050E-01 0.43845272E+03</pdfrwt>
<pdfrwt beam="2">  1       21 0.11990040E+00 0.43845272E+03</pdfrwt>
<totfact> 0.12639106E+03</totfact>
</mgrwt>
</event>
<event>
 4    1  0.4675559E-002  0.5338344E+03  0.7818608E-02  0.1005306E+00
         21   -1    0    0  503  502  0.00000000000E+00  0.00000000000E+00  0.87200495098E+03  0.87200495098E+03  0.00000000000E+00 0. -1.
         21   -1    0    0  501  503 -0.00000000000E+00 -0.00000000000E+00 -0.35209915850E+03  0.35209915850E+03  0.00000000000E+00 0.  1.
    9000007    1    1    2  501    0 -0.33351375598E+03 -0.11725054074E+03  0.95919920811E+02  0.54238339387E+03  0.40000000000E+03 0. -1.
   -9000007    1    1    2    0  502  0.33351375598E+03  0.11725054074E+03  0.42398587167E+03  0.68172071562E+03  0.40000000000E+03 0.  1.
<mgrwt>
<rscale>  2 0.53383435E+03</rscale>
<asrwt>0</asrwt>
<pdfrwt beam="1">  1       21 0.13415461E+00 0.53383435E+03</pdfrwt>
<pdfrwt beam="2">  1       21 0.54169102E-01 0.53383435E+03</pdfrwt>
<totfact> 0.10566620E+03</totfact>
</mgrwt>
</event>
<event>
 4    1  0.4675559E-002  0.4332649E+03  0.7818608E-02  0.1032834E+00
         21   -1    0    0  501  502  0.00000000000E+00  0.00000000000E+00  0.21680382339E+03  0.21680382339E+03  0.00000000000E+00 0. -1.
         21   -1    0    0  502  503 -0.00000000000E+00 -0.00000000000E+00 -0.13168085064E+04  0.13168085064E+04  0.00000000000E+00 0. -1.
    9000007    1    1    2  501    0  0.72518178942E+02 -0.14986519204E+03 -0.10126203313E+03  0.44494096397E+03  0.40000000000E+03 0. -1.
   -9000007    1    1    2    0  503 -0.72518178942E+02  0.14986519204E+03 -0.99874264989E+03  0.10886713658E+04  0.40000000000E+03 0. -1.
<mgrwt>
<rscale>  2 0.43326489E+03</rscale>
<asrwt>0</asrwt>
<pdfrwt beam="1">  1       21 0.33354435E-01 0.43326489E+03</pdfrwt>
<pdfrwt beam="2">  1       21 0.20258592E+00 0.43326489E+03</pdfrwt>
<totfact> 0.93909440E+02</totfact>
</mgrwt>
</event>
<event>
 4    1  0.4675559E-002  0.4875847E+03  0.7818608E-02  0.1017071E+00
         21   -1    0    0  503  502  0.00000000000E+00  0.00000000000E+00  0.12248183546E+03  0.12248183546E+03  0.00000000000E+00 0.  1.
         21   -1    0    0  501  503 -0.00000000000E+00 -0.00000000000E+00 -0.19547870082E+04  0.19547870082E+04  0.00000000000E+00 0. -1.
    9000007    1    1    2  501    0 -0.56744793243E+02  0.27298142168E+03 -0.82896713346E+03  0.96173038659E+03  0.40000000000E+03 0. -1.
   -9000007    1    1    2    0  502  0.56744793243E+02 -0.27298142168E+03 -0.10033380393E+04  0.11155384571E+04  0.40000000000E+03 0. -1.
<mgrwt>
<rscale>  2 0.48758469E+03</rscale>
<asrwt>0</asrwt>
<pdfrwt beam="1">  1       21 0.18843360E-01 0.48758469E+03</pdfrwt>
<pdfrwt beam="2">  1       21 0.30073645E+00 0.48758469E+03</pdfrwt>
<totfact> 0.68527427E+02</totfact>
</mgrwt>
</event>
<event>
 4    1  0.4675559E-002  0.4167925E+03  0.7818608E-02  0.1038115E+00
         21   -1    0    0  501  502  0.00000000000E+00  0.00000000000E+00  0.23405236375E+03  0.23405236375E+03  0.00000000000E+00 0. -1.
         21   -1    0    0  502  503 -0.00000000000E+00 -0.00000000000E+00 -0.77294014701E+03  0.77294014701E+03  0.00000000000E+00 0. -1.
    9000007    1    1    2  501    0  0.97896771271E+02 -0.64282058268E+02 -0.36983770741E+03  0.55722158129E+03  0.40000000000E+03 0.  1.
   -9000007    1    1    2    0  503 -0.97896771271E+02  0.64282058268E+02 -0.16905007585E+03  0.44977092946E+03  0.40000000000E+03 0.  1.
<mgrwt>
<rscale>  2 0.41679247E+03</rscale>
<asrwt>0</asrwt>
<pdfrwt beam="1">  1       21 0.36008056E-01 0.41679247E+03</pdfrwt>
<pdfrwt beam="2">  1       21 0.11891387E+00 0.41679247E+03</pdfrwt>
<totfact> 0.35385391E+03</totfact>
</mgrwt>
</event>
<event>
 4    1  0.4675559E-002  0.4696699E+03  0.7818608E-02  0.1022013E+00
         21   -1    0    0  501  502  0.00000000000E+00  0.00000000000E+00  0.19475229047E+04  0.19475229047E+04  0.00000000000E+00 0.  1.
         21   -1    0    0  502  503 -0.00000000000E+00 -0.00000000000E+00 -0.12744877348E+03  0.12744877348E+03  0.00000000000E+00 0. -1.
    9000007    1    1    2  501    0 -0.19678764438E+03 -0.14786634955E+03  0.12561210695E+04  0.13410555453E+04  0.40000000000E+03 0.  1.
   -9000007    1    1    2    0  503  0.19678764438E+03  0.14786634955E+03  0.56395306171E+03  0.73391613289E+03  0.40000000000E+03 0. -1.
<mgrwt>
<rscale>  2 0.46966992E+03</rscale>
<asrwt>0</asrwt>
<pdfrwt beam="1">  1       21 0.29961889E+00 0.46966992E+03</pdfrwt>
<pdfrwt beam="2">  1       21 0.19607505E-01 0.46966992E+03</pdfrwt>
<totfact> 0.65153722E+02</totfact>
</mgrwt>
</event>
<event>
 4    1  0.4675559E-002  0.7865636E+03  0.7818608E-02  0.9579672E-01
         21   -1    0    0  501  502  0.00000000000E+00  0.00000000000E+00  0.76179907576E+03  0.76179907576E+03  0.00000000000E+00 0. -1.
         21   -1    0    0  502  503 -0.00000000000E+00 -0.00000000000E+00 -0.83833343632E+03  0.83833343632E+03  0.00000000000E+00 0.  1.
    9000007    1    1    2  501    0  0.31384732028E+03  0.60015172054E+03  0.10317247077E+03  0.79330119554E+03  0.40000000000E+03 0.  1.
   -9000007    1    1    2    0  503 -0.31384732028E+03 -0.60015172054E+03 -0.17970683134E+03  0.80683131654E+03  0.40000000000E+03 0. -1.
<mgrwt>
<rscale>  2 0.78656356E+03</rscale>
<asrwt>0</asrwt>
<pdfrwt beam="1">  1       21 0.11719986E+00 0.78656356E+03</pdfrwt>
<pdfrwt beam="2">  1       21 0.12897437E+00 0.78656356E+03</pdfrwt>
<totfact> 0.17811621E+02</totfact>
</mgrwt>
</event>
<event>
 4    1  0.4675559E-002  0.4453453E+03  0.7818608E-02  0.1029119E+00
         21   -1    0    0  501  502  0.00000000000E+00  0.00000000000E+00  0.16696151576E+03  0.16696151576E+03  0.00000000000E+00 0.  1.
         21   -1    0    0  502  503 -0.00000000000E+00 -0.00000000000E+00 -0.17304286205E+04  0.17304286205E+04  0.00000000000E+00 0.  1.
    9000007    1    1    2  501    0 -0.10069839792E+02  0.19552747012E+03 -0.25052631803E+03  0.51097537052E+03  0.40000000000E+03 0.  1.
   -9000007    1    1    2    0  503  0.10069839792E+02 -0.19552747012E+03 -0.13129407867E+04  0.13864147657E+04  0.40000000000E+03 0.  1.
<mgrwt>
<rscale>  2 0.44534525E+03</rscale>
<asrwt>0</asrwt>
<pdfrwt beam="1">  1       21 0.25686388E-01 0.44534525E+03</pdfrwt>
<pdfrwt beam="2">  1       21 0.26621978E+00 0.44534525E+03</pdfrwt>
<totfact> 0.62413398E+02</totfact>
</mgrwt>
</event>
<event>
 4    1  0.4675559E-002  0.4037180E+03  0.7818608E-02  0.1042500E+00
         21   -1    0    0  503  502  0.00000000000E+00  0.00000000000E+00  0.11698451007E+04  0.11698451007E+04  0.00000000000E+00 0. -1.
         21   -1    0    0  501  503 -0.00000000000E+00 -0.00000000000E+00 -0.19250985785E+03  0.19250985785E+03  0.00000000000E+00 0. -1.
    9000007    1    1    2  501    0 -0.32309307758E+02  0.44094995865E+02  0.13062953938E+03  0.42432574349E+03  0.40000000000E+03 0.  1.
   -9000007    1    1    2    0  502  0.32309307758E+02 -0.44094995865E+02  0.84670570343E+03  0.93802921503E+03  0.40000000000E+03 0.  1.
<mgrwt>
<rscale>  2 0.40371805E+03</rscale>
<asrwt>0</asrwt>
<pdfrwt beam="1">  1       21 0.17997616E+00 0.40371805E+03</pdfrwt>
<pdfrwt beam="2">  1       21 0.29616902E-01 0.40371805E+03</pdfrwt>
<totfact> 0.17205016E+03</totfact>
</mgrwt>
</event>
<event>
 4    1  0.4675559E-002  0.5771117E+03  0.7818608E-02  0.9954064E-01
         21   -1    0    0  501  502  0.00000000000E+00  0.00000000000E+00  0.36800452491E+03  0.36800452491E+03  0.00000000000E+00 0.  1.
         21   -1    0    0  502  503 -0.00000000000E+00 -0.00000000000E+00 -0.90534026168E+03  0.90534026168E+03  0.00000000000E+00 0.  1.
    9000007    1    1    2  501    0  0.41546966970E+03  0.21045322813E+02 -0.28030778153E+03  0.64158429254E+03  0.40000000000E+03 0.  1.
   -9000007    1    1    2    0  503 -0.41546966970E+03 -0.21045322813E+02 -0.25702795525E+03  0.63176049404E+03  0.40000000000E+03 0.  1.
<mgrwt>
<rscale>  2 0.57711173E+03</rscale>
<asrwt>0</asrwt>
<pdfrwt beam="1">  1       21 0.56616081E-01 0.57711173E+03</pdfrwt>
<pdfrwt beam="2">  1       21 0.13928312E+00 0.57711173E+03</pdfrwt>
<totfact> 0.85638588E+02</totfact>
</mgrwt>
</event>
<event>
 4    1  0.4675559E-002  0.4404824E+03  0.7818608E-02  0.1030599E+00
         21   -1    0    0  501  502  0.00000000000E+00  0.00000000000E+00  0.10083504924E+04  0.10083504924E+04  0.00000000000E+00 0. -1.
         21   -1    0    0  502  503 -0.00000000000E+00 -0.00000000000E+00 -0.20619106638E+03  0.20619106638E+03  0.00000000000E+00 0. -1.
    9000007    1    1    2  501    0 -0.18425110954E+03  0.87332634062E+01  0.24412893721E+03  0.50361064250E+03  0.40000000000E+03 0. -1.
   -9000007    1    1    2    0  503  0.18425110954E+03 -0.87332634062E+01  0.55803048877E+03  0.71093091623E+03  0.40000000000E+03 0. -1.
<mgrwt>
<rscale>  2 0.44048240E+03</rscale>
<asrwt>0</asrwt>
<pdfrwt beam="1">  1       21 0.15513084E+00 0.44048240E+03</pdfrwt>
<pdfrwt beam="2">  1       21 0.31721703E-01 0.44048240E+03</pdfrwt>
<totfact> 0.22479352E+03</totfact>
</mgrwt>
</event>
<event>
 4    1  0.4675559E-002  0.4374395E+03  0.7818608E-02  0.1031535E+00
         21   -1    0    0  501  502  0.00000000000E+00  0.00000000000E+00  0.73815543396E+03  0.73815543396E+03  0.00000000000E+00 0. -1.
         21   -1    0    0  502  503 -0.00000000000E+00 -0.00000000000E+00 -0.41195631391E+03  0.41195631391E+03  0.00000000000E+00 0. -1.
    9000007    1    1    2  501    0 -0.15891667377E+03  0.78095060429E+02  0.51323725245E+03  0.67436327374E+03  0.40000000000E+03 0. -1.
   -9000007    1    1    2    0  503  0.15891667377E+03 -0.78095060429E+02 -0.18703813240E+03  0.47574847413E+03  0.40000000000E+03 0. -1.
<mgrwt>
<rscale>  2 0.43743954E+03</rscale>
<asrwt>0</asrwt>
<pdfrwt beam="1">  1       21 0.11356237E+00 0.43743954E+03</pdfrwt>
<pdfrwt beam="2">  1       21 0.63377894E-01 0.43743954E+03</pdfrwt>
<totfact> 0.11923696E+03</totfact>
</mgrwt>
</event>
<event>
 4    1  0.4675559E-002  0.4310002E+03  0.7818608E-02  0.1033544E+00
         21   -1    0    0  501  502  0.00000000000E+00  0.00000000000E+00  0.26273152096E+03  0.26273152096E+03  0.00000000000E+00 0. -1.
         21   -1    0    0  502  503 -0.00000000000E+00 -0.00000000000E+00 -0.12016395320E+04  0.12016395320E+04  0.00000000000E+00 0. -1.
    9000007    1    1    2  501    0  0.15720669650E+03  0.32360225704E+02  0.29063148718E+00  0.43100024837E+03  0.40000000000E+03 0. -1.
   -9000007    1    1    2    0  503 -0.15720669650E+03 -0.32360225704E+02 -0.93919864251E+03  0.10333708046E+04  0.40000000000E+03 0. -1.
<mgrwt>
<rscale>  2 0.43100015E+03</rscale>
<asrwt>0</asrwt>
<pdfrwt beam="1">  1       21 0.40420233E-01 0.43100015E+03</pdfrwt>
<pdfrwt beam="2">  1       21 0.18486762E+00 0.43100015E+03</pdfrwt>
<totfact> 0.83812119E+02</totfact>
</mgrwt>
</event>
<event>
 4    1  0.4675559E-002  0.4197750E+03  0.7818608E-02  0.1037140E+00
         21   -1    0    0  501  502  0.00000000000E+00  0.00000000000E+00  0.36245451017E+03  0.36245451017E+03  0.00000000000E+00 0. -1.
         21   -1    0    0  502  503 -0.00000000000E+00 -0.00000000000E+00 -0.49151467145E+03  0.49151467145E+03  0.00000000000E+00 0. -1.
    9000007    1    1    2  501    0 -0.67292790774E+02  0.10808654078E+03 -0.10909521628E+03  0.43371970926E+03  0.40000000000E+03 0. -1.
   -9000007    1    1    2    0  503  0.67292790774E+02 -0.10808654078E+03 -0.19964945002E+02  0.42024947236E+03  0.40000000000E+03 0. -1.
<mgrwt>
<rscale>  2 0.41977496E+03</rscale>
<asrwt>0</asrwt>
<pdfrwt beam="1">  1       21 0.55762232E-01 0.41977496E+03</pdfrwt>
<pdfrwt beam="2">  1       21 0.75617642E-01 0.41977496E+03</pdfrwt>
<totfact> 0.41896218E+03</totfact>
</mgrwt>
</event>
<event>
 4    1  0.4675559E-002  0.4893855E+03  0.7818608E-02  0.1016587E+00
         21   -1    0    0  503  502  0.00000000000E+00  0.00000000000E+00  0.26407435485E+03  0.26407435485E+03  0.00000000000E+00 0.  1.
         21   -1    0    0  501  503 -0.00000000000E+00 -0.00000000000E+00 -0.10641971096E+04  0.10641971096E+04  0.00000000000E+00 0. -1.
    9000007    1    1    2  501    0 -0.24383934425E+03 -0.14156466697E+03 -0.65536580761E+03  0.81792574390E+03  0.40000000000E+03 0. -1.
   -9000007    1    1    2    0  502  0.24383934425E+03  0.14156466697E+03 -0.14475694713E+03  0.51034572054E+03  0.40000000000E+03 0.  1.
<mgrwt>
<rscale>  2 0.48938551E+03</rscale>
<asrwt>0</asrwt>
<pdfrwt beam="1">  1       21 0.40626824E-01 0.48938551E+03</pdfrwt>
<pdfrwt beam="2">  1       21 0.16372263E+00 0.48938551E+03</pdfrwt>
<totfact> 0.11473245E+03</totfact>
</mgrwt>
</event>
<event>
 4    1  0.4675559E-002  0.5711040E+03  0.7818608E-02  0.9967239E-01
         21   -1    0    0  503  502  0.00000000000E+00  0.00000000000E+00  0.79461323905E+03  0.79461323905E+03  0.00000000000E+00 0.  1.
         21   -1    0    0  501  503 -0.00000000000E+00 -0.00000000000E+00 -0.49580482837E+03  0.49580482837E+03  0.00000000000E+00 0. -1.
    9000007    1    1    2  501    0 -0.37720756503E+03 -0.15451283521E+03 -0.11828117939E+03  0.58322397135E+03  0.40000000000E+03 0. -1.
   -9000007    1    1    2    0  502  0.37720756503E+03  0.15451283521E+03  0.41708959007E+03  0.70719409607E+03  0.40000000000E+03 0.  1.
<mgrwt>
<rscale>  2 0.57110399E+03</rscale>
<asrwt>0</asrwt>
<pdfrwt beam="1">  1       21 0.12224819E+00 0.57110399E+03</pdfrwt>
<pdfrwt beam="2">  1       21 0.76277666E-01 0.57110399E+03</pdfrwt>
<totfact> 0.61944002E+02</totfact>
</mgrwt>
</event>
<event>
 4    1  0.4675559E-002  0.4171422E+03  0.7818608E-02  0.1038000E+00
         21   -1    0    0  501  502  0.00000000000E+00  0.00000000000E+00  0.29005517000E+03  0.29005517000E+03  0.00000000000E+00 0. -1.
         21   -1    0    0  502  503 -0.00000000000E+00 -0.00000000000E+00 -0.16012177365E+04  0.16012177365E+04  0.00000000000E+00 0. -1.
    9000007    1    1    2  501    0  0.11776720056E+03  0.11767287686E+02  0.92213373171E+02  0.42721293143E+03  0.40000000000E+03 0. -1.
   -9000007    1    1    2    0  503 -0.11776720056E+03 -0.11767287686E+02 -0.14033759397E+04  0.14640599751E+04  0.40000000000E+03 0. -1.
<mgrwt>
<rscale>  2 0.41714216E+03</rscale>
<asrwt>0</asrwt>
<pdfrwt beam="1">  1       21 0.44623872E-01 0.41714216E+03</pdfrwt>
<pdfrwt beam="2">  1       21 0.24634119E+00 0.41714216E+03</pdfrwt>
<totfact> 0.27533409E+02</totfact>
</mgrwt>
</event>
<event>
 4    1  0.4675559E-002  0.4429232E+03  0.7818608E-02  0.1029854E+00
         21   -1    0    0  503  502  0.00000000000E+00  0.00000000000E+00  0.81361100945E+03  0.81361100945E+03  0.00000000000E+00 0. -1.
         21   -1    0    0  501  503 -0.00000000000E+00 -0.00000000000E+00 -0.28704790809E+03  0.28704790809E+03  0.00000000000E+00 0.  1.
    9000007    1    1    2  501    0  0.13042404167E+03  0.13845780713E+03  0.43158341340E+02  0.44502094044E+03  0.40000000000E+03 0.  1.
   -9000007    1    1    2    0  502 -0.13042404167E+03 -0.13845780713E+03  0.48340476002E+03  0.65563797709E+03  0.40000000000E+03 0. -1.
<mgrwt>
<rscale>  2 0.44292324E+03</rscale>
<asrwt>0</asrwt>
<pdfrwt beam="1">  1       21 0.12517092E+00 0.44292324E+03</pdfrwt>
<pdfrwt beam="2">  1       21 0.44161217E-01 0.44292324E+03</pdfrwt>
<totfact> 0.20192272E+03</totfact>
</mgrwt>
</event>
<event>
 4    1  0.4675559E-002  0.5014818E+03  0.7818608E-02  0.1013393E+00
         21   -1    0    0  503  502  0.00000000000E+00  0.00000000000E+00  0.47867970572E+03  0.47867970572E+03  0.00000000000E+00 0. -1.
         21   -1    0    0  501  503 -0.00000000000E+00 -0.00000000000E+00 -0.59321742463E+03  0.59321742463E+03  0.00000000000E+00 0.  1.
    9000007    1    1    2  501    0 -0.30243196857E+03  0.43488932519E+01  0.12398301323E+03  0.51658087078E+03  0.40000000000E+03 0. -1.
   -9000007    1    1    2    0  502  0.30243196857E+03 -0.43488932519E+01 -0.23852073214E+03  0.55531625957E+03  0.40000000000E+03 0.  1.
<mgrwt>
<rscale>  2 0.50148181E+03</rscale>
<asrwt>0</asrwt>
<pdfrwt beam="1">  1       21 0.73643031E-01 0.50148181E+03</pdfrwt>
<pdfrwt beam="2">  1       21 0.91264220E-01 0.50148181E+03</pdfrwt>
<totfact> 0.14164632E+03</totfact>
</mgrwt>
</event>
<event>
 4    1  0.4675559E-002  0.4018960E+03  0.7818608E-02  0.1043125E+00
         21   -1    0    0  501  502  0.00000000000E+00  0.00000000000E+00  0.97876455139E+02  0.97876455139E+02  0.00000000000E+00 0.  1.
         21   -1    0    0  502  503 -0.00000000000E+00 -0.00000000000E+00 -0.16703982678E+04  0.16703982678E+04  0.00000000000E+00 0.  1.
    9000007    1    1    2  501    0  0.31465197139E+02 -0.23029389613E+02 -0.68915367728E+03  0.79778017168E+03  0.40000000000E+03 0.  1.
   -9000007    1    1    2    0  503 -0.31465197139E+02  0.23029389613E+02 -0.88336813537E+03  0.97049455125E+03  0.40000000000E+03 0.  1.
<mgrwt>
<rscale>  2 0.40189602E+03</rscale>
<asrwt>0</asrwt>
<pdfrwt beam="1">  1       21 0.15057917E-01 0.40189602E+03</pdfrwt>
<pdfrwt beam="2">  1       21 0.25698433E+00 0.40189602E+03</pdfrwt>
<totfact> 0.20033774E+03</totfact>
</mgrwt>
</event>
<event>
 4    1  0.4675559E-002  0.4705985E+03  0.7818608E-02  0.1021751E+00
         21   -1    0    0  501  502  0.00000000000E+00  0.00000000000E+00  0.13044572426E+03  0.13044572426E+03  0.00000000000E+00 0.  1.
         21   -1    0    0  502  503 -0.00000000000E+00 -0.00000000000E+00 -0.19571425540E+04  0.19571425540E+04  0.00000000000E+00 0. -1.
    9000007    1    1    2  501    0 -0.18916170970E+03  0.16025232963E+03 -0.53334236901E+03  0.71127845753E+03  0.40000000000E+03 0. -1.
   -9000007    1    1    2    0  503  0.18916170970E+03 -0.16025232963E+03 -0.12933544607E+04  0.13763098207E+04  0.40000000000E+03 0. -1.
<mgrwt>
<rscale>  2 0.47059851E+03</rscale>
<asrwt>0</asrwt>
<pdfrwt beam="1">  1       21 0.20068573E-01 0.47059851E+03</pdfrwt>
<pdfrwt beam="2">  1       21 0.30109885E+00 0.47059851E+03</pdfrwt>
<totfact> 0.61036712E+02</totfact>
</mgrwt>
</event>
<event>
 4    1  0.4675559E-002  0.6298108E+03  0.7818608E-02  0.9845418E-01
         21   -1    0    0  503  502  0.00000000000E+00  0.00000000000E+00  0.14486559921E+04  0.14486559921E+04  0.00000000000E+00 0.  1.
         21   -1    0    0  501  503 -0.00000000000E+00 -0.00000000000E+00 -0.28797395592E+03  0.28797395592E+03  0.00000000000E+00 0. -1.
    9000007    1    1    2  501    0 -0.18327325073E+03  0.45063576995E+03  0.38779342477E+03  0.73962519014E+03  0.40000000000E+03 0. -1.
   -9000007    1    1    2    0  502  0.18327325073E+03 -0.45063576995E+03  0.77288861140E+03  0.99700475788E+03  0.40000000000E+03 0.  1.
<mgrwt>
<rscale>  2 0.62981083E+03</rscale>
<asrwt>0</asrwt>
<pdfrwt beam="1">  1       21 0.22287015E+00 0.62981083E+03</pdfrwt>
<pdfrwt beam="2">  1       21 0.44303687E-01 0.62981083E+03</pdfrwt>
<totfact> 0.35578675E+02</totfact>
</mgrwt>
</event>
<event>
 4    1  0.4675559E-002  0.4053775E+03  0.7818608E-02  0.1041933E+00
         21   -1    0    0  501  502  0.00000000000E+00  0.00000000000E+00  0.19541653212E+04  0.19541653212E+04  0.00000000000E+00 0.  1.
         21   -1    0    0  502  503 -0.00000000000E+00 -0.00000000000E+00 -0.84291529967E+02  0.84291529967E+02  0.00000000000E+00 0.  1.
    9000007    1    1    2  501    0  0.65710061788E+02  0.36224486190E+01  0.88542854514E+03  0.97381448075E+03  0.40000000000E+03 0.  1.
   -9000007    1    1    2    0  503 -0.65710061788E+02 -0.36224486190E+01  0.98444524612E+03  0.10646423705E+04  0.40000000000E+03 0.  1.
<mgrwt>
<rscale>  2 0.40537752E+03</rscale>
<asrwt>0</asrwt>
<pdfrwt beam="1">  1       21 0.30064079E+00 0.40537752E+03</pdfrwt>
<pdfrwt beam="2">  1       21 0.12967929E-01 0.40537752E+03</pdfrwt>
<totfact> 0.14388207E+03</totfact>
</mgrwt>
</event>
<event>
 4    1  0.4675559E-002  0.4039627E+03  0.7818608E-02  0.1042416E+00
         21   -1    0    0  501  502  0.00000000000E+00  0.00000000000E+00  0.14108248868E+04  0.14108248868E+04  0.00000000000E+00 0. -1.
         21   -1    0    0  502  503 -0.00000000000E+00 -0.00000000000E+00 -0.14891740506E+03  0.14891740506E+03  0.00000000000E+00 0. -1.
    9000007    1    1    2  501    0  0.56442980343E+02  0.24961685377E+00  0.26244428335E+03  0.48172904646E+03  0.40000000000E+03 0. -1.
   -9000007    1    1    2    0  503 -0.56442980343E+02 -0.24961685377E+00  0.99946319842E+03  0.10780132454E+04  0.40000000000E+03 0. -1.
<mgrwt>
<rscale>  2 0.40396271E+03</rscale>
<asrwt>0</asrwt>
<pdfrwt beam="1">  1       21 0.21704997E+00 0.40396271E+03</pdfrwt>
<pdfrwt beam="2">  1       21 0.22910371E-01 0.40396271E+03</pdfrwt>
<totfact> 0.16052227E+03</totfact>
</mgrwt>
</event>
<event>
 4    1  0.4675559E-002  0.4464318E+03  0.7818608E-02  0.1028791E+00
         21   -1    0    0  503  502  0.00000000000E+00  0.00000000000E+00  0.14188652232E+04  0.14188652232E+04  0.00000000000E+00 0.  1.
         21   -1    0    0  501  503 -0.00000000000E+00 -0.00000000000E+00 -0.19180016954E+03  0.19180016954E+03  0.00000000000E+00 0.  1.
    9000007    1    1    2  501    0 -0.19816315623E+03  0.57161906352E+01  0.19689621019E+03  0.48792358921E+03  0.40000000000E+03 0.  1.
   -9000007    1    1    2    0  502  0.19816315623E+03 -0.57161906352E+01  0.10301688435E+04  0.11227418036E+04  0.40000000000E+03 0.  1.
<mgrwt>
<rscale>  2 0.44643175E+03</rscale>
<asrwt>0</asrwt>
<pdfrwt beam="1">  1       21 0.21828695E+00 0.44643175E+03</pdfrwt>
<pdfrwt beam="2">  1       21 0.29507719E-01 0.44643175E+03</pdfrwt>
<totfact> 0.94187527E+02</totfact>
</mgrwt>
</event>
<event>
 4    1  0.4675559E-002  0.4050034E+03  0.7818608E-02  0.1042061E+00
         21   -1    0    0  501  502  0.00000000000E+00  0.00000000000E+00  0.23510565474E+04  0.23510565474E+04  0.00000000000E+00 0.  1.
         21   -1    0    0  502  503 -0.00000000000E+00 -0.00000000000E+00 -0.11087189949E+03  0.11087189949E+03  0.00000000000E+00 0.  1.
    9000007    1    1    2  501    0 -0.46908658831E+02 -0.42747180777E+02  0.37058146678E+03  0.54896117099E+03  0.40000000000E+03 0.  1.
   -9000007    1    1    2    0  503  0.46908658831E+02  0.42747180777E+02  0.18696031811E+04  0.19129672759E+04  0.40000000000E+03 0.  1.
<mgrwt>
<rscale>  2 0.40500339E+03</rscale>
<asrwt>0</asrwt>
<pdfrwt beam="1">  1       21 0.36170097E+00 0.40500339E+03</pdfrwt>
<pdfrwt beam="2">  1       21 0.17057217E-01 0.40500339E+03</pdfrwt>
<totfact> 0.37017806E+02</totfact>
</mgrwt>
</event>
<event>
 4    1  0.4675559E-002  0.4659908E+03  0.7818608E-02  0.1023058E+00
         21   -1    0    0  503  502  0.00000000000E+00  0.00000000000E+00  0.93537396485E+02  0.93537396485E+02  0.00000000000E+00 0.  1.
         21   -1    0    0  501  503 -0.00000000000E+00 -0.00000000000E+00 -0.23305271876E+04  0.23305271876E+04  0.00000000000E+00 0. -1.
    9000007    1    1    2  501    0  0.93706729984E+02 -0.21992380581E+03 -0.11939119002E+04  0.12816290638E+04  0.40000000000E+03 0.  1.
   -9000007    1    1    2    0  502 -0.93706729984E+02  0.21992380581E+03 -0.10430778909E+04  0.11424355203E+04  0.40000000000E+03 0.  1.
<mgrwt>
<rscale>  2 0.46599081E+03</rscale>
<asrwt>0</asrwt>
<pdfrwt beam="1">  1       21 0.14390369E-01 0.46599081E+03</pdfrwt>
<pdfrwt beam="2">  1       21 0.35854264E+00 0.46599081E+03</pdfrwt>
<totfact> 0.51095070E+02</totfact>
</mgrwt>
</event>
<event>
 4    1  0.4675559E-002  0.4037411E+03  0.7818608E-02  0.1042492E+00
         21   -1    0    0  501  502  0.00000000000E+00  0.00000000000E+00  0.18764070151E+03  0.18764070151E+03  0.00000000000E+00 0. -1.
         21   -1    0    0  502  503 -0.00000000000E+00 -0.00000000000E+00 -0.88725360435E+03  0.88725360435E+03  0.00000000000E+00 0. -1.
    9000007    1    1    2  501    0  0.54686984451E+02  0.40304788843E+01 -0.42748690515E+03  0.58800677301E+03  0.40000000000E+03 0. -1.
   -9000007    1    1    2    0  503 -0.54686984451E+02 -0.40304788843E+01 -0.27212599768E+03  0.48688753285E+03  0.40000000000E+03 0. -1.
<mgrwt>
<rscale>  2 0.40374114E+03</rscale>
<asrwt>0</asrwt>
<pdfrwt beam="1">  1       21 0.28867800E-01 0.40374114E+03</pdfrwt>
<pdfrwt beam="2">  1       21 0.13650055E+00 0.40374114E+03</pdfrwt>
<totfact> 0.38792710E+03</totfact>
</mgrwt>
</event>
<event>
 4    1  0.4675559E-002  0.5036355E+03  0.7818608E-02  0.1012834E+00
         21   -1    0    0  503  502  0.00000000000E+00  0.00000000000E+00  0.12430872134E+04  0.12430872134E+04  0.00000000000E+00 0. -1.
         21   -1    0    0  501  503 -0.00000000000E+00 -0.00000000000E+00 -0.20523656461E+03  0.20523656461E+03  0.00000000000E+00 0. -1.
    9000007    1    1    2  501    0  0.21487109701E+03  0.21789709977E+03  0.57404748944E+03  0.76366174093E+03  0.40000000000E+03 0. -1.
   -9000007    1    1    2    0  502 -0.21487109701E+03 -0.21789709977E+03  0.46380315940E+03  0.68466203713E+03  0.40000000000E+03 0. -1.
<mgrwt>
<rscale>  2 0.50363552E+03</rscale>
<asrwt>0</asrwt>
<pdfrwt beam="1">  1       21 0.19124418E+00 0.50363552E+03</pdfrwt>
<pdfrwt beam="2">  1       21 0.31574857E-01 0.50363552E+03</pdfrwt>
<totfact> 0.12120599E+03</totfact>
</mgrwt>
</event>
<event>
 4    1  0.4675559E-002  0.4294793E+03  0.7818608E-02  0.1034025E+00
         21   -1    0    0  501  502  0.00000000000E+00  0.00000000000E+00  0.10108282715E+04  0.10108282715E+04  0.00000000000E+00 0. -1.
         21   -1    0    0  502  503 -0.00000000000E+00 -0.00000000000E+00 -0.27301830119E+03  0.27301830119E+03  0.00000000000E+00 0.  1.
    9000007    1    1    2  501    0 -0.89045679830E+02  0.12854327262E+03  0.73857274508E+03  0.85436655237E+03  0.40000000000E+03 0. -1.
   -9000007    1    1    2    0  503  0.89045679830E+02 -0.12854327262E+03 -0.76277476552E+00  0.42948002032E+03  0.40000000000E+03 0.  1.
<mgrwt>
<rscale>  2 0.42947934E+03</rscale>
<asrwt>0</asrwt>
<pdfrwt beam="1">  1       21 0.15551204E+00 0.42947934E+03</pdfrwt>
<pdfrwt beam="2">  1       21 0.42002816E-01 0.42947934E+03</pdfrwt>
<totfact> 0.12672638E+03</totfact>
</mgrwt>
</event>
<event>
 4    1  0.4675559E-002  0.4596861E+03  0.7818608E-02  0.1024872E+00
         21   -1    0    0  503  502  0.00000000000E+00  0.00000000000E+00  0.15801031095E+04  0.15801031095E+04  0.00000000000E+00 0.  1.
         21   -1    0    0  501  503 -0.00000000000E+00 -0.00000000000E+00 -0.17394914096E+03  0.17394914096E+03  0.00000000000E+00 0. -1.
    9000007    1    1    2  501    0 -0.66961988869E+02 -0.21639649385E+03  0.28137702325E+03  0.53896602835E+03  0.40000000000E+03 0. -1.
   -9000007    1    1    2    0  502  0.66961988869E+02  0.21639649385E+03  0.11247769453E+04  0.12150862221E+04  0.40000000000E+03 0.  1.
<mgrwt>
<rscale>  2 0.45968614E+03</rscale>
<asrwt>0</asrwt>
<pdfrwt beam="1">  1       21 0.24309278E+00 0.45968614E+03</pdfrwt>
<pdfrwt beam="2">  1       21 0.26761407E-01 0.45968614E+03</pdfrwt>
<totfact> 0.79211466E+02</totfact>
</mgrwt>
</event>
<event>
 4    1  0.4675559E-002  0.4098696E+03  0.7818608E-02  0.1040415E+00
         21   -1    0    0  503  502  0.00000000000E+00  0.00000000000E+00  0.91657240129E+02  0.91657240129E+02  0.00000000000E+00 0.  1.
         21   -1    0    0  501  503 -0.00000000000E+00 -0.00000000000E+00 -0.22007926294E+04  0.22007926294E+04  0.00000000000E+00 0.  1.
    9000007    1    1    2  501    0 -0.65173122317E+02  0.61201109688E+02 -0.15232471181E+04  0.15774266685E+04  0.40000000000E+03 0.  1.
   -9000007    1    1    2    0  502  0.65173122317E+02 -0.61201109688E+02 -0.58588827111E+03  0.71502320097E+03  0.40000000000E+03 0.  1.
<mgrwt>
<rscale>  2 0.40986963E+03</rscale>
<asrwt>0</asrwt>
<pdfrwt beam="1">  1       21 0.14101116E-01 0.40986963E+03</pdfrwt>
<pdfrwt beam="2">  1       21 0.33858343E+00 0.40986963E+03</pdfrwt>
<totfact> 0.72734944E+02</totfact>
</mgrwt>
</event>
<event>
 4    1  0.4675559E-002  0.5722861E+03  0.7818608E-02  0.9964632E-01
         21   -1    0    0  503  502  0.00000000000E+00  0.00000000000E+00  0.30364097388E+03  0.30364097388E+03  0.00000000000E+00 0.  1.
         21   -1    0    0  501  503 -0.00000000000E+00 -0.00000000000E+00 -0.11905368398E+04  0.11905368398E+04  0.00000000000E+00 0.  1.
    9000007    1    1    2  501    0  0.75847721240E+02  0.40219218457E+03 -0.67251363686E+03  0.88305493708E+03  0.40000000000E+03 0.  1.
   -9000007    1    1    2    0  502 -0.75847721240E+02 -0.40219218457E+03 -0.21438222904E+03  0.61112287657E+03  0.40000000000E+03 0.  1.
<mgrwt>
<rscale>  2 0.57228614E+03</rscale>
<asrwt>0</asrwt>
<pdfrwt beam="1">  1       21 0.46713995E-01 0.57228614E+03</pdfrwt>
<pdfrwt beam="2">  1       21 0.18315952E+00 0.57228614E+03</pdfrwt>
<totfact> 0.60034471E+02</totfact>
</mgrwt>
</event>
<event>
 4    1  0.4675559E-002  0.4133503E+03  0.7818608E-02  0.1039253E+00
         21   -1    0    0  501  502  0.00000000000E+00  0.00000000000E+00  0.41248345344E+03  0.41248345344E+03  0.00000000000E+00 0.  1.
         21   -1    0    0  502  503 -0.00000000000E+00 -0.00000000000E+00 -0.60198021527E+03  0.60198021527E+03  0.00000000000E+00 0.  1.
    9000007    1    1    2  501    0  0.20252049586E+02  0.10221719513E+03  0.18853316900E+03  0.45431625142E+03  0.40000000000E+03 0.  1.
   -9000007    1    1    2    0  503 -0.20252049586E+02 -0.10221719513E+03 -0.37802993083E+03  0.56014741729E+03  0.40000000000E+03 0.  1.
<mgrwt>
<rscale>  2 0.41335034E+03</rscale>
<asrwt>0</asrwt>
<pdfrwt beam="1">  1       21 0.63458993E-01 0.41335034E+03</pdfrwt>
<pdfrwt beam="2">  1       21 0.92612340E-01 0.41335034E+03</pdfrwt>
<totfact> 0.19750545E+03</totfact>
</mgrwt>
</event>
<event>
 4    1  0.4675559E-002  0.4826280E+03  0.7818608E-02  0.1018415E+00
         21   -1    0    0  503  502  0.00000000000E+00  0.00000000000E+00  0.41189536046E+03  0.41189536046E+03  0.00000000000E+00 0.  1.
         21   -1    0    0  501  503 -0.00000000000E+00 -0.00000000000E+00 -0.86787453887E+03  0.86787453887E+03  0.00000000000E+00 0.  1.
    9000007    1    1    2  501    0 -0.26673720875E+03 -0.42202700502E+02 -0.60568424116E+03  0.77445671696E+03  0.40000000000E+03 0.  1.
   -9000007    1    1    2    0  502  0.26673720875E+03  0.42202700502E+02  0.14970506275E+03  0.50531318237E+03  0.40000000000E+03 0.  1.
<mgrwt>
<rscale>  2 0.48262802E+03</rscale>
<asrwt>0</asrwt>
<pdfrwt beam="1">  1       21 0.63368518E-01 0.48262802E+03</pdfrwt>
<pdfrwt beam="2">  1       21 0.13351916E+00 0.48262802E+03</pdfrwt>
<totfact> 0.77367079E+02</totfact>
</mgrwt>
</event>
<event>
 4    1  0.4675559E-002  0.6412377E+03  0.7818608E-02  0.9823361E-01
         21   -1    0    0  501  502  0.00000000000E+00  0.00000000000E+00  0.75470282884E+03  0.75470282884E+03  0.00000000000E+00 0. -1.
         21   -1    0    0  502  503 -0.00000000000E+00 -0.00000000000E+00 -0.62747654779E+03  0.62747654779E+03  0.00000000000E+00 0. -1.
    9000007    1    1    2  501    0 -0.35006565976E+03  0.35866392544E+03  0.31442289210E+03  0.71417612158E+03  0.40000000000E+03 0. -1.
   -9000007    1    1    2    0  503  0.35006565976E+03 -0.35866392544E+03 -0.18719661106E+03  0.66800325505E+03  0.40000000000E+03 0. -1.
<mgrwt>
<rscale>  2 0.64123769E+03</rscale>
<asrwt>0</asrwt>
<pdfrwt beam="1">  1       21 0.11610813E+00 0.64123769E+03</pdfrwt>
<pdfrwt beam="2">  1       21 0.96534854E-01 0.64123769E+03</pdfrwt>
<totfact> 0.39590212E+02</totfact>
</mgrwt>
</event>
<event>
 4    1  0.4675559E-002  0.9016617E+03  0.7818608E-02  0.9423507E-01
         21   -1    0    0  501  502  0.00000000000E+00  0.00000000000E+00  0.68601108114E+03  0.68601108114E+03  0.00000000000E+00 0.  1.
         21   -1    0    0  502  503 -0.00000000000E+00 -0.00000000000E+00 -0.15222724694E+04  0.15222724694E+04  0.00000000000E+00 0. -1.
    9000007    1    1    2  501    0 -0.57620806162E+03  0.56654931944E+03 -0.93777084408E+03  0.13009258310E+04  0.40000000000E+03 0.  1.
   -9000007    1    1    2    0  503  0.57620806162E+03 -0.56654931944E+03  0.10150945583E+03  0.90735771957E+03  0.40000000000E+03 0.  1.
<mgrwt>
<rscale>  2 0.90166172E+03</rscale>
<asrwt>0</asrwt>
<pdfrwt beam="1">  1       21 0.10554017E+00 0.90166172E+03</pdfrwt>
<pdfrwt beam="2">  1       21 0.23419576E+00 0.90166172E+03</pdfrwt>
<totfact> 0.38017496E+01</totfact>
</mgrwt>
</event>
<event>
 4    1  0.4675559E-002  0.4265446E+03  0.7818608E-02  0.1034957E+00
         21   -1    0    0  503  502  0.00000000000E+00  0.00000000000E+00  0.59646467922E+03  0.59646467922E+03  0.00000000000E+00 0. -1.
         21   -1    0    0  501  503 -0.00000000000E+00 -0.00000000000E+00 -0.62111002189E+03  0.62111002189E+03  0.00000000000E+00 0. -1.
    9000007    1    1    2  501    0 -0.61029796568E+02  0.13496544708E+03 -0.44661192583E+03  0.61757794671E+03  0.40000000000E+03 0. -1.
   -9000007    1    1    2    0  502  0.61029796568E+02 -0.13496544708E+03  0.42196658316E+03  0.59999675439E+03  0.40000000000E+03 0. -1.
<mgrwt>
<rscale>  2 0.42654461E+03</rscale>
<asrwt>0</asrwt>
<pdfrwt beam="1">  1       21 0.91763797E-01 0.42654461E+03</pdfrwt>
<pdfrwt beam="2">  1       21 0.95555388E-01 0.42654461E+03</pdfrwt>
<totfact> 0.78394655E+02</totfact>
</mgrwt>
</event>
<event>
 4    1  0.4675559E-002  0.5248602E+03  0.7818608E-02  0.1007486E+00
         21   -1    0    0  501  502  0.00000000000E+00  0.00000000000E+00  0.99054474103E+03  0.99054474103E+03  0.00000000000E+00 0.  1.
         21   -1    0    0  502  503 -0.00000000000E+00 -0.00000000000E+00 -0.30827025238E+03  0.30827025238E+03  0.00000000000E+00 0.  1.
    9000007    1    1    2  501    0  0.16509458247E+03  0.29702182308E+03  0.54427238624E+03  0.75611547727E+03  0.40000000000E+03 0.  1.
   -9000007    1    1    2    0  503 -0.16509458247E+03 -0.29702182308E+03  0.13800210242E+03  0.54269951614E+03  0.40000000000E+03 0.  1.
<mgrwt>
<rscale>  2 0.52486016E+03</rscale>
<asrwt>0</asrwt>
<pdfrwt beam="1">  1       21 0.15239150E+00 0.52486016E+03</pdfrwt>
<pdfrwt beam="2">  1       21 0.47426193E-01 0.52486016E+03</pdfrwt>
<totfact> 0.99983105E+02</totfact>
</mgrwt>
</event>
<event>
 4    1  0.4675559E-002  0.5048165E+03  0.7818608E-02  0.1012529E+00
         21   -1    0    0  501  502  0.00000000000E+00  0.00000000000E+00  0.44904385789E+03  0.44904385789E+03  0.00000000000E+00 0. -1.
         21   -1    0    0  502  503 -0.00000000000E+00 -0.00000000000E+00 -0.10597725264E+04  0.10597725264E+04  0.00000000000E+00 0. -1.
    9000007    1    1    2  501    0  0.76376478998E+02 -0.29833922596E+03  0.20879263168E+03  0.54629115253E+03  0.40000000000E+03 0. -1.
   -9000007    1    1    2    0  503 -0.76376478998E+02  0.29833922596E+03 -0.81952130017E+03  0.96252523174E+03  0.40000000000E+03 0. -1.
<mgrwt>
<rscale>  2 0.50481646E+03</rscale>
<asrwt>0</asrwt>
<pdfrwt beam="1">  1       21 0.69083671E-01 0.50481646E+03</pdfrwt>
<pdfrwt beam="2">  1       21 0.16304193E+00 0.50481646E+03</pdfrwt>
<totfact> 0.36752715E+02</totfact>
</mgrwt>
</event>
<event>
 4    1  0.4675559E-002  0.4216876E+03  0.7818608E-02  0.1036518E+00
         21   -1    0    0  503  502  0.00000000000E+00  0.00000000000E+00  0.50772267425E+03  0.50772267425E+03  0.00000000000E+00 0. -1.
         21   -1    0    0  501  503 -0.00000000000E+00 -0.00000000000E+00 -0.41085175069E+03  0.41085175069E+03  0.00000000000E+00 0. -1.
    9000007    1    1    2  501    0  0.93621968908E+02  0.95159771748E+02 -0.12798574073E+03  0.44068220415E+03  0.40000000000E+03 0. -1.
   -9000007    1    1    2    0  502 -0.93621968908E+02 -0.95159771748E+02  0.22485666429E+03  0.47789222080E+03  0.40000000000E+03 0. -1.
<mgrwt>
<rscale>  2 0.42168763E+03</rscale>
<asrwt>0</asrwt>
<pdfrwt beam="1">  1       21 0.78111180E-01 0.42168763E+03</pdfrwt>
<pdfrwt beam="2">  1       21 0.63207962E-01 0.42168763E+03</pdfrwt>
<totfact> 0.29561462E+03</totfact>
</mgrwt>
</event>
<event>
 4    1  0.4675559E-002  0.4359683E+03  0.7818608E-02  0.1031991E+00
         21   -1    0    0  501  502  0.00000000000E+00  0.00000000000E+00  0.19018684068E+03  0.19018684068E+03  0.00000000000E+00 0.  1.
         21   -1    0    0  502  503 -0.00000000000E+00 -0.00000000000E+00 -0.13433939364E+04  0.13433939364E+04  0.00000000000E+00 0.  1.
    9000007    1    1    2  501    0 -0.14281437748E+03 -0.98348522110E+02 -0.18857399691E+03  0.47500371633E+03  0.40000000000E+03 0.  1.
   -9000007    1    1    2    0  503  0.14281437748E+03  0.98348522110E+02 -0.96463309883E+03  0.10585770608E+04  0.40000000000E+03 0.  1.
<mgrwt>
<rscale>  2 0.43596832E+03</rscale>
<asrwt>0</asrwt>
<pdfrwt beam="1">  1       21 0.29259514E-01 0.43596832E+03</pdfrwt>
<pdfrwt beam="2">  1       21 0.20667599E+00 0.43596832E+03</pdfrwt>
<totfact> 0.11447361E+03</totfact>
</mgrwt>
</event>
<event>
 4    1  0.4675559E-002  0.4781728E+03  0.7818608E-02  0.1019639E+00
         21   -1    0    0  503  502  0.00000000000E+00  0.00000000000E+00  0.86531036199E+03  0.86531036199E+03  0.00000000000E+00 0. -1.
         21   -1    0    0  501  503 -0.00000000000E+00 -0.00000000000E+00 -0.33240082295E+03  0.33240082295E+03  0.00000000000E+00 0. -1.
    9000007    1    1    2  501    0 -0.25609535737E+03  0.55357151962E+02 -0.47265790780E+01  0.47819618034E+03  0.40000000000E+03 0. -1.
   -9000007    1    1    2    0  502  0.25609535737E+03 -0.55357151962E+02  0.53763611812E+03  0.71951500460E+03  0.40000000000E+03 0. -1.
<mgrwt>
<rscale>  2 0.47817282E+03</rscale>
<asrwt>0</asrwt>
<pdfrwt beam="1">  1       21 0.13312467E+00 0.47817282E+03</pdfrwt>
<pdfrwt beam="2">  1       21 0.51138588E-01 0.47817282E+03</pdfrwt>
<totfact> 0.12453055E+03</totfact>
</mgrwt>
</event>
<event>
 4    1  0.4675559E-002  0.5152328E+03  0.7818608E-02  0.1009878E+00
         21   -1    0    0  503  502  0.00000000000E+00  0.00000000000E+00  0.15022645361E+04  0.15022645361E+04  0.00000000000E+00 0.  1.
         21   -1    0    0  501  503 -0.00000000000E+00 -0.00000000000E+00 -0.45822631818E+03  0.45822631818E+03  0.00000000000E+00 0. -1.
    9000007    1    1    2  501    0 -0.28936946404E+03 -0.14741139044E+03 -0.24630910784E+03  0.57108053842E+03  0.40000000000E+03 0. -1.
   -9000007    1    1    2    0  502  0.28936946404E+03  0.14741139044E+03  0.12903473258E+04  0.13894103159E+04  0.40000000000E+03 0.  1.
<mgrwt>
<rscale>  2 0.51523277E+03</rscale>
<asrwt>0</asrwt>
<pdfrwt beam="1">  1       21 0.23111762E+00 0.51523277E+03</pdfrwt>
<pdfrwt beam="2">  1       21 0.70496358E-01 0.51523277E+03</pdfrwt>
<totfact> 0.12028800E+02</totfact>
</mgrwt>
</event>
<event>
 4    1  0.4675559E-002  0.4052922E+03  0.7818608E-02  0.1041962E+00
         21   -1    0    0  501  502  0.00000000000E+00  0.00000000000E+00  0.15227865887E+04  0.15227865887E+04  0.00000000000E+00 0.  1.
         21   -1    0    0  502  503 -0.00000000000E+00 -0.00000000000E+00 -0.12306074338E+03  0.12306074338E+03  0.00000000000E+00 0.  1.
    9000007    1    1    2  501    0  0.42904671399E+02  0.49203053486E+02  0.98899809129E+03  0.10688213021E+04  0.40000000000E+03 0.  1.
   -9000007    1    1    2    0  503 -0.42904671399E+02 -0.49203053486E+02  0.41072775401E+03  0.57702602993E+03  0.40000000000E+03 0.  1.
<mgrwt>
<rscale>  2 0.40529218E+03</rscale>
<asrwt>0</asrwt>
<pdfrwt beam="1">  1       21 0.23427485E+00 0.40529218E+03</pdfrwt>
<pdfrwt beam="2">  1       21 0.18932423E-01 0.40529218E+03</pdfrwt>
<totfact> 0.17969605E+03</totfact>
</mgrwt>
</event>
<event>
 4    1  0.4675559E-002  0.4131572E+03  0.7818608E-02  0.1039317E+00
         21   -1    0    0  501  502  0.00000000000E+00  0.00000000000E+00  0.13557883355E+04  0.13557883355E+04  0.00000000000E+00 0. -1.
         21   -1    0    0  502  503 -0.00000000000E+00 -0.00000000000E+00 -0.30225529802E+03  0.30225529802E+03  0.00000000000E+00 0. -1.
    9000007    1    1    2  501    0  0.92723808974E+02  0.45838609201E+02  0.11600068888E+04  0.12313873740E+04  0.40000000000E+03 0.  1.
   -9000007    1    1    2    0  503 -0.92723808974E+02 -0.45838609201E+02 -0.10647385123E+03  0.42665625958E+03  0.40000000000E+03 0.  1.
<mgrwt>
<rscale>  2 0.41315721E+03</rscale>
<asrwt>0</asrwt>
<pdfrwt beam="1">  1       21 0.20858282E+00 0.41315721E+03</pdfrwt>
<pdfrwt beam="2">  1       21 0.46500816E-01 0.41315721E+03</pdfrwt>
<totfact> 0.43797810E+02</totfact>
</mgrwt>
</event>
<event>
 4    1  0.4675559E-002  0.4456659E+03  0.7818608E-02  0.1029022E+00
         21   -1    0    0  503  502  0.00000000000E+00  0.00000000000E+00  0.45128783180E+03  0.45128783180E+03  0.00000000000E+00 0.  1.
         21   -1    0    0  501  503 -0.00000000000E+00 -0.00000000000E+00 -0.49429218400E+03  0.49429218400E+03  0.00000000000E+00 0.  1.
    9000007    1    1    2  501    0 -0.15001943782E+02  0.19594151347E+03 -0.17802881683E+03  0.47990873574E+03  0.40000000000E+03 0.  1.
   -9000007    1    1    2    0  502  0.15001943782E+02 -0.19594151347E+03  0.13502446464E+03  0.46567128006E+03  0.40000000000E+03 0.  1.
<mgrwt>
<rscale>  2 0.44566595E+03</rscale>
<asrwt>0</asrwt>
<pdfrwt beam="1">  1       21 0.69428897E-01 0.44566595E+03</pdfrwt>
<pdfrwt beam="2">  1       21 0.76044952E-01 0.44566595E+03</pdfrwt>
<totfact> 0.25275839E+03</totfact>
</mgrwt>
</event>
<event>
 4    1  0.4675559E-002  0.4943563E+03  0.7818608E-02  0.1015263E+00
         21   -1    0    0  503  502  0.00000000000E+00  0.00000000000E+00  0.32717104428E+03  0.32717104428E+03  0.00000000000E+00 0. -1.
         21   -1    0    0  501  503 -0.00000000000E+00 -0.00000000000E+00 -0.92691485341E+03  0.92691485341E+03  0.00000000000E+00 0.  1.
    9000007    1    1    2  501    0 -0.83076817534E+02  0.27836370705E+03 -0.23596121452E+02  0.49491907213E+03  0.40000000000E+03 0. -1.
   -9000007    1    1    2    0  502  0.83076817534E+02 -0.27836370705E+03 -0.57614768768E+03  0.75916682556E+03  0.40000000000E+03 0.  1.
<mgrwt>
<rscale>  2 0.49435626E+03</rscale>
<asrwt>0</asrwt>
<pdfrwt beam="1">  1       21 0.50334008E-01 0.49435626E+03</pdfrwt>
<pdfrwt beam="2">  1       21 0.14260228E+00 0.49435626E+03</pdfrwt>
<totfact> 0.10668383E+03</totfact>
</mgrwt>
</event>
<event>
 4    1  0.4675559E-002  0.5385327E+03  0.7818608E-02  0.1004184E+00
         21   -1    0    0  503  502  0.00000000000E+00  0.00000000000E+00  0.78610638695E+03  0.78610638695E+03  0.00000000000E+00 0.  1.
         21   -1    0    0  501  503 -0.00000000000E+00 -0.00000000000E+00 -0.49860241437E+03  0.49860241437E+03  0.00000000000E+00 0.  1.
    9000007    1    1    2  501    0  0.30003563350E+03  0.19999015296E+03 -0.18383224597E+03  0.56904458288E+03  0.40000000000E+03 0.  1.
   -9000007    1    1    2    0  502 -0.30003563350E+03 -0.19999015296E+03  0.47133621855E+03  0.71566421845E+03  0.40000000000E+03 0.  1.
<mgrwt>
<rscale>  2 0.53853268E+03</rscale>
<asrwt>0</asrwt>
<pdfrwt beam="1">  1       21 0.12093944E+00 0.53853268E+03</pdfrwt>
<pdfrwt beam="2">  1       21 0.76708064E-01 0.53853268E+03</pdfrwt>
<totfact> 0.63589738E+02</totfact>
</mgrwt>
</event>
<event>
 4    1  0.4675559E-002  0.6396378E+03  0.7818608E-02  0.9826420E-01
         21   -1    0    0  501  502  0.00000000000E+00  0.00000000000E+00  0.11429403465E+04  0.11429403465E+04  0.00000000000E+00 0.  1.
         21   -1    0    0  502  503 -0.00000000000E+00 -0.00000000000E+00 -0.35914960808E+03  0.35914960808E+03  0.00000000000E+00 0.  1.
    9000007    1    1    2  501    0  0.18230807398E+03 -0.46465066496E+03  0.34882288170E+03  0.72856974758E+03  0.40000000000E+03 0.  1.
   -9000007    1    1    2    0  503 -0.18230807398E+03  0.46465066496E+03  0.43496785673E+03  0.77352020702E+03  0.40000000000E+03 0.  1.
<mgrwt>
<rscale>  2 0.63963777E+03</rscale>
<asrwt>0</asrwt>
<pdfrwt beam="1">  1       21 0.17583697E+00 0.63963777E+03</pdfrwt>
<pdfrwt beam="2">  1       21 0.55253786E-01 0.63963777E+03</pdfrwt>
<totfact> 0.46148843E+02</totfact>
</mgrwt>
</event>
<event>
 4    1  0.4675559E-002  0.5073724E+03  0.7818608E-02  0.1011872E+00
         21   -1    0    0  503  502  0.00000000000E+00  0.00000000000E+00  0.29375336152E+03  0.29375336152E+03  0.00000000000E+00 0.  1.
         21   -1    0    0  501  503 -0.00000000000E+00 -0.00000000000E+00 -0.18742892002E+04  0.18742892002E+04  0.00000000000E+00 0. -1.
    9000007    1    1    2  501    0 -0.27947319579E+03 -0.13900161763E+03 -0.15812643826E+04  0.16606696735E+04  0.40000000000E+03 0. -1.
   -9000007    1    1    2    0  502  0.27947319579E+03  0.13900161763E+03  0.72854395806E+00  0.50737288817E+03  0.40000000000E+03 0.  1.
<mgrwt>
<rscale>  2 0.50737237E+03</rscale>
<asrwt>0</asrwt>
<pdfrwt beam="1">  1       21 0.45192825E-01 0.50737237E+03</pdfrwt>
<pdfrwt beam="2">  1       21 0.28835218E+00 0.50737237E+03</pdfrwt>
<totfact> 0.14143743E+02</totfact>
</mgrwt>
</event>
<event>
 4    1  0.4675559E-002  0.4029367E+03  0.7818608E-02  0.1042768E+00
         21   -1    0    0  501  502  0.00000000000E+00  0.00000000000E+00  0.13730428689E+04  0.13730428689E+04  0.00000000000E+00 0.  1.
         21   -1    0    0  502  503 -0.00000000000E+00 -0.00000000000E+00 -0.14953993208E+03  0.14953993208E+03  0.00000000000E+00 0.  1.
    9000007    1    1    2  501    0  0.48456043457E+02  0.31665823555E+01  0.96000569572E+03  0.10411382959E+04  0.40000000000E+03 0.  1.
   -9000007    1    1    2    0  503 -0.48456043457E+02 -0.31665823555E+01  0.26349724110E+03  0.48144450507E+03  0.40000000000E+03 0.  1.
<mgrwt>
<rscale>  2 0.40293674E+03</rscale>
<asrwt>0</asrwt>
<pdfrwt beam="1">  1       21 0.21123736E+00 0.40293674E+03</pdfrwt>
<pdfrwt beam="2">  1       21 0.23006144E-01 0.40293674E+03</pdfrwt>
<totfact> 0.17366377E+03</totfact>
</mgrwt>
</event>
<event>
 4    1  0.4675559E-002  0.4272505E+03  0.7818608E-02  0.1034732E+00
         21   -1    0    0  501  502  0.00000000000E+00  0.00000000000E+00  0.50595088472E+03  0.50595088472E+03  0.00000000000E+00 0. -1.
         21   -1    0    0  502  503 -0.00000000000E+00 -0.00000000000E+00 -0.50706416495E+03  0.50706416495E+03  0.00000000000E+00 0. -1.
    9000007    1    1    2  501    0 -0.12709940139E+03  0.79929648897E+02  0.27148498472E+03  0.50620855735E+03  0.40000000000E+03 0. -1.
   -9000007    1    1    2    0  503  0.12709940139E+03 -0.79929648897E+02 -0.27259826495E+03  0.50680649232E+03  0.40000000000E+03 0. -1.
<mgrwt>
<rscale>  2 0.42725052E+03</rscale>
<asrwt>0</asrwt>
<pdfrwt beam="1">  1       21 0.77838598E-01 0.42725052E+03</pdfrwt>
<pdfrwt beam="2">  1       21 0.78009871E-01 0.42725052E+03</pdfrwt>
<totfact> 0.18518386E+03</totfact>
</mgrwt>
</event>
<event>
 4    1  0.4675559E-002  0.4225382E+03  0.7818608E-02  0.1036243E+00
         21   -1    0    0  501  502  0.00000000000E+00  0.00000000000E+00  0.76075747111E+03  0.76075747111E+03  0.00000000000E+00 0.  1.
         21   -1    0    0  502  503 -0.00000000000E+00 -0.00000000000E+00 -0.49810950589E+03  0.49810950589E+03  0.00000000000E+00 0.  1.
    9000007    1    1    2  501    0 -0.31006044493E+02 -0.13257900494E+03  0.58906022554E+03  0.72493483615E+03  0.40000000000E+03 0.  1.
   -9000007    1    1    2    0  503  0.31006044493E+02  0.13257900494E+03 -0.32641226032E+03  0.53393214085E+03  0.40000000000E+03 0.  1.
<mgrwt>
<rscale>  2 0.42253824E+03</rscale>
<asrwt>0</asrwt>
<pdfrwt beam="1">  1       21 0.11703961E+00 0.42253824E+03</pdfrwt>
<pdfrwt beam="2">  1       21 0.76632232E-01 0.42253824E+03</pdfrwt>
<totfact> 0.72626976E+02</totfact>
</mgrwt>
</event>
<event>
 4    1  0.4675559E-002  0.4009601E+03  0.7818608E-02  0.1043448E+00
         21   -1    0    0  501  502  0.00000000000E+00  0.00000000000E+00  0.41063217807E+03  0.41063217807E+03  0.00000000000E+00 0.  1.
         21   -1    0    0  502  503 -0.00000000000E+00 -0.00000000000E+00 -0.10272825174E+04  0.10272825174E+04  0.00000000000E+00 0.  1.
    9000007    1    1    2  501    0 -0.67562312625E+01 -0.26895161097E+02  0.25727178631E+03  0.47640084843E+03  0.40000000000E+03 0.  1.
   -9000007    1    1    2    0  503  0.67562312625E+01  0.26895161097E+02 -0.87392212565E+03  0.96151384704E+03  0.40000000000E+03 0.  1.
<mgrwt>
<rscale>  2 0.40096009E+03</rscale>
<asrwt>0</asrwt>
<pdfrwt beam="1">  1       21 0.63174182E-01 0.40096009E+03</pdfrwt>
<pdfrwt beam="2">  1       21 0.15804346E+00 0.40096009E+03</pdfrwt>
<totfact> 0.51405452E+02</totfact>
</mgrwt>
</event>
<event>
 4    1  0.4675559E-002  0.5029311E+03  0.7818608E-02  0.1013017E+00
         21   -1    0    0  503  502  0.00000000000E+00  0.00000000000E+00  0.23067421700E+03  0.23067421700E+03  0.00000000000E+00 0. -1.
         21   -1    0    0  501  503 -0.00000000000E+00 -0.00000000000E+00 -0.11701205819E+04  0.11701205819E+04  0.00000000000E+00 0. -1.
    9000007    1    1    2  501    0  0.26797745936E+03  0.14535397492E+03 -0.64537779233E+03  0.81820058151E+03  0.40000000000E+03 0. -1.
   -9000007    1    1    2    0  502 -0.26797745936E+03 -0.14535397492E+03 -0.29406857254E+03  0.58259421736E+03  0.40000000000E+03 0. -1.
<mgrwt>
<rscale>  2 0.50293111E+03</rscale>
<asrwt>0</asrwt>
<pdfrwt beam="1">  1       21 0.35488341E-01 0.50293111E+03</pdfrwt>
<pdfrwt beam="2">  1       21 0.18001855E+00 0.50293111E+03</pdfrwt>
<totfact> 0.11464798E+03</totfact>
</mgrwt>
</event>
<event>
 4    1  0.4675559E-002  0.4158152E+03  0.7818608E-02  0.1038437E+00
         21   -1    0    0  501  502  0.00000000000E+00  0.00000000000E+00  0.15441749821E+04  0.15441749821E+04  0.00000000000E+00 0.  1.
         21   -1    0    0  502  503 -0.00000000000E+00 -0.00000000000E+00 -0.41480411400E+03  0.41480411400E+03  0.00000000000E+00 0.  1.
    9000007    1    1    2  501    0  0.11123905011E+03 -0.22980870955E+02  0.14015982618E+04  0.14619780895E+04  0.40000000000E+03 0.  1.
   -9000007    1    1    2    0  503 -0.11123905011E+03  0.22980870955E+02 -0.27222739368E+03  0.49700100661E+03  0.40000000000E+03 0.  1.
<mgrwt>
<rscale>  2 0.41581516E+03</rscale>
<asrwt>0</asrwt>
<pdfrwt beam="1">  1       21 0.23756538E+00 0.41581516E+03</pdfrwt>
<pdfrwt beam="2">  1       21 0.63816018E-01 0.41581516E+03</pdfrwt>
<totfact> 0.14481563E+02</totfact>
</mgrwt>
</event>
<event>
 4    1  0.4675559E-002  0.4196462E+03  0.7818608E-02  0.1037182E+00
         21   -1    0    0  503  502  0.00000000000E+00  0.00000000000E+00  0.61517191325E+03  0.61517191325E+03  0.00000000000E+00 0. -1.
         21   -1    0    0  501  503 -0.00000000000E+00 -0.00000000000E+00 -0.10518670717E+04  0.10518670717E+04  0.00000000000E+00 0. -1.
    9000007    1    1    2  501    0  0.11163554631E+03 -0.60335695709E+02 -0.92945720306E+03  0.10198007569E+04  0.40000000000E+03 0. -1.
   -9000007    1    1    2    0  502 -0.11163554631E+03  0.60335695709E+02  0.49276204458E+03  0.64723822813E+03  0.40000000000E+03 0. -1.
<mgrwt>
<rscale>  2 0.41964615E+03</rscale>
<asrwt>0</asrwt>
<pdfrwt beam="1">  1       21 0.94641833E-01 0.41964615E+03</pdfrwt>
<pdfrwt beam="2">  1       21 0.16182570E+00 0.41964615E+03</pdfrwt>
<totfact> 0.18862925E+02</totfact>
</mgrwt>
</event>
<event>
 4    1  0.4675559E-002  0.6244969E+03  0.7818608E-02  0.9855847E-01
         21   -1    0    0  501  502  0.00000000000E+00  0.00000000000E+00  0.34078362446E+03  0.34078362446E+03  0.00000000000E+00 0.  1.
         21   -1    0    0  502  503 -0.00000000000E+00 -0.00000000000E+00 -0.13998890796E+04  0.13998890796E+04  0.00000000000E+00 0. -1.
    9000007    1    1    2  501    0  0.35680223881E+03  0.32045056517E+03 -0.15774582632E+03  0.64411190647E+03  0.40000000000E+03 0.  1.
   -9000007    1    1    2    0  503 -0.35680223881E+03 -0.32045056517E+03 -0.90135962881E+03  0.10965607976E+04  0.40000000000E+03 0. -1.
<mgrwt>
<rscale>  2 0.62449692E+03</rscale>
<asrwt>0</asrwt>
<pdfrwt beam="1">  1       21 0.52428250E-01 0.62449692E+03</pdfrwt>
<pdfrwt beam="2">  1       21 0.21536755E+00 0.62449692E+03</pdfrwt>
<totfact> 0.27858506E+02</totfact>
</mgrwt>
</event>
<event>
 4    1  0.4675559E-002  0.6887578E+03  0.7818608E-02  0.9736653E-01
         21   -1    0    0  501  502  0.00000000000E+00  0.00000000000E+00  0.45618329366E+03  0.45618329366E+03  0.00000000000E+00 0. -1.
         21   -1    0    0  502  503 -0.00000000000E+00 -0.00000000000E+00 -0.10890404454E+04  0.10890404454E+04  0.00000000000E+00 0. -1.
    9000007    1    1    2  501    0 -0.23061755098E+03 -0.51108009075E+03 -0.15231800047E+03  0.70539923961E+03  0.40000000000E+03 0. -1.
   -9000007    1    1    2    0  503  0.23061755098E+03  0.51108009075E+03 -0.48053915127E+03  0.83982449945E+03  0.40000000000E+03 0. -1.
<mgrwt>
<rscale>  2 0.68875781E+03</rscale>
<asrwt>0</asrwt>
<pdfrwt beam="1">  1       21 0.70182046E-01 0.68875781E+03</pdfrwt>
<pdfrwt beam="2">  1       21 0.16754468E+00 0.68875781E+03</pdfrwt>
<totfact> 0.30696835E+02</totfact>
</mgrwt>
</event>
<event>
 4    1  0.4675559E-002  0.6239788E+03  0.7818608E-02  0.9856870E-01
         21   -1    0    0  503  502  0.00000000000E+00  0.00000000000E+00  0.60396470442E+03  0.60396470442E+03  0.00000000000E+00 0. -1.
         21   -1    0    0  501  503 -0.00000000000E+00 -0.00000000000E+00 -0.73571058821E+03  0.73571058821E+03  0.00000000000E+00 0.  1.
    9000007    1    1    2  501    0  0.30801641846E+03  0.36670886041E+03  0.16977673060E+03  0.64666346781E+03  0.40000000000E+03 0. -1.
   -9000007    1    1    2    0  502 -0.30801641846E+03 -0.36670886041E+03 -0.30152261439E+03  0.69301182481E+03  0.40000000000E+03 0.  1.
<mgrwt>
<rscale>  2 0.62397877E+03</rscale>
<asrwt>0</asrwt>
<pdfrwt beam="1">  1       21 0.92917647E-01 0.62397877E+03</pdfrwt>
<pdfrwt beam="2">  1       21 0.11318624E+00 0.62397877E+03</pdfrwt>
<totfact> 0.46553183E+02</totfact>
</mgrwt>
</event>
<event>
 4    1  0.4675559E-002  0.4751720E+03  0.7818608E-02  0.1020471E+00
         21   -1    0    0  503  502  0.00000000000E+00  0.00000000000E+00  0.21427641729E+03  0.21427641729E+03  0.00000000000E+00 0. -1.
         21   -1    0    0  501  503 -0.00000000000E+00 -0.00000000000E+00 -0.11070570119E+04  0.11070570119E+04  0.00000000000E+00 0.  1.
    9000007    1    1    2  501    0 -0.18636415375E+03 -0.17622946195E+03 -0.59139809448E+03  0.75864361015E+03  0.40000000000E+03 0.  1.
   -9000007    1    1    2    0  502  0.18636415375E+03  0.17622946195E+03 -0.30138250012E+03  0.56268981903E+03  0.40000000000E+03 0. -1.
<mgrwt>
<rscale>  2 0.47517199E+03</rscale>
<asrwt>0</asrwt>
<pdfrwt beam="1">  1       21 0.32965602E-01 0.47517199E+03</pdfrwt>
<pdfrwt beam="2">  1       21 0.17031647E+00 0.47517199E+03</pdfrwt>
<totfact> 0.15795638E+03</totfact>
</mgrwt>
</event>
<event>
 4    1  0.4675559E-002  0.4118239E+03  0.7818608E-02  0.1039761E+00
         21   -1    0    0  501  502  0.00000000000E+00  0.00000000000E+00  0.96309871665E+03  0.96309871665E+03  0.00000000000E+00 0.  1.
         21   -1    0    0  502  503 -0.00000000000E+00 -0.00000000000E+00 -0.31252762617E+03  0.31252762617E+03  0.00000000000E+00 0.  1.
    9000007    1    1    2  501    0 -0.96084137162E+02 -0.19151280645E+02  0.74669568838E+03  0.85273289136E+03  0.40000000000E+03 0.  1.
   -9000007    1    1    2    0  503  0.96084137162E+02  0.19151280645E+02 -0.96124597903E+02  0.42289345146E+03  0.40000000000E+03 0.  1.
<mgrwt>
<rscale>  2 0.41182391E+03</rscale>
<asrwt>0</asrwt>
<pdfrwt beam="1">  1       21 0.14816903E+00 0.41182391E+03</pdfrwt>
<pdfrwt beam="2">  1       21 0.48081174E-01 0.41182391E+03</pdfrwt>
<totfact> 0.10981899E+03</totfact>
</mgrwt>
</event>
<event>
 4    1  0.4675559E-002  0.4101255E+03  0.7818608E-02  0.1040329E+00
         21   -1    0    0  501  502  0.00000000000E+00  0.00000000000E+00  0.36266706286E+03  0.36266706286E+03  0.00000000000E+00 0.  1.
         21   -1    0    0  502  503 -0.00000000000E+00 -0.00000000000E+00 -0.50951059903E+03  0.50951059903E+03  0.00000000000E+00 0. -1.
    9000007    1    1    2  501    0 -0.85440230299E+01 -0.90166184895E+02  0.57205414982E+02  0.41409588350E+03  0.40000000000E+03 0.  1.
   -9000007    1    1    2    0  503  0.85440230299E+01  0.90166184895E+02 -0.20404895115E+03  0.45808177839E+03  0.40000000000E+03 0. -1.
<mgrwt>
<rscale>  2 0.41012552E+03</rscale>
<asrwt>0</asrwt>
<pdfrwt beam="1">  1       21 0.55794933E-01 0.41012552E+03</pdfrwt>
<pdfrwt beam="2">  1       21 0.78386246E-01 0.41012552E+03</pdfrwt>
<totfact> 0.38674390E+03</totfact>
</mgrwt>
</event>
<event>
 4    1  0.4675559E-002  0.4015694E+03  0.7818608E-02  0.1043238E+00
         21   -1    0    0  503  502  0.00000000000E+00  0.00000000000E+00  0.66752756278E+03  0.66752756278E+03  0.00000000000E+00 0.  1.
         21   -1    0    0  501  503 -0.00000000000E+00 -0.00000000000E+00 -0.32796773277E+03  0.32796773277E+03  0.00000000000E+00 0.  1.
    9000007    1    1    2  501    0 -0.64341904768E+01  0.34879009621E+02 -0.85685647696E+02  0.41060927211E+03  0.40000000000E+03 0.  1.
   -9000007    1    1    2    0  502  0.64341904768E+01 -0.34879009621E+02  0.42524547771E+03  0.58488602345E+03  0.40000000000E+03 0.  1.
<mgrwt>
<rscale>  2 0.40156935E+03</rscale>
<asrwt>0</asrwt>
<pdfrwt beam="1">  1       21 0.10269655E+00 0.40156935E+03</pdfrwt>
<pdfrwt beam="2">  1       21 0.50456575E-01 0.40156935E+03</pdfrwt>
<totfact> 0.25423802E+03</totfact>
</mgrwt>
</event>
<event>
 4    1  0.4675559E-002  0.4174234E+03  0.7818608E-02  0.1037908E+00
         21   -1    0    0  503  502  0.00000000000E+00  0.00000000000E+00  0.33554042619E+03  0.33554042619E+03  0.00000000000E+00 0. -1.
         21   -1    0    0  501  503 -0.00000000000E+00 -0.00000000000E+00 -0.52408391648E+03  0.52408391648E+03  0.00000000000E+00 0. -1.
    9000007    1    1    2  501    0 -0.11853758501E+03  0.13825166049E+02 -0.13538578516E+03  0.43882981337E+03  0.40000000000E+03 0. -1.
   -9000007    1    1    2    0  502  0.11853758501E+03 -0.13825166049E+02 -0.53157705121E+02  0.42079452930E+03  0.40000000000E+03 0. -1.
<mgrwt>
<rscale>  2 0.41742340E+03</rscale>
<asrwt>0</asrwt>
<pdfrwt beam="1">  1       21 0.51621604E-01 0.41742340E+03</pdfrwt>
<pdfrwt beam="2">  1       21 0.80628295E-01 0.41742340E+03</pdfrwt>
<totfact> 0.42710065E+03</totfact>
</mgrwt>
</event>
<event>
 4    1  0.4675559E-002  0.4444963E+03  0.7818608E-02  0.1029376E+00
         21   -1    0    0  501  502  0.00000000000E+00  0.00000000000E+00  0.43408166803E+03  0.43408166803E+03  0.00000000000E+00 0. -1.
         21   -1    0    0  502  503 -0.00000000000E+00 -0.00000000000E+00 -0.12716004267E+04  0.12716004267E+04  0.00000000000E+00 0. -1.
    9000007    1    1    2  501    0 -0.18191224993E+03 -0.66969489868E+02  0.26460885604E+03  0.51729568521E+03  0.40000000000E+03 0. -1.
   -9000007    1    1    2    0  503  0.18191224993E+03  0.66969489868E+02 -0.11021276148E+04  0.11883864096E+04  0.40000000000E+03 0. -1.
<mgrwt>
<rscale>  2 0.44449632E+03</rscale>
<asrwt>0</asrwt>
<pdfrwt beam="1">  1       21 0.66781795E-01 0.44449632E+03</pdfrwt>
<pdfrwt beam="2">  1       21 0.19563083E+00 0.44449632E+03</pdfrwt>
<totfact> 0.23979646E+02</totfact>
</mgrwt>
</event>
<event>
 4    1  0.4675559E-002  0.4936670E+03  0.7818608E-02  0.1015445E+00
         21   -1    0    0  503  502  0.00000000000E+00  0.00000000000E+00  0.83011152140E+03  0.83011152140E+03  0.00000000000E+00 0.  1.
         21   -1    0    0  501  503 -0.00000000000E+00 -0.00000000000E+00 -0.42037250874E+03  0.42037250874E+03  0.00000000000E+00 0. -1.
    9000007    1    1    2  501    0  0.28853593929E+03 -0.21310931742E+02 -0.13850780945E+03  0.51272951675E+03  0.40000000000E+03 0. -1.
   -9000007    1    1    2    0  502 -0.28853593929E+03  0.21310931742E+02  0.54824682211E+03  0.73775451339E+03  0.40000000000E+03 0.  1.
<mgrwt>
<rscale>  2 0.49366704E+03</rscale>
<asrwt>0</asrwt>
<pdfrwt beam="1">  1       21 0.12770946E+00 0.49366704E+03</pdfrwt>
<pdfrwt beam="2">  1       21 0.64672694E-01 0.49366704E+03</pdfrwt>
<totfact> 0.82659210E+02</totfact>
</mgrwt>
</event>
<event>
 4    1  0.4675559E-002  0.4583053E+03  0.7818608E-02  0.1025274E+00
         21   -1    0    0  503  502  0.00000000000E+00  0.00000000000E+00  0.19853420868E+04  0.19853420868E+04  0.00000000000E+00 0. -1.
         21   -1    0    0  501  503 -0.00000000000E+00 -0.00000000000E+00 -0.46629804990E+03  0.46629804990E+03  0.00000000000E+00 0. -1.
    9000007    1    1    2  501    0  0.17603027856E+03 -0.13804746287E+03 -0.31830244195E+03  0.55799659993E+03  0.40000000000E+03 0. -1.
   -9000007    1    1    2    0  502 -0.17603027856E+03  0.13804746287E+03  0.18373464788E+04  0.18936435367E+04  0.40000000000E+03 0. -1.
<mgrwt>
<rscale>  2 0.45830531E+03</rscale>
<asrwt>0</asrwt>
<pdfrwt beam="1">  1       21 0.30543724E+00 0.45830531E+03</pdfrwt>
<pdfrwt beam="2">  1       21 0.71738162E-01 0.45830531E+03</pdfrwt>
<totfact> 0.42025555E+01</totfact>
</mgrwt>
</event>
<event>
 4    1  0.4675559E-002  0.5772159E+03  0.7818608E-02  0.9953837E-01
         21   -1    0    0  503  502  0.00000000000E+00  0.00000000000E+00  0.40118555131E+03  0.40118555131E+03  0.00000000000E+00 0. -1.
         21   -1    0    0  501  503 -0.00000000000E+00 -0.00000000000E+00 -0.10883357597E+04  0.10883357597E+04  0.00000000000E+00 0. -1.
    9000007    1    1    2  501    0 -0.16829117618E+03  0.38059981682E+03  0.18935246538E+02  0.57752634928E+03  0.40000000000E+03 0. -1.
   -9000007    1    1    2    0  502  0.16829117618E+03 -0.38059981682E+03 -0.70608545490E+03  0.91199496170E+03  0.40000000000E+03 0. -1.
<mgrwt>
<rscale>  2 0.57721585E+03</rscale>
<asrwt>0</asrwt>
<pdfrwt beam="1">  1       21 0.61720855E-01 0.57721585E+03</pdfrwt>
<pdfrwt beam="2">  1       21 0.16743627E+00 0.57721585E+03</pdfrwt>
<totfact> 0.42600935E+02</totfact>
</mgrwt>
</event>
<event>
 4    1  0.4675559E-002  0.5881220E+03  0.7818608E-02  0.9930360E-01
         21   -1    0    0  501  502  0.00000000000E+00  0.00000000000E+00  0.14743757283E+04  0.14743757283E+04  0.00000000000E+00 0.  1.
         21   -1    0    0  502  503 -0.00000000000E+00 -0.00000000000E+00 -0.26318717521E+03  0.26318717521E+03  0.00000000000E+00 0.  1.
    9000007    1    1    2  501    0  0.29147714711E+03  0.31769264261E+03  0.89192567211E+03  0.10683721014E+04  0.40000000000E+03 0.  1.
   -9000007    1    1    2    0  503 -0.29147714711E+03 -0.31769264261E+03  0.31926288098E+03  0.66919080211E+03  0.40000000000E+03 0.  1.
<mgrwt>
<rscale>  2 0.58812205E+03</rscale>
<asrwt>0</asrwt>
<pdfrwt beam="1">  1       21 0.22682703E+00 0.58812205E+03</pdfrwt>
<pdfrwt beam="2">  1       21 0.40490336E-01 0.58812205E+03</pdfrwt>
<totfact> 0.41135716E+02</totfact>
</mgrwt>
</event>
<event>
 4    1  0.4675559E-002  0.4832615E+03  0.7818608E-02  0.1018243E+00
         21   -1    0    0  501  502  0.00000000000E+00  0.00000000000E+00  0.88521502017E+03  0.88521502017E+03  0.00000000000E+00 0. -1.
         21   -1    0    0  502  503 -0.00000000000E+00 -0.00000000000E+00 -0.31990840900E+03  0.31990840900E+03  0.00000000000E+00 0. -1.
    9000007    1    1    2  501    0 -0.17190768626E+03  0.20973663152E+03  0.53494708615E+03  0.72090921216E+03  0.40000000000E+03 0. -1.
   -9000007    1    1    2    0  503  0.17190768626E+03 -0.20973663152E+03  0.30359525030E+02  0.48421421701E+03  0.40000000000E+03 0. -1.
<mgrwt>
<rscale>  2 0.48326153E+03</rscale>
<asrwt>0</asrwt>
<pdfrwt beam="1">  1       21 0.13618692E+00 0.48326153E+03</pdfrwt>
<pdfrwt beam="2">  1       21 0.49216679E-01 0.48326153E+03</pdfrwt>
<totfact> 0.12705364E+03</totfact>
</mgrwt>
</event>
<event>
 4    1  0.4675559E-002  0.4082713E+03  0.7818608E-02  0.1040953E+00
         21   -1    0    0  503  502  0.00000000000E+00  0.00000000000E+00  0.22831275592E+03  0.22831275592E+03  0.00000000000E+00 0.  1.
         21   -1    0    0  501  503 -0.00000000000E+00 -0.00000000000E+00 -0.74602088629E+03  0.74602088629E+03  0.00000000000E+00 0.  1.
    9000007    1    1    2  501    0  0.81227251617E+02 -0.93602579513E+01 -0.33007764918E+03  0.52501117638E+03  0.40000000000E+03 0. -1.
   -9000007    1    1    2    0  502 -0.81227251617E+02  0.93602579513E+01 -0.18763048119E+03  0.44932246584E+03  0.40000000000E+03 0. -1.
<mgrwt>
<rscale>  2 0.40827133E+03</rscale>
<asrwt>0</asrwt>
<pdfrwt beam="1">  1       21 0.35125039E-01 0.40827133E+03</pdfrwt>
<pdfrwt beam="2">  1       21 0.11477244E+00 0.40827133E+03</pdfrwt>
<totfact> 0.40797961E+03</totfact>
</mgrwt>
</event>
<event>
 4    1  0.4675559E-002  0.4086876E+03  0.7818608E-02  0.1040812E+00
         21   -1    0    0  503  502  0.00000000000E+00  0.00000000000E+00  0.74311901434E+03  0.74311901434E+03  0.00000000000E+00 0. -1.
         21   -1    0    0  501  503 -0.00000000000E+00 -0.00000000000E+00 -0.26983096812E+03  0.26983096812E+03  0.00000000000E+00 0. -1.
    9000007    1    1    2  501    0 -0.44589182241E+02  0.70974260659E+02  0.29655214319E+02  0.40976209267E+03  0.40000000000E+03 0. -1.
   -9000007    1    1    2    0  502  0.44589182241E+02 -0.70974260659E+02  0.44363283190E+03  0.60318788979E+03  0.40000000000E+03 0. -1.
<mgrwt>
<rscale>  2 0.40868758E+03</rscale>
<asrwt>0</asrwt>
<pdfrwt beam="1">  1       21 0.11432600E+00 0.40868758E+03</pdfrwt>
<pdfrwt beam="2">  1       21 0.41512457E-01 0.40868758E+03</pdfrwt>
<totfact> 0.29278714E+03</totfact>
</mgrwt>
</event>
<event>
 4    1  0.4675559E-002  0.4270679E+03  0.7818608E-02  0.1034790E+00
         21   -1    0    0  503  502  0.00000000000E+00  0.00000000000E+00  0.30539663960E+03  0.30539663960E+03  0.00000000000E+00 0. -1.
         21   -1    0    0  501  503 -0.00000000000E+00 -0.00000000000E+00 -0.76741561656E+03  0.76741561656E+03  0.00000000000E+00 0. -1.
    9000007    1    1    2  501    0 -0.14839656306E+03  0.19116229186E+02 -0.48362557377E+03  0.64519816007E+03  0.40000000000E+03 0. -1.
   -9000007    1    1    2    0  502  0.14839656306E+03 -0.19116229186E+02  0.21606596809E+02  0.42761409609E+03  0.40000000000E+03 0. -1.
<mgrwt>
<rscale>  2 0.42706788E+03</rscale>
<asrwt>0</asrwt>
<pdfrwt beam="1">  1       21 0.46984099E-01 0.42706788E+03</pdfrwt>
<pdfrwt beam="2">  1       21 0.11806394E+00 0.42706788E+03</pdfrwt>
<totfact> 0.20713637E+03</totfact>
</mgrwt>
</event>
<event>
 4    1  0.4675559E-002  0.4603527E+03  0.7818608E-02  0.1024679E+00
         21   -1    0    0  503  502  0.00000000000E+00  0.00000000000E+00  0.58030224567E+03  0.58030224567E+03  0.00000000000E+00 0.  1.
         21   -1    0    0  501  503 -0.00000000000E+00 -0.00000000000E+00 -0.53085469570E+03  0.53085469570E+03  0.00000000000E+00 0.  1.
    9000007    1    1    2  501    0 -0.10464408364E+03  0.20242098787E+03 -0.28563453711E+03  0.54176722803E+03  0.40000000000E+03 0.  1.
   -9000007    1    1    2    0  502  0.10464408364E+03 -0.20242098787E+03  0.33508208709E+03  0.56938971334E+03  0.40000000000E+03 0.  1.
<mgrwt>
<rscale>  2 0.46035273E+03</rscale>
<asrwt>0</asrwt>
<pdfrwt beam="1">  1       21 0.89277269E-01 0.46035273E+03</pdfrwt>
<pdfrwt beam="2">  1       21 0.81669953E-01 0.46035273E+03</pdfrwt>
<totfact> 0.11946108E+03</totfact>
</mgrwt>
</event>
<event>
 4    1  0.4675559E-002  0.4647666E+03  0.7818608E-02  0.1023408E+00
         21   -1    0    0  503  502  0.00000000000E+00  0.00000000000E+00  0.12451682303E+03  0.12451682303E+03  0.00000000000E+00 0.  1.
         21   -1    0    0  501  503 -0.00000000000E+00 -0.00000000000E+00 -0.17428012341E+04  0.17428012341E+04  0.00000000000E+00 0. -1.
    9000007    1    1    2  501    0 -0.57136547068E+02 -0.22965939770E+03 -0.74576093101E+03  0.87873055607E+03  0.40000000000E+03 0. -1.
   -9000007    1    1    2    0  502  0.57136547068E+02  0.22965939770E+03 -0.87252348002E+03  0.98858750101E+03  0.40000000000E+03 0. -1.
<mgrwt>
<rscale>  2 0.46476663E+03</rscale>
<asrwt>0</asrwt>
<pdfrwt beam="1">  1       21 0.19156435E-01 0.46476663E+03</pdfrwt>
<pdfrwt beam="2">  1       21 0.26812325E+00 0.46476663E+03</pdfrwt>
<totfact> 0.10577389E+03</totfact>
</mgrwt>
</event>
<event>
 4    1  0.4675559E-002  0.4669912E+03  0.7818608E-02  0.1022773E+00
         21   -1    0    0  503  502  0.00000000000E+00  0.00000000000E+00  0.14329436990E+03  0.14329436990E+03  0.00000000000E+00 0. -1.
         21   -1    0    0  501  503 -0.00000000000E+00 -0.00000000000E+00 -0.15789468732E+04  0.15789468732E+04  0.00000000000E+00 0.  1.
    9000007    1    1    2  501    0  0.17109640497E+03  0.16972567806E+03 -0.55415690264E+03  0.72468659318E+03  0.40000000000E+03 0. -1.
   -9000007    1    1    2    0  502 -0.17109640497E+03 -0.16972567806E+03 -0.88149560062E+03  0.99755464989E+03  0.40000000000E+03 0.  1.
<mgrwt>
<rscale>  2 0.46699121E+03</rscale>
<asrwt>0</asrwt>
<pdfrwt beam="1">  1       21 0.22045287E-01 0.46699121E+03</pdfrwt>
<pdfrwt beam="2">  1       21 0.24291491E+00 0.46699121E+03</pdfrwt>
<totfact> 0.11529540E+03</totfact>
</mgrwt>
</event>
<event>
 4    1  0.4675559E-002  0.5164968E+03  0.7818608E-02  0.1009561E+00
         21   -1    0    0  501  502  0.00000000000E+00  0.00000000000E+00  0.12876402111E+04  0.12876402111E+04  0.00000000000E+00 0. -1.
         21   -1    0    0  502  503 -0.00000000000E+00 -0.00000000000E+00 -0.33613273481E+03  0.33613273481E+03  0.00000000000E+00 0.  1.
    9000007    1    1    2  501    0 -0.20555208060E+03  0.25400246507E+03  0.97862974954E+03  0.11065645470E+04  0.40000000000E+03 0. -1.
   -9000007    1    1    2    0  503  0.20555208060E+03 -0.25400246507E+03 -0.27122273300E+02  0.51720839882E+03  0.40000000000E+03 0.  1.
<mgrwt>
<rscale>  2 0.51649677E+03</rscale>
<asrwt>0</asrwt>
<pdfrwt beam="1">  1       21 0.19809849E+00 0.51649677E+03</pdfrwt>
<pdfrwt beam="2">  1       21 0.51712729E-01 0.51649677E+03</pdfrwt>
<totfact> 0.39001586E+02</totfact>
</mgrwt>
</event>
<event>
 4    1  0.4675559E-002  0.4874134E+03  0.7818608E-02  0.1017117E+00
         21   -1    0    0  501  502  0.00000000000E+00  0.00000000000E+00  0.10857165988E+04  0.10857165988E+04  0.00000000000E+00 0. -1.
         21   -1    0    0  502  503 -0.00000000000E+00 -0.00000000000E+00 -0.30683896223E+03  0.30683896223E+03  0.00000000000E+00 0.  1.
    9000007    1    1    2  501    0 -0.27850533163E+03 -0.25682936635E+01  0.76236773781E+03  0.90486263241E+03  0.40000000000E+03 0.  1.
   -9000007    1    1    2    0  503  0.27850533163E+03  0.25682936635E+01  0.16509898761E+02  0.48769292863E+03  0.40000000000E+03 0.  1.
<mgrwt>
<rscale>  2 0.48741339E+03</rscale>
<asrwt>0</asrwt>
<pdfrwt beam="1">  1       21 0.16703332E+00 0.48741339E+03</pdfrwt>
<pdfrwt beam="2">  1       21 0.47205995E-01 0.48741339E+03</pdfrwt>
<totfact> 0.79282886E+02</totfact>
</mgrwt>
</event>
<event>
 4    1  0.4675559E-002  0.4012977E+03  0.7818608E-02  0.1043331E+00
         21   -1    0    0  501  502  0.00000000000E+00  0.00000000000E+00  0.43949029405E+03  0.43949029405E+03  0.00000000000E+00 0.  1.
         21   -1    0    0  502  503 -0.00000000000E+00 -0.00000000000E+00 -0.36671060077E+03  0.36671060077E+03  0.00000000000E+00 0.  1.
    9000007    1    1    2  501    0 -0.21616161270E+02  0.23928896051E+02  0.25123359855E+02  0.40208336661E+03  0.40000000000E+03 0.  1.
   -9000007    1    1    2    0  503  0.21616161270E+02 -0.23928896051E+02  0.47656333426E+02  0.40411752821E+03  0.40000000000E+03 0.  1.
<mgrwt>
<rscale>  2 0.40129771E+03</rscale>
<asrwt>0</asrwt>
<pdfrwt beam="1">  1       21 0.67613892E-01 0.40129771E+03</pdfrwt>
<pdfrwt beam="2">  1       21 0.56417015E-01 0.40129771E+03</pdfrwt>
<totfact> 0.52937823E+03</totfact>
</mgrwt>
</event>
<event>
 4    1  0.4675559E-002  0.4305441E+03  0.7818608E-02  0.1033688E+00
         21   -1    0    0  503  502  0.00000000000E+00  0.00000000000E+00  0.62140601722E+03  0.62140601722E+03  0.00000000000E+00 0. -1.
         21   -1    0    0  501  503 -0.00000000000E+00 -0.00000000000E+00 -0.33137614084E+03  0.33137614084E+03  0.00000000000E+00 0. -1.
    9000007    1    1    2  501    0  0.15858492122E+03 -0.14798823454E+02 -0.54832177591E+01  0.43057896847E+03  0.40000000000E+03 0. -1.
   -9000007    1    1    2    0  502 -0.15858492122E+03  0.14798823454E+02  0.29551309414E+03  0.52220318959E+03  0.40000000000E+03 0. -1.
<mgrwt>
<rscale>  2 0.43054405E+03</rscale>
<asrwt>0</asrwt>
<pdfrwt beam="1">  1       21 0.95600926E-01 0.43054405E+03</pdfrwt>
<pdfrwt beam="2">  1       21 0.50980945E-01 0.43054405E+03</pdfrwt>
<totfact> 0.29238569E+03</totfact>
</mgrwt>
</event>
<event>
 4    1  0.4675559E-002  0.5055658E+03  0.7818608E-02  0.1012336E+00
         21   -1    0    0  503  502  0.00000000000E+00  0.00000000000E+00  0.75019413943E+03  0.75019413943E+03  0.00000000000E+00 0.  1.
         21   -1    0    0  501  503 -0.00000000000E+00 -0.00000000000E+00 -0.89576807020E+03  0.89576807020E+03  0.00000000000E+00 0. -1.
    9000007    1    1    2  501    0 -0.21015349211E+03 -0.22678682748E+03 -0.72061877903E+03  0.88027733133E+03  0.40000000000E+03 0. -1.
   -9000007    1    1    2    0  502  0.21015349211E+03  0.22678682748E+03  0.57504484825E+03  0.76568487831E+03  0.40000000000E+03 0.  1.
<mgrwt>
<rscale>  2 0.50556578E+03</rscale>
<asrwt>0</asrwt>
<pdfrwt beam="1">  1       21 0.11541448E+00 0.50556578E+03</pdfrwt>
<pdfrwt beam="2">  1       21 0.13781047E+00 0.50556578E+03</pdfrwt>
<totfact> 0.17171047E+02</totfact>
</mgrwt>
</event>
<event>
 4    1  0.4675559E-002  0.4892049E+03  0.7818608E-02  0.1016636E+00
         21   -1    0    0  503  502  0.00000000000E+00  0.00000000000E+00  0.87657913090E+02  0.87657913090E+02  0.00000000000E+00 0.  1.
         21   -1    0    0  501  503 -0.00000000000E+00 -0.00000000000E+00 -0.30072705256E+04  0.30072705256E+04  0.00000000000E+00 0.  1.
    9000007    1    1    2  501    0  0.34305039954E+02  0.27954349520E+03 -0.19295375996E+04  0.19905870365E+04  0.40000000000E+03 0.  1.
   -9000007    1    1    2    0  502 -0.34305039954E+02 -0.27954349520E+03 -0.99007501289E+03  0.11043414022E+04  0.40000000000E+03 0.  1.
<mgrwt>
<rscale>  2 0.48920487E+03</rscale>
<asrwt>0</asrwt>
<pdfrwt beam="1">  1       21 0.13485835E-01 0.48920487E+03</pdfrwt>
<pdfrwt beam="2">  1       21 0.46265694E+00 0.48920487E+03</pdfrwt>
<totfact> 0.11924562E+02</totfact>
</mgrwt>
</event>
<event>
 4    1  0.4675559E-002  0.4069216E+03  0.7818608E-02  0.1041409E+00
         21   -1    0    0  501  502  0.00000000000E+00  0.00000000000E+00  0.78133016278E+03  0.78133016278E+03  0.00000000000E+00 0. -1.
         21   -1    0    0  502  503 -0.00000000000E+00 -0.00000000000E+00 -0.26868370861E+03  0.26868370861E+03  0.00000000000E+00 0. -1.
    9000007    1    1    2  501    0  0.47019562187E+02  0.58089230298E+02  0.49762015748E+03  0.64281491818E+03  0.40000000000E+03 0. -1.
   -9000007    1    1    2    0  503 -0.47019562187E+02 -0.58089230298E+02  0.15026296686E+02  0.40719895321E+03  0.40000000000E+03 0. -1.
<mgrwt>
<rscale>  2 0.40692161E+03</rscale>
<asrwt>0</asrwt>
<pdfrwt beam="1">  1       21 0.12020464E+00 0.40692161E+03</pdfrwt>
<pdfrwt beam="2">  1       21 0.41335956E-01 0.40692161E+03</pdfrwt>
<totfact> 0.26062488E+03</totfact>
</mgrwt>
</event>
<event>
 4    1  0.4675559E-002  0.5273460E+03  0.7818608E-02  0.1006878E+00
         21   -1    0    0  501  502  0.00000000000E+00  0.00000000000E+00  0.67702189999E+03  0.67702189999E+03  0.00000000000E+00 0.  1.
         21   -1    0    0  502  503 -0.00000000000E+00 -0.00000000000E+00 -0.54454074032E+03  0.54454074032E+03  0.00000000000E+00 0. -1.
    9000007    1    1    2  501    0 -0.31179612753E+03 -0.14448883156E+03  0.36897831616E+03  0.64361389465E+03  0.40000000000E+03 0.  1.
   -9000007    1    1    2    0  503  0.31179612753E+03  0.14448883156E+03 -0.23649715649E+03  0.57794874566E+03  0.40000000000E+03 0. -1.
<mgrwt>
<rscale>  2 0.52734604E+03</rscale>
<asrwt>0</asrwt>
<pdfrwt beam="1">  1       21 0.10415722E+00 0.52734604E+03</pdfrwt>
<pdfrwt beam="2">  1       21 0.83775498E-01 0.52734604E+03</pdfrwt>
<totfact> 0.75665009E+02</totfact>
</mgrwt>
</event>
<event>
 4    1  0.4675559E-002  0.4229464E+03  0.7818608E-02  0.1036112E+00
         21   -1    0    0  503  502  0.00000000000E+00  0.00000000000E+00  0.61239811726E+03  0.61239811726E+03  0.00000000000E+00 0.  1.
         21   -1    0    0  501  503 -0.00000000000E+00 -0.00000000000E+00 -0.32010941291E+03  0.32010941291E+03  0.00000000000E+00 0.  1.
    9000007    1    1    2  501    0 -0.51057262044E+02 -0.12758076394E+03  0.82338903538E+01  0.42302658579E+03  0.40000000000E+03 0.  1.
   -9000007    1    1    2    0  502  0.51057262044E+02  0.12758076394E+03  0.28405481399E+03  0.50948094438E+03  0.40000000000E+03 0.  1.
<mgrwt>
<rscale>  2 0.42294644E+03</rscale>
<asrwt>0</asrwt>
<pdfrwt beam="1">  1       21 0.94215094E-01 0.42294644E+03</pdfrwt>
<pdfrwt beam="2">  1       21 0.49247602E-01 0.42294644E+03</pdfrwt>
<totfact> 0.32680948E+03</totfact>
</mgrwt>
</event>
<event>
 4    1  0.4675559E-002  0.4452237E+03  0.7818608E-02  0.1029156E+00
         21   -1    0    0  503  502  0.00000000000E+00  0.00000000000E+00  0.10564541306E+04  0.10564541306E+04  0.00000000000E+00 0. -1.
         21   -1    0    0  501  503 -0.00000000000E+00 -0.00000000000E+00 -0.18972330559E+03  0.18972330559E+03  0.00000000000E+00 0. -1.
    9000007    1    1    2  501    0 -0.19444419507E+03  0.20385916113E+02  0.49879053875E+03  0.66859265036E+03  0.40000000000E+03 0. -1.
   -9000007    1    1    2    0  502  0.19444419507E+03 -0.20385916113E+02  0.36794028630E+03  0.57758478586E+03  0.40000000000E+03 0. -1.
<mgrwt>
<rscale>  2 0.44522369E+03</rscale>
<asrwt>0</asrwt>
<pdfrwt beam="1">  1       21 0.16253140E+00 0.44522369E+03</pdfrwt>
<pdfrwt beam="2">  1       21 0.29188201E-01 0.44522369E+03</pdfrwt>
<totfact> 0.23262612E+03</totfact>
</mgrwt>
</event>
<event>
 4    1  0.4675559E-002  0.4067422E+03  0.7818608E-02  0.1041470E+00
         21   -1    0    0  501  502  0.00000000000E+00  0.00000000000E+00  0.53229170936E+03  0.53229170936E+03  0.00000000000E+00 0.  1.
         21   -1    0    0  502  503 -0.00000000000E+00 -0.00000000000E+00 -0.61801626203E+03  0.61801626203E+03  0.00000000000E+00 0. -1.
    9000007    1    1    2  501    0  0.28799100225E+02 -0.67895758549E+02  0.36264845655E+03  0.54493405587E+03  0.40000000000E+03 0.  1.
   -9000007    1    1    2    0  503 -0.28799100225E+02  0.67895758549E+02 -0.44837300923E+03  0.60537391553E+03  0.40000000000E+03 0. -1.
<mgrwt>
<rscale>  2 0.40674221E+03</rscale>
<asrwt>0</asrwt>
<pdfrwt beam="1">  1       21 0.81891032E-01 0.40674221E+03</pdfrwt>
<pdfrwt beam="2">  1       21 0.95079425E-01 0.40674221E+03</pdfrwt>
<totfact> 0.10454336E+03</totfact>
</mgrwt>
</event>
<event>
 4    1  0.4675559E-002  0.4211122E+03  0.7818608E-02  0.1036705E+00
         21   -1    0    0  503  502  0.00000000000E+00  0.00000000000E+00  0.18862134426E+03  0.18862134426E+03  0.00000000000E+00 0. -1.
         21   -1    0    0  501  503 -0.00000000000E+00 -0.00000000000E+00 -0.94575335285E+03  0.94575335285E+03  0.00000000000E+00 0. -1.
    9000007    1    1    2  501    0 -0.14592529327E+02  0.13085323255E+03 -0.33497341248E+03  0.53809171843E+03  0.40000000000E+03 0. -1.
   -9000007    1    1    2    0  502  0.14592529327E+02 -0.13085323255E+03 -0.42215859612E+03  0.59628297867E+03  0.40000000000E+03 0. -1.
<mgrwt>
<rscale>  2 0.42111223E+03</rscale>
<asrwt>0</asrwt>
<pdfrwt beam="1">  1       21 0.29018669E-01 0.42111223E+03</pdfrwt>
<pdfrwt beam="2">  1       21 0.14550051E+00 0.42111223E+03</pdfrwt>
<totfact> 0.32175264E+03</totfact>
</mgrwt>
</event>
<event>
 4    1  0.4675559E-002  0.4592838E+03  0.7818608E-02  0.1024989E+00
         21   -1    0    0  501  502  0.00000000000E+00  0.00000000000E+00  0.62447984405E+03  0.62447984405E+03  0.00000000000E+00 0. -1.
         21   -1    0    0  502  503 -0.00000000000E+00 -0.00000000000E+00 -0.34855853202E+03  0.34855853202E+03  0.00000000000E+00 0. -1.
    9000007    1    1    2  501    0  0.12393142685E+03  0.18863345367E+03  0.22348460934E+03  0.51077093595E+03  0.40000000000E+03 0. -1.
   -9000007    1    1    2    0  503 -0.12393142685E+03 -0.18863345367E+03  0.52436702691E+02  0.46226744012E+03  0.40000000000E+03 0. -1.
<mgrwt>
<rscale>  2 0.45928377E+03</rscale>
<asrwt>0</asrwt>
<pdfrwt beam="1">  1       21 0.96073822E-01 0.45928377E+03</pdfrwt>
<pdfrwt beam="2">  1       21 0.53624390E-01 0.45928377E+03</pdfrwt>
<totfact> 0.25659116E+03</totfact>
</mgrwt>
</event>
<event>
 4    1  0.4675559E-002  0.4201042E+03  0.7818608E-02  0.1037032E+00
         21   -1    0    0  503  502  0.00000000000E+00  0.00000000000E+00  0.11058887602E+04  0.11058887602E+04  0.00000000000E+00 0.  1.
         21   -1    0    0  501  503 -0.00000000000E+00 -0.00000000000E+00 -0.23892919699E+03  0.23892919699E+03  0.00000000000E+00 0.  1.
    9000007    1    1    2  501    0 -0.12791790786E+03  0.11161752392E+02  0.46002904893E+02  0.42261547904E+03  0.40000000000E+03 0.  1.
   -9000007    1    1    2    0  502  0.12791790786E+03 -0.11161752392E+02  0.82095665828E+03  0.92220247812E+03  0.40000000000E+03 0.  1.
<mgrwt>
<rscale>  2 0.42010424E+03</rscale>
<asrwt>0</asrwt>
<pdfrwt beam="1">  1       21 0.17013673E+00 0.42010424E+03</pdfrwt>
<pdfrwt beam="2">  1       21 0.36758339E-01 0.42010424E+03</pdfrwt>
<totfact> 0.13013494E+03</totfact>
</mgrwt>
</event>
<event>
 4    1  0.4675559E-002  0.4526690E+03  0.7818608E-02  0.1026929E+00
         21   -1    0    0  503  502  0.00000000000E+00  0.00000000000E+00  0.65128087757E+03  0.65128087757E+03  0.00000000000E+00 0. -1.
         21   -1    0    0  501  503 -0.00000000000E+00 -0.00000000000E+00 -0.31838965362E+03  0.31838965362E+03  0.00000000000E+00 0. -1.
    9000007    1    1    2  501    0 -0.16805766313E+03  0.12909629925E+03  0.11372524377E+03  0.46673618211E+03  0.40000000000E+03 0. -1.
   -9000007    1    1    2    0  502  0.16805766313E+03 -0.12909629925E+03  0.21916598018E+03  0.50293434908E+03  0.40000000000E+03 0. -1.
<mgrwt>
<rscale>  2 0.45266901E+03</rscale>
<asrwt>0</asrwt>
<pdfrwt beam="1">  1       21 0.10019706E+00 0.45266901E+03</pdfrwt>
<pdfrwt beam="2">  1       21 0.48983024E-01 0.45266901E+03</pdfrwt>
<totfact> 0.28193956E+03</totfact>
</mgrwt>
</event>
<event>
 4    1  0.4675559E-002  0.6048857E+03  0.7818608E-02  0.9895321E-01
         21   -1    0    0  503  502  0.00000000000E+00  0.00000000000E+00  0.11180190643E+04  0.11180190643E+04  0.00000000000E+00 0.  1.
         21   -1    0    0  501  503 -0.00000000000E+00 -0.00000000000E+00 -0.46837135948E+03  0.46837135948E+03  0.00000000000E+00 0. -1.
    9000007    1    1    2  501    0 -0.42800703060E+03 -0.15065428881E+03 -0.11054831012E+03  0.61490459573E+03  0.40000000000E+03 0. -1.
   -9000007    1    1    2    0  502  0.42800703060E+03  0.15065428881E+03  0.76019601493E+03  0.97148582804E+03  0.40000000000E+03 0.  1.
<mgrwt>
<rscale>  2 0.60488572E+03</rscale>
<asrwt>0</asrwt>
<pdfrwt beam="1">  1       21 0.17200293E+00 0.60488572E+03</pdfrwt>
<pdfrwt beam="2">  1       21 0.72057133E-01 0.60488572E+03</pdfrwt>
<totfact> 0.27565946E+02</totfact>
</mgrwt>
</event>
<event>
 4    1  0.4675559E-002  0.4164861E+03  0.7818608E-02  0.1038216E+00
         21   -1    0    0  503  502  0.00000000000E+00  0.00000000000E+00  0.10591768522E+04  0.10591768522E+04  0.00000000000E+00 0. -1.
         21   -1    0    0  501  503 -0.00000000000E+00 -0.00000000000E+00 -0.16719881089E+03  0.16719881089E+03  0.00000000000E+00 0. -1.
    9000007    1    1    2  501    0 -0.10508402471E+03  0.49173642602E+02  0.35816967903E+03  0.54931431654E+03  0.40000000000E+03 0.  1.
   -9000007    1    1    2    0  502  0.10508402471E+03 -0.49173642602E+02  0.53380836233E+03  0.67706134661E+03  0.40000000000E+03 0.  1.
<mgrwt>
<rscale>  2 0.41648613E+03</rscale>
<asrwt>0</asrwt>
<pdfrwt beam="1">  1       21 0.16295028E+00 0.41648613E+03</pdfrwt>
<pdfrwt beam="2">  1       21 0.25722895E-01 0.41648613E+03</pdfrwt>
<totfact> 0.29951300E+03</totfact>
</mgrwt>
</event>
<event>
 4    1  0.4675559E-002  0.4619043E+03  0.7818608E-02  0.1024230E+00
         21   -1    0    0  501  502  0.00000000000E+00  0.00000000000E+00  0.19980032185E+03  0.19980032185E+03  0.00000000000E+00 0. -1.
         21   -1    0    0  502  503 -0.00000000000E+00 -0.00000000000E+00 -0.11841060091E+04  0.11841060091E+04  0.00000000000E+00 0.  1.
    9000007    1    1    2  501    0 -0.20371967801E+03  0.10887551252E+03 -0.27533239913E+03  0.53773926251E+03  0.40000000000E+03 0. -1.
   -9000007    1    1    2    0  503  0.20371967801E+03 -0.10887551252E+03 -0.70897328808E+03  0.84616706840E+03  0.40000000000E+03 0.  1.
<mgrwt>
<rscale>  2 0.46190430E+03</rscale>
<asrwt>0</asrwt>
<pdfrwt beam="1">  1       21 0.30738512E-01 0.46190430E+03</pdfrwt>
<pdfrwt beam="2">  1       21 0.18217015E+00 0.46190430E+03</pdfrwt>
<totfact> 0.15032062E+03</totfact>
</mgrwt>
</event>
<event>
 4    1  0.4675559E-002  0.4093967E+03  0.7818608E-02  0.1040574E+00
         21   -1    0    0  503  502  0.00000000000E+00  0.00000000000E+00  0.13891768783E+03  0.13891768783E+03  0.00000000000E+00 0. -1.
         21   -1    0    0  501  503 -0.00000000000E+00 -0.00000000000E+00 -0.12177157254E+04  0.12177157254E+04  0.00000000000E+00 0.  1.
    9000007    1    1    2  501    0  0.84173491364E+02  0.22814722045E+02 -0.47433147865E+03  0.62657484774E+03  0.40000000000E+03 0. -1.
   -9000007    1    1    2    0  502 -0.84173491364E+02 -0.22814722045E+02 -0.60446655894E+03  0.73005856550E+03  0.40000000000E+03 0. -1.
<mgrwt>
<rscale>  2 0.40939674E+03</rscale>
<asrwt>0</asrwt>
<pdfrwt beam="1">  1       21 0.21371952E-01 0.40939674E+03</pdfrwt>
<pdfrwt beam="2">  1       21 0.18734088E+00 0.40939674E+03</pdfrwt>
<totfact> 0.28763635E+03</totfact>
</mgrwt>
</event>
<event>
 4    1  0.4675559E-002  0.6114428E+03  0.7818608E-02  0.9881946E-01
         21   -1    0    0  501  502  0.00000000000E+00  0.00000000000E+00  0.86623159728E+03  0.86623159728E+03  0.00000000000E+00 0.  1.
         21   -1    0    0  502  503 -0.00000000000E+00 -0.00000000000E+00 -0.11021336766E+04  0.11021336766E+04  0.00000000000E+00 0.  1.
    9000007    1    1    2  501    0  0.20697061523E+03  0.41355229635E+03  0.64971099642E+03  0.89218087642E+03  0.40000000000E+03 0.  1.
   -9000007    1    1    2    0  503 -0.20697061523E+03 -0.41355229635E+03 -0.88561307569E+03  0.10761843974E+04  0.40000000000E+03 0.  1.
<mgrwt>
<rscale>  2 0.61144283E+03</rscale>
<asrwt>0</asrwt>
<pdfrwt beam="1">  1       21 0.13326640E+00 0.61144283E+03</pdfrwt>
<pdfrwt beam="2">  1       21 0.16955903E+00 0.61144283E+03</pdfrwt>
<totfact> 0.63829925E+01</totfact>
</mgrwt>
</event>
<event>
 4    1  0.4675559E-002  0.4148463E+03  0.7818608E-02  0.1038757E+00
         21   -1    0    0  503  502  0.00000000000E+00  0.00000000000E+00  0.11612608973E+04  0.11612608973E+04  0.00000000000E+00 0. -1.
         21   -1    0    0  501  503 -0.00000000000E+00 -0.00000000000E+00 -0.18633256740E+03  0.18633256740E+03  0.00000000000E+00 0. -1.
    9000007    1    1    2  501    0  0.10590946928E+03  0.29674890573E+02  0.18264683757E+03  0.45327395920E+03  0.40000000000E+03 0. -1.
   -9000007    1    1    2    0  502 -0.10590946928E+03 -0.29674890573E+02  0.79228149234E+03  0.89431950550E+03  0.40000000000E+03 0. -1.
<mgrwt>
<rscale>  2 0.41484625E+03</rscale>
<asrwt>0</asrwt>
<pdfrwt beam="1">  1       21 0.17865552E+00 0.41484625E+03</pdfrwt>
<pdfrwt beam="2">  1       21 0.28666550E-01 0.41484625E+03</pdfrwt>
<totfact> 0.18651036E+03</totfact>
</mgrwt>
</event>
<event>
 4    1  0.4675559E-002  0.4262967E+03  0.7818608E-02  0.1035036E+00
         21   -1    0    0  503  502  0.00000000000E+00  0.00000000000E+00  0.35146745888E+03  0.35146745888E+03  0.00000000000E+00 0.  1.
         21   -1    0    0  501  503 -0.00000000000E+00 -0.00000000000E+00 -0.97810342945E+03  0.97810342945E+03  0.00000000000E+00 0.  1.
    9000007    1    1    2  501    0 -0.76758647878E+02  0.12584517048E+03 -0.76973433340E+03  0.87989763096E+03  0.40000000000E+03 0.  1.
   -9000007    1    1    2    0  502  0.76758647878E+02 -0.12584517048E+03  0.14309836283E+03  0.44967325738E+03  0.40000000000E+03 0.  1.
<mgrwt>
<rscale>  2 0.42629672E+03</rscale>
<asrwt>0</asrwt>
<pdfrwt beam="1">  1       21 0.54071917E-01 0.42629672E+03</pdfrwt>
<pdfrwt beam="2">  1       21 0.15047745E+00 0.42629672E+03</pdfrwt>
<totfact> 0.81466385E+02</totfact>
</mgrwt>
</event>
<event>
 4    1  0.4675559E-002  0.5346561E+03  0.7818608E-02  0.1005109E+00
         21   -1    0    0  503  502  0.00000000000E+00  0.00000000000E+00  0.60587633424E+03  0.60587633424E+03  0.00000000000E+00 0. -1.
         21   -1    0    0  501  503 -0.00000000000E+00 -0.00000000000E+00 -0.58418266272E+03  0.58418266272E+03  0.00000000000E+00 0.  1.
    9000007    1    1    2  501    0  0.27392373385E+02  0.35370435972E+03 -0.25012819413E+03  0.59027216579E+03  0.40000000000E+03 0.  1.
   -9000007    1    1    2    0  502 -0.27392373385E+02 -0.35370435972E+03  0.27182186565E+03  0.59978683118E+03  0.40000000000E+03 0. -1.
<mgrwt>
<rscale>  2 0.53465607E+03</rscale>
<asrwt>0</asrwt>
<pdfrwt beam="1">  1       21 0.93211743E-01 0.53465607E+03</pdfrwt>
<pdfrwt beam="2">  1       21 0.89874256E-01 0.53465607E+03</pdfrwt>
<totfact> 0.83752166E+02</totfact>
</mgrwt>
</event>
<event>
 4    1  0.4675559E-002  0.5006911E+03  0.7818608E-02  0.1013599E+00
         21   -1    0    0  501  502  0.00000000000E+00  0.00000000000E+00  0.27870462570E+03  0.27870462570E+03  0.00000000000E+00 0. -1.
         21   -1    0    0  502  503 -0.00000000000E+00 -0.00000000000E+00 -0.92427062281E+03  0.92427062281E+03  0.00000000000E+00 0.  1.
    9000007    1    1    2  501    0  0.25913770020E+03 -0.15342496797E+03 -0.42127422486E+03  0.65434206727E+03  0.40000000000E+03 0. -1.
   -9000007    1    1    2    0  503 -0.25913770020E+03  0.15342496797E+03 -0.22429177224E+03  0.54863318124E+03  0.40000000000E+03 0.  1.
<mgrwt>
<rscale>  2 0.50069109E+03</rscale>
<asrwt>0</asrwt>
<pdfrwt beam="1">  1       21 0.42877634E-01 0.50069109E+03</pdfrwt>
<pdfrwt beam="2">  1       21 0.14219548E+00 0.50069109E+03</pdfrwt>
<totfact> 0.15041281E+03</totfact>
</mgrwt>
</event>
<event>
 4    1  0.4675559E-002  0.4585511E+03  0.7818608E-02  0.1025202E+00
         21   -1    0    0  503  502  0.00000000000E+00  0.00000000000E+00  0.31777238815E+03  0.31777238815E+03  0.00000000000E+00 0. -1.
         21   -1    0    0  501  503 -0.00000000000E+00 -0.00000000000E+00 -0.10268550776E+04  0.10268550776E+04  0.00000000000E+00 0. -1.
    9000007    1    1    2  501    0  0.17706868455E+03  0.13753461417E+03 -0.75546138127E+03  0.88373694487E+03  0.40000000000E+03 0. -1.
   -9000007    1    1    2    0  502 -0.17706868455E+03 -0.13753461417E+03  0.46378691846E+02  0.46089052084E+03  0.40000000000E+03 0. -1.
<mgrwt>
<rscale>  2 0.45855108E+03</rscale>
<asrwt>0</asrwt>
<pdfrwt beam="1">  1       21 0.48888059E-01 0.45855108E+03</pdfrwt>
<pdfrwt beam="2">  1       21 0.15797771E+00 0.45855108E+03</pdfrwt>
<totfact> 0.87148743E+02</totfact>
</mgrwt>
</event>
<event>
 4    1  0.4675559E-002  0.5027952E+03  0.7818608E-02  0.1013052E+00
         21   -1    0    0  501  502  0.00000000000E+00  0.00000000000E+00  0.32793061047E+03  0.32793061047E+03  0.00000000000E+00 0. -1.
         21   -1    0    0  502  503 -0.00000000000E+00 -0.00000000000E+00 -0.80729373889E+03  0.80729373889E+03  0.00000000000E+00 0.  1.
    9000007    1    1    2  501    0 -0.29210676893E+03 -0.86467480456E+02 -0.36019235050E+03  0.61849940905E+03  0.40000000000E+03 0.  1.
   -9000007    1    1    2    0  503  0.29210676893E+03  0.86467480456E+02 -0.11917077791E+03  0.51672494031E+03  0.40000000000E+03 0. -1.
<mgrwt>
<rscale>  2 0.50279518E+03</rscale>
<asrwt>0</asrwt>
<pdfrwt beam="1">  1       21 0.50450864E-01 0.50279518E+03</pdfrwt>
<pdfrwt beam="2">  1       21 0.12419903E+00 0.50279518E+03</pdfrwt>
<totfact> 0.15208732E+03</totfact>
</mgrwt>
</event>
<event>
 4    1  0.4675559E-002  0.4415140E+03  0.7818608E-02  0.1030283E+00
         21   -1    0    0  503  502  0.00000000000E+00  0.00000000000E+00  0.24064406412E+03  0.24064406412E+03  0.00000000000E+00 0. -1.
         21   -1    0    0  501  503 -0.00000000000E+00 -0.00000000000E+00 -0.14361010416E+04  0.14361010416E+04  0.00000000000E+00 0. -1.
    9000007    1    1    2  501    0 -0.16280682927E+03 -0.91807197506E+02 -0.11512673623E+04  0.12330252084E+04  0.40000000000E+03 0. -1.
   -9000007    1    1    2    0  502  0.16280682927E+03  0.91807197506E+02 -0.44189615207E+02  0.44371989730E+03  0.40000000000E+03 0. -1.
<mgrwt>
<rscale>  2 0.44151401E+03</rscale>
<asrwt>0</asrwt>
<pdfrwt beam="1">  1       21 0.37022164E-01 0.44151401E+03</pdfrwt>
<pdfrwt beam="2">  1       21 0.22093862E+00 0.44151401E+03</pdfrwt>
<totfact> 0.57558315E+02</totfact>
</mgrwt>
</event>
<event>
 4    1  0.4675559E-002  0.5687032E+03  0.7818608E-02  0.9972552E-01
         21   -1    0    0  501  502  0.00000000000E+00  0.00000000000E+00  0.16152033827E+04  0.16152033827E+04  0.00000000000E+00 0.  1.
         21   -1    0    0  502  503 -0.00000000000E+00 -0.00000000000E+00 -0.66194036744E+03  0.66194036744E+03  0.00000000000E+00 0. -1.
    9000007    1    1    2  501    0 -0.39312362110E+03 -0.94218857732E+02  0.14275265212E+04  0.15366376748E+04  0.40000000000E+03 0.  1.
   -9000007    1    1    2    0  503  0.39312362110E+03  0.94218857732E+02 -0.47426350596E+03  0.74050607540E+03  0.40000000000E+03 0. -1.
<mgrwt>
<rscale>  2 0.56870324E+03</rscale>
<asrwt>0</asrwt>
<pdfrwt beam="1">  1       21 0.24849283E+00 0.56870324E+03</pdfrwt>
<pdfrwt beam="2">  1       21 0.10183698E+00 0.56870324E+03</pdfrwt>
<totfact> 0.38371084E+01</totfact>
</mgrwt>
</event>
<event>
 4    1  0.4675559E-002  0.4758233E+03  0.7818608E-02  0.1020289E+00
         21   -1    0    0  503  502  0.00000000000E+00  0.00000000000E+00  0.31698686233E+03  0.31698686233E+03  0.00000000000E+00 0.  1.
         21   -1    0    0  501  503 -0.00000000000E+00 -0.00000000000E+00 -0.72899193497E+03  0.72899193497E+03  0.00000000000E+00 0. -1.
    9000007    1    1    2  501    0  0.14167046971E+03  0.21526092726E+03 -0.28037503564E+03  0.55228430125E+03  0.40000000000E+03 0.  1.
   -9000007    1    1    2    0  502 -0.14167046971E+03 -0.21526092726E+03 -0.13163003699E+03  0.49369449605E+03  0.40000000000E+03 0. -1.
<mgrwt>
<rscale>  2 0.47582327E+03</rscale>
<asrwt>0</asrwt>
<pdfrwt beam="1">  1       21 0.48767210E-01 0.47582327E+03</pdfrwt>
<pdfrwt beam="2">  1       21 0.11215260E+00 0.47582327E+03</pdfrwt>
<totfact> 0.21372103E+03</totfact>
</mgrwt>
</event>
<event>
 4    1  0.4675559E-002  0.4131477E+03  0.7818608E-02  0.1039320E+00
         21   -1    0    0  503  502  0.00000000000E+00  0.00000000000E+00  0.20347385854E+03  0.20347385854E+03  0.00000000000E+00 0. -1.
         21   -1    0    0  501  503 -0.00000000000E+00 -0.00000000000E+00 -0.84822660528E+03  0.84822660528E+03  0.00000000000E+00 0. -1.
    9000007    1    1    2  501    0  0.45933554327E+01  0.10329546109E+03 -0.37756253698E+03  0.55968251761E+03  0.40000000000E+03 0. -1.
   -9000007    1    1    2    0  502 -0.45933554327E+01 -0.10329546109E+03 -0.26719020976E+03  0.49201794621E+03  0.40000000000E+03 0. -1.
<mgrwt>
<rscale>  2 0.41314774E+03</rscale>
<asrwt>0</asrwt>
<pdfrwt beam="1">  1       21 0.31303671E-01 0.41314774E+03</pdfrwt>
<pdfrwt beam="2">  1       21 0.13049640E+00 0.41314774E+03</pdfrwt>
<totfact> 0.36998580E+03</totfact>
</mgrwt>
</event>
<event>
 4    1  0.4675559E-002  0.4242603E+03  0.7818608E-02  0.1035689E+00
         21   -1    0    0  503  502  0.00000000000E+00  0.00000000000E+00  0.33700147612E+03  0.33700147612E+03  0.00000000000E+00 0.  1.
         21   -1    0    0  501  503 -0.00000000000E+00 -0.00000000000E+00 -0.53917085327E+03  0.53917085327E+03  0.00000000000E+00 0.  1.
    9000007    1    1    2  501    0 -0.13814349511E+03  0.30218565385E+02 -0.58653035214E+02  0.42829541846E+03  0.40000000000E+03 0.  1.
   -9000007    1    1    2    0  502  0.13814349511E+03 -0.30218565385E+02 -0.14351634193E+03  0.44787691092E+03  0.40000000000E+03 0.  1.
<mgrwt>
<rscale>  2 0.42426028E+03</rscale>
<asrwt>0</asrwt>
<pdfrwt beam="1">  1       21 0.51846381E-01 0.42426028E+03</pdfrwt>
<pdfrwt beam="2">  1       21 0.82949362E-01 0.42426028E+03</pdfrwt>
<totfact> 0.39525240E+03</totfact>
</mgrwt>
</event>
<event>
 4    1  0.4675559E-002  0.4452773E+03  0.7818608E-02  0.1029140E+00
         21   -1    0    0  501  502  0.00000000000E+00  0.00000000000E+00  0.29263098403E+03  0.29263098403E+03  0.00000000000E+00 0.  1.
         21   -1    0    0  502  503 -0.00000000000E+00 -0.00000000000E+00 -0.12602562888E+04  0.12602562888E+04  0.00000000000E+00 0.  1.
    9000007    1    1    2  501    0  0.11183935018E+03 -0.16051118478E+03  0.44152987807E+02  0.44746102291E+03  0.40000000000E+03 0.  1.
   -9000007    1    1    2    0  503 -0.11183935018E+03  0.16051118478E+03 -0.10117782926E+04  0.11054262499E+04  0.40000000000E+03 0.  1.
<mgrwt>
<rscale>  2 0.44527731E+03</rscale>
<asrwt>0</asrwt>
<pdfrwt beam="1">  1       21 0.45020152E-01 0.44527731E+03</pdfrwt>
<pdfrwt beam="2">  1       21 0.19388558E+00 0.44527731E+03</pdfrwt>
<totfact> 0.57719626E+02</totfact>
</mgrwt>
</event>
<event>
 4    1  0.4675559E-002  0.5372407E+03  0.7818608E-02  0.1004491E+00
         21   -1    0    0  501  502  0.00000000000E+00  0.00000000000E+00  0.48066908695E+03  0.48066908695E+03  0.00000000000E+00 0.  1.
         21   -1    0    0  502  503 -0.00000000000E+00 -0.00000000000E+00 -0.67067755810E+03  0.67067755810E+03  0.00000000000E+00 0.  1.
    9000007    1    1    2  501    0 -0.17413921676E+03  0.31353327629E+03  0.91251546676E+02  0.54493525022E+03  0.40000000000E+03 0.  1.
   -9000007    1    1    2    0  503  0.17413921676E+03 -0.31353327629E+03 -0.28126001783E+03  0.60641139484E+03  0.40000000000E+03 0.  1.
<mgrwt>
<rscale>  2 0.53724071E+03</rscale>
<asrwt>0</asrwt>
<pdfrwt beam="1">  1       21 0.73949091E-01 0.53724071E+03</pdfrwt>
<pdfrwt beam="2">  1       21 0.10318116E+00 0.53724071E+03</pdfrwt>
<totfact> 0.10298292E+03</totfact>
</mgrwt>
</event>
<event>
 4    1  0.4675559E-002  0.4996016E+03  0.7818608E-02  0.1013883E+00
         21   -1    0    0  501  502  0.00000000000E+00  0.00000000000E+00  0.11960971552E+04  0.11960971552E+04  0.00000000000E+00 0.  1.
         21   -1    0    0  502  503 -0.00000000000E+00 -0.00000000000E+00 -0.80383867556E+03  0.80383867556E+03  0.00000000000E+00 0.  1.
    9000007    1    1    2  501    0  0.28551929309E+03  0.89891337230E+02  0.10565640076E+04  0.11687297469E+04  0.40000000000E+03 0.  1.
   -9000007    1    1    2    0  503 -0.28551929309E+03 -0.89891337230E+02 -0.66430552798E+03  0.83120608379E+03  0.40000000000E+03 0.  1.
<mgrwt>
<rscale>  2 0.49960156E+03</rscale>
<asrwt>0</asrwt>
<pdfrwt beam="1">  1       21 0.18401495E+00 0.49960156E+03</pdfrwt>
<pdfrwt beam="2">  1       21 0.12366749E+00 0.49960156E+03</pdfrwt>
<totfact> 0.64364359E+01</totfact>
</mgrwt>
</event>
<event>
 4    1  0.4675559E-002  0.4367205E+03  0.7818608E-02  0.1031758E+00
         21   -1    0    0  501  502  0.00000000000E+00  0.00000000000E+00  0.11914269042E+04  0.11914269042E+04  0.00000000000E+00 0. -1.
         21   -1    0    0  502  503 -0.00000000000E+00 -0.00000000000E+00 -0.23248365299E+03  0.23248365299E+03  0.00000000000E+00 0. -1.
    9000007    1    1    2  501    0  0.42427009199E+02 -0.17007268134E+03  0.87678560884E+03  0.97952936246E+03  0.40000000000E+03 0. -1.
   -9000007    1    1    2    0  503 -0.42427009199E+02  0.17007268134E+03  0.82157642402E+02  0.44438119476E+03  0.40000000000E+03 0. -1.
<mgrwt>
<rscale>  2 0.43672047E+03</rscale>
<asrwt>0</asrwt>
<pdfrwt beam="1">  1       21 0.18329644E+00 0.43672047E+03</pdfrwt>
<pdfrwt beam="2">  1       21 0.35766717E-01 0.43672047E+03</pdfrwt>
<totfact> 0.11006366E+03</totfact>
</mgrwt>
</event>
<event>
 4    1  0.4675559E-002  0.4085312E+03  0.7818608E-02  0.1040865E+00
         21   -1    0    0  503  502  0.00000000000E+00  0.00000000000E+00  0.87866522506E+03  0.87866522506E+03  0.00000000000E+00 0. -1.
         21   -1    0    0  501  503 -0.00000000000E+00 -0.00000000000E+00 -0.19180688533E+03  0.19180688533E+03  0.00000000000E+00 0. -1.
    9000007    1    1    2  501    0  0.64411741050E+01  0.82802681500E+02  0.39616777846E+03  0.56907528630E+03  0.40000000000E+03 0. -1.
   -9000007    1    1    2    0  502 -0.64411741050E+01 -0.82802681500E+02  0.29069056127E+03  0.50139682408E+03  0.40000000000E+03 0. -1.
<mgrwt>
<rscale>  2 0.40853124E+03</rscale>
<asrwt>0</asrwt>
<pdfrwt beam="1">  1       21 0.13517926E+00 0.40853124E+03</pdfrwt>
<pdfrwt beam="2">  1       21 0.29508752E-01 0.40853124E+03</pdfrwt>
<totfact> 0.38027243E+03</totfact>
</mgrwt>
</event>
<event>
 4    1  0.4675559E-002  0.4086577E+03  0.7818608E-02  0.1040822E+00
         21   -1    0    0  501  502  0.00000000000E+00  0.00000000000E+00  0.27325334026E+03  0.27325334026E+03  0.00000000000E+00 0.  1.
         21   -1    0    0  502  503 -0.00000000000E+00 -0.00000000000E+00 -0.69346010627E+03  0.69346010627E+03  0.00000000000E+00 0.  1.
    9000007    1    1    2  501    0  0.64307047236E+02  0.53532182684E+02 -0.43585346468E+02  0.41097539261E+03  0.40000000000E+03 0.  1.
   -9000007    1    1    2    0  503 -0.64307047236E+02 -0.53532182684E+02 -0.37662141954E+03  0.55573805391E+03  0.40000000000E+03 0.  1.
<mgrwt>
<rscale>  2 0.40865767E+03</rscale>
<asrwt>0</asrwt>
<pdfrwt beam="1">  1       21 0.42038976E-01 0.40865767E+03</pdfrwt>
<pdfrwt beam="2">  1       21 0.10668617E+00 0.40865767E+03</pdfrwt>
<totfact> 0.33855037E+03</totfact>
</mgrwt>
</event>
<event>
 4    1  0.4675559E-002  0.4223109E+03  0.7818608E-02  0.1036317E+00
         21   -1    0    0  501  502  0.00000000000E+00  0.00000000000E+00  0.16917162379E+04  0.16917162379E+04  0.00000000000E+00 0.  1.
         21   -1    0    0  502  503 -0.00000000000E+00 -0.00000000000E+00 -0.14579375201E+03  0.14579375201E+03  0.00000000000E+00 0.  1.
    9000007    1    1    2  501    0 -0.10333792493E+03 -0.87566039081E+02  0.12564221174E+04  0.13254972935E+04  0.40000000000E+03 0.  1.
   -9000007    1    1    2    0  503  0.10333792493E+03  0.87566039081E+02  0.28950036843E+03  0.51201269637E+03  0.40000000000E+03 0.  1.
<mgrwt>
<rscale>  2 0.42231095E+03</rscale>
<asrwt>0</asrwt>
<pdfrwt beam="1">  1       21 0.26026402E+00 0.42231095E+03</pdfrwt>
<pdfrwt beam="2">  1       21 0.22429809E-01 0.42231095E+03</pdfrwt>
<totfact> 0.89287543E+02</totfact>
</mgrwt>
</event>
<event>
 4    1  0.4675559E-002  0.4590299E+03  0.7818608E-02  0.1025063E+00
         21   -1    0    0  503  502  0.00000000000E+00  0.00000000000E+00  0.11003593422E+03  0.11003593422E+03  0.00000000000E+00 0. -1.
         21   -1    0    0  501  503 -0.00000000000E+00 -0.00000000000E+00 -0.21168142386E+04  0.21168142386E+04  0.00000000000E+00 0. -1.
    9000007    1    1    2  501    0  0.22453604125E+03  0.17087410154E+02 -0.13472614634E+04  0.14233136915E+04  0.40000000000E+03 0. -1.
   -9000007    1    1    2    0  502 -0.22453604125E+03 -0.17087410154E+02 -0.65951684097E+03  0.80353648139E+03  0.40000000000E+03 0. -1.
<mgrwt>
<rscale>  2 0.45902986E+03</rscale>
<asrwt>0</asrwt>
<pdfrwt beam="1">  1       21 0.16928608E-01 0.45902986E+03</pdfrwt>
<pdfrwt beam="2">  1       21 0.32566368E+00 0.45902986E+03</pdfrwt>
<totfact> 0.60223698E+02</totfact>
</mgrwt>
</event>
<event>
 4    1  0.4675559E-002  0.4092879E+03  0.7818608E-02  0.1040610E+00
         21   -1    0    0  501  502  0.00000000000E+00  0.00000000000E+00  0.11690624754E+04  0.11690624754E+04  0.00000000000E+00 0. -1.
         21   -1    0    0  502  503 -0.00000000000E+00 -0.00000000000E+00 -0.30566543901E+03  0.30566543901E+03  0.00000000000E+00 0. -1.
    9000007    1    1    2  501    0 -0.85562004078E+02  0.13989561058E+02  0.96912253810E+03  0.10520052558E+04  0.40000000000E+03 0. -1.
   -9000007    1    1    2    0  503  0.85562004078E+02 -0.13989561058E+02 -0.10572550174E+03  0.42272265858E+03  0.40000000000E+03 0. -1.
<mgrwt>
<rscale>  2 0.40928787E+03</rscale>
<asrwt>0</asrwt>
<pdfrwt beam="1">  1       21 0.17985576E+00 0.40928787E+03</pdfrwt>
<pdfrwt beam="2">  1       21 0.47025453E-01 0.40928787E+03</pdfrwt>
<totfact> 0.66992641E+02</totfact>
</mgrwt>
</event>
<event>
 4    1  0.4675559E-002  0.5718849E+03  0.7818608E-02  0.9965516E-01
         21   -1    0    0  503  502  0.00000000000E+00  0.00000000000E+00  0.20338699119E+03  0.20338699119E+03  0.00000000000E+00 0.  1.
         21   -1    0    0  501  503 -0.00000000000E+00 -0.00000000000E+00 -0.17438697347E+04  0.17438697347E+04  0.00000000000E+00 0.  1.
    9000007    1    1    2  501    0 -0.39859086180E+03  0.90430680812E+02 -0.10419788941E+04  0.11886010260E+04  0.40000000000E+03 0.  1.
   -9000007    1    1    2    0  502  0.39859086180E+03 -0.90430680812E+02 -0.49850384936E+03  0.75865569989E+03  0.40000000000E+03 0.  1.
<mgrwt>
<rscale>  2 0.57188494E+03</rscale>
<asrwt>0</asrwt>
<pdfrwt beam="1">  1       21 0.31290307E-01 0.57188494E+03</pdfrwt>
<pdfrwt beam="2">  1       21 0.26828765E+00 0.57188494E+03</pdfrwt>
<totfact> 0.38614857E+02</totfact>
</mgrwt>
</event>
<event>
 4    1  0.4675559E-002  0.4358557E+03  0.7818608E-02  0.1032026E+00
         21   -1    0    0  503  502  0.00000000000E+00  0.00000000000E+00  0.25855463877E+03  0.25855463877E+03  0.00000000000E+00 0. -1.
         21   -1    0    0  501  503 -0.00000000000E+00 -0.00000000000E+00 -0.11736847899E+04  0.11736847899E+04  0.00000000000E+00 0. -1.
    9000007    1    1    2  501    0 -0.17288747374E+03  0.89523909859E+01 -0.89550571210E+03  0.99594211894E+03  0.40000000000E+03 0. -1.
   -9000007    1    1    2    0  502  0.17288747374E+03 -0.89523909859E+01 -0.19624439055E+02  0.43629730974E+03  0.40000000000E+03 0. -1.
<mgrwt>
<rscale>  2 0.43585574E+03</rscale>
<asrwt>0</asrwt>
<pdfrwt beam="1">  1       21 0.39777637E-01 0.43585574E+03</pdfrwt>
<pdfrwt beam="2">  1       21 0.18056689E+00 0.43585574E+03</pdfrwt>
<totfact> 0.92612476E+02</totfact>
</mgrwt>
</event>
<event>
 4    1  0.4675559E-002  0.4292364E+03  0.7818608E-02  0.1034101E+00
         21   -1    0    0  501  502  0.00000000000E+00  0.00000000000E+00  0.25623317609E+03  0.25623317609E+03  0.00000000000E+00 0. -1.
         21   -1    0    0  502  503 -0.00000000000E+00 -0.00000000000E+00 -0.88539428305E+03  0.88539428305E+03  0.00000000000E+00 0. -1.
    9000007    1    1    2  501    0 -0.15567688610E+03  0.29379147009E+01 -0.67161722833E+02  0.43445899832E+03  0.40000000000E+03 0. -1.
   -9000007    1    1    2    0  503  0.15567688610E+03 -0.29379147009E+01 -0.56199938413E+03  0.70716846082E+03  0.40000000000E+03 0. -1.
<mgrwt>
<rscale>  2 0.42923644E+03</rscale>
<asrwt>0</asrwt>
<pdfrwt beam="1">  1       21 0.39420489E-01 0.42923644E+03</pdfrwt>
<pdfrwt beam="2">  1       21 0.13621450E+00 0.42923644E+03</pdfrwt>
<totfact> 0.20626619E+03</totfact>
</mgrwt>
</event>
<event>
 4    1  0.4675559E-002  0.4847611E+03  0.7818608E-02  0.1017835E+00
         21   -1    0    0  503  502  0.00000000000E+00  0.00000000000E+00  0.42470449796E+03  0.42470449796E+03  0.00000000000E+00 0.  1.
         21   -1    0    0  501  503 -0.00000000000E+00 -0.00000000000E+00 -0.13534024437E+04  0.13534024437E+04  0.00000000000E+00 0. -1.
    9000007    1    1    2  501    0  0.25929822642E+03  0.88077888519E+02 -0.11479212846E+04  0.12460804790E+04  0.40000000000E+03 0. -1.
   -9000007    1    1    2    0  502 -0.25929822642E+03 -0.88077888519E+02  0.21922333882E+03  0.53202646264E+03  0.40000000000E+03 0.  1.
<mgrwt>
<rscale>  2 0.48476106E+03</rscale>
<asrwt>0</asrwt>
<pdfrwt beam="1">  1       21 0.65339154E-01 0.48476106E+03</pdfrwt>
<pdfrwt beam="2">  1       21 0.20821576E+00 0.48476106E+03</pdfrwt>
<totfact> 0.20334524E+02</totfact>
</mgrwt>
</event>
<event>
 4    1  0.4675559E-002  0.4906288E+03  0.7818608E-02  0.1016254E+00
         21   -1    0    0  503  502  0.00000000000E+00  0.00000000000E+00  0.23392136127E+03  0.23392136127E+03  0.00000000000E+00 0. -1.
         21   -1    0    0  501  503 -0.00000000000E+00 -0.00000000000E+00 -0.11555775204E+04  0.11555775204E+04  0.00000000000E+00 0. -1.
    9000007    1    1    2  501    0  0.26914692752E+03  0.90975324055E+02 -0.69071942364E+03  0.84723662596E+03  0.40000000000E+03 0. -1.
   -9000007    1    1    2    0  502 -0.26914692752E+03 -0.90975324055E+02 -0.23093673552E+03  0.54226225573E+03  0.40000000000E+03 0. -1.
<mgrwt>
<rscale>  2 0.49062876E+03</rscale>
<asrwt>0</asrwt>
<pdfrwt beam="1">  1       21 0.35987901E-01 0.49062876E+03</pdfrwt>
<pdfrwt beam="2">  1       21 0.17778116E+00 0.49062876E+03</pdfrwt>
<totfact> 0.11614761E+03</totfact>
</mgrwt>
</event>
<event>
 4    1  0.4675559E-002  0.5230163E+03  0.7818608E-02  0.1007940E+00
         21   -1    0    0  501  502  0.00000000000E+00  0.00000000000E+00  0.70311088057E+03  0.70311088057E+03  0.00000000000E+00 0.  1.
         21   -1    0    0  502  503 -0.00000000000E+00 -0.00000000000E+00 -0.13010148927E+04  0.13010148927E+04  0.00000000000E+00 0.  1.
    9000007    1    1    2  501    0  0.33002075974E+03  0.68061586829E+02  0.54001065938E+03  0.75176964138E+03  0.40000000000E+03 0.  1.
   -9000007    1    1    2    0  503 -0.33002075974E+03 -0.68061586829E+02 -0.11379146715E+04  0.12523561319E+04  0.40000000000E+03 0.  1.
<mgrwt>
<rscale>  2 0.52301633E+03</rscale>
<asrwt>0</asrwt>
<pdfrwt beam="1">  1       21 0.10817091E+00 0.52301633E+03</pdfrwt>
<pdfrwt beam="2">  1       21 0.20015614E+00 0.52301633E+03</pdfrwt>
<totfact> 0.69127902E+01</totfact>
</mgrwt>
</event>
<event>
 4    1  0.4675559E-002  0.4497439E+03  0.7818608E-02  0.1027798E+00
         21   -1    0    0  501  502  0.00000000000E+00  0.00000000000E+00  0.53379030411E+03  0.53379030411E+03  0.00000000000E+00 0. -1.
         21   -1    0    0  502  503 -0.00000000000E+00 -0.00000000000E+00 -0.60865459257E+03  0.60865459257E+03  0.00000000000E+00 0. -1.
    9000007    1    1    2  501    0  0.22322266320E+02  0.20438021935E+03  0.31349976197E+03  0.54822591911E+03  0.40000000000E+03 0. -1.
   -9000007    1    1    2    0  503 -0.22322266320E+02 -0.20438021935E+03 -0.38836405043E+03  0.59421897757E+03  0.40000000000E+03 0. -1.
<mgrwt>
<rscale>  2 0.44974388E+03</rscale>
<asrwt>0</asrwt>
<pdfrwt beam="1">  1       21 0.82121586E-01 0.44974388E+03</pdfrwt>
<pdfrwt beam="2">  1       21 0.93639167E-01 0.44974388E+03</pdfrwt>
<totfact> 0.10574679E+03</totfact>
</mgrwt>
</event>
<event>
 4    1  0.4675559E-002  0.4213266E+03  0.7818608E-02  0.1036635E+00
         21   -1    0    0  501  502  0.00000000000E+00  0.00000000000E+00  0.48092895256E+03  0.48092895256E+03  0.00000000000E+00 0. -1.
         21   -1    0    0  502  503 -0.00000000000E+00 -0.00000000000E+00 -0.43682126626E+03  0.43682126626E+03  0.00000000000E+00 0. -1.
    9000007    1    1    2  501    0  0.13051022174E+03 -0.21981697834E+02  0.20271726533E+03  0.46755791372E+03  0.40000000000E+03 0. -1.
   -9000007    1    1    2    0  503 -0.13051022174E+03  0.21981697834E+02 -0.15860957903E+03  0.45019230511E+03  0.40000000000E+03 0. -1.
<mgrwt>
<rscale>  2 0.42132661E+03</rscale>
<asrwt>0</asrwt>
<pdfrwt beam="1">  1       21 0.73989069E-01 0.42132661E+03</pdfrwt>
<pdfrwt beam="2">  1       21 0.67203272E-01 0.42132661E+03</pdfrwt>
<totfact> 0.29205262E+03</totfact>
</mgrwt>
</event>
<event>
 4    1  0.4675559E-002  0.4082593E+03  0.7818608E-02  0.1040957E+00
         21   -1    0    0  503  502  0.00000000000E+00  0.00000000000E+00  0.99131869002E+02  0.99131869002E+02  0.00000000000E+00 0. -1.
         21   -1    0    0  501  503 -0.00000000000E+00 -0.00000000000E+00 -0.18845509870E+04  0.18845509870E+04  0.00000000000E+00 0. -1.
    9000007    1    1    2  501    0  0.81219455236E+01  0.81300110613E+02 -0.12183946708E+04  0.12849751934E+04  0.40000000000E+03 0.  1.
   -9000007    1    1    2    0  502 -0.81219455236E+01 -0.81300110613E+02 -0.56702444727E+03  0.69870766261E+03  0.40000000000E+03 0.  1.
<mgrwt>
<rscale>  2 0.40825932E+03</rscale>
<asrwt>0</asrwt>
<pdfrwt beam="1">  1       21 0.15251057E-01 0.40825932E+03</pdfrwt>
<pdfrwt beam="2">  1       21 0.28993092E+00 0.40825932E+03</pdfrwt>
<totfact> 0.12348843E+03</totfact>
</mgrwt>
</event>
<event>
 4    1  0.4675559E-002  0.4010272E+03  0.7818608E-02  0.1043425E+00
         21   -1    0    0  501  502  0.00000000000E+00  0.00000000000E+00  0.67476210352E+03  0.67476210352E+03  0.00000000000E+00 0.  1.
         21   -1    0    0  502  503 -0.00000000000E+00 -0.00000000000E+00 -0.23871495839E+03  0.23871495839E+03  0.00000000000E+00 0.  1.
    9000007    1    1    2  501    0  0.60851024638E+01  0.28031758151E+02  0.19992216504E+03  0.44809784647E+03  0.40000000000E+03 0. -1.
   -9000007    1    1    2    0  503 -0.60851024638E+01 -0.28031758151E+02  0.23612498009E+03  0.46537921544E+03  0.40000000000E+03 0. -1.
<mgrwt>
<rscale>  2 0.40102719E+03</rscale>
<asrwt>0</asrwt>
<pdfrwt beam="1">  1       21 0.10380955E+00 0.40102719E+03</pdfrwt>
<pdfrwt beam="2">  1       21 0.36725379E-01 0.40102719E+03</pdfrwt>
<totfact> 0.47906263E+03</totfact>
</mgrwt>
</event>
<event>
 4    1  0.4675559E-002  0.6060767E+03  0.7818608E-02  0.9892878E-01
         21   -1    0    0  503  502  0.00000000000E+00  0.00000000000E+00  0.61524804608E+03  0.61524804608E+03  0.00000000000E+00 0.  1.
         21   -1    0    0  501  503 -0.00000000000E+00 -0.00000000000E+00 -0.83454782912E+03  0.83454782912E+03  0.00000000000E+00 0.  1.
    9000007    1    1    2  501    0 -0.43658581828E+03  0.12931287083E+03 -0.49636245243E+03  0.78339305554E+03  0.40000000000E+03 0.  1.
   -9000007    1    1    2    0  502  0.43658581828E+03 -0.12931287083E+03  0.27706266939E+03  0.66640281966E+03  0.40000000000E+03 0.  1.
<mgrwt>
<rscale>  2 0.60607672E+03</rscale>
<asrwt>0</asrwt>
<pdfrwt beam="1">  1       21 0.94653546E-01 0.60607672E+03</pdfrwt>
<pdfrwt beam="2">  1       21 0.12839197E+00 0.60607672E+03</pdfrwt>
<totfact> 0.32412480E+02</totfact>
</mgrwt>
</event>
<event>
 4    1  0.4675559E-002  0.4776855E+03  0.7818608E-02  0.1019773E+00
         21   -1    0    0  503  502  0.00000000000E+00  0.00000000000E+00  0.12047352022E+04  0.12047352022E+04  0.00000000000E+00 0.  1.
         21   -1    0    0  501  503 -0.00000000000E+00 -0.00000000000E+00 -0.25229099683E+03  0.25229099683E+03  0.00000000000E+00 0.  1.
    9000007    1    1    2  501    0  0.20844292204E+03 -0.15727373416E+03  0.11250667712E+03  0.49075577592E+03  0.40000000000E+03 0.  1.
   -9000007    1    1    2    0  502 -0.20844292204E+03  0.15727373416E+03  0.83993752821E+03  0.96627042307E+03  0.40000000000E+03 0.  1.
<mgrwt>
<rscale>  2 0.47768554E+03</rscale>
<asrwt>0</asrwt>
<pdfrwt beam="1">  1       21 0.18534387E+00 0.47768554E+03</pdfrwt>
<pdfrwt beam="2">  1       21 0.38814000E-01 0.47768554E+03</pdfrwt>
<totfact> 0.88521627E+02</totfact>
</mgrwt>
</event>
<event>
 4    1  0.4675559E-002  0.4649715E+03  0.7818608E-02  0.1023349E+00
         21   -1    0    0  501  502  0.00000000000E+00  0.00000000000E+00  0.96468221204E+02  0.96468221204E+02  0.00000000000E+00 0. -1.
         21   -1    0    0  502  503 -0.00000000000E+00 -0.00000000000E+00 -0.23701702425E+04  0.23701702425E+04  0.00000000000E+00 0.  1.
    9000007    1    1    2  501    0 -0.14274588199E+03 -0.18926730838E+03 -0.14246150503E+04  0.14985748371E+04  0.40000000000E+03 0.  1.
   -9000007    1    1    2    0  503  0.14274588199E+03  0.18926730838E+03 -0.84908697100E+03  0.96806362661E+03  0.40000000000E+03 0. -1.
<mgrwt>
<rscale>  2 0.46497151E+03</rscale>
<asrwt>0</asrwt>
<pdfrwt beam="1">  1       21 0.14841266E-01 0.46497151E+03</pdfrwt>
<pdfrwt beam="2">  1       21 0.36464154E+00 0.46497151E+03</pdfrwt>
<totfact> 0.44259515E+02</totfact>
</mgrwt>
</event>
<event>
 4    1  0.4675559E-002  0.4185500E+03  0.7818608E-02  0.1037539E+00
         21   -1    0    0  503  502  0.00000000000E+00  0.00000000000E+00  0.37520631779E+03  0.37520631779E+03  0.00000000000E+00 0.  1.
         21   -1    0    0  501  503 -0.00000000000E+00 -0.00000000000E+00 -0.52957739437E+03  0.52957739437E+03  0.00000000000E+00 0.  1.
    9000007    1    1    2  501    0 -0.47088273910E+02  0.11387173317E+03 -0.23281909465E+03  0.47894551672E+03  0.40000000000E+03 0.  1.
   -9000007    1    1    2    0  502  0.47088273910E+02 -0.11387173317E+03  0.78448018080E+02  0.42583819544E+03  0.40000000000E+03 0.  1.
<mgrwt>
<rscale>  2 0.41854997E+03</rscale>
<asrwt>0</asrwt>
<pdfrwt beam="1">  1       21 0.57724050E-01 0.41854997E+03</pdfrwt>
<pdfrwt beam="2">  1       21 0.81473444E-01 0.41854997E+03</pdfrwt>
<totfact> 0.32764833E+03</totfact>
</mgrwt>
</event>
<event>
 4    1  0.4675559E-002  0.4621861E+03  0.7818608E-02  0.1024149E+00
         21   -1    0    0  501  502  0.00000000000E+00  0.00000000000E+00  0.32235016275E+03  0.32235016275E+03  0.00000000000E+00 0. -1.
         21   -1    0    0  502  503 -0.00000000000E+00 -0.00000000000E+00 -0.67187734210E+03  0.67187734210E+03  0.00000000000E+00 0.  1.
    9000007    1    1    2  501    0 -0.22041466633E+03 -0.70945980563E+02 -0.11661057235E+03  0.47666967900E+03  0.40000000000E+03 0. -1.
   -9000007    1    1    2    0  503  0.22041466633E+03  0.70945980563E+02 -0.23291660700E+03  0.51755782586E+03  0.40000000000E+03 0.  1.
<mgrwt>
<rscale>  2 0.46218606E+03</rscale>
<asrwt>0</asrwt>
<pdfrwt beam="1">  1       21 0.49592332E-01 0.46218606E+03</pdfrwt>
<pdfrwt beam="2">  1       21 0.10336575E+00 0.46218606E+03</pdfrwt>
<totfact> 0.25362175E+03</totfact>
</mgrwt>
</event>
<event>
 4    1  0.4675559E-002  0.4421099E+03  0.7818608E-02  0.1030101E+00
         21   -1    0    0  503  502  0.00000000000E+00  0.00000000000E+00  0.32074157488E+03  0.32074157488E+03  0.00000000000E+00 0.  1.
         21   -1    0    0  501  503 -0.00000000000E+00 -0.00000000000E+00 -0.61165598796E+03  0.61165598796E+03  0.00000000000E+00 0.  1.
    9000007    1    1    2  501    0  0.11157802849E+03 -0.15169554054E+03 -0.17374519870E+03  0.47502482834E+03  0.40000000000E+03 0.  1.
   -9000007    1    1    2    0  502 -0.11157802849E+03  0.15169554054E+03 -0.11716921438E+03  0.45737273450E+03  0.40000000000E+03 0.  1.
<mgrwt>
<rscale>  2 0.44210993E+03</rscale>
<asrwt>0</asrwt>
<pdfrwt beam="1">  1       21 0.49344857E-01 0.44210993E+03</pdfrwt>
<pdfrwt beam="2">  1       21 0.94100922E-01 0.44210993E+03</pdfrwt>
<totfact> 0.32410758E+03</totfact>
</mgrwt>
</event>
<event>
 4    1  0.4675559E-002  0.4241879E+03  0.7818608E-02  0.1035712E+00
         21   -1    0    0  501  502  0.00000000000E+00  0.00000000000E+00  0.36905230652E+03  0.36905230652E+03  0.00000000000E+00 0. -1.
         21   -1    0    0  502  503 -0.00000000000E+00 -0.00000000000E+00 -0.51819488554E+03  0.51819488554E+03  0.00000000000E+00 0. -1.
    9000007    1    1    2  501    0  0.10019523820E+02 -0.14083662900E+03 -0.18243423673E+03  0.46175491081E+03  0.40000000000E+03 0. -1.
   -9000007    1    1    2    0  503 -0.10019523820E+02  0.14083662900E+03  0.33291657707E+02  0.42549228124E+03  0.40000000000E+03 0. -1.
<mgrwt>
<rscale>  2 0.42418787E+03</rscale>
<asrwt>0</asrwt>
<pdfrwt beam="1">  1       21 0.56777278E-01 0.42418787E+03</pdfrwt>
<pdfrwt beam="2">  1       21 0.79722290E-01 0.42418787E+03</pdfrwt>
<totfact> 0.35636008E+03</totfact>
</mgrwt>
</event>
<event>
 4    1  0.4675559E-002  0.4284928E+03  0.7818608E-02  0.1034337E+00
         21   -1    0    0  503  502  0.00000000000E+00  0.00000000000E+00  0.60794967720E+03  0.60794967720E+03  0.00000000000E+00 0. -1.
         21   -1    0    0  501  503 -0.00000000000E+00 -0.00000000000E+00 -0.30474456696E+03  0.30474456696E+03  0.00000000000E+00 0. -1.
    9000007    1    1    2  501    0  0.25585573827E+02  0.15149744698E+03  0.19484139051E+03  0.47071144609E+03  0.40000000000E+03 0. -1.
   -9000007    1    1    2    0  502 -0.25585573827E+02 -0.15149744698E+03  0.10836371974E+03  0.44198279806E+03  0.40000000000E+03 0. -1.
<mgrwt>
<rscale>  2 0.42849282E+03</rscale>
<asrwt>0</asrwt>
<pdfrwt beam="1">  1       21 0.93530719E-01 0.42849282E+03</pdfrwt>
<pdfrwt beam="2">  1       21 0.46883780E-01 0.42849282E+03</pdfrwt>
<totfact> 0.36820319E+03</totfact>
</mgrwt>
</event>
<event>
 4    1  0.4675559E-002  0.4267483E+03  0.7818608E-02  0.1034892E+00
         21   -1    0    0  501  502  0.00000000000E+00  0.00000000000E+00  0.51790437067E+03  0.51790437067E+03  0.00000000000E+00 0.  1.
         21   -1    0    0  502  503 -0.00000000000E+00 -0.00000000000E+00 -0.65879735204E+03  0.65879735204E+03  0.00000000000E+00 0.  1.
    9000007    1    1    2  501    0  0.10566594499E+03  0.10463680155E+03  0.33129187157E+03  0.54024851350E+03  0.40000000000E+03 0.  1.
   -9000007    1    1    2    0  503 -0.10566594499E+03 -0.10463680155E+03 -0.47218485294E+03  0.63645320921E+03  0.40000000000E+03 0.  1.
<mgrwt>
<rscale>  2 0.42674835E+03</rscale>
<asrwt>0</asrwt>
<pdfrwt beam="1">  1       21 0.79677595E-01 0.42674835E+03</pdfrwt>
<pdfrwt beam="2">  1       21 0.10135344E+00 0.42674835E+03</pdfrwt>
<totfact> 0.94616074E+02</totfact>
</mgrwt>
</event>
<event>
 4    1  0.4675559E-002  0.4793932E+03  0.7818608E-02  0.1019302E+00
         21   -1    0    0  501  502  0.00000000000E+00  0.00000000000E+00  0.37243619033E+03  0.37243619033E+03  0.00000000000E+00 0.  1.
         21   -1    0    0  502  503 -0.00000000000E+00 -0.00000000000E+00 -0.11538802934E+04  0.11538802934E+04  0.00000000000E+00 0.  1.
    9000007    1    1    2  501    0 -0.10416680338E+03  0.24283146948E+03  0.12980836166E+03  0.49665687980E+03  0.40000000000E+03 0.  1.
   -9000007    1    1    2    0  503  0.10416680338E+03 -0.24283146948E+03 -0.91125246473E+03  0.10296596039E+04  0.40000000000E+03 0.  1.
<mgrwt>
<rscale>  2 0.47939321E+03</rscale>
<asrwt>0</asrwt>
<pdfrwt beam="1">  1       21 0.57297878E-01 0.47939321E+03</pdfrwt>
<pdfrwt beam="2">  1       21 0.17752004E+00 0.47939321E+03</pdfrwt>
<totfact> 0.44092303E+02</totfact>
</mgrwt>
</event>
<event>
 4    1  0.4675559E-002  0.8432261E+03  0.7818608E-02  0.9499474E-01
         21   -1    0    0  503  502  0.00000000000E+00  0.00000000000E+00  0.31274001030E+04  0.31274001030E+04  0.00000000000E+00 0. -1.
         21   -1    0    0  501  503 -0.00000000000E+00 -0.00000000000E+00 -0.94929063782E+03  0.94929063782E+03  0.00000000000E+00 0. -1.
    9000007    1    1    2  501    0  0.60134639743E+03 -0.43521567893E+03 -0.68851808613E+03  0.10886171649E+04  0.40000000000E+03 0. -1.
   -9000007    1    1    2    0  502 -0.60134639743E+03  0.43521567893E+03  0.28666275513E+04  0.29880735759E+04  0.40000000000E+03 0. -1.
<mgrwt>
<rscale>  2 0.84322605E+03</rscale>
<asrwt>0</asrwt>
<pdfrwt beam="1">  1       21 0.48113847E+00 0.84322605E+03</pdfrwt>
<pdfrwt beam="2">  1       21 0.14604471E+00 0.84322605E+03</pdfrwt>
<totfact> 0.42293747E-01</totfact>
</mgrwt>
</event>
<event>
 4    1  0.4675559E-002  0.5330073E+03  0.7818608E-02  0.1005505E+00
         21   -1    0    0  501  502  0.00000000000E+00  0.00000000000E+00  0.20960407904E+03  0.20960407904E+03  0.00000000000E+00 0. -1.
         21   -1    0    0  502  503 -0.00000000000E+00 -0.00000000000E+00 -0.14138102435E+04  0.14138102435E+04  0.00000000000E+00 0.  1.
    9000007    1    1    2  501    0  0.35226325022E+03  0.27201609072E+01 -0.43711276074E+03  0.68932166826E+03  0.40000000000E+03 0. -1.
   -9000007    1    1    2    0  503 -0.35226325022E+03 -0.27201609072E+01 -0.76709340368E+03  0.93409265424E+03  0.40000000000E+03 0. -1.
<mgrwt>
<rscale>  2 0.53300731E+03</rscale>
<asrwt>0</asrwt>
<pdfrwt beam="1">  1       21 0.32246781E-01 0.53300731E+03</pdfrwt>
<pdfrwt beam="2">  1       21 0.21750927E+00 0.53300731E+03</pdfrwt>
<totfact> 0.76827447E+02</totfact>
</mgrwt>
</event>
<event>
 4    1  0.4675559E-002  0.4334639E+03  0.7818608E-02  0.1032771E+00
         21   -1    0    0  503  502  0.00000000000E+00  0.00000000000E+00  0.14231161149E+04  0.14231161149E+04  0.00000000000E+00 0.  1.
         21   -1    0    0  501  503 -0.00000000000E+00 -0.00000000000E+00 -0.14455088468E+03  0.14455088468E+03  0.00000000000E+00 0.  1.
    9000007    1    1    2  501    0  0.14702481287E+03 -0.79212656113E+02  0.40857151791E+03  0.59566905723E+03  0.40000000000E+03 0.  1.
   -9000007    1    1    2    0  502 -0.14702481287E+03  0.79212656113E+02  0.86999371232E+03  0.97199794237E+03  0.40000000000E+03 0.  1.
<mgrwt>
<rscale>  2 0.43346389E+03</rscale>
<asrwt>0</asrwt>
<pdfrwt beam="1">  1       21 0.21894093E+00 0.43346389E+03</pdfrwt>
<pdfrwt beam="2">  1       21 0.22238599E-01 0.43346389E+03</pdfrwt>
<totfact> 0.16296183E+03</totfact>
</mgrwt>
</event>
<event>
 4    1  0.4675559E-002  0.4859075E+03  0.7818608E-02  0.1017524E+00
         21   -1    0    0  503  502  0.00000000000E+00  0.00000000000E+00  0.61732424229E+03  0.61732424229E+03  0.00000000000E+00 0.  1.
         21   -1    0    0  501  503 -0.00000000000E+00 -0.00000000000E+00 -0.73468246351E+03  0.73468246351E+03  0.00000000000E+00 0.  1.
    9000007    1    1    2  501    0 -0.23617717212E+02  0.27486044716E+03 -0.52674103262E+03  0.71663252607E+03  0.40000000000E+03 0.  1.
   -9000007    1    1    2    0  502  0.23617717212E+02 -0.27486044716E+03  0.40938281141E+03  0.63537417972E+03  0.40000000000E+03 0.  1.
<mgrwt>
<rscale>  2 0.48590746E+03</rscale>
<asrwt>0</asrwt>
<pdfrwt beam="1">  1       21 0.94972961E-01 0.48590746E+03</pdfrwt>
<pdfrwt beam="2">  1       21 0.11302807E+00 0.48590746E+03</pdfrwt>
<totfact> 0.46613880E+02</totfact>
</mgrwt>
</event>
<event>
 4    1  0.4675559E-002  0.4267002E+03  0.7818608E-02  0.1034907E+00
         21   -1    0    0  503  502  0.00000000000E+00  0.00000000000E+00  0.53282868467E+03  0.53282868467E+03  0.00000000000E+00 0.  1.
         21   -1    0    0  501  503 -0.00000000000E+00 -0.00000000000E+00 -0.45813461983E+03  0.45813461983E+03  0.00000000000E+00 0. -1.
    9000007    1    1    2  501    0  0.13878534884E+03 -0.53025175266E+02 -0.21243023045E+03  0.47665463920E+03  0.40000000000E+03 0. -1.
   -9000007    1    1    2    0  502 -0.13878534884E+03  0.53025175266E+02  0.28712429528E+03  0.51430866530E+03  0.40000000000E+03 0.  1.
<mgrwt>
<rscale>  2 0.42670018E+03</rscale>
<asrwt>0</asrwt>
<pdfrwt beam="1">  1       21 0.81973644E-01 0.42670018E+03</pdfrwt>
<pdfrwt beam="2">  1       21 0.70482249E-01 0.42670018E+03</pdfrwt>
<totfact> 0.20703476E+03</totfact>
</mgrwt>
</event>
<event>
 4    1  0.4675559E-002  0.5059602E+03  0.7818608E-02  0.1012235E+00
         21   -1    0    0  503  502  0.00000000000E+00  0.00000000000E+00  0.74919473842E+03  0.74919473842E+03  0.00000000000E+00 0. -1.
         21   -1    0    0  501  503 -0.00000000000E+00 -0.00000000000E+00 -0.70510489708E+03  0.70510489708E+03  0.00000000000E+00 0.  1.
    9000007    1    1    2  501    0 -0.50821594064E+02  0.30563524592E+03 -0.49998535988E+03  0.71132348342E+03  0.40000000000E+03 0.  1.
   -9000007    1    1    2    0  502  0.50821594064E+02 -0.30563524592E+03  0.54407520122E+03  0.74297615208E+03  0.40000000000E+03 0. -1.
<mgrwt>
<rscale>  2 0.50596021E+03</rscale>
<asrwt>0</asrwt>
<pdfrwt beam="1">  1       21 0.11526073E+00 0.50596021E+03</pdfrwt>
<pdfrwt beam="2">  1       21 0.10847768E+00 0.50596021E+03</pdfrwt>
<totfact> 0.31796759E+02</totfact>
</mgrwt>
</event>
<event>
 4    1  0.4675559E-002  0.4131628E+03  0.7818608E-02  0.1039315E+00
         21   -1    0    0  503  502  0.00000000000E+00  0.00000000000E+00  0.17857503457E+04  0.17857503457E+04  0.00000000000E+00 0.  1.
         21   -1    0    0  501  503 -0.00000000000E+00 -0.00000000000E+00 -0.26477043367E+03  0.26477043367E+03  0.00000000000E+00 0.  1.
    9000007    1    1    2  501    0 -0.93143429702E+02 -0.45031349636E+02 -0.59053302866E+02  0.41736172983E+03  0.40000000000E+03 0.  1.
   -9000007    1    1    2    0  502  0.93143429702E+02  0.45031349636E+02  0.15800332149E+04  0.16331590495E+04  0.40000000000E+03 0.  1.
<mgrwt>
<rscale>  2 0.41316283E+03</rscale>
<asrwt>0</asrwt>
<pdfrwt beam="1">  1       21 0.27473081E+00 0.41316283E+03</pdfrwt>
<pdfrwt beam="2">  1       21 0.40733914E-01 0.41316283E+03</pdfrwt>
<totfact> 0.22427381E+02</totfact>
</mgrwt>
</event>
<event>
 4    1  0.4675559E-002  0.4425022E+03  0.7818608E-02  0.1029982E+00
         21   -1    0    0  501  502  0.00000000000E+00  0.00000000000E+00  0.22216666386E+03  0.22216666386E+03  0.00000000000E+00 0.  1.
         21   -1    0    0  502  503 -0.00000000000E+00 -0.00000000000E+00 -0.93468704352E+03  0.93468704352E+03  0.00000000000E+00 0.  1.
    9000007    1    1    2  501    0  0.35664684809E+02 -0.18583925548E+03 -0.21809446797E+03  0.49332889190E+03  0.40000000000E+03 0.  1.
   -9000007    1    1    2    0  503 -0.35664684809E+02  0.18583925548E+03 -0.49442591169E+03  0.66352481549E+03  0.40000000000E+03 0.  1.
<mgrwt>
<rscale>  2 0.44250220E+03</rscale>
<asrwt>0</asrwt>
<pdfrwt beam="1">  1       21 0.34179487E-01 0.44250220E+03</pdfrwt>
<pdfrwt beam="2">  1       21 0.14379800E+00 0.44250220E+03</pdfrwt>
<totfact> 0.23749216E+03</totfact>
</mgrwt>
</event>
<event>
 4    1  0.4675559E-002  0.4447180E+03  0.7818608E-02  0.1029309E+00
         21   -1    0    0  501  502  0.00000000000E+00  0.00000000000E+00  0.40396340752E+03  0.40396340752E+03  0.00000000000E+00 0.  1.
         21   -1    0    0  502  503 -0.00000000000E+00 -0.00000000000E+00 -0.54025375850E+03  0.54025375850E+03  0.00000000000E+00 0.  1.
    9000007    1    1    2  501    0  0.86604165773E+02  0.17399360861E+03 -0.21272810763E+03  0.49297799661E+03  0.40000000000E+03 0.  1.
   -9000007    1    1    2    0  503 -0.86604165773E+02 -0.17399360861E+03  0.76437756652E+02  0.45123916941E+03  0.40000000000E+03 0.  1.
<mgrwt>
<rscale>  2 0.44471795E+03</rscale>
<asrwt>0</asrwt>
<pdfrwt beam="1">  1       21 0.62148217E-01 0.44471795E+03</pdfrwt>
<pdfrwt beam="2">  1       21 0.83115962E-01 0.44471795E+03</pdfrwt>
<totfact> 0.26355634E+03</totfact>
</mgrwt>
</event>
<event>
 4    1  0.4675559E-002  0.4165093E+03  0.7818608E-02  0.1038208E+00
         21   -1    0    0  501  502  0.00000000000E+00  0.00000000000E+00  0.37660590775E+03  0.37660590775E+03  0.00000000000E+00 0. -1.
         21   -1    0    0  502  503 -0.00000000000E+00 -0.00000000000E+00 -0.46153846846E+03  0.46153846846E+03  0.00000000000E+00 0. -1.
    9000007    1    1    2  501    0 -0.55169096684E+02 -0.10215839011E+03 -0.23982333163E+02  0.41719913495E+03  0.40000000000E+03 0. -1.
   -9000007    1    1    2    0  503  0.55169096684E+02  0.10215839011E+03 -0.60950227553E+02  0.42094524126E+03  0.40000000000E+03 0. -1.
<mgrwt>
<rscale>  2 0.41650926E+03</rscale>
<asrwt>0</asrwt>
<pdfrwt beam="1">  1       21 0.57939371E-01 0.41650926E+03</pdfrwt>
<pdfrwt beam="2">  1       21 0.71005918E-01 0.41650926E+03</pdfrwt>
<totfact> 0.44524274E+03</totfact>
</mgrwt>
</event>
<event>
 4    1  0.4675559E-002  0.5821211E+03  0.7818608E-02  0.9943209E-01
         21   -1    0    0  503  502  0.00000000000E+00  0.00000000000E+00  0.30429489103E+03  0.30429489103E+03  0.00000000000E+00 0. -1.
         21   -1    0    0  501  503 -0.00000000000E+00 -0.00000000000E+00 -0.12341652049E+04  0.12341652049E+04  0.00000000000E+00 0. -1.
    9000007    1    1    2  501    0 -0.16178094343E+03  0.39075812600E+03 -0.70535349314E+03  0.91454280216E+03  0.40000000000E+03 0. -1.
   -9000007    1    1    2    0  502  0.16178094343E+03 -0.39075812600E+03 -0.22451682074E+03  0.62391729379E+03  0.40000000000E+03 0. -1.
<mgrwt>
<rscale>  2 0.58212111E+03</rscale>
<asrwt>0</asrwt>
<pdfrwt beam="1">  1       21 0.46814598E-01 0.58212111E+03</pdfrwt>
<pdfrwt beam="2">  1       21 0.18987157E+00 0.58212111E+03</pdfrwt>
<totfact> 0.53461377E+02</totfact>
</mgrwt>
</event>
<event>
 4    1  0.4675559E-002  0.4991009E+03  0.7818608E-02  0.1014014E+00
         21   -1    0    0  503  502  0.00000000000E+00  0.00000000000E+00  0.75282331933E+03  0.75282331933E+03  0.00000000000E+00 0. -1.
         21   -1    0    0  501  503 -0.00000000000E+00 -0.00000000000E+00 -0.39231261279E+03  0.39231261279E+03  0.00000000000E+00 0. -1.
    9000007    1    1    2  501    0 -0.36467268866E+02 -0.29626314547E+03  0.40681107307E+03  0.64389204238E+03  0.40000000000E+03 0. -1.
   -9000007    1    1    2    0  502  0.36467268866E+02  0.29626314547E+03 -0.46300366525E+02  0.50124388974E+03  0.40000000000E+03 0. -1.
<mgrwt>
<rscale>  2 0.49910090E+03</rscale>
<asrwt>0</asrwt>
<pdfrwt beam="1">  1       21 0.11581897E+00 0.49910090E+03</pdfrwt>
<pdfrwt beam="2">  1       21 0.60355787E-01 0.49910090E+03</pdfrwt>
<totfact> 0.12340608E+03</totfact>
</mgrwt>
</event>
<event>
 4    1  0.4675559E-002  0.4071310E+03  0.7818608E-02  0.1041338E+00
         21   -1    0    0  503  502  0.00000000000E+00  0.00000000000E+00  0.13601522491E+04  0.13601522491E+04  0.00000000000E+00 0.  1.
         21   -1    0    0  501  503 -0.00000000000E+00 -0.00000000000E+00 -0.27069394300E+03  0.27069394300E+03  0.00000000000E+00 0.  1.
    9000007    1    1    2  501    0 -0.63805571027E+02 -0.41042745134E+02 -0.59896657584E+02  0.41151338667E+03  0.40000000000E+03 0.  1.
   -9000007    1    1    2    0  502  0.63805571027E+02  0.41042745134E+02  0.11493549637E+04  0.12193328054E+04  0.40000000000E+03 0.  1.
<mgrwt>
<rscale>  2 0.40713101E+03</rscale>
<asrwt>0</asrwt>
<pdfrwt beam="1">  1       21 0.20925419E+00 0.40713101E+03</pdfrwt>
<pdfrwt beam="2">  1       21 0.41645223E-01 0.40713101E+03</pdfrwt>
<totfact> 0.54745540E+02</totfact>
</mgrwt>
</event>
<event>
 4    1  0.4675559E-002  0.6815815E+03  0.7818608E-02  0.9749259E-01
         21   -1    0    0  501  502  0.00000000000E+00  0.00000000000E+00  0.40577176256E+03  0.40577176256E+03  0.00000000000E+00 0. -1.
         21   -1    0    0  502  503 -0.00000000000E+00 -0.00000000000E+00 -0.12766003545E+04  0.12766003545E+04  0.00000000000E+00 0. -1.
    9000007    1    1    2  501    0 -0.52178779770E+03  0.17969643702E+03 -0.16519392342E+03  0.70131472795E+03  0.40000000000E+03 0. -1.
   -9000007    1    1    2    0  503  0.52178779770E+03 -0.17969643702E+03 -0.70563466850E+03  0.98105738910E+03  0.40000000000E+03 0. -1.
<mgrwt>
<rscale>  2 0.68158148E+03</rscale>
<asrwt>0</asrwt>
<pdfrwt beam="1">  1       21 0.62426425E-01 0.68158148E+03</pdfrwt>
<pdfrwt beam="2">  1       21 0.19640006E+00 0.68158148E+03</pdfrwt>
<totfact> 0.24942199E+02</totfact>
</mgrwt>
</event>
<event>
 4    1  0.4675559E-002  0.6327564E+03  0.7818608E-02  0.9839685E-01
         21   -1    0    0  501  502  0.00000000000E+00  0.00000000000E+00  0.14132100906E+04  0.14132100906E+04  0.00000000000E+00 0. -1.
         21   -1    0    0  502  503 -0.00000000000E+00 -0.00000000000E+00 -0.40227191993E+03  0.40227191993E+03  0.00000000000E+00 0. -1.
    9000007    1    1    2  501    0 -0.33017978428E+02 -0.48917322640E+03  0.99909824391E+03  0.11826148711E+04  0.40000000000E+03 0. -1.
   -9000007    1    1    2    0  503  0.33017978428E+02  0.48917322640E+03  0.11839926773E+02  0.63286713945E+03  0.40000000000E+03 0. -1.
<mgrwt>
<rscale>  2 0.63275638E+03</rscale>
<asrwt>0</asrwt>
<pdfrwt beam="1">  1       21 0.21741693E+00 0.63275638E+03</pdfrwt>
<pdfrwt beam="2">  1       21 0.61887988E-01 0.63275638E+03</pdfrwt>
<totfact> 0.18733028E+02</totfact>
</mgrwt>
</event>
<event>
 4    1  0.4675559E-002  0.4011633E+03  0.7818608E-02  0.1043378E+00
         21   -1    0    0  503  502  0.00000000000E+00  0.00000000000E+00  0.60760569952E+03  0.60760569952E+03  0.00000000000E+00 0. -1.
         21   -1    0    0  501  503 -0.00000000000E+00 -0.00000000000E+00 -0.37478190792E+03  0.37478190792E+03  0.00000000000E+00 0. -1.
    9000007    1    1    2  501    0  0.23927102028E+02  0.18960352759E+02 -0.14959974500E+03  0.42814960574E+03  0.40000000000E+03 0. -1.
   -9000007    1    1    2    0  502 -0.23927102028E+02 -0.18960352759E+02  0.38242353660E+03  0.55423800171E+03  0.40000000000E+03 0. -1.
<mgrwt>
<rscale>  2 0.40116331E+03</rscale>
<asrwt>0</asrwt>
<pdfrwt beam="1">  1       21 0.93477800E-01 0.40116331E+03</pdfrwt>
<pdfrwt beam="2">  1       21 0.57658755E-01 0.40116331E+03</pdfrwt>
<totfact> 0.23951763E+03</totfact>
</mgrwt>
</event>
<event>
 4    1  0.4675559E-002  0.4993074E+03  0.7818608E-02  0.1013960E+00
         21   -1    0    0  501  502  0.00000000000E+00  0.00000000000E+00  0.45421009242E+03  0.45421009242E+03  0.00000000000E+00 0. -1.
         21   -1    0    0  502  503 -0.00000000000E+00 -0.00000000000E+00 -0.54970140480E+03  0.54970140480E+03  0.00000000000E+00 0. -1.
    9000007    1    1    2  501    0 -0.32893625690E+02  0.29702846528E+03 -0.28369826359E+02  0.50011273414E+03  0.40000000000E+03 0. -1.
   -9000007    1    1    2    0  503  0.32893625690E+02 -0.29702846528E+03 -0.67121486020E+02  0.50379876308E+03  0.40000000000E+03 0. -1.
<mgrwt>
<rscale>  2 0.49930742E+03</rscale>
<asrwt>0</asrwt>
<pdfrwt beam="1">  1       21 0.69878476E-01 0.49930742E+03</pdfrwt>
<pdfrwt beam="2">  1       21 0.84569446E-01 0.49930742E+03</pdfrwt>
<totfact> 0.19115218E+03</totfact>
</mgrwt>
</event>
<event>
 4    1  0.4675559E-002  0.4144264E+03  0.7818608E-02  0.1038896E+00
         21   -1    0    0  503  502  0.00000000000E+00  0.00000000000E+00  0.68927674910E+03  0.68927674910E+03  0.00000000000E+00 0. -1.
         21   -1    0    0  501  503 -0.00000000000E+00 -0.00000000000E+00 -0.32696129033E+03  0.32696129033E+03  0.00000000000E+00 0. -1.
    9000007    1    1    2  501    0  0.10492250367E+03 -0.27212118147E+02  0.42899926352E+03  0.59648101332E+03  0.40000000000E+03 0. -1.
   -9000007    1    1    2    0  502 -0.10492250367E+03  0.27212118147E+02 -0.66683804754E+02  0.41975702611E+03  0.40000000000E+03 0. -1.
<mgrwt>
<rscale>  2 0.41442639E+03</rscale>
<asrwt>0</asrwt>
<pdfrwt beam="1">  1       21 0.10604258E+00 0.41442639E+03</pdfrwt>
<pdfrwt beam="2">  1       21 0.50301737E-01 0.41442639E+03</pdfrwt>
<totfact> 0.23531024E+03</totfact>
</mgrwt>
</event>
<event>
 4    1  0.4675559E-002  0.4073992E+03  0.7818608E-02  0.1041247E+00
         21   -1    0    0  503  502  0.00000000000E+00  0.00000000000E+00  0.11797049639E+04  0.11797049639E+04  0.00000000000E+00 0. -1.
         21   -1    0    0  501  503 -0.00000000000E+00 -0.00000000000E+00 -0.15395998832E+03  0.15395998832E+03  0.00000000000E+00 0. -1.
    9000007    1    1    2  501    0 -0.53305833952E+02 -0.55969456775E+02  0.31711037260E+03  0.51626841898E+03  0.40000000000E+03 0. -1.
   -9000007    1    1    2    0  502  0.53305833952E+02  0.55969456775E+02  0.70863460302E+03  0.81739653328E+03  0.40000000000E+03 0. -1.
<mgrwt>
<rscale>  2 0.40739918E+03</rscale>
<asrwt>0</asrwt>
<pdfrwt beam="1">  1       21 0.18149307E+00 0.40739918E+03</pdfrwt>
<pdfrwt beam="2">  1       21 0.23686153E-01 0.40739918E+03</pdfrwt>
<totfact> 0.25938760E+03</totfact>
</mgrwt>
</event>
<event>
 4    1  0.4675559E-002  0.4505622E+03  0.7818608E-02  0.1027555E+00
         21   -1    0    0  501  502  0.00000000000E+00  0.00000000000E+00  0.42415979239E+03  0.42415979239E+03  0.00000000000E+00 0.  1.
         21   -1    0    0  502  503 -0.00000000000E+00 -0.00000000000E+00 -0.13422531001E+04  0.13422531001E+04  0.00000000000E+00 0. -1.
    9000007    1    1    2  501    0 -0.20451707659E+03  0.34337027216E+02  0.24940901755E+03  0.51498652807E+03  0.40000000000E+03 0.  1.
   -9000007    1    1    2    0  503  0.20451707659E+03 -0.34337027216E+02 -0.11675023252E+04  0.12514263644E+04  0.40000000000E+03 0. -1.
<mgrwt>
<rscale>  2 0.45056217E+03</rscale>
<asrwt>0</asrwt>
<pdfrwt beam="1">  1       21 0.65255353E-01 0.45056217E+03</pdfrwt>
<pdfrwt beam="2">  1       21 0.20650048E+00 0.45056217E+03</pdfrwt>
<totfact> 0.21305818E+02</totfact>
</mgrwt>
</event>
<event>
 4    1  0.4675559E-002  0.4825834E+03  0.7818608E-02  0.1018428E+00
         21   -1    0    0  503  502  0.00000000000E+00  0.00000000000E+00  0.21564394209E+03  0.21564394209E+03  0.00000000000E+00 0. -1.
         21   -1    0    0  501  503 -0.00000000000E+00 -0.00000000000E+00 -0.25109290583E+04  0.25109290583E+04  0.00000000000E+00 0.  1.
    9000007    1    1    2  501    0 -0.13822147003E+02 -0.26962140737E+03 -0.21768077479E+04  0.22296588812E+04  0.40000000000E+03 0. -1.
   -9000007    1    1    2    0  502  0.13822147003E+02  0.26962140737E+03 -0.11847736829E+03  0.49691411920E+03  0.40000000000E+03 0. -1.
<mgrwt>
<rscale>  2 0.48258342E+03</rscale>
<asrwt>0</asrwt>
<pdfrwt beam="1">  1       21 0.33175991E-01 0.48258342E+03</pdfrwt>
<pdfrwt beam="2">  1       21 0.38629677E+00 0.48258342E+03</pdfrwt>
<totfact> 0.67872979E+01</totfact>
</mgrwt>
</event>
<event>
 4    1  0.4675559E-002  0.4214057E+03  0.7818608E-02  0.1036610E+00
         21   -1    0    0  503  502  0.00000000000E+00  0.00000000000E+00  0.77133026141E+02  0.77133026141E+02  0.00000000000E+00 0. -1.
         21   -1    0    0  501  503 -0.00000000000E+00 -0.00000000000E+00 -0.23090032137E+04  0.23090032137E+04  0.00000000000E+00 0. -1.
    9000007    1    1    2  501    0 -0.11830819641E+03  0.59882884722E+02 -0.10516164848E+04  0.11329077722E+04  0.40000000000E+03 0.  1.
   -9000007    1    1    2    0  502  0.11830819641E+03 -0.59882884722E+02 -0.11802537027E+04  0.12532284676E+04  0.40000000000E+03 0.  1.
<mgrwt>
<rscale>  2 0.42140573E+03</rscale>
<asrwt>0</asrwt>
<pdfrwt beam="1">  1       21 0.11866619E-01 0.42140573E+03</pdfrwt>
<pdfrwt beam="2">  1       21 0.35523127E+00 0.42140573E+03</pdfrwt>
<totfact> 0.78366344E+02</totfact>
</mgrwt>
</event>
<event>
 4    1  0.4675559E-002  0.5400324E+03  0.7818608E-02  0.1003828E+00
         21   -1    0    0  503  502  0.00000000000E+00  0.00000000000E+00  0.18352270945E+04  0.18352270945E+04  0.00000000000E+00 0.  1.
         21   -1    0    0  501  503 -0.00000000000E+00 -0.00000000000E+00 -0.26272434991E+03  0.26272434991E+03  0.00000000000E+00 0.  1.
    9000007    1    1    2  501    0  0.84313617701E+02  0.35288277545E+03  0.12685737093E+03  0.55473221639E+03  0.40000000000E+03 0.  1.
   -9000007    1    1    2    0  502 -0.84313617701E+02 -0.35288277545E+03  0.14456453736E+04  0.15432192280E+04  0.40000000000E+03 0.  1.
<mgrwt>
<rscale>  2 0.54003244E+03</rscale>
<asrwt>0</asrwt>
<pdfrwt beam="1">  1       21 0.28234262E+00 0.54003244E+03</pdfrwt>
<pdfrwt beam="2">  1       21 0.40419132E-01 0.54003244E+03</pdfrwt>
<totfact> 0.19094986E+02</totfact>
</mgrwt>
</event>
<event>
 4    1  0.4675559E-002  0.4392544E+03  0.7818608E-02  0.1030976E+00
         21   -1    0    0  503  502  0.00000000000E+00  0.00000000000E+00  0.16414549392E+03  0.16414549392E+03  0.00000000000E+00 0.  1.
         21   -1    0    0  501  503 -0.00000000000E+00 -0.00000000000E+00 -0.11912158290E+04  0.11912158290E+04  0.00000000000E+00 0.  1.
    9000007    1    1    2  501    0  0.33434713111E+01 -0.18147525920E+03 -0.43556660827E+03  0.61859738016E+03  0.40000000000E+03 0.  1.
   -9000007    1    1    2    0  502 -0.33434713111E+01  0.18147525920E+03 -0.59150372679E+03  0.73676394273E+03  0.40000000000E+03 0.  1.
<mgrwt>
<rscale>  2 0.43925442E+03</rscale>
<asrwt>0</asrwt>
<pdfrwt beam="1">  1       21 0.25253154E-01 0.43925442E+03</pdfrwt>
<pdfrwt beam="2">  1       21 0.18326397E+00 0.43925442E+03</pdfrwt>
<totfact> 0.21962163E+03</totfact>
</mgrwt>
</event>
<event>
 4    1  0.4675559E-002  0.4015793E+03  0.7818608E-02  0.1043234E+00
         21   -1    0    0  501  502  0.00000000000E+00  0.00000000000E+00  0.23735326353E+03  0.23735326353E+03  0.00000000000E+00 0.  1.
         21   -1    0    0  502  503 -0.00000000000E+00 -0.00000000000E+00 -0.82134007580E+03  0.82134007580E+03  0.00000000000E+00 0.  1.
    9000007    1    1    2  501    0  0.34699918761E+02 -0.78654226774E+01 -0.71965022040E+02  0.40797660917E+03  0.40000000000E+03 0.  1.
   -9000007    1    1    2    0  503 -0.34699918761E+02  0.78654226774E+01 -0.51202179023E+03  0.65071673016E+03  0.40000000000E+03 0.  1.
<mgrwt>
<rscale>  2 0.40157932E+03</rscale>
<asrwt>0</asrwt>
<pdfrwt beam="1">  1       21 0.36515887E-01 0.40157932E+03</pdfrwt>
<pdfrwt beam="2">  1       21 0.12636001E+00 0.40157932E+03</pdfrwt>
<totfact> 0.29634266E+03</totfact>
</mgrwt>
</event>
<event>
 4    1  0.4675559E-002  0.4799223E+03  0.7818608E-02  0.1019157E+00
         21   -1    0    0  503  502  0.00000000000E+00  0.00000000000E+00  0.81698148636E+03  0.81698148636E+03  0.00000000000E+00 0. -1.
         21   -1    0    0  501  503 -0.00000000000E+00 -0.00000000000E+00 -0.52751232541E+03  0.52751232541E+03  0.00000000000E+00 0. -1.
    9000007    1    1    2  501    0 -0.11949453660E+03  0.23674141147E+03 -0.31395377629E+03  0.57349142437E+03  0.40000000000E+03 0. -1.
   -9000007    1    1    2    0  502  0.11949453660E+03 -0.23674141147E+03  0.60342293724E+03  0.77100238740E+03  0.40000000000E+03 0. -1.
<mgrwt>
<rscale>  2 0.47992233E+03</rscale>
<asrwt>0</asrwt>
<pdfrwt beam="1">  1       21 0.12568946E+00 0.47992233E+03</pdfrwt>
<pdfrwt beam="2">  1       21 0.81155743E-01 0.47992233E+03</pdfrwt>
<totfact> 0.51725993E+02</totfact>
</mgrwt>
</event>
<event>
 4    1  0.4675559E-002  0.4222443E+03  0.7818608E-02  0.1036338E+00
         21   -1    0    0  503  502  0.00000000000E+00  0.00000000000E+00  0.28258075765E+03  0.28258075765E+03  0.00000000000E+00 0. -1.
         21   -1    0    0  501  503 -0.00000000000E+00 -0.00000000000E+00 -0.65601503644E+03  0.65601503644E+03  0.00000000000E+00 0. -1.
    9000007    1    1    2  501    0 -0.43459754173E+02  0.12806820563E+03 -0.94957445378E+02  0.43278993976E+03  0.40000000000E+03 0. -1.
   -9000007    1    1    2    0  502  0.43459754173E+02 -0.12806820563E+03 -0.27847683341E+03  0.50580585433E+03  0.40000000000E+03 0. -1.
<mgrwt>
<rscale>  2 0.42224426E+03</rscale>
<asrwt>0</asrwt>
<pdfrwt beam="1">  1       21 0.43473963E-01 0.42224426E+03</pdfrwt>
<pdfrwt beam="2">  1       21 0.10092539E+00 0.42224426E+03</pdfrwt>
<totfact> 0.35990097E+03</totfact>
</mgrwt>
</event>
<event>
 4    1  0.4675559E-002  0.4126815E+03  0.7818608E-02  0.1039475E+00
         21   -1    0    0  501  502  0.00000000000E+00  0.00000000000E+00  0.32020013304E+03  0.32020013304E+03  0.00000000000E+00 0. -1.
         21   -1    0    0  502  503 -0.00000000000E+00 -0.00000000000E+00 -0.54219851993E+03  0.54219851993E+03  0.00000000000E+00 0. -1.
    9000007    1    1    2  501    0 -0.98388676114E+01  0.10104082644E+03 -0.51496218404E+02  0.41588208958E+03  0.40000000000E+03 0. -1.
   -9000007    1    1    2    0  503  0.98388676114E+01 -0.10104082644E+03 -0.17050216849E+03  0.44651656339E+03  0.40000000000E+03 0. -1.
<mgrwt>
<rscale>  2 0.41268154E+03</rscale>
<asrwt>0</asrwt>
<pdfrwt beam="1">  1       21 0.49261559E-01 0.41268154E+03</pdfrwt>
<pdfrwt beam="2">  1       21 0.83415156E-01 0.41268154E+03</pdfrwt>
<totfact> 0.43680853E+03</totfact>
</mgrwt>
</event>
<event>
 4    1  0.4675559E-002  0.4012085E+03  0.7818608E-02  0.1043362E+00
         21   -1    0    0  503  502  0.00000000000E+00  0.00000000000E+00  0.14433147606E+03  0.14433147606E+03  0.00000000000E+00 0.  1.
         21   -1    0    0  501  503 -0.00000000000E+00 -0.00000000000E+00 -0.16228125552E+04  0.16228125552E+04  0.00000000000E+00 0.  1.
    9000007    1    1    2  501    0  0.29648303939E+02 -0.94457293706E+01 -0.12333747894E+04  0.12969894429E+04  0.40000000000E+03 0.  1.
   -9000007    1    1    2    0  502 -0.29648303939E+02  0.94457293706E+01 -0.24510628973E+03  0.47015458840E+03  0.40000000000E+03 0.  1.
<mgrwt>
<rscale>  2 0.40120848E+03</rscale>
<asrwt>0</asrwt>
<pdfrwt beam="1">  1       21 0.22204842E-01 0.40120848E+03</pdfrwt>
<pdfrwt beam="2">  1       21 0.24966348E+00 0.40120848E+03</pdfrwt>
<totfact> 0.10686538E+03</totfact>
</mgrwt>
</event>
<event>
 4    1  0.4675559E-002  0.4303930E+03  0.7818608E-02  0.1033736E+00
         21   -1    0    0  503  502  0.00000000000E+00  0.00000000000E+00  0.10119388983E+04  0.10119388983E+04  0.00000000000E+00 0.  1.
         21   -1    0    0  501  503 -0.00000000000E+00 -0.00000000000E+00 -0.26765056181E+03  0.26765056181E+03  0.00000000000E+00 0.  1.
    9000007    1    1    2  501    0  0.28088826578E+02 -0.15636233398E+03  0.12447648070E+02  0.43057299684E+03  0.40000000000E+03 0.  1.
   -9000007    1    1    2    0  502 -0.28088826578E+02  0.15636233398E+03  0.73184068838E+03  0.84901646323E+03  0.40000000000E+03 0.  1.
<mgrwt>
<rscale>  2 0.43039303E+03</rscale>
<asrwt>0</asrwt>
<pdfrwt beam="1">  1       21 0.15568291E+00 0.43039303E+03</pdfrwt>
<pdfrwt beam="2">  1       21 0.41177010E-01 0.43039303E+03</pdfrwt>
<totfact> 0.13159159E+03</totfact>
</mgrwt>
</event>
<event>
 4    1  0.4675559E-002  0.6834802E+03  0.7818608E-02  0.9745908E-01
         21   -1    0    0  503  502  0.00000000000E+00  0.00000000000E+00  0.13950716164E+04  0.13950716164E+04  0.00000000000E+00 0.  1.
         21   -1    0    0  501  503 -0.00000000000E+00 -0.00000000000E+00 -0.33487516726E+03  0.33487516726E+03  0.00000000000E+00 0.  1.
    9000007    1    1    2  501    0 -0.29309750218E+03 -0.47036057519E+03  0.52321030807E+03  0.86075213792E+03  0.40000000000E+03 0.  1.
   -9000007    1    1    2    0  502  0.29309750218E+03  0.47036057519E+03  0.53698614109E+03  0.86919464575E+03  0.40000000000E+03 0.  1.
<mgrwt>
<rscale>  2 0.68348022E+03</rscale>
<asrwt>0</asrwt>
<pdfrwt beam="1">  1       21 0.21462640E+00 0.68348022E+03</pdfrwt>
<pdfrwt beam="2">  1       21 0.51519257E-01 0.68348022E+03</pdfrwt>
<totfact> 0.28655657E+02</totfact>
</mgrwt>
</event>
<event>
 4    1  0.4675559E-002  0.4897323E+03  0.7818608E-02  0.1016494E+00
         21   -1    0    0  501  502  0.00000000000E+00  0.00000000000E+00  0.10714172039E+04  0.10714172039E+04  0.00000000000E+00 0. -1.
         21   -1    0    0  502  503 -0.00000000000E+00 -0.00000000000E+00 -0.23172019193E+03  0.23172019193E+03  0.00000000000E+00 0. -1.
    9000007    1    1    2  501    0  0.26474102697E+02  0.28131267432E+03  0.53992175677E+03  0.72893977960E+03  0.40000000000E+03 0. -1.
   -9000007    1    1    2    0  503 -0.26474102697E+02 -0.28131267432E+03  0.29977525518E+03  0.57419761621E+03  0.40000000000E+03 0. -1.
<mgrwt>
<rscale>  2 0.48973227E+03</rscale>
<asrwt>0</asrwt>
<pdfrwt beam="1">  1       21 0.16483341E+00 0.48973227E+03</pdfrwt>
<pdfrwt beam="2">  1       21 0.35649261E-01 0.48973227E+03</pdfrwt>
<totfact> 0.14712359E+03</totfact>
</mgrwt>
</event>
<event>
 4    1  0.4675559E-002  0.5225124E+03  0.7818608E-02  0.1008064E+00
         21   -1    0    0  503  502  0.00000000000E+00  0.00000000000E+00  0.59483780696E+03  0.59483780696E+03  0.00000000000E+00 0.  1.
         21   -1    0    0  501  503 -0.00000000000E+00 -0.00000000000E+00 -0.59622736752E+03  0.59622736752E+03  0.00000000000E+00 0.  1.
    9000007    1    1    2  501    0 -0.60487427397E+02  0.33069702588E+03 -0.28642094125E+03  0.59586593072E+03  0.40000000000E+03 0.  1.
   -9000007    1    1    2    0  502  0.60487427397E+02 -0.33069702588E+03  0.28503138070E+03  0.59519924377E+03  0.40000000000E+03 0.  1.
<mgrwt>
<rscale>  2 0.52251244E+03</rscale>
<asrwt>0</asrwt>
<pdfrwt beam="1">  1       21 0.91513509E-01 0.52251244E+03</pdfrwt>
<pdfrwt beam="2">  1       21 0.91727287E-01 0.52251244E+03</pdfrwt>
<totfact> 0.83721309E+02</totfact>
</mgrwt>
</event>
<event>
 4    1  0.4675559E-002  0.5907455E+03  0.7818608E-02  0.9924794E-01
         21   -1    0    0  501  502  0.00000000000E+00  0.00000000000E+00  0.18393896431E+03  0.18393896431E+03  0.00000000000E+00 0.  1.
         21   -1    0    0  502  503 -0.00000000000E+00 -0.00000000000E+00 -0.20098630578E+04  0.20098630578E+04  0.00000000000E+00 0.  1.
    9000007    1    1    2  501    0  0.37708709808E+03 -0.21629978908E+03 -0.65333090052E+03  0.88080732506E+03  0.40000000000E+03 0.  1.
   -9000007    1    1    2    0  503 -0.37708709808E+03  0.21629978908E+03 -0.11725931930E+04  0.13129946971E+04  0.40000000000E+03 0.  1.
<mgrwt>
<rscale>  2 0.59074553E+03</rscale>
<asrwt>0</asrwt>
<pdfrwt beam="1">  1       21 0.28298304E-01 0.59074553E+03</pdfrwt>
<pdfrwt beam="2">  1       21 0.30920968E+00 0.59074553E+03</pdfrwt>
<totfact> 0.26354105E+02</totfact>
</mgrwt>
</event>
<event>
 4    1  0.4675559E-002  0.4252335E+03  0.7818608E-02  0.1035376E+00
         21   -1    0    0  503  502  0.00000000000E+00  0.00000000000E+00  0.58079355563E+03  0.58079355563E+03  0.00000000000E+00 0.  1.
         21   -1    0    0  501  503 -0.00000000000E+00 -0.00000000000E+00 -0.66025085993E+03  0.66025085993E+03  0.00000000000E+00 0. -1.
    9000007    1    1    2  501    0 -0.65624396210E+02 -0.12851831601E+03 -0.49081624806E+03  0.64940288596E+03  0.40000000000E+03 0. -1.
   -9000007    1    1    2    0  502  0.65624396210E+02  0.12851831601E+03  0.41135894376E+03  0.59164152960E+03  0.40000000000E+03 0.  1.
<mgrwt>
<rscale>  2 0.42523349E+03</rscale>
<asrwt>0</asrwt>
<pdfrwt beam="1">  1       21 0.89352854E-01 0.42523349E+03</pdfrwt>
<pdfrwt beam="2">  1       21 0.10157706E+00 0.42523349E+03</pdfrwt>
<totfact> 0.72077324E+02</totfact>
</mgrwt>
</event>
<event>
 4    1  0.4675559E-002  0.4594314E+03  0.7818608E-02  0.1024946E+00
         21   -1    0    0  501  502  0.00000000000E+00  0.00000000000E+00  0.26602660228E+03  0.26602660228E+03  0.00000000000E+00 0.  1.
         21   -1    0    0  502  503 -0.00000000000E+00 -0.00000000000E+00 -0.79701537583E+03  0.79701537583E+03  0.00000000000E+00 0. -1.
    9000007    1    1    2  501    0 -0.17354905847E+02  0.22533531425E+03 -0.30107457424E+03  0.54929326945E+03  0.40000000000E+03 0. -1.
   -9000007    1    1    2    0  503  0.17354905847E+02 -0.22533531425E+03 -0.22991419931E+03  0.51374870866E+03  0.40000000000E+03 0.  1.
<mgrwt>
<rscale>  2 0.45943138E+03</rscale>
<asrwt>0</asrwt>
<pdfrwt beam="1">  1       21 0.40927170E-01 0.45943138E+03</pdfrwt>
<pdfrwt beam="2">  1       21 0.12261775E+00 0.45943138E+03</pdfrwt>
<totfact> 0.24779196E+03</totfact>
</mgrwt>
</event>
<event>
 4    1  0.4675559E-002  0.4428651E+03  0.7818608E-02  0.1029871E+00
         21   -1    0    0  503  502  0.00000000000E+00  0.00000000000E+00  0.13136227734E+04  0.13136227734E+04  0.00000000000E+00 0.  1.
         21   -1    0    0  501  503 -0.00000000000E+00 -0.00000000000E+00 -0.29345650754E+03  0.29345650754E+03  0.00000000000E+00 0.  1.
    9000007    1    1    2  501    0 -0.17092199655E+02  0.18930764127E+03 -0.53095391370E+02  0.44603659818E+03  0.40000000000E+03 0.  1.
   -9000007    1    1    2    0  502  0.17092199655E+02 -0.18930764127E+03  0.10732616573E+04  0.11610426828E+04  0.40000000000E+03 0.  1.
<mgrwt>
<rscale>  2 0.44286513E+03</rscale>
<asrwt>0</asrwt>
<pdfrwt beam="1">  1       21 0.20209581E+00 0.44286513E+03</pdfrwt>
<pdfrwt beam="2">  1       21 0.45147156E-01 0.44286513E+03</pdfrwt>
<totfact> 0.50611159E+02</totfact>
</mgrwt>
</event>
<event>
 4    1  0.4675559E-002  0.4873617E+03  0.7818608E-02  0.1017131E+00
         21   -1    0    0  501  502  0.00000000000E+00  0.00000000000E+00  0.92600418358E+03  0.92600418358E+03  0.00000000000E+00 0.  1.
         21   -1    0    0  502  503 -0.00000000000E+00 -0.00000000000E+00 -0.97788468846E+03  0.97788468846E+03  0.00000000000E+00 0. -1.
    9000007    1    1    2  501    0 -0.13256242820E+03 -0.24484403031E+03  0.79167843029E+03  0.92966452741E+03  0.40000000000E+03 0.  1.
   -9000007    1    1    2    0  503  0.13256242820E+03  0.24484403031E+03 -0.84355893517E+03  0.97422434462E+03  0.40000000000E+03 0. -1.
<mgrwt>
<rscale>  2 0.48736167E+03</rscale>
<asrwt>0</asrwt>
<pdfrwt beam="1">  1       21 0.14246218E+00 0.48736167E+03</pdfrwt>
<pdfrwt beam="2">  1       21 0.15044380E+00 0.48736167E+03</pdfrwt>
<totfact> 0.79197883E+01</totfact>
</mgrwt>
</event>
<event>
 4    1  0.4675559E-002  0.4963815E+03  0.7818608E-02  0.1014728E+00
         21   -1    0    0  501  502  0.00000000000E+00  0.00000000000E+00  0.10115552919E+04  0.10115552919E+04  0.00000000000E+00 0. -1.
         21   -1    0    0  502  503 -0.00000000000E+00 -0.00000000000E+00 -0.24499927709E+03  0.24499927709E+03  0.00000000000E+00 0.  1.
    9000007    1    1    2  501    0 -0.17620320041E+03  0.23525951995E+03  0.33545830671E+03  0.59910507017E+03  0.40000000000E+03 0.  1.
   -9000007    1    1    2    0  503  0.17620320041E+03 -0.23525951995E+03  0.43109770807E+03  0.65744949879E+03  0.40000000000E+03 0. -1.
<mgrwt>
<rscale>  2 0.49638152E+03</rscale>
<asrwt>0</asrwt>
<pdfrwt beam="1">  1       21 0.15562389E+00 0.49638152E+03</pdfrwt>
<pdfrwt beam="2">  1       21 0.37692197E-01 0.49638152E+03</pdfrwt>
<totfact> 0.15384008E+03</totfact>
</mgrwt>
</event>
<event>
 4    1  0.4675559E-002  0.1013804E+04  0.7818608E-02  0.9293534E-01
         21   -1    0    0  503  502  0.00000000000E+00  0.00000000000E+00  0.78882459727E+03  0.78882459727E+03  0.00000000000E+00 0.  1.
         21   -1    0    0  501  503 -0.00000000000E+00 -0.00000000000E+00 -0.14388179131E+04  0.14388179131E+04  0.00000000000E+00 0.  1.
    9000007    1    1    2  501    0  0.85229612597E+03 -0.37601734008E+03  0.17277124643E+02  0.10139508003E+04  0.40000000000E+03 0.  1.
   -9000007    1    1    2    0  502 -0.85229612597E+03  0.37601734008E+03 -0.66727044047E+03  0.12136917101E+04  0.40000000000E+03 0.  1.
<mgrwt>
<rscale>  2 0.10138036E+04</rscale>
<asrwt>0</asrwt>
<pdfrwt beam="1">  1       21 0.12135763E+00 0.10138036E+04</pdfrwt>
<pdfrwt beam="2">  1       21 0.22135660E+00 0.10138036E+04</pdfrwt>
<totfact> 0.31282278E+01</totfact>
</mgrwt>
</event>
<event>
 4    1  0.4675559E-002  0.4235520E+03  0.7818608E-02  0.1035916E+00
         21   -1    0    0  503  502  0.00000000000E+00  0.00000000000E+00  0.63887026491E+03  0.63887026491E+03  0.00000000000E+00 0. -1.
         21   -1    0    0  501  503 -0.00000000000E+00 -0.00000000000E+00 -0.28126549165E+03  0.28126549165E+03  0.00000000000E+00 0. -1.
    9000007    1    1    2  501    0  0.12622205227E+03 -0.58857952943E+02  0.16013319692E+03  0.45281221921E+03  0.40000000000E+03 0. -1.
   -9000007    1    1    2    0  502 -0.12622205227E+03  0.58857952943E+02  0.19747157633E+03  0.46732353735E+03  0.40000000000E+03 0. -1.
<mgrwt>
<rscale>  2 0.42355196E+03</rscale>
<asrwt>0</asrwt>
<pdfrwt beam="1">  1       21 0.98287733E-01 0.42355196E+03</pdfrwt>
<pdfrwt beam="2">  1       21 0.43271614E-01 0.42355196E+03</pdfrwt>
<totfact> 0.38730862E+03</totfact>
</mgrwt>
</event>
<event>
 4    1  0.4675559E-002  0.4010606E+03  0.7818608E-02  0.1043413E+00
         21   -1    0    0  503  502  0.00000000000E+00  0.00000000000E+00  0.46411603036E+03  0.46411603036E+03  0.00000000000E+00 0.  1.
         21   -1    0    0  501  503 -0.00000000000E+00 -0.00000000000E+00 -0.36170438800E+03  0.36170438800E+03  0.00000000000E+00 0.  1.
    9000007    1    1    2  501    0 -0.44001683833E+01 -0.28813819057E+02 -0.33250699185E+02  0.40243658711E+03  0.40000000000E+03 0. -1.
   -9000007    1    1    2    0  502  0.44001683833E+01  0.28813819057E+02  0.13566234155E+03  0.42338383125E+03  0.40000000000E+03 0. -1.
<mgrwt>
<rscale>  2 0.40106059E+03</rscale>
<asrwt>0</asrwt>
<pdfrwt beam="1">  1       21 0.71402466E-01 0.40106059E+03</pdfrwt>
<pdfrwt beam="2">  1       21 0.55646829E-01 0.40106059E+03</pdfrwt>
<totfact> 0.48260314E+03</totfact>
</mgrwt>
</event>
<event>
 4    1  0.4675559E-002  0.4298607E+03  0.7818608E-02  0.1033904E+00
         21   -1    0    0  503  502  0.00000000000E+00  0.00000000000E+00  0.80382688303E+03  0.80382688303E+03  0.00000000000E+00 0.  1.
         21   -1    0    0  501  503 -0.00000000000E+00 -0.00000000000E+00 -0.28890388175E+03  0.28890388175E+03  0.00000000000E+00 0.  1.
    9000007    1    1    2  501    0  0.12638940770E+03  0.93839817526E+02  0.10495865397E+02  0.42998878697E+03  0.40000000000E+03 0.  1.
   -9000007    1    1    2    0  502 -0.12638940770E+03 -0.93839817526E+02  0.50442713588E+03  0.66274197780E+03  0.40000000000E+03 0.  1.
<mgrwt>
<rscale>  2 0.42986067E+03</rscale>
<asrwt>0</asrwt>
<pdfrwt beam="1">  1       21 0.12366567E+00 0.42986067E+03</pdfrwt>
<pdfrwt beam="2">  1       21 0.44446751E-01 0.42986067E+03</pdfrwt>
<totfact> 0.20657011E+03</totfact>
</mgrwt>
</event>
<event>
 4    1  0.4675559E-002  0.4258252E+03  0.7818608E-02  0.1035187E+00
         21   -1    0    0  503  502  0.00000000000E+00  0.00000000000E+00  0.29662438888E+03  0.29662438888E+03  0.00000000000E+00 0.  1.
         21   -1    0    0  501  503 -0.00000000000E+00 -0.00000000000E+00 -0.99825258275E+03  0.99825258275E+03  0.00000000000E+00 0.  1.
    9000007    1    1    2  501    0 -0.56051412115E+01 -0.14593034851E+03 -0.75390782339E+03  0.86585454344E+03  0.40000000000E+03 0.  1.
   -9000007    1    1    2    0  502  0.56051412115E+01  0.14593034851E+03  0.52279629520E+02  0.42902242819E+03  0.40000000000E+03 0.  1.
<mgrwt>
<rscale>  2 0.42582518E+03</rscale>
<asrwt>0</asrwt>
<pdfrwt beam="1">  1       21 0.45634521E-01 0.42582518E+03</pdfrwt>
<pdfrwt beam="2">  1       21 0.15357732E+00 0.42582518E+03</pdfrwt>
<totfact> 0.11050645E+03</totfact>
</mgrwt>
</event>
<event>
 4    1  0.4675559E-002  0.6066938E+03  0.7818608E-02  0.9891615E-01
         21   -1    0    0  501  502  0.00000000000E+00  0.00000000000E+00  0.36162025892E+03  0.36162025892E+03  0.00000000000E+00 0.  1.
         21   -1    0    0  502  503 -0.00000000000E+00 -0.00000000000E+00 -0.13186963118E+04  0.13186963118E+04  0.00000000000E+00 0.  1.
    9000007    1    1    2  501    0  0.25018058097E+03  0.38142768517E+03 -0.77249603688E+02  0.61159210539E+03  0.40000000000E+03 0.  1.
   -9000007    1    1    2    0  503 -0.25018058097E+03 -0.38142768517E+03 -0.87982644920E+03  0.10687244653E+04  0.40000000000E+03 0.  1.
<mgrwt>
<rscale>  2 0.60669383E+03</rscale>
<asrwt>0</asrwt>
<pdfrwt beam="1">  1       21 0.55633887E-01 0.60669383E+03</pdfrwt>
<pdfrwt beam="2">  1       21 0.20287635E+00 0.60669383E+03</pdfrwt>
<totfact> 0.29827656E+02</totfact>
</mgrwt>
</event>
<event>
 4    1  0.4675559E-002  0.4216426E+03  0.7818608E-02  0.1036533E+00
         21   -1    0    0  503  502  0.00000000000E+00  0.00000000000E+00  0.29632834493E+03  0.29632834493E+03  0.00000000000E+00 0.  1.
         21   -1    0    0  501  503 -0.00000000000E+00 -0.00000000000E+00 -0.78768565813E+03  0.78768565813E+03  0.00000000000E+00 0.  1.
    9000007    1    1    2  501    0  0.13334897582E+03 -0.73765696492E+00 -0.51028523066E+03  0.66194675777E+03  0.40000000000E+03 0.  1.
   -9000007    1    1    2    0  502 -0.13334897582E+03  0.73765696492E+00  0.18927917462E+02  0.42206724529E+03  0.40000000000E+03 0.  1.
<mgrwt>
<rscale>  2 0.42164261E+03</rscale>
<asrwt>0</asrwt>
<pdfrwt beam="1">  1       21 0.45588976E-01 0.42164261E+03</pdfrwt>
<pdfrwt beam="2">  1       21 0.12118241E+00 0.42164261E+03</pdfrwt>
<totfact> 0.20699507E+03</totfact>
</mgrwt>
</event>
<event>
 4    1  0.4675559E-002  0.4463433E+03  0.7818608E-02  0.1028818E+00
         21   -1    0    0  501  502  0.00000000000E+00  0.00000000000E+00  0.67272009566E+03  0.67272009566E+03  0.00000000000E+00 0.  1.
         21   -1    0    0  502  503 -0.00000000000E+00 -0.00000000000E+00 -0.39515321731E+03  0.39515321731E+03  0.00000000000E+00 0.  1.
    9000007    1    1    2  501    0 -0.47129662070E+02  0.19235679869E+03  0.40604945336E+03  0.60340575206E+03  0.40000000000E+03 0.  1.
   -9000007    1    1    2    0  503  0.47129662070E+02 -0.19235679869E+03 -0.12848257501E+03  0.46446756090E+03  0.40000000000E+03 0.  1.
<mgrwt>
<rscale>  2 0.44634330E+03</rscale>
<asrwt>0</asrwt>
<pdfrwt beam="1">  1       21 0.10349540E+00 0.44634330E+03</pdfrwt>
<pdfrwt beam="2">  1       21 0.60792803E-01 0.44634330E+03</pdfrwt>
<totfact> 0.16384351E+03</totfact>
</mgrwt>
</event>
<event>
 4    1  0.4675559E-002  0.4752532E+03  0.7818608E-02  0.1020448E+00
         21   -1    0    0  503  502  0.00000000000E+00  0.00000000000E+00  0.14050982936E+04  0.14050982936E+04  0.00000000000E+00 0. -1.
         21   -1    0    0  501  503 -0.00000000000E+00 -0.00000000000E+00 -0.18185288363E+03  0.18185288363E+03  0.00000000000E+00 0. -1.
    9000007    1    1    2  501    0 -0.46172601455E+02  0.25245529497E+03  0.34130566979E+03  0.58511122474E+03  0.40000000000E+03 0. -1.
   -9000007    1    1    2    0  502  0.46172601455E+02 -0.25245529497E+03  0.88193974013E+03  0.10018399524E+04  0.40000000000E+03 0. -1.
<mgrwt>
<rscale>  2 0.47525318E+03</rscale>
<asrwt>0</asrwt>
<pdfrwt beam="1">  1       21 0.21616896E+00 0.47525318E+03</pdfrwt>
<pdfrwt beam="2">  1       21 0.27977368E-01 0.47525318E+03</pdfrwt>
<totfact> 0.10655853E+03</totfact>
</mgrwt>
</event>
<event>
 4    1  0.4675559E-002  0.5194786E+03  0.7818608E-02  0.1008816E+00
         21   -1    0    0  503  502  0.00000000000E+00  0.00000000000E+00  0.49903845584E+03  0.49903845584E+03  0.00000000000E+00 0. -1.
         21   -1    0    0  501  503 -0.00000000000E+00 -0.00000000000E+00 -0.64789971039E+03  0.64789971039E+03  0.00000000000E+00 0.  1.
    9000007    1    1    2  501    0  0.15665833996E+03 -0.29208930907E+03  0.15877531731E+03  0.54320125307E+03  0.40000000000E+03 0.  1.
   -9000007    1    1    2    0  502 -0.15665833996E+03  0.29208930907E+03 -0.30763657186E+03  0.60373691315E+03  0.40000000000E+03 0. -1.
<mgrwt>
<rscale>  2 0.51947858E+03</rscale>
<asrwt>0</asrwt>
<pdfrwt beam="1">  1       21 0.76775148E-01 0.51947858E+03</pdfrwt>
<pdfrwt beam="2">  1       21 0.99676877E-01 0.51947858E+03</pdfrwt>
<totfact> 0.10349219E+03</totfact>
</mgrwt>
</event>
<event>
 4    1  0.4675559E-002  0.4086680E+03  0.7818608E-02  0.1040819E+00
         21   -1    0    0  501  502  0.00000000000E+00  0.00000000000E+00  0.42369274656E+03  0.42369274656E+03  0.00000000000E+00 0. -1.
         21   -1    0    0  502  503 -0.00000000000E+00 -0.00000000000E+00 -0.41822363022E+03  0.41822363022E+03  0.00000000000E+00 0. -1.
    9000007    1    1    2  501    0  0.85477149250E+01  0.83285502609E+02  0.10367617573E+03  0.42161390844E+03  0.40000000000E+03 0. -1.
   -9000007    1    1    2    0  503 -0.85477149250E+01 -0.83285502609E+02 -0.98207059393E+02  0.42030246834E+03  0.40000000000E+03 0. -1.
<mgrwt>
<rscale>  2 0.40866801E+03</rscale>
<asrwt>0</asrwt>
<pdfrwt beam="1">  1       21 0.65183500E-01 0.40866801E+03</pdfrwt>
<pdfrwt beam="2">  1       21 0.64342097E-01 0.40866801E+03</pdfrwt>
<totfact> 0.42957219E+03</totfact>
</mgrwt>
</event>
<event>
 4    1  0.4675559E-002  0.4321283E+03  0.7818608E-02  0.1033190E+00
         21   -1    0    0  503  502  0.00000000000E+00  0.00000000000E+00  0.13282594627E+04  0.13282594627E+04  0.00000000000E+00 0. -1.
         21   -1    0    0  501  503 -0.00000000000E+00 -0.00000000000E+00 -0.15829390787E+03  0.15829390787E+03  0.00000000000E+00 0.  1.
    9000007    1    1    2  501    0 -0.10473949765E+03  0.12555686387E+03  0.33638333117E+03  0.54762088521E+03  0.40000000000E+03 0.  1.
   -9000007    1    1    2    0  502  0.10473949765E+03 -0.12555686387E+03  0.83358222364E+03  0.93893248533E+03  0.40000000000E+03 0. -1.
<mgrwt>
<rscale>  2 0.43212832E+03</rscale>
<asrwt>0</asrwt>
<pdfrwt beam="1">  1       21 0.20434760E+00 0.43212832E+03</pdfrwt>
<pdfrwt beam="2">  1       21 0.24352910E-01 0.43212832E+03</pdfrwt>
<totfact> 0.17018607E+03</totfact>
</mgrwt>
</event>
<event>
 4    1  0.4675559E-002  0.4324459E+03  0.7818608E-02  0.1033090E+00
         21   -1    0    0  501  502  0.00000000000E+00  0.00000000000E+00  0.30732413512E+03  0.30732413512E+03  0.00000000000E+00 0.  1.
         21   -1    0    0  502  503 -0.00000000000E+00 -0.00000000000E+00 -0.82483342959E+03  0.82483342959E+03  0.00000000000E+00 0.  1.
    9000007    1    1    2  501    0 -0.11457753230E+03 -0.11781950390E+03  0.31144351683E+02  0.43356593161E+03  0.40000000000E+03 0.  1.
   -9000007    1    1    2    0  503  0.11457753230E+03  0.11781950390E+03 -0.54865364615E+03  0.69859163310E+03  0.40000000000E+03 0.  1.
<mgrwt>
<rscale>  2 0.43244589E+03</rscale>
<asrwt>0</asrwt>
<pdfrwt beam="1">  1       21 0.47280638E-01 0.43244589E+03</pdfrwt>
<pdfrwt beam="2">  1       21 0.12689745E+00 0.43244589E+03</pdfrwt>
<totfact> 0.16962663E+03</totfact>
</mgrwt>
</event>
<event>
 4    1  0.4675559E-002  0.4364323E+03  0.7818608E-02  0.1031847E+00
         21   -1    0    0  503  502  0.00000000000E+00  0.00000000000E+00  0.81571767594E+03  0.81571767594E+03  0.00000000000E+00 0.  1.
         21   -1    0    0  501  503 -0.00000000000E+00 -0.00000000000E+00 -0.36133081191E+03  0.36133081191E+03  0.00000000000E+00 0.  1.
    9000007    1    1    2  501    0 -0.15913213212E+03 -0.71764350630E+02 -0.12285103618E+03  0.45339335525E+03  0.40000000000E+03 0. -1.
   -9000007    1    1    2    0  502  0.15913213212E+03  0.71764350630E+02  0.57723790021E+03  0.72365513260E+03  0.40000000000E+03 0. -1.
<mgrwt>
<rscale>  2 0.43643231E+03</rscale>
<asrwt>0</asrwt>
<pdfrwt beam="1">  1       21 0.12549503E+00 0.43643231E+03</pdfrwt>
<pdfrwt beam="2">  1       21 0.55589356E-01 0.43643231E+03</pdfrwt>
<totfact> 0.12335924E+03</totfact>
</mgrwt>
</event>
<event>
 4    1  0.4675559E-002  0.6045221E+03  0.7818608E-02  0.9896068E-01
         21   -1    0    0  503  502  0.00000000000E+00  0.00000000000E+00  0.38128402125E+03  0.38128402125E+03  0.00000000000E+00 0. -1.
         21   -1    0    0  501  503 -0.00000000000E+00 -0.00000000000E+00 -0.11931753021E+04  0.11931753021E+04  0.00000000000E+00 0.  1.
    9000007    1    1    2  501    0  0.10527998390E+03 -0.44086631028E+03 -0.75509913646E+03  0.96727539224E+03  0.40000000000E+03 0.  1.
   -9000007    1    1    2    0  502 -0.10527998390E+03  0.44086631028E+03 -0.56792144401E+02  0.60718393112E+03  0.40000000000E+03 0.  1.
<mgrwt>
<rscale>  2 0.60452211E+03</rscale>
<asrwt>0</asrwt>
<pdfrwt beam="1">  1       21 0.58659081E-01 0.60452211E+03</pdfrwt>
<pdfrwt beam="2">  1       21 0.18356543E+00 0.60452211E+03</pdfrwt>
<totfact> 0.36083853E+02</totfact>
</mgrwt>
</event>
<event>
 4    1  0.4675559E-002  0.4254650E+03  0.7818608E-02  0.1035302E+00
         21   -1    0    0  501  502  0.00000000000E+00  0.00000000000E+00  0.76169499983E+03  0.76169499983E+03  0.00000000000E+00 0.  1.
         21   -1    0    0  502  503 -0.00000000000E+00 -0.00000000000E+00 -0.24006960018E+03  0.24006960018E+03  0.00000000000E+00 0.  1.
    9000007    1    1    2  501    0  0.12912764557E+03  0.65928252634E+02  0.31104770605E+03  0.52703999733E+03  0.40000000000E+03 0. -1.
   -9000007    1    1    2    0  503 -0.12912764557E+03 -0.65928252634E+02  0.21057769360E+03  0.47472460268E+03  0.40000000000E+03 0. -1.
<mgrwt>
<rscale>  2 0.42546502E+03</rscale>
<asrwt>0</asrwt>
<pdfrwt beam="1">  1       21 0.11718384E+00 0.42546502E+03</pdfrwt>
<pdfrwt beam="2">  1       21 0.36933785E-01 0.42546502E+03</pdfrwt>
<totfact> 0.34755342E+03</totfact>
</mgrwt>
</event>
<event>
 4    1  0.4675559E-002  0.5512509E+03  0.7818608E-02  0.1001205E+00
         21   -1    0    0  501  502  0.00000000000E+00  0.00000000000E+00  0.20489427283E+03  0.20489427283E+03  0.00000000000E+00 0.  1.
         21   -1    0    0  502  503 -0.00000000000E+00 -0.00000000000E+00 -0.18490412400E+04  0.18490412400E+04  0.00000000000E+00 0. -1.
    9000007    1    1    2  501    0  0.14876177692E+03  0.34892340409E+03 -0.36520380306E+03  0.66124989676E+03  0.40000000000E+03 0.  1.
   -9000007    1    1    2    0  503 -0.14876177692E+03 -0.34892340409E+03 -0.12789431641E+04  0.13926856160E+04  0.40000000000E+03 0. -1.
<mgrwt>
<rscale>  2 0.55125095E+03</rscale>
<asrwt>0</asrwt>
<pdfrwt beam="1">  1       21 0.31522196E-01 0.55125095E+03</pdfrwt>
<pdfrwt beam="2">  1       21 0.28446789E+00 0.55125095E+03</pdfrwt>
<totfact> 0.30596739E+02</totfact>
</mgrwt>
</event>
<event>
 4    1  0.4675559E-002  0.4258864E+03  0.7818608E-02  0.1035167E+00
         21   -1    0    0  503  502  0.00000000000E+00  0.00000000000E+00  0.70533076775E+03  0.70533076775E+03  0.00000000000E+00 0. -1.
         21   -1    0    0  501  503 -0.00000000000E+00 -0.00000000000E+00 -0.26354145566E+03  0.26354145566E+03  0.00000000000E+00 0. -1.
    9000007    1    1    2  501    0 -0.84365651000E+02 -0.11942206048E+03  0.14548120169E+03  0.45004885473E+03  0.40000000000E+03 0. -1.
   -9000007    1    1    2    0  502  0.84365651000E+02  0.11942206048E+03  0.29630811041E+03  0.51882336868E+03  0.40000000000E+03 0. -1.
<mgrwt>
<rscale>  2 0.42588636E+03</rscale>
<asrwt>0</asrwt>
<pdfrwt beam="1">  1       21 0.10851242E+00 0.42588636E+03</pdfrwt>
<pdfrwt beam="2">  1       21 0.40544840E-01 0.42588636E+03</pdfrwt>
<totfact> 0.34759302E+03</totfact>
</mgrwt>
</event>
<event>
 4    1  0.4675559E-002  0.4058306E+03  0.7818608E-02  0.1041779E+00
         21   -1    0    0  503  502  0.00000000000E+00  0.00000000000E+00  0.55448546725E+03  0.55448546725E+03  0.00000000000E+00 0.  1.
         21   -1    0    0  501  503 -0.00000000000E+00 -0.00000000000E+00 -0.37585925694E+03  0.37585925694E+03  0.00000000000E+00 0.  1.
    9000007    1    1    2  501    0 -0.13872520711E+02  0.67127153366E+02 -0.12371974033E+03  0.42427005044E+03  0.40000000000E+03 0.  1.
   -9000007    1    1    2    0  502  0.13872520711E+02 -0.67127153366E+02  0.30234595063E+03  0.50607467375E+03  0.40000000000E+03 0.  1.
<mgrwt>
<rscale>  2 0.40583063E+03</rscale>
<asrwt>0</asrwt>
<pdfrwt beam="1">  1       21 0.85305457E-01 0.40583063E+03</pdfrwt>
<pdfrwt beam="2">  1       21 0.57824501E-01 0.40583063E+03</pdfrwt>
<totfact> 0.29477266E+03</totfact>
</mgrwt>
</event>
<event>
 4    1  0.4675559E-002  0.6194655E+03  0.7818608E-02  0.9865824E-01
         21   -1    0    0  501  502  0.00000000000E+00  0.00000000000E+00  0.24853990150E+03  0.24853990150E+03  0.00000000000E+00 0.  1.
         21   -1    0    0  502  503 -0.00000000000E+00 -0.00000000000E+00 -0.15519046800E+04  0.15519046800E+04  0.00000000000E+00 0. -1.
    9000007    1    1    2  501    0  0.47282865952E+03 -0.13061573942E+02 -0.58730273543E+03  0.85361703885E+03  0.40000000000E+03 0.  1.
   -9000007    1    1    2    0  503 -0.47282865952E+03  0.13061573942E+02 -0.71606204303E+03  0.94682754261E+03  0.40000000000E+03 0. -1.
<mgrwt>
<rscale>  2 0.61946553E+03</rscale>
<asrwt>0</asrwt>
<pdfrwt beam="1">  1       21 0.38236908E-01 0.61946553E+03</pdfrwt>
<pdfrwt beam="2">  1       21 0.23875457E+00 0.61946553E+03</pdfrwt>
<totfact> 0.38435652E+02</totfact>
</mgrwt>
</event>
<event>
 4    1  0.4675559E-002  0.4072837E+03  0.7818608E-02  0.1041286E+00
         21   -1    0    0  503  502  0.00000000000E+00  0.00000000000E+00  0.93792087550E+03  0.93792087550E+03  0.00000000000E+00 0.  1.
         21   -1    0    0  501  503 -0.00000000000E+00 -0.00000000000E+00 -0.21181515341E+03  0.21181515341E+03  0.00000000000E+00 0.  1.
    9000007    1    1    2  501    0  0.18540536199E+02 -0.74406224932E+02  0.12951917634E+03  0.42738186067E+03  0.40000000000E+03 0.  1.
   -9000007    1    1    2    0  502 -0.18540536199E+02  0.74406224932E+02  0.59658654575E+03  0.72235416823E+03  0.40000000000E+03 0.  1.
<mgrwt>
<rscale>  2 0.40728373E+03</rscale>
<asrwt>0</asrwt>
<pdfrwt beam="1">  1       21 0.14429552E+00 0.40728373E+03</pdfrwt>
<pdfrwt beam="2">  1       21 0.32586947E-01 0.40728373E+03</pdfrwt>
<totfact> 0.26270382E+03</totfact>
</mgrwt>
</event>
<event>
 4    1  0.4675559E-002  0.5795643E+03  0.7818608E-02  0.9948735E-01
         21   -1    0    0  501  502  0.00000000000E+00  0.00000000000E+00  0.12540649434E+04  0.12540649434E+04  0.00000000000E+00 0.  1.
         21   -1    0    0  502  503 -0.00000000000E+00 -0.00000000000E+00 -0.61634124956E+03  0.61634124956E+03  0.00000000000E+00 0.  1.
    9000007    1    1    2  501    0 -0.40628811635E+03  0.10404187195E+03  0.10220871881E+04  0.11749710484E+04  0.40000000000E+03 0.  1.
   -9000007    1    1    2    0  503  0.40628811635E+03 -0.10404187195E+03 -0.38436349422E+03  0.69543514456E+03  0.40000000000E+03 0.  1.
<mgrwt>
<rscale>  2 0.57956427E+03</rscale>
<asrwt>0</asrwt>
<pdfrwt beam="1">  1       21 0.19293307E+00 0.57956427E+03</pdfrwt>
<pdfrwt beam="2">  1       21 0.94821731E-01 0.57956427E+03</pdfrwt>
<totfact> 0.10408452E+02</totfact>
</mgrwt>
</event>
<event>
 4    1  0.4675559E-002  0.4140677E+03  0.7818608E-02  0.1039015E+00
         21   -1    0    0  501  502  0.00000000000E+00  0.00000000000E+00  0.41948524479E+03  0.41948524479E+03  0.00000000000E+00 0. -1.
         21   -1    0    0  502  503 -0.00000000000E+00 -0.00000000000E+00 -0.92114237691E+03  0.92114237691E+03  0.00000000000E+00 0. -1.
    9000007    1    1    2  501    0  0.99313482414E+02 -0.39861125724E+02  0.24912395311E+03  0.48323371276E+03  0.40000000000E+03 0. -1.
   -9000007    1    1    2    0  503 -0.99313482414E+02  0.39861125724E+02 -0.75078108523E+03  0.85739390894E+03  0.40000000000E+03 0. -1.
<mgrwt>
<rscale>  2 0.41406772E+03</rscale>
<asrwt>0</asrwt>
<pdfrwt beam="1">  1       21 0.64536192E-01 0.41406772E+03</pdfrwt>
<pdfrwt beam="2">  1       21 0.14171421E+00 0.41406772E+03</pdfrwt>
<totfact> 0.65441327E+02</totfact>
</mgrwt>
</event>
<event>
 4    1  0.4675559E-002  0.4862792E+03  0.7818608E-02  0.1017424E+00
         21   -1    0    0  501  502  0.00000000000E+00  0.00000000000E+00  0.34445698834E+03  0.34445698834E+03  0.00000000000E+00 0. -1.
         21   -1    0    0  502  503 -0.00000000000E+00 -0.00000000000E+00 -0.69055877409E+03  0.69055877409E+03  0.00000000000E+00 0. -1.
    9000007    1    1    2  501    0  0.12742872820E+03  0.24541684153E+03 -0.13334472814E+03  0.50423042688E+03  0.40000000000E+03 0. -1.
   -9000007    1    1    2    0  503 -0.12742872820E+03 -0.24541684153E+03 -0.21275705761E+03  0.53078533555E+03  0.40000000000E+03 0. -1.
<mgrwt>
<rscale>  2 0.48627925E+03</rscale>
<asrwt>0</asrwt>
<pdfrwt beam="1">  1       21 0.52993383E-01 0.48627925E+03</pdfrwt>
<pdfrwt beam="2">  1       21 0.10623981E+00 0.48627925E+03</pdfrwt>
<totfact> 0.20396024E+03</totfact>
</mgrwt>
</event>
<event>
 4    1  0.4675559E-002  0.4364266E+03  0.7818608E-02  0.1031849E+00
         21   -1    0    0  503  502  0.00000000000E+00  0.00000000000E+00  0.19928922423E+03  0.19928922423E+03  0.00000000000E+00 0. -1.
         21   -1    0    0  501  503 -0.00000000000E+00 -0.00000000000E+00 -0.15082343882E+04  0.15082343882E+04  0.00000000000E+00 0. -1.
    9000007    1    1    2  501    0  0.74787674125E+02 -0.15771803572E+03 -0.11712068232E+04  0.12498774331E+04  0.40000000000E+03 0. -1.
   -9000007    1    1    2    0  502 -0.74787674125E+02  0.15771803572E+03 -0.13773834083E+03  0.45764617941E+03  0.40000000000E+03 0. -1.
<mgrwt>
<rscale>  2 0.43642660E+03</rscale>
<asrwt>0</asrwt>
<pdfrwt beam="1">  1       21 0.30659881E-01 0.43642660E+03</pdfrwt>
<pdfrwt beam="2">  1       21 0.23203606E+00 0.43642660E+03</pdfrwt>
<totfact> 0.71780256E+02</totfact>
</mgrwt>
</event>
<event>
 4    1  0.4675559E-002  0.6111202E+03  0.7818608E-02  0.9882600E-01
         21   -1    0    0  501  502  0.00000000000E+00  0.00000000000E+00  0.82834903161E+03  0.82834903161E+03  0.00000000000E+00 0. -1.
         21   -1    0    0  502  503 -0.00000000000E+00 -0.00000000000E+00 -0.97454781306E+03  0.97454781306E+03  0.00000000000E+00 0.  1.
    9000007    1    1    2  501    0  0.44669619694E+03 -0.11802703134E+03  0.58771018537E+03  0.84786268609E+03  0.40000000000E+03 0. -1.
   -9000007    1    1    2    0  503 -0.44669619694E+03  0.11802703134E+03 -0.73390896682E+03  0.95503415858E+03  0.40000000000E+03 0.  1.
<mgrwt>
<rscale>  2 0.61112018E+03</rscale>
<asrwt>0</asrwt>
<pdfrwt beam="1">  1       21 0.12743831E+00 0.61112018E+03</pdfrwt>
<pdfrwt beam="2">  1       21 0.14993043E+00 0.61112018E+03</pdfrwt>
<totfact> 0.10141431E+02</totfact>
</mgrwt>
</event>
<event>
 4    1  0.4675559E-002  0.4182006E+03  0.7818608E-02  0.1037654E+00
         21   -1    0    0  501  502  0.00000000000E+00  0.00000000000E+00  0.14696812956E+04  0.14696812956E+04  0.00000000000E+00 0.  1.
         21   -1    0    0  502  503 -0.00000000000E+00 -0.00000000000E+00 -0.14136370045E+03  0.14136370045E+03  0.00000000000E+00 0.  1.
    9000007    1    1    2  501    0 -0.77151257403E+02 -0.94548451641E+02  0.98455167593E+03  0.10696886130E+04  0.40000000000E+03 0.  1.
   -9000007    1    1    2    0  503  0.77151257403E+02  0.94548451641E+02  0.34376591921E+03  0.54135638302E+03  0.40000000000E+03 0.  1.
<mgrwt>
<rscale>  2 0.41820058E+03</rscale>
<asrwt>0</asrwt>
<pdfrwt beam="1">  1       21 0.22610481E+00 0.41820058E+03</pdfrwt>
<pdfrwt beam="2">  1       21 0.21748263E-01 0.41820058E+03</pdfrwt>
<totfact> 0.15429097E+03</totfact>
</mgrwt>
</event>
<event>
 4    1  0.4675559E-002  0.4003663E+03  0.7818608E-02  0.1043653E+00
         21   -1    0    0  501  502  0.00000000000E+00  0.00000000000E+00  0.87379298061E+03  0.87379298061E+03  0.00000000000E+00 0. -1.
         21   -1    0    0  502  503 -0.00000000000E+00 -0.00000000000E+00 -0.19248447249E+03  0.19248447249E+03  0.00000000000E+00 0. -1.
    9000007    1    1    2  501    0 -0.81821186798E+01 -0.15041949500E+02  0.22512101723E+03  0.45931762399E+03  0.40000000000E+03 0. -1.
   -9000007    1    1    2    0  503  0.81821186798E+01  0.15041949500E+02  0.45618749089E+03  0.60695982911E+03  0.40000000000E+03 0. -1.
<mgrwt>
<rscale>  2 0.40036634E+03</rscale>
<asrwt>0</asrwt>
<pdfrwt beam="1">  1       21 0.13442969E+00 0.40036634E+03</pdfrwt>
<pdfrwt beam="2">  1       21 0.29612996E-01 0.40036634E+03</pdfrwt>
<totfact> 0.38442168E+03</totfact>
</mgrwt>
</event>
<event>
 4    1  0.4675559E-002  0.6139295E+03  0.7818608E-02  0.9876921E-01
         21   -1    0    0  501  502  0.00000000000E+00  0.00000000000E+00  0.23355894408E+04  0.23355894408E+04  0.00000000000E+00 0. -1.
         21   -1    0    0  502  503 -0.00000000000E+00 -0.00000000000E+00 -0.16149835203E+03  0.16149835203E+03  0.00000000000E+00 0. -1.
    9000007    1    1    2  501    0  0.38000717186E+03 -0.26926567392E+03  0.11213286472E+04  0.12783925018E+04  0.40000000000E+03 0. -1.
   -9000007    1    1    2    0  503 -0.38000717186E+03  0.26926567392E+03  0.10527624416E+04  0.12186952910E+04  0.40000000000E+03 0. -1.
<mgrwt>
<rscale>  2 0.61392952E+03</rscale>
<asrwt>0</asrwt>
<pdfrwt beam="1">  1       21 0.35932143E+00 0.61392952E+03</pdfrwt>
<pdfrwt beam="2">  1       21 0.24845902E-01 0.61392952E+03</pdfrwt>
<totfact> 0.16562049E+02</totfact>
</mgrwt>
</event>
<event>
 4    1  0.4675559E-002  0.4508839E+03  0.7818608E-02  0.1027459E+00
         21   -1    0    0  501  502  0.00000000000E+00  0.00000000000E+00  0.15317413312E+04  0.15317413312E+04  0.00000000000E+00 0. -1.
         21   -1    0    0  502  503 -0.00000000000E+00 -0.00000000000E+00 -0.54844635165E+03  0.54844635165E+03  0.00000000000E+00 0. -1.
    9000007    1    1    2  501    0 -0.20770159443E+03  0.12504264134E+02  0.13971882394E+04  0.14681387146E+04  0.40000000000E+03 0. -1.
   -9000007    1    1    2    0  503  0.20770159443E+03 -0.12504264134E+02 -0.41389325988E+03  0.61204896824E+03  0.40000000000E+03 0. -1.
<mgrwt>
<rscale>  2 0.45088392E+03</rscale>
<asrwt>0</asrwt>
<pdfrwt beam="1">  1       21 0.23565251E+00 0.45088392E+03</pdfrwt>
<pdfrwt beam="2">  1       21 0.84376362E-01 0.45088392E+03</pdfrwt>
<totfact> 0.77248907E+01</totfact>
</mgrwt>
</event>
<event>
 4    1  0.4675559E-002  0.5830486E+03  0.7818608E-02  0.9941213E-01
         21   -1    0    0  501  502  0.00000000000E+00  0.00000000000E+00  0.11902007756E+04  0.11902007756E+04  0.00000000000E+00 0. -1.
         21   -1    0    0  502  503 -0.00000000000E+00 -0.00000000000E+00 -0.11524402551E+04  0.11524402551E+04  0.00000000000E+00 0. -1.
    9000007    1    1    2  501    0  0.28944077889E+02  0.42321140727E+03  0.10347334725E+04  0.11876948320E+04  0.40000000000E+03 0. -1.
   -9000007    1    1    2    0  503 -0.28944077889E+02 -0.42321140727E+03 -0.99697295202E+03  0.11549461987E+04  0.40000000000E+03 0. -1.
<mgrwt>
<rscale>  2 0.58304859E+03</rscale>
<asrwt>0</asrwt>
<pdfrwt beam="1">  1       21 0.18310781E+00 0.58304859E+03</pdfrwt>
<pdfrwt beam="2">  1       21 0.17729850E+00 0.58304859E+03</pdfrwt>
<totfact> 0.23392936E+01</totfact>
</mgrwt>
</event>
<event>
 4    1  0.4675559E-002  0.5238874E+03  0.7818608E-02  0.1007725E+00
         21   -1    0    0  503  502  0.00000000000E+00  0.00000000000E+00  0.59621835965E+03  0.59621835965E+03  0.00000000000E+00 0.  1.
         21   -1    0    0  501  503 -0.00000000000E+00 -0.00000000000E+00 -0.47799685074E+03  0.47799685074E+03  0.00000000000E+00 0. -1.
    9000007    1    1    2  501    0  0.12639595730E+03 -0.31381846535E+03 -0.44144577085E+02  0.52574395946E+03  0.40000000000E+03 0.  1.
   -9000007    1    1    2    0  502 -0.12639595730E+03  0.31381846535E+03  0.16236608599E+03  0.54847125093E+03  0.40000000000E+03 0.  1.
<mgrwt>
<rscale>  2 0.52388736E+03</rscale>
<asrwt>0</asrwt>
<pdfrwt beam="1">  1       21 0.91725901E-01 0.52388736E+03</pdfrwt>
<pdfrwt beam="2">  1       21 0.73537977E-01 0.52388736E+03</pdfrwt>
<totfact> 0.13934555E+03</totfact>
</mgrwt>
</event>
<event>
 4    1  0.4675559E-002  0.4062698E+03  0.7818608E-02  0.1041630E+00
         21   -1    0    0  503  502  0.00000000000E+00  0.00000000000E+00  0.74691632320E+03  0.74691632320E+03  0.00000000000E+00 0. -1.
         21   -1    0    0  501  503 -0.00000000000E+00 -0.00000000000E+00 -0.38599505903E+03  0.38599505903E+03  0.00000000000E+00 0. -1.
    9000007    1    1    2  501    0  0.11405839078E+01 -0.71090474704E+02  0.55082915073E+03  0.68444715634E+03  0.40000000000E+03 0. -1.
   -9000007    1    1    2    0  502 -0.11405839078E+01  0.71090474704E+02 -0.18990788656E+03  0.44846422589E+03  0.40000000000E+03 0. -1.
<mgrwt>
<rscale>  2 0.40626981E+03</rscale>
<asrwt>0</asrwt>
<pdfrwt beam="1">  1       21 0.11491020E+00 0.40626981E+03</pdfrwt>
<pdfrwt beam="2">  1       21 0.59383855E-01 0.40626981E+03</pdfrwt>
<totfact> 0.13538496E+03</totfact>
</mgrwt>
</event>
<event>
 4    1  0.4675559E-002  0.4316004E+03  0.7818608E-02  0.1033356E+00
         21   -1    0    0  501  502  0.00000000000E+00  0.00000000000E+00  0.53608800692E+03  0.53608800692E+03  0.00000000000E+00 0.  1.
         21   -1    0    0  502  503 -0.00000000000E+00 -0.00000000000E+00 -0.40187003552E+03  0.40187003552E+03  0.00000000000E+00 0.  1.
    9000007    1    1    2  501    0  0.16168245290E+03  0.11733069101E+02  0.23964413098E+03  0.49366809700E+03  0.40000000000E+03 0.  1.
   -9000007    1    1    2    0  503 -0.16168245290E+03 -0.11733069101E+02 -0.10542615958E+03  0.44428994543E+03  0.40000000000E+03 0.  1.
<mgrwt>
<rscale>  2 0.43160037E+03</rscale>
<asrwt>0</asrwt>
<pdfrwt beam="1">  1       21 0.82475078E-01 0.43160037E+03</pdfrwt>
<pdfrwt beam="2">  1       21 0.61826159E-01 0.43160037E+03</pdfrwt>
<totfact> 0.27274910E+03</totfact>
</mgrwt>
</event>
<event>
 4    1  0.4675559E-002  0.6101522E+03  0.7818608E-02  0.9884564E-01
         21   -1    0    0  501  502  0.00000000000E+00  0.00000000000E+00  0.85768688254E+03  0.85768688254E+03  0.00000000000E+00 0. -1.
         21   -1    0    0  502  503 -0.00000000000E+00 -0.00000000000E+00 -0.51185685150E+03  0.51185685150E+03  0.00000000000E+00 0.  1.
    9000007    1    1    2  501    0 -0.34825231605E+03  0.30167205686E+03  0.43988271647E+03  0.75218515658E+03  0.40000000000E+03 0. -1.
   -9000007    1    1    2    0  503  0.34825231605E+03 -0.30167205686E+03 -0.94052685440E+02  0.61735857746E+03  0.40000000000E+03 0. -1.
<mgrwt>
<rscale>  2 0.61015220E+03</rscale>
<asrwt>0</asrwt>
<pdfrwt beam="1">  1       21 0.13195183E+00 0.61015220E+03</pdfrwt>
<pdfrwt beam="2">  1       21 0.78747208E-01 0.61015220E+03</pdfrwt>
<totfact> 0.46559466E+02</totfact>
</mgrwt>
</event>
<event>
 4    1  0.4675559E-002  0.4331881E+03  0.7818608E-02  0.1032858E+00
         21   -1    0    0  503  502  0.00000000000E+00  0.00000000000E+00  0.24200354424E+04  0.24200354424E+04  0.00000000000E+00 0. -1.
         21   -1    0    0  501  503 -0.00000000000E+00 -0.00000000000E+00 -0.10361641694E+03  0.10361641694E+03  0.00000000000E+00 0.  1.
    9000007    1    1    2  501    0 -0.91018747059E+02  0.13916721930E+03  0.52521355848E+03  0.68080923118E+03  0.40000000000E+03 0.  1.
   -9000007    1    1    2    0  502  0.91018747059E+02 -0.13916721930E+03  0.17912054670E+04  0.18428426282E+04  0.40000000000E+03 0. -1.
<mgrwt>
<rscale>  2 0.43318810E+03</rscale>
<asrwt>0</asrwt>
<pdfrwt beam="1">  1       21 0.37231310E+00 0.43318810E+03</pdfrwt>
<pdfrwt beam="2">  1       21 0.15940989E-01 0.43318810E+03</pdfrwt>
<totfact> 0.35417082E+02</totfact>
</mgrwt>
</event>
<event>
 4    1  0.4675559E-002  0.4948081E+03  0.7818608E-02  0.1015143E+00
         21   -1    0    0  503  502  0.00000000000E+00  0.00000000000E+00  0.18615180172E+04  0.18615180172E+04  0.00000000000E+00 0. -1.
         21   -1    0    0  501  503 -0.00000000000E+00 -0.00000000000E+00 -0.13157196810E+03  0.13157196810E+03  0.00000000000E+00 0. -1.
    9000007    1    1    2  501    0  0.19955526786E+03  0.21216212292E+03  0.88391812806E+03  0.10129888096E+04  0.40000000000E+03 0. -1.
   -9000007    1    1    2    0  502 -0.19955526786E+03 -0.21216212292E+03  0.84602792101E+03  0.98010117563E+03  0.40000000000E+03 0. -1.
<mgrwt>
<rscale>  2 0.49480812E+03</rscale>
<asrwt>0</asrwt>
<pdfrwt beam="1">  1       21 0.28638737E+00 0.49480812E+03</pdfrwt>
<pdfrwt beam="2">  1       21 0.20241843E-01 0.49480812E+03</pdfrwt>
<totfact> 0.72736642E+02</totfact>
</mgrwt>
</event>
<event>
 4    1  0.4675559E-002  0.4009776E+03  0.7818608E-02  0.1043442E+00
         21   -1    0    0  503  502  0.00000000000E+00  0.00000000000E+00  0.64246837335E+03  0.64246837335E+03  0.00000000000E+00 0. -1.
         21   -1    0    0  501  503 -0.00000000000E+00 -0.00000000000E+00 -0.28674318938E+03  0.28674318938E+03  0.00000000000E+00 0. -1.
    9000007    1    1    2  501    0 -0.23554095049E+01 -0.27883204195E+02  0.12135017738E+02  0.40116116423E+03  0.40000000000E+03 0. -1.
   -9000007    1    1    2    0  502  0.23554095049E+01  0.27883204195E+02  0.34359016623E+03  0.52805039850E+03  0.40000000000E+03 0. -1.
<mgrwt>
<rscale>  2 0.40097758E+03</rscale>
<asrwt>0</asrwt>
<pdfrwt beam="1">  1       21 0.98841288E-01 0.40097758E+03</pdfrwt>
<pdfrwt beam="2">  1       21 0.44114337E-01 0.40097758E+03</pdfrwt>
<totfact> 0.37021992E+03</totfact>
</mgrwt>
</event>
<event>
 4    1  0.4675559E-002  0.4075542E+03  0.7818608E-02  0.1041195E+00
         21   -1    0    0  503  502  0.00000000000E+00  0.00000000000E+00  0.41004550267E+03  0.41004550267E+03  0.00000000000E+00 0. -1.
         21   -1    0    0  501  503 -0.00000000000E+00 -0.00000000000E+00 -0.10456813434E+04  0.10456813434E+04  0.00000000000E+00 0.  1.
    9000007    1    1    2  501    0  0.25444564829E+02 -0.73844582657E+02 -0.88751604043E+03  0.97661925554E+03  0.40000000000E+03 0.  1.
   -9000007    1    1    2    0  502 -0.25444564829E+02  0.73844582657E+02  0.25188019972E+03  0.47910759050E+03  0.40000000000E+03 0. -1.
<mgrwt>
<rscale>  2 0.40755423E+03</rscale>
<asrwt>0</asrwt>
<pdfrwt beam="1">  1       21 0.63083925E-01 0.40755423E+03</pdfrwt>
<pdfrwt beam="2">  1       21 0.16087405E+00 0.40755423E+03</pdfrwt>
<totfact> 0.48917895E+02</totfact>
</mgrwt>
</event>
<event>
 4    1  0.4675559E-002  0.4216630E+03  0.7818608E-02  0.1036526E+00
         21   -1    0    0  501  502  0.00000000000E+00  0.00000000000E+00  0.42595137644E+03  0.42595137644E+03  0.00000000000E+00 0.  1.
         21   -1    0    0  502  503 -0.00000000000E+00 -0.00000000000E+00 -0.48427938308E+03  0.48427938308E+03  0.00000000000E+00 0.  1.
    9000007    1    1    2  501    0 -0.21387106770E+02 -0.13168992609E+03  0.13994322270E+03  0.44427891077E+03  0.40000000000E+03 0.  1.
   -9000007    1    1    2    0  503  0.21387106770E+02  0.13168992609E+03 -0.19827122935E+03  0.46595184875E+03  0.40000000000E+03 0.  1.
<mgrwt>
<rscale>  2 0.42166295E+03</rscale>
<asrwt>0</asrwt>
<pdfrwt beam="1">  1       21 0.65530981E-01 0.42166295E+03</pdfrwt>
<pdfrwt beam="2">  1       21 0.74504521E-01 0.42166295E+03</pdfrwt>
<totfact> 0.30403544E+03</totfact>
</mgrwt>
</event>
<event>
 4    1  0.4675559E-002  0.6336598E+03  0.7818608E-02  0.9837933E-01
         21   -1    0    0  503  502  0.00000000000E+00  0.00000000000E+00  0.35676148976E+03  0.35676148976E+03  0.00000000000E+00 0.  1.
         21   -1    0    0  501  503 -0.00000000000E+00 -0.00000000000E+00 -0.11258981077E+04  0.11258981077E+04  0.00000000000E+00 0. -1.
    9000007    1    1    2  501    0 -0.45786283926E+03 -0.17856769293E+03 -0.37013378546E+03  0.73384182197E+03  0.40000000000E+03 0.  1.
   -9000007    1    1    2    0  502  0.45786283926E+03  0.17856769293E+03 -0.39900283243E+03  0.74881777544E+03  0.40000000000E+03 0. -1.
<mgrwt>
<rscale>  2 0.63365985E+03</rscale>
<asrwt>0</asrwt>
<pdfrwt beam="1">  1       21 0.54886383E-01 0.63365985E+03</pdfrwt>
<pdfrwt beam="2">  1       21 0.17321510E+00 0.63365985E+03</pdfrwt>
<totfact> 0.49019934E+02</totfact>
</mgrwt>
</event>
<event>
 4    1  0.4675559E-002  0.4303676E+03  0.7818608E-02  0.1033744E+00
         21   -1    0    0  501  502  0.00000000000E+00  0.00000000000E+00  0.60442287185E+03  0.60442287185E+03  0.00000000000E+00 0.  1.
         21   -1    0    0  502  503 -0.00000000000E+00 -0.00000000000E+00 -0.40121059131E+03  0.40121059131E+03  0.00000000000E+00 0.  1.
    9000007    1    1    2  501    0 -0.14399954842E+03  0.66935882732E+02  0.34598966853E+03  0.55220026537E+03  0.40000000000E+03 0.  1.
   -9000007    1    1    2    0  503  0.14399954842E+03 -0.66935882732E+02 -0.14277738799E+03  0.45343319780E+03  0.40000000000E+03 0.  1.
<mgrwt>
<rscale>  2 0.43036761E+03</rscale>
<asrwt>0</asrwt>
<pdfrwt beam="1">  1       21 0.92988134E-01 0.43036761E+03</pdfrwt>
<pdfrwt beam="2">  1       21 0.61724706E-01 0.43036761E+03</pdfrwt>
<totfact> 0.20652347E+03</totfact>
</mgrwt>
</event>
<event>
 4    1  0.4675559E-002  0.5243456E+03  0.7818608E-02  0.1007613E+00
         21   -1    0    0  503  502  0.00000000000E+00  0.00000000000E+00  0.25553412755E+04  0.25553412755E+04  0.00000000000E+00 0.  1.
         21   -1    0    0  501  503 -0.00000000000E+00 -0.00000000000E+00 -0.15034432396E+03  0.15034432396E+03  0.00000000000E+00 0. -1.
    9000007    1    1    2  501    0  0.40958048428E+02  0.33654234675E+03  0.48109926845E+03  0.71161423468E+03  0.40000000000E+03 0. -1.
   -9000007    1    1    2    0  502 -0.40958048428E+02 -0.33654234675E+03  0.19238976831E+04  0.19940713648E+04  0.40000000000E+03 0.  1.
<mgrwt>
<rscale>  2 0.52434560E+03</rscale>
<asrwt>0</asrwt>
<pdfrwt beam="1">  1       21 0.39312939E+00 0.52434560E+03</pdfrwt>
<pdfrwt beam="2">  1       21 0.23129898E-01 0.52434560E+03</pdfrwt>
<totfact> 0.12194542E+02</totfact>
</mgrwt>
</event>
<event>
 4    1  0.4675559E-002  0.4695379E+03  0.7818608E-02  0.1022051E+00
         21   -1    0    0  501  502  0.00000000000E+00  0.00000000000E+00  0.54666807298E+03  0.54666807298E+03  0.00000000000E+00 0.  1.
         21   -1    0    0  502  503 -0.00000000000E+00 -0.00000000000E+00 -0.40813368539E+03  0.40813368539E+03  0.00000000000E+00 0. -1.
    9000007    1    1    2  501    0 -0.27808359434E+01  0.24588226792E+03  0.12127462458E+03  0.48494675717E+03  0.40000000000E+03 0.  1.
   -9000007    1    1    2    0  503  0.27808359434E+01 -0.24588226792E+03  0.17259763014E+02  0.46985500119E+03  0.40000000000E+03 0. -1.
<mgrwt>
<rscale>  2 0.46953788E+03</rscale>
<asrwt>0</asrwt>
<pdfrwt beam="1">  1       21 0.84102780E-01 0.46953788E+03</pdfrwt>
<pdfrwt beam="2">  1       21 0.62789798E-01 0.46953788E+03</pdfrwt>
<totfact> 0.24843688E+03</totfact>
</mgrwt>
</event>
<event>
 4    1  0.4675559E-002  0.4240480E+03  0.7818608E-02  0.1035757E+00
         21   -1    0    0  503  502  0.00000000000E+00  0.00000000000E+00  0.18995951148E+03  0.18995951148E+03  0.00000000000E+00 0.  1.
         21   -1    0    0  501  503 -0.00000000000E+00 -0.00000000000E+00 -0.16778088818E+04  0.16778088818E+04  0.00000000000E+00 0.  1.
    9000007    1    1    2  501    0  0.13789298315E+03  0.28324376683E+02 -0.13604356932E+04  0.14249919370E+04  0.40000000000E+03 0.  1.
   -9000007    1    1    2    0  502 -0.13789298315E+03 -0.28324376683E+02 -0.12741367707E+03  0.44277645626E+03  0.40000000000E+03 0.  1.
<mgrwt>
<rscale>  2 0.42404805E+03</rscale>
<asrwt>0</asrwt>
<pdfrwt beam="1">  1       21 0.29224541E-01 0.42404805E+03</pdfrwt>
<pdfrwt beam="2">  1       21 0.25812444E+00 0.42404805E+03</pdfrwt>
<totfact> 0.54875976E+02</totfact>
</mgrwt>
</event>
<event>
 4    1  0.4675559E-002  0.4660182E+03  0.7818608E-02  0.1023050E+00
         21   -1    0    0  503  502  0.00000000000E+00  0.00000000000E+00  0.37352020353E+03  0.37352020353E+03  0.00000000000E+00 0. -1.
         21   -1    0    0  501  503 -0.00000000000E+00 -0.00000000000E+00 -0.62734510398E+03  0.62734510398E+03  0.00000000000E+00 0.  1.
    9000007    1    1    2  501    0  0.11845537822E+03 -0.20770483504E+03  0.84837858330E+01  0.46609542987E+03  0.40000000000E+03 0. -1.
   -9000007    1    1    2    0  502 -0.11845537822E+03  0.20770483504E+03 -0.26230868628E+03  0.53476987763E+03  0.40000000000E+03 0. -1.
<mgrwt>
<rscale>  2 0.46601821E+03</rscale>
<asrwt>0</asrwt>
<pdfrwt beam="1">  1       21 0.57464647E-01 0.46601821E+03</pdfrwt>
<pdfrwt beam="2">  1       21 0.96514631E-01 0.46601821E+03</pdfrwt>
<totfact> 0.21798342E+03</totfact>
</mgrwt>
</event>
<event>
 4    1  0.4675559E-002  0.7334178E+03  0.7818608E-02  0.9661731E-01
         21   -1    0    0  501  502  0.00000000000E+00  0.00000000000E+00  0.23981944023E+03  0.23981944023E+03  0.00000000000E+00 0. -1.
         21   -1    0    0  502  503 -0.00000000000E+00 -0.00000000000E+00 -0.22587271115E+04  0.22587271115E+04  0.00000000000E+00 0.  1.
    9000007    1    1    2  501    0 -0.17481144994E+03  0.58935775003E+03 -0.90502501129E+03  0.11648913561E+04  0.40000000000E+03 0. -1.
   -9000007    1    1    2    0  503  0.17481144994E+03 -0.58935775003E+03 -0.11138826600E+04  0.13336551956E+04  0.40000000000E+03 0.  1.
<mgrwt>
<rscale>  2 0.73341775E+03</rscale>
<asrwt>0</asrwt>
<pdfrwt beam="1">  1       21 0.36895298E-01 0.73341775E+03</pdfrwt>
<pdfrwt beam="2">  1       21 0.34749648E+00 0.73341775E+03</pdfrwt>
<totfact> 0.84392668E+01</totfact>
</mgrwt>
</event>
<event>
 4    1  0.4675559E-002  0.4536067E+03  0.7818608E-02  0.1026652E+00
         21   -1    0    0  501  502  0.00000000000E+00  0.00000000000E+00  0.45109962567E+03  0.45109962567E+03  0.00000000000E+00 0.  1.
         21   -1    0    0  502  503 -0.00000000000E+00 -0.00000000000E+00 -0.57412765428E+03  0.57412765428E+03  0.00000000000E+00 0.  1.
    9000007    1    1    2  501    0  0.21390552520E+03  0.18646178283E+01  0.17088098573E+03  0.48472606882E+03  0.40000000000E+03 0.  1.
   -9000007    1    1    2    0  503 -0.21390552520E+03 -0.18646178283E+01 -0.29390901435E+03  0.54050121112E+03  0.40000000000E+03 0.  1.
<mgrwt>
<rscale>  2 0.45360671E+03</rscale>
<asrwt>0</asrwt>
<pdfrwt beam="1">  1       21 0.69399943E-01 0.45360671E+03</pdfrwt>
<pdfrwt beam="2">  1       21 0.88327331E-01 0.45360671E+03</pdfrwt>
<totfact> 0.17816701E+03</totfact>
</mgrwt>
</event>
<event>
 4    1  0.4675559E-002  0.4051380E+03  0.7818608E-02  0.1042015E+00
         21   -1    0    0  503  502  0.00000000000E+00  0.00000000000E+00  0.20683569225E+03  0.20683569225E+03  0.00000000000E+00 0.  1.
         21   -1    0    0  501  503 -0.00000000000E+00 -0.00000000000E+00 -0.13476670409E+04  0.13476670409E+04  0.00000000000E+00 0.  1.
    9000007    1    1    2  501    0  0.38800551215E+02 -0.51296286105E+02 -0.10688024760E+04  0.11430116029E+04  0.40000000000E+03 0.  1.
   -9000007    1    1    2    0  502 -0.38800551215E+02  0.51296286105E+02 -0.72028872639E+02  0.41149113020E+03  0.40000000000E+03 0.  1.
<mgrwt>
<rscale>  2 0.40513799E+03</rscale>
<asrwt>0</asrwt>
<pdfrwt beam="1">  1       21 0.31820874E-01 0.40513799E+03</pdfrwt>
<pdfrwt beam="2">  1       21 0.20733340E+00 0.40513799E+03</pdfrwt>
<totfact> 0.97401351E+02</totfact>
</mgrwt>
</event>
<event>
 4    1  0.4675559E-002  0.4503164E+03  0.7818608E-02  0.1027628E+00
         21   -1    0    0  501  502  0.00000000000E+00  0.00000000000E+00  0.13449842541E+04  0.13449842541E+04  0.00000000000E+00 0.  1.
         21   -1    0    0  502  503 -0.00000000000E+00 -0.00000000000E+00 -0.49446704369E+03  0.49446704369E+03  0.00000000000E+00 0.  1.
    9000007    1    1    2  501    0 -0.18804328146E+03  0.86165898163E+02  0.11920492174E+04  0.12742708403E+04  0.40000000000E+03 0.  1.
   -9000007    1    1    2    0  503  0.18804328146E+03 -0.86165898163E+02 -0.34153200701E+03  0.56518045748E+03  0.40000000000E+03 0.  1.
<mgrwt>
<rscale>  2 0.45031638E+03</rscale>
<asrwt>0</asrwt>
<pdfrwt beam="1">  1       21 0.20692065E+00 0.45031638E+03</pdfrwt>
<pdfrwt beam="2">  1       21 0.76071854E-01 0.45031638E+03</pdfrwt>
<totfact> 0.14983041E+02</totfact>
</mgrwt>
</event>
<event>
 4    1  0.4675559E-002  0.4328064E+03  0.7818608E-02  0.1032977E+00
         21   -1    0    0  501  502  0.00000000000E+00  0.00000000000E+00  0.69571504864E+03  0.69571504864E+03  0.00000000000E+00 0.  1.
         21   -1    0    0  502  503 -0.00000000000E+00 -0.00000000000E+00 -0.33520970345E+03  0.33520970345E+03  0.00000000000E+00 0.  1.
    9000007    1    1    2  501    0 -0.16482837147E+03  0.12370349127E+02  0.40890591364E+03  0.59542040928E+03  0.40000000000E+03 0.  1.
   -9000007    1    1    2    0  503  0.16482837147E+03 -0.12370349127E+02 -0.48400568451E+02  0.43550434281E+03  0.40000000000E+03 0.  1.
<mgrwt>
<rscale>  2 0.43280644E+03</rscale>
<asrwt>0</asrwt>
<pdfrwt beam="1">  1       21 0.10703308E+00 0.43280644E+03</pdfrwt>
<pdfrwt beam="2">  1       21 0.51570724E-01 0.43280644E+03</pdfrwt>
<totfact> 0.21651440E+03</totfact>
</mgrwt>
</event>
<event>
 4    1  0.4675559E-002  0.5641949E+03  0.7818608E-02  0.9982607E-01
         21   -1    0    0  501  502  0.00000000000E+00  0.00000000000E+00  0.82346358582E+03  0.82346358582E+03  0.00000000000E+00 0.  1.
         21   -1    0    0  502  503 -0.00000000000E+00 -0.00000000000E+00 -0.38673824141E+03  0.38673824141E+03  0.00000000000E+00 0. -1.
    9000007    1    1    2  501    0  0.21836536777E+03 -0.33261452256E+03  0.23145138274E+03  0.60982423454E+03  0.40000000000E+03 0. -1.
   -9000007    1    1    2    0  503 -0.21836536777E+03  0.33261452256E+03  0.20527396167E+03  0.60037759269E+03  0.40000000000E+03 0.  1.
<mgrwt>
<rscale>  2 0.56419487E+03</rscale>
<asrwt>0</asrwt>
<pdfrwt beam="1">  1       21 0.12668671E+00 0.56419487E+03</pdfrwt>
<pdfrwt beam="2">  1       21 0.59498191E-01 0.56419487E+03</pdfrwt>
<totfact> 0.98989893E+02</totfact>
</mgrwt>
</event>
<event>
 4    1  0.4675559E-002  0.4067002E+03  0.7818608E-02  0.1041484E+00
         21   -1    0    0  503  502  0.00000000000E+00  0.00000000000E+00  0.28554201811E+03  0.28554201811E+03  0.00000000000E+00 0. -1.
         21   -1    0    0  501  503 -0.00000000000E+00 -0.00000000000E+00 -0.58149324159E+03  0.58149324159E+03  0.00000000000E+00 0. -1.
    9000007    1    1    2  501    0 -0.31720219970E+02 -0.66323950989E+02 -0.12115117520E+03  0.42436145688E+03  0.40000000000E+03 0. -1.
   -9000007    1    1    2    0  502  0.31720219970E+02  0.66323950989E+02 -0.17480004828E+03  0.44267380282E+03  0.40000000000E+03 0. -1.
<mgrwt>
<rscale>  2 0.40670018E+03</rscale>
<asrwt>0</asrwt>
<pdfrwt beam="1">  1       21 0.43929541E-01 0.40670018E+03</pdfrwt>
<pdfrwt beam="2">  1       21 0.89460498E-01 0.40670018E+03</pdfrwt>
<totfact> 0.47269506E+03</totfact>
</mgrwt>
</event>
<event>
 4    1  0.4675559E-002  0.5287199E+03  0.7818608E-02  0.1006543E+00
         21   -1    0    0  501  502  0.00000000000E+00  0.00000000000E+00  0.41075026053E+03  0.41075026053E+03  0.00000000000E+00 0. -1.
         21   -1    0    0  502  503 -0.00000000000E+00 -0.00000000000E+00 -0.68365721096E+03  0.68365721096E+03  0.00000000000E+00 0.  1.
    9000007    1    1    2  501    0  0.34552051586E+03 -0.12661173992E+02 -0.99688031873E+02  0.53803571992E+03  0.40000000000E+03 0. -1.
   -9000007    1    1    2    0  503 -0.34552051586E+03  0.12661173992E+02 -0.17321891855E+03  0.55637175158E+03  0.40000000000E+03 0.  1.
<mgrwt>
<rscale>  2 0.52871990E+03</rscale>
<asrwt>0</asrwt>
<pdfrwt beam="1">  1       21 0.63192348E-01 0.52871990E+03</pdfrwt>
<pdfrwt beam="2">  1       21 0.10517803E+00 0.52871990E+03</pdfrwt>
<totfact> 0.14032793E+03</totfact>
</mgrwt>
</event>
<event>
 4    1  0.4675559E-002  0.4051041E+03  0.7818608E-02  0.1042027E+00
         21   -1    0    0  501  502  0.00000000000E+00  0.00000000000E+00  0.20197184546E+04  0.20197184546E+04  0.00000000000E+00 0.  1.
         21   -1    0    0  502  503 -0.00000000000E+00 -0.00000000000E+00 -0.12880905995E+03  0.12880905995E+03  0.00000000000E+00 0.  1.
    9000007    1    1    2  501    0 -0.54368215161E+02  0.33961863607E+02  0.15981915044E+04  0.16487344831E+04  0.40000000000E+03 0. -1.
   -9000007    1    1    2    0  503  0.54368215161E+02 -0.33961863607E+02  0.29271789017E+03  0.49979303139E+03  0.40000000000E+03 0. -1.
<mgrwt>
<rscale>  2 0.40510407E+03</rscale>
<asrwt>0</asrwt>
<pdfrwt beam="1">  1       21 0.31072589E+00 0.40510407E+03</pdfrwt>
<pdfrwt beam="2">  1       21 0.19816780E-01 0.40510407E+03</pdfrwt>
<totfact> 0.56853650E+02</totfact>
</mgrwt>
</event>
<event>
 4    1  0.4675559E-002  0.4406437E+03  0.7818608E-02  0.1030550E+00
         21   -1    0    0  501  502  0.00000000000E+00  0.00000000000E+00  0.40725672912E+03  0.40725672912E+03  0.00000000000E+00 0.  1.
         21   -1    0    0  502  503 -0.00000000000E+00 -0.00000000000E+00 -0.51081278198E+03  0.51081278198E+03  0.00000000000E+00 0.  1.
    9000007    1    1    2  501    0  0.15728929180E+03 -0.97092337802E+02  0.66728440490E+02  0.44566750851E+03  0.40000000000E+03 0.  1.
   -9000007    1    1    2    0  503 -0.15728929180E+03  0.97092337802E+02 -0.17028449335E+03  0.47240200259E+03  0.40000000000E+03 0.  1.
<mgrwt>
<rscale>  2 0.44064367E+03</rscale>
<asrwt>0</asrwt>
<pdfrwt beam="1">  1       21 0.62654882E-01 0.44064367E+03</pdfrwt>
<pdfrwt beam="2">  1       21 0.78586582E-01 0.44064367E+03</pdfrwt>
<totfact> 0.29515756E+03</totfact>
</mgrwt>
</event>
<event>
 4    1  0.4675559E-002  0.5757990E+03  0.7818608E-02  0.9956928E-01
         21   -1    0    0  501  502  0.00000000000E+00  0.00000000000E+00  0.88172440239E+03  0.88172440239E+03  0.00000000000E+00 0.  1.
         21   -1    0    0  502  503 -0.00000000000E+00 -0.00000000000E+00 -0.40159188789E+03  0.40159188789E+03  0.00000000000E+00 0.  1.
    9000007    1    1    2  501    0 -0.27282725857E+03 -0.31162444196E+03  0.78143785312E+02  0.58107741053E+03  0.40000000000E+03 0.  1.
   -9000007    1    1    2    0  503  0.27282725857E+03  0.31162444196E+03  0.40198872918E+03  0.70223887975E+03  0.40000000000E+03 0.  1.
<mgrwt>
<rscale>  2 0.57579902E+03</rscale>
<asrwt>0</asrwt>
<pdfrwt beam="1">  1       21 0.13564991E+00 0.57579902E+03</pdfrwt>
<pdfrwt beam="2">  1       21 0.61783368E-01 0.57579902E+03</pdfrwt>
<totfact> 0.75865983E+02</totfact>
</mgrwt>
</event>
<event>
 4    1  0.4675559E-002  0.5294816E+03  0.7818608E-02  0.1006358E+00
         21   -1    0    0  503  502  0.00000000000E+00  0.00000000000E+00  0.24728291416E+03  0.24728291416E+03  0.00000000000E+00 0.  1.
         21   -1    0    0  501  503 -0.00000000000E+00 -0.00000000000E+00 -0.11661762507E+04  0.11661762507E+04  0.00000000000E+00 0.  1.
    9000007    1    1    2  501    0  0.25243391646E+02 -0.34599637102E+03 -0.57734012880E+03  0.78337241584E+03  0.40000000000E+03 0.  1.
   -9000007    1    1    2    0  502 -0.25243391646E+02  0.34599637102E+03 -0.34155320778E+03  0.63008674905E+03  0.40000000000E+03 0.  1.
<mgrwt>
<rscale>  2 0.52948156E+03</rscale>
<asrwt>0</asrwt>
<pdfrwt beam="1">  1       21 0.38043526E-01 0.52948156E+03</pdfrwt>
<pdfrwt beam="2">  1       21 0.17941173E+00 0.52948156E+03</pdfrwt>
<totfact> 0.99462238E+02</totfact>
</mgrwt>
</event>
<event>
 4    1  0.4675559E-002  0.4447460E+03  0.7818608E-02  0.1029301E+00
         21   -1    0    0  503  502  0.00000000000E+00  0.00000000000E+00  0.18960295730E+03  0.18960295730E+03  0.00000000000E+00 0. -1.
         21   -1    0    0  501  503 -0.00000000000E+00 -0.00000000000E+00 -0.13830478817E+04  0.13830478817E+04  0.00000000000E+00 0.  1.
    9000007    1    1    2  501    0 -0.46387018593E+02  0.18880478281E+03 -0.20695239989E+03  0.49053878269E+03  0.40000000000E+03 0. -1.
   -9000007    1    1    2    0  502  0.46387018593E+02 -0.18880478281E+03 -0.98649252451E+03  0.10821120563E+04  0.40000000000E+03 0.  1.
<mgrwt>
<rscale>  2 0.44474600E+03</rscale>
<asrwt>0</asrwt>
<pdfrwt beam="1">  1       21 0.29169684E-01 0.44474600E+03</pdfrwt>
<pdfrwt beam="2">  1       21 0.21277661E+00 0.44474600E+03</pdfrwt>
<totfact> 0.10466348E+03</totfact>
</mgrwt>
</event>
<event>
 4    1  0.4675559E-002  0.4263829E+03  0.7818608E-02  0.1035009E+00
         21   -1    0    0  501  502  0.00000000000E+00  0.00000000000E+00  0.82723210015E+03  0.82723210015E+03  0.00000000000E+00 0.  1.
         21   -1    0    0  502  503 -0.00000000000E+00 -0.00000000000E+00 -0.24939025291E+03  0.24939025291E+03  0.00000000000E+00 0.  1.
    9000007    1    1    2  501    0 -0.75292542871E+02  0.12701743670E+03  0.47443372416E+03  0.63787910677E+03  0.40000000000E+03 0.  1.
   -9000007    1    1    2    0  503  0.75292542871E+02 -0.12701743670E+03  0.10340812308E+03  0.43874324628E+03  0.40000000000E+03 0.  1.
<mgrwt>
<rscale>  2 0.42638292E+03</rscale>
<asrwt>0</asrwt>
<pdfrwt beam="1">  1       21 0.12726648E+00 0.42638292E+03</pdfrwt>
<pdfrwt beam="2">  1       21 0.38367732E-01 0.42638292E+03</pdfrwt>
<totfact> 0.26042442E+03</totfact>
</mgrwt>
</event>
<event>
 4    1  0.4675559E-002  0.4127402E+03  0.7818608E-02  0.1039455E+00
         21   -1    0    0  501  502  0.00000000000E+00  0.00000000000E+00  0.10709891335E+04  0.10709891335E+04  0.00000000000E+00 0.  1.
         21   -1    0    0  502  503 -0.00000000000E+00 -0.00000000000E+00 -0.15986985485E+03  0.15986985485E+03  0.00000000000E+00 0.  1.
    9000007    1    1    2  501    0 -0.62566028556E+02 -0.80249276132E+02  0.41183103103E+03  0.58306024763E+03  0.40000000000E+03 0.  1.
   -9000007    1    1    2    0  503  0.62566028556E+02  0.80249276132E+02  0.49928824759E+03  0.64779874068E+03  0.40000000000E+03 0.  1.
<mgrwt>
<rscale>  2 0.41274018E+03</rscale>
<asrwt>0</asrwt>
<pdfrwt beam="1">  1       21 0.16476755E+00 0.41274018E+03</pdfrwt>
<pdfrwt beam="2">  1       21 0.24595363E-01 0.41274018E+03</pdfrwt>
<totfact> 0.31727312E+03</totfact>
</mgrwt>
</event>
<event>
 4    1  0.4675559E-002  0.4350317E+03  0.7818608E-02  0.1032282E+00
         21   -1    0    0  503  502  0.00000000000E+00  0.00000000000E+00  0.35151336123E+03  0.35151336123E+03  0.00000000000E+00 0. -1.
         21   -1    0    0  501  503 -0.00000000000E+00 -0.00000000000E+00 -0.92338594230E+03  0.92338594230E+03  0.00000000000E+00 0. -1.
    9000007    1    1    2  501    0 -0.16467386733E+03 -0.46207361811E+02 -0.69754088145E+03  0.82208021759E+03  0.40000000000E+03 0. -1.
   -9000007    1    1    2    0  502  0.16467386733E+03  0.46207361811E+02  0.12566830039E+03  0.45281908594E+03  0.40000000000E+03 0. -1.
<mgrwt>
<rscale>  2 0.43503173E+03</rscale>
<asrwt>0</asrwt>
<pdfrwt beam="1">  1       21 0.54078978E-01 0.43503173E+03</pdfrwt>
<pdfrwt beam="2">  1       21 0.14205938E+00 0.43503173E+03</pdfrwt>
<totfact> 0.94716601E+02</totfact>
</mgrwt>
</event>
<event>
 4    1  0.4675559E-002  0.4484717E+03  0.7818608E-02  0.1028179E+00
         21   -1    0    0  501  502  0.00000000000E+00  0.00000000000E+00  0.43927529821E+03  0.43927529821E+03  0.00000000000E+00 0.  1.
         21   -1    0    0  502  503 -0.00000000000E+00 -0.00000000000E+00 -0.85722240531E+03  0.85722240531E+03  0.00000000000E+00 0. -1.
    9000007    1    1    2  501    0  0.16995551028E+03 -0.11064360367E+03  0.23349073513E+03  0.50561329680E+03  0.40000000000E+03 0. -1.
   -9000007    1    1    2    0  503 -0.16995551028E+03  0.11064360367E+03 -0.65143784222E+03  0.79088440672E+03  0.40000000000E+03 0. -1.
<mgrwt>
<rscale>  2 0.44847172E+03</rscale>
<asrwt>0</asrwt>
<pdfrwt beam="1">  1       21 0.67580815E-01 0.44847172E+03</pdfrwt>
<pdfrwt beam="2">  1       21 0.13188037E+00 0.44847172E+03</pdfrwt>
<totfact> 0.70244069E+02</totfact>
</mgrwt>
</event>
<event>
 4    1  0.4675559E-002  0.4221358E+03  0.7818608E-02  0.1036373E+00
         21   -1    0    0  503  502  0.00000000000E+00  0.00000000000E+00  0.17970330611E+03  0.17970330611E+03  0.00000000000E+00 0.  1.
         21   -1    0    0  501  503 -0.00000000000E+00 -0.00000000000E+00 -0.12160408840E+04  0.12160408840E+04  0.00000000000E+00 0.  1.
    9000007    1    1    2  501    0 -0.54488226592E+02  0.12340840734E+03 -0.81796550206E+03  0.92047062115E+03  0.40000000000E+03 0.  1.
   -9000007    1    1    2    0  502  0.54488226592E+02 -0.12340840734E+03 -0.21837207580E+03  0.47527356894E+03  0.40000000000E+03 0.  1.
<mgrwt>
<rscale>  2 0.42213576E+03</rscale>
<asrwt>0</asrwt>
<pdfrwt beam="1">  1       21 0.27646662E-01 0.42213576E+03</pdfrwt>
<pdfrwt beam="2">  1       21 0.18708322E+00 0.42213576E+03</pdfrwt>
<totfact> 0.17440220E+03</totfact>
</mgrwt>
</event>
<event>
 4    1  0.4675559E-002  0.4357043E+03  0.7818608E-02  0.1032073E+00
         21   -1    0    0  501  502  0.00000000000E+00  0.00000000000E+00  0.81603332676E+03  0.81603332676E+03  0.00000000000E+00 0.  1.
         21   -1    0    0  502  503 -0.00000000000E+00 -0.00000000000E+00 -0.30724489334E+03  0.30724489334E+03  0.00000000000E+00 0.  1.
    9000007    1    1    2  501    0  0.11497489107E+02 -0.17235442320E+03  0.53115977948E+03  0.68699996419E+03  0.40000000000E+03 0.  1.
   -9000007    1    1    2    0  503 -0.11497489107E+02  0.17235442320E+03 -0.22371346063E+02  0.43627825591E+03  0.40000000000E+03 0.  1.
<mgrwt>
<rscale>  2 0.43570430E+03</rscale>
<asrwt>0</asrwt>
<pdfrwt beam="1">  1       21 0.12554359E+00 0.43570430E+03</pdfrwt>
<pdfrwt beam="2">  1       21 0.47268446E-01 0.43570430E+03</pdfrwt>
<totfact> 0.17424020E+03</totfact>
</mgrwt>
</event>
<event>
 4    1  0.4675559E-002  0.4390019E+03  0.7818608E-02  0.1031053E+00
         21   -1    0    0  503  502  0.00000000000E+00  0.00000000000E+00  0.30518103597E+03  0.30518103597E+03  0.00000000000E+00 0. -1.
         21   -1    0    0  501  503 -0.00000000000E+00 -0.00000000000E+00 -0.78339102047E+03  0.78339102047E+03  0.00000000000E+00 0. -1.
    9000007    1    1    2  501    0  0.10741849032E+03 -0.14554692988E+03 -0.47876750915E+03  0.64956983356E+03  0.40000000000E+03 0. -1.
   -9000007    1    1    2    0  502 -0.10741849032E+03  0.14554692988E+03  0.55752464694E+00  0.43900222288E+03  0.40000000000E+03 0. -1.
<mgrwt>
<rscale>  2 0.43900187E+03</rscale>
<asrwt>0</asrwt>
<pdfrwt beam="1">  1       21 0.46950930E-01 0.43900187E+03</pdfrwt>
<pdfrwt beam="2">  1       21 0.12052169E+00 0.43900187E+03</pdfrwt>
<totfact> 0.19594577E+03</totfact>
</mgrwt>
</event>
<event>
 4    1  0.4675559E-002  0.4787262E+03  0.7818608E-02  0.1019486E+00
         21   -1    0    0  501  502  0.00000000000E+00  0.00000000000E+00  0.70445924307E+03  0.70445924307E+03  0.00000000000E+00 0. -1.
         21   -1    0    0  502  503 -0.00000000000E+00 -0.00000000000E+00 -0.99338055081E+03  0.99338055081E+03  0.00000000000E+00 0. -1.
    9000007    1    1    2  501    0 -0.15329925434E+03 -0.21372448277E+03  0.55170868520E+03  0.73045279741E+03  0.40000000000E+03 0. -1.
   -9000007    1    1    2    0  503  0.15329925434E+03  0.21372448277E+03 -0.84062999294E+03  0.96738699647E+03  0.40000000000E+03 0. -1.
<mgrwt>
<rscale>  2 0.47872624E+03</rscale>
<asrwt>0</asrwt>
<pdfrwt beam="1">  1       21 0.10837835E+00 0.47872624E+03</pdfrwt>
<pdfrwt beam="2">  1       21 0.15282778E+00 0.47872624E+03</pdfrwt>
<totfact> 0.15393370E+02</totfact>
</mgrwt>
</event>
<event>
 4    1  0.4675559E-002  0.4527571E+03  0.7818608E-02  0.1026903E+00
         21   -1    0    0  501  502  0.00000000000E+00  0.00000000000E+00  0.39251610127E+03  0.39251610127E+03  0.00000000000E+00 0.  1.
         21   -1    0    0  502  503 -0.00000000000E+00 -0.00000000000E+00 -0.88977157377E+03  0.88977157377E+03  0.00000000000E+00 0.  1.
    9000007    1    1    2  501    0 -0.21170448064E+03  0.13046158150E+02  0.16343321219E+03  0.48135164299E+03  0.40000000000E+03 0.  1.
   -9000007    1    1    2    0  503  0.21170448064E+03 -0.13046158150E+02 -0.66068868468E+03  0.80093603205E+03  0.40000000000E+03 0.  1.
<mgrwt>
<rscale>  2 0.45275710E+03</rscale>
<asrwt>0</asrwt>
<pdfrwt beam="1">  1       21 0.60387093E-01 0.45275710E+03</pdfrwt>
<pdfrwt beam="2">  1       21 0.13688793E+00 0.45275710E+03</pdfrwt>
<totfact> 0.81615157E+02</totfact>
</mgrwt>
</event>
<event>
 4    1  0.4675559E-002  0.4182767E+03  0.7818608E-02  0.1037629E+00
         21   -1    0    0  501  502  0.00000000000E+00  0.00000000000E+00  0.41656472665E+03  0.41656472665E+03  0.00000000000E+00 0.  1.
         21   -1    0    0  502  503 -0.00000000000E+00 -0.00000000000E+00 -0.47379695052E+03  0.47379695052E+03  0.00000000000E+00 0.  1.
    9000007    1    1    2  501    0  0.32092946455E+02 -0.11800610137E+03  0.12139950993E+03  0.43553787227E+03  0.40000000000E+03 0. -1.
   -9000007    1    1    2    0  503 -0.32092946455E+02  0.11800610137E+03 -0.17863173380E+03  0.45482380489E+03  0.40000000000E+03 0. -1.
<mgrwt>
<rscale>  2 0.41827670E+03</rscale>
<asrwt>0</asrwt>
<pdfrwt beam="1">  1       21 0.64086881E-01 0.41827670E+03</pdfrwt>
<pdfrwt beam="2">  1       21 0.72891838E-01 0.41827670E+03</pdfrwt>
<totfact> 0.33613032E+03</totfact>
</mgrwt>
</event>
<event>
 4    1  0.4675559E-002  0.5713049E+03  0.7818608E-02  0.9966795E-01
         21   -1    0    0  501  502  0.00000000000E+00  0.00000000000E+00  0.73374971438E+03  0.73374971438E+03  0.00000000000E+00 0.  1.
         21   -1    0    0  502  503 -0.00000000000E+00 -0.00000000000E+00 -0.44578283004E+03  0.44578283004E+03  0.00000000000E+00 0.  1.
    9000007    1    1    2  501    0  0.39825046944E+03 -0.88237602803E+02  0.11662809952E+03  0.58308783605E+03  0.40000000000E+03 0.  1.
   -9000007    1    1    2    0  503 -0.39825046944E+03  0.88237602803E+02  0.17133878482E+03  0.59644470837E+03  0.40000000000E+03 0.  1.
<mgrwt>
<rscale>  2 0.57130492E+03</rscale>
<asrwt>0</asrwt>
<pdfrwt beam="1">  1       21 0.11288457E+00 0.57130492E+03</pdfrwt>
<pdfrwt beam="2">  1       21 0.68581974E-01 0.57130492E+03</pdfrwt>
<totfact> 0.96618011E+02</totfact>
</mgrwt>
</event>
<event>
 4    1  0.4675559E-002  0.4673435E+03  0.7818608E-02  0.1022673E+00
         21   -1    0    0  503  502  0.00000000000E+00  0.00000000000E+00  0.71267434975E+03  0.71267434975E+03  0.00000000000E+00 0.  1.
         21   -1    0    0  501  503 -0.00000000000E+00 -0.00000000000E+00 -0.32682939096E+03  0.32682939096E+03  0.00000000000E+00 0. -1.
    9000007    1    1    2  501    0 -0.20362905124E+02 -0.24082219630E+03  0.63184321460E+02  0.47159541623E+03  0.40000000000E+03 0. -1.
   -9000007    1    1    2    0  502  0.20362905124E+02  0.24082219630E+03  0.32266063733E+03  0.56790832448E+03  0.40000000000E+03 0.  1.
<mgrwt>
<rscale>  2 0.46734353E+03</rscale>
<asrwt>0</asrwt>
<pdfrwt beam="1">  1       21 0.10964221E+00 0.46734353E+03</pdfrwt>
<pdfrwt beam="2">  1       21 0.50281445E-01 0.46734353E+03</pdfrwt>
<totfact> 0.21252185E+03</totfact>
</mgrwt>
</event>
<event>
 4    1  0.4675559E-002  0.4377523E+03  0.7818608E-02  0.1031439E+00
         21   -1    0    0  501  502  0.00000000000E+00  0.00000000000E+00  0.13421906105E+04  0.13421906105E+04  0.00000000000E+00 0. -1.
         21   -1    0    0  502  503 -0.00000000000E+00 -0.00000000000E+00 -0.16999256252E+03  0.16999256252E+03  0.00000000000E+00 0.  1.
    9000007    1    1    2  501    0  0.16236173907E+03  0.72565291132E+02  0.88865732661E+03  0.99062550943E+03  0.40000000000E+03 0. -1.
   -9000007    1    1    2    0  503 -0.16236173907E+03 -0.72565291132E+02  0.28354072138E+03  0.52155766361E+03  0.40000000000E+03 0.  1.
<mgrwt>
<rscale>  2 0.43775228E+03</rscale>
<asrwt>0</asrwt>
<pdfrwt beam="1">  1       21 0.20649086E+00 0.43775228E+03</pdfrwt>
<pdfrwt beam="2">  1       21 0.26152703E-01 0.43775228E+03</pdfrwt>
<totfact> 0.14303869E+03</totfact>
</mgrwt>
</event>
<event>
 4    1  0.4675559E-002  0.4723227E+03  0.7818608E-02  0.1021267E+00
         21   -1    0    0  501  502  0.00000000000E+00  0.00000000000E+00  0.80658340034E+03  0.80658340034E+03  0.00000000000E+00 0. -1.
         21   -1    0    0  502  503 -0.00000000000E+00 -0.00000000000E+00 -0.10143873722E+04  0.10143873722E+04  0.00000000000E+00 0. -1.
    9000007    1    1    2  501    0 -0.20944909888E+03  0.13863547224E+03  0.67259744368E+03  0.82187349417E+03  0.40000000000E+03 0. -1.
   -9000007    1    1    2    0  503  0.20944909888E+03 -0.13863547224E+03 -0.88040141558E+03  0.99909727842E+03  0.40000000000E+03 0. -1.
<mgrwt>
<rscale>  2 0.47232269E+03</rscale>
<asrwt>0</asrwt>
<pdfrwt beam="1">  1       21 0.12408975E+00 0.47232269E+03</pdfrwt>
<pdfrwt beam="2">  1       21 0.15605959E+00 0.47232269E+03</pdfrwt>
<totfact> 0.10367974E+02</totfact>
</mgrwt>
</event>
<event>
 4    1  0.4675559E-002  0.5070023E+03  0.7818608E-02  0.1011967E+00
         21   -1    0    0  503  502  0.00000000000E+00  0.00000000000E+00  0.26453342652E+03  0.26453342652E+03  0.00000000000E+00 0. -1.
         21   -1    0    0  501  503 -0.00000000000E+00 -0.00000000000E+00 -0.99291839611E+03  0.99291839611E+03  0.00000000000E+00 0. -1.
    9000007    1    1    2  501    0 -0.21781665688E+03  0.22272689794E+03 -0.27231758092E+03  0.57550693476E+03  0.40000000000E+03 0. -1.
   -9000007    1    1    2    0  502  0.21781665688E+03 -0.22272689794E+03 -0.45606738868E+03  0.68194488787E+03  0.40000000000E+03 0. -1.
<mgrwt>
<rscale>  2 0.50700233E+03</rscale>
<asrwt>0</asrwt>
<pdfrwt beam="1">  1       21 0.40697451E-01 0.50700233E+03</pdfrwt>
<pdfrwt beam="2">  1       21 0.15275667E+00 0.50700233E+03</pdfrwt>
<totfact> 0.13772959E+03</totfact>
</mgrwt>
</event>
<event>
 4    1  0.4675559E-002  0.4115282E+03  0.7818608E-02  0.1039859E+00
         21   -1    0    0  503  502  0.00000000000E+00  0.00000000000E+00  0.82605139239E+03  0.82605139239E+03  0.00000000000E+00 0.  1.
         21   -1    0    0  501  503 -0.00000000000E+00 -0.00000000000E+00 -0.22173915734E+03  0.22173915734E+03  0.00000000000E+00 0.  1.
    9000007    1    1    2  501    0 -0.71852438605E+02  0.64750811391E+02  0.15829087452E+03  0.44092112840E+03  0.40000000000E+03 0. -1.
   -9000007    1    1    2    0  502  0.71852438605E+02 -0.64750811391E+02  0.44602136053E+03  0.60686942134E+03  0.40000000000E+03 0. -1.
<mgrwt>
<rscale>  2 0.41152818E+03</rscale>
<asrwt>0</asrwt>
<pdfrwt beam="1">  1       21 0.12708483E+00 0.41152818E+03</pdfrwt>
<pdfrwt beam="2">  1       21 0.34113717E-01 0.41152818E+03</pdfrwt>
<totfact> 0.33371501E+03</totfact>
</mgrwt>
</event>
<event>
 4    1  0.4675559E-002  0.4122278E+03  0.7818608E-02  0.1039626E+00
         21   -1    0    0  501  502  0.00000000000E+00  0.00000000000E+00  0.62036962894E+02  0.62036962894E+02  0.00000000000E+00 0. -1.
         21   -1    0    0  502  503 -0.00000000000E+00 -0.00000000000E+00 -0.27681815098E+04  0.27681815098E+04  0.00000000000E+00 0. -1.
    9000007    1    1    2  501    0 -0.99478105394E+02 -0.59917088818E+01 -0.12082832492E+04  0.12766676170E+04  0.40000000000E+03 0. -1.
   -9000007    1    1    2    0  503  0.99478105394E+02  0.59917088818E+01 -0.14978612977E+04  0.15535508557E+04  0.40000000000E+03 0. -1.
<mgrwt>
<rscale>  2 0.41222784E+03</rscale>
<asrwt>0</asrwt>
<pdfrwt beam="1">  1       21 0.95441482E-02 0.41222784E+03</pdfrwt>
<pdfrwt beam="2">  1       21 0.42587408E+00 0.41222784E+03</pdfrwt>
<totfact> 0.41598069E+02</totfact>
</mgrwt>
</event>
<event>
 4    1  0.4675559E-002  0.4410365E+03  0.7818608E-02  0.1030429E+00
         21   -1    0    0  503  502  0.00000000000E+00  0.00000000000E+00  0.17679461979E+03  0.17679461979E+03  0.00000000000E+00 0. -1.
         21   -1    0    0  501  503 -0.00000000000E+00 -0.00000000000E+00 -0.13686806886E+04  0.13686806886E+04  0.00000000000E+00 0. -1.
    9000007    1    1    2  501    0  0.13325087054E+02 -0.18529880305E+03 -0.93817479641E+03  0.10366702238E+04  0.40000000000E+03 0. -1.
   -9000007    1    1    2    0  502 -0.13325087054E+02  0.18529880305E+03 -0.25371127244E+03  0.50880508460E+03  0.40000000000E+03 0. -1.
<mgrwt>
<rscale>  2 0.44103651E+03</rscale>
<asrwt>0</asrwt>
<pdfrwt beam="1">  1       21 0.27199172E-01 0.44103651E+03</pdfrwt>
<pdfrwt beam="2">  1       21 0.21056626E+00 0.44103651E+03</pdfrwt>
<totfact> 0.12440040E+03</totfact>
</mgrwt>
</event>
<event>
 4    1  0.4675559E-002  0.5404845E+03  0.7818608E-02  0.1003721E+00
         21   -1    0    0  501  502  0.00000000000E+00  0.00000000000E+00  0.30379668297E+04  0.30379668297E+04  0.00000000000E+00 0. -1.
         21   -1    0    0  502  503 -0.00000000000E+00 -0.00000000000E+00 -0.10889120397E+03  0.10889120397E+03  0.00000000000E+00 0. -1.
    9000007    1    1    2  501    0 -0.29012935301E+03  0.21897132709E+03  0.20025933112E+04  0.20742476837E+04  0.40000000000E+03 0. -1.
   -9000007    1    1    2    0  503  0.29012935301E+03 -0.21897132709E+03  0.92648231455E+03  0.10726103499E+04  0.40000000000E+03 0. -1.
<mgrwt>
<rscale>  2 0.54048449E+03</rscale>
<asrwt>0</asrwt>
<pdfrwt beam="1">  1       21 0.46737945E+00 0.54048449E+03</pdfrwt>
<pdfrwt beam="2">  1       21 0.16752495E-01 0.54048449E+03</pdfrwt>
<totfact> 0.71636533E+01</totfact>
</mgrwt>
</event>
<event>
 4    1  0.4675559E-002  0.4283118E+03  0.7818608E-02  0.1034395E+00
         21   -1    0    0  503  502  0.00000000000E+00  0.00000000000E+00  0.13783773608E+04  0.13783773608E+04  0.00000000000E+00 0. -1.
         21   -1    0    0  501  503 -0.00000000000E+00 -0.00000000000E+00 -0.14800709571E+03  0.14800709571E+03  0.00000000000E+00 0. -1.
    9000007    1    1    2  501    0 -0.41288333365E+02  0.14746626814E+03  0.85745835056E+03  0.95848101163E+03  0.40000000000E+03 0. -1.
   -9000007    1    1    2    0  502  0.41288333365E+02 -0.14746626814E+03  0.37291191456E+03  0.56790344490E+03  0.40000000000E+03 0. -1.
<mgrwt>
<rscale>  2 0.42831183E+03</rscale>
<asrwt>0</asrwt>
<pdfrwt beam="1">  1       21 0.21205805E+00 0.42831183E+03</pdfrwt>
<pdfrwt beam="2">  1       21 0.22770323E-01 0.42831183E+03</pdfrwt>
<totfact> 0.17286839E+03</totfact>
</mgrwt>
</event>
<event>
 4    1  0.4675559E-002  0.4202537E+03  0.7818608E-02  0.1036984E+00
         21   -1    0    0  503  502  0.00000000000E+00  0.00000000000E+00  0.11929407909E+03  0.11929407909E+03  0.00000000000E+00 0. -1.
         21   -1    0    0  501  503 -0.00000000000E+00 -0.00000000000E+00 -0.19315136307E+04  0.19315136307E+04  0.00000000000E+00 0.  1.
    9000007    1    1    2  501    0  0.12659250383E+03  0.24238418685E+02 -0.14016145430E+04  0.14632622766E+04  0.40000000000E+03 0.  1.
   -9000007    1    1    2    0  502 -0.12659250383E+03 -0.24238418685E+02 -0.41060500863E+03  0.58754543320E+03  0.40000000000E+03 0. -1.
<mgrwt>
<rscale>  2 0.42025369E+03</rscale>
<asrwt>0</asrwt>
<pdfrwt beam="1">  1       21 0.18352934E-01 0.42025369E+03</pdfrwt>
<pdfrwt beam="2">  1       21 0.29715596E+00 0.42025369E+03</pdfrwt>
<totfact> 0.78537739E+02</totfact>
</mgrwt>
</event>
<event>
 4    1  0.4675559E-002  0.4013859E+03  0.7818608E-02  0.1043301E+00
         21   -1    0    0  503  502  0.00000000000E+00  0.00000000000E+00  0.14765921361E+04  0.14765921361E+04  0.00000000000E+00 0. -1.
         21   -1    0    0  501  503 -0.00000000000E+00 -0.00000000000E+00 -0.12871538192E+03  0.12871538192E+03  0.00000000000E+00 0. -1.
    9000007    1    1    2  501    0  0.29526784087E+02 -0.15452264980E+02  0.36067948567E+03  0.53962977573E+03  0.40000000000E+03 0. -1.
   -9000007    1    1    2    0  502 -0.29526784087E+02  0.15452264980E+02  0.98719726848E+03  0.10656777423E+04  0.40000000000E+03 0. -1.
<mgrwt>
<rscale>  2 0.40138585E+03</rscale>
<asrwt>0</asrwt>
<pdfrwt beam="1">  1       21 0.22716801E+00 0.40138585E+03</pdfrwt>
<pdfrwt beam="2">  1       21 0.19802368E-01 0.40138585E+03</pdfrwt>
<totfact> 0.18320983E+03</totfact>
</mgrwt>
</event>
<event>
 4    1  0.4675559E-002  0.4360326E+03  0.7818608E-02  0.1031971E+00
         21   -1    0    0  503  502  0.00000000000E+00  0.00000000000E+00  0.11789078977E+04  0.11789078977E+04  0.00000000000E+00 0.  1.
         21   -1    0    0  501  503 -0.00000000000E+00 -0.00000000000E+00 -0.26684467078E+03  0.26684467078E+03  0.00000000000E+00 0.  1.
    9000007    1    1    2  501    0 -0.14981564230E+03  0.87633810706E+02  0.13460113347E+01  0.43603465826E+03  0.40000000000E+03 0.  1.
   -9000007    1    1    2    0  502  0.14981564230E+03 -0.87633810706E+02  0.91071721555E+03  0.10097179102E+04  0.40000000000E+03 0.  1.
<mgrwt>
<rscale>  2 0.43603258E+03</rscale>
<asrwt>0</asrwt>
<pdfrwt beam="1">  1       21 0.18137044E+00 0.43603258E+03</pdfrwt>
<pdfrwt beam="2">  1       21 0.41053027E-01 0.43603258E+03</pdfrwt>
<totfact> 0.85649738E+02</totfact>
</mgrwt>
</event>
<event>
 4    1  0.4675559E-002  0.4348451E+03  0.7818608E-02  0.1032340E+00
         21   -1    0    0  501  502  0.00000000000E+00  0.00000000000E+00  0.41531063697E+03  0.41531063697E+03  0.00000000000E+00 0. -1.
         21   -1    0    0  502  503 -0.00000000000E+00 -0.00000000000E+00 -0.48310436772E+03  0.48310436772E+03  0.00000000000E+00 0.  1.
    9000007    1    1    2  501    0 -0.11494594091E+03  0.12600665622E+03 -0.14166638214E+03  0.45733971025E+03  0.40000000000E+03 0. -1.
   -9000007    1    1    2    0  503  0.11494594091E+03 -0.12600665622E+03  0.73872651384E+02  0.44107529444E+03  0.40000000000E+03 0. -1.
<mgrwt>
<rscale>  2 0.43484508E+03</rscale>
<asrwt>0</asrwt>
<pdfrwt beam="1">  1       21 0.63893944E-01 0.43484508E+03</pdfrwt>
<pdfrwt beam="2">  1       21 0.74323749E-01 0.43484508E+03</pdfrwt>
<totfact> 0.32179801E+03</totfact>
</mgrwt>
</event>
<event>
 4    1  0.4675559E-002  0.4160578E+03  0.7818608E-02  0.1038357E+00
         21   -1    0    0  503  502  0.00000000000E+00  0.00000000000E+00  0.15575791200E+03  0.15575791200E+03  0.00000000000E+00 0.  1.
         21   -1    0    0  501  503 -0.00000000000E+00 -0.00000000000E+00 -0.11328177800E+04  0.11328177800E+04  0.00000000000E+00 0.  1.
    9000007    1    1    2  501    0 -0.51575964998E+02 -0.10219578952E+03 -0.57719056167E+03  0.71151458456E+03  0.40000000000E+03 0.  1.
   -9000007    1    1    2    0  502  0.51575964998E+02  0.10219578952E+03 -0.39986930629E+03  0.57706110740E+03  0.40000000000E+03 0.  1.
<mgrwt>
<rscale>  2 0.41605776E+03</rscale>
<asrwt>0</asrwt>
<pdfrwt beam="1">  1       21 0.23962756E-01 0.41605776E+03</pdfrwt>
<pdfrwt beam="2">  1       21 0.17427965E+00 0.41605776E+03</pdfrwt>
<totfact> 0.28419731E+03</totfact>
</mgrwt>
</event>
<event>
 4    1  0.4675559E-002  0.4758545E+03  0.7818608E-02  0.1020281E+00
         21   -1    0    0  503  502  0.00000000000E+00  0.00000000000E+00  0.59667595003E+03  0.59667595003E+03  0.00000000000E+00 0. -1.
         21   -1    0    0  501  503 -0.00000000000E+00 -0.00000000000E+00 -0.38061627977E+03  0.38061627977E+03  0.00000000000E+00 0.  1.
    9000007    1    1    2  501    0 -0.20735009089E+03  0.15311256652E+03  0.13451268025E+03  0.49450093970E+03  0.40000000000E+03 0.  1.
   -9000007    1    1    2    0  502  0.20735009089E+03 -0.15311256652E+03  0.81546990010E+02  0.48279129010E+03  0.40000000000E+03 0. -1.
<mgrwt>
<rscale>  2 0.47585451E+03</rscale>
<asrwt>0</asrwt>
<pdfrwt beam="1">  1       21 0.91796300E-01 0.47585451E+03</pdfrwt>
<pdfrwt beam="2">  1       21 0.58556351E-01 0.47585451E+03</pdfrwt>
<totfact> 0.23507411E+03</totfact>
</mgrwt>
</event>
<event>
 4    1  0.4675559E-002  0.4139428E+03  0.7818608E-02  0.1039056E+00
         21   -1    0    0  501  502  0.00000000000E+00  0.00000000000E+00  0.23416150360E+03  0.23416150360E+03  0.00000000000E+00 0.  1.
         21   -1    0    0  502  503 -0.00000000000E+00 -0.00000000000E+00 -0.74064904521E+03  0.74064904521E+03  0.00000000000E+00 0.  1.
    9000007    1    1    2  501    0 -0.87573327446E+02  0.60659318003E+02 -0.30665783282E+03  0.51515790489E+03  0.40000000000E+03 0. -1.
   -9000007    1    1    2    0  503  0.87573327446E+02 -0.60659318003E+02 -0.19982970879E+03  0.45965264391E+03  0.40000000000E+03 0. -1.
<mgrwt>
<rscale>  2 0.41394280E+03</rscale>
<asrwt>0</asrwt>
<pdfrwt beam="1">  1       21 0.36024847E-01 0.41394280E+03</pdfrwt>
<pdfrwt beam="2">  1       21 0.11394601E+00 0.41394280E+03</pdfrwt>
<totfact> 0.39380992E+03</totfact>
</mgrwt>
</event>
<event>
 4    1  0.4675559E-002  0.4233010E+03  0.7818608E-02  0.1035997E+00
         21   -1    0    0  501  502  0.00000000000E+00  0.00000000000E+00  0.17582026750E+03  0.17582026750E+03  0.00000000000E+00 0.  1.
         21   -1    0    0  502  503 -0.00000000000E+00 -0.00000000000E+00 -0.10408876956E+04  0.10408876956E+04  0.00000000000E+00 0. -1.
    9000007    1    1    2  501    0 -0.49402591884E+02  0.12939526473E+03 -0.34457912266E+03  0.54581912974E+03  0.40000000000E+03 0.  1.
   -9000007    1    1    2    0  503  0.49402591884E+02 -0.12939526473E+03 -0.52048830543E+03  0.67088883335E+03  0.40000000000E+03 0.  1.
<mgrwt>
<rscale>  2 0.42330102E+03</rscale>
<asrwt>0</asrwt>
<pdfrwt beam="1">  1       21 0.27049272E-01 0.42330102E+03</pdfrwt>
<pdfrwt beam="2">  1       21 0.16013657E+00 0.42330102E+03</pdfrwt>
<totfact> 0.28420497E+03</totfact>
</mgrwt>
</event>
<event>
 4    1  0.4675559E-002  0.4838349E+03  0.7818608E-02  0.1018087E+00
         21   -1    0    0  501  502  0.00000000000E+00  0.00000000000E+00  0.88762285032E+02  0.88762285032E+02  0.00000000000E+00 0.  1.
         21   -1    0    0  502  503 -0.00000000000E+00 -0.00000000000E+00 -0.30466064232E+04  0.30466064232E+04  0.00000000000E+00 0.  1.
    9000007    1    1    2  501    0 -0.41164200118E+02 -0.26907561082E+03 -0.90433692049E+03  0.10256322155E+04  0.40000000000E+03 0.  1.
   -9000007    1    1    2    0  503  0.41164200118E+02  0.26907561082E+03 -0.20535072177E+04  0.21097364927E+04  0.40000000000E+03 0.  1.
<mgrwt>
<rscale>  2 0.48383486E+03</rscale>
<asrwt>0</asrwt>
<pdfrwt beam="1">  1       21 0.13655735E-01 0.48383486E+03</pdfrwt>
<pdfrwt beam="2">  1       21 0.46870873E+00 0.48383486E+03</pdfrwt>
<totfact> 0.10623345E+02</totfact>
</mgrwt>
</event>
<event>
 4    1  0.4675559E-002  0.5595505E+03  0.7818608E-02  0.9993072E-01
         21   -1    0    0  503  502  0.00000000000E+00  0.00000000000E+00  0.28024974104E+03  0.28024974104E+03  0.00000000000E+00 0.  1.
         21   -1    0    0  501  503 -0.00000000000E+00 -0.00000000000E+00 -0.12812637494E+04  0.12812637494E+04  0.00000000000E+00 0. -1.
    9000007    1    1    2  501    0 -0.11718769416E+03 -0.37331460114E+03 -0.22112746865E+03  0.60165945889E+03  0.40000000000E+03 0.  1.
   -9000007    1    1    2    0  502  0.11718769416E+03  0.37331460114E+03 -0.77988653975E+03  0.95985403160E+03  0.40000000000E+03 0.  1.
<mgrwt>
<rscale>  2 0.55955049E+03</rscale>
<asrwt>0</asrwt>
<pdfrwt beam="1">  1       21 0.43115344E-01 0.55955049E+03</pdfrwt>
<pdfrwt beam="2">  1       21 0.19711750E+00 0.55955049E+03</pdfrwt>
<totfact> 0.57196027E+02</totfact>
</mgrwt>
</event>
<event>
 4    1  0.4675559E-002  0.4054182E+03  0.7818608E-02  0.1041920E+00
         21   -1    0    0  503  502  0.00000000000E+00  0.00000000000E+00  0.34766978142E+03  0.34766978142E+03  0.00000000000E+00 0.  1.
         21   -1    0    0  501  503 -0.00000000000E+00 -0.00000000000E+00 -0.48687636805E+03  0.48687636805E+03  0.00000000000E+00 0.  1.
    9000007    1    1    2  501    0  0.64419360899E+02 -0.14631899925E+02  0.14511191206E+01  0.40542083358E+03  0.40000000000E+03 0.  1.
   -9000007    1    1    2    0  502 -0.64419360899E+02  0.14631899925E+02 -0.14065770575E+03  0.42912531590E+03  0.40000000000E+03 0.  1.
<mgrwt>
<rscale>  2 0.40541824E+03</rscale>
<asrwt>0</asrwt>
<pdfrwt beam="1">  1       21 0.53487659E-01 0.40541824E+03</pdfrwt>
<pdfrwt beam="2">  1       21 0.74904057E-01 0.40541824E+03</pdfrwt>
<totfact> 0.47071659E+03</totfact>
</mgrwt>
</event>
<event>
 4    1  0.4675559E-002  0.4292388E+03  0.7818608E-02  0.1034101E+00
         21   -1    0    0  503  502  0.00000000000E+00  0.00000000000E+00  0.82583483510E+03  0.82583483510E+03  0.00000000000E+00 0.  1.
         21   -1    0    0  501  503 -0.00000000000E+00 -0.00000000000E+00 -0.22609380042E+03  0.22609380042E+03  0.00000000000E+00 0.  1.
    9000007    1    1    2  501    0  0.14939716080E+03  0.43891010963E+02  0.36036722725E+03  0.56045559233E+03  0.40000000000E+03 0.  1.
   -9000007    1    1    2    0  502 -0.14939716080E+03 -0.43891010963E+02  0.23937380743E+03  0.49147304319E+03  0.40000000000E+03 0.  1.
<mgrwt>
<rscale>  2 0.42923878E+03</rscale>
<asrwt>0</asrwt>
<pdfrwt beam="1">  1       21 0.12705151E+00 0.42923878E+03</pdfrwt>
<pdfrwt beam="2">  1       21 0.34783662E-01 0.42923878E+03</pdfrwt>
<totfact> 0.31890427E+03</totfact>
</mgrwt>
</event>
<event>
 4    1  0.4675559E-002  0.4335262E+03  0.7818608E-02  0.1032752E+00
         21   -1    0    0  501  502  0.00000000000E+00  0.00000000000E+00  0.15167356526E+04  0.15167356526E+04  0.00000000000E+00 0. -1.
         21   -1    0    0  502  503 -0.00000000000E+00 -0.00000000000E+00 -0.12459726153E+03  0.12459726153E+03  0.00000000000E+00 0. -1.
    9000007    1    1    2  501    0  0.73692641432E+01 -0.16700493420E+03  0.63530191772E+03  0.76912513985E+03  0.40000000000E+03 0.  1.
   -9000007    1    1    2    0  503 -0.73692641432E+01  0.16700493420E+03  0.75683647336E+03  0.87220777428E+03  0.40000000000E+03 0.  1.
<mgrwt>
<rscale>  2 0.43352619E+03</rscale>
<asrwt>0</asrwt>
<pdfrwt beam="1">  1       21 0.23334393E+00 0.43352619E+03</pdfrwt>
<pdfrwt beam="2">  1       21 0.19168811E-01 0.43352619E+03</pdfrwt>
<totfact> 0.17544130E+03</totfact>
</mgrwt>
</event>
<event>
 4    1  0.4675559E-002  0.5106059E+03  0.7818608E-02  0.1011047E+00
         21   -1    0    0  501  502  0.00000000000E+00  0.00000000000E+00  0.92706132355E+03  0.92706132355E+03  0.00000000000E+00 0.  1.
         21   -1    0    0  502  503 -0.00000000000E+00 -0.00000000000E+00 -0.30133708554E+03  0.30133708554E+03  0.00000000000E+00 0. -1.
    9000007    1    1    2  501    0 -0.27369573390E+03 -0.16065178809E+03  0.47151467947E+03  0.69501398887E+03  0.40000000000E+03 0. -1.
   -9000007    1    1    2    0  503  0.27369573390E+03  0.16065178809E+03  0.15420955854E+03  0.53338442021E+03  0.40000000000E+03 0. -1.
<mgrwt>
<rscale>  2 0.51060587E+03</rscale>
<asrwt>0</asrwt>
<pdfrwt beam="1">  1       21 0.14262482E+00 0.51060587E+03</pdfrwt>
<pdfrwt beam="2">  1       21 0.46359552E-01 0.51060587E+03</pdfrwt>
<totfact> 0.12621543E+03</totfact>
</mgrwt>
</event>
<event>
 4    1  0.4675559E-002  0.6038055E+03  0.7818608E-02  0.9897542E-01
         21   -1    0    0  501  502  0.00000000000E+00  0.00000000000E+00  0.21816236360E+03  0.21816236360E+03  0.00000000000E+00 0. -1.
         21   -1    0    0  502  503 -0.00000000000E+00 -0.00000000000E+00 -0.16786230824E+04  0.16786230824E+04  0.00000000000E+00 0.  1.
    9000007    1    1    2  501    0 -0.11419271982E+03 -0.43765411815E+03 -0.66693304658E+03  0.89965593035E+03  0.40000000000E+03 0. -1.
   -9000007    1    1    2    0  503  0.11419271982E+03  0.43765411815E+03 -0.79352767224E+03  0.99712951566E+03  0.40000000000E+03 0.  1.
<mgrwt>
<rscale>  2 0.60380552E+03</rscale>
<asrwt>0</asrwt>
<pdfrwt beam="1">  1       21 0.33563438E-01 0.60380552E+03</pdfrwt>
<pdfrwt beam="2">  1       21 0.25824972E+00 0.60380552E+03</pdfrwt>
<totfact> 0.38135933E+02</totfact>
</mgrwt>
</event>
<event>
 4    1  0.4675559E-002  0.4280357E+03  0.7818608E-02  0.1034482E+00
         21   -1    0    0  501  502  0.00000000000E+00  0.00000000000E+00  0.15047708892E+03  0.15047708892E+03  0.00000000000E+00 0.  1.
         21   -1    0    0  502  503 -0.00000000000E+00 -0.00000000000E+00 -0.17825755500E+04  0.17825755500E+04  0.00000000000E+00 0.  1.
    9000007    1    1    2  501    0 -0.67430614268E+02  0.13662973856E+03 -0.13602018286E+04  0.14259605842E+04  0.40000000000E+03 0.  1.
   -9000007    1    1    2    0  503  0.67430614268E+02 -0.13662973856E+03 -0.27189663248E+03  0.50709205471E+03  0.40000000000E+03 0.  1.
<mgrwt>
<rscale>  2 0.42803571E+03</rscale>
<asrwt>0</asrwt>
<pdfrwt beam="1">  1       21 0.23150321E-01 0.42803571E+03</pdfrwt>
<pdfrwt beam="2">  1       21 0.27424240E+00 0.42803571E+03</pdfrwt>
<totfact> 0.68937989E+02</totfact>
</mgrwt>
</event>
<event>
 4    1  0.4675559E-002  0.4867852E+03  0.7818608E-02  0.1017287E+00
         21   -1    0    0  503  502  0.00000000000E+00  0.00000000000E+00  0.58453136148E+03  0.58453136148E+03  0.00000000000E+00 0.  1.
         21   -1    0    0  501  503 -0.00000000000E+00 -0.00000000000E+00 -0.42520953945E+03  0.42520953945E+03  0.00000000000E+00 0.  1.
    9000007    1    1    2  501    0  0.20850625333E+02  0.27663170517E+03 -0.29354387262E+02  0.48766948739E+03  0.40000000000E+03 0.  1.
   -9000007    1    1    2    0  502 -0.20850625333E+02 -0.27663170517E+03  0.18867620929E+03  0.52207141354E+03  0.40000000000E+03 0.  1.
<mgrwt>
<rscale>  2 0.48678522E+03</rscale>
<asrwt>0</asrwt>
<pdfrwt beam="1">  1       21 0.89927902E-01 0.48678522E+03</pdfrwt>
<pdfrwt beam="2">  1       21 0.65416852E-01 0.48678522E+03</pdfrwt>
<totfact> 0.19256897E+03</totfact>
</mgrwt>
</event>
<event>
 4    1  0.4675559E-002  0.7445438E+03  0.7818608E-02  0.9643949E-01
         21   -1    0    0  503  502  0.00000000000E+00  0.00000000000E+00  0.26490935713E+03  0.26490935713E+03  0.00000000000E+00 0.  1.
         21   -1    0    0  501  503 -0.00000000000E+00 -0.00000000000E+00 -0.24628970123E+04  0.24628970123E+04  0.00000000000E+00 0. -1.
    9000007    1    1    2  501    0  0.34635685815E+03 -0.52381526864E+03 -0.16278577717E+04  0.17900464892E+04  0.40000000000E+03 0. -1.
   -9000007    1    1    2    0  502 -0.34635685815E+03  0.52381526864E+03 -0.57012988352E+03  0.93775988021E+03  0.40000000000E+03 0.  1.
<mgrwt>
<rscale>  2 0.74454383E+03</rscale>
<asrwt>0</asrwt>
<pdfrwt beam="1">  1       21 0.40755286E-01 0.74454383E+03</pdfrwt>
<pdfrwt beam="2">  1       21 0.37890723E+00 0.74454383E+03</pdfrwt>
<totfact> 0.43310009E+01</totfact>
</mgrwt>
</event>
<event>
 4    1  0.4675559E-002  0.6029259E+03  0.7818608E-02  0.9899354E-01
         21   -1    0    0  501  502  0.00000000000E+00  0.00000000000E+00  0.80238273135E+03  0.80238273135E+03  0.00000000000E+00 0.  1.
         21   -1    0    0  502  503 -0.00000000000E+00 -0.00000000000E+00 -0.11718673768E+04  0.11718673768E+04  0.00000000000E+00 0. -1.
    9000007    1    1    2  501    0  0.27914704078E+03  0.35439606291E+03  0.58836924656E+03  0.84243576021E+03  0.40000000000E+03 0.  1.
   -9000007    1    1    2    0  503 -0.27914704078E+03 -0.35439606291E+03 -0.95785389205E+03  0.11318143480E+04  0.40000000000E+03 0. -1.
<mgrwt>
<rscale>  2 0.60292590E+03</rscale>
<asrwt>0</asrwt>
<pdfrwt beam="1">  1       21 0.12344350E+00 0.60292590E+03</pdfrwt>
<pdfrwt beam="2">  1       21 0.18028729E+00 0.60292590E+03</pdfrwt>
<totfact> 0.65408933E+01</totfact>
</mgrwt>
</event>
<event>
 4    1  0.4675559E-002  0.5021815E+03  0.7818608E-02  0.1013211E+00
         21   -1    0    0  501  502  0.00000000000E+00  0.00000000000E+00  0.30819534291E+03  0.30819534291E+03  0.00000000000E+00 0.  1.
         21   -1    0    0  502  503 -0.00000000000E+00 -0.00000000000E+00 -0.18333819566E+04  0.18333819566E+04  0.00000000000E+00 0.  1.
    9000007    1    1    2  501    0 -0.21999519954E+03 -0.20925676461E+03  0.34179961753E+02  0.50334337300E+03  0.40000000000E+03 0.  1.
   -9000007    1    1    2    0  503  0.21999519954E+03  0.20925676461E+03 -0.15593665755E+04  0.16382339265E+04  0.40000000000E+03 0.  1.
<mgrwt>
<rscale>  2 0.50218152E+03</rscale>
<asrwt>0</asrwt>
<pdfrwt beam="1">  1       21 0.47414669E-01 0.50218152E+03</pdfrwt>
<pdfrwt beam="2">  1       21 0.28205875E+00 0.50218152E+03</pdfrwt>
<totfact> 0.13993043E+02</totfact>
</mgrwt>
</event>
<event>
 4    1  0.4675559E-002  0.4329273E+03  0.7818608E-02  0.1032939E+00
         21   -1    0    0  503  502  0.00000000000E+00  0.00000000000E+00  0.20952988009E+04  0.20952988009E+04  0.00000000000E+00 0. -1.
         21   -1    0    0  501  503 -0.00000000000E+00 -0.00000000000E+00 -0.19155720350E+03  0.19155720350E+03  0.00000000000E+00 0. -1.
    9000007    1    1    2  501    0  0.13061955298E+02  0.16509209684E+03  0.11706355235E+03  0.44847507222E+03  0.40000000000E+03 0. -1.
   -9000007    1    1    2    0  502 -0.13061955298E+02 -0.16509209684E+03  0.17866780451E+04  0.18383809322E+04  0.40000000000E+03 0. -1.
<mgrwt>
<rscale>  2 0.43292726E+03</rscale>
<asrwt>0</asrwt>
<pdfrwt beam="1">  1       21 0.32235365E+00 0.43292726E+03</pdfrwt>
<pdfrwt beam="2">  1       21 0.29470340E-01 0.43292726E+03</pdfrwt>
<totfact> 0.22040821E+02</totfact>
</mgrwt>
</event>
<event>
 4    1  0.4675559E-002  0.4451985E+03  0.7818608E-02  0.1029164E+00
         21   -1    0    0  503  502  0.00000000000E+00  0.00000000000E+00  0.19816446102E+03  0.19816446102E+03  0.00000000000E+00 0. -1.
         21   -1    0    0  501  503 -0.00000000000E+00 -0.00000000000E+00 -0.10017772482E+04  0.10017772482E+04  0.00000000000E+00 0. -1.
    9000007    1    1    2  501    0  0.13370278937E+03 -0.14256658582E+03 -0.42570507741E+03  0.61597603866E+03  0.40000000000E+03 0. -1.
   -9000007    1    1    2    0  502 -0.13370278937E+03  0.14256658582E+03 -0.37790770976E+03  0.58396567055E+03  0.40000000000E+03 0. -1.
<mgrwt>
<rscale>  2 0.44519846E+03</rscale>
<asrwt>0</asrwt>
<pdfrwt beam="1">  1       21 0.30486841E-01 0.44519846E+03</pdfrwt>
<pdfrwt beam="2">  1       21 0.15411957E+00 0.44519846E+03</pdfrwt>
<totfact> 0.24725546E+03</totfact>
</mgrwt>
</event>
<event>
 4    1  0.4675559E-002  0.6261065E+03  0.7818608E-02  0.9852676E-01
         21   -1    0    0  501  502  0.00000000000E+00  0.00000000000E+00  0.10743003832E+04  0.10743003832E+04  0.00000000000E+00 0.  1.
         21   -1    0    0  502  503 -0.00000000000E+00 -0.00000000000E+00 -0.38741164355E+03  0.38741164355E+03  0.00000000000E+00 0. -1.
    9000007    1    1    2  501    0  0.42892160905E+03  0.21917014196E+03  0.51963192794E+03  0.81365019411E+03  0.40000000000E+03 0. -1.
   -9000007    1    1    2    0  503 -0.42892160905E+03 -0.21917014196E+03  0.16725681167E+03  0.64806183261E+03  0.40000000000E+03 0. -1.
<mgrwt>
<rscale>  2 0.62610646E+03</rscale>
<asrwt>0</asrwt>
<pdfrwt beam="1">  1       21 0.16527698E+00 0.62610646E+03</pdfrwt>
<pdfrwt beam="2">  1       21 0.59601792E-01 0.62610646E+03</pdfrwt>
<totfact> 0.46954461E+02</totfact>
</mgrwt>
</event>
<event>
 4    1  0.4675559E-002  0.4780347E+03  0.7818608E-02  0.1019677E+00
         21   -1    0    0  501  502  0.00000000000E+00  0.00000000000E+00  0.27161573152E+03  0.27161573152E+03  0.00000000000E+00 0. -1.
         21   -1    0    0  502  503 -0.00000000000E+00 -0.00000000000E+00 -0.87300385534E+03  0.87300385534E+03  0.00000000000E+00 0. -1.
    9000007    1    1    2  501    0 -0.17302442412E+03 -0.19641720029E+03 -0.19167404184E+03  0.51503019933E+03  0.40000000000E+03 0. -1.
   -9000007    1    1    2    0  503  0.17302442412E+03  0.19641720029E+03 -0.40971408198E+03  0.62958938753E+03  0.40000000000E+03 0. -1.
<mgrwt>
<rscale>  2 0.47803469E+03</rscale>
<asrwt>0</asrwt>
<pdfrwt beam="1">  1       21 0.41787035E-01 0.47803469E+03</pdfrwt>
<pdfrwt beam="2">  1       21 0.13430829E+00 0.47803469E+03</pdfrwt>
<totfact> 0.18618677E+03</totfact>
</mgrwt>
</event>
<event>
 4    1  0.4675559E-002  0.4354068E+03  0.7818608E-02  0.1032165E+00
         21   -1    0    0  501  502  0.00000000000E+00  0.00000000000E+00  0.12252721753E+04  0.12252721753E+04  0.00000000000E+00 0.  1.
         21   -1    0    0  502  503 -0.00000000000E+00 -0.00000000000E+00 -0.18514403894E+03  0.18514403894E+03  0.00000000000E+00 0.  1.
    9000007    1    1    2  501    0  0.10152082263E+03  0.13882587403E+03  0.80591643713E+03  0.91601332106E+03  0.40000000000E+03 0.  1.
   -9000007    1    1    2    0  503 -0.10152082263E+03 -0.13882587403E+03  0.23421169925E+03  0.49440289319E+03  0.40000000000E+03 0.  1.
<mgrwt>
<rscale>  2 0.43540682E+03</rscale>
<asrwt>0</asrwt>
<pdfrwt beam="1">  1       21 0.18850341E+00 0.43540682E+03</pdfrwt>
<pdfrwt beam="2">  1       21 0.28483699E-01 0.43540682E+03</pdfrwt>
<totfact> 0.15984898E+03</totfact>
</mgrwt>
</event>
<event>
 4    1  0.4675559E-002  0.4449974E+03  0.7818608E-02  0.1029224E+00
         21   -1    0    0  503  502  0.00000000000E+00  0.00000000000E+00  0.53644166802E+03  0.53644166802E+03  0.00000000000E+00 0.  1.
         21   -1    0    0  501  503 -0.00000000000E+00 -0.00000000000E+00 -0.81074806813E+03  0.81074806813E+03  0.00000000000E+00 0.  1.
    9000007    1    1    2  501    0  0.13827630793E+03  0.13748580261E+03 -0.63428752778E+03  0.77481826976E+03  0.40000000000E+03 0.  1.
   -9000007    1    1    2    0  502 -0.13827630793E+03 -0.13748580261E+03  0.35998112768E+03  0.57237146639E+03  0.40000000000E+03 0.  1.
<mgrwt>
<rscale>  2 0.44499740E+03</rscale>
<asrwt>0</asrwt>
<pdfrwt beam="1">  1       21 0.82529487E-01 0.44499740E+03</pdfrwt>
<pdfrwt beam="2">  1       21 0.12473047E+00 0.44499740E+03</pdfrwt>
<totfact> 0.51529720E+02</totfact>
</mgrwt>
</event>
<event>
 4    1  0.4675559E-002  0.4439723E+03  0.7818608E-02  0.1029535E+00
         21   -1    0    0  503  502  0.00000000000E+00  0.00000000000E+00  0.36396412760E+03  0.36396412760E+03  0.00000000000E+00 0.  1.
         21   -1    0    0  501  503 -0.00000000000E+00 -0.00000000000E+00 -0.68221043935E+03  0.68221043935E+03  0.00000000000E+00 0. -1.
    9000007    1    1    2  501    0  0.68649228782E+02  0.17999645979E+03 -0.39662811304E+03  0.59533629337E+03  0.40000000000E+03 0. -1.
   -9000007    1    1    2    0  502 -0.68649228782E+02 -0.17999645979E+03  0.78381801301E+02  0.45083827358E+03  0.40000000000E+03 0.  1.
<mgrwt>
<rscale>  2 0.44397234E+03</rscale>
<asrwt>0</asrwt>
<pdfrwt beam="1">  1       21 0.55994482E-01 0.44397234E+03</pdfrwt>
<pdfrwt beam="2">  1       21 0.10495545E+00 0.44397234E+03</pdfrwt>
<totfact> 0.18955911E+03</totfact>
</mgrwt>
</event>
<event>
 4    1  0.4675559E-002  0.4656267E+03  0.7818608E-02  0.1023162E+00
         21   -1    0    0  503  502  0.00000000000E+00  0.00000000000E+00  0.76978290900E+03  0.76978290900E+03  0.00000000000E+00 0. -1.
         21   -1    0    0  501  503 -0.00000000000E+00 -0.00000000000E+00 -0.45628966570E+03  0.45628966570E+03  0.00000000000E+00 0. -1.
    9000007    1    1    2  501    0 -0.68553462553E+02 -0.22827309471E+03 -0.22251527006E+03  0.51606320195E+03  0.40000000000E+03 0.  1.
   -9000007    1    1    2    0  502  0.68553462553E+02  0.22827309471E+03  0.53600851336E+03  0.71000937275E+03  0.40000000000E+03 0.  1.
<mgrwt>
<rscale>  2 0.46562666E+03</rscale>
<asrwt>0</asrwt>
<pdfrwt beam="1">  1       21 0.11842814E+00 0.46562666E+03</pdfrwt>
<pdfrwt beam="2">  1       21 0.70198410E-01 0.46562666E+03</pdfrwt>
<totfact> 0.84444001E+02</totfact>
</mgrwt>
</event>
<event>
 4    1  0.4675559E-002  0.4128221E+03  0.7818608E-02  0.1039428E+00
         21   -1    0    0  501  502  0.00000000000E+00  0.00000000000E+00  0.96697900936E+03  0.96697900936E+03  0.00000000000E+00 0.  1.
         21   -1    0    0  502  503 -0.00000000000E+00 -0.00000000000E+00 -0.23057566357E+03  0.23057566357E+03  0.00000000000E+00 0.  1.
    9000007    1    1    2  501    0  0.54281469524E+02 -0.86461439000E+02  0.65886763267E+03  0.77751438299E+03  0.40000000000E+03 0.  1.
   -9000007    1    1    2    0  503 -0.54281469524E+02  0.86461439000E+02  0.77535713110E+02  0.42004028994E+03  0.40000000000E+03 0.  1.
<mgrwt>
<rscale>  2 0.41282207E+03</rscale>
<asrwt>0</asrwt>
<pdfrwt beam="1">  1       21 0.14876600E+00 0.41282207E+03</pdfrwt>
<pdfrwt beam="2">  1       21 0.35473179E-01 0.41282207E+03</pdfrwt>
<totfact> 0.20353292E+03</totfact>
</mgrwt>
</event>
<event>
 4    1  0.4675559E-002  0.4584837E+03  0.7818608E-02  0.1025222E+00
         21   -1    0    0  503  502  0.00000000000E+00  0.00000000000E+00  0.19909202533E+03  0.19909202533E+03  0.00000000000E+00 0. -1.
         21   -1    0    0  501  503 -0.00000000000E+00 -0.00000000000E+00 -0.10669218220E+04  0.10669218220E+04  0.00000000000E+00 0.  1.
    9000007    1    1    2  501    0  0.79056742964E+02 -0.20966011433E+03 -0.49845708878E+03  0.67724943817E+03  0.40000000000E+03 0.  1.
   -9000007    1    1    2    0  502 -0.79056742964E+02  0.20966011433E+03 -0.36937270788E+03  0.58876440914E+03  0.40000000000E+03 0. -1.
<mgrwt>
<rscale>  2 0.45848373E+03</rscale>
<asrwt>0</asrwt>
<pdfrwt beam="1">  1       21 0.30629542E-01 0.45848373E+03</pdfrwt>
<pdfrwt beam="2">  1       21 0.16414182E+00 0.45848373E+03</pdfrwt>
<totfact> 0.20453308E+03</totfact>
</mgrwt>
</event>
<event>
 4    1  0.4675559E-002  0.5230069E+03  0.7818608E-02  0.1007942E+00
         21   -1    0    0  503  502  0.00000000000E+00  0.00000000000E+00  0.14936854613E+04  0.14936854613E+04  0.00000000000E+00 0. -1.
         21   -1    0    0  501  503 -0.00000000000E+00 -0.00000000000E+00 -0.34018973163E+03  0.34018973163E+03  0.00000000000E+00 0. -1.
    9000007    1    1    2  501    0 -0.25231199456E+03 -0.22332687539E+03 -0.46289095114E+02  0.52505134625E+03  0.40000000000E+03 0. -1.
   -9000007    1    1    2    0  502  0.25231199456E+03  0.22332687539E+03  0.11997848248E+04  0.13088238467E+04  0.40000000000E+03 0. -1.
<mgrwt>
<rscale>  2 0.52300692E+03</rscale>
<asrwt>0</asrwt>
<pdfrwt beam="1">  1       21 0.22979776E+00 0.52300692E+03</pdfrwt>
<pdfrwt beam="2">  1       21 0.52336883E-01 0.52300692E+03</pdfrwt>
<totfact> 0.23552859E+02</totfact>
</mgrwt>
</event>
<event>
 4    1  0.4675559E-002  0.5316935E+03  0.7818608E-02  0.1005822E+00
         21   -1    0    0  503  502  0.00000000000E+00  0.00000000000E+00  0.16836276682E+04  0.16836276682E+04  0.00000000000E+00 0.  1.
         21   -1    0    0  501  503 -0.00000000000E+00 -0.00000000000E+00 -0.16844594240E+03  0.16844594240E+03  0.00000000000E+00 0. -1.
    9000007    1    1    2  501    0 -0.34804490701E+03 -0.39530862497E+02  0.70535712511E+03  0.88330437582E+03  0.40000000000E+03 0. -1.
   -9000007    1    1    2    0  502  0.34804490701E+03  0.39530862497E+02  0.80982460072E+03  0.96876923481E+03  0.40000000000E+03 0.  1.
<mgrwt>
<rscale>  2 0.53169347E+03</rscale>
<asrwt>0</asrwt>
<pdfrwt beam="1">  1       21 0.25901963E+00 0.53169347E+03</pdfrwt>
<pdfrwt beam="2">  1       21 0.25914762E-01 0.53169347E+03</pdfrwt>
<totfact> 0.65087566E+02</totfact>
</mgrwt>
</event>
<event>
 4    1  0.4675559E-002  0.4306137E+03  0.7818608E-02  0.1033666E+00
         21   -1    0    0  501  502  0.00000000000E+00  0.00000000000E+00  0.35617210886E+03  0.35617210886E+03  0.00000000000E+00 0.  1.
         21   -1    0    0  502  503 -0.00000000000E+00 -0.00000000000E+00 -0.59127941408E+03  0.59127941408E+03  0.00000000000E+00 0.  1.
    9000007    1    1    2  501    0 -0.94941647774E+02 -0.12811809357E+03  0.46216322625E+02  0.43308672441E+03  0.40000000000E+03 0.  1.
   -9000007    1    1    2    0  503  0.94941647774E+02  0.12811809357E+03 -0.28132362785E+03  0.51436479853E+03  0.40000000000E+03 0.  1.
<mgrwt>
<rscale>  2 0.43061370E+03</rscale>
<asrwt>0</asrwt>
<pdfrwt beam="1">  1       21 0.54795710E-01 0.43061370E+03</pdfrwt>
<pdfrwt beam="2">  1       21 0.90966062E-01 0.43061370E+03</pdfrwt>
<totfact> 0.28199296E+03</totfact>
</mgrwt>
</event>
<event>
 4    1  0.4675559E-002  0.4166269E+03  0.7818608E-02  0.1038170E+00
         21   -1    0    0  501  502  0.00000000000E+00  0.00000000000E+00  0.48804293801E+03  0.48804293801E+03  0.00000000000E+00 0.  1.
         21   -1    0    0  502  503 -0.00000000000E+00 -0.00000000000E+00 -0.37561042692E+03  0.37561042692E+03  0.00000000000E+00 0.  1.
    9000007    1    1    2  501    0  0.51641086128E+02 -0.10445636771E+03  0.15573473775E+03  0.44478224231E+03  0.40000000000E+03 0.  1.
   -9000007    1    1    2    0  503 -0.51641086128E+02  0.10445636771E+03 -0.43302226657E+02  0.41887112262E+03  0.40000000000E+03 0.  1.
<mgrwt>
<rscale>  2 0.41662685E+03</rscale>
<asrwt>0</asrwt>
<pdfrwt beam="1">  1       21 0.75083529E-01 0.41662685E+03</pdfrwt>
<pdfrwt beam="2">  1       21 0.57786219E-01 0.41662685E+03</pdfrwt>
<totfact> 0.39458247E+03</totfact>
</mgrwt>
</event>
<event>
 4    1  0.4675559E-002  0.6617687E+03  0.7818608E-02  0.9784943E-01
         21   -1    0    0  503  502  0.00000000000E+00  0.00000000000E+00  0.15848864867E+04  0.15848864867E+04  0.00000000000E+00 0. -1.
         21   -1    0    0  501  503 -0.00000000000E+00 -0.00000000000E+00 -0.28317435031E+03  0.28317435031E+03  0.00000000000E+00 0.  1.
    9000007    1    1    2  501    0  0.42592326211E+02  0.52547468351E+03  0.79616052139E+03  0.10352822442E+04  0.40000000000E+03 0.  1.
   -9000007    1    1    2    0  502 -0.42592326211E+02 -0.52547468351E+03  0.50555161495E+03  0.83277859281E+03  0.40000000000E+03 0. -1.
<mgrwt>
<rscale>  2 0.66176865E+03</rscale>
<asrwt>0</asrwt>
<pdfrwt beam="1">  1       21 0.24382868E+00 0.66176865E+03</pdfrwt>
<pdfrwt beam="2">  1       21 0.43565286E-01 0.66176865E+03</pdfrwt>
<totfact> 0.26800529E+02</totfact>
</mgrwt>
</event>
<event>
 4    1  0.4675559E-002  0.5293542E+03  0.7818608E-02  0.1006389E+00
         21   -1    0    0  503  502  0.00000000000E+00  0.00000000000E+00  0.13963124040E+04  0.13963124040E+04  0.00000000000E+00 0. -1.
         21   -1    0    0  501  503 -0.00000000000E+00 -0.00000000000E+00 -0.23650558913E+03  0.23650558913E+03  0.00000000000E+00 0.  1.
    9000007    1    1    2  501    0 -0.34403266138E+03  0.43097555580E+02  0.26216711333E+03  0.59071775553E+03  0.40000000000E+03 0. -1.
   -9000007    1    1    2    0  502  0.34403266138E+03 -0.43097555580E+02  0.89763970154E+03  0.10421002376E+04  0.40000000000E+03 0. -1.
<mgrwt>
<rscale>  2 0.52935420E+03</rscale>
<asrwt>0</asrwt>
<pdfrwt beam="1">  1       21 0.21481729E+00 0.52935420E+03</pdfrwt>
<pdfrwt beam="2">  1       21 0.36385476E-01 0.52935420E+03</pdfrwt>
<totfact> 0.62720724E+02</totfact>
</mgrwt>
</event>
<event>
 4    1  0.4675559E-002  0.4060389E+03  0.7818608E-02  0.1041708E+00
         21   -1    0    0  501  502  0.00000000000E+00  0.00000000000E+00  0.11625581274E+04  0.11625581274E+04  0.00000000000E+00 0. -1.
         21   -1    0    0  502  503 -0.00000000000E+00 -0.00000000000E+00 -0.19789786546E+03  0.19789786546E+03  0.00000000000E+00 0. -1.
    9000007    1    1    2  501    0 -0.37204943409E+02 -0.59020007128E+02  0.84444893930E+03  0.93699604062E+03  0.40000000000E+03 0. -1.
   -9000007    1    1    2    0  503  0.37204943409E+02  0.59020007128E+02  0.12021132264E+03  0.42345995223E+03  0.40000000000E+03 0. -1.
<mgrwt>
<rscale>  2 0.40603888E+03</rscale>
<asrwt>0</asrwt>
<pdfrwt beam="1">  1       21 0.17885509E+00 0.40603888E+03</pdfrwt>
<pdfrwt beam="2">  1       21 0.30445826E-01 0.40603888E+03</pdfrwt>
<totfact> 0.16568736E+03</totfact>
</mgrwt>
</event>
<event>
 4    1  0.4675559E-002  0.5223387E+03  0.7818608E-02  0.1008107E+00
         21   -1    0    0  503  502  0.00000000000E+00  0.00000000000E+00  0.10494771806E+04  0.10494771806E+04  0.00000000000E+00 0. -1.
         21   -1    0    0  501  503 -0.00000000000E+00 -0.00000000000E+00 -0.26004600042E+03  0.26004600042E+03  0.00000000000E+00 0.  1.
    9000007    1    1    2  501    0  0.20543094432E+03 -0.26577405093E+03  0.40554268100E+03  0.66128857932E+03  0.40000000000E+03 0. -1.
   -9000007    1    1    2    0  502 -0.20543094432E+03  0.26577405093E+03  0.38388849921E+03  0.64823460172E+03  0.40000000000E+03 0.  1.
<mgrwt>
<rscale>  2 0.52233870E+03</rscale>
<asrwt>0</asrwt>
<pdfrwt beam="1">  1       21 0.16145803E+00 0.52233870E+03</pdfrwt>
<pdfrwt beam="2">  1       21 0.40007077E-01 0.52233870E+03</pdfrwt>
<totfact> 0.12166364E+03</totfact>
</mgrwt>
</event>
<event>
 4    1  0.4675559E-002  0.4078478E+03  0.7818608E-02  0.1041096E+00
         21   -1    0    0  503  502  0.00000000000E+00  0.00000000000E+00  0.53364847555E+03  0.53364847555E+03  0.00000000000E+00 0.  1.
         21   -1    0    0  501  503 -0.00000000000E+00 -0.00000000000E+00 -0.32356361776E+03  0.32356361776E+03  0.00000000000E+00 0.  1.
    9000007    1    1    2  501    0 -0.32887109080E+02  0.72513697115E+02  0.18710275233E+03  0.44871732543E+03  0.40000000000E+03 0.  1.
   -9000007    1    1    2    0  502  0.32887109080E+02 -0.72513697115E+02  0.22982105470E+02  0.40849476788E+03  0.40000000000E+03 0.  1.
<mgrwt>
<rscale>  2 0.40784776E+03</rscale>
<asrwt>0</asrwt>
<pdfrwt beam="1">  1       21 0.82099765E-01 0.40784776E+03</pdfrwt>
<pdfrwt beam="2">  1       21 0.49779018E-01 0.40784776E+03</pdfrwt>
<totfact> 0.44408830E+03</totfact>
</mgrwt>
</event>
<event>
 4    1  0.4675559E-002  0.4656652E+03  0.7818608E-02  0.1023151E+00
         21   -1    0    0  501  502  0.00000000000E+00  0.00000000000E+00  0.11343733745E+04  0.11343733745E+04  0.00000000000E+00 0.  1.
         21   -1    0    0  502  503 -0.00000000000E+00 -0.00000000000E+00 -0.24270813738E+03  0.24270813738E+03  0.00000000000E+00 0. -1.
    9000007    1    1    2  501    0  0.97730139575E+02  0.21746932344E+03  0.76315748080E+03  0.89400974677E+03  0.40000000000E+03 0.  1.
   -9000007    1    1    2    0  503 -0.97730139575E+02 -0.21746932344E+03  0.12850775633E+03  0.48307176512E+03  0.40000000000E+03 0. -1.
<mgrwt>
<rscale>  2 0.46566521E+03</rscale>
<asrwt>0</asrwt>
<pdfrwt beam="1">  1       21 0.17451898E+00 0.46566521E+03</pdfrwt>
<pdfrwt beam="2">  1       21 0.37339714E-01 0.46566521E+03</pdfrwt>
<totfact> 0.11487250E+03</totfact>
</mgrwt>
</event>
<event>
 4    1  0.4675559E-002  0.6351271E+03  0.7818608E-02  0.9835094E-01
         21   -1    0    0  503  502  0.00000000000E+00  0.00000000000E+00  0.16135768137E+04  0.16135768137E+04  0.00000000000E+00 0.  1.
         21   -1    0    0  501  503 -0.00000000000E+00 -0.00000000000E+00 -0.79275393075E+03  0.79275393075E+03  0.00000000000E+00 0. -1.
    9000007    1    1    2  501    0  0.21711129455E+03 -0.44300008911E+03 -0.58513046815E+03  0.86357631854E+03  0.40000000000E+03 0. -1.
   -9000007    1    1    2    0  502 -0.21711129455E+03  0.44300008911E+03  0.14059533511E+04  0.15427544259E+04  0.40000000000E+03 0.  1.
<mgrwt>
<rscale>  2 0.63512707E+03</rscale>
<asrwt>0</asrwt>
<pdfrwt beam="1">  1       21 0.24824259E+00 0.63512707E+03</pdfrwt>
<pdfrwt beam="2">  1       21 0.12196214E+00 0.63512707E+03</pdfrwt>
<totfact> 0.23703311E+01</totfact>
</mgrwt>
</event>
<event>
 4    1  0.4675559E-002  0.4144578E+03  0.7818608E-02  0.1038885E+00
         21   -1    0    0  501  502  0.00000000000E+00  0.00000000000E+00  0.47242882219E+03  0.47242882219E+03  0.00000000000E+00 0. -1.
         21   -1    0    0  502  503 -0.00000000000E+00 -0.00000000000E+00 -0.36869097948E+03  0.36869097948E+03  0.00000000000E+00 0. -1.
    9000007    1    1    2  501    0 -0.10231748881E+03  0.36143693513E+02  0.10128711469E+03  0.42665479571E+03  0.40000000000E+03 0. -1.
   -9000007    1    1    2    0  503  0.10231748881E+03 -0.36143693513E+02  0.24507280100E+01  0.41446500596E+03  0.40000000000E+03 0. -1.
<mgrwt>
<rscale>  2 0.41445776E+03</rscale>
<asrwt>0</asrwt>
<pdfrwt beam="1">  1       21 0.72681358E-01 0.41445776E+03</pdfrwt>
<pdfrwt beam="2">  1       21 0.56721689E-01 0.41445776E+03</pdfrwt>
<totfact> 0.44265409E+03</totfact>
</mgrwt>
</event>
<event>
 4    1  0.4675559E-002  0.5150061E+03  0.7818608E-02  0.1009935E+00
         21   -1    0    0  503  502  0.00000000000E+00  0.00000000000E+00  0.97489380402E+03  0.97489380402E+03  0.00000000000E+00 0. -1.
         21   -1    0    0  501  503 -0.00000000000E+00 -0.00000000000E+00 -0.33073552971E+03  0.33073552971E+03  0.00000000000E+00 0.  1.
    9000007    1    1    2  501    0 -0.18398985101E+03 -0.26716851268E+03  0.59704048169E+03  0.78847233066E+03  0.40000000000E+03 0. -1.
   -9000007    1    1    2    0  502  0.18398985101E+03  0.26716851268E+03  0.47117792616E+02  0.51715700307E+03  0.40000000000E+03 0.  1.
<mgrwt>
<rscale>  2 0.51500610E+03</rscale>
<asrwt>0</asrwt>
<pdfrwt beam="1">  1       21 0.14998366E+00 0.51500610E+03</pdfrwt>
<pdfrwt beam="2">  1       21 0.50882390E-01 0.51500610E+03</pdfrwt>
<totfact> 0.90238631E+02</totfact>
</mgrwt>
</event>
<event>
 4    1  0.4675559E-002  0.4077043E+03  0.7818608E-02  0.1041144E+00
         21   -1    0    0  503  502  0.00000000000E+00  0.00000000000E+00  0.22355615139E+03  0.22355615139E+03  0.00000000000E+00 0. -1.
         21   -1    0    0  501  503 -0.00000000000E+00 -0.00000000000E+00 -0.13849428913E+04  0.13849428913E+04  0.00000000000E+00 0. -1.
    9000007    1    1    2  501    0 -0.19438702160E+01 -0.78860509375E+02 -0.11280124786E+04  0.11994310778E+04  0.40000000000E+03 0.  1.
   -9000007    1    1    2    0  502  0.19438702160E+01  0.78860509375E+02 -0.33374261315E+02  0.40906796488E+03  0.40000000000E+03 0.  1.
<mgrwt>
<rscale>  2 0.40770425E+03</rscale>
<asrwt>0</asrwt>
<pdfrwt beam="1">  1       21 0.34393254E-01 0.40770425E+03</pdfrwt>
<pdfrwt beam="2">  1       21 0.21306814E+00 0.40770425E+03</pdfrwt>
<totfact> 0.76390218E+02</totfact>
</mgrwt>
</event>
<event>
 4    1  0.4675559E-002  0.8297503E+03  0.7818608E-02  0.9517926E-01
         21   -1    0    0  501  502  0.00000000000E+00  0.00000000000E+00  0.90635249713E+03  0.90635249713E+03  0.00000000000E+00 0.  1.
         21   -1    0    0  502  503 -0.00000000000E+00 -0.00000000000E+00 -0.10433952288E+04  0.10433952288E+04  0.00000000000E+00 0. -1.
    9000007    1    1    2  501    0  0.72461886906E+03  0.58422054379E+02  0.43988317746E+03  0.93913942077E+03  0.40000000000E+03 0.  1.
   -9000007    1    1    2    0  503 -0.72461886906E+03 -0.58422054379E+02 -0.57692590914E+03  0.10106083052E+04  0.40000000000E+03 0. -1.
<mgrwt>
<rscale>  2 0.82975035E+03</rscale>
<asrwt>0</asrwt>
<pdfrwt beam="1">  1       21 0.13943885E+00 0.82975035E+03</pdfrwt>
<pdfrwt beam="2">  1       21 0.16052234E+00 0.82975035E+03</pdfrwt>
<totfact> 0.61249820E+01</totfact>
</mgrwt>
</event>
<event>
 4    1  0.4675559E-002  0.4553700E+03  0.7818608E-02  0.1026133E+00
         21   -1    0    0  503  502  0.00000000000E+00  0.00000000000E+00  0.15779890307E+04  0.15779890307E+04  0.00000000000E+00 0.  1.
         21   -1    0    0  501  503 -0.00000000000E+00 -0.00000000000E+00 -0.34476961561E+03  0.34476961561E+03  0.00000000000E+00 0.  1.
    9000007    1    1    2  501    0  0.15255673465E+03 -0.15520391184E+03 -0.13967881392E+03  0.47631080462E+03  0.40000000000E+03 0.  1.
   -9000007    1    1    2    0  502 -0.15255673465E+03  0.15520391184E+03  0.13728982290E+04  0.14464478417E+04  0.40000000000E+03 0.  1.
<mgrwt>
<rscale>  2 0.45536997E+03</rscale>
<asrwt>0</asrwt>
<pdfrwt beam="1">  1       21 0.24276754E+00 0.45536997E+03</pdfrwt>
<pdfrwt beam="2">  1       21 0.53041480E-01 0.45536997E+03</pdfrwt>
<totfact> 0.19650789E+02</totfact>
</mgrwt>
</event>
<event>
 4    1  0.4675559E-002  0.4187101E+03  0.7818608E-02  0.1037487E+00
         21   -1    0    0  501  502  0.00000000000E+00  0.00000000000E+00  0.76795110040E+03  0.76795110040E+03  0.00000000000E+00 0. -1.
         21   -1    0    0  502  503 -0.00000000000E+00 -0.00000000000E+00 -0.56086309128E+03  0.56086309128E+03  0.00000000000E+00 0. -1.
    9000007    1    1    2  501    0  0.89911562785E+02  0.85053368879E+02  0.61516359726E+03  0.74414005139E+03  0.40000000000E+03 0. -1.
   -9000007    1    1    2    0  503 -0.89911562785E+02 -0.85053368879E+02 -0.40807558814E+03  0.58467414029E+03  0.40000000000E+03 0. -1.
<mgrwt>
<rscale>  2 0.41871012E+03</rscale>
<asrwt>0</asrwt>
<pdfrwt beam="1">  1       21 0.11814632E+00 0.41871012E+03</pdfrwt>
<pdfrwt beam="2">  1       21 0.86286629E-01 0.41871012E+03</pdfrwt>
<totfact> 0.53995641E+02</totfact>
</mgrwt>
</event>
<event>
 4    1  0.4675559E-002  0.5530165E+03  0.7818608E-02  0.1000798E+00
         21   -1    0    0  501  502  0.00000000000E+00  0.00000000000E+00  0.60256309566E+03  0.60256309566E+03  0.00000000000E+00 0. -1.
         21   -1    0    0  502  503 -0.00000000000E+00 -0.00000000000E+00 -0.51103860963E+03  0.51103860963E+03  0.00000000000E+00 0. -1.
    9000007    1    1    2  501    0 -0.16294173359E+03 -0.34536532073E+03  0.91806942300E+02  0.56058516566E+03  0.40000000000E+03 0. -1.
   -9000007    1    1    2    0  503  0.16294173359E+03  0.34536532073E+03 -0.28245626882E+00  0.55301653962E+03  0.40000000000E+03 0. -1.
<mgrwt>
<rscale>  2 0.55301647E+03</rscale>
<asrwt>0</asrwt>
<pdfrwt beam="1">  1       21 0.92702015E-01 0.55301647E+03</pdfrwt>
<pdfrwt beam="2">  1       21 0.78621324E-01 0.55301647E+03</pdfrwt>
<totfact> 0.11541667E+03</totfact>
</mgrwt>
</event>
<event>
 4    1  0.4675559E-002  0.5290552E+03  0.7818608E-02  0.1006462E+00
         21   -1    0    0  503  502  0.00000000000E+00  0.00000000000E+00  0.48612993177E+03  0.48612993177E+03  0.00000000000E+00 0. -1.
         21   -1    0    0  501  503 -0.00000000000E+00 -0.00000000000E+00 -0.88204270005E+03  0.88204270005E+03  0.00000000000E+00 0. -1.
    9000007    1    1    2  501    0 -0.15420025922E+03  0.31003502118E+03 -0.60106274691E+03  0.80073457526E+03  0.40000000000E+03 0. -1.
   -9000007    1    1    2    0  502  0.15420025922E+03 -0.31003502118E+03  0.20514997862E+03  0.56743805656E+03  0.40000000000E+03 0. -1.
<mgrwt>
<rscale>  2 0.52905523E+03</rscale>
<asrwt>0</asrwt>
<pdfrwt beam="1">  1       21 0.74789222E-01 0.52905523E+03</pdfrwt>
<pdfrwt beam="2">  1       21 0.13569887E+00 0.52905523E+03</pdfrwt>
<totfact> 0.50138306E+02</totfact>
</mgrwt>
</event>
<event>
 4    1  0.4675559E-002  0.4145361E+03  0.7818608E-02  0.1038859E+00
         21   -1    0    0  501  502  0.00000000000E+00  0.00000000000E+00  0.74292898528E+02  0.74292898528E+02  0.00000000000E+00 0. -1.
         21   -1    0    0  502  503 -0.00000000000E+00 -0.00000000000E+00 -0.37758181239E+04  0.37758181239E+04  0.00000000000E+00 0. -1.
    9000007    1    1    2  501    0 -0.95787896692E+02  0.51622410674E+02 -0.65255671924E+03  0.77309149928E+03  0.40000000000E+03 0. -1.
   -9000007    1    1    2    0  503  0.95787896692E+02 -0.51622410674E+02 -0.30489685061E+04  0.30770195231E+04  0.40000000000E+03 0. -1.
<mgrwt>
<rscale>  2 0.41453612E+03</rscale>
<asrwt>0</asrwt>
<pdfrwt beam="1">  1       21 0.11429677E-01 0.41453612E+03</pdfrwt>
<pdfrwt beam="2">  1       21 0.58089510E+00 0.41453612E+03</pdfrwt>
<totfact> 0.23386656E+01</totfact>
</mgrwt>
</event>
<event>
 4    1  0.4675559E-002  0.5394466E+03  0.7818608E-02  0.1003967E+00
         21   -1    0    0  503  502  0.00000000000E+00  0.00000000000E+00  0.14914733462E+04  0.14914733462E+04  0.00000000000E+00 0.  1.
         21   -1    0    0  501  503 -0.00000000000E+00 -0.00000000000E+00 -0.22413356463E+03  0.22413356463E+03  0.00000000000E+00 0. -1.
    9000007    1    1    2  501    0 -0.23282535403E+03 -0.27711899438E+03  0.94234641968E+03  0.10858265779E+04  0.40000000000E+03 0. -1.
   -9000007    1    1    2    0  502  0.23282535403E+03  0.27711899438E+03  0.32499336190E+03  0.62978033297E+03  0.40000000000E+03 0.  1.
<mgrwt>
<rscale>  2 0.53944655E+03</rscale>
<asrwt>0</asrwt>
<pdfrwt beam="1">  1       21 0.22945743E+00 0.53944655E+03</pdfrwt>
<pdfrwt beam="2">  1       21 0.34482088E-01 0.53944655E+03</pdfrwt>
<totfact> 0.56114280E+02</totfact>
</mgrwt>
</event>
<event>
 4    1  0.4675559E-002  0.6056936E+03  0.7818608E-02  0.9893664E-01
         21   -1    0    0  501  502  0.00000000000E+00  0.00000000000E+00  0.28981947439E+04  0.28981947439E+04  0.00000000000E+00 0. -1.
         21   -1    0    0  502  503 -0.00000000000E+00 -0.00000000000E+00 -0.48001214113E+03  0.48001214113E+03  0.00000000000E+00 0. -1.
    9000007    1    1    2  501    0  0.29204055147E+03  0.34867903453E+03  0.26584663123E+04  0.27265927247E+04  0.40000000000E+03 0. -1.
   -9000007    1    1    2    0  503 -0.29204055147E+03 -0.34867903453E+03 -0.24028370954E+03  0.65161416030E+03  0.40000000000E+03 0. -1.
<mgrwt>
<rscale>  2 0.60569361E+03</rscale>
<asrwt>0</asrwt>
<pdfrwt beam="1">  1       21 0.44587610E+00 0.60569361E+03</pdfrwt>
<pdfrwt beam="2">  1       21 0.73848024E-01 0.60569361E+03</pdfrwt>
<totfact> 0.46076260E+00</totfact>
</mgrwt>
</event>
<event>
 4    1  0.4675559E-002  0.5616713E+03  0.7818608E-02  0.9988280E-01
         21   -1    0    0  503  502  0.00000000000E+00  0.00000000000E+00  0.19504236477E+03  0.19504236477E+03  0.00000000000E+00 0.  1.
         21   -1    0    0  501  503 -0.00000000000E+00 -0.00000000000E+00 -0.16344622853E+04  0.16344622853E+04  0.00000000000E+00 0. -1.
    9000007    1    1    2  501    0  0.39321808592E+03 -0.29225516035E+02 -0.62643180361E+03  0.84136282212E+03  0.40000000000E+03 0.  1.
   -9000007    1    1    2    0  502 -0.39321808592E+03  0.29225516035E+02 -0.81298811694E+03  0.98814182796E+03  0.40000000000E+03 0.  1.
<mgrwt>
<rscale>  2 0.56167125E+03</rscale>
<asrwt>0</asrwt>
<pdfrwt beam="1">  1       21 0.30006518E-01 0.56167125E+03</pdfrwt>
<pdfrwt beam="2">  1       21 0.25145573E+00 0.56167125E+03</pdfrwt>
<totfact> 0.53540622E+02</totfact>
</mgrwt>
</event>
<event>
 4    1  0.4675559E-002  0.5135635E+03  0.7818608E-02  0.1010298E+00
         21   -1    0    0  501  502  0.00000000000E+00  0.00000000000E+00  0.25128284402E+04  0.25128284402E+04  0.00000000000E+00 0. -1.
         21   -1    0    0  502  503 -0.00000000000E+00 -0.00000000000E+00 -0.24921135066E+03  0.24921135066E+03  0.00000000000E+00 0.  1.
    9000007    1    1    2  501    0  0.47563656235E+02 -0.31856739182E+03  0.21825003958E+04  0.22421096008E+04  0.40000000000E+03 0. -1.
   -9000007    1    1    2    0  503 -0.47563656235E+02  0.31856739182E+03  0.81116693782E+02  0.51993019006E+03  0.40000000000E+03 0.  1.
<mgrwt>
<rscale>  2 0.51356352E+03</rscale>
<asrwt>0</asrwt>
<pdfrwt beam="1">  1       21 0.38658897E+00 0.51356352E+03</pdfrwt>
<pdfrwt beam="2">  1       21 0.38340210E-01 0.51356352E+03</pdfrwt>
<totfact> 0.49370327E+01</totfact>
</mgrwt>
</event>
<event>
 4    1  0.4675559E-002  0.4873642E+03  0.7818608E-02  0.1017131E+00
         21   -1    0    0  501  502  0.00000000000E+00  0.00000000000E+00  0.17248295329E+04  0.17248295329E+04  0.00000000000E+00 0. -1.
         21   -1    0    0  502  503 -0.00000000000E+00 -0.00000000000E+00 -0.10098021571E+04  0.10098021571E+04  0.00000000000E+00 0. -1.
    9000007    1    1    2  501    0  0.43722059747E+02 -0.27497671952E+03  0.16281821331E+04  0.16995590232E+04  0.40000000000E+03 0. -1.
   -9000007    1    1    2    0  503 -0.43722059747E+02  0.27497671952E+03 -0.91315475727E+03  0.10350726668E+04  0.40000000000E+03 0. -1.
<mgrwt>
<rscale>  2 0.48736415E+03</rscale>
<asrwt>0</asrwt>
<pdfrwt beam="1">  1       21 0.26535839E+00 0.48736415E+03</pdfrwt>
<pdfrwt beam="2">  1       21 0.15535418E+00 0.48736415E+03</pdfrwt>
<totfact> 0.10611242E+01</totfact>
</mgrwt>
</event>
<event>
 4    1  0.4675559E-002  0.4223727E+03  0.7818608E-02  0.1036297E+00
         21   -1    0    0  503  502  0.00000000000E+00  0.00000000000E+00  0.79616065045E+03  0.79616065045E+03  0.00000000000E+00 0. -1.
         21   -1    0    0  501  503 -0.00000000000E+00 -0.00000000000E+00 -0.26505520655E+03  0.26505520655E+03  0.00000000000E+00 0. -1.
    9000007    1    1    2  501    0  0.12332896138E+03 -0.56467920577E+02  0.56911771934E+02  0.42618963919E+03  0.40000000000E+03 0. -1.
   -9000007    1    1    2    0  502 -0.12332896138E+03  0.56467920577E+02  0.47419367197E+03  0.63502621781E+03  0.40000000000E+03 0. -1.
<mgrwt>
<rscale>  2 0.42237265E+03</rscale>
<asrwt>0</asrwt>
<pdfrwt beam="1">  1       21 0.12248625E+00 0.42237265E+03</pdfrwt>
<pdfrwt beam="2">  1       21 0.40777725E-01 0.42237265E+03</pdfrwt>
<totfact> 0.25391739E+03</totfact>
</mgrwt>
</event>
<event>
 4    1  0.4675559E-002  0.5017875E+03  0.7818608E-02  0.1013313E+00
         21   -1    0    0  503  502  0.00000000000E+00  0.00000000000E+00  0.14065383776E+04  0.14065383776E+04  0.00000000000E+00 0.  1.
         21   -1    0    0  501  503 -0.00000000000E+00 -0.00000000000E+00 -0.18408159394E+03  0.18408159394E+03  0.00000000000E+00 0. -1.
    9000007    1    1    2  501    0 -0.12344434217E+03 -0.27668058996E+03  0.47927696853E+03  0.69389989699E+03  0.40000000000E+03 0.  1.
   -9000007    1    1    2    0  502  0.12344434217E+03  0.27668058996E+03  0.74317981513E+03  0.89672007454E+03  0.40000000000E+03 0.  1.
<mgrwt>
<rscale>  2 0.50178746E+03</rscale>
<asrwt>0</asrwt>
<pdfrwt beam="1">  1       21 0.21639051E+00 0.50178746E+03</pdfrwt>
<pdfrwt beam="2">  1       21 0.28320246E-01 0.50178746E+03</pdfrwt>
<totfact> 0.10249979E+03</totfact>
</mgrwt>
</event>
<event>
 4    1  0.4675559E-002  0.4059590E+03  0.7818608E-02  0.1041736E+00
         21   -1    0    0  501  502  0.00000000000E+00  0.00000000000E+00  0.99185767331E+02  0.99185767331E+02  0.00000000000E+00 0.  1.
         21   -1    0    0  502  503 -0.00000000000E+00 -0.00000000000E+00 -0.18189679644E+04  0.18189679644E+04  0.00000000000E+00 0.  1.
    9000007    1    1    2  501    0 -0.66214797930E+02  0.20451848304E+02 -0.11420281780E+04  0.12120359058E+04  0.40000000000E+03 0.  1.
   -9000007    1    1    2    0  503  0.66214797930E+02 -0.20451848304E+02 -0.57775401904E+03  0.70611782592E+03  0.40000000000E+03 0.  1.
<mgrwt>
<rscale>  2 0.40595896E+03</rscale>
<asrwt>0</asrwt>
<pdfrwt beam="1">  1       21 0.15259350E-01 0.40595896E+03</pdfrwt>
<pdfrwt beam="2">  1       21 0.27984120E+00 0.40595896E+03</pdfrwt>
<totfact> 0.14198680E+03</totfact>
</mgrwt>
</event>
<event>
 4    1  0.4675559E-002  0.6034087E+03  0.7818608E-02  0.9898359E-01
         21   -1    0    0  503  502  0.00000000000E+00  0.00000000000E+00  0.30740834508E+03  0.30740834508E+03  0.00000000000E+00 0. -1.
         21   -1    0    0  501  503 -0.00000000000E+00 -0.00000000000E+00 -0.13389626590E+04  0.13389626590E+04  0.00000000000E+00 0.  1.
    9000007    1    1    2  501    0 -0.38962232634E+03 -0.22868422650E+03 -0.23611668526E+03  0.64796074086E+03  0.40000000000E+03 0.  1.
   -9000007    1    1    2    0  502  0.38962232634E+03  0.22868422650E+03 -0.79543762863E+03  0.99841026321E+03  0.40000000000E+03 0. -1.
<mgrwt>
<rscale>  2 0.60340868E+03</rscale>
<asrwt>0</asrwt>
<pdfrwt beam="1">  1       21 0.47293591E-01 0.60340868E+03</pdfrwt>
<pdfrwt beam="2">  1       21 0.20599426E+00 0.60340868E+03</pdfrwt>
<totfact> 0.40357430E+02</totfact>
</mgrwt>
</event>
<event>
 4    1  0.4675559E-002  0.4178534E+03  0.7818608E-02  0.1037767E+00
         21   -1    0    0  503  502  0.00000000000E+00  0.00000000000E+00  0.38886156209E+03  0.38886156209E+03  0.00000000000E+00 0. -1.
         21   -1    0    0  501  503 -0.00000000000E+00 -0.00000000000E+00 -0.62631285065E+03  0.62631285065E+03  0.00000000000E+00 0. -1.
    9000007    1    1    2  501    0  0.11975839279E+03 -0.16105224606E+02 -0.38879598573E+03  0.57075718955E+03  0.40000000000E+03 0. -1.
   -9000007    1    1    2    0  502 -0.11975839279E+03  0.16105224606E+02  0.15134469717E+03  0.44441722319E+03  0.40000000000E+03 0. -1.
<mgrwt>
<rscale>  2 0.41785338E+03</rscale>
<asrwt>0</asrwt>
<pdfrwt beam="1">  1       21 0.59824857E-01 0.41785338E+03</pdfrwt>
<pdfrwt beam="2">  1       21 0.96355822E-01 0.41785338E+03</pdfrwt>
<totfact> 0.20415674E+03</totfact>
</mgrwt>
</event>
<event>
 4    1  0.4675559E-002  0.4437272E+03  0.7818608E-02  0.1029609E+00
         21   -1    0    0  501  502  0.00000000000E+00  0.00000000000E+00  0.27407076937E+03  0.27407076937E+03  0.00000000000E+00 0. -1.
         21   -1    0    0  502  503 -0.00000000000E+00 -0.00000000000E+00 -0.99399681832E+03  0.99399681832E+03  0.00000000000E+00 0.  1.
    9000007    1    1    2  501    0  0.19186725738E+03 -0.89861554442E+01 -0.26111691806E+02  0.44449478725E+03  0.40000000000E+03 0. -1.
   -9000007    1    1    2    0  503 -0.19186725738E+03  0.89861554442E+01 -0.69381435715E+03  0.82357280044E+03  0.40000000000E+03 0.  1.
<mgrwt>
<rscale>  2 0.44372716E+03</rscale>
<asrwt>0</asrwt>
<pdfrwt beam="1">  1       21 0.42164734E-01 0.44372716E+03</pdfrwt>
<pdfrwt beam="2">  1       21 0.15292259E+00 0.44372716E+03</pdfrwt>
<totfact> 0.13082610E+03</totfact>
</mgrwt>
</event>
<event>
 4    1  0.4675559E-002  0.4017952E+03  0.7818608E-02  0.1043160E+00
         21   -1    0    0  503  502  0.00000000000E+00  0.00000000000E+00  0.22659965521E+03  0.22659965521E+03  0.00000000000E+00 0. -1.
         21   -1    0    0  501  503 -0.00000000000E+00 -0.00000000000E+00 -0.22983153830E+04  0.22983153830E+04  0.00000000000E+00 0. -1.
    9000007    1    1    2  501    0 -0.12573532743E+02 -0.35795641239E+02 -0.20845452132E+04  0.21229150166E+04  0.40000000000E+03 0. -1.
   -9000007    1    1    2    0  502  0.12573532743E+02  0.35795641239E+02  0.12829485468E+02  0.40200002159E+03  0.40000000000E+03 0. -1.
<mgrwt>
<rscale>  2 0.40179525E+03</rscale>
<asrwt>0</asrwt>
<pdfrwt beam="1">  1       21 0.34861484E-01 0.40179525E+03</pdfrwt>
<pdfrwt beam="2">  1       21 0.35358699E+00 0.40179525E+03</pdfrwt>
<totfact> 0.10405024E+02</totfact>
</mgrwt>
</event>
<event>
 4    1  0.4675559E-002  0.4037485E+03  0.7818608E-02  0.1042489E+00
         21   -1    0    0  503  502  0.00000000000E+00  0.00000000000E+00  0.31950318683E+03  0.31950318683E+03  0.00000000000E+00 0. -1.
         21   -1    0    0  501  503 -0.00000000000E+00 -0.00000000000E+00 -0.61631403551E+03  0.61631403551E+03  0.00000000000E+00 0. -1.
    9000007    1    1    2  501    0  0.46208671953E+02  0.29624923478E+02  0.45741878974E+02  0.40633138809E+03  0.40000000000E+03 0. -1.
   -9000007    1    1    2    0  502 -0.46208671953E+02 -0.29624923478E+02 -0.34255272765E+03  0.52948583425E+03  0.40000000000E+03 0. -1.
<mgrwt>
<rscale>  2 0.40374853E+03</rscale>
<asrwt>0</asrwt>
<pdfrwt beam="1">  1       21 0.49154336E-01 0.40374853E+03</pdfrwt>
<pdfrwt beam="2">  1       21 0.94817544E-01 0.40374853E+03</pdfrwt>
<totfact> 0.32556399E+03</totfact>
</mgrwt>
</event>
<event>
 4    1  0.4675559E-002  0.4164133E+03  0.7818608E-02  0.1038240E+00
         21   -1    0    0  501  502  0.00000000000E+00  0.00000000000E+00  0.76420906335E+03  0.76420906335E+03  0.00000000000E+00 0. -1.
         21   -1    0    0  502  503 -0.00000000000E+00 -0.00000000000E+00 -0.23328649855E+03  0.23328649855E+03  0.00000000000E+00 0. -1.
    9000007    1    1    2  501    0  0.84150361719E+02 -0.79490762505E+02  0.34797417851E+03  0.54266572917E+03  0.40000000000E+03 0. -1.
   -9000007    1    1    2    0  503 -0.84150361719E+02  0.79490762505E+02  0.18294838628E+03  0.45482983273E+03  0.40000000000E+03 0. -1.
<mgrwt>
<rscale>  2 0.41641333E+03</rscale>
<asrwt>0</asrwt>
<pdfrwt beam="1">  1       21 0.11757062E+00 0.41641333E+03</pdfrwt>
<pdfrwt beam="2">  1       21 0.35890231E-01 0.41641333E+03</pdfrwt>
<totfact> 0.36660570E+03</totfact>
</mgrwt>
</event>
<event>
 4    1  0.4675559E-002  0.6924776E+03  0.7818608E-02  0.9730184E-01
         21   -1    0    0  503  502  0.00000000000E+00  0.00000000000E+00  0.40089117368E+03  0.40089117368E+03  0.00000000000E+00 0. -1.
         21   -1    0    0  501  503 -0.00000000000E+00 -0.00000000000E+00 -0.12115925716E+04  0.12115925716E+04  0.00000000000E+00 0.  1.
    9000007    1    1    2  501    0  0.23204320071E+03 -0.51544269279E+03 -0.49637839422E+03  0.85200746874E+03  0.40000000000E+03 0. -1.
   -9000007    1    1    2    0  502 -0.23204320071E+03  0.51544269279E+03 -0.31432300374E+03  0.76047627657E+03  0.40000000000E+03 0.  1.
<mgrwt>
<rscale>  2 0.69247759E+03</rscale>
<asrwt>0</asrwt>
<pdfrwt beam="1">  1       21 0.61675566E-01 0.69247759E+03</pdfrwt>
<pdfrwt beam="2">  1       21 0.18639885E+00 0.69247759E+03</pdfrwt>
<totfact> 0.29949778E+02</totfact>
</mgrwt>
</event>
<event>
 4    1  0.4675559E-002  0.4946666E+03  0.7818608E-02  0.1015180E+00
         21   -1    0    0  503  502  0.00000000000E+00  0.00000000000E+00  0.24397944842E+04  0.24397944842E+04  0.00000000000E+00 0.  1.
         21   -1    0    0  501  503 -0.00000000000E+00 -0.00000000000E+00 -0.10259990886E+03  0.10259990886E+03  0.00000000000E+00 0.  1.
    9000007    1    1    2  501    0  0.11910086740E+03  0.26553731288E+03  0.97799643712E+03  0.10959799780E+04  0.40000000000E+03 0.  1.
   -9000007    1    1    2    0  502 -0.11910086740E+03 -0.26553731288E+03  0.13591981382E+04  0.14464144151E+04  0.40000000000E+03 0.  1.
<mgrwt>
<rscale>  2 0.49466664E+03</rscale>
<asrwt>0</asrwt>
<pdfrwt beam="1">  1       21 0.37535295E+00 0.49466664E+03</pdfrwt>
<pdfrwt beam="2">  1       21 0.15784603E-01 0.49466664E+03</pdfrwt>
<totfact> 0.33231257E+02</totfact>
</mgrwt>
</event>
<event>
 4    1  0.4675559E-002  0.4514985E+03  0.7818608E-02  0.1027276E+00
         21   -1    0    0  501  502  0.00000000000E+00  0.00000000000E+00  0.22306838255E+03  0.22306838255E+03  0.00000000000E+00 0. -1.
         21   -1    0    0  502  503 -0.00000000000E+00 -0.00000000000E+00 -0.17724933079E+04  0.17724933079E+04  0.00000000000E+00 0. -1.
    9000007    1    1    2  501    0  0.20939243653E+03  0.23825623754E+01 -0.80248921756E+02  0.45857470332E+03  0.40000000000E+03 0. -1.
   -9000007    1    1    2    0  503 -0.20939243653E+03 -0.23825623754E+01 -0.14691760035E+04  0.15369869871E+04  0.40000000000E+03 0. -1.
<mgrwt>
<rscale>  2 0.45149847E+03</rscale>
<asrwt>0</asrwt>
<pdfrwt beam="1">  1       21 0.34318211E-01 0.45149847E+03</pdfrwt>
<pdfrwt beam="2">  1       21 0.27269129E+00 0.45149847E+03</pdfrwt>
<totfact> 0.31982426E+02</totfact>
</mgrwt>
</event>
<event>
 4    1  0.4675559E-002  0.7828558E+03  0.7818608E-02  0.9585170E-01
         21   -1    0    0  503  502  0.00000000000E+00  0.00000000000E+00  0.69724510658E+03  0.69724510658E+03  0.00000000000E+00 0.  1.
         21   -1    0    0  501  503 -0.00000000000E+00 -0.00000000000E+00 -0.14033201660E+04  0.14033201660E+04  0.00000000000E+00 0. -1.
    9000007    1    1    2  501    0 -0.59436730504E+03  0.31558005110E+03 -0.99503764155E+03  0.12660818181E+04  0.40000000000E+03 0. -1.
   -9000007    1    1    2    0  502  0.59436730504E+03 -0.31558005110E+03  0.28896258214E+03  0.83448345450E+03  0.40000000000E+03 0.  1.
<mgrwt>
<rscale>  2 0.78285584E+03</rscale>
<asrwt>0</asrwt>
<pdfrwt beam="1">  1       21 0.10726848E+00 0.78285584E+03</pdfrwt>
<pdfrwt beam="2">  1       21 0.21589541E+00 0.78285584E+03</pdfrwt>
<totfact> 0.49875375E+01</totfact>
</mgrwt>
</event>
<event>
 4    1  0.4675559E-002  0.4446785E+03  0.7818608E-02  0.1029321E+00
         21   -1    0    0  501  502  0.00000000000E+00  0.00000000000E+00  0.11319786377E+03  0.11319786377E+03  0.00000000000E+00 0.  1.
         21   -1    0    0  502  503 -0.00000000000E+00 -0.00000000000E+00 -0.17595643025E+04  0.17595643025E+04  0.00000000000E+00 0.  1.
    9000007    1    1    2  501    0  0.17199610502E+03  0.90312305843E+02 -0.74356650163E+03  0.86638912451E+03  0.40000000000E+03 0.  1.
   -9000007    1    1    2    0  503 -0.17199610502E+03 -0.90312305843E+02 -0.90279993706E+03  0.10063730417E+04  0.40000000000E+03 0.  1.
<mgrwt>
<rscale>  2 0.44467850E+03</rscale>
<asrwt>0</asrwt>
<pdfrwt beam="1">  1       21 0.17415057E-01 0.44467850E+03</pdfrwt>
<pdfrwt beam="2">  1       21 0.27070219E+00 0.44467850E+03</pdfrwt>
<totfact> 0.12338104E+03</totfact>
</mgrwt>
</event>
<event>
 4    1  0.4675559E-002  0.6152787E+03  0.7818608E-02  0.9874205E-01
         21   -1    0    0  501  502  0.00000000000E+00  0.00000000000E+00  0.15537062284E+04  0.15537062284E+04  0.00000000000E+00 0. -1.
         21   -1    0    0  502  503 -0.00000000000E+00 -0.00000000000E+00 -0.34319130266E+03  0.34319130266E+03  0.00000000000E+00 0.  1.
    9000007    1    1    2  501    0  0.46715014075E+03  0.18403277028E+02  0.11160411183E+04  0.12744079850E+04  0.40000000000E+03 0. -1.
   -9000007    1    1    2    0  503 -0.46715014075E+03 -0.18403277028E+02  0.94473807430E+02  0.62248954601E+03  0.40000000000E+03 0.  1.
<mgrwt>
<rscale>  2 0.61527875E+03</rscale>
<asrwt>0</asrwt>
<pdfrwt beam="1">  1       21 0.23903172E+00 0.61527875E+03</pdfrwt>
<pdfrwt beam="2">  1       21 0.52798663E-01 0.61527875E+03</pdfrwt>
<totfact> 0.19414647E+02</totfact>
</mgrwt>
</event>
<event>
 4    1  0.4675559E-002  0.4148300E+03  0.7818608E-02  0.1038762E+00
         21   -1    0    0  501  502  0.00000000000E+00  0.00000000000E+00  0.23805249126E+04  0.23805249126E+04  0.00000000000E+00 0.  1.
         21   -1    0    0  502  503 -0.00000000000E+00 -0.00000000000E+00 -0.26868093432E+03  0.26868093432E+03  0.00000000000E+00 0.  1.
    9000007    1    1    2  501    0  0.86556622712E+02  0.67763491199E+02  0.21884004640E+04  0.22273707663E+04  0.40000000000E+03 0.  1.
   -9000007    1    1    2    0  503 -0.86556622712E+02 -0.67763491199E+02 -0.76556485795E+02  0.42183508056E+03  0.40000000000E+03 0.  1.
<mgrwt>
<rscale>  2 0.41483001E+03</rscale>
<asrwt>0</asrwt>
<pdfrwt beam="1">  1       21 0.36623459E+00 0.41483001E+03</pdfrwt>
<pdfrwt beam="2">  1       21 0.41335530E-01 0.41483001E+03</pdfrwt>
<totfact> 0.60799116E+01</totfact>
</mgrwt>
</event>
<event>
 4    1  0.4675559E-002  0.4487924E+03  0.7818608E-02  0.1028083E+00
         21   -1    0    0  501  502  0.00000000000E+00  0.00000000000E+00  0.40132489767E+03  0.40132489767E+03  0.00000000000E+00 0. -1.
         21   -1    0    0  502  503 -0.00000000000E+00 -0.00000000000E+00 -0.53807171574E+03  0.53807171574E+03  0.00000000000E+00 0. -1.
    9000007    1    1    2  501    0 -0.16810073445E+03  0.11470294021E+03  0.53452077409E+02  0.45196431938E+03  0.40000000000E+03 0. -1.
   -9000007    1    1    2    0  503  0.16810073445E+03 -0.11470294021E+03 -0.19019889549E+03  0.48743229403E+03  0.40000000000E+03 0. -1.
<mgrwt>
<rscale>  2 0.44879240E+03</rscale>
<asrwt>0</asrwt>
<pdfrwt beam="1">  1       21 0.61742292E-01 0.44879240E+03</pdfrwt>
<pdfrwt beam="2">  1       21 0.82780264E-01 0.44879240E+03</pdfrwt>
<totfact> 0.26952071E+03</totfact>
</mgrwt>
</event>
<event>
 4    1  0.4675559E-002  0.4265879E+03  0.7818608E-02  0.1034943E+00
         21   -1    0    0  503  502  0.00000000000E+00  0.00000000000E+00  0.68382870636E+03  0.68382870636E+03  0.00000000000E+00 0.  1.
         21   -1    0    0  501  503 -0.00000000000E+00 -0.00000000000E+00 -0.72897783934E+03  0.72897783934E+03  0.00000000000E+00 0.  1.
    9000007    1    1    2  501    0 -0.13190567913E+03  0.67662134825E+02 -0.58546201204E+03  0.72439149651E+03  0.40000000000E+03 0.  1.
   -9000007    1    1    2    0  502  0.13190567913E+03 -0.67662134825E+02  0.54031287906E+03  0.68841504919E+03  0.40000000000E+03 0.  1.
<mgrwt>
<rscale>  2 0.42658794E+03</rscale>
<asrwt>0</asrwt>
<pdfrwt beam="1">  1       21 0.10520442E+00 0.42658794E+03</pdfrwt>
<pdfrwt beam="2">  1       21 0.11215044E+00 0.42658794E+03</pdfrwt>
<totfact> 0.38083580E+02</totfact>
</mgrwt>
</event>
<event>
 4    1  0.4675559E-002  0.4432717E+03  0.7818608E-02  0.1029748E+00
         21   -1    0    0  501  502  0.00000000000E+00  0.00000000000E+00  0.53897364762E+03  0.53897364762E+03  0.00000000000E+00 0. -1.
         21   -1    0    0  502  503 -0.00000000000E+00 -0.00000000000E+00 -0.64006055008E+03  0.64006055008E+03  0.00000000000E+00 0. -1.
    9000007    1    1    2  501    0  0.17094869547E+03 -0.85243090265E+02  0.33621940582E+03  0.55635719621E+03  0.40000000000E+03 0. -1.
   -9000007    1    1    2    0  503 -0.17094869547E+03  0.85243090265E+02 -0.43730630828E+03  0.62267700149E+03  0.40000000000E+03 0. -1.
<mgrwt>
<rscale>  2 0.44327175E+03</rscale>
<asrwt>0</asrwt>
<pdfrwt beam="1">  1       21 0.82919023E-01 0.44327175E+03</pdfrwt>
<pdfrwt beam="2">  1       21 0.98470853E-01 0.44327175E+03</pdfrwt>
<totfact> 0.91874305E+02</totfact>
</mgrwt>
</event>
<event>
 4    1  0.4675559E-002  0.4735227E+03  0.7818608E-02  0.1020931E+00
         21   -1    0    0  501  502  0.00000000000E+00  0.00000000000E+00  0.12708901509E+03  0.12708901509E+03  0.00000000000E+00 0. -1.
         21   -1    0    0  502  503 -0.00000000000E+00 -0.00000000000E+00 -0.17810533105E+04  0.17810533105E+04  0.00000000000E+00 0.  1.
    9000007    1    1    2  501    0  0.24348249356E+03  0.70285276137E+02 -0.91950135395E+03  0.10342661575E+04  0.40000000000E+03 0. -1.
   -9000007    1    1    2    0  503 -0.24348249356E+03 -0.70285276137E+02 -0.73446294142E+03  0.87387616802E+03  0.40000000000E+03 0. -1.
<mgrwt>
<rscale>  2 0.47352270E+03</rscale>
<asrwt>0</asrwt>
<pdfrwt beam="1">  1       21 0.19552157E-01 0.47352270E+03</pdfrwt>
<pdfrwt beam="2">  1       21 0.27400818E+00 0.47352270E+03</pdfrwt>
<totfact> 0.93311547E+02</totfact>
</mgrwt>
</event>
<event>
 4    1  0.4675559E-002  0.4061271E+03  0.7818608E-02  0.1041679E+00
         21   -1    0    0  503  502  0.00000000000E+00  0.00000000000E+00  0.16779312150E+03  0.16779312150E+03  0.00000000000E+00 0. -1.
         21   -1    0    0  501  503 -0.00000000000E+00 -0.00000000000E+00 -0.10838118757E+04  0.10838118757E+04  0.00000000000E+00 0. -1.
    9000007    1    1    2  501    0 -0.70274337172E+02  0.83897521235E+00 -0.64887812637E+03  0.76549461737E+03  0.40000000000E+03 0.  1.
   -9000007    1    1    2    0  502  0.70274337172E+02 -0.83897521235E+00 -0.26714062786E+03  0.48611037985E+03  0.40000000000E+03 0.  1.
<mgrwt>
<rscale>  2 0.40612706E+03</rscale>
<asrwt>0</asrwt>
<pdfrwt beam="1">  1       21 0.25814327E-01 0.40612706E+03</pdfrwt>
<pdfrwt beam="2">  1       21 0.16674029E+00 0.40612706E+03</pdfrwt>
<totfact> 0.28009337E+03</totfact>
</mgrwt>
</event>
<event>
 4    1  0.4675559E-002  0.4628943E+03  0.7818608E-02  0.1023945E+00
         21   -1    0    0  501  502  0.00000000000E+00  0.00000000000E+00  0.11334804930E+04  0.11334804930E+04  0.00000000000E+00 0. -1.
         21   -1    0    0  502  503 -0.00000000000E+00 -0.00000000000E+00 -0.22341528590E+03  0.22341528590E+03  0.00000000000E+00 0.  1.
    9000007    1    1    2  501    0  0.36255116297E+01  0.23293340911E+03  0.72116304482E+03  0.85694063658E+03  0.40000000000E+03 0. -1.
   -9000007    1    1    2    0  503 -0.36255116297E+01 -0.23293340911E+03  0.18890216228E+03  0.49995514232E+03  0.40000000000E+03 0. -1.
<mgrwt>
<rscale>  2 0.46289428E+03</rscale>
<asrwt>0</asrwt>
<pdfrwt beam="1">  1       21 0.17438161E+00 0.46289428E+03</pdfrwt>
<pdfrwt beam="2">  1       21 0.34371583E-01 0.46289428E+03</pdfrwt>
<totfact> 0.13638539E+03</totfact>
</mgrwt>
</event>
<event>
 4    1  0.4675559E-002  0.4226871E+03  0.7818608E-02  0.1036195E+00
         21   -1    0    0  501  502  0.00000000000E+00  0.00000000000E+00  0.15300646323E+04  0.15300646323E+04  0.00000000000E+00 0.  1.
         21   -1    0    0  502  503 -0.00000000000E+00 -0.00000000000E+00 -0.17367508486E+03  0.17367508486E+03  0.00000000000E+00 0.  1.
    9000007    1    1    2  501    0 -0.13614149647E+03  0.11395234840E+02  0.11658167202E+04  0.12400778135E+04  0.40000000000E+03 0.  1.
   -9000007    1    1    2    0  503  0.13614149647E+03 -0.11395234840E+02  0.19057282726E+03  0.46366190369E+03  0.40000000000E+03 0.  1.
<mgrwt>
<rscale>  2 0.42268707E+03</rscale>
<asrwt>0</asrwt>
<pdfrwt beam="1">  1       21 0.23539455E+00 0.42268707E+03</pdfrwt>
<pdfrwt beam="2">  1       21 0.26719245E-01 0.42268707E+03</pdfrwt>
<totfact> 0.90375311E+02</totfact>
</mgrwt>
</event>
<event>
 4    1  0.4675559E-002  0.4280425E+03  0.7818608E-02  0.1034480E+00
         21   -1    0    0  503  502  0.00000000000E+00  0.00000000000E+00  0.44690018005E+03  0.44690018005E+03  0.00000000000E+00 0. -1.
         21   -1    0    0  501  503 -0.00000000000E+00 -0.00000000000E+00 -0.41592343676E+03  0.41592343676E+03  0.00000000000E+00 0. -1.
    9000007    1    1    2  501    0  0.14272120954E+03 -0.53394903324E+02 -0.36080292213E+02  0.42956041117E+03  0.40000000000E+03 0. -1.
   -9000007    1    1    2    0  502 -0.14272120954E+03  0.53394903324E+02  0.67057035502E+02  0.43326320564E+03  0.40000000000E+03 0. -1.
<mgrwt>
<rscale>  2 0.42804247E+03</rscale>
<asrwt>0</asrwt>
<pdfrwt beam="1">  1       21 0.68753874E-01 0.42804247E+03</pdfrwt>
<pdfrwt beam="2">  1       21 0.63988221E-01 0.42804247E+03</pdfrwt>
<totfact> 0.38338525E+03</totfact>
</mgrwt>
</event>
<event>
 4    1  0.4675559E-002  0.4044487E+03  0.7818608E-02  0.1042250E+00
         21   -1    0    0  501  502  0.00000000000E+00  0.00000000000E+00  0.22548983768E+03  0.22548983768E+03  0.00000000000E+00 0.  1.
         21   -1    0    0  502  503 -0.00000000000E+00 -0.00000000000E+00 -0.75020081215E+03  0.75020081215E+03  0.00000000000E+00 0.  1.
    9000007    1    1    2  501    0 -0.51434227314E+02  0.30549344784E+02 -0.17372168534E+03  0.44017947040E+03  0.40000000000E+03 0.  1.
   -9000007    1    1    2    0  503  0.51434227314E+02 -0.30549344784E+02 -0.35098928913E+03  0.53551117943E+03  0.40000000000E+03 0.  1.
<mgrwt>
<rscale>  2 0.40444869E+03</rscale>
<asrwt>0</asrwt>
<pdfrwt beam="1">  1       21 0.34690744E-01 0.40444869E+03</pdfrwt>
<pdfrwt beam="2">  1       21 0.11541551E+00 0.40444869E+03</pdfrwt>
<totfact> 0.41318649E+03</totfact>
</mgrwt>
</event>
<event>
 4    1  0.4675559E-002  0.4384364E+03  0.7818608E-02  0.1031228E+00
         21   -1    0    0  503  502  0.00000000000E+00  0.00000000000E+00  0.17278464747E+04  0.17278464747E+04  0.00000000000E+00 0.  1.
         21   -1    0    0  501  503 -0.00000000000E+00 -0.00000000000E+00 -0.11284428117E+03  0.11284428117E+03  0.00000000000E+00 0.  1.
    9000007    1    1    2  501    0  0.16978101442E+03 -0.58317209243E+02  0.69817799133E+03  0.82442646569E+03  0.40000000000E+03 0.  1.
   -9000007    1    1    2    0  502 -0.16978101442E+03  0.58317209243E+02  0.91682420223E+03  0.10162642902E+04  0.40000000000E+03 0.  1.
<mgrwt>
<rscale>  2 0.43843641E+03</rscale>
<asrwt>0</asrwt>
<pdfrwt beam="1">  1       21 0.26582252E+00 0.43843641E+03</pdfrwt>
<pdfrwt beam="2">  1       21 0.17360660E-01 0.43843641E+03</pdfrwt>
<totfact> 0.13326974E+03</totfact>
</mgrwt>
</event>
<event>
 4    1  0.4675559E-002  0.4616678E+03  0.7818608E-02  0.1024299E+00
         21   -1    0    0  501  502  0.00000000000E+00  0.00000000000E+00  0.89851952620E+02  0.89851952620E+02  0.00000000000E+00 0. -1.
         21   -1    0    0  502  503 -0.00000000000E+00 -0.00000000000E+00 -0.24230922385E+04  0.24230922385E+04  0.00000000000E+00 0. -1.
    9000007    1    1    2  501    0 -0.14219562639E+03 -0.18143186303E+03 -0.98433424437E+03  0.10872216985E+04  0.40000000000E+03 0. -1.
   -9000007    1    1    2    0  503  0.14219562639E+03  0.18143186303E+03 -0.13489060415E+04  0.14257224926E+04  0.40000000000E+03 0. -1.
<mgrwt>
<rscale>  2 0.46166776E+03</rscale>
<asrwt>0</asrwt>
<pdfrwt beam="1">  1       21 0.13823380E-01 0.46166776E+03</pdfrwt>
<pdfrwt beam="2">  1       21 0.37278336E+00 0.46166776E+03</pdfrwt>
<totfact> 0.44997121E+02</totfact>
</mgrwt>
</event>
<event>
 4    1  0.4675559E-002  0.4089786E+03  0.7818608E-02  0.1040714E+00
         21   -1    0    0  503  502  0.00000000000E+00  0.00000000000E+00  0.66726393402E+03  0.66726393402E+03  0.00000000000E+00 0.  1.
         21   -1    0    0  501  503 -0.00000000000E+00 -0.00000000000E+00 -0.13762946315E+04  0.13762946315E+04  0.00000000000E+00 0.  1.
    9000007    1    1    2  501    0  0.38769067651E+02  0.75897434723E+02 -0.12785708568E+04  0.13423885046E+04  0.40000000000E+03 0.  1.
   -9000007    1    1    2    0  502 -0.38769067651E+02 -0.75897434723E+02  0.56954015938E+03  0.70117006094E+03  0.40000000000E+03 0.  1.
<mgrwt>
<rscale>  2 0.40897856E+03</rscale>
<asrwt>0</asrwt>
<pdfrwt beam="1">  1       21 0.10265599E+00 0.40897856E+03</pdfrwt>
<pdfrwt beam="2">  1       21 0.21173764E+00 0.40897856E+03</pdfrwt>
<totfact> 0.70480788E+01</totfact>
</mgrwt>
</event>
<event>
 4    1  0.4675559E-002  0.4748454E+03  0.7818608E-02  0.1020561E+00
         21   -1    0    0  503  502  0.00000000000E+00  0.00000000000E+00  0.94069436531E+03  0.94069436531E+03  0.00000000000E+00 0.  1.
         21   -1    0    0  501  503 -0.00000000000E+00 -0.00000000000E+00 -0.25240536719E+03  0.25240536719E+03  0.00000000000E+00 0. -1.
    9000007    1    1    2  501    0  0.75692170266E+01  0.25577493362E+03  0.21026747803E+03  0.51931736157E+03  0.40000000000E+03 0. -1.
   -9000007    1    1    2    0  502 -0.75692170266E+01 -0.25577493362E+03  0.47802152008E+03  0.67378237093E+03  0.40000000000E+03 0.  1.
<mgrwt>
<rscale>  2 0.47484535E+03</rscale>
<asrwt>0</asrwt>
<pdfrwt beam="1">  1       21 0.14472221E+00 0.47484535E+03</pdfrwt>
<pdfrwt beam="2">  1       21 0.38831596E-01 0.47484535E+03</pdfrwt>
<totfact> 0.17782252E+03</totfact>
</mgrwt>
</event>
<event>
 4    1  0.4675559E-002  0.4351485E+03  0.7818608E-02  0.1032246E+00
         21   -1    0    0  503  502  0.00000000000E+00  0.00000000000E+00  0.10417657257E+04  0.10417657257E+04  0.00000000000E+00 0. -1.
         21   -1    0    0  501  503 -0.00000000000E+00 -0.00000000000E+00 -0.28669330246E+03  0.28669330246E+03  0.00000000000E+00 0. -1.
    9000007    1    1    2  501    0  0.64219075571E+02 -0.15883988806E+03 -0.24310465821E+02  0.43582702814E+03  0.40000000000E+03 0. -1.
   -9000007    1    1    2    0  502 -0.64219075571E+02  0.15883988806E+03  0.77938288903E+03  0.89263200000E+03  0.40000000000E+03 0. -1.
<mgrwt>
<rscale>  2 0.43514848E+03</rscale>
<asrwt>0</asrwt>
<pdfrwt beam="1">  1       21 0.16027165E+00 0.43514848E+03</pdfrwt>
<pdfrwt beam="2">  1       21 0.44106663E-01 0.43514848E+03</pdfrwt>
<totfact> 0.10504191E+03</totfact>
</mgrwt>
</event>
<event>
 4    1  0.4675559E-002  0.5723591E+03  0.7818608E-02  0.9964472E-01
         21   -1    0    0  503  502  0.00000000000E+00  0.00000000000E+00  0.24122924605E+03  0.24122924605E+03  0.00000000000E+00 0. -1.
         21   -1    0    0  501  503 -0.00000000000E+00 -0.00000000000E+00 -0.13600929497E+04  0.13600929497E+04  0.00000000000E+00 0. -1.
    9000007    1    1    2  501    0 -0.36557814182E+03 -0.18424871972E+03 -0.52819990482E+03  0.77883894866E+03  0.40000000000E+03 0. -1.
   -9000007    1    1    2    0  502  0.36557814182E+03  0.18424871972E+03 -0.59066379881E+03  0.82248324708E+03  0.40000000000E+03 0. -1.
<mgrwt>
<rscale>  2 0.57235913E+03</rscale>
<asrwt>0</asrwt>
<pdfrwt beam="1">  1       21 0.37112192E-01 0.57235913E+03</pdfrwt>
<pdfrwt beam="2">  1       21 0.20924507E+00 0.57235913E+03</pdfrwt>
<totfact> 0.64419223E+02</totfact>
</mgrwt>
</event>
<event>
 4    1  0.4675559E-002  0.4644722E+03  0.7818608E-02  0.1023492E+00
         21   -1    0    0  501  502  0.00000000000E+00  0.00000000000E+00  0.11206967269E+04  0.11206967269E+04  0.00000000000E+00 0. -1.
         21   -1    0    0  502  503 -0.00000000000E+00 -0.00000000000E+00 -0.34247134360E+03  0.34247134360E+03  0.00000000000E+00 0.  1.
    9000007    1    1    2  501    0  0.13420104052E+02 -0.23569963296E+03  0.87323585158E+03  0.98907798916E+03  0.40000000000E+03 0. -1.
   -9000007    1    1    2    0  503 -0.13420104052E+02  0.23569963296E+03 -0.95010468259E+02  0.47409008136E+03  0.40000000000E+03 0.  1.
<mgrwt>
<rscale>  2 0.46447219E+03</rscale>
<asrwt>0</asrwt>
<pdfrwt beam="1">  1       21 0.17241488E+00 0.46447219E+03</pdfrwt>
<pdfrwt beam="2">  1       21 0.52687899E-01 0.46447219E+03</pdfrwt>
<totfact> 0.57900222E+02</totfact>
</mgrwt>
</event>
<event>
 4    1  0.4675559E-002  0.5081340E+03  0.7818608E-02  0.1011677E+00
         21   -1    0    0  503  502  0.00000000000E+00  0.00000000000E+00  0.29437307638E+04  0.29437307638E+04  0.00000000000E+00 0.  1.
         21   -1    0    0  501  503 -0.00000000000E+00 -0.00000000000E+00 -0.18234531054E+03  0.18234531054E+03  0.00000000000E+00 0.  1.
    9000007    1    1    2  501    0 -0.18844556386E+03 -0.25037652616E+03  0.25467673544E+03  0.56838400309E+03  0.40000000000E+03 0.  1.
   -9000007    1    1    2    0  502  0.18844556386E+03  0.25037652616E+03  0.25067087178E+04  0.25576920712E+04  0.40000000000E+03 0.  1.
<mgrwt>
<rscale>  2 0.50813397E+03</rscale>
<asrwt>0</asrwt>
<pdfrwt beam="1">  1       21 0.45288162E+00 0.50813397E+03</pdfrwt>
<pdfrwt beam="2">  1       21 0.28053127E-01 0.50813397E+03</pdfrwt>
<totfact> 0.34060363E+01</totfact>
</mgrwt>
</event>
<event>
 4    1  0.4675559E-002  0.4831724E+03  0.7818608E-02  0.1018267E+00
         21   -1    0    0  503  502  0.00000000000E+00  0.00000000000E+00  0.38298186322E+03  0.38298186322E+03  0.00000000000E+00 0.  1.
         21   -1    0    0  501  503 -0.00000000000E+00 -0.00000000000E+00 -0.66561139088E+03  0.66561139088E+03  0.00000000000E+00 0. -1.
    9000007    1    1    2  501    0 -0.49488408265E+02 -0.26647034532E+03 -0.29344238011E+03  0.56529990088E+03  0.40000000000E+03 0. -1.
   -9000007    1    1    2    0  502  0.49488408265E+02  0.26647034532E+03  0.10812852457E+02  0.48329335322E+03  0.40000000000E+03 0. -1.
<mgrwt>
<rscale>  2 0.48317238E+03</rscale>
<asrwt>0</asrwt>
<pdfrwt beam="1">  1       21 0.58920287E-01 0.48317238E+03</pdfrwt>
<pdfrwt beam="2">  1       21 0.10240175E+00 0.48317238E+03</pdfrwt>
<totfact> 0.17763949E+03</totfact>
</mgrwt>
</event>
<event>
 4    1  0.4675559E-002  0.5003329E+03  0.7818608E-02  0.1013692E+00
         21   -1    0    0  503  502  0.00000000000E+00  0.00000000000E+00  0.63431073771E+03  0.63431073771E+03  0.00000000000E+00 0. -1.
         21   -1    0    0  501  503 -0.00000000000E+00 -0.00000000000E+00 -0.40113629899E+03  0.40113629899E+03  0.00000000000E+00 0. -1.
    9000007    1    1    2  501    0 -0.28104891615E+03  0.10651041874E+03  0.50771039650E+02  0.50290223805E+03  0.40000000000E+03 0. -1.
   -9000007    1    1    2    0  502  0.28104891615E+03 -0.10651041874E+03  0.18240339907E+03  0.53254479864E+03  0.40000000000E+03 0. -1.
<mgrwt>
<rscale>  2 0.50033285E+03</rscale>
<asrwt>0</asrwt>
<pdfrwt beam="1">  1       21 0.97586268E-01 0.50033285E+03</pdfrwt>
<pdfrwt beam="2">  1       21 0.61713277E-01 0.50033285E+03</pdfrwt>
<totfact> 0.17934341E+03</totfact>
</mgrwt>
</event>
<event>
 4    1  0.4675559E-002  0.5888080E+03  0.7818608E-02  0.9928902E-01
         21   -1    0    0  501  502  0.00000000000E+00  0.00000000000E+00  0.60150714547E+03  0.60150714547E+03  0.00000000000E+00 0.  1.
         21   -1    0    0  502  503 -0.00000000000E+00 -0.00000000000E+00 -0.58492084030E+03  0.58492084030E+03  0.00000000000E+00 0. -1.
    9000007    1    1    2  501    0  0.26595167809E+03  0.34053573841E+03  0.79988238645E+02  0.59421629272E+03  0.40000000000E+03 0.  1.
   -9000007    1    1    2    0  503 -0.26595167809E+03 -0.34053573841E+03 -0.63401933471E+02  0.59221169305E+03  0.40000000000E+03 0. -1.
<mgrwt>
<rscale>  2 0.58880802E+03</rscale>
<asrwt>0</asrwt>
<pdfrwt beam="1">  1       21 0.92539561E-01 0.58880802E+03</pdfrwt>
<pdfrwt beam="2">  1       21 0.89987822E-01 0.58880802E+03</pdfrwt>
<totfact> 0.83441901E+02</totfact>
</mgrwt>
</event>
<event>
 4    1  0.4675559E-002  0.5036416E+03  0.7818608E-02  0.1012833E+00
         21   -1    0    0  501  502  0.00000000000E+00  0.00000000000E+00  0.11079102674E+04  0.11079102674E+04  0.00000000000E+00 0. -1.
         21   -1    0    0  502  503 -0.00000000000E+00 -0.00000000000E+00 -0.24006634391E+03  0.24006634391E+03  0.00000000000E+00 0.  1.
    9000007    1    1    2  501    0 -0.27213001545E+03 -0.14000053957E+03  0.57896208120E+03  0.76736691866E+03  0.40000000000E+03 0. -1.
   -9000007    1    1    2    0  503  0.27213001545E+03  0.14000053957E+03  0.28888184226E+03  0.58060969263E+03  0.40000000000E+03 0.  1.
<mgrwt>
<rscale>  2 0.50364163E+03</rscale>
<asrwt>0</asrwt>
<pdfrwt beam="1">  1       21 0.17044773E+00 0.50364163E+03</pdfrwt>
<pdfrwt beam="2">  1       21 0.36933284E-01 0.50364163E+03</pdfrwt>
<totfact> 0.12380468E+03</totfact>
</mgrwt>
</event>
<event>
 4    1  0.4675559E-002  0.4166688E+03  0.7818608E-02  0.1038156E+00
         21   -1    0    0  503  502  0.00000000000E+00  0.00000000000E+00  0.19649541778E+03  0.19649541778E+03  0.00000000000E+00 0.  1.
         21   -1    0    0  501  503 -0.00000000000E+00 -0.00000000000E+00 -0.88396297396E+03  0.88396297396E+03  0.00000000000E+00 0.  1.
    9000007    1    1    2  501    0 -0.10974101865E+03  0.39620285635E+02 -0.33200904336E+03  0.53276905229E+03  0.40000000000E+03 0.  1.
   -9000007    1    1    2    0  502  0.10974101865E+03 -0.39620285635E+02 -0.35545851282E+03  0.54768933945E+03  0.40000000000E+03 0.  1.
<mgrwt>
<rscale>  2 0.41666876E+03</rscale>
<asrwt>0</asrwt>
<pdfrwt beam="1">  1       21 0.30230064E-01 0.41666876E+03</pdfrwt>
<pdfrwt beam="2">  1       21 0.13599430E+00 0.41666876E+03</pdfrwt>
<totfact> 0.35570823E+03</totfact>
</mgrwt>
</event>
<event>
 4    1  0.4675559E-002  0.5137736E+03  0.7818608E-02  0.1010245E+00
         21   -1    0    0  503  502  0.00000000000E+00  0.00000000000E+00  0.25180308531E+03  0.25180308531E+03  0.00000000000E+00 0. -1.
         21   -1    0    0  501  503 -0.00000000000E+00 -0.00000000000E+00 -0.13945177821E+04  0.13945177821E+04  0.00000000000E+00 0. -1.
    9000007    1    1    2  501    0  0.19469324248E+03 -0.25701726800E+03 -0.98151585784E+03  0.11078522979E+04  0.40000000000E+03 0. -1.
   -9000007    1    1    2    0  502 -0.19469324248E+03  0.25701726800E+03 -0.16119883899E+03  0.53846856957E+03  0.40000000000E+03 0. -1.
<mgrwt>
<rscale>  2 0.51377362E+03</rscale>
<asrwt>0</asrwt>
<pdfrwt beam="1">  1       21 0.38738935E-01 0.51377362E+03</pdfrwt>
<pdfrwt beam="2">  1       21 0.21454120E+00 0.51377362E+03</pdfrwt>
<totfact> 0.55754695E+02</totfact>
</mgrwt>
</event>
<event>
 4    1  0.4675559E-002  0.4738294E+03  0.7818608E-02  0.1020845E+00
         21   -1    0    0  501  502  0.00000000000E+00  0.00000000000E+00  0.13970059559E+04  0.13970059559E+04  0.00000000000E+00 0. -1.
         21   -1    0    0  502  503 -0.00000000000E+00 -0.00000000000E+00 -0.21093574063E+03  0.21093574063E+03  0.00000000000E+00 0. -1.
    9000007    1    1    2  501    0  0.13662382509E+03  0.21412200256E+03  0.98534009321E+03  0.10933477950E+04  0.40000000000E+03 0. -1.
   -9000007    1    1    2    0  503 -0.13662382509E+03 -0.21412200256E+03  0.20073012202E+03  0.51459390149E+03  0.40000000000E+03 0. -1.
<mgrwt>
<rscale>  2 0.47382940E+03</rscale>
<asrwt>0</asrwt>
<pdfrwt beam="1">  1       21 0.21492399E+00 0.47382940E+03</pdfrwt>
<pdfrwt beam="2">  1       21 0.32451653E-01 0.47382940E+03</pdfrwt>
<totfact> 0.80850878E+02</totfact>
</mgrwt>
</event>
<event>
 4    1  0.4675559E-002  0.5357981E+03  0.7818608E-02  0.1004836E+00
         21   -1    0    0  501  502  0.00000000000E+00  0.00000000000E+00  0.18181549716E+04  0.18181549716E+04  0.00000000000E+00 0.  1.
         21   -1    0    0  502  503 -0.00000000000E+00 -0.00000000000E+00 -0.43088803925E+03  0.43088803925E+03  0.00000000000E+00 0. -1.
    9000007    1    1    2  501    0 -0.25939523746E+03 -0.24452744191E+03  0.15887106082E+04  0.16766278524E+04  0.40000000000E+03 0. -1.
   -9000007    1    1    2    0  503  0.25939523746E+03  0.24452744191E+03 -0.20144367581E+03  0.57241515842E+03  0.40000000000E+03 0. -1.
<mgrwt>
<rscale>  2 0.53579806E+03</rscale>
<asrwt>0</asrwt>
<pdfrwt beam="1">  1       21 0.27971614E+00 0.53579806E+03</pdfrwt>
<pdfrwt beam="2">  1       21 0.66290469E-01 0.53579806E+03</pdfrwt>
<totfact> 0.68529705E+01</totfact>
</mgrwt>
</event>
<event>
 4    1  0.4675559E-002  0.5168331E+03  0.7818608E-02  0.1009476E+00
         21   -1    0    0  503  502  0.00000000000E+00  0.00000000000E+00  0.23644272104E+03  0.23644272104E+03  0.00000000000E+00 0.  1.
         21   -1    0    0  501  503 -0.00000000000E+00 -0.00000000000E+00 -0.14630175926E+04  0.14630175926E+04  0.00000000000E+00 0.  1.
    9000007    1    1    2  501    0  0.25617570000E+03 -0.20369204840E+03 -0.10188574312E+04  0.11424477690E+04  0.40000000000E+03 0.  1.
   -9000007    1    1    2    0  502 -0.25617570000E+03  0.20369204840E+03 -0.20771744042E+03  0.55701254466E+03  0.40000000000E+03 0.  1.
<mgrwt>
<rscale>  2 0.51683309E+03</rscale>
<asrwt>0</asrwt>
<pdfrwt beam="1">  1       21 0.36375804E-01 0.51683309E+03</pdfrwt>
<pdfrwt beam="2">  1       21 0.22507963E+00 0.51683309E+03</pdfrwt>
<totfact> 0.54181569E+02</totfact>
</mgrwt>
</event>
<event>
 4    1  0.4675559E-002  0.4205493E+03  0.7818608E-02  0.1036888E+00
         21   -1    0    0  503  502  0.00000000000E+00  0.00000000000E+00  0.35261039554E+03  0.35261039554E+03  0.00000000000E+00 0. -1.
         21   -1    0    0  501  503 -0.00000000000E+00 -0.00000000000E+00 -0.94163340660E+03  0.94163340660E+03  0.00000000000E+00 0. -1.
    9000007    1    1    2  501    0 -0.64098503454E+02 -0.11292968785E+03 -0.73689476917E+03  0.84845485052E+03  0.40000000000E+03 0. -1.
   -9000007    1    1    2    0  502  0.64098503454E+02  0.11292968785E+03  0.14787175811E+03  0.44578895162E+03  0.40000000000E+03 0. -1.
<mgrwt>
<rscale>  2 0.42054932E+03</rscale>
<asrwt>0</asrwt>
<pdfrwt beam="1">  1       21 0.54247753E-01 0.42054932E+03</pdfrwt>
<pdfrwt beam="2">  1       21 0.14486668E+00 0.42054932E+03</pdfrwt>
<totfact> 0.89868589E+02</totfact>
</mgrwt>
</event>
<event>
 4    1  0.4675559E-002  0.4843713E+03  0.7818608E-02  0.1017941E+00
         21   -1    0    0  503  502  0.00000000000E+00  0.00000000000E+00  0.70075213195E+03  0.70075213195E+03  0.00000000000E+00 0. -1.
         21   -1    0    0  501  503 -0.00000000000E+00 -0.00000000000E+00 -0.42790801784E+03  0.42790801784E+03  0.00000000000E+00 0. -1.
    9000007    1    1    2  501    0  0.26204927456E+03  0.77108304115E+02 -0.12681026380E+03  0.50069587163E+03  0.40000000000E+03 0. -1.
   -9000007    1    1    2    0  502 -0.26204927456E+03 -0.77108304115E+02  0.39965437792E+03  0.62796427816E+03  0.40000000000E+03 0. -1.
<mgrwt>
<rscale>  2 0.48437126E+03</rscale>
<asrwt>0</asrwt>
<pdfrwt beam="1">  1       21 0.10780802E+00 0.48437126E+03</pdfrwt>
<pdfrwt beam="2">  1       21 0.65832003E-01 0.48437126E+03</pdfrwt>
<totfact> 0.12240658E+03</totfact>
</mgrwt>
</event>
<event>
 4    1  0.4675559E-002  0.5342392E+03  0.7818608E-02  0.1005209E+00
         21   -1    0    0  503  502  0.00000000000E+00  0.00000000000E+00  0.26101745278E+03  0.26101745278E+03  0.00000000000E+00 0. -1.
         21   -1    0    0  501  503 -0.00000000000E+00 -0.00000000000E+00 -0.14422694518E+04  0.14422694518E+04  0.00000000000E+00 0.  1.
    9000007    1    1    2  501    0 -0.34448736613E+03 -0.82097655194E+02 -0.10094485907E+04  0.11421024594E+04  0.40000000000E+03 0.  1.
   -9000007    1    1    2    0  502  0.34448736613E+03  0.82097655194E+02 -0.17180340828E+03  0.56118444517E+03  0.40000000000E+03 0. -1.
<mgrwt>
<rscale>  2 0.53423924E+03</rscale>
<asrwt>0</asrwt>
<pdfrwt beam="1">  1       21 0.40156531E-01 0.53423924E+03</pdfrwt>
<pdfrwt beam="2">  1       21 0.22188761E+00 0.53423924E+03</pdfrwt>
<totfact> 0.46011121E+02</totfact>
</mgrwt>
</event>
<event>
 4    1  0.4675559E-002  0.4290299E+03  0.7818608E-02  0.1034167E+00
         21   -1    0    0  501  502  0.00000000000E+00  0.00000000000E+00  0.20358710183E+04  0.20358710183E+04  0.00000000000E+00 0.  1.
         21   -1    0    0  502  503 -0.00000000000E+00 -0.00000000000E+00 -0.10396228938E+03  0.10396228938E+03  0.00000000000E+00 0.  1.
    9000007    1    1    2  501    0 -0.66512880686E+02 -0.14015232044E+03  0.13522239565E+04  0.14186529754E+04  0.40000000000E+03 0. -1.
   -9000007    1    1    2    0  503  0.66512880686E+02  0.14015232044E+03  0.57968477243E+03  0.72118033224E+03  0.40000000000E+03 0. -1.
<mgrwt>
<rscale>  2 0.42902988E+03</rscale>
<asrwt>0</asrwt>
<pdfrwt beam="1">  1       21 0.31321090E+00 0.42902988E+03</pdfrwt>
<pdfrwt beam="2">  1       21 0.15994200E-01 0.42902988E+03</pdfrwt>
<totfact> 0.80996770E+02</totfact>
</mgrwt>
</event>
<event>
 4    1  0.4675559E-002  0.4164396E+03  0.7818608E-02  0.1038231E+00
         21   -1    0    0  501  502  0.00000000000E+00  0.00000000000E+00  0.78158353501E+03  0.78158353501E+03  0.00000000000E+00 0. -1.
         21   -1    0    0  502  503 -0.00000000000E+00 -0.00000000000E+00 -0.22207309144E+03  0.22207309144E+03  0.00000000000E+00 0. -1.
    9000007    1    1    2  501    0 -0.10001242795E+03 -0.58475932323E+02  0.29434708223E+03  0.50996286651E+03  0.40000000000E+03 0. -1.
   -9000007    1    1    2    0  503  0.10001242795E+03  0.58475932323E+02  0.26516336134E+03  0.49369375994E+03  0.40000000000E+03 0. -1.
<mgrwt>
<rscale>  2 0.41643958E+03</rscale>
<asrwt>0</asrwt>
<pdfrwt beam="1">  1       21 0.12024362E+00 0.41643958E+03</pdfrwt>
<pdfrwt beam="2">  1       21 0.34165091E-01 0.41643958E+03</pdfrwt>
<totfact> 0.38258744E+03</totfact>
</mgrwt>
</event>
<event>
 4    1  0.4675559E-002  0.6030857E+03  0.7818608E-02  0.9899025E-01
         21   -1    0    0  503  502  0.00000000000E+00  0.00000000000E+00  0.87566954663E+03  0.87566954663E+03  0.00000000000E+00 0. -1.
         21   -1    0    0  501  503 -0.00000000000E+00 -0.00000000000E+00 -0.87946640059E+03  0.87946640059E+03  0.00000000000E+00 0.  1.
    9000007    1    1    2  501    0  0.41569743428E+03  0.17580686554E+03 -0.63940249392E+03  0.87894707467E+03  0.40000000000E+03 0.  1.
   -9000007    1    1    2    0  502 -0.41569743428E+03 -0.17580686554E+03  0.63560563996E+03  0.87618887255E+03  0.40000000000E+03 0. -1.
<mgrwt>
<rscale>  2 0.60308574E+03</rscale>
<asrwt>0</asrwt>
<pdfrwt beam="1">  1       21 0.13471839E+00 0.60308574E+03</pdfrwt>
<pdfrwt beam="2">  1       21 0.13530252E+00 0.60308574E+03</pdfrwt>
<totfact> 0.11601746E+02</totfact>
</mgrwt>
</event>
<event>
 4    1  0.4675559E-002  0.7250897E+03  0.7818608E-02  0.9675262E-01
         21   -1    0    0  503  502  0.00000000000E+00  0.00000000000E+00  0.80359887312E+03  0.80359887312E+03  0.00000000000E+00 0.  1.
         21   -1    0    0  501  503 -0.00000000000E+00 -0.00000000000E+00 -0.66541053385E+03  0.66541053385E+03  0.00000000000E+00 0. -1.
    9000007    1    1    2  501    0 -0.56605898766E+03 -0.21291380153E+03 -0.26027635524E+02  0.72555668435E+03  0.40000000000E+03 0. -1.
   -9000007    1    1    2    0  502  0.56605898766E+03  0.21291380153E+03  0.16421597480E+03  0.74345272262E+03  0.40000000000E+03 0.  1.
<mgrwt>
<rscale>  2 0.72508969E+03</rscale>
<asrwt>0</asrwt>
<pdfrwt beam="1">  1       21 0.12363060E+00 0.72508969E+03</pdfrwt>
<pdfrwt beam="2">  1       21 0.10237085E+00 0.72508969E+03</pdfrwt>
<totfact> 0.28443376E+02</totfact>
</mgrwt>
</event>
<event>
 4    1  0.4675559E-002  0.4345833E+03  0.7818608E-02  0.1032422E+00
         21   -1    0    0  501  502  0.00000000000E+00  0.00000000000E+00  0.90651828138E+02  0.90651828138E+02  0.00000000000E+00 0.  1.
         21   -1    0    0  502  503 -0.00000000000E+00 -0.00000000000E+00 -0.30072528066E+04  0.30072528066E+04  0.00000000000E+00 0.  1.
    9000007    1    1    2  501    0 -0.15239175539E+03  0.75095784166E+02 -0.59976532654E+03  0.74066258906E+03  0.40000000000E+03 0.  1.
   -9000007    1    1    2    0  503  0.15239175539E+03 -0.75095784166E+02 -0.23168356519E+04  0.23572420457E+04  0.40000000000E+03 0.  1.
<mgrwt>
<rscale>  2 0.43458328E+03</rscale>
<asrwt>0</asrwt>
<pdfrwt beam="1">  1       21 0.13946436E-01 0.43458328E+03</pdfrwt>
<pdfrwt beam="2">  1       21 0.46265425E+00 0.43458328E+03</pdfrwt>
<totfact> 0.11642355E+02</totfact>
</mgrwt>
</event>
<event>
 4    1  0.4675559E-002  0.4925466E+03  0.7818608E-02  0.1015743E+00
         21   -1    0    0  503  502  0.00000000000E+00  0.00000000000E+00  0.14621561793E+04  0.14621561793E+04  0.00000000000E+00 0.  1.
         21   -1    0    0  501  503 -0.00000000000E+00 -0.00000000000E+00 -0.23247409202E+03  0.23247409202E+03  0.00000000000E+00 0. -1.
    9000007    1    1    2  501    0 -0.22621397298E+03 -0.17728328538E+03  0.16148182479E+03  0.51834207294E+03  0.40000000000E+03 0. -1.
   -9000007    1    1    2    0  502  0.22621397298E+03  0.17728328538E+03  0.10682002625E+04  0.11762881984E+04  0.40000000000E+03 0.  1.
<mgrwt>
<rscale>  2 0.49254657E+03</rscale>
<asrwt>0</asrwt>
<pdfrwt beam="1">  1       21 0.22494710E+00 0.49254657E+03</pdfrwt>
<pdfrwt beam="2">  1       21 0.35765246E-01 0.49254657E+03</pdfrwt>
<totfact> 0.56793936E+02</totfact>
</mgrwt>
</event>
<event>
 4    1  0.4675559E-002  0.5503469E+03  0.7818608E-02  0.1001414E+00
         21   -1    0    0  503  502  0.00000000000E+00  0.00000000000E+00  0.17053849813E+03  0.17053849813E+03  0.00000000000E+00 0.  1.
         21   -1    0    0  501  503 -0.00000000000E+00 -0.00000000000E+00 -0.17766204246E+04  0.17766204246E+04  0.00000000000E+00 0. -1.
    9000007    1    1    2  501    0  0.27911144347E+03  0.25490881175E+03 -0.82077060807E+03  0.98820346652E+03  0.40000000000E+03 0. -1.
   -9000007    1    1    2    0  502 -0.27911144347E+03 -0.25490881175E+03 -0.78531131845E+03  0.95895545624E+03  0.40000000000E+03 0.  1.
<mgrwt>
<rscale>  2 0.55034689E+03</rscale>
<asrwt>0</asrwt>
<pdfrwt beam="1">  1       21 0.26236692E-01 0.55034689E+03</pdfrwt>
<pdfrwt beam="2">  1       21 0.27332622E+00 0.55034689E+03</pdfrwt>
<totfact> 0.51512231E+02</totfact>
</mgrwt>
</event>
<event>
 4    1  0.4675559E-002  0.6576368E+03  0.7818608E-02  0.9792554E-01
         21   -1    0    0  501  502  0.00000000000E+00  0.00000000000E+00  0.88220389493E+03  0.88220389493E+03  0.00000000000E+00 0.  1.
         21   -1    0    0  502  503 -0.00000000000E+00 -0.00000000000E+00 -0.62703004449E+03  0.62703004449E+03  0.00000000000E+00 0. -1.
    9000007    1    1    2  501    0 -0.39837729576E+03 -0.33731535472E+03  0.48005482303E+03  0.81421050805E+03  0.40000000000E+03 0.  1.
   -9000007    1    1    2    0  503  0.39837729576E+03  0.33731535472E+03 -0.22488097259E+03  0.69502343136E+03  0.40000000000E+03 0. -1.
<mgrwt>
<rscale>  2 0.65763677E+03</rscale>
<asrwt>0</asrwt>
<pdfrwt beam="1">  1       21 0.13572368E+00 0.65763677E+03</pdfrwt>
<pdfrwt beam="2">  1       21 0.96466161E-01 0.65763677E+03</pdfrwt>
<totfact> 0.26294997E+02</totfact>
</mgrwt>
</event>
<event>
 4    1  0.4675559E-002  0.4153704E+03  0.7818608E-02  0.1038584E+00
         21   -1    0    0  503  502  0.00000000000E+00  0.00000000000E+00  0.80074323005E+03  0.80074323005E+03  0.00000000000E+00 0. -1.
         21   -1    0    0  501  503 -0.00000000000E+00 -0.00000000000E+00 -0.34998142824E+03  0.34998142824E+03  0.00000000000E+00 0. -1.
    9000007    1    1    2  501    0  0.10957243946E+03 -0.22944491566E+02 -0.13132124555E+03  0.43563498334E+03  0.40000000000E+03 0. -1.
   -9000007    1    1    2    0  502 -0.10957243946E+03  0.22944491566E+02  0.58208304736E+03  0.71508967494E+03  0.40000000000E+03 0. -1.
<mgrwt>
<rscale>  2 0.41537040E+03</rscale>
<asrwt>0</asrwt>
<pdfrwt beam="1">  1       21 0.12319127E+00 0.41537040E+03</pdfrwt>
<pdfrwt beam="2">  1       21 0.53843297E-01 0.41537040E+03</pdfrwt>
<totfact> 0.13982006E+03</totfact>
</mgrwt>
</event>
<event>
 4    1  0.4675559E-002  0.4115322E+03  0.7818608E-02  0.1039858E+00
         21   -1    0    0  503  502  0.00000000000E+00  0.00000000000E+00  0.85504486056E+03  0.85504486056E+03  0.00000000000E+00 0.  1.
         21   -1    0    0  501  503 -0.00000000000E+00 -0.00000000000E+00 -0.20435968157E+03  0.20435968157E+03  0.00000000000E+00 0.  1.
    9000007    1    1    2  501    0  0.48460250433E+02 -0.83727682603E+02  0.23241404090E+03  0.47262565220E+03  0.40000000000E+03 0.  1.
   -9000007    1    1    2    0  502 -0.48460250433E+02  0.83727682603E+02  0.41827113809E+03  0.58677888993E+03  0.40000000000E+03 0.  1.
<mgrwt>
<rscale>  2 0.41153216E+03</rscale>
<asrwt>0</asrwt>
<pdfrwt beam="1">  1       21 0.13154536E+00 0.41153216E+03</pdfrwt>
<pdfrwt beam="2">  1       21 0.31439951E-01 0.41153216E+03</pdfrwt>
<totfact> 0.35948802E+03</totfact>
</mgrwt>
</event>
<event>
 4    1  0.4675559E-002  0.4467065E+03  0.7818608E-02  0.1028709E+00
         21   -1    0    0  503  502  0.00000000000E+00  0.00000000000E+00  0.14969917817E+04  0.14969917817E+04  0.00000000000E+00 0. -1.
         21   -1    0    0  501  503 -0.00000000000E+00 -0.00000000000E+00 -0.21775210665E+03  0.21775210665E+03  0.00000000000E+00 0. -1.
    9000007    1    1    2  501    0 -0.19663828722E+03 -0.29666831707E+02  0.10567397708E+03  0.45903564822E+03  0.40000000000E+03 0. -1.
   -9000007    1    1    2    0  502  0.19663828722E+03  0.29666831707E+02  0.11735656979E+04  0.12557082401E+04  0.40000000000E+03 0. -1.
<mgrwt>
<rscale>  2 0.44670654E+03</rscale>
<asrwt>0</asrwt>
<pdfrwt beam="1">  1       21 0.23030642E+00 0.44670654E+03</pdfrwt>
<pdfrwt beam="2">  1       21 0.33500325E-01 0.44670654E+03</pdfrwt>
<totfact> 0.61315680E+02</totfact>
</mgrwt>
</event>
<event>
 4    1  0.4675559E-002  0.4953224E+03  0.7818608E-02  0.1015007E+00
         21   -1    0    0  501  502  0.00000000000E+00  0.00000000000E+00  0.56469107352E+03  0.56469107352E+03  0.00000000000E+00 0. -1.
         21   -1    0    0  502  503 -0.00000000000E+00 -0.00000000000E+00 -0.48859450770E+03  0.48859450770E+03  0.00000000000E+00 0. -1.
    9000007    1    1    2  501    0 -0.15119950356E+03  0.24996602953E+03 -0.13722579631E+03  0.51397979043E+03  0.40000000000E+03 0. -1.
   -9000007    1    1    2    0  503  0.15119950356E+03 -0.24996602953E+03  0.21332236212E+03  0.53930579079E+03  0.40000000000E+03 0. -1.
<mgrwt>
<rscale>  2 0.49532243E+03</rscale>
<asrwt>0</asrwt>
<pdfrwt beam="1">  1       21 0.86875550E-01 0.49532243E+03</pdfrwt>
<pdfrwt beam="2">  1       21 0.75168386E-01 0.49532243E+03</pdfrwt>
<totfact> 0.15223363E+03</totfact>
</mgrwt>
</event>
<event>
 4    1  0.4675559E-002  0.4034444E+03  0.7818608E-02  0.1042594E+00
         21   -1    0    0  501  502  0.00000000000E+00  0.00000000000E+00  0.27047902838E+03  0.27047902838E+03  0.00000000000E+00 0.  1.
         21   -1    0    0  502  503 -0.00000000000E+00 -0.00000000000E+00 -0.67474194970E+03  0.67474194970E+03  0.00000000000E+00 0.  1.
    9000007    1    1    2  501    0 -0.19613510430E+02  0.48812533928E+02 -0.46714146022E+02  0.40613983392E+03  0.40000000000E+03 0. -1.
   -9000007    1    1    2    0  503  0.19613510430E+02 -0.48812533928E+02 -0.35754877530E+03  0.53908114415E+03  0.40000000000E+03 0. -1.
<mgrwt>
<rscale>  2 0.40344436E+03</rscale>
<asrwt>0</asrwt>
<pdfrwt beam="1">  1       21 0.41612159E-01 0.40344436E+03</pdfrwt>
<pdfrwt beam="2">  1       21 0.10380645E+00 0.40344436E+03</pdfrwt>
<totfact> 0.37056932E+03</totfact>
</mgrwt>
</event>
<event>
 4    1  0.4675559E-002  0.5118486E+03  0.7818608E-02  0.1010732E+00
         21   -1    0    0  503  502  0.00000000000E+00  0.00000000000E+00  0.10034968189E+04  0.10034968189E+04  0.00000000000E+00 0.  1.
         21   -1    0    0  501  503 -0.00000000000E+00 -0.00000000000E+00 -0.34018468787E+03  0.34018468787E+03  0.00000000000E+00 0.  1.
    9000007    1    1    2  501    0 -0.20450075804E+03 -0.24529251973E+03  0.76740285579E+01  0.51190611540E+03  0.40000000000E+03 0. -1.
   -9000007    1    1    2    0  502  0.20450075804E+03  0.24529251973E+03  0.65563810244E+03  0.83177539134E+03  0.40000000000E+03 0. -1.
<mgrwt>
<rscale>  2 0.51184859E+03</rscale>
<asrwt>0</asrwt>
<pdfrwt beam="1">  1       21 0.15438412E+00 0.51184859E+03</pdfrwt>
<pdfrwt beam="2">  1       21 0.52336106E-01 0.51184859E+03</pdfrwt>
<totfact> 0.78575383E+02</totfact>
</mgrwt>
</event>
<event>
 4    1  0.4675559E-002  0.4539021E+03  0.7818608E-02  0.1026565E+00
         21   -1    0    0  503  502  0.00000000000E+00  0.00000000000E+00  0.20867005364E+03  0.20867005364E+03  0.00000000000E+00 0. -1.
         21   -1    0    0  501  503 -0.00000000000E+00 -0.00000000000E+00 -0.10283276396E+04  0.10283276396E+04  0.00000000000E+00 0.  1.
    9000007    1    1    2  501    0  0.14227399054E+03 -0.16057773389E+03 -0.28633933060E+03  0.53667244130E+03  0.40000000000E+03 0. -1.
   -9000007    1    1    2    0  502 -0.14227399054E+03  0.16057773389E+03 -0.53331825536E+03  0.70032525194E+03  0.40000000000E+03 0.  1.
<mgrwt>
<rscale>  2 0.45390208E+03</rscale>
<asrwt>0</asrwt>
<pdfrwt beam="1">  1       21 0.32103086E-01 0.45390208E+03</pdfrwt>
<pdfrwt beam="2">  1       21 0.15820425E+00 0.45390208E+03</pdfrwt>
<totfact> 0.20677970E+03</totfact>
</mgrwt>
</event>
<event>
 4    1  0.4675559E-002  0.5112923E+03  0.7818608E-02  0.1010873E+00
         21   -1    0    0  503  502  0.00000000000E+00  0.00000000000E+00  0.76459174293E+03  0.76459174293E+03  0.00000000000E+00 0.  1.
         21   -1    0    0  501  503 -0.00000000000E+00 -0.00000000000E+00 -0.35585129321E+03  0.35585129321E+03  0.00000000000E+00 0.  1.
    9000007    1    1    2  501    0  0.31266932193E+03  0.60478924694E+02  0.93475000310E+02  0.51976666004E+03  0.40000000000E+03 0.  1.
   -9000007    1    1    2    0  502 -0.31266932193E+03 -0.60478924694E+02  0.31526544942E+03  0.60067637610E+03  0.40000000000E+03 0.  1.
<mgrwt>
<rscale>  2 0.51129229E+03</rscale>
<asrwt>0</asrwt>
<pdfrwt beam="1">  1       21 0.11762950E+00 0.51129229E+03</pdfrwt>
<pdfrwt beam="2">  1       21 0.54746353E-01 0.51129229E+03</pdfrwt>
<totfact> 0.14619338E+03</totfact>
</mgrwt>
</event>
<event>
 4    1  0.4675559E-002  0.4152688E+03  0.7818608E-02  0.1038617E+00
         21   -1    0    0  503  502  0.00000000000E+00  0.00000000000E+00  0.18488167637E+03  0.18488167637E+03  0.00000000000E+00 0.  1.
         21   -1    0    0  501  503 -0.00000000000E+00 -0.00000000000E+00 -0.13251824455E+04  0.13251824455E+04  0.00000000000E+00 0.  1.
    9000007    1    1    2  501    0 -0.11144912900E+03  0.52234387816E+01 -0.98102620219E+03  0.10652983629E+04  0.40000000000E+03 0.  1.
   -9000007    1    1    2    0  502  0.11144912900E+03 -0.52234387816E+01 -0.15927456695E+03  0.44476575896E+03  0.40000000000E+03 0.  1.
<mgrwt>
<rscale>  2 0.41526882E+03</rscale>
<asrwt>0</asrwt>
<pdfrwt beam="1">  1       21 0.28443336E-01 0.41526882E+03</pdfrwt>
<pdfrwt beam="2">  1       21 0.20387422E+00 0.41526882E+03</pdfrwt>
<totfact> 0.12754898E+03</totfact>
</mgrwt>
</event>
<event>
 4    1  0.4675559E-002  0.4584696E+03  0.7818608E-02  0.1025226E+00
         21   -1    0    0  501  502  0.00000000000E+00  0.00000000000E+00  0.57523372614E+03  0.57523372614E+03  0.00000000000E+00 0. -1.
         21   -1    0    0  502  503 -0.00000000000E+00 -0.00000000000E+00 -0.39558669334E+03  0.39558669334E+03  0.00000000000E+00 0. -1.
    9000007    1    1    2  501    0  0.52438114910E+02 -0.21781782361E+03 -0.44251036130E+02  0.46060016758E+03  0.40000000000E+03 0. -1.
   -9000007    1    1    2    0  503 -0.52438114910E+02  0.21781782361E+03  0.22389806892E+03  0.51022025190E+03  0.40000000000E+03 0. -1.
<mgrwt>
<rscale>  2 0.45846958E+03</rscale>
<asrwt>0</asrwt>
<pdfrwt beam="1">  1       21 0.88497496E-01 0.45846958E+03</pdfrwt>
<pdfrwt beam="2">  1       21 0.60859492E-01 0.45846958E+03</pdfrwt>
<totfact> 0.23705846E+03</totfact>
</mgrwt>
</event>
<event>
 4    1  0.4675559E-002  0.4478656E+03  0.7818608E-02  0.1028360E+00
         21   -1    0    0  503  502  0.00000000000E+00  0.00000000000E+00  0.21777150568E+03  0.21777150568E+03  0.00000000000E+00 0.  1.
         21   -1    0    0  501  503 -0.00000000000E+00 -0.00000000000E+00 -0.12453683582E+04  0.12453683582E+04  0.00000000000E+00 0.  1.
    9000007    1    1    2  501    0  0.89137840785E+02  0.18065999738E+03 -0.88711466719E+03  0.99375853307E+03  0.40000000000E+03 0.  1.
   -9000007    1    1    2    0  502 -0.89137840785E+02 -0.18065999738E+03 -0.14048218532E+03  0.46938133080E+03  0.40000000000E+03 0.  1.
<mgrwt>
<rscale>  2 0.44786559E+03</rscale>
<asrwt>0</asrwt>
<pdfrwt beam="1">  1       21 0.33503310E-01 0.44786559E+03</pdfrwt>
<pdfrwt beam="2">  1       21 0.19159512E+00 0.44786559E+03</pdfrwt>
<totfact> 0.10956823E+03</totfact>
</mgrwt>
</event>
<event>
 4    1  0.4675559E-002  0.4912789E+03  0.7818608E-02  0.1016081E+00
         21   -1    0    0  501  502  0.00000000000E+00  0.00000000000E+00  0.24598102813E+03  0.24598102813E+03  0.00000000000E+00 0. -1.
         21   -1    0    0  502  503 -0.00000000000E+00 -0.00000000000E+00 -0.10870974488E+04  0.10870974488E+04  0.00000000000E+00 0. -1.
    9000007    1    1    2  501    0 -0.11656333669E+03  0.26032270206E+03 -0.21251760750E+03  0.53527437279E+03  0.40000000000E+03 0. -1.
   -9000007    1    1    2    0  503  0.11656333669E+03 -0.26032270206E+03 -0.62859881316E+03  0.79780410413E+03  0.40000000000E+03 0. -1.
<mgrwt>
<rscale>  2 0.49127886E+03</rscale>
<asrwt>0</asrwt>
<pdfrwt beam="1">  1       21 0.37843235E-01 0.49127886E+03</pdfrwt>
<pdfrwt beam="2">  1       21 0.16724576E+00 0.49127886E+03</pdfrwt>
<totfact> 0.12492387E+03</totfact>
</mgrwt>
</event>
<event>
 4    1  0.4675559E-002  0.4063945E+03  0.7818608E-02  0.1041588E+00
         21   -1    0    0  503  502  0.00000000000E+00  0.00000000000E+00  0.10640020883E+04  0.10640020883E+04  0.00000000000E+00 0.  1.
         21   -1    0    0  501  503 -0.00000000000E+00 -0.00000000000E+00 -0.44332719165E+03  0.44332719165E+03  0.00000000000E+00 0.  1.
    9000007    1    1    2  501    0  0.66180975194E+02  0.27867451330E+02 -0.29722581802E+03  0.50348754028E+03  0.40000000000E+03 0.  1.
   -9000007    1    1    2    0  502 -0.66180975194E+02 -0.27867451330E+02  0.91790071467E+03  0.10038417397E+04  0.40000000000E+03 0.  1.
<mgrwt>
<rscale>  2 0.40639453E+03</rscale>
<asrwt>0</asrwt>
<pdfrwt beam="1">  1       21 0.16369263E+00 0.40639453E+03</pdfrwt>
<pdfrwt beam="2">  1       21 0.68204184E-01 0.40639453E+03</pdfrwt>
<totfact> 0.39212683E+02</totfact>
</mgrwt>
</event>
<event>
 4    1  0.4675559E-002  0.4495522E+03  0.7818608E-02  0.1027856E+00
         21   -1    0    0  503  502  0.00000000000E+00  0.00000000000E+00  0.15433688410E+04  0.15433688410E+04  0.00000000000E+00 0.  1.
         21   -1    0    0  501  503 -0.00000000000E+00 -0.00000000000E+00 -0.13115411076E+03  0.13115411076E+03  0.00000000000E+00 0.  1.
    9000007    1    1    2  501    0 -0.68323102502E+02  0.19346611664E+03  0.67271463207E+03  0.80909959883E+03  0.40000000000E+03 0.  1.
   -9000007    1    1    2    0  502  0.68323102502E+02 -0.19346611664E+03  0.73950009818E+03  0.86542335295E+03  0.40000000000E+03 0.  1.
<mgrwt>
<rscale>  2 0.44955220E+03</rscale>
<asrwt>0</asrwt>
<pdfrwt beam="1">  1       21 0.23744135E+00 0.44955220E+03</pdfrwt>
<pdfrwt beam="2">  1       21 0.20177557E-01 0.44955220E+03</pdfrwt>
<totfact> 0.14892132E+03</totfact>
</mgrwt>
</event>
<event>
 4    1  0.4675559E-002  0.4360532E+03  0.7818608E-02  0.1031965E+00
         21   -1    0    0  503  502  0.00000000000E+00  0.00000000000E+00  0.24322826759E+03  0.24322826759E+03  0.00000000000E+00 0. -1.
         21   -1    0    0  501  503 -0.00000000000E+00 -0.00000000000E+00 -0.97032797110E+03  0.97032797110E+03  0.00000000000E+00 0.  1.
    9000007    1    1    2  501    0 -0.52092223975E+02  0.16561635677E+03 -0.63104897833E+03  0.76704966624E+03  0.40000000000E+03 0.  1.
   -9000007    1    1    2    0  502  0.52092223975E+02 -0.16561635677E+03 -0.96050725174E+02  0.44650657244E+03  0.40000000000E+03 0. -1.
<mgrwt>
<rscale>  2 0.43605318E+03</rscale>
<asrwt>0</asrwt>
<pdfrwt beam="1">  1       21 0.37419733E-01 0.43605318E+03</pdfrwt>
<pdfrwt beam="2">  1       21 0.14928123E+00 0.43605318E+03</pdfrwt>
<totfact> 0.17914490E+03</totfact>
</mgrwt>
</event>
<event>
 4    1  0.4675559E-002  0.5224029E+03  0.7818608E-02  0.1008091E+00
         21   -1    0    0  501  502  0.00000000000E+00  0.00000000000E+00  0.19692296440E+03  0.19692296440E+03  0.00000000000E+00 0.  1.
         21   -1    0    0  502  503 -0.00000000000E+00 -0.00000000000E+00 -0.16455861197E+04  0.16455861197E+04  0.00000000000E+00 0. -1.
    9000007    1    1    2  501    0 -0.21616730028E+03 -0.25724792364E+03 -0.35832465051E+03  0.63348350498E+03  0.40000000000E+03 0. -1.
   -9000007    1    1    2    0  503  0.21616730028E+03  0.25724792364E+03 -0.10903385048E+04  0.12090255791E+04  0.40000000000E+03 0. -1.
<mgrwt>
<rscale>  2 0.52240291E+03</rscale>
<asrwt>0</asrwt>
<pdfrwt beam="1">  1       21 0.30295839E-01 0.52240291E+03</pdfrwt>
<pdfrwt beam="2">  1       21 0.25316711E+00 0.52240291E+03</pdfrwt>
<totfact> 0.52135285E+02</totfact>
</mgrwt>
</event>
<event>
 4    1  0.4675559E-002  0.4006838E+03  0.7818608E-02  0.1043543E+00
         21   -1    0    0  501  502  0.00000000000E+00  0.00000000000E+00  0.53996805226E+03  0.53996805226E+03  0.00000000000E+00 0. -1.
         21   -1    0    0  502  503 -0.00000000000E+00 -0.00000000000E+00 -0.33169954905E+03  0.33169954905E+03  0.00000000000E+00 0. -1.
    9000007    1    1    2  501    0 -0.21524236003E+02  0.91770287422E+01 -0.36163048274E+02  0.40231241176E+03  0.40000000000E+03 0. -1.
   -9000007    1    1    2    0  503  0.21524236003E+02 -0.91770287422E+01  0.24443155148E+03  0.46935518955E+03  0.40000000000E+03 0. -1.
<mgrwt>
<rscale>  2 0.40068380E+03</rscale>
<asrwt>0</asrwt>
<pdfrwt beam="1">  1       21 0.83072008E-01 0.40068380E+03</pdfrwt>
<pdfrwt beam="2">  1       21 0.51030700E-01 0.40068380E+03</pdfrwt>
<totfact> 0.41104173E+03</totfact>
</mgrwt>
</event>
<event>
 4    1  0.4675559E-002  0.6158741E+03  0.7818608E-02  0.9873009E-01
         21   -1    0    0  503  502  0.00000000000E+00  0.00000000000E+00  0.93597825705E+03  0.93597825705E+03  0.00000000000E+00 0.  1.
         21   -1    0    0  501  503 -0.00000000000E+00 -0.00000000000E+00 -0.52723775940E+03  0.52723775940E+03  0.00000000000E+00 0.  1.
    9000007    1    1    2  501    0 -0.31821686963E+03 -0.34356788128E+03 -0.14754780518E+03  0.63330183955E+03  0.40000000000E+03 0.  1.
   -9000007    1    1    2    0  502  0.31821686963E+03  0.34356788128E+03  0.55628830283E+03  0.82991417691E+03  0.40000000000E+03 0.  1.
<mgrwt>
<rscale>  2 0.61587407E+03</rscale>
<asrwt>0</asrwt>
<pdfrwt beam="1">  1       21 0.14399665E+00 0.61587407E+03</pdfrwt>
<pdfrwt beam="2">  1       21 0.81113501E-01 0.61587407E+03</pdfrwt>
<totfact> 0.34355565E+02</totfact>
</mgrwt>
</event>
<event>
 4    1  0.4675559E-002  0.4174315E+03  0.7818608E-02  0.1037906E+00
         21   -1    0    0  503  502  0.00000000000E+00  0.00000000000E+00  0.40808465844E+03  0.40808465844E+03  0.00000000000E+00 0. -1.
         21   -1    0    0  501  503 -0.00000000000E+00 -0.00000000000E+00 -0.94218506746E+03  0.94218506746E+03  0.00000000000E+00 0. -1.
    9000007    1    1    2  501    0 -0.35193657993E+02  0.11406328231E+03 -0.76628780316E+03  0.87260874578E+03  0.40000000000E+03 0. -1.
   -9000007    1    1    2    0  502  0.35193657993E+02 -0.11406328231E+03  0.23218739414E+03  0.47766098012E+03  0.40000000000E+03 0. -1.
<mgrwt>
<rscale>  2 0.41743146E+03</rscale>
<asrwt>0</asrwt>
<pdfrwt beam="1">  1       21 0.62782256E-01 0.41743146E+03</pdfrwt>
<pdfrwt beam="2">  1       21 0.14495155E+00 0.41743146E+03</pdfrwt>
<totfact> 0.65369527E+02</totfact>
</mgrwt>
</event>
<event>
 4    1  0.4675559E-002  0.5366043E+03  0.7818608E-02  0.1004643E+00
         21   -1    0    0  501  502  0.00000000000E+00  0.00000000000E+00  0.91034167179E+03  0.91034167179E+03  0.00000000000E+00 0.  1.
         21   -1    0    0  502  503 -0.00000000000E+00 -0.00000000000E+00 -0.32786730714E+03  0.32786730714E+03  0.00000000000E+00 0. -1.
    9000007    1    1    2  501    0 -0.35127235901E+03  0.67468096784E+02  0.40750678737E+03  0.67379967055E+03  0.40000000000E+03 0.  1.
   -9000007    1    1    2    0  503  0.35127235901E+03 -0.67468096784E+02  0.17496757728E+03  0.56440930838E+03  0.40000000000E+03 0. -1.
<mgrwt>
<rscale>  2 0.53660434E+03</rscale>
<asrwt>0</asrwt>
<pdfrwt beam="1">  1       21 0.14005256E+00 0.53660434E+03</pdfrwt>
<pdfrwt beam="2">  1       21 0.50441124E-01 0.53660434E+03</pdfrwt>
<totfact> 0.10977862E+03</totfact>
</mgrwt>
</event>
<event>
 4    1  0.4675559E-002  0.4354263E+03  0.7818608E-02  0.1032159E+00
         21   -1    0    0  501  502  0.00000000000E+00  0.00000000000E+00  0.21647356618E+03  0.21647356618E+03  0.00000000000E+00 0. -1.
         21   -1    0    0  502  503 -0.00000000000E+00 -0.00000000000E+00 -0.21390756923E+04  0.21390756923E+04  0.00000000000E+00 0. -1.
    9000007    1    1    2  501    0 -0.16982217150E+03  0.27504179506E+02 -0.56211747148E+02  0.43903964552E+03  0.40000000000E+03 0. -1.
   -9000007    1    1    2    0  503  0.16982217150E+03 -0.27504179506E+02 -0.18663903790E+04  0.19165096130E+04  0.40000000000E+03 0. -1.
<mgrwt>
<rscale>  2 0.43542629E+03</rscale>
<asrwt>0</asrwt>
<pdfrwt beam="1">  1       21 0.33303624E-01 0.43542629E+03</pdfrwt>
<pdfrwt beam="2">  1       21 0.32908858E+00 0.43542629E+03</pdfrwt>
<totfact> 0.15698189E+02</totfact>
</mgrwt>
</event>
<event>
 4    1  0.4675559E-002  0.5900649E+03  0.7818608E-02  0.9926235E-01
         21   -1    0    0  503  502  0.00000000000E+00  0.00000000000E+00  0.56420838254E+03  0.56420838254E+03  0.00000000000E+00 0.  1.
         21   -1    0    0  501  503 -0.00000000000E+00 -0.00000000000E+00 -0.67977023506E+03  0.67977023506E+03  0.00000000000E+00 0. -1.
    9000007    1    1    2  501    0  0.32112061889E+02  0.43260307414E+03 -0.24662803056E+03  0.63953263383E+03  0.40000000000E+03 0. -1.
   -9000007    1    1    2    0  502 -0.32112061889E+02 -0.43260307414E+03  0.13106617804E+03  0.60444598378E+03  0.40000000000E+03 0.  1.
<mgrwt>
<rscale>  2 0.59006492E+03</rscale>
<asrwt>0</asrwt>
<pdfrwt beam="1">  1       21 0.86801289E-01 0.59006492E+03</pdfrwt>
<pdfrwt beam="2">  1       21 0.10458004E+00 0.59006492E+03</pdfrwt>
<totfact> 0.67442520E+02</totfact>
</mgrwt>
</event>
<event>
 4    1  0.4675559E-002  0.4518568E+03  0.7818608E-02  0.1027170E+00
         21   -1    0    0  501  502  0.00000000000E+00  0.00000000000E+00  0.19088550521E+03  0.19088550521E+03  0.00000000000E+00 0.  1.
         21   -1    0    0  502  503 -0.00000000000E+00 -0.00000000000E+00 -0.14569888388E+04  0.14569888388E+04  0.00000000000E+00 0. -1.
    9000007    1    1    2  501    0  0.20732321756E+03 -0.34520098850E+02 -0.20820765563E+03  0.49751882540E+03  0.40000000000E+03 0.  1.
   -9000007    1    1    2    0  503 -0.20732321756E+03  0.34520098850E+02 -0.10578956780E+04  0.11503555187E+04  0.40000000000E+03 0. -1.
<mgrwt>
<rscale>  2 0.45185678E+03</rscale>
<asrwt>0</asrwt>
<pdfrwt beam="1">  1       21 0.29367001E-01 0.45185678E+03</pdfrwt>
<pdfrwt beam="2">  1       21 0.22415213E+00 0.45185678E+03</pdfrwt>
<totfact> 0.87007471E+02</totfact>
</mgrwt>
</event>
<event>
 4    1  0.4675559E-002  0.9008899E+03  0.7818608E-02  0.9424470E-01
         21   -1    0    0  503  502  0.00000000000E+00  0.00000000000E+00  0.30591239787E+04  0.30591239787E+04  0.00000000000E+00 0.  1.
         21   -1    0    0  501  503 -0.00000000000E+00 -0.00000000000E+00 -0.29009205275E+03  0.29009205275E+03  0.00000000000E+00 0. -1.
    9000007    1    1    2  501    0 -0.76238153694E+03  0.26528660649E+03  0.89501582904E+03  0.12699039041E+04  0.40000000000E+03 0. -1.
   -9000007    1    1    2    0  502  0.76238153694E+03 -0.26528660649E+03  0.18740160969E+04  0.20793121273E+04  0.40000000000E+03 0. -1.
<mgrwt>
<rscale>  2 0.90088989E+03</rscale>
<asrwt>0</asrwt>
<pdfrwt beam="1">  1       21 0.47063443E+00 0.90088989E+03</pdfrwt>
<pdfrwt beam="2">  1       21 0.44629549E-01 0.90088989E+03</pdfrwt>
<totfact> 0.81978189E+00</totfact>
</mgrwt>
</event>
<event>
 4    1  0.4675559E-002  0.4193632E+03  0.7818608E-02  0.1037274E+00
         21   -1    0    0  501  502  0.00000000000E+00  0.00000000000E+00  0.11123222602E+04  0.11123222602E+04  0.00000000000E+00 0. -1.
         21   -1    0    0  502  503 -0.00000000000E+00 -0.00000000000E+00 -0.16295432626E+03  0.16295432626E+03  0.00000000000E+00 0.  1.
    9000007    1    1    2  501    0  0.11471197168E+03  0.52025383030E+02  0.58466328953E+03  0.71951138910E+03  0.40000000000E+03 0. -1.
   -9000007    1    1    2    0  503 -0.11471197168E+03 -0.52025383030E+02  0.36470464439E+03  0.55576519733E+03  0.40000000000E+03 0. -1.
<mgrwt>
<rscale>  2 0.41936318E+03</rscale>
<asrwt>0</asrwt>
<pdfrwt beam="1">  1       21 0.17112650E+00 0.41936318E+03</pdfrwt>
<pdfrwt beam="2">  1       21 0.25069897E-01 0.41936318E+03</pdfrwt>
<totfact> 0.27393534E+03</totfact>
</mgrwt>
</event>
<event>
 4    1  0.4675559E-002  0.6614108E+03  0.7818608E-02  0.9785600E-01
         21   -1    0    0  501  502  0.00000000000E+00  0.00000000000E+00  0.22884873451E+03  0.22884873451E+03  0.00000000000E+00 0. -1.
         21   -1    0    0  502  503 -0.00000000000E+00 -0.00000000000E+00 -0.31383418661E+04  0.31383418661E+04  0.00000000000E+00 0. -1.
    9000007    1    1    2  501    0  0.29588740429E+03 -0.43579225837E+03 -0.40213899899E+03  0.77406719539E+03  0.40000000000E+03 0. -1.
   -9000007    1    1    2    0  503 -0.29588740429E+03  0.43579225837E+03 -0.25073541326E+04  0.25931234052E+04  0.40000000000E+03 0. -1.
<mgrwt>
<rscale>  2 0.66141080E+03</rscale>
<asrwt>0</asrwt>
<pdfrwt beam="1">  1       21 0.35207501E-01 0.66141080E+03</pdfrwt>
<pdfrwt beam="2">  1       21 0.48282178E+00 0.66141080E+03</pdfrwt>
<totfact> 0.12242790E+01</totfact>
</mgrwt>
</event>
<event>
 4    1  0.4675559E-002  0.4130120E+03  0.7818608E-02  0.1039365E+00
         21   -1    0    0  501  502  0.00000000000E+00  0.00000000000E+00  0.82297812053E+02  0.82297812053E+02  0.00000000000E+00 0.  1.
         21   -1    0    0  502  503 -0.00000000000E+00 -0.00000000000E+00 -0.21516640764E+04  0.21516640764E+04  0.00000000000E+00 0. -1.
    9000007    1    1    2  501    0 -0.10285331633E+03 -0.31409642386E+00 -0.12486594359E+04  0.13151917313E+04  0.40000000000E+03 0. -1.
   -9000007    1    1    2    0  503  0.10285331633E+03  0.31409642386E+00 -0.82070682847E+03  0.91877015713E+03  0.40000000000E+03 0.  1.
<mgrwt>
<rscale>  2 0.41301199E+03</rscale>
<asrwt>0</asrwt>
<pdfrwt beam="1">  1       21 0.12661204E-01 0.41301199E+03</pdfrwt>
<pdfrwt beam="2">  1       21 0.33102519E+00 0.41301199E+03</pdfrwt>
<totfact> 0.98283729E+02</totfact>
</mgrwt>
</event>
<event>
 4    1  0.4675559E-002  0.4960903E+03  0.7818608E-02  0.1014804E+00
         21   -1    0    0  501  502  0.00000000000E+00  0.00000000000E+00  0.29143601366E+03  0.29143601366E+03  0.00000000000E+00 0.  1.
         21   -1    0    0  502  503 -0.00000000000E+00 -0.00000000000E+00 -0.85166696951E+03  0.85166696951E+03  0.00000000000E+00 0.  1.
    9000007    1    1    2  501    0 -0.28374699132E+03 -0.74788196554E+02 -0.22753301677E+03  0.54578100292E+03  0.40000000000E+03 0.  1.
   -9000007    1    1    2    0  503  0.28374699132E+03  0.74788196554E+02 -0.33269793907E+03  0.59732198025E+03  0.40000000000E+03 0.  1.
<mgrwt>
<rscale>  2 0.49609034E+03</rscale>
<asrwt>0</asrwt>
<pdfrwt beam="1">  1       21 0.44836311E-01 0.49609034E+03</pdfrwt>
<pdfrwt beam="2">  1       21 0.13102569E+00 0.49609034E+03</pdfrwt>
<totfact> 0.17034492E+03</totfact>
</mgrwt>
</event>
<event>
 4    1  0.4675559E-002  0.4178742E+03  0.7818608E-02  0.1037760E+00
         21   -1    0    0  501  502  0.00000000000E+00  0.00000000000E+00  0.41175863356E+03  0.41175863356E+03  0.00000000000E+00 0.  1.
         21   -1    0    0  502  503 -0.00000000000E+00 -0.00000000000E+00 -0.74393958401E+03  0.74393958401E+03  0.00000000000E+00 0.  1.
    9000007    1    1    2  501    0 -0.10985441490E+03  0.50505927177E+02  0.21280978422E+03  0.46894226235E+03  0.40000000000E+03 0.  1.
   -9000007    1    1    2    0  503  0.10985441490E+03 -0.50505927177E+02 -0.54499073468E+03  0.68675595523E+03  0.40000000000E+03 0.  1.
<mgrwt>
<rscale>  2 0.41787419E+03</rscale>
<asrwt>0</asrwt>
<pdfrwt beam="1">  1       21 0.63347482E-01 0.41787419E+03</pdfrwt>
<pdfrwt beam="2">  1       21 0.11445224E+00 0.41787419E+03</pdfrwt>
<totfact> 0.11804559E+03</totfact>
</mgrwt>
</event>
<event>
 4    1  0.4675559E-002  0.4423721E+03  0.7818608E-02  0.1030021E+00
         21   -1    0    0  503  502  0.00000000000E+00  0.00000000000E+00  0.17807609152E+04  0.17807609152E+04  0.00000000000E+00 0. -1.
         21   -1    0    0  501  503 -0.00000000000E+00 -0.00000000000E+00 -0.11338271915E+03  0.11338271915E+03  0.00000000000E+00 0. -1.
    9000007    1    1    2  501    0 -0.86598622951E+02 -0.16790999301E+03  0.66753646283E+03  0.80081084936E+03  0.40000000000E+03 0. -1.
   -9000007    1    1    2    0  502  0.86598622951E+02  0.16790999301E+03  0.99984173326E+03  0.10933327850E+04  0.40000000000E+03 0. -1.
<mgrwt>
<rscale>  2 0.44237211E+03</rscale>
<asrwt>0</asrwt>
<pdfrwt beam="1">  1       21 0.27396320E+00 0.44237211E+03</pdfrwt>
<pdfrwt beam="2">  1       21 0.17443497E-01 0.44237211E+03</pdfrwt>
<totfact> 0.11768632E+03</totfact>
</mgrwt>
</event>
<event>
 4    1  0.4675559E-002  0.4750808E+03  0.7818608E-02  0.1020496E+00
         21   -1    0    0  503  502  0.00000000000E+00  0.00000000000E+00  0.44939531431E+03  0.44939531431E+03  0.00000000000E+00 0. -1.
         21   -1    0    0  501  503 -0.00000000000E+00 -0.00000000000E+00 -0.50466216033E+03  0.50466216033E+03  0.00000000000E+00 0.  1.
    9000007    1    1    2  501    0  0.21988214807E+03  0.13173293213E+03  0.54537252023E+01  0.47511205790E+03  0.40000000000E+03 0. -1.
   -9000007    1    1    2    0  502 -0.21988214807E+03 -0.13173293213E+03 -0.60720571228E+02  0.47894541674E+03  0.40000000000E+03 0.  1.
<mgrwt>
<rscale>  2 0.47508076E+03</rscale>
<asrwt>0</asrwt>
<pdfrwt beam="1">  1       21 0.69137740E-01 0.47508076E+03</pdfrwt>
<pdfrwt beam="2">  1       21 0.77640333E-01 0.47508076E+03</pdfrwt>
<totfact> 0.24075836E+03</totfact>
</mgrwt>
</event>
<event>
 4    1  0.4675559E-002  0.4096006E+03  0.7818608E-02  0.1040505E+00
         21   -1    0    0  501  502  0.00000000000E+00  0.00000000000E+00  0.10980063923E+04  0.10980063923E+04  0.00000000000E+00 0.  1.
         21   -1    0    0  502  503 -0.00000000000E+00 -0.00000000000E+00 -0.32933059854E+03  0.32933059854E+03  0.00000000000E+00 0.  1.
    9000007    1    1    2  501    0  0.35579815605E+02  0.80664389898E+02  0.90684658502E+03  0.99505949362E+03  0.40000000000E+03 0.  1.
   -9000007    1    1    2    0  503 -0.35579815605E+02 -0.80664389898E+02 -0.13817079124E+03  0.43227749725E+03  0.40000000000E+03 0.  1.
<mgrwt>
<rscale>  2 0.40960062E+03</rscale>
<asrwt>0</asrwt>
<pdfrwt beam="1">  1       21 0.16892406E+00 0.40960062E+03</pdfrwt>
<pdfrwt beam="2">  1       21 0.50666246E-01 0.40960062E+03</pdfrwt>
<totfact> 0.68489346E+02</totfact>
</mgrwt>
</event>
<event>
 4    1  0.4675559E-002  0.4476475E+03  0.7818608E-02  0.1028426E+00
         21   -1    0    0  501  502  0.00000000000E+00  0.00000000000E+00  0.30837241670E+04  0.30837241670E+04  0.00000000000E+00 0. -1.
         21   -1    0    0  502  503 -0.00000000000E+00 -0.00000000000E+00 -0.66752790932E+02  0.66752790932E+02  0.00000000000E+00 0. -1.
    9000007    1    1    2  501    0 -0.38501898968E+02 -0.19724578184E+03  0.17650087424E+04  0.18208910334E+04  0.40000000000E+03 0. -1.
   -9000007    1    1    2    0  503  0.38501898968E+02  0.19724578184E+03  0.12519626337E+04  0.13295859245E+04  0.40000000000E+03 0. -1.
<mgrwt>
<rscale>  2 0.44764751E+03</rscale>
<asrwt>0</asrwt>
<pdfrwt beam="1">  1       21 0.47441899E+00 0.44764751E+03</pdfrwt>
<pdfrwt beam="2">  1       21 0.10269663E-01 0.44764751E+03</pdfrwt>
<totfact> 0.16707853E+02</totfact>
</mgrwt>
</event>
<event>
 4    1  0.4675559E-002  0.4560134E+03  0.7818608E-02  0.1025944E+00
         21   -1    0    0  501  502  0.00000000000E+00  0.00000000000E+00  0.13541482484E+04  0.13541482484E+04  0.00000000000E+00 0.  1.
         21   -1    0    0  502  503 -0.00000000000E+00 -0.00000000000E+00 -0.16500521454E+03  0.16500521454E+03  0.00000000000E+00 0.  1.
    9000007    1    1    2  501    0 -0.19292815617E+03 -0.10357080269E+03  0.79458635007E+03  0.91614172066E+03  0.40000000000E+03 0. -1.
   -9000007    1    1    2    0  503  0.19292815617E+03  0.10357080269E+03  0.39455668383E+03  0.60301174231E+03  0.40000000000E+03 0. -1.
<mgrwt>
<rscale>  2 0.45601336E+03</rscale>
<asrwt>0</asrwt>
<pdfrwt beam="1">  1       21 0.20833049E+00 0.45601336E+03</pdfrwt>
<pdfrwt beam="2">  1       21 0.25385418E-01 0.45601336E+03</pdfrwt>
<totfact> 0.14624204E+03</totfact>
</mgrwt>
</event>
<event>
 4    1  0.4675559E-002  0.4343506E+03  0.7818608E-02  0.1032494E+00
         21   -1    0    0  503  502  0.00000000000E+00  0.00000000000E+00  0.22428959034E+03  0.22428959034E+03  0.00000000000E+00 0.  1.
         21   -1    0    0  501  503 -0.00000000000E+00 -0.00000000000E+00 -0.19723241308E+04  0.19723241308E+04  0.00000000000E+00 0.  1.
    9000007    1    1    2  501    0  0.14946961528E+03  0.79493919257E+02 -0.17057808839E+04  0.17602127352E+04  0.40000000000E+03 0.  1.
   -9000007    1    1    2    0  502 -0.14946961528E+03 -0.79493919257E+02 -0.42253656557E+02  0.43640098600E+03  0.40000000000E+03 0.  1.
<mgrwt>
<rscale>  2 0.43435061E+03</rscale>
<asrwt>0</asrwt>
<pdfrwt beam="1">  1       21 0.34506090E-01 0.43435061E+03</pdfrwt>
<pdfrwt beam="2">  1       21 0.30343449E+00 0.43435061E+03</pdfrwt>
<totfact> 0.20875366E+02</totfact>
</mgrwt>
</event>
<event>
 4    1  0.4675559E-002  0.4559048E+03  0.7818608E-02  0.1025976E+00
         21   -1    0    0  501  502  0.00000000000E+00  0.00000000000E+00  0.34783661105E+03  0.34783661105E+03  0.00000000000E+00 0.  1.
         21   -1    0    0  502  503 -0.00000000000E+00 -0.00000000000E+00 -0.60106221000E+03  0.60106221000E+03  0.00000000000E+00 0.  1.
    9000007    1    1    2  501    0  0.15540272331E+03  0.15394537438E+03 -0.16288917594E+03  0.48413021838E+03  0.40000000000E+03 0.  1.
   -9000007    1    1    2    0  503 -0.15540272331E+03 -0.15394537438E+03 -0.90336423009E+02  0.46476860267E+03  0.40000000000E+03 0.  1.
<mgrwt>
<rscale>  2 0.45590480E+03</rscale>
<asrwt>0</asrwt>
<pdfrwt beam="1">  1       21 0.53513326E-01 0.45590480E+03</pdfrwt>
<pdfrwt beam="2">  1       21 0.92471108E-01 0.45590480E+03</pdfrwt>
<totfact> 0.28277064E+03</totfact>
</mgrwt>
</event>
<event>
 4    1  0.4675559E-002  0.4000639E+03  0.7818608E-02  0.1043758E+00
         21   -1    0    0  503  502  0.00000000000E+00  0.00000000000E+00  0.80795112903E+03  0.80795112903E+03  0.00000000000E+00 0.  1.
         21   -1    0    0  501  503 -0.00000000000E+00 -0.00000000000E+00 -0.22199053325E+03  0.22199053325E+03  0.00000000000E+00 0.  1.
    9000007    1    1    2  501    0 -0.71093657747E+01 -0.74568203818E+00  0.12402432899E+03  0.41884738665E+03  0.40000000000E+03 0.  1.
   -9000007    1    1    2    0  502  0.71093657747E+01  0.74568203818E+00  0.46193626680E+03  0.61109427563E+03  0.40000000000E+03 0.  1.
<mgrwt>
<rscale>  2 0.40006387E+03</rscale>
<asrwt>0</asrwt>
<pdfrwt beam="1">  1       21 0.12430017E+00 0.40006387E+03</pdfrwt>
<pdfrwt beam="2">  1       21 0.34152390E-01 0.40006387E+03</pdfrwt>
<totfact> 0.35408246E+03</totfact>
</mgrwt>
</event>
<event>
 4    1  0.4675559E-002  0.5169961E+03  0.7818608E-02  0.1009435E+00
         21   -1    0    0  503  502  0.00000000000E+00  0.00000000000E+00  0.51387637716E+03  0.51387637716E+03  0.00000000000E+00 0.  1.
         21   -1    0    0  501  503 -0.00000000000E+00 -0.00000000000E+00 -0.57485717523E+03  0.57485717523E+03  0.00000000000E+00 0.  1.
    9000007    1    1    2  501    0 -0.18446453069E+03  0.27066183305E+03 -0.19844583708E+03  0.55377408860E+03  0.40000000000E+03 0.  1.
   -9000007    1    1    2    0  502  0.18446453069E+03 -0.27066183305E+03  0.13746503900E+03  0.53495946379E+03  0.40000000000E+03 0.  1.
<mgrwt>
<rscale>  2 0.51699612E+03</rscale>
<asrwt>0</asrwt>
<pdfrwt beam="1">  1       21 0.79057905E-01 0.51699612E+03</pdfrwt>
<pdfrwt beam="2">  1       21 0.88439565E-01 0.51699612E+03</pdfrwt>
<totfact> 0.12900041E+03</totfact>
</mgrwt>
</event>
<event>
 4    1  0.4675559E-002  0.4222760E+03  0.7818608E-02  0.1036328E+00
         21   -1    0    0  503  502  0.00000000000E+00  0.00000000000E+00  0.22496901984E+03  0.22496901984E+03  0.00000000000E+00 0.  1.
         21   -1    0    0  501  503 -0.00000000000E+00 -0.00000000000E+00 -0.95289044565E+03  0.95289044565E+03  0.00000000000E+00 0.  1.
    9000007    1    1    2  501    0  0.97544182523E+02 -0.93819803457E+02 -0.60548243588E+03  0.73819103437E+03  0.40000000000E+03 0.  1.
   -9000007    1    1    2    0  502 -0.97544182523E+02  0.93819803457E+02 -0.12243898993E+03  0.43966843112E+03  0.40000000000E+03 0.  1.
<mgrwt>
<rscale>  2 0.42227600E+03</rscale>
<asrwt>0</asrwt>
<pdfrwt beam="1">  1       21 0.34610619E-01 0.42227600E+03</pdfrwt>
<pdfrwt beam="2">  1       21 0.14659853E+00 0.42227600E+03</pdfrwt>
<totfact> 0.22166493E+03</totfact>
</mgrwt>
</event>
<event>
 4    1  0.4675559E-002  0.4399878E+03  0.7818608E-02  0.1030751E+00
         21   -1    0    0  501  502  0.00000000000E+00  0.00000000000E+00  0.36901213730E+03  0.36901213730E+03  0.00000000000E+00 0. -1.
         21   -1    0    0  502  503 -0.00000000000E+00 -0.00000000000E+00 -0.60130744387E+03  0.60130744387E+03  0.00000000000E+00 0. -1.
    9000007    1    1    2  501    0  0.25802731209E+01 -0.18325554578E+03 -0.28941358508E+03  0.52663979730E+03  0.40000000000E+03 0. -1.
   -9000007    1    1    2    0  503 -0.25802731209E+01  0.18325554578E+03  0.57118278510E+02  0.44367978386E+03  0.40000000000E+03 0. -1.
<mgrwt>
<rscale>  2 0.43998779E+03</rscale>
<asrwt>0</asrwt>
<pdfrwt beam="1">  1       21 0.56771099E-01 0.43998779E+03</pdfrwt>
<pdfrwt beam="2">  1       21 0.92508836E-01 0.43998779E+03</pdfrwt>
<totfact> 0.25009748E+03</totfact>
</mgrwt>
</event>
<event>
 4    1  0.4675559E-002  0.4336673E+03  0.7818608E-02  0.1032708E+00
         21   -1    0    0  501  502  0.00000000000E+00  0.00000000000E+00  0.91457449178E+03  0.91457449178E+03  0.00000000000E+00 0. -1.
         21   -1    0    0  502  503 -0.00000000000E+00 -0.00000000000E+00 -0.58629931819E+03  0.58629931819E+03  0.00000000000E+00 0. -1.
    9000007    1    1    2  501    0  0.88018210283E+02 -0.14254868071E+03  0.76881858126E+03  0.88269436534E+03  0.40000000000E+03 0. -1.
   -9000007    1    1    2    0  503 -0.88018210283E+02  0.14254868071E+03 -0.44054340768E+03  0.61817944463E+03  0.40000000000E+03 0. -1.
<mgrwt>
<rscale>  2 0.43366731E+03</rscale>
<asrwt>0</asrwt>
<pdfrwt beam="1">  1       21 0.14070377E+00 0.43366731E+03</pdfrwt>
<pdfrwt beam="2">  1       21 0.90199895E-01 0.43366731E+03</pdfrwt>
<totfact> 0.30713232E+02</totfact>
</mgrwt>
</event>
<event>
 4    1  0.4675559E-002  0.4168020E+03  0.7818608E-02  0.1038112E+00
         21   -1    0    0  503  502  0.00000000000E+00  0.00000000000E+00  0.18351138118E+03  0.18351138118E+03  0.00000000000E+00 0. -1.
         21   -1    0    0  501  503 -0.00000000000E+00 -0.00000000000E+00 -0.99621832284E+03  0.99621832284E+03  0.00000000000E+00 0. -1.
    9000007    1    1    2  501    0 -0.11436517765E+03  0.25386532359E+02 -0.27479766527E+03  0.49923704462E+03  0.40000000000E+03 0. -1.
   -9000007    1    1    2    0  502  0.11436517765E+03 -0.25386532359E+02 -0.53790927639E+03  0.68049265941E+03  0.40000000000E+03 0. -1.
<mgrwt>
<rscale>  2 0.41680196E+03</rscale>
<asrwt>0</asrwt>
<pdfrwt beam="1">  1       21 0.28232519E-01 0.41680196E+03</pdfrwt>
<pdfrwt beam="2">  1       21 0.15326436E+00 0.41680196E+03</pdfrwt>
<totfact> 0.29562401E+03</totfact>
</mgrwt>
</event>
<event>
 4    1  0.4675559E-002  0.4454618E+03  0.7818608E-02  0.1029084E+00
         21   -1    0    0  503  502  0.00000000000E+00  0.00000000000E+00  0.57986151326E+03  0.57986151326E+03  0.00000000000E+00 0. -1.
         21   -1    0    0  501  503 -0.00000000000E+00 -0.00000000000E+00 -0.44301585976E+03  0.44301585976E+03  0.00000000000E+00 0.  1.
    9000007    1    1    2  501    0  0.19425429424E+03  0.26485946242E+02 -0.17553796727E+03  0.47880039070E+03  0.40000000000E+03 0.  1.
   -9000007    1    1    2    0  502 -0.19425429424E+03 -0.26485946242E+02  0.31238362076E+03  0.54407698233E+03  0.40000000000E+03 0. -1.
<mgrwt>
<rscale>  2 0.44546182E+03</rscale>
<asrwt>0</asrwt>
<pdfrwt beam="1">  1       21 0.89209464E-01 0.44546182E+03</pdfrwt>
<pdfrwt beam="2">  1       21 0.68156286E-01 0.44546182E+03</pdfrwt>
<totfact> 0.18180807E+03</totfact>
</mgrwt>
</event>
<event>
 4    1  0.4675559E-002  0.5066563E+03  0.7818608E-02  0.1012056E+00
         21   -1    0    0  503  502  0.00000000000E+00  0.00000000000E+00  0.16935056471E+03  0.16935056471E+03  0.00000000000E+00 0. -1.
         21   -1    0    0  501  503 -0.00000000000E+00 -0.00000000000E+00 -0.15326516770E+04  0.15326516770E+04  0.00000000000E+00 0.  1.
    9000007    1    1    2  501    0  0.10942663774E+03  0.29107796507E+03 -0.77090034448E+03  0.92249006061E+03  0.40000000000E+03 0.  1.
   -9000007    1    1    2    0  502 -0.10942663774E+03 -0.29107796507E+03 -0.59240076784E+03  0.77951218113E+03  0.40000000000E+03 0.  1.
<mgrwt>
<rscale>  2 0.50665626E+03</rscale>
<asrwt>0</asrwt>
<pdfrwt beam="1">  1       21 0.26053933E-01 0.50665626E+03</pdfrwt>
<pdfrwt beam="2">  1       21 0.23579256E+00 0.50665626E+03</pdfrwt>
<totfact> 0.90708298E+02</totfact>
</mgrwt>
</event>
<event>
 4    1  0.4675559E-002  0.4168156E+03  0.7818608E-02  0.1038108E+00
         21   -1    0    0  503  502  0.00000000000E+00  0.00000000000E+00  0.92749916045E+03  0.92749916045E+03  0.00000000000E+00 0.  1.
         21   -1    0    0  501  503 -0.00000000000E+00 -0.00000000000E+00 -0.19547661260E+03  0.19547661260E+03  0.00000000000E+00 0.  1.
    9000007    1    1    2  501    0  0.11671110592E+03  0.10667559608E+02  0.25128608588E+03  0.48670317035E+03  0.40000000000E+03 0.  1.
   -9000007    1    1    2    0  502 -0.11671110592E+03 -0.10667559608E+02  0.48073646197E+03  0.63627260269E+03  0.40000000000E+03 0.  1.
<mgrwt>
<rscale>  2 0.41681564E+03</rscale>
<asrwt>0</asrwt>
<pdfrwt beam="1">  1       21 0.14269218E+00 0.41681564E+03</pdfrwt>
<pdfrwt beam="2">  1       21 0.30073326E-01 0.41681564E+03</pdfrwt>
<totfact> 0.31638981E+03</totfact>
</mgrwt>
</event>
<event>
 4    1  0.4675559E-002  0.7263545E+03  0.7818608E-02  0.9673195E-01
         21   -1    0    0  503  502  0.00000000000E+00  0.00000000000E+00  0.31739511262E+03  0.31739511262E+03  0.00000000000E+00 0. -1.
         21   -1    0    0  501  503 -0.00000000000E+00 -0.00000000000E+00 -0.20952776211E+04  0.20952776211E+04  0.00000000000E+00 0.  1.
    9000007    1    1    2  501    0 -0.63031058369E+02  0.60300741813E+03 -0.14373496742E+04  0.16104548881E+04  0.40000000000E+03 0.  1.
   -9000007    1    1    2    0  502  0.63031058369E+02 -0.60300741813E+03 -0.34053283427E+03  0.80221784563E+03  0.40000000000E+03 0. -1.
<mgrwt>
<rscale>  2 0.72635450E+03</rscale>
<asrwt>0</asrwt>
<pdfrwt beam="1">  1       21 0.48830015E-01 0.72635450E+03</pdfrwt>
<pdfrwt beam="2">  1       21 0.32235042E+00 0.72635450E+03</pdfrwt>
<totfact> 0.67285926E+01</totfact>
</mgrwt>
</event>
<event>
 4    1  0.4675559E-002  0.4086751E+03  0.7818608E-02  0.1040817E+00
         21   -1    0    0  503  502  0.00000000000E+00  0.00000000000E+00  0.59206624257E+03  0.59206624257E+03  0.00000000000E+00 0.  1.
         21   -1    0    0  501  503 -0.00000000000E+00 -0.00000000000E+00 -0.34629783718E+03  0.34629783718E+03  0.00000000000E+00 0.  1.
    9000007    1    1    2  501    0 -0.83650002739E+02  0.42405171234E+01 -0.79145064315E+02  0.41626823822E+03  0.40000000000E+03 0.  1.
   -9000007    1    1    2    0  502  0.83650002739E+02 -0.42405171234E+01  0.32491346971E+03  0.52209584153E+03  0.40000000000E+03 0.  1.
<mgrwt>
<rscale>  2 0.40867506E+03</rscale>
<asrwt>0</asrwt>
<pdfrwt beam="1">  1       21 0.91087115E-01 0.40867506E+03</pdfrwt>
<pdfrwt beam="2">  1       21 0.53276590E-01 0.40867506E+03</pdfrwt>
<totfact> 0.30112960E+03</totfact>
</mgrwt>
</event>
<event>
 4    1  0.4675559E-002  0.5436126E+03  0.7818608E-02  0.1002983E+00
         21   -1    0    0  503  502  0.00000000000E+00  0.00000000000E+00  0.94366861090E+03  0.94366861090E+03  0.00000000000E+00 0.  1.
         21   -1    0    0  501  503 -0.00000000000E+00 -0.00000000000E+00 -0.32969517005E+03  0.32969517005E+03  0.00000000000E+00 0.  1.
    9000007    1    1    2  501    0  0.15027474060E+03  0.33605383836E+03  0.16438187032E+03  0.56792259968E+03  0.40000000000E+03 0.  1.
   -9000007    1    1    2    0  502 -0.15027474060E+03 -0.33605383836E+03  0.44959157053E+03  0.70544118127E+03  0.40000000000E+03 0.  1.
<mgrwt>
<rscale>  2 0.54361262E+03</rscale>
<asrwt>0</asrwt>
<pdfrwt beam="1">  1       21 0.14517979E+00 0.54361262E+03</pdfrwt>
<pdfrwt beam="2">  1       21 0.50722334E-01 0.54361262E+03</pdfrwt>
<totfact> 0.98233303E+02</totfact>
</mgrwt>
</event>
<event>
 4    1  0.4675559E-002  0.4059369E+03  0.7818608E-02  0.1041743E+00
         21   -1    0    0  501  502  0.00000000000E+00  0.00000000000E+00  0.56207956717E+03  0.56207956717E+03  0.00000000000E+00 0.  1.
         21   -1    0    0  502  503 -0.00000000000E+00 -0.00000000000E+00 -0.29316979372E+03  0.29316979372E+03  0.00000000000E+00 0.  1.
    9000007    1    1    2  501    0 -0.42021985356E+02  0.54944471090E+02  0.13455260842E+03  0.42765540636E+03  0.40000000000E+03 0. -1.
   -9000007    1    1    2    0  503  0.42021985356E+02 -0.54944471090E+02  0.13435716502E+03  0.42759395453E+03  0.40000000000E+03 0. -1.
<mgrwt>
<rscale>  2 0.40593687E+03</rscale>
<asrwt>0</asrwt>
<pdfrwt beam="1">  1       21 0.86473779E-01 0.40593687E+03</pdfrwt>
<pdfrwt beam="2">  1       21 0.45103045E-01 0.40593687E+03</pdfrwt>
<totfact> 0.48470686E+03</totfact>
</mgrwt>
</event>
<event>
 4    1  0.4675559E-002  0.5891149E+03  0.7818608E-02  0.9928250E-01
         21   -1    0    0  503  502  0.00000000000E+00  0.00000000000E+00  0.47819018416E+03  0.47819018416E+03  0.00000000000E+00 0.  1.
         21   -1    0    0  501  503 -0.00000000000E+00 -0.00000000000E+00 -0.19506296461E+04  0.19506296461E+04  0.00000000000E+00 0. -1.
    9000007    1    1    2  501    0 -0.40797394387E+03 -0.14357428194E+03 -0.16985429725E+04  0.17978054796E+04  0.40000000000E+03 0. -1.
   -9000007    1    1    2    0  502  0.40797394387E+03  0.14357428194E+03  0.22610351046E+03  0.63101435068E+03  0.40000000000E+03 0.  1.
<mgrwt>
<rscale>  2 0.58911486E+03</rscale>
<asrwt>0</asrwt>
<pdfrwt beam="1">  1       21 0.73567720E-01 0.58911486E+03</pdfrwt>
<pdfrwt beam="2">  1       21 0.30009687E+00 0.58911486E+03</pdfrwt>
<totfact> 0.39577815E+01</totfact>
</mgrwt>
</event>
<event>
 4    1  0.4675559E-002  0.5089627E+03  0.7818608E-02  0.1011466E+00
         21   -1    0    0  501  502  0.00000000000E+00  0.00000000000E+00  0.10574877676E+03  0.10574877676E+03  0.00000000000E+00 0.  1.
         21   -1    0    0  502  503 -0.00000000000E+00 -0.00000000000E+00 -0.28721304716E+04  0.28721304716E+04  0.00000000000E+00 0.  1.
    9000007    1    1    2  501    0  0.25784815563E+03  0.18043664870E+03 -0.19542747017E+04  0.20194634597E+04  0.40000000000E+03 0.  1.
   -9000007    1    1    2    0  503 -0.25784815563E+03 -0.18043664870E+03 -0.81210699320E+03  0.95841578867E+03  0.40000000000E+03 0.  1.
<mgrwt>
<rscale>  2 0.50896273E+03</rscale>
<asrwt>0</asrwt>
<pdfrwt beam="1">  1       21 0.16269042E-01 0.50896273E+03</pdfrwt>
<pdfrwt beam="2">  1       21 0.44186624E+00 0.50896273E+03</pdfrwt>
<totfact> 0.11513176E+02</totfact>
</mgrwt>
</event>
<event>
 4    1  0.4675559E-002  0.4320853E+03  0.7818608E-02  0.1033203E+00
         21   -1    0    0  501  502  0.00000000000E+00  0.00000000000E+00  0.16481012111E+04  0.16481012111E+04  0.00000000000E+00 0. -1.
         21   -1    0    0  502  503 -0.00000000000E+00 -0.00000000000E+00 -0.64783726340E+03  0.64783726340E+03  0.00000000000E+00 0. -1.
    9000007    1    1    2  501    0  0.28226003004E+02  0.16093796032E+03  0.15429155944E+04  0.16022753402E+04  0.40000000000E+03 0. -1.
   -9000007    1    1    2    0  503 -0.28226003004E+02 -0.16093796032E+03 -0.54265164667E+03  0.69366313435E+03  0.40000000000E+03 0. -1.
<mgrwt>
<rscale>  2 0.43208533E+03</rscale>
<asrwt>0</asrwt>
<pdfrwt beam="1">  1       21 0.25355403E+00 0.43208533E+03</pdfrwt>
<pdfrwt beam="2">  1       21 0.99667272E-01 0.43208533E+03</pdfrwt>
<totfact> 0.40804382E+01</totfact>
</mgrwt>
</event>
<event>
 4    1  0.4675559E-002  0.4777699E+03  0.7818608E-02  0.1019750E+00
         21   -1    0    0  503  502  0.00000000000E+00  0.00000000000E+00  0.16523168020E+04  0.16523168020E+04  0.00000000000E+00 0.  1.
         21   -1    0    0  501  503 -0.00000000000E+00 -0.00000000000E+00 -0.23974443056E+03  0.23974443056E+03  0.00000000000E+00 0.  1.
    9000007    1    1    2  501    0  0.18677126191E+03 -0.18270344251E+03  0.90442597797E+02  0.48625499039E+03  0.40000000000E+03 0.  1.
   -9000007    1    1    2    0  502 -0.18677126191E+03  0.18270344251E+03  0.13221297736E+04  0.14058062421E+04  0.40000000000E+03 0.  1.
<mgrwt>
<rscale>  2 0.47776987E+03</rscale>
<asrwt>0</asrwt>
<pdfrwt beam="1">  1       21 0.25420258E+00 0.47776987E+03</pdfrwt>
<pdfrwt beam="2">  1       21 0.36883760E-01 0.47776987E+03</pdfrwt>
<totfact> 0.35293728E+02</totfact>
</mgrwt>
</event>
<event>
 4    1  0.4675559E-002  0.7166766E+03  0.7818608E-02  0.9689130E-01
         21   -1    0    0  503  502  0.00000000000E+00  0.00000000000E+00  0.18518185478E+04  0.18518185478E+04  0.00000000000E+00 0.  1.
         21   -1    0    0  501  503 -0.00000000000E+00 -0.00000000000E+00 -0.39145969614E+03  0.39145969614E+03  0.00000000000E+00 0. -1.
    9000007    1    1    2  501    0  0.53459423006E+03  0.26045035561E+03  0.12463398177E+03  0.72743316391E+03  0.40000000000E+03 0. -1.
   -9000007    1    1    2    0  502 -0.53459423006E+03 -0.26045035561E+03  0.13357248699E+04  0.15158450800E+04  0.40000000000E+03 0.  1.
<mgrwt>
<rscale>  2 0.71667662E+03</rscale>
<asrwt>0</asrwt>
<pdfrwt beam="1">  1       21 0.28489516E+00 0.71667662E+03</pdfrwt>
<pdfrwt beam="2">  1       21 0.60224570E-01 0.71667662E+03</pdfrwt>
<totfact> 0.72676691E+01</totfact>
</mgrwt>
</event>
<event>
 4    1  0.4675559E-002  0.4290017E+03  0.7818608E-02  0.1034176E+00
         21   -1    0    0  501  502  0.00000000000E+00  0.00000000000E+00  0.76389714466E+03  0.76389714466E+03  0.00000000000E+00 0. -1.
         21   -1    0    0  502  503 -0.00000000000E+00 -0.00000000000E+00 -0.31554751898E+03  0.31554751898E+03  0.00000000000E+00 0. -1.
    9000007    1    1    2  501    0 -0.51567235525E+02  0.14623032502E+03  0.48663944624E+03  0.64873757281E+03  0.40000000000E+03 0. -1.
   -9000007    1    1    2    0  503  0.51567235525E+02 -0.14623032502E+03 -0.38289820567E+02  0.43070709083E+03  0.40000000000E+03 0. -1.
<mgrwt>
<rscale>  2 0.42900173E+03</rscale>
<asrwt>0</asrwt>
<pdfrwt beam="1">  1       21 0.11752264E+00 0.42900173E+03</pdfrwt>
<pdfrwt beam="2">  1       21 0.48545772E-01 0.42900173E+03</pdfrwt>
<totfact> 0.19541434E+03</totfact>
</mgrwt>
</event>
<event>
 4    1  0.4675559E-002  0.4452945E+03  0.7818608E-02  0.1029135E+00
         21   -1    0    0  503  502  0.00000000000E+00  0.00000000000E+00  0.52284218529E+03  0.52284218529E+03  0.00000000000E+00 0.  1.
         21   -1    0    0  501  503 -0.00000000000E+00 -0.00000000000E+00 -0.38271337996E+03  0.38271337996E+03  0.00000000000E+00 0.  1.
    9000007    1    1    2  501    0  0.49287362101E+02  0.18936206185E+03  0.11314463081E+03  0.45944416637E+03  0.40000000000E+03 0.  1.
   -9000007    1    1    2    0  502 -0.49287362101E+02 -0.18936206185E+03  0.26984174514E+02  0.44611139887E+03  0.40000000000E+03 0.  1.
<mgrwt>
<rscale>  2 0.44529455E+03</rscale>
<asrwt>0</asrwt>
<pdfrwt beam="1">  1       21 0.80437259E-01 0.44529455E+03</pdfrwt>
<pdfrwt beam="2">  1       21 0.58878982E-01 0.44529455E+03</pdfrwt>
<totfact> 0.32009986E+03</totfact>
</mgrwt>
</event>
<event>
 4    1  0.4675559E-002  0.5281179E+03  0.7818608E-02  0.1006690E+00
         21   -1    0    0  503  502  0.00000000000E+00  0.00000000000E+00  0.60870015389E+03  0.60870015389E+03  0.00000000000E+00 0.  1.
         21   -1    0    0  501  503 -0.00000000000E+00 -0.00000000000E+00 -0.46788500869E+03  0.46788500869E+03  0.00000000000E+00 0. -1.
    9000007    1    1    2  501    0 -0.43986261971E+02 -0.34201420448E+03 -0.70246257210E+01  0.52816460755E+03  0.40000000000E+03 0. -1.
   -9000007    1    1    2    0  502  0.43986261971E+02  0.34201420448E+03  0.14783977092E+03  0.54842055502E+03  0.40000000000E+03 0.  1.
<mgrwt>
<rscale>  2 0.52811789E+03</rscale>
<asrwt>0</asrwt>
<pdfrwt beam="1">  1       21 0.93646178E-01 0.52811789E+03</pdfrwt>
<pdfrwt beam="2">  1       21 0.71982309E-01 0.52811789E+03</pdfrwt>
<totfact> 0.13902321E+03</totfact>
</mgrwt>
</event>
<event>
 4    1  0.4675559E-002  0.4337852E+03  0.7818608E-02  0.1032671E+00
         21   -1    0    0  503  502  0.00000000000E+00  0.00000000000E+00  0.17274803113E+03  0.17274803113E+03  0.00000000000E+00 0.  1.
         21   -1    0    0  501  503 -0.00000000000E+00 -0.00000000000E+00 -0.10968339036E+04  0.10968339036E+04  0.00000000000E+00 0.  1.
    9000007    1    1    2  501    0 -0.66914163085E+02  0.15392240070E+03 -0.51475050703E+03  0.67315503054E+03  0.40000000000E+03 0.  1.
   -9000007    1    1    2    0  502  0.66914163085E+02 -0.15392240070E+03 -0.40933536549E+03  0.59642690424E+03  0.40000000000E+03 0.  1.
<mgrwt>
<rscale>  2 0.43378521E+03</rscale>
<asrwt>0</asrwt>
<pdfrwt beam="1">  1       21 0.26576620E-01 0.43378521E+03</pdfrwt>
<pdfrwt beam="2">  1       21 0.16874368E+00 0.43378521E+03</pdfrwt>
<totfact> 0.25288242E+03</totfact>
</mgrwt>
</event>
<event>
 4    1  0.4675559E-002  0.4184621E+03  0.7818608E-02  0.1037568E+00
         21   -1    0    0  501  502  0.00000000000E+00  0.00000000000E+00  0.55958735847E+03  0.55958735847E+03  0.00000000000E+00 0. -1.
         21   -1    0    0  502  503 -0.00000000000E+00 -0.00000000000E+00 -0.52120665309E+03  0.52120665309E+03  0.00000000000E+00 0. -1.
    9000007    1    1    2  501    0 -0.43789997429E+02  0.11486054935E+03  0.36080023006E+03  0.55252811302E+03  0.40000000000E+03 0. -1.
   -9000007    1    1    2    0  503  0.43789997429E+02 -0.11486054935E+03 -0.32241952467E+03  0.52826589854E+03  0.40000000000E+03 0. -1.
<mgrwt>
<rscale>  2 0.41846208E+03</rscale>
<asrwt>0</asrwt>
<pdfrwt beam="1">  1       21 0.86090363E-01 0.41846208E+03</pdfrwt>
<pdfrwt beam="2">  1       21 0.80185639E-01 0.41846208E+03</pdfrwt>
<totfact> 0.13811483E+03</totfact>
</mgrwt>
</event>
<event>
 4    1  0.4675559E-002  0.4796822E+03  0.7818608E-02  0.1019223E+00
         21   -1    0    0  501  502  0.00000000000E+00  0.00000000000E+00  0.10315774932E+04  0.10315774932E+04  0.00000000000E+00 0. -1.
         21   -1    0    0  502  503 -0.00000000000E+00 -0.00000000000E+00 -0.23872378061E+03  0.23872378061E+03  0.00000000000E+00 0. -1.
    9000007    1    1    2  501    0  0.19756832957E+03  0.17624348227E+03  0.55916659587E+03  0.73672402691E+03  0.40000000000E+03 0. -1.
   -9000007    1    1    2    0  503 -0.19756832957E+03 -0.17624348227E+03  0.23368711671E+03  0.53357724690E+03  0.40000000000E+03 0. -1.
<mgrwt>
<rscale>  2 0.47968220E+03</rscale>
<asrwt>0</asrwt>
<pdfrwt beam="1">  1       21 0.15870423E+00 0.47968220E+03</pdfrwt>
<pdfrwt beam="2">  1       21 0.36726736E-01 0.47968220E+03</pdfrwt>
<totfact> 0.15460243E+03</totfact>
</mgrwt>
</event>
<event>
 4    1  0.4675559E-002  0.4538203E+03  0.7818608E-02  0.1026589E+00
         21   -1    0    0  501  502  0.00000000000E+00  0.00000000000E+00  0.49009515694E+03  0.49009515694E+03  0.00000000000E+00 0. -1.
         21   -1    0    0  502  503 -0.00000000000E+00 -0.00000000000E+00 -0.66823406356E+03  0.66823406356E+03  0.00000000000E+00 0. -1.
    9000007    1    1    2  501    0 -0.18315508676E+03  0.11138689449E+03  0.26376165003E+03  0.52490288063E+03  0.40000000000E+03 0. -1.
   -9000007    1    1    2    0  503  0.18315508676E+03 -0.11138689449E+03 -0.44190055666E+03  0.63342633987E+03  0.40000000000E+03 0. -1.
<mgrwt>
<rscale>  2 0.45382026E+03</rscale>
<asrwt>0</asrwt>
<pdfrwt beam="1">  1       21 0.75399255E-01 0.45382026E+03</pdfrwt>
<pdfrwt beam="2">  1       21 0.10280524E+00 0.45382026E+03</pdfrwt>
<totfact> 0.10253706E+03</totfact>
</mgrwt>
</event>
<event>
 4    1  0.4675559E-002  0.4630820E+03  0.7818608E-02  0.1023891E+00
         21   -1    0    0  501  502  0.00000000000E+00  0.00000000000E+00  0.13526804745E+04  0.13526804745E+04  0.00000000000E+00 0. -1.
         21   -1    0    0  502  503 -0.00000000000E+00 -0.00000000000E+00 -0.19842172129E+03  0.19842172129E+03  0.00000000000E+00 0.  1.
    9000007    1    1    2  501    0 -0.20744995570E+03  0.10681524801E+03  0.22940198309E+03  0.51678840077E+03  0.40000000000E+03 0.  1.
   -9000007    1    1    2    0  503  0.20744995570E+03 -0.10681524801E+03  0.92485677013E+03  0.10343137950E+04  0.40000000000E+03 0. -1.
<mgrwt>
<rscale>  2 0.46308205E+03</rscale>
<asrwt>0</asrwt>
<pdfrwt beam="1">  1       21 0.20810468E+00 0.46308205E+03</pdfrwt>
<pdfrwt beam="2">  1       21 0.30526420E-01 0.46308205E+03</pdfrwt>
<totfact> 0.10170586E+03</totfact>
</mgrwt>
</event>
<event>
 4    1  0.4675559E-002  0.4165339E+03  0.7818608E-02  0.1038200E+00
         21   -1    0    0  503  502  0.00000000000E+00  0.00000000000E+00  0.65990956920E+03  0.65990956920E+03  0.00000000000E+00 0. -1.
         21   -1    0    0  501  503 -0.00000000000E+00 -0.00000000000E+00 -0.29522592926E+03  0.29522592926E+03  0.00000000000E+00 0.  1.
    9000007    1    1    2  501    0  0.39287393802E+02  0.10934814388E+03  0.24352227550E+02  0.41724518795E+03  0.40000000000E+03 0.  1.
   -9000007    1    1    2    0  502 -0.39287393802E+02 -0.10934814388E+03  0.34033141238E+03  0.53789031051E+03  0.40000000000E+03 0. -1.
<mgrwt>
<rscale>  2 0.41653393E+03</rscale>
<asrwt>0</asrwt>
<pdfrwt beam="1">  1       21 0.10152455E+00 0.41653393E+03</pdfrwt>
<pdfrwt beam="2">  1       21 0.45419374E-01 0.41653393E+03</pdfrwt>
<totfact> 0.32445348E+03</totfact>
</mgrwt>
</event>
<event>
 4    1  0.4675559E-002  0.5974419E+03  0.7818608E-02  0.9910727E-01
         21   -1    0    0  501  502  0.00000000000E+00  0.00000000000E+00  0.43138614914E+03  0.43138614914E+03  0.00000000000E+00 0.  1.
         21   -1    0    0  502  503 -0.00000000000E+00 -0.00000000000E+00 -0.15152300960E+04  0.15152300960E+04  0.00000000000E+00 0. -1.
    9000007    1    1    2  501    0  0.16904350108E+03  0.41031835182E+03  0.11383938096E+03  0.60819097310E+03  0.40000000000E+03 0.  1.
   -9000007    1    1    2    0  503 -0.16904350108E+03 -0.41031835182E+03 -0.11976833278E+04  0.13384252720E+04  0.40000000000E+03 0. -1.
<mgrwt>
<rscale>  2 0.59744193E+03</rscale>
<asrwt>0</asrwt>
<pdfrwt beam="1">  1       21 0.66367100E-01 0.59744193E+03</pdfrwt>
<pdfrwt beam="2">  1       21 0.23311232E+00 0.59744193E+03</pdfrwt>
<totfact> 0.12884492E+02</totfact>
</mgrwt>
</event>
<event>
 4    1  0.4675559E-002  0.5316450E+03  0.7818608E-02  0.1005834E+00
         21   -1    0    0  503  502  0.00000000000E+00  0.00000000000E+00  0.15169404029E+04  0.15169404029E+04  0.00000000000E+00 0. -1.
         21   -1    0    0  501  503 -0.00000000000E+00 -0.00000000000E+00 -0.19245113346E+03  0.19245113346E+03  0.00000000000E+00 0. -1.
    9000007    1    1    2  501    0 -0.92719801091E+02  0.33771207145E+03  0.50977390122E+03  0.73655674261E+03  0.40000000000E+03 0. -1.
   -9000007    1    1    2    0  502  0.92719801091E+02 -0.33771207145E+03  0.81471536818E+03  0.97283479371E+03  0.40000000000E+03 0. -1.
<mgrwt>
<rscale>  2 0.53164500E+03</rscale>
<asrwt>0</asrwt>
<pdfrwt beam="1">  1       21 0.23337544E+00 0.53164500E+03</pdfrwt>
<pdfrwt beam="2">  1       21 0.29607868E-01 0.53164500E+03</pdfrwt>
<totfact> 0.72216333E+02</totfact>
</mgrwt>
</event>
<event>
 4    1  0.4675559E-002  0.4082729E+03  0.7818608E-02  0.1040952E+00
         21   -1    0    0  503  502  0.00000000000E+00  0.00000000000E+00  0.20552045844E+03  0.20552045844E+03  0.00000000000E+00 0.  1.
         21   -1    0    0  501  503 -0.00000000000E+00 -0.00000000000E+00 -0.10645034162E+04  0.10645034162E+04  0.00000000000E+00 0.  1.
    9000007    1    1    2  501    0 -0.32522247716E+01  0.81708003122E+02 -0.73934747637E+03  0.84458360484E+03  0.40000000000E+03 0.  1.
   -9000007    1    1    2    0  502  0.32522247716E+01 -0.81708003122E+02 -0.11963548134E+03  0.42544026976E+03  0.40000000000E+03 0.  1.
<mgrwt>
<rscale>  2 0.40827292E+03</rscale>
<asrwt>0</asrwt>
<pdfrwt beam="1">  1       21 0.31618532E-01 0.40827292E+03</pdfrwt>
<pdfrwt beam="2">  1       21 0.16376976E+00 0.40827292E+03</pdfrwt>
<totfact> 0.19730859E+03</totfact>
</mgrwt>
</event>
<event>
 4    1  0.4675559E-002  0.4545554E+03  0.7818608E-02  0.1026372E+00
         21   -1    0    0  503  502  0.00000000000E+00  0.00000000000E+00  0.19508400055E+04  0.19508400055E+04  0.00000000000E+00 0.  1.
         21   -1    0    0  501  503 -0.00000000000E+00 -0.00000000000E+00 -0.68928242493E+03  0.68928242493E+03  0.00000000000E+00 0.  1.
    9000007    1    1    2  501    0  0.21186093935E+03 -0.41660322816E+02 -0.58363600056E+03  0.73976457151E+03  0.40000000000E+03 0.  1.
   -9000007    1    1    2    0  502 -0.21186093935E+03  0.41660322816E+02  0.18451935811E+04  0.19003578589E+04  0.40000000000E+03 0.  1.
<mgrwt>
<rscale>  2 0.45455543E+03</rscale>
<asrwt>0</asrwt>
<pdfrwt beam="1">  1       21 0.30012923E+00 0.45455543E+03</pdfrwt>
<pdfrwt beam="2">  1       21 0.10604345E+00 0.45455543E+03</pdfrwt>
<totfact> 0.18050157E+01</totfact>
</mgrwt>
</event>
<event>
 4    1  0.4675559E-002  0.4141001E+03  0.7818608E-02  0.1039004E+00
         21   -1    0    0  503  502  0.00000000000E+00  0.00000000000E+00  0.27563948725E+03  0.27563948725E+03  0.00000000000E+00 0.  1.
         21   -1    0    0  501  503 -0.00000000000E+00 -0.00000000000E+00 -0.17363050465E+04  0.17363050465E+04  0.00000000000E+00 0.  1.
    9000007    1    1    2  501    0 -0.75181703847E+02 -0.76331983005E+02 -0.15361806366E+04  0.15910153388E+04  0.40000000000E+03 0.  1.
   -9000007    1    1    2    0  502  0.75181703847E+02  0.76331983005E+02  0.75515077326E+02  0.42092919491E+03  0.40000000000E+03 0.  1.
<mgrwt>
<rscale>  2 0.41410006E+03</rscale>
<asrwt>0</asrwt>
<pdfrwt beam="1">  1       21 0.42406074E-01 0.41410006E+03</pdfrwt>
<pdfrwt beam="2">  1       21 0.26712386E+00 0.41410006E+03</pdfrwt>
<totfact> 0.22921957E+02</totfact>
</mgrwt>
</event>
<event>
 4    1  0.4675559E-002  0.4078376E+03  0.7818608E-02  0.1041099E+00
         21   -1    0    0  501  502  0.00000000000E+00  0.00000000000E+00  0.79328419713E+02  0.79328419713E+02  0.00000000000E+00 0.  1.
         21   -1    0    0  502  503 -0.00000000000E+00 -0.00000000000E+00 -0.28300562357E+04  0.28300562357E+04  0.00000000000E+00 0. -1.
    9000007    1    1    2  501    0 -0.79255486930E+02 -0.70752976345E+01 -0.63487647366E+03  0.75458573327E+03  0.40000000000E+03 0.  1.
   -9000007    1    1    2    0  503  0.79255486930E+02  0.70752976345E+01 -0.21158513423E+04  0.21547989222E+04  0.40000000000E+03 0. -1.
<mgrwt>
<rscale>  2 0.40783758E+03</rscale>
<asrwt>0</asrwt>
<pdfrwt beam="1">  1       21 0.12204370E-01 0.40783758E+03</pdfrwt>
<pdfrwt beam="2">  1       21 0.43539334E+00 0.40783758E+03</pdfrwt>
<totfact> 0.23160796E+02</totfact>
</mgrwt>
</event>
<event>
 4    1  0.4675559E-002  0.4159680E+03  0.7818608E-02  0.1038387E+00
         21   -1    0    0  501  502  0.00000000000E+00  0.00000000000E+00  0.26958135973E+03  0.26958135973E+03  0.00000000000E+00 0.  1.
         21   -1    0    0  502  503 -0.00000000000E+00 -0.00000000000E+00 -0.71295286473E+03  0.71295286473E+03  0.00000000000E+00 0.  1.
    9000007    1    1    2  501    0  0.30518771393E+02 -0.10999075941E+03 -0.66537436192E+02  0.42125597085E+03  0.40000000000E+03 0.  1.
   -9000007    1    1    2    0  503 -0.30518771393E+02  0.10999075941E+03 -0.37683406880E+03  0.56127825361E+03  0.40000000000E+03 0.  1.
<mgrwt>
<rscale>  2 0.41596798E+03</rscale>
<asrwt>0</asrwt>
<pdfrwt beam="1">  1       21 0.41474056E-01 0.41596798E+03</pdfrwt>
<pdfrwt beam="2">  1       21 0.10968505E+00 0.41596798E+03</pdfrwt>
<totfact> 0.32421533E+03</totfact>
</mgrwt>
</event>
<event>
 4    1  0.4675559E-002  0.4695106E+03  0.7818608E-02  0.1022058E+00
         21   -1    0    0  501  502  0.00000000000E+00  0.00000000000E+00  0.99073784798E+03  0.99073784798E+03  0.00000000000E+00 0. -1.
         21   -1    0    0  502  503 -0.00000000000E+00 -0.00000000000E+00 -0.34339826343E+03  0.34339826343E+03  0.00000000000E+00 0.  1.
    9000007    1    1    2  501    0  0.15694280009E+03 -0.18923318485E+03  0.71947288999E+03  0.85911668601E+03  0.40000000000E+03 0. -1.
   -9000007    1    1    2    0  503 -0.15694280009E+03  0.18923318485E+03 -0.72133305444E+02  0.47501942539E+03  0.40000000000E+03 0.  1.
<mgrwt>
<rscale>  2 0.46951064E+03</rscale>
<asrwt>0</asrwt>
<pdfrwt beam="1">  1       21 0.15242121E+00 0.46951064E+03</pdfrwt>
<pdfrwt beam="2">  1       21 0.52830502E-01 0.46951064E+03</pdfrwt>
<totfact> 0.81127925E+02</totfact>
</mgrwt>
</event>
<event>
 4    1  0.4675559E-002  0.5116665E+03  0.7818608E-02  0.1010778E+00
         21   -1    0    0  501  502  0.00000000000E+00  0.00000000000E+00  0.47884692493E+03  0.47884692493E+03  0.00000000000E+00 0.  1.
         21   -1    0    0  502  503 -0.00000000000E+00 -0.00000000000E+00 -0.64080605768E+03  0.64080605768E+03  0.00000000000E+00 0. -1.
    9000007    1    1    2  501    0  0.27580312110E+03 -0.16042220181E+03  0.13351527351E+03  0.52879955815E+03  0.40000000000E+03 0.  1.
   -9000007    1    1    2    0  503 -0.27580312110E+03  0.16042220181E+03 -0.29547440626E+03  0.59085342446E+03  0.40000000000E+03 0. -1.
<mgrwt>
<rscale>  2 0.51166654E+03</rscale>
<asrwt>0</asrwt>
<pdfrwt beam="1">  1       21 0.73668758E-01 0.51166654E+03</pdfrwt>
<pdfrwt beam="2">  1       21 0.98585547E-01 0.51166654E+03</pdfrwt>
<totfact> 0.11715887E+03</totfact>
</mgrwt>
</event>
<event>
 4    1  0.4675559E-002  0.4927153E+03  0.7818608E-02  0.1015698E+00
         21   -1    0    0  501  502  0.00000000000E+00  0.00000000000E+00  0.12325037251E+04  0.12325037251E+04  0.00000000000E+00 0.  1.
         21   -1    0    0  502  503 -0.00000000000E+00 -0.00000000000E+00 -0.31435542869E+03  0.31435542869E+03  0.00000000000E+00 0.  1.
    9000007    1    1    2  501    0  0.22867458866E+03 -0.17457472672E+03  0.93169640640E+03  0.10539575876E+04  0.40000000000E+03 0.  1.
   -9000007    1    1    2    0  503 -0.22867458866E+03  0.17457472672E+03 -0.13548109976E+02  0.49290156623E+03  0.40000000000E+03 0.  1.
<mgrwt>
<rscale>  2 0.49271534E+03</rscale>
<asrwt>0</asrwt>
<pdfrwt beam="1">  1       21 0.18961596E+00 0.49271534E+03</pdfrwt>
<pdfrwt beam="2">  1       21 0.48362374E-01 0.49271534E+03</pdfrwt>
<totfact> 0.51916469E+02</totfact>
</mgrwt>
</event>
<event>
 4    1  0.4675559E-002  0.4887916E+03  0.7818608E-02  0.1016747E+00
         21   -1    0    0  501  502  0.00000000000E+00  0.00000000000E+00  0.33910781389E+03  0.33910781389E+03  0.00000000000E+00 0.  1.
         21   -1    0    0  502  503 -0.00000000000E+00 -0.00000000000E+00 -0.79066035639E+03  0.79066035639E+03  0.00000000000E+00 0. -1.
    9000007    1    1    2  501    0  0.52499035973E+02  0.27597297639E+03 -0.41219983635E+03  0.63939497774E+03  0.40000000000E+03 0. -1.
   -9000007    1    1    2    0  503 -0.52499035973E+02 -0.27597297639E+03 -0.39352706153E+02  0.49037319254E+03  0.40000000000E+03 0.  1.
<mgrwt>
<rscale>  2 0.48879160E+03</rscale>
<asrwt>0</asrwt>
<pdfrwt beam="1">  1       21 0.52170433E-01 0.48879160E+03</pdfrwt>
<pdfrwt beam="2">  1       21 0.12164005E+00 0.48879160E+03</pdfrwt>
<totfact> 0.15008854E+03</totfact>
</mgrwt>
</event>
<event>
 4    1  0.4675559E-002  0.4168750E+03  0.7818608E-02  0.1038088E+00
         21   -1    0    0  503  502  0.00000000000E+00  0.00000000000E+00  0.30655590766E+03  0.30655590766E+03  0.00000000000E+00 0.  1.
         21   -1    0    0  501  503 -0.00000000000E+00 -0.00000000000E+00 -0.79535842977E+03  0.79535842977E+03  0.00000000000E+00 0.  1.
    9000007    1    1    2  501    0 -0.24887577805E+02 -0.11474037064E+03 -0.53968910462E+03  0.68194506657E+03  0.40000000000E+03 0.  1.
   -9000007    1    1    2    0  502  0.24887577805E+02  0.11474037064E+03  0.50886582502E+02  0.41996927085E+03  0.40000000000E+03 0.  1.
<mgrwt>
<rscale>  2 0.41687497E+03</rscale>
<asrwt>0</asrwt>
<pdfrwt beam="1">  1       21 0.47162448E-01 0.41687497E+03</pdfrwt>
<pdfrwt beam="2">  1       21 0.12236283E+00 0.41687497E+03</pdfrwt>
<totfact> 0.18841506E+03</totfact>
</mgrwt>
</event>
<event>
 4    1  0.4675559E-002  0.4113293E+03  0.7818608E-02  0.1039926E+00
         21   -1    0    0  503  502  0.00000000000E+00  0.00000000000E+00  0.22399446379E+03  0.22399446379E+03  0.00000000000E+00 0. -1.
         21   -1    0    0  501  503 -0.00000000000E+00 -0.00000000000E+00 -0.79195640555E+03  0.79195640555E+03  0.00000000000E+00 0. -1.
    9000007    1    1    2  501    0 -0.54954129924E+02  0.78560888471E+02 -0.39320934079E+03  0.56903897518E+03  0.40000000000E+03 0. -1.
   -9000007    1    1    2    0  502  0.54954129924E+02 -0.78560888471E+02 -0.17475260097E+03  0.44691189416E+03  0.40000000000E+03 0. -1.
<mgrwt>
<rscale>  2 0.41132927E+03</rscale>
<asrwt>0</asrwt>
<pdfrwt beam="1">  1       21 0.34460687E-01 0.41132927E+03</pdfrwt>
<pdfrwt beam="2">  1       21 0.12183945E+00 0.41132927E+03</pdfrwt>
<totfact> 0.36430036E+03</totfact>
</mgrwt>
</event>
<event>
 4    1  0.4675559E-002  0.4093438E+03  0.7818608E-02  0.1040591E+00
         21   -1    0    0  501  502  0.00000000000E+00  0.00000000000E+00  0.20677407300E+03  0.20677407300E+03  0.00000000000E+00 0. -1.
         21   -1    0    0  502  503 -0.00000000000E+00 -0.00000000000E+00 -0.10581153668E+04  0.10581153668E+04  0.00000000000E+00 0. -1.
    9000007    1    1    2  501    0  0.77456000600E+02 -0.39533233284E+02 -0.11964071563E+03  0.42646947065E+03  0.40000000000E+03 0. -1.
   -9000007    1    1    2    0  503 -0.77456000600E+02  0.39533233284E+02 -0.73170057818E+03  0.83841996915E+03  0.40000000000E+03 0. -1.
<mgrwt>
<rscale>  2 0.40934375E+03</rscale>
<asrwt>0</asrwt>
<pdfrwt beam="1">  1       21 0.31811396E-01 0.40934375E+03</pdfrwt>
<pdfrwt beam="2">  1       21 0.16278698E+00 0.40934375E+03</pdfrwt>
<totfact> 0.19814047E+03</totfact>
</mgrwt>
</event>
<event>
 4    1  0.4675559E-002  0.4831377E+03  0.7818608E-02  0.1018276E+00
         21   -1    0    0  503  502  0.00000000000E+00  0.00000000000E+00  0.76702412721E+03  0.76702412721E+03  0.00000000000E+00 0. -1.
         21   -1    0    0  501  503 -0.00000000000E+00 -0.00000000000E+00 -0.33818836759E+03  0.33818836759E+03  0.00000000000E+00 0.  1.
    9000007    1    1    2  501    0 -0.31891401026E+01 -0.27094632558E+03  0.38929086623E+03  0.62045907237E+03  0.40000000000E+03 0. -1.
   -9000007    1    1    2    0  502  0.31891401026E+01  0.27094632558E+03  0.39544893397E+02  0.48475342243E+03  0.40000000000E+03 0.  1.
<mgrwt>
<rscale>  2 0.48313775E+03</rscale>
<asrwt>0</asrwt>
<pdfrwt beam="1">  1       21 0.11800371E+00 0.48313775E+03</pdfrwt>
<pdfrwt beam="2">  1       21 0.52028980E-01 0.48313775E+03</pdfrwt>
<totfact> 0.16345141E+03</totfact>
</mgrwt>
</event>
<event>
 4    1  0.4675559E-002  0.4259099E+03  0.7818608E-02  0.1035160E+00
         21   -1    0    0  503  502  0.00000000000E+00  0.00000000000E+00  0.11729945069E+03  0.11729945069E+03  0.00000000000E+00 0. -1.
         21   -1    0    0  501  503 -0.00000000000E+00 -0.00000000000E+00 -0.16115248040E+04  0.16115248040E+04  0.00000000000E+00 0. -1.
    9000007    1    1    2  501    0  0.50557658476E+02  0.13727025856E+03 -0.92079959232E+03  0.10145299847E+04  0.40000000000E+03 0. -1.
   -9000007    1    1    2    0  502 -0.50557658476E+02 -0.13727025856E+03 -0.57342576100E+03  0.71429426996E+03  0.40000000000E+03 0. -1.
<mgrwt>
<rscale>  2 0.42590985E+03</rscale>
<asrwt>0</asrwt>
<pdfrwt beam="1">  1       21 0.18046071E-01 0.42590985E+03</pdfrwt>
<pdfrwt beam="2">  1       21 0.24792686E+00 0.42590985E+03</pdfrwt>
<totfact> 0.16030466E+03</totfact>
</mgrwt>
</event>
<event>
 4    1  0.4675559E-002  0.4839379E+03  0.7818608E-02  0.1018059E+00
         21   -1    0    0  503  502  0.00000000000E+00  0.00000000000E+00  0.20008926835E+03  0.20008926835E+03  0.00000000000E+00 0.  1.
         21   -1    0    0  501  503 -0.00000000000E+00 -0.00000000000E+00 -0.13058854716E+04  0.13058854716E+04  0.00000000000E+00 0.  1.
    9000007    1    1    2  501    0  0.21744527717E+02  0.27151985829E+03 -0.79538615681E+03  0.93103973942E+03  0.40000000000E+03 0.  1.
   -9000007    1    1    2    0  502 -0.21744527717E+02 -0.27151985829E+03 -0.31041004647E+03  0.57493500057E+03  0.40000000000E+03 0.  1.
<mgrwt>
<rscale>  2 0.48393787E+03</rscale>
<asrwt>0</asrwt>
<pdfrwt beam="1">  1       21 0.30782964E-01 0.48393787E+03</pdfrwt>
<pdfrwt beam="2">  1       21 0.20090546E+00 0.48393787E+03</pdfrwt>
<totfact> 0.11058693E+03</totfact>
</mgrwt>
</event>
<event>
 4    1  0.4675559E-002  0.5650497E+03  0.7818608E-02  0.9980693E-01
         21   -1    0    0  503  502  0.00000000000E+00  0.00000000000E+00  0.18686946220E+04  0.18686946220E+04  0.00000000000E+00 0.  1.
         21   -1    0    0  501  503 -0.00000000000E+00 -0.00000000000E+00 -0.22151874856E+03  0.22151874856E+03  0.00000000000E+00 0. -1.
    9000007    1    1    2  501    0 -0.25682754174E+03 -0.30548442361E+03  0.32379296165E+03  0.65124726585E+03  0.40000000000E+03 0. -1.
   -9000007    1    1    2    0  502  0.25682754174E+03  0.30548442361E+03  0.13233829118E+04  0.14389661047E+04  0.40000000000E+03 0.  1.
<mgrwt>
<rscale>  2 0.56504966E+03</rscale>
<asrwt>0</asrwt>
<pdfrwt beam="1">  1       21 0.28749147E+00 0.56504966E+03</pdfrwt>
<pdfrwt beam="2">  1       21 0.34079809E-01 0.56504966E+03</pdfrwt>
<totfact> 0.24898764E+02</totfact>
</mgrwt>
</event>
<event>
 4    1  0.4675559E-002  0.4220883E+03  0.7818608E-02  0.1036389E+00
         21   -1    0    0  501  502  0.00000000000E+00  0.00000000000E+00  0.38758385136E+03  0.38758385136E+03  0.00000000000E+00 0. -1.
         21   -1    0    0  502  503 -0.00000000000E+00 -0.00000000000E+00 -0.50373622104E+03  0.50373622104E+03  0.00000000000E+00 0. -1.
    9000007    1    1    2  501    0 -0.52111185014E+02  0.12426977019E+03  0.73744003165E+02  0.42848188922E+03  0.40000000000E+03 0. -1.
   -9000007    1    1    2    0  503  0.52111185014E+02 -0.12426977019E+03 -0.18989637284E+03  0.46283818318E+03  0.40000000000E+03 0. -1.
<mgrwt>
<rscale>  2 0.42208832E+03</rscale>
<asrwt>0</asrwt>
<pdfrwt beam="1">  1       21 0.59628285E-01 0.42208832E+03</pdfrwt>
<pdfrwt beam="2">  1       21 0.77497880E-01 0.42208832E+03</pdfrwt>
<totfact> 0.34209496E+03</totfact>
</mgrwt>
</event>
<event>
 4    1  0.4675559E-002  0.4838780E+03  0.7818608E-02  0.1018075E+00
         21   -1    0    0  503  502  0.00000000000E+00  0.00000000000E+00  0.10941244309E+04  0.10941244309E+04  0.00000000000E+00 0.  1.
         21   -1    0    0  501  503 -0.00000000000E+00 -0.00000000000E+00 -0.27344555539E+03  0.27344555539E+03  0.00000000000E+00 0.  1.
    9000007    1    1    2  501    0 -0.25988864784E+03 -0.81214532369E+02  0.91509144472E+02  0.49245490460E+03  0.40000000000E+03 0.  1.
   -9000007    1    1    2    0  502  0.25988864784E+03  0.81214532369E+02  0.72916973105E+03  0.87511508171E+03  0.40000000000E+03 0.  1.
<mgrwt>
<rscale>  2 0.48387799E+03</rscale>
<asrwt>0</asrwt>
<pdfrwt beam="1">  1       21 0.16832683E+00 0.48387799E+03</pdfrwt>
<pdfrwt beam="2">  1       21 0.42068548E-01 0.48387799E+03</pdfrwt>
<totfact> 0.98891083E+02</totfact>
</mgrwt>
</event>
<event>
 4    1  0.4675559E-002  0.4145185E+03  0.7818608E-02  0.1038865E+00
         21   -1    0    0  501  502  0.00000000000E+00  0.00000000000E+00  0.55010661071E+03  0.55010661071E+03  0.00000000000E+00 0.  1.
         21   -1    0    0  502  503 -0.00000000000E+00 -0.00000000000E+00 -0.32785822280E+03  0.32785822280E+03  0.00000000000E+00 0.  1.
    9000007    1    1    2  501    0  0.26211092208E+02  0.10553959807E+03  0.20659915110E+03  0.46315098764E+03  0.40000000000E+03 0.  1.
   -9000007    1    1    2    0  503 -0.26211092208E+02 -0.10553959807E+03  0.15649236803E+02  0.41481384587E+03  0.40000000000E+03 0.  1.
<mgrwt>
<rscale>  2 0.41451855E+03</rscale>
<asrwt>0</asrwt>
<pdfrwt beam="1">  1       21 0.84631786E-01 0.41451855E+03</pdfrwt>
<pdfrwt beam="2">  1       21 0.50439727E-01 0.41451855E+03</pdfrwt>
<totfact> 0.40138807E+03</totfact>
</mgrwt>
</event>
<event>
 4    1  0.4675559E-002  0.5807019E+03  0.7818608E-02  0.9946273E-01
         21   -1    0    0  501  502  0.00000000000E+00  0.00000000000E+00  0.21263920838E+03  0.21263920838E+03  0.00000000000E+00 0. -1.
         21   -1    0    0  502  503 -0.00000000000E+00 -0.00000000000E+00 -0.18183919146E+04  0.18183919146E+04  0.00000000000E+00 0.  1.
    9000007    1    1    2  501    0 -0.39069460203E+03  0.15675591759E+03 -0.43972309854E+03  0.72840311171E+03  0.40000000000E+03 0.  1.
   -9000007    1    1    2    0  503  0.39069460203E+03 -0.15675591759E+03 -0.11660296077E+04  0.13026280113E+04  0.40000000000E+03 0. -1.
<mgrwt>
<rscale>  2 0.58070189E+03</rscale>
<asrwt>0</asrwt>
<pdfrwt beam="1">  1       21 0.32713725E-01 0.58070189E+03</pdfrwt>
<pdfrwt beam="2">  1       21 0.27975259E+00 0.58070189E+03</pdfrwt>
<totfact> 0.29932281E+02</totfact>
</mgrwt>
</event>
<event>
 4    1  0.4675559E-002  0.5387337E+03  0.7818608E-02  0.1004136E+00
         21   -1    0    0  501  502  0.00000000000E+00  0.00000000000E+00  0.49315004686E+03  0.49315004686E+03  0.00000000000E+00 0.  1.
         21   -1    0    0  502  503 -0.00000000000E+00 -0.00000000000E+00 -0.66345799855E+03  0.66345799855E+03  0.00000000000E+00 0. -1.
    9000007    1    1    2  501    0  0.27305513703E+03  0.23595526509E+03 -0.27949711966E+03  0.60692061662E+03  0.40000000000E+03 0. -1.
   -9000007    1    1    2    0  503 -0.27305513703E+03 -0.23595526509E+03  0.10918916797E+03  0.54968742880E+03  0.40000000000E+03 0.  1.
<mgrwt>
<rscale>  2 0.53873370E+03</rscale>
<asrwt>0</asrwt>
<pdfrwt beam="1">  1       21 0.75869239E-01 0.53873370E+03</pdfrwt>
<pdfrwt beam="2">  1       21 0.10207046E+00 0.53873370E+03</pdfrwt>
<totfact> 0.99683008E+02</totfact>
</mgrwt>
</event>
<event>
 4    1  0.4675559E-002  0.4275795E+03  0.7818608E-02  0.1034627E+00
         21   -1    0    0  503  502  0.00000000000E+00  0.00000000000E+00  0.64115221699E+03  0.64115221699E+03  0.00000000000E+00 0. -1.
         21   -1    0    0  501  503 -0.00000000000E+00 -0.00000000000E+00 -0.34020396788E+03  0.34020396788E+03  0.00000000000E+00 0. -1.
    9000007    1    1    2  501    0  0.14557242677E+03 -0.40409022232E+02  0.34786330742E+03  0.55121057788E+03  0.40000000000E+03 0. -1.
   -9000007    1    1    2    0  502 -0.14557242677E+03  0.40409022232E+02 -0.46915058317E+02  0.43014560699E+03  0.40000000000E+03 0. -1.
<mgrwt>
<rscale>  2 0.42757949E+03</rscale>
<asrwt>0</asrwt>
<pdfrwt beam="1">  1       21 0.98638802E-01 0.42757949E+03</pdfrwt>
<pdfrwt beam="2">  1       21 0.52339072E-01 0.42757949E+03</pdfrwt>
<totfact> 0.25666947E+03</totfact>
</mgrwt>
</event>
<event>
 4    1  0.4675559E-002  0.4234589E+03  0.7818608E-02  0.1035946E+00
         21   -1    0    0  501  502  0.00000000000E+00  0.00000000000E+00  0.36917107913E+03  0.36917107913E+03  0.00000000000E+00 0. -1.
         21   -1    0    0  502  503 -0.00000000000E+00 -0.00000000000E+00 -0.53771722989E+03  0.53771722989E+03  0.00000000000E+00 0. -1.
    9000007    1    1    2  501    0 -0.65631853282E+02 -0.12251499719E+03  0.56719164520E+02  0.42724059770E+03  0.40000000000E+03 0. -1.
   -9000007    1    1    2    0  503  0.65631853282E+02  0.12251499719E+03 -0.22526531528E+03  0.47964771132E+03  0.40000000000E+03 0. -1.
<mgrwt>
<rscale>  2 0.42345893E+03</rscale>
<asrwt>0</asrwt>
<pdfrwt beam="1">  1       21 0.56795551E-01 0.42345893E+03</pdfrwt>
<pdfrwt beam="2">  1       21 0.82725727E-01 0.42345893E+03</pdfrwt>
<totfact> 0.32699460E+03</totfact>
</mgrwt>
</event>
<event>
 4    1  0.4675559E-002  0.4655841E+03  0.7818608E-02  0.1023174E+00
         21   -1    0    0  501  502  0.00000000000E+00  0.00000000000E+00  0.94066895693E+03  0.94066895693E+03  0.00000000000E+00 0.  1.
         21   -1    0    0  502  503 -0.00000000000E+00 -0.00000000000E+00 -0.33840985629E+03  0.33840985629E+03  0.00000000000E+00 0.  1.
    9000007    1    1    2  501    0  0.14406917259E+03 -0.18976985289E+03  0.66236921055E+03  0.80963046796E+03  0.40000000000E+03 0.  1.
   -9000007    1    1    2    0  503 -0.14406917259E+03  0.18976985289E+03 -0.60110109917E+02  0.46944834526E+03  0.40000000000E+03 0.  1.
<mgrwt>
<rscale>  2 0.46558407E+03</rscale>
<asrwt>0</asrwt>
<pdfrwt beam="1">  1       21 0.14471830E+00 0.46558407E+03</pdfrwt>
<pdfrwt beam="2">  1       21 0.52063055E-01 0.46558407E+03</pdfrwt>
<totfact> 0.96509023E+02</totfact>
</mgrwt>
</event>
<event>
 4    1  0.4675559E-002  0.5170824E+03  0.7818608E-02  0.1009414E+00
         21   -1    0    0  503  502  0.00000000000E+00  0.00000000000E+00  0.79187769276E+03  0.79187769276E+03  0.00000000000E+00 0. -1.
         21   -1    0    0  501  503 -0.00000000000E+00 -0.00000000000E+00 -0.34145112622E+03  0.34145112622E+03  0.00000000000E+00 0. -1.
    9000007    1    1    2  501    0  0.28526166132E+03  0.16124511767E+03  0.16539200170E+03  0.54288923144E+03  0.40000000000E+03 0. -1.
   -9000007    1    1    2    0  502 -0.28526166132E+03 -0.16124511767E+03  0.28503456484E+03  0.59043958755E+03  0.40000000000E+03 0. -1.
<mgrwt>
<rscale>  2 0.51708240E+03</rscale>
<asrwt>0</asrwt>
<pdfrwt beam="1">  1       21 0.12182734E+00 0.51708240E+03</pdfrwt>
<pdfrwt beam="2">  1       21 0.52530943E-01 0.51708240E+03</pdfrwt>
<totfact> 0.14584689E+03</totfact>
</mgrwt>
</event>
<event>
 4    1  0.4675559E-002  0.4798303E+03  0.7818608E-02  0.1019182E+00
         21   -1    0    0  503  502  0.00000000000E+00  0.00000000000E+00  0.80281499423E+03  0.80281499423E+03  0.00000000000E+00 0.  1.
         21   -1    0    0  501  503 -0.00000000000E+00 -0.00000000000E+00 -0.49960874535E+03  0.49960874535E+03  0.00000000000E+00 0. -1.
    9000007    1    1    2  501    0 -0.11017652224E+03  0.24103574754E+03 -0.27342243323E+03  0.55226526655E+03  0.40000000000E+03 0. -1.
   -9000007    1    1    2    0  502  0.11017652224E+03 -0.24103574754E+03  0.57662868210E+03  0.75015847304E+03  0.40000000000E+03 0.  1.
<mgrwt>
<rscale>  2 0.47983028E+03</rscale>
<asrwt>0</asrwt>
<pdfrwt beam="1">  1       21 0.12351000E+00 0.47983028E+03</pdfrwt>
<pdfrwt beam="2">  1       21 0.76862884E-01 0.47983028E+03</pdfrwt>
<totfact> 0.61342098E+02</totfact>
</mgrwt>
</event>
<event>
 4    1  0.4675559E-002  0.4340719E+03  0.7818608E-02  0.1032581E+00
         21   -1    0    0  503  502  0.00000000000E+00  0.00000000000E+00  0.68758150513E+03  0.68758150513E+03  0.00000000000E+00 0. -1.
         21   -1    0    0  501  503 -0.00000000000E+00 -0.00000000000E+00 -0.32024023162E+03  0.32024023162E+03  0.00000000000E+00 0. -1.
    9000007    1    1    2  501    0  0.51143669796E+02  0.16063219910E+03 -0.77470185795E+01  0.43414098476E+03  0.40000000000E+03 0. -1.
   -9000007    1    1    2    0  502 -0.51143669796E+02 -0.16063219910E+03  0.37508829208E+03  0.57368075199E+03  0.40000000000E+03 0. -1.
<mgrwt>
<rscale>  2 0.43407186E+03</rscale>
<asrwt>0</asrwt>
<pdfrwt beam="1">  1       21 0.10578177E+00 0.43407186E+03</pdfrwt>
<pdfrwt beam="2">  1       21 0.49267728E-01 0.43407186E+03</pdfrwt>
<totfact> 0.24551875E+03</totfact>
</mgrwt>
</event>
<event>
 4    1  0.4675559E-002  0.4372543E+03  0.7818608E-02  0.1031593E+00
         21   -1    0    0  501  502  0.00000000000E+00  0.00000000000E+00  0.10329447676E+04  0.10329447676E+04  0.00000000000E+00 0. -1.
         21   -1    0    0  502  503 -0.00000000000E+00 -0.00000000000E+00 -0.38635073781E+03  0.38635073781E+03  0.00000000000E+00 0. -1.
    9000007    1    1    2  501    0  0.44875903100E+02 -0.17081403687E+03  0.83548312505E+03  0.94298639127E+03  0.40000000000E+03 0. -1.
   -9000007    1    1    2    0  503 -0.44875903100E+02  0.17081403687E+03 -0.18888909529E+03  0.47630911412E+03  0.40000000000E+03 0. -1.
<mgrwt>
<rscale>  2 0.43725425E+03</rscale>
<asrwt>0</asrwt>
<pdfrwt beam="1">  1       21 0.15891458E+00 0.43725425E+03</pdfrwt>
<pdfrwt beam="2">  1       21 0.59438575E-01 0.43725425E+03</pdfrwt>
<totfact> 0.56839549E+02</totfact>
</mgrwt>
</event>
<event>
 4    1  0.4675559E-002  0.4430868E+03  0.7818608E-02  0.1029804E+00
         21   -1    0    0  503  502  0.00000000000E+00  0.00000000000E+00  0.47732174028E+03  0.47732174028E+03  0.00000000000E+00 0.  1.
         21   -1    0    0  501  503 -0.00000000000E+00 -0.00000000000E+00 -0.41136257429E+03  0.41136257429E+03  0.00000000000E+00 0.  1.
    9000007    1    1    2  501    0 -0.75959802063E+02 -0.17480290158E+03  0.27831777647E+02  0.44396008129E+03  0.40000000000E+03 0. -1.
   -9000007    1    1    2    0  502  0.75959802063E+02  0.17480290158E+03  0.38127388346E+02  0.44472423329E+03  0.40000000000E+03 0. -1.
<mgrwt>
<rscale>  2 0.44308684E+03</rscale>
<asrwt>0</asrwt>
<pdfrwt beam="1">  1       21 0.73434114E-01 0.44308684E+03</pdfrwt>
<pdfrwt beam="2">  1       21 0.63286550E-01 0.44308684E+03</pdfrwt>
<totfact> 0.33679923E+03</totfact>
</mgrwt>
</event>
<event>
 4    1  0.4675559E-002  0.4713062E+03  0.7818608E-02  0.1021552E+00
         21   -1    0    0  503  502  0.00000000000E+00  0.00000000000E+00  0.12560566635E+03  0.12560566635E+03  0.00000000000E+00 0.  1.
         21   -1    0    0  501  503 -0.00000000000E+00 -0.00000000000E+00 -0.24731439343E+04  0.24731439343E+04  0.00000000000E+00 0. -1.
    9000007    1    1    2  501    0  0.24149959343E+03 -0.61705084174E+02 -0.18673618737E+04  0.19259205431E+04  0.40000000000E+03 0. -1.
   -9000007    1    1    2    0  502 -0.24149959343E+03  0.61705084174E+02 -0.48017639419E+03  0.67282905747E+03  0.40000000000E+03 0.  1.
<mgrwt>
<rscale>  2 0.47130624E+03</rscale>
<asrwt>0</asrwt>
<pdfrwt beam="1">  1       21 0.19323949E-01 0.47130624E+03</pdfrwt>
<pdfrwt beam="2">  1       21 0.38048367E+00 0.47130624E+03</pdfrwt>
<totfact> 0.21385934E+02</totfact>
</mgrwt>
</event>
<event>
 4    1  0.4675559E-002  0.4171574E+03  0.7818608E-02  0.1037995E+00
         21   -1    0    0  503  502  0.00000000000E+00  0.00000000000E+00  0.25867582298E+03  0.25867582298E+03  0.00000000000E+00 0.  1.
         21   -1    0    0  501  503 -0.00000000000E+00 -0.00000000000E+00 -0.74404447241E+03  0.74404447241E+03  0.00000000000E+00 0.  1.
    9000007    1    1    2  501    0  0.23799484726E+02 -0.11599100683E+03 -0.39789564487E+03  0.57649047984E+03  0.40000000000E+03 0.  1.
   -9000007    1    1    2    0  502 -0.23799484726E+02  0.11599100683E+03 -0.87473004566E+02  0.42622981555E+03  0.40000000000E+03 0.  1.
<mgrwt>
<rscale>  2 0.41715744E+03</rscale>
<asrwt>0</asrwt>
<pdfrwt beam="1">  1       21 0.39796281E-01 0.41715744E+03</pdfrwt>
<pdfrwt beam="2">  1       21 0.11446838E+00 0.41715744E+03</pdfrwt>
<totfact> 0.31736605E+03</totfact>
</mgrwt>
</event>
<event>
 4    1  0.4675559E-002  0.4010388E+03  0.7818608E-02  0.1043421E+00
         21   -1    0    0  501  502  0.00000000000E+00  0.00000000000E+00  0.63996708639E+03  0.63996708639E+03  0.00000000000E+00 0. -1.
         21   -1    0    0  502  503 -0.00000000000E+00 -0.00000000000E+00 -0.83494165549E+03  0.83494165549E+03  0.00000000000E+00 0. -1.
    9000007    1    1    2  501    0 -0.26625983426E+02 -0.11098818676E+02  0.51907271789E+03  0.65594863612E+03  0.40000000000E+03 0. -1.
   -9000007    1    1    2    0  503  0.26625983426E+02  0.11098818676E+02 -0.71404728700E+03  0.81896010577E+03  0.40000000000E+03 0. -1.
<mgrwt>
<rscale>  2 0.40103881E+03</rscale>
<asrwt>0</asrwt>
<pdfrwt beam="1">  1       21 0.98456475E-01 0.40103881E+03</pdfrwt>
<pdfrwt beam="2">  1       21 0.12845256E+00 0.40103881E+03</pdfrwt>
<totfact> 0.32164858E+02</totfact>
</mgrwt>
</event>
<event>
 4    1  0.4675559E-002  0.4157518E+03  0.7818608E-02  0.1038458E+00
         21   -1    0    0  503  502  0.00000000000E+00  0.00000000000E+00  0.29544951115E+03  0.29544951115E+03  0.00000000000E+00 0.  1.
         21   -1    0    0  501  503 -0.00000000000E+00 -0.00000000000E+00 -0.60584576388E+03  0.60584576388E+03  0.00000000000E+00 0.  1.
    9000007    1    1    2  501    0 -0.82441074821E+02 -0.77801042701E+02 -0.71684625942E+02  0.42188649974E+03  0.40000000000E+03 0.  1.
   -9000007    1    1    2    0  502  0.82441074821E+02  0.77801042701E+02 -0.23871162679E+03  0.47940877529E+03  0.40000000000E+03 0.  1.
<mgrwt>
<rscale>  2 0.41575177E+03</rscale>
<asrwt>0</asrwt>
<pdfrwt beam="1">  1       21 0.45453771E-01 0.41575177E+03</pdfrwt>
<pdfrwt beam="2">  1       21 0.93207040E-01 0.41575177E+03</pdfrwt>
<totfact> 0.39805769E+03</totfact>
</mgrwt>
</event>
<event>
 4    1  0.4675559E-002  0.4134689E+03  0.7818608E-02  0.1039213E+00
         21   -1    0    0  503  502  0.00000000000E+00  0.00000000000E+00  0.36557589792E+03  0.36557589792E+03  0.00000000000E+00 0.  1.
         21   -1    0    0  501  503 -0.00000000000E+00 -0.00000000000E+00 -0.10242625704E+04  0.10242625704E+04  0.00000000000E+00 0.  1.
    9000007    1    1    2  501    0 -0.92372129857E+02 -0.49232913381E+02 -0.84162711646E+03  0.93770608044E+03  0.40000000000E+03 0.  1.
   -9000007    1    1    2    0  502  0.92372129857E+02  0.49232913381E+02  0.18294044398E+03  0.45213238789E+03  0.40000000000E+03 0.  1.
<mgrwt>
<rscale>  2 0.41346885E+03</rscale>
<asrwt>0</asrwt>
<pdfrwt beam="1">  1       21 0.56242446E-01 0.41346885E+03</pdfrwt>
<pdfrwt beam="2">  1       21 0.15757886E+00 0.41346885E+03</pdfrwt>
<totfact> 0.66373230E+02</totfact>
</mgrwt>
</event>
<event>
 4    1  0.4675559E-002  0.4946163E+03  0.7818608E-02  0.1015194E+00
         21   -1    0    0  503  502  0.00000000000E+00  0.00000000000E+00  0.68747874952E+03  0.68747874952E+03  0.00000000000E+00 0.  1.
         21   -1    0    0  501  503 -0.00000000000E+00 -0.00000000000E+00 -0.16512137855E+04  0.16512137855E+04  0.00000000000E+00 0. -1.
    9000007    1    1    2  501    0 -0.27132179510E+03 -0.10502246828E+03 -0.15175721354E+04  0.15961423563E+04  0.40000000000E+03 0. -1.
   -9000007    1    1    2    0  502  0.27132179510E+03  0.10502246828E+03  0.55383709940E+03  0.74255017878E+03  0.40000000000E+03 0.  1.
<mgrwt>
<rscale>  2 0.49461625E+03</rscale>
<asrwt>0</asrwt>
<pdfrwt beam="1">  1       21 0.10576596E+00 0.49461625E+03</pdfrwt>
<pdfrwt beam="2">  1       21 0.25403289E+00 0.49461625E+03</pdfrwt>
<totfact> 0.33642742E+01</totfact>
</mgrwt>
</event>
<event>
 4    1  0.4675559E-002  0.4173681E+03  0.7818608E-02  0.1037926E+00
         21   -1    0    0  503  502  0.00000000000E+00  0.00000000000E+00  0.12106651770E+04  0.12106651770E+04  0.00000000000E+00 0. -1.
         21   -1    0    0  501  503 -0.00000000000E+00 -0.00000000000E+00 -0.18209819465E+03  0.18209819465E+03  0.00000000000E+00 0. -1.
    9000007    1    1    2  501    0  0.96090253195E+01  0.11875951550E+03  0.19527438058E+03  0.46079088489E+03  0.40000000000E+03 0. -1.
   -9000007    1    1    2    0  502 -0.96090253195E+01 -0.11875951550E+03  0.83329260176E+03  0.93197248674E+03  0.40000000000E+03 0. -1.
<mgrwt>
<rscale>  2 0.41736813E+03</rscale>
<asrwt>0</asrwt>
<pdfrwt beam="1">  1       21 0.18625618E+00 0.41736813E+03</pdfrwt>
<pdfrwt beam="2">  1       21 0.28015108E-01 0.41736813E+03</pdfrwt>
<totfact> 0.17253245E+03</totfact>
</mgrwt>
</event>
<event>
 4    1  0.4675559E-002  0.4790337E+03  0.7818608E-02  0.1019401E+00
         21   -1    0    0  501  502  0.00000000000E+00  0.00000000000E+00  0.67612970937E+03  0.67612970937E+03  0.00000000000E+00 0. -1.
         21   -1    0    0  502  503 -0.00000000000E+00 -0.00000000000E+00 -0.34444695648E+03  0.34444695648E+03  0.00000000000E+00 0. -1.
    9000007    1    1    2  501    0 -0.87396133574E+02  0.24866688650E+03  0.22765649829E+03  0.53037796506E+03  0.40000000000E+03 0. -1.
   -9000007    1    1    2    0  503  0.87396133574E+02 -0.24866688650E+03  0.10402625460E+03  0.49019870079E+03  0.40000000000E+03 0. -1.
<mgrwt>
<rscale>  2 0.47903372E+03</rscale>
<asrwt>0</asrwt>
<pdfrwt beam="1">  1       21 0.10401995E+00 0.47903372E+03</pdfrwt>
<pdfrwt beam="2">  1       21 0.52991840E-01 0.47903372E+03</pdfrwt>
<totfact> 0.21542759E+03</totfact>
</mgrwt>
</event>
<event>
 4    1  0.4675559E-002  0.4427983E+03  0.7818608E-02  0.1029892E+00
         21   -1    0    0  503  502  0.00000000000E+00  0.00000000000E+00  0.79005372071E+03  0.79005372071E+03  0.00000000000E+00 0. -1.
         21   -1    0    0  501  503 -0.00000000000E+00 -0.00000000000E+00 -0.34329484711E+03  0.34329484711E+03  0.00000000000E+00 0. -1.
    9000007    1    1    2  501    0  0.16568522219E+03 -0.92837354696E+02 -0.74910734999E+02  0.44909017524E+03  0.40000000000E+03 0. -1.
   -9000007    1    1    2    0  502 -0.16568522219E+03  0.92837354696E+02  0.52166960860E+03  0.68425839258E+03  0.40000000000E+03 0. -1.
<mgrwt>
<rscale>  2 0.44279834E+03</rscale>
<asrwt>0</asrwt>
<pdfrwt beam="1">  1       21 0.12154673E+00 0.44279834E+03</pdfrwt>
<pdfrwt beam="2">  1       21 0.52814592E-01 0.44279834E+03</pdfrwt>
<totfact> 0.14910107E+03</totfact>
</mgrwt>
</event>
<event>
 4    1  0.4675559E-002  0.5966851E+03  0.7818608E-02  0.9912307E-01
         21   -1    0    0  503  502  0.00000000000E+00  0.00000000000E+00  0.71350887618E+03  0.71350887618E+03  0.00000000000E+00 0. -1.
         21   -1    0    0  501  503 -0.00000000000E+00 -0.00000000000E+00 -0.94991743717E+03  0.94991743717E+03  0.00000000000E+00 0.  1.
    9000007    1    1    2  501    0 -0.26221287122E+03 -0.35675977256E+03 -0.69124360171E+03  0.91315433639E+03  0.40000000000E+03 0.  1.
   -9000007    1    1    2    0  502  0.26221287122E+03  0.35675977256E+03  0.45483504072E+03  0.75027197696E+03  0.40000000000E+03 0. -1.
<mgrwt>
<rscale>  2 0.59668511E+03</rscale>
<asrwt>0</asrwt>
<pdfrwt beam="1">  1       21 0.10977060E+00 0.59668511E+03</pdfrwt>
<pdfrwt beam="2">  1       21 0.14614114E+00 0.59668511E+03</pdfrwt>
<totfact> 0.16001018E+02</totfact>
</mgrwt>
</event>
<event>
 4    1  0.4675559E-002  0.4201412E+03  0.7818608E-02  0.1037020E+00
         21   -1    0    0  501  502  0.00000000000E+00  0.00000000000E+00  0.62953981140E+03  0.62953981140E+03  0.00000000000E+00 0.  1.
         21   -1    0    0  502  503 -0.00000000000E+00 -0.00000000000E+00 -0.43058175605E+03  0.43058175605E+03  0.00000000000E+00 0.  1.
    9000007    1    1    2  501    0  0.11215280056E+03 -0.62772113777E+02  0.41253103818E+03  0.58881274307E+03  0.40000000000E+03 0.  1.
   -9000007    1    1    2    0  503 -0.11215280056E+03  0.62772113777E+02 -0.21357298283E+03  0.47130882438E+03  0.40000000000E+03 0.  1.
<mgrwt>
<rscale>  2 0.42014115E+03</rscale>
<asrwt>0</asrwt>
<pdfrwt beam="1">  1       21 0.96852279E-01 0.42014115E+03</pdfrwt>
<pdfrwt beam="2">  1       21 0.66243347E-01 0.42014115E+03</pdfrwt>
<totfact> 0.16089409E+03</totfact>
</mgrwt>
</event>
<event>
 4    1  0.4675559E-002  0.4449740E+03  0.7818608E-02  0.1029232E+00
         21   -1    0    0  503  502  0.00000000000E+00  0.00000000000E+00  0.24382476782E+04  0.24382476782E+04  0.00000000000E+00 0. -1.
         21   -1    0    0  501  503 -0.00000000000E+00 -0.00000000000E+00 -0.25887369620E+03  0.25887369620E+03  0.00000000000E+00 0. -1.
    9000007    1    1    2  501    0 -0.16589684220E+03  0.10237227320E+03 -0.27510661731E+02  0.44582359861E+03  0.40000000000E+03 0. -1.
   -9000007    1    1    2    0  502  0.16589684220E+03 -0.10237227320E+03  0.22068846438E+04  0.22512977758E+04  0.40000000000E+03 0. -1.
<mgrwt>
<rscale>  2 0.44497398E+03</rscale>
<asrwt>0</asrwt>
<pdfrwt beam="1">  1       21 0.37511501E+00 0.44497398E+03</pdfrwt>
<pdfrwt beam="2">  1       21 0.39826724E-01 0.44497398E+03</pdfrwt>
<totfact> 0.56516558E+01</totfact>
</mgrwt>
</event>
<event>
 4    1  0.4675559E-002  0.4133334E+03  0.7818608E-02  0.1039258E+00
         21   -1    0    0  503  502  0.00000000000E+00  0.00000000000E+00  0.20123977205E+04  0.20123977205E+04  0.00000000000E+00 0. -1.
         21   -1    0    0  501  503 -0.00000000000E+00 -0.00000000000E+00 -0.32894423110E+03  0.32894423110E+03  0.00000000000E+00 0. -1.
    9000007    1    1    2  501    0 -0.95993339939E+02  0.40370607631E+02 -0.16662383033E+03  0.44565458385E+03  0.40000000000E+03 0. -1.
   -9000007    1    1    2    0  502  0.95993339939E+02 -0.40370607631E+02  0.18500773197E+04  0.18956873677E+04  0.40000000000E+03 0. -1.
<mgrwt>
<rscale>  2 0.41333341E+03</rscale>
<asrwt>0</asrwt>
<pdfrwt beam="1">  1       21 0.30959964E+00 0.41333341E+03</pdfrwt>
<pdfrwt beam="2">  1       21 0.50606806E-01 0.41333341E+03</pdfrwt>
<totfact> 0.87965601E+01</totfact>
</mgrwt>
</event>
<event>
 4    1  0.4675559E-002  0.4842925E+03  0.7818608E-02  0.1017962E+00
         21   -1    0    0  501  502  0.00000000000E+00  0.00000000000E+00  0.45789149573E+03  0.45789149573E+03  0.00000000000E+00 0.  1.
         21   -1    0    0  502  503 -0.00000000000E+00 -0.00000000000E+00 -0.55321641086E+03  0.55321641086E+03  0.00000000000E+00 0.  1.
    9000007    1    1    2  501    0  0.16626713977E+03 -0.21655122887E+03  0.89968416423E+02  0.49257843279E+03  0.40000000000E+03 0.  1.
   -9000007    1    1    2    0  503 -0.16626713977E+03  0.21655122887E+03 -0.18529333155E+03  0.51852947381E+03  0.40000000000E+03 0.  1.
<mgrwt>
<rscale>  2 0.48429247E+03</rscale>
<asrwt>0</asrwt>
<pdfrwt beam="1">  1       21 0.70444846E-01 0.48429247E+03</pdfrwt>
<pdfrwt beam="2">  1       21 0.85110217E-01 0.48429247E+03</pdfrwt>
<totfact> 0.18587637E+03</totfact>
</mgrwt>
</event>
<event>
 4    1  0.4675559E-002  0.4829770E+03  0.7818608E-02  0.1018320E+00
         21   -1    0    0  501  502  0.00000000000E+00  0.00000000000E+00  0.47886978311E+03  0.47886978311E+03  0.00000000000E+00 0. -1.
         21   -1    0    0  502  503 -0.00000000000E+00 -0.00000000000E+00 -0.54432709793E+03  0.54432709793E+03  0.00000000000E+00 0.  1.
    9000007    1    1    2  501    0  0.25628857172E+03  0.87080077294E+02  0.13312550969E+03  0.50098819665E+03  0.40000000000E+03 0. -1.
   -9000007    1    1    2    0  503 -0.25628857172E+03 -0.87080077294E+02 -0.19858282451E+03  0.52220868439E+03  0.40000000000E+03 0.  1.
<mgrwt>
<rscale>  2 0.48297699E+03</rscale>
<asrwt>0</asrwt>
<pdfrwt beam="1">  1       21 0.73672274E-01 0.48297699E+03</pdfrwt>
<pdfrwt beam="2">  1       21 0.83742631E-01 0.48297699E+03</pdfrwt>
<totfact> 0.17449246E+03</totfact>
</mgrwt>
</event>
<event>
 4    1  0.4675559E-002  0.4269410E+03  0.7818608E-02  0.1034831E+00
         21   -1    0    0  501  502  0.00000000000E+00  0.00000000000E+00  0.34851064267E+03  0.34851064267E+03  0.00000000000E+00 0. -1.
         21   -1    0    0  502  503 -0.00000000000E+00 -0.00000000000E+00 -0.92236407020E+03  0.92236407020E+03  0.00000000000E+00 0. -1.
    9000007    1    1    2  501    0 -0.13535701901E+03 -0.62905112017E+02  0.13118692338E+03  0.44664144969E+03  0.40000000000E+03 0. -1.
   -9000007    1    1    2    0  503  0.13535701901E+03  0.62905112017E+02 -0.70504035091E+03  0.82423326317E+03  0.40000000000E+03 0. -1.
<mgrwt>
<rscale>  2 0.42694095E+03</rscale>
<asrwt>0</asrwt>
<pdfrwt beam="1">  1       21 0.53617023E-01 0.42694095E+03</pdfrwt>
<pdfrwt beam="2">  1       21 0.14190216E+00 0.42694095E+03</pdfrwt>
<totfact> 0.97114218E+02</totfact>
</mgrwt>
</event>
<event>
 4    1  0.4675559E-002  0.4254823E+03  0.7818608E-02  0.1035297E+00
         21   -1    0    0  501  502  0.00000000000E+00  0.00000000000E+00  0.34444565323E+03  0.34444565323E+03  0.00000000000E+00 0. -1.
         21   -1    0    0  502  503 -0.00000000000E+00 -0.00000000000E+00 -0.65582487536E+03  0.65582487536E+03  0.00000000000E+00 0. -1.
    9000007    1    1    2  501    0 -0.39410897139E+00 -0.14503471262E+03  0.67188135944E+02  0.43075453428E+03  0.40000000000E+03 0. -1.
   -9000007    1    1    2    0  503  0.39410897139E+00  0.14503471262E+03 -0.37856735807E+03  0.56951599432E+03  0.40000000000E+03 0. -1.
<mgrwt>
<rscale>  2 0.42548234E+03</rscale>
<asrwt>0</asrwt>
<pdfrwt beam="1">  1       21 0.52991639E-01 0.42548234E+03</pdfrwt>
<pdfrwt beam="2">  1       21 0.10089613E+00 0.42548234E+03</pdfrwt>
<totfact> 0.23679494E+03</totfact>
</mgrwt>
</event>
<event>
 4    1  0.4675559E-002  0.4730020E+03  0.7818608E-02  0.1021076E+00
         21   -1    0    0  503  502  0.00000000000E+00  0.00000000000E+00  0.22168858103E+03  0.22168858103E+03  0.00000000000E+00 0.  1.
         21   -1    0    0  501  503 -0.00000000000E+00 -0.00000000000E+00 -0.13703275016E+04  0.13703275016E+04  0.00000000000E+00 0.  1.
    9000007    1    1    2  501    0  0.22039436527E+03 -0.12311445933E+03 -0.98294748086E+03  0.10908329829E+04  0.40000000000E+03 0.  1.
   -9000007    1    1    2    0  502 -0.22039436527E+03  0.12311445933E+03 -0.16569143976E+03  0.50118309982E+03  0.40000000000E+03 0.  1.
<mgrwt>
<rscale>  2 0.47300195E+03</rscale>
<asrwt>0</asrwt>
<pdfrwt beam="1">  1       21 0.34105936E-01 0.47300195E+03</pdfrwt>
<pdfrwt beam="2">  1       21 0.21081961E+00 0.47300195E+03</pdfrwt>
<totfact> 0.77814400E+02</totfact>
</mgrwt>
</event>
<event>
 4    1  0.4675559E-002  0.4601996E+03  0.7818608E-02  0.1024723E+00
         21   -1    0    0  501  502  0.00000000000E+00  0.00000000000E+00  0.16633746805E+04  0.16633746805E+04  0.00000000000E+00 0. -1.
         21   -1    0    0  502  503 -0.00000000000E+00 -0.00000000000E+00 -0.15230287127E+03  0.15230287127E+03  0.00000000000E+00 0. -1.
    9000007    1    1    2  501    0  0.19104535028E+03 -0.12363374656E+03  0.11232086265E+04  0.12138291675E+04  0.40000000000E+03 0. -1.
   -9000007    1    1    2    0  503 -0.19104535028E+03  0.12363374656E+03  0.38786318269E+03  0.60184838426E+03  0.40000000000E+03 0. -1.
<mgrwt>
<rscale>  2 0.46019955E+03</rscale>
<asrwt>0</asrwt>
<pdfrwt beam="1">  1       21 0.25590378E+00 0.46019955E+03</pdfrwt>
<pdfrwt beam="2">  1       21 0.23431212E-01 0.46019955E+03</pdfrwt>
<totfact> 0.85552537E+02</totfact>
</mgrwt>
</event>
