<event>
11    0  0.3439373E-009  0.9118800E+02  0.7816531E-02  0.1126479E+00
         25   -1    0    0    0    0  0.00000000000E+00  0.00000000000E+00  0.99999998245E-14  0.12500000000E+03  0.12500000000E+03 0.  0.
    3000001    1    3    3    0    0  0.42459376635E+02 -0.39756005732E+02  0.82508323559E+00  0.58180919711E+02  0.10000000000E+01 0. -1.
    1000022    2    1    0    0    0  0.46451691586E+02 -0.40539020843E+02  0.22534605944E+01  0.62499999873E+02  0.10000001869E+02 0.  0.
    3000022    2    3    3    0    0  0.39923149512E+01 -0.78301511050E+00  0.14283773588E+01  0.43190801626E+01  0.25000047803E+00 0.  0.
    1000022    2    1    0    0    0 -0.46451691586E+02  0.40539020843E+02 -0.22534605944E+01  0.62500000127E+02  0.10000003455E+02 0.  0.
    3000022    2    5    5    0    0 -0.30543230807E+02  0.30026186625E+02  0.22188463557E+01  0.42888770254E+02  0.25000684780E+00 0.  0.
        -13    1    4    4    0    0  0.14620483743E+01 -0.34665205090E+00  0.53716010420E+00  0.15991619901E+01  0.10500000000E+00 0.  1.
         13    1    4    4    0    0  0.25302665769E+01 -0.43636305960E+00  0.89121725464E+00  0.27199181725E+01  0.10500000000E+00 0. -1.
    3000001    1    5    5    0    0 -0.15908460779E+02  0.10512834218E+02 -0.44723069501E+01  0.19611229873E+02  0.10000000000E+01 0.  1.
        -13    1    6    6    0    0 -0.22619246971E+02  0.22256313459E+02  0.16161002755E+01  0.31774150302E+02  0.10500000000E+00 0. -1.
         13    1    6    6    0    0 -0.79239838361E+01  0.77698731657E+01  0.60274608015E+00  0.11114619952E+02  0.10500000000E+00 0.  1.
</event>
<event>
11    0  0.3439373E-009  0.9118800E+02  0.7816531E-02  0.1126479E+00
         25   -1    0    0    0    0  0.00000000000E+00  0.00000000000E+00  0.99999998245E-14  0.12500000000E+03  0.12500000000E+03 0.  0.
    3000001    1    3    3    0    0 -0.15070192280E+02  0.10129076125E+01  0.12867426081E+01  0.15191852544E+02  0.10000000000E+01 0. -1.
    1000022    2    1    0    0    0 -0.60778183643E+02 -0.45396846652E+01 -0.95735816039E+01  0.62500000821E+02  0.10000014706E+02 0.  0.
    3000022    2    3    3    0    0 -0.45707991363E+02 -0.55525922777E+01 -0.10860324212E+02  0.47308148277E+02  0.24999190620E+00 0.  0.
    1000022    2    1    0    0    0  0.60778183643E+02  0.45396846652E+01  0.95735816039E+01  0.62499999179E+02  0.10000004443E+02 0.  0.
    3000022    2    5    5    0    0  0.39911037577E+02  0.55865796030E+01  0.10205984823E+02  0.41573133485E+02  0.25001883518E+00 0.  0.
        -13    1    4    4    0    0 -0.17407017177E+02 -0.20758261602E+01 -0.41833852712E+01  0.18022903167E+02  0.10500000000E+00 0.  1.
         13    1    4    4    0    0 -0.28300974186E+02 -0.34767661176E+01 -0.66769389409E+01  0.29285245110E+02  0.10500000000E+00 0. -1.
    3000001    1    5    5    0    0  0.20867146066E+02 -0.10468949378E+01 -0.63240321887E+00  0.20926865694E+02  0.10000000000E+01 0.  1.
        -13    1    6    6    0    0  0.23164743796E+02  0.32898716862E+01  0.58791950160E+01  0.24124770877E+02  0.10500000000E+00 0. -1.
         13    1    6    6    0    0  0.16746293781E+02  0.22967079168E+01  0.43267898067E+01  0.17448362608E+02  0.10500000000E+00 0.  1.
</event>
<event>
11    0  0.3439373E-009  0.9118800E+02  0.7816531E-02  0.1126479E+00
         25   -1    0    0    0    0  0.00000000000E+00  0.00000000000E+00  0.99999998245E-14  0.12500000000E+03  0.12500000000E+03 0.  0.
    3000001    1    3    3    0    0 -0.13834430368E+02  0.11794545567E+02 -0.73433158860E+01  0.19632296273E+02  0.10000000000E+01 0.  1.
    1000022    2    1    0    0    0 -0.37912079427E+02  0.33024537388E+02 -0.35753378890E+02  0.62499998749E+02  0.99999952690E+01 0.  0.
    3000022    2    3    3    0    0 -0.24077649059E+02  0.21229991820E+02 -0.28410063004E+02  0.42867702475E+02  0.24999750295E+00 0.  0.
    1000022    2    1    0    0    0  0.37912079427E+02 -0.33024537388E+02  0.35753378890E+02  0.62500001251E+02  0.10000010910E+02 0.  0.
    3000022    2    5    5    0    0  0.35554691907E+01 -0.79399665396E+01  0.65133713790E+01  0.10870645253E+02  0.24998335740E+00 0.  0.
        -13    1    4    4    0    0 -0.11697225499E+02  0.10223729696E+02 -0.13755190139E+02  0.20750084675E+02  0.10500000000E+00 0. -1.
         13    1    4    4    0    0 -0.12380423560E+02  0.11006262125E+02 -0.14654872865E+02  0.22117617800E+02  0.10500000000E+00 0.  1.
    3000001    1    5    5    0    0  0.34356610236E+02 -0.25084570848E+02  0.29240007511E+02  0.51629355998E+02  0.10000000000E+01 0. -1.
        -13    1    6    6    0    0  0.24229095574E+01 -0.54353223754E+01  0.45153554182E+01  0.74707884190E+01  0.10500000000E+00 0.  1.
         13    1    6    6    0    0  0.11325596333E+01 -0.25046441642E+01  0.19980159607E+01  0.33998568340E+01  0.10500000000E+00 0. -1.
</event>
<event>
11    0  0.3439373E-009  0.9118800E+02  0.7816531E-02  0.1126479E+00
         25   -1    0    0    0    0  0.00000000000E+00  0.00000000000E+00  0.99999998245E-14  0.12500000000E+03  0.12500000000E+03 0.  0.
    3000001    1    3    3    0    0 -0.25753058244E+02  0.14209756519E+02 -0.28473812542E+02  0.40949910744E+02  0.10000000000E+01 0. -1.
    1000022    2    1    0    0    0 -0.42256972585E+02  0.15233724484E+02 -0.42291045533E+02  0.62499995004E+02  0.99999374741E+01 0.  0.
    3000022    2    3    3    0    0 -0.16503914341E+02  0.10239679646E+01 -0.13817232991E+02  0.21550084260E+02  0.25001021693E+00 0.  0.
    1000022    2    1    0    0    0  0.42256972585E+02 -0.15233724484E+02  0.42291045533E+02  0.62500004996E+02  0.99999999241E+01 0.  0.
    3000022    2    5    5    0    0  0.73239735197E+01 -0.59326588663E+01  0.55209552229E+01  0.10926137711E+02  0.25001871357E+00 0.  0.
        -13    1    4    4    0    0 -0.88317630826E+01  0.48059128992E+00 -0.73931913576E+01  0.11528283072E+02  0.10500000000E+00 0. -1.
         13    1    4    4    0    0 -0.76721512586E+01  0.54337667467E+00 -0.64240416336E+01  0.10021801188E+02  0.10500000000E+00 0.  1.
    3000001    1    5    5    0    0  0.34932999065E+02 -0.93010656175E+01  0.36770090311E+02  0.51573867285E+02  0.10000000000E+01 0. -1.
        -13    1    6    6    0    0  0.49915850293E+01 -0.40057562381E+01  0.37966349735E+01  0.74422756107E+01  0.10500000000E+00 0. -1.
         13    1    6    6    0    0  0.23323884904E+01 -0.19269026282E+01  0.17243202493E+01  0.34838620999E+01  0.10500000000E+00 0.  1.
</event>
<event>
11    0  0.3439373E-009  0.9118800E+02  0.7816531E-02  0.1126479E+00
         25   -1    0    0    0    0  0.00000000000E+00  0.00000000000E+00  0.99999998245E-14  0.12500000000E+03  0.12500000000E+03 0.  0.
    3000001    1    3    3    0    0 -0.97098544133E+01  0.77006512430E+01 -0.88930787928E+01  0.15286207924E+02  0.10000000000E+01 0. -1.
    1000022    2    1    0    0    0 -0.36205352692E+02  0.43502233596E+02 -0.24555619119E+02  0.62500002481E+02  0.99999994217E+01 0.  0.
    3000022    2    3    3    0    0 -0.26495498279E+02  0.35801582353E+02 -0.15662540326E+02  0.47213794557E+02  0.24999791539E+00 0.  0.
    1000022    2    1    0    0    0  0.36205352692E+02 -0.43502233596E+02  0.24555619119E+02  0.62499997519E+02  0.99999684063E+01 0.  0.
    3000022    2    5    5    0    0  0.30417208235E+02 -0.31887168298E+02  0.15810554265E+02  0.46819164715E+02  0.24999903658E+00 0.  0.
        -13    1    4    4    0    0 -0.13143872476E+02  0.17869223245E+02 -0.78221073202E+01  0.23521626452E+02  0.10500000000E+00 0.  1.
         13    1    4    4    0    0 -0.13351625803E+02  0.17932359108E+02 -0.78404330059E+01  0.23692168104E+02  0.10500000000E+00 0. -1.
    3000001    1    5    5    0    0  0.57881444568E+01 -0.11615065298E+02  0.87450648540E+01  0.15680832804E+02  0.10000000000E+01 0.  1.
        -13    1    6    6    0    0  0.11777048858E+02 -0.12422969021E+02  0.61754064663E+01  0.18198233682E+02  0.10500000000E+00 0. -1.
         13    1    6    6    0    0  0.18640159377E+02 -0.19464199277E+02  0.96351477987E+01  0.28620931033E+02  0.10500000000E+00 0.  1.
</event>
<event>
11    0  0.3439373E-009  0.9118800E+02  0.7816531E-02  0.1126479E+00
         25   -1    0    0    0    0  0.00000000000E+00  0.00000000000E+00  0.99999998245E-14  0.12500000000E+03  0.12500000000E+03 0.  0.
    3000001    1    3    3    0    0 -0.13289477368E+02 -0.24287590021E+02 -0.18211899433E+02  0.33153740644E+02  0.10000000000E+01 0.  1.
    1000022    2    1    0    0    0 -0.26993641257E+02 -0.49088600013E+02 -0.25843808352E+02  0.62499996573E+02  0.99999910932E+01 0.  0.
    3000022    2    3    3    0    0 -0.13704163889E+02 -0.24801009993E+02 -0.76319089193E+01  0.29346255929E+02  0.24999747835E+00 0.  0.
    1000022    2    1    0    0    0  0.26993641257E+02  0.49088600013E+02  0.25843808352E+02  0.62500003427E+02  0.10000033933E+02 0.  0.
    3000022    2    5    5    0    0  0.80671137041E+01  0.11766161414E+02  0.11249978591E+02  0.18169903773E+02  0.25001379529E+00 0.  0.
        -13    1    4    4    0    0 -0.53572352271E+01 -0.98236501421E+01 -0.30211946599E+01  0.11590630421E+02  0.10500000000E+00 0. -1.
         13    1    4    4    0    0 -0.83469286618E+01 -0.14977359850E+02 -0.46107142594E+01  0.17755625507E+02  0.10500000000E+00 0.  1.
    3000001    1    5    5    0    0  0.18926527553E+02  0.37322438599E+02  0.14593829761E+02  0.44330099654E+02  0.10000000000E+01 0.  1.
        -13    1    6    6    0    0  0.50585021435E+01  0.73339346312E+01  0.70951274031E+01  0.11389771682E+02  0.10500000000E+00 0. -1.
         13    1    6    6    0    0  0.30086115606E+01  0.44322267828E+01  0.41548511881E+01  0.67801320910E+01  0.10500000000E+00 0.  1.
</event>
<event>
11    0  0.3439373E-009  0.9118800E+02  0.7816531E-02  0.1126479E+00
         25   -1    0    0    0    0  0.00000000000E+00  0.00000000000E+00  0.99999998245E-14  0.12500000000E+03  0.12500000000E+03 0.  0.
    3000001    1    3    3    0    0 -0.51532000909E+01  0.42772853469E+02 -0.73918621375E+01  0.43723129930E+02  0.10000000000E+01 0.  1.
    1000022    2    1    0    0    0 -0.27366571809E+01  0.59799453354E+02 -0.14926017888E+02  0.62499998316E+02  0.99999932741E+01 0.  0.
    3000022    2    3    3    0    0  0.24165429100E+01  0.17026599886E+02 -0.75341557506E+01  0.18776868386E+02  0.25000039451E+00 0.  0.
    1000022    2    1    0    0    0  0.27366571809E+01 -0.59799453354E+02  0.14926017888E+02  0.62500001684E+02  0.10000014329E+02 0.  0.
    3000022    2    5    5    0    0  0.58579710273E+01 -0.22607650983E+02  0.57509931530E+01  0.24053235336E+02  0.25000073231E+00 0.  0.
        -13    1    4    4    0    0  0.15018299913E+01  0.10557428348E+02 -0.47379061573E+01  0.11669343015E+02  0.10500000000E+00 0. -1.
         13    1    4    4    0    0  0.91471291866E+00  0.64691715378E+01 -0.27962495932E+01  0.71075253708E+01  0.10500000000E+00 0.  1.
    3000001    1    5    5    0    0 -0.31213138464E+01 -0.37191802372E+02  0.91750247351E+01  0.38446766349E+02  0.10000000000E+01 0.  1.
        -13    1    6    6    0    0  0.23302831360E+01 -0.90729596589E+01  0.23684916127E+01  0.96627943156E+01  0.10500000000E+00 0.  1.
         13    1    6    6    0    0  0.35276878914E+01 -0.13534691324E+02  0.33825015403E+01  0.14390441020E+02  0.10500000000E+00 0. -1.
</event>
<event>
11    0  0.3439373E-009  0.9118800E+02  0.7816531E-02  0.1126479E+00
         25   -1    0    0    0    0  0.00000000000E+00  0.00000000000E+00  0.99999998245E-14  0.12500000000E+03  0.12500000000E+03 0.  0.
    3000001    1    3    3    0    0 -0.61347241164E+01  0.56876931702E+01  0.15119376139E+02  0.17308386072E+02  0.10000000000E+01 0.  1.
    1000022    2    1    0    0    0 -0.66074379220E+01  0.22424330314E+02  0.57094146093E+02  0.62500003711E+02  0.10000005991E+02 0.  0.
    3000022    2    3    3    0    0 -0.47271380560E+00  0.16736637144E+02  0.41974769955E+02  0.45191617639E+02  0.25002177360E+00 0.  0.
    1000022    2    1    0    0    0  0.66074379220E+01 -0.22424330314E+02 -0.57094146093E+02  0.62499996289E+02  0.99999596022E+01 0.  0.
    3000022    2    5    5    0    0  0.26378989030E+01 -0.20721355002E+02 -0.49088206702E+02  0.53348360890E+02  0.25001737823E+00 0.  0.
        -13    1    4    4    0    0 -0.22956979838E+00  0.85248874281E+01  0.21559642532E+02  0.23185245719E+02  0.10500000000E+00 0. -1.
         13    1    4    4    0    0 -0.24314400721E+00  0.82117497161E+01  0.20415127423E+02  0.22006371921E+02  0.10500000000E+00 0.  1.
    3000001    1    5    5    0    0  0.39695390190E+01 -0.17029753127E+01 -0.80059393912E+01  0.91516353989E+01  0.10000000000E+01 0. -1.
        -13    1    6    6    0    0  0.75714254995E+00 -0.63173297832E+01 -0.14937884315E+02  0.16236789500E+02  0.10500000000E+00 0.  1.
         13    1    6    6    0    0  0.18807563530E+01 -0.14404025218E+02 -0.34150322387E+02  0.37111571390E+02  0.10500000000E+00 0. -1.
</event>
<event>
11    0  0.3439373E-009  0.9118800E+02  0.7816531E-02  0.1126479E+00
         25   -1    0    0    0    0  0.00000000000E+00  0.00000000000E+00  0.99999998245E-14  0.12500000000E+03  0.12500000000E+03 0.  0.
    3000001    1    3    3    0    0 -0.14920613047E+02 -0.38711963091E+02  0.12703673844E+02  0.43400738579E+02  0.10000000000E+01 0. -1.
    1000022    2    1    0    0    0 -0.27179511300E+02 -0.52545371176E+02  0.17507375078E+02  0.62500000543E+02  0.10000000965E+02 0.  0.
    3000022    2    3    3    0    0 -0.12258898254E+02 -0.13833408084E+02  0.48037012340E+01  0.19099261964E+02  0.24999282994E+00 0.  0.
    1000022    2    1    0    0    0  0.27179511300E+02  0.52545371176E+02 -0.17507375078E+02  0.62499999457E+02  0.99999941730E+01 0.  0.
    3000022    2    5    5    0    0  0.32503780977E+01  0.14207244978E+02 -0.65858841334E+01  0.15995222276E+02  0.24999639492E+00 0.  0.
        -13    1    4    4    0    0 -0.79528974875E+01 -0.89567000206E+01  0.30553529058E+01  0.12361927847E+02  0.10500000000E+00 0. -1.
         13    1    4    4    0    0 -0.43060007662E+01 -0.48767080636E+01  0.17483483281E+01  0.67373341176E+01  0.10500000000E+00 0.  1.
    3000001    1    5    5    0    0  0.23929133203E+02  0.38338126198E+02 -0.10921490944E+02  0.46504777181E+02  0.10000000000E+01 0. -1.
        -13    1    6    6    0    0  0.80587475019E+00  0.36550423995E+01 -0.16977069051E+01  0.41112045426E+01  0.10500000000E+00 0.  1.
         13    1    6    6    0    0  0.24445033476E+01  0.10552202579E+02 -0.48881772283E+01  0.11884017733E+02  0.10500000000E+00 0. -1.
</event>
<event>
11    0  0.3439373E-009  0.9118800E+02  0.7816531E-02  0.1126479E+00
         25   -1    0    0    0    0  0.00000000000E+00  0.00000000000E+00  0.99999998245E-14  0.12500000000E+03  0.12500000000E+03 0.  0.
    3000001    1    3    3    0    0 -0.34362475294E+00 -0.13459284408E+02  0.19314134948E+01  0.13638210030E+02  0.10000000000E+01 0.  1.
    1000022    2    1    0    0    0 -0.13316640818E+01 -0.55764648282E+02  0.26358695756E+02  0.62500001383E+02  0.10000000182E+02 0.  0.
    3000022    2    3    3    0    0 -0.98803932882E+00 -0.42305363874E+02  0.24427282262E+02  0.48861791353E+02  0.25000253107E+00 0.  0.
    1000022    2    1    0    0    0  0.13316640818E+01  0.55764648282E+02 -0.26358695756E+02  0.62499998617E+02  0.99999828970E+01 0.  0.
    3000022    2    5    5    0    0  0.29661230750E+01  0.20588498808E+02 -0.53369272173E+01  0.21476253048E+02  0.24996719108E+00 0.  0.
        -13    1    4    4    0    0 -0.68404510412E+00 -0.27865718569E+02  0.16039470150E+02  0.32159630234E+02  0.10500000000E+00 0.  1.
         13    1    4    4    0    0 -0.30399422470E+00 -0.14439645305E+02  0.83878121113E+01  0.16702161119E+02  0.10500000000E+00 0. -1.
    3000001    1    5    5    0    0 -0.16344589932E+01  0.35176149474E+02 -0.21021768539E+02  0.41023745569E+02  0.10000000000E+01 0.  1.
        -13    1    6    6    0    0  0.16862975099E+01  0.11849704630E+02 -0.31346086727E+01  0.12373192621E+02  0.10500000000E+00 0.  1.
         13    1    6    6    0    0  0.12798255650E+01  0.87387941782E+01 -0.22023185445E+01  0.91030604270E+01  0.10500000000E+00 0. -1.
</event>
<event>
11    0  0.3439373E-009  0.9118800E+02  0.7816531E-02  0.1126479E+00
         25   -1    0    0    0    0  0.00000000000E+00  0.00000000000E+00  0.99999998245E-14  0.12500000000E+03  0.12500000000E+03 0.  0.
    3000001    1    3    3    0    0 -0.13059687503E+02  0.16389202599E+02 -0.80640479110E+01  0.22476438068E+02  0.10000000000E+01 0. -1.
    1000022    2    1    0    0    0 -0.39418950072E+02  0.36016080766E+02 -0.30906939028E+02  0.62499996730E+02  0.99999506297E+01 0.  0.
    3000022    2    3    3    0    0 -0.26359262570E+02  0.19626878167E+02 -0.22842891117E+02  0.40023558662E+02  0.25000720241E+00 0.  0.
    1000022    2    1    0    0    0  0.39418950072E+02 -0.36016080766E+02  0.30906939028E+02  0.62500003270E+02  0.99999915103E+01 0.  0.
    3000022    2    5    5    0    0  0.17652978087E+02 -0.96885746664E+01  0.10875022944E+02  0.22887217761E+02  0.24999673410E+00 0.  0.
        -13    1    4    4    0    0 -0.16732856516E+02  0.12420028789E+02 -0.14423444476E+02  0.25343487879E+02  0.10500000000E+00 0. -1.
         13    1    4    4    0    0 -0.96264060535E+01  0.72068493782E+01 -0.84194466408E+01  0.14680070783E+02  0.10500000000E+00 0.  1.
    3000001    1    5    5    0    0  0.21765971985E+02 -0.26327506099E+02  0.20031916084E+02  0.39612785510E+02  0.10000000000E+01 0.  1.
        -13    1    6    6    0    0  0.10788142029E+02 -0.58896251825E+01  0.65745281693E+01  0.13939409560E+02  0.10500000000E+00 0. -1.
         13    1    6    6    0    0  0.68648360589E+01 -0.37989494838E+01  0.43004947749E+01  0.89478082012E+01  0.10500000000E+00 0.  1.
</event>
<event>
11    0  0.3439373E-009  0.9118800E+02  0.7816531E-02  0.1126479E+00
         25   -1    0    0    0    0  0.00000000000E+00  0.00000000000E+00  0.99999998245E-14  0.12500000000E+03  0.12500000000E+03 0.  0.
    3000001    1    3    3    0    0  0.54747951976E+02 -0.94920346518E+01  0.22714906948E+02  0.60036688492E+02  0.10000000000E+01 0.  1.
    1000022    2    1    0    0    0  0.55502678075E+02 -0.10167872457E+02  0.24946282558E+02  0.62500000874E+02  0.10000009598E+02 0.  0.
    3000022    2    3    3    0    0  0.75472609857E+00 -0.67583780476E+00  0.22313756106E+01  0.24633123819E+01  0.25000510549E+00 0.  0.
    1000022    2    1    0    0    0 -0.55502678075E+02  0.10167872457E+02 -0.24946282558E+02  0.62499999126E+02  0.99999986747E+01 0.  0.
    3000022    2    5    5    0    0 -0.38739864948E+02  0.74300539926E+01 -0.22202527504E+02  0.45265854365E+02  0.25001049803E+00 0.  0.
        -13    1    4    4    0    0  0.18986440387E+00 -0.15102823390E+00  0.52029620917E+00  0.58360188876E+00  0.10500000000E+00 0. -1.
         13    1    4    4    0    0  0.56486169471E+00 -0.52480957086E+00  0.17110794015E+01  0.18797104931E+01  0.10500000000E+00 0.  1.
    3000001    1    5    5    0    0 -0.16762813127E+02  0.27378184640E+01 -0.27437550544E+01  0.17234144762E+02  0.10000000000E+01 0. -1.
        -13    1    6    6    0    0 -0.15198632847E+02  0.28623975022E+01 -0.86653083935E+01  0.17728236078E+02  0.10500000000E+00 0. -1.
         13    1    6    6    0    0 -0.23541232102E+02  0.45676564904E+01 -0.13537219110E+02  0.27537618287E+02  0.10500000000E+00 0.  1.
</event>
<event>
11    0  0.3439373E-009  0.9118800E+02  0.7816531E-02  0.1126479E+00
         25   -1    0    0    0    0  0.00000000000E+00  0.00000000000E+00  0.99999998245E-14  0.12500000000E+03  0.12500000000E+03 0.  0.
    3000001    1    3    3    0    0 -0.20548022481E+01  0.50517250252E+01 -0.97464122567E+01  0.11213148081E+02  0.10000000000E+01 0.  1.
    1000022    2    1    0    0    0  0.64793295525E+01  0.18532519635E+02 -0.58487724854E+02  0.62500001011E+02  0.10000008613E+02 0.  0.
    3000022    2    3    3    0    0  0.85341318006E+01  0.13480794610E+02 -0.48741312597E+02  0.51286852930E+02  0.25000162674E+00 0.  0.
    1000022    2    1    0    0    0 -0.64793295525E+01 -0.18532519635E+02  0.58487724854E+02  0.62499998989E+02  0.99999959792E+01 0.  0.
    3000022    2    5    5    0    0 -0.55660620486E+01 -0.84516452989E+01  0.17018611153E+02  0.19801691341E+02  0.24999877040E+00 0.  0.
        -13    1    4    4    0    0  0.38456266921E+01  0.61905753569E+01 -0.22344675424E+02  0.23503353222E+02  0.10500000000E+00 0.  1.
         13    1    4    4    0    0  0.46885051085E+01  0.72902192533E+01 -0.26396637174E+02  0.27783499708E+02  0.10500000000E+00 0. -1.
    3000001    1    5    5    0    0 -0.91326750398E+00 -0.10080874337E+02  0.41469113701E+02  0.42698307649E+02  0.10000000000E+01 0. -1.
        -13    1    6    6    0    0 -0.23729815268E+01 -0.35797344932E+01  0.70984978428E+01  0.82973029951E+01  0.10500000000E+00 0.  1.
         13    1    6    6    0    0 -0.31930805218E+01 -0.48719108057E+01  0.99201133104E+01  0.11504388346E+02  0.10500000000E+00 0. -1.
</event>
<event>
11    0  0.3439373E-009  0.9118800E+02  0.7816531E-02  0.1126479E+00
         25   -1    0    0    0    0  0.00000000000E+00  0.00000000000E+00  0.99999998245E-14  0.12500000000E+03  0.12500000000E+03 0.  0.
    3000001    1    3    3    0    0  0.19374099449E+02 -0.35212707655E+02 -0.35382032498E+02  0.53555380061E+02  0.10000000000E+01 0. -1.
    1000022    2    1    0    0    0  0.18601115160E+02 -0.41351427637E+02 -0.41836675600E+02  0.62500004120E+02  0.10000051845E+02 0.  0.
    3000022    2    3    3    0    0 -0.77298428969E+00 -0.61387199819E+01 -0.64546431025E+01  0.89446240582E+01  0.24998846790E+00 0.  0.
    1000022    2    1    0    0    0 -0.18601115160E+02  0.41351427637E+02  0.41836675600E+02  0.62499995880E+02  0.10000000349E+02 0.  0.
    3000022    2    5    5    0    0 -0.17522320715E+02  0.38239430480E+02  0.41418519340E+02  0.59032550363E+02  0.24998277113E+00 0.  0.
        -13    1    4    4    0    0 -0.19184649223E+00 -0.19053986175E+01 -0.20100807114E+01  0.27782725631E+01  0.10500000000E+00 0.  1.
         13    1    4    4    0    0 -0.58113779746E+00 -0.42333213644E+01 -0.44445623911E+01  0.61663514952E+01  0.10500000000E+00 0. -1.
    3000001    1    5    5    0    0 -0.10787944446E+01  0.31119971570E+01  0.41815626062E+00  0.34674455176E+01  0.10000000000E+01 0.  1.
        -13    1    6    6    0    0 -0.49097337559E+01  0.10811745271E+02  0.11692577031E+02  0.16665134382E+02  0.10500000000E+00 0. -1.
         13    1    6    6    0    0 -0.12612586959E+02  0.27427685209E+02  0.29725942309E+02  0.42367415981E+02  0.10500000000E+00 0.  1.
</event>
<event>
11    0  0.3439373E-009  0.9118800E+02  0.7816531E-02  0.1126479E+00
         25   -1    0    0    0    0  0.00000000000E+00  0.00000000000E+00  0.99999998245E-14  0.12500000000E+03  0.12500000000E+03 0.  0.
    3000001    1    3    3    0    0 -0.56715407948E+02  0.18929514670E+02 -0.16108344830E+02  0.61930951854E+02  0.10000000000E+01 0. -1.
    1000022    2    1    0    0    0 -0.56677889579E+02  0.18460611385E+02 -0.15908260215E+02  0.62500000108E+02  0.99999965249E+01 0.  0.
    3000022    2    3    3    0    0  0.37518368422E-01 -0.46890328524E+00  0.20008461475E+00  0.56904825399E+00  0.25000828672E+00 0.  0.
    1000022    2    1    0    0    0  0.56677889579E+02 -0.18460611385E+02  0.15908260215E+02  0.62499999892E+02  0.99999951803E+01 0.  0.
    3000022    2    5    5    0    0  0.55136184605E+02 -0.16240432998E+02  0.15822028353E+02  0.59616688908E+02  0.24999692073E+00 0.  0.
        -13    1    4    4    0    0  0.17741606680E-01 -0.32806833495E+00  0.18558455537E+00  0.39167617262E+00  0.10500000000E+00 0. -1.
         13    1    4    4    0    0  0.19776761742E-01 -0.14083495029E+00  0.14500059385E-01  0.17737208137E+00  0.10500000000E+00 0.  1.
    3000001    1    5    5    0    0  0.15417049749E+01 -0.22201783868E+01  0.86231862729E-01  0.28833109844E+01  0.10000000000E+01 0. -1.
        -13    1    6    6    0    0  0.35397588702E+02 -0.10394094877E+02  0.10104615295E+02  0.38251023117E+02  0.10500000000E+00 0. -1.
         13    1    6    6    0    0  0.19738595902E+02 -0.58463381209E+01  0.57174130576E+01  0.21365665791E+02  0.10500000000E+00 0.  1.
</event>
<event>
11    0  0.3439373E-009  0.9118800E+02  0.7816531E-02  0.1126479E+00
         25   -1    0    0    0    0  0.00000000000E+00  0.00000000000E+00  0.99999998245E-14  0.12500000000E+03  0.12500000000E+03 0.  0.
    3000001    1    3    3    0    0 -0.10479217578E+01 -0.75060556280E+01  0.16851640185E+00  0.76463984253E+01  0.10000000000E+01 0.  1.
    1000022    2    1    0    0    0 -0.26971926318E+02 -0.52796090277E+02  0.17068644581E+02  0.62500004338E+02  0.99999978259E+01 0.  0.
    3000022    2    3    3    0    0 -0.25924004560E+02 -0.45290034649E+02  0.16900128179E+02  0.54853605912E+02  0.24999630812E+00 0.  0.
    1000022    2    1    0    0    0  0.26971926318E+02  0.52796090277E+02 -0.17068644581E+02  0.62499995662E+02  0.99999436062E+01 0.  0.
    3000022    2    5    5    0    0  0.99976564388E+01  0.10873721140E+02 -0.58558978360E+01  0.15891664202E+02  0.25001186642E+00 0.  0.
        -13    1    4    4    0    0 -0.85141891178E+01 -0.14857907572E+02  0.54914052920E+01  0.17983753524E+02  0.10500000000E+00 0.  1.
         13    1    4    4    0    0 -0.17409815443E+02 -0.30432127077E+02  0.11408722887E+02  0.36869852388E+02  0.10500000000E+00 0. -1.
    3000001    1    5    5    0    0  0.16974269879E+02  0.41922369137E+02 -0.11212746745E+02  0.46608331461E+02  0.10000000000E+01 0. -1.
        -13    1    6    6    0    0  0.69454998110E+01  0.75028061311E+01 -0.40173856461E+01  0.10985557787E+02  0.10500000000E+00 0. -1.
         13    1    6    6    0    0  0.30521566278E+01  0.33709150089E+01 -0.18385121899E+01  0.49061064145E+01  0.10500000000E+00 0.  1.
</event>
<event>
11    0  0.3439373E-009  0.9118800E+02  0.7816531E-02  0.1126479E+00
         25   -1    0    0    0    0  0.00000000000E+00  0.00000000000E+00  0.99999998245E-14  0.12500000000E+03  0.12500000000E+03 0.  0.
    3000001    1    3    3    0    0  0.35759820682E+02 -0.10434825710E+02  0.28743443876E+02  0.47062043397E+02  0.10000000000E+01 0.  1.
    1000022    2    1    0    0    0  0.47625434993E+02 -0.18330563960E+02  0.34670713353E+02  0.62500000132E+02  0.10000000939E+02 0.  0.
    3000022    2    3    3    0    0  0.11865614311E+02 -0.78957382494E+01  0.59272694760E+01  0.15437956735E+02  0.24999846896E+00 0.  0.
    1000022    2    1    0    0    0 -0.47625434993E+02  0.18330563960E+02 -0.34670713353E+02  0.62499999868E+02  0.99999992869E+01 0.  0.
    3000022    2    5    5    0    0 -0.21587733872E+02  0.31879898029E+01 -0.13338139817E+02  0.25576590959E+02  0.24999723561E+00 0.  0.
        -13    1    4    4    0    0  0.66191620781E+01 -0.43280876469E+01  0.33091780897E+01  0.85736418123E+01  0.10500000000E+00 0.  1.
         13    1    4    4    0    0  0.52464522333E+01 -0.35676506025E+01  0.26180913863E+01  0.68643149232E+01  0.10500000000E+00 0. -1.
    3000001    1    5    5    0    0 -0.26037701122E+02  0.15142574157E+02 -0.21332573536E+02  0.36923408909E+02  0.10000000000E+01 0.  1.
        -13    1    6    6    0    0 -0.78386374821E+01  0.11936276119E+01 -0.47921374566E+01  0.92652356071E+01  0.10500000000E+00 0. -1.
         13    1    6    6    0    0 -0.13749096389E+02  0.19943621910E+01 -0.85460023604E+01  0.16311355352E+02  0.10500000000E+00 0.  1.
</event>
<event>
11    0  0.3439373E-009  0.9118800E+02  0.7816531E-02  0.1126479E+00
         25   -1    0    0    0    0  0.00000000000E+00  0.00000000000E+00  0.99999998245E-14  0.12500000000E+03  0.12500000000E+03 0.  0.
    3000001    1    3    3    0    0  0.27219689678E+02 -0.93761030645E+01  0.10689135082E+02  0.30725891747E+02  0.10000000000E+01 0.  1.
    1000022    2    1    0    0    0  0.52286406993E+02 -0.27666056768E+02  0.17520585494E+02  0.62499999692E+02  0.99999996066E+01 0.  0.
    3000022    2    3    3    0    0  0.25066717315E+02 -0.18289953703E+02  0.68314504121E+01  0.31774107945E+02  0.24999511091E+00 0.  0.
    1000022    2    1    0    0    0 -0.52286406993E+02  0.27666056768E+02 -0.17520585494E+02  0.62500000308E+02  0.10000003457E+02 0.  0.
    3000022    2    5    5    0    0 -0.13980257034E+02  0.35648403317E+01 -0.16208615142E+01  0.14520515306E+02  0.24999878216E+00 0.  0.
        -13    1    4    4    0    0  0.17179216587E+02 -0.12592863537E+02  0.47048201266E+01  0.21814033374E+02  0.10500000000E+00 0. -1.
         13    1    4    4    0    0  0.78875007277E+01 -0.56970901663E+01  0.21266302855E+01  0.99600745712E+01  0.10500000000E+00 0.  1.
    3000001    1    5    5    0    0 -0.38306149959E+02  0.24101216436E+02 -0.15899723979E+02  0.47979485002E+02  0.10000000000E+01 0. -1.
        -13    1    6    6    0    0 -0.56321082379E+01  0.14358339620E+01 -0.58929774229E+00  0.58429923155E+01  0.10500000000E+00 0.  1.
         13    1    6    6    0    0 -0.83481487958E+01  0.21290063697E+01 -0.10315637719E+01  0.86775229908E+01  0.10500000000E+00 0. -1.
</event>
<event>
11    0  0.3439373E-009  0.9118800E+02  0.7816531E-02  0.1126479E+00
         25   -1    0    0    0    0  0.00000000000E+00  0.00000000000E+00  0.99999998245E-14  0.12500000000E+03  0.12500000000E+03 0.  0.
    3000001    1    3    3    0    0 -0.17544619907E+02 -0.52737409403E+01  0.65065590110E+01  0.19466929428E+02  0.10000000000E+01 0. -1.
    1000022    2    1    0    0    0 -0.50065436956E+02 -0.30101163335E+02  0.19839907661E+02  0.62499999675E+02  0.10000000588E+02 0.  0.
    3000022    2    3    3    0    0 -0.32520817049E+02 -0.24827422394E+02  0.13333348650E+02  0.43033070247E+02  0.25000887033E+00 0.  0.
    1000022    2    1    0    0    0  0.50065436956E+02  0.30101163335E+02 -0.19839907661E+02  0.62500000325E+02  0.10000004646E+02 0.  0.
    3000022    2    5    5    0    0  0.36241280714E+02  0.20111128844E+02 -0.18416593048E+02  0.45355499474E+02  0.25000376494E+00 0.  0.
        -13    1    4    4    0    0 -0.18525365672E+02 -0.14125103232E+02  0.76591049542E+01  0.24523063192E+02  0.10500000000E+00 0. -1.
         13    1    4    4    0    0 -0.13995451376E+02 -0.10702319162E+02  0.56742436955E+01  0.18510007055E+02  0.10500000000E+00 0.  1.
    3000001    1    5    5    0    0  0.13824156242E+02  0.99900344902E+01 -0.14233146124E+01  0.17144500850E+02  0.10000000000E+01 0.  1.
        -13    1    6    6    0    0  0.10267032413E+02  0.56646900151E+01 -0.51788035157E+01  0.12819192580E+02  0.10500000000E+00 0.  1.
         13    1    6    6    0    0  0.25974248301E+02  0.14446438829E+02 -0.13237789533E+02  0.32536306895E+02  0.10500000000E+00 0. -1.
</event>
<event>
11    0  0.3439373E-009  0.9118800E+02  0.7816531E-02  0.1126479E+00
         25   -1    0    0    0    0  0.00000000000E+00  0.00000000000E+00  0.99999998245E-14  0.12500000000E+03  0.12500000000E+03 0.  0.
    3000001    1    3    3    0    0 -0.11601066394E+02 -0.63017293908E+01 -0.53235997069E+01  0.14270152369E+02  0.10000000000E+01 0. -1.
    1000022    2    1    0    0    0 -0.43347652178E+02 -0.21286396706E+02 -0.38394275740E+02  0.62499998700E+02  0.99999896872E+01 0.  0.
    3000022    2    3    3    0    0 -0.31746585785E+02 -0.14984667316E+02 -0.33070676033E+02  0.48229846331E+02  0.25000056150E+00 0.  0.
    1000022    2    1    0    0    0  0.43347652178E+02  0.21286396706E+02  0.38394275740E+02  0.62500001300E+02  0.10000005940E+02 0.  0.
    3000022    2    5    5    0    0  0.24247476089E+02  0.64070133078E+01  0.19885349252E+02  0.32007491782E+02  0.24999819623E+00 0.  0.
        -13    1    4    4    0    0 -0.22756755783E+02 -0.10749966911E+02 -0.23763916426E+02  0.34614541327E+02  0.10500000000E+00 0.  1.
         13    1    4    4    0    0 -0.89898300010E+01 -0.42347004048E+01 -0.93067596070E+01  0.13615305004E+02  0.10500000000E+00 0. -1.
    3000001    1    5    5    0    0  0.19100176090E+02  0.14879383399E+02  0.18508926488E+02  0.30492509518E+02  0.10000000000E+01 0.  1.
        -13    1    6    6    0    0  0.16687559382E+02  0.43603855091E+01  0.13690776175E+02  0.22021261934E+02  0.10500000000E+00 0.  1.
         13    1    6    6    0    0  0.75599167072E+01  0.20466277987E+01  0.61945730771E+01  0.99862298479E+01  0.10500000000E+00 0. -1.
</event>
<event>
11    0  0.3439373E-009  0.9118800E+02  0.7816531E-02  0.1126479E+00
         25   -1    0    0    0    0  0.00000000000E+00  0.00000000000E+00  0.99999998245E-14  0.12500000000E+03  0.12500000000E+03 0.  0.
    3000001    1    3    3    0    0 -0.66429628249E+00  0.55172558105E+01  0.20948974051E+02  0.21696564590E+02  0.10000000000E+01 0. -1.
    1000022    2    1    0    0    0  0.79035204876E+01  0.24193725848E+02  0.56200071253E+02  0.62500000354E+02  0.10000001442E+02 0.  0.
    3000022    2    3    3    0    0  0.85678167701E+01  0.18676470038E+02  0.35251097203E+02  0.40803435764E+02  0.24999776368E+00 0.  0.
    1000022    2    1    0    0    0 -0.79035204876E+01 -0.24193725848E+02 -0.56200071253E+02  0.62499999646E+02  0.99999970206E+01 0.  0.
    3000022    2    5    5    0    0 -0.64804790783E+01 -0.20743295767E+02 -0.36965358333E+02  0.42881011505E+02  0.25000518831E+00 0.  0.
        -13    1    4    4    0    0  0.60659979267E+01  0.13117318475E+02  0.24809539596E+02  0.28712099449E+02  0.10500000000E+00 0. -1.
         13    1    4    4    0    0  0.25018188434E+01  0.55591515631E+01  0.10441557606E+02  0.12091336315E+02  0.10500000000E+00 0.  1.
    3000001    1    5    5    0    0 -0.14230414093E+01 -0.34504300816E+01 -0.19234712920E+02  0.19618988142E+02  0.10000000000E+01 0.  1.
        -13    1    6    6    0    0 -0.25570891444E+01 -0.80534150764E+01 -0.14467289551E+02  0.16754393192E+02  0.10500000000E+00 0.  1.
         13    1    6    6    0    0 -0.39233899339E+01 -0.12689880690E+02 -0.22498068783E+02  0.26126618313E+02  0.10500000000E+00 0. -1.
</event>
<event>
11    0  0.3439373E-009  0.9118800E+02  0.7816531E-02  0.1126479E+00
         25   -1    0    0    0    0  0.00000000000E+00  0.00000000000E+00  0.99999998245E-14  0.12500000000E+03  0.12500000000E+03 0.  0.
    3000001    1    3    3    0    0  0.25175907221E+02 -0.41449661693E+02  0.34100393361E+02  0.59293655531E+02  0.10000000000E+01 0.  1.
    1000022    2    1    0    0    0  0.27250918974E+02 -0.43858047202E+02  0.33765500069E+02  0.62499999282E+02  0.10000001301E+02 0.  0.
    3000022    2    3    3    0    0  0.20750117533E+01 -0.24083855095E+01 -0.33489329242E+00  0.32063437510E+01  0.24998438701E+00 0.  0.
    1000022    2    1    0    0    0 -0.27250918974E+02  0.43858047202E+02 -0.33765500069E+02  0.62500000718E+02  0.10000010276E+02 0.  0.
    3000022    2    5    5    0    0 -0.15282170254E+01  0.54035236428E+01 -0.78712374828E+00  0.56758765939E+01  0.24999255809E+00 0.  0.
        -13    1    4    4    0    0  0.62374940267E+00 -0.70817256447E+00 -0.14398129677E+00  0.96037873374E+00  0.10500000000E+00 0. -1.
         13    1    4    4    0    0  0.14512623506E+01 -0.17002129450E+01 -0.19091199565E+00  0.22459650173E+01  0.10500000000E+00 0.  1.
    3000001    1    5    5    0    0 -0.25722701949E+02  0.38454523560E+02 -0.32978376320E+02  0.56824124124E+02  0.10000000000E+01 0.  1.
        -13    1    6    6    0    0 -0.57607698582E+00  0.20023458543E+01 -0.23274360043E+00  0.20991541624E+01  0.10500000000E+00 0. -1.
         13    1    6    6    0    0 -0.95214003961E+00  0.34011777885E+01 -0.55438014786E+00  0.35767224315E+01  0.10500000000E+00 0.  1.
</event>
<event>
11    0  0.3439373E-009  0.9118800E+02  0.7816531E-02  0.1126479E+00
         25   -1    0    0    0    0  0.00000000000E+00  0.00000000000E+00  0.99999998245E-14  0.12500000000E+03  0.12500000000E+03 0.  0.
    3000001    1    3    3    0    0  0.12327222893E+02 -0.21511338551E+02  0.27780117730E+02  0.37248262397E+02  0.10000000000E+01 0.  1.
    1000022    2    1    0    0    0  0.18188302968E+02 -0.29653039654E+02  0.50952260353E+02  0.62500000194E+02  0.10000003181E+02 0.  0.
    3000022    2    3    3    0    0  0.58610800748E+01 -0.81417011038E+01  0.23172142623E+02  0.25251737797E+02  0.25002309902E+00 0.  0.
    1000022    2    1    0    0    0 -0.18188302968E+02  0.29653039654E+02 -0.50952260353E+02  0.62499999806E+02  0.10000000755E+02 0.  0.
    3000022    2    5    5    0    0 -0.17958764017E+02  0.22024349480E+02 -0.38337934750E+02  0.47722624792E+02  0.25000216005E+00 0.  0.
        -13    1    4    4    0    0  0.36234258330E+01 -0.49966588985E+01  0.14399856181E+02  0.15667249214E+02  0.10500000000E+00 0.  1.
         13    1    4    4    0    0  0.22376542418E+01 -0.31450422053E+01  0.87722864418E+01  0.95844885829E+01  0.10500000000E+00 0. -1.
    3000001    1    5    5    0    0 -0.22953895127E+00  0.76286901742E+01 -0.12614325602E+02  0.14777375014E+02  0.10000000000E+01 0.  1.
        -13    1    6    6    0    0 -0.47025434071E+01  0.57593523695E+01 -0.99776830440E+01  0.12443843383E+02  0.10500000000E+00 0.  1.
         13    1    6    6    0    0 -0.13256220609E+02  0.16264997111E+02 -0.28360251706E+02  0.35278781409E+02  0.10500000000E+00 0. -1.
</event>
<event>
11    0  0.3439373E-009  0.9118800E+02  0.7816531E-02  0.1126479E+00
         25   -1    0    0    0    0  0.00000000000E+00  0.00000000000E+00  0.99999998245E-14  0.12500000000E+03  0.12500000000E+03 0.  0.
    3000001    1    3    3    0    0 -0.97466864514E+01  0.91814738190E+01  0.23881954016E+02  0.27397902947E+02  0.10000000000E+01 0. -1.
    1000022    2    1    0    0    0 -0.17327308113E+02  0.30319139833E+02  0.50860238493E+02  0.62499998116E+02  0.10000002914E+02 0.  0.
    3000022    2    3    3    0    0 -0.75806216618E+01  0.21137666014E+02  0.26978284477E+02  0.35102095169E+02  0.25000528299E+00 0.  0.
    1000022    2    1    0    0    0  0.17327308113E+02 -0.30319139833E+02 -0.50860238493E+02  0.62500001884E+02  0.10000026463E+02 0.  0.
    3000022    2    5    5    0    0  0.47398251301E+01 -0.17684149520E+01 -0.81740185915E+01  0.96161481235E+01  0.24998218387E+00 0.  0.
        -13    1    4    4    0    0 -0.17889069771E+01  0.49476183408E+01  0.63230418871E+01  0.82262384554E+01  0.10500000000E+00 0.  1.
         13    1    4    4    0    0 -0.57917146846E+01  0.16190047673E+02  0.20655242590E+02  0.26875856714E+02  0.10500000000E+00 0. -1.
    3000001    1    5    5    0    0  0.12587482983E+02 -0.28550724881E+02 -0.42686219902E+02  0.52883853760E+02  0.10000000000E+01 0. -1.
        -13    1    6    6    0    0  0.14321812772E+01 -0.58335105483E+00 -0.25232374664E+01  0.29612824884E+01  0.10500000000E+00 0.  1.
         13    1    6    6    0    0  0.33076438529E+01 -0.11850638972E+01 -0.56507811251E+01  0.66548656351E+01  0.10500000000E+00 0. -1.
</event>
<event>
11    0  0.3439373E-009  0.9118800E+02  0.7816531E-02  0.1126479E+00
         25   -1    0    0    0    0  0.00000000000E+00  0.00000000000E+00  0.99999998245E-14  0.12500000000E+03  0.12500000000E+03 0.  0.
    3000001    1    3    3    0    0  0.12595435779E+02  0.58660705575E+01 -0.71225792714E+01  0.15645667826E+02  0.10000000000E+01 0.  1.
    1000022    2    1    0    0    0  0.38330225775E+02  0.33661481784E+02 -0.34697961981E+02  0.62500001039E+02  0.10000000018E+02 0.  0.
    3000022    2    3    3    0    0  0.25734789996E+02  0.27795411227E+02 -0.27575382710E+02  0.46854333213E+02  0.25001565660E+00 0.  0.
    1000022    2    1    0    0    0 -0.38330225775E+02 -0.33661481784E+02  0.34697961981E+02  0.62499998961E+02  0.99999870301E+01 0.  0.
    3000022    2    5    5    0    0 -0.30620582421E+02 -0.24567840607E+02  0.30858980810E+02  0.49935338722E+02  0.24999334906E+00 0.  0.
        -13    1    4    4    0    0  0.10103180127E+02  0.10821575454E+02 -0.10767171082E+02  0.18306385282E+02  0.10500000000E+00 0. -1.
         13    1    4    4    0    0  0.15631609869E+02  0.16973835773E+02 -0.16808211628E+02  0.28547947931E+02  0.10500000000E+00 0.  1.
    3000001    1    5    5    0    0 -0.77096433538E+01 -0.90936411770E+01  0.38389811706E+01  0.12564660239E+02  0.10000000000E+01 0.  1.
        -13    1    6    6    0    0 -0.83652419245E+01 -0.66927330774E+01  0.84645936686E+01  0.13653948860E+02  0.10500000000E+00 0.  1.
         13    1    6    6    0    0 -0.22255340497E+02 -0.17875107530E+02  0.22394387142E+02  0.36281389862E+02  0.10500000000E+00 0. -1.
</event>
<event>
11    0  0.3439373E-009  0.9118800E+02  0.7816531E-02  0.1126479E+00
         25   -1    0    0    0    0  0.00000000000E+00  0.00000000000E+00  0.99999998245E-14  0.12500000000E+03  0.12500000000E+03 0.  0.
    3000001    1    3    3    0    0  0.38731372710E+02 -0.20273868957E+02  0.38613762471E+02  0.58336709255E+02  0.10000000000E+01 0. -1.
    1000022    2    1    0    0    0  0.41107984607E+02 -0.19145826784E+02  0.41830860222E+02  0.62500000731E+02  0.10000007137E+02 0.  0.
    3000022    2    3    3    0    0  0.23766118969E+01  0.11280421723E+01  0.32170977507E+01  0.41632914761E+01  0.25002945126E+00 0.  0.
    1000022    2    1    0    0    0 -0.41107984607E+02  0.19145826784E+02 -0.41830860222E+02  0.62499999269E+02  0.99999980040E+01 0.  0.
    3000022    2    5    5    0    0 -0.21514597158E+02  0.14783449787E+02 -0.20500948038E+02  0.33193066326E+02  0.25000636075E+00 0.  0.
        -13    1    4    4    0    0  0.15135730197E+01  0.76512732333E+00  0.21307881985E+01  0.27253635453E+01  0.10500000000E+00 0. -1.
         13    1    4    4    0    0  0.86303887718E+00  0.36291484900E+00  0.10863095521E+01  0.14379279308E+01  0.10500000000E+00 0.  1.
    3000001    1    5    5    0    0 -0.19593387449E+02  0.43623769975E+01 -0.21329912184E+02  0.29306932944E+02  0.10000000000E+01 0. -1.
        -13    1    6    6    0    0 -0.73432635975E+01  0.50726270548E+01 -0.70737228209E+01  0.11388750812E+02  0.10500000000E+00 0. -1.
         13    1    6    6    0    0 -0.14171333560E+02  0.97108227319E+01 -0.13427225217E+02  0.21804315514E+02  0.10500000000E+00 0.  1.
</event>
<event>
11    0  0.3439373E-009  0.9118800E+02  0.7816531E-02  0.1126479E+00
         25   -1    0    0    0    0  0.00000000000E+00  0.00000000000E+00  0.99999998245E-14  0.12500000000E+03  0.12500000000E+03 0.  0.
    3000001    1    3    3    0    0  0.19842156044E+02  0.73700997706E+01 -0.11733676172E+02  0.24222070176E+02  0.10000000000E+01 0. -1.
    1000022    2    1    0    0    0  0.53330687983E+02  0.24309041447E+02 -0.19265463212E+02  0.62499998972E+02  0.10000001097E+02 0.  0.
    3000022    2    3    3    0    0  0.33488531939E+02  0.16938941676E+02 -0.75317870398E+01  0.38277928796E+02  0.25000072221E+00 0.  0.
    1000022    2    1    0    0    0 -0.53330687983E+02 -0.24309041447E+02  0.19265463212E+02  0.62500001028E+02  0.10000013949E+02 0.  0.
    3000022    2    5    5    0    0 -0.22689921804E+02 -0.89324083155E+01  0.30944228758E+01  0.24581668469E+02  0.25000405086E+00 0.  0.
        -13    1    4    4    0    0  0.12892986077E+02  0.65048427215E+01 -0.29590310034E+01  0.14741402860E+02  0.10500000000E+00 0. -1.
         13    1    4    4    0    0  0.20595545861E+02  0.10434098955E+02 -0.45727560364E+01  0.23536525935E+02  0.10500000000E+00 0.  1.
    3000001    1    5    5    0    0 -0.30640766179E+02 -0.15376633132E+02  0.16171040336E+02  0.37918332559E+02  0.10000000000E+01 0.  1.
        -13    1    6    6    0    0 -0.11725744555E+02 -0.45952495148E+01  0.15327869594E+01  0.12687389973E+02  0.10500000000E+00 0. -1.
         13    1    6    6    0    0 -0.10964177249E+02 -0.43371588007E+01  0.15616359164E+01  0.11894278496E+02  0.10500000000E+00 0.  1.
</event>
<event>
11    0  0.3439373E-009  0.9118800E+02  0.7816531E-02  0.1126479E+00
         25   -1    0    0    0    0  0.00000000000E+00  0.00000000000E+00  0.99999998245E-14  0.12500000000E+03  0.12500000000E+03 0.  0.
    3000001    1    3    3    0    0  0.13150840693E+01 -0.35476367924E+02 -0.41636256167E+00  0.35517256158E+02  0.10000000000E+01 0.  1.
    1000022    2    1    0    0    0  0.65309709032E+01 -0.60985504790E+02  0.66606712546E+01  0.62499999684E+02  0.10000002177E+02 0.  0.
    3000022    2    3    3    0    0  0.52158868339E+01 -0.25509136866E+02  0.70770338163E+01  0.26982743526E+02  0.25000294612E+00 0.  0.
    1000022    2    1    0    0    0 -0.65309709032E+01  0.60985504790E+02 -0.66606712546E+01  0.62500000316E+02  0.10000006122E+02 0.  0.
    3000022    2    5    5    0    0  0.42564287389E+00  0.40477894793E-01 -0.70649404801E+00  0.86281182745E+00  0.25000018730E+00 0.  0.
        -13    1    4    4    0    0  0.34910686092E+01 -0.16918650756E+02  0.46494330004E+01  0.17890124529E+02  0.10500000000E+00 0.  1.
         13    1    4    4    0    0  0.17248182246E+01 -0.85904861095E+01  0.24276008159E+01  0.90926189971E+01  0.10500000000E+00 0. -1.
    3000001    1    5    5    0    0 -0.69566137771E+01  0.60945026895E+02 -0.59541772066E+01  0.61637188488E+02  0.10000000000E+01 0.  1.
        -13    1    6    6    0    0  0.28947015056E+00  0.22677070728E-01 -0.54423783534E+00  0.62572121509E+00  0.10500000000E+00 0. -1.
         13    1    6    6    0    0  0.13617272333E+00  0.17800824065E-01 -0.16225621267E+00  0.23709061235E+00  0.10500000000E+00 0.  1.
</event>
<event>
11    0  0.3439373E-009  0.9118800E+02  0.7816531E-02  0.1126479E+00
         25   -1    0    0    0    0  0.00000000000E+00  0.00000000000E+00  0.99999998245E-14  0.12500000000E+03  0.12500000000E+03 0.  0.
    3000001    1    3    3    0    0  0.14034838550E+02  0.13459865428E+02  0.54308502370E+01  0.20214816466E+02  0.10000000000E+01 0. -1.
    1000022    2    1    0    0    0  0.51317994946E+02  0.29795557476E+02  0.16880110708E+02  0.62499998846E+02  0.99999933828E+01 0.  0.
    3000022    2    3    3    0    0  0.37283156396E+02  0.16335692048E+02  0.11449260471E+02  0.42285182379E+02  0.24999604176E+00 0.  0.
    1000022    2    1    0    0    0 -0.51317994946E+02 -0.29795557476E+02 -0.16880110708E+02  0.62500001154E+02  0.10000007808E+02 0.  0.
    3000022    2    5    5    0    0 -0.81133373042E+01 -0.45853429829E+01 -0.66007898433E+01  0.11422982896E+02  0.24999839663E+00 0.  0.
        -13    1    4    4    0    0  0.22834253538E+02  0.10029112504E+02  0.69550514100E+01  0.25891504347E+02  0.10500000000E+00 0. -1.
         13    1    4    4    0    0  0.14448902858E+02  0.63065795443E+01  0.44942090613E+01  0.16393678032E+02  0.10500000000E+00 0.  1.
    3000001    1    5    5    0    0 -0.43204657641E+02 -0.25210214493E+02 -0.10279320865E+02  0.51077018258E+02  0.10000000000E+01 0.  1.
        -13    1    6    6    0    0 -0.49743792189E+01 -0.27971099564E+01 -0.39674237822E+01  0.69512408381E+01  0.10500000000E+00 0.  1.
         13    1    6    6    0    0 -0.31389580853E+01 -0.17882330265E+01 -0.26333660611E+01  0.44717420576E+01  0.10500000000E+00 0. -1.
</event>
<event>
11    0  0.3439373E-009  0.9118800E+02  0.7816531E-02  0.1126479E+00
         25   -1    0    0    0    0  0.00000000000E+00  0.00000000000E+00  0.99999998245E-14  0.12500000000E+03  0.12500000000E+03 0.  0.
    3000001    1    3    3    0    0  0.45925957596E+01 -0.52792150729E+01 -0.22709896259E+02  0.23784478882E+02  0.10000000000E+01 0.  1.
    1000022    2    1    0    0    0  0.23223240196E+02 -0.90331350833E+01 -0.56438758629E+02  0.62499998782E+02  0.99999978801E+01 0.  0.
    3000022    2    3    3    0    0  0.18630644436E+02 -0.37539200104E+01 -0.33728862370E+02  0.38715519900E+02  0.24999366722E+00 0.  0.
    1000022    2    1    0    0    0 -0.23223240196E+02  0.90331350833E+01  0.56438758629E+02  0.62500001218E+02  0.10000013105E+02 0.  0.
    3000022    2    5    5    0    0 -0.76881647366E+01  0.43049209710E+01  0.10193142552E+02  0.13476011330E+02  0.25000940638E+00 0.  0.
        -13    1    4    4    0    0  0.84444230042E+01 -0.16570008547E+01 -0.15169406095E+02  0.17440637545E+02  0.10500000000E+00 0.  1.
         13    1    4    4    0    0  0.10186221432E+02 -0.20969191557E+01 -0.18559456275E+02  0.21274882356E+02  0.10500000000E+00 0. -1.
    3000001    1    5    5    0    0 -0.15535075459E+02  0.47282141123E+01  0.46245616077E+02  0.49023989888E+02  0.10000000000E+01 0. -1.
        -13    1    6    6    0    0 -0.55210646333E+01  0.31323168114E+01  0.73676019673E+01  0.97255409639E+01  0.10500000000E+00 0. -1.
         13    1    6    6    0    0 -0.21671001034E+01  0.11726041596E+01  0.28255405846E+01  0.37504703663E+01  0.10500000000E+00 0.  1.
</event>
<event>
11    0  0.3439373E-009  0.9118800E+02  0.7816531E-02  0.1126479E+00
         25   -1    0    0    0    0  0.00000000000E+00  0.00000000000E+00  0.99999998245E-14  0.12500000000E+03  0.12500000000E+03 0.  0.
    3000001    1    3    3    0    0 -0.32301812362E+02 -0.35783048210E+02 -0.22671839710E+02  0.53280821474E+02  0.10000000000E+01 0. -1.
    1000022    2    1    0    0    0 -0.35860697677E+02 -0.40387772132E+02 -0.29817578374E+02  0.62499998757E+02  0.10000004447E+02 0.  0.
    3000022    2    3    3    0    0 -0.35588853143E+01 -0.46047239217E+01 -0.71457386638E+01  0.92191772832E+01  0.25000330494E+00 0.  0.
    1000022    2    1    0    0    0  0.35860697677E+02  0.40387772132E+02  0.29817578374E+02  0.62500001243E+02  0.10000019979E+02 0.  0.
    3000022    2    5    5    0    0  0.19961650403E+02  0.29473173141E+02  0.20136012773E+02  0.40898128920E+02  0.25003391930E+00 0.  0.
        -13    1    4    4    0    0 -0.14948099042E+01 -0.20413644350E+01 -0.30978116263E+01  0.40011357486E+01  0.10500000000E+00 0. -1.
         13    1    4    4    0    0 -0.20640754101E+01 -0.25633594867E+01 -0.40479270375E+01  0.52180415347E+01  0.10500000000E+00 0.  1.
    3000001    1    5    5    0    0  0.15899047274E+02  0.10914598991E+02  0.96815656011E+01  0.21601872322E+02  0.10000000000E+01 0.  1.
        -13    1    6    6    0    0  0.67427086689E+01  0.98621323549E+01  0.67429898405E+01  0.13718772240E+02  0.10500000000E+00 0. -1.
         13    1    6    6    0    0  0.13218941734E+02  0.19611040786E+02  0.13393022932E+02  0.27179356680E+02  0.10500000000E+00 0.  1.
</event>
<event>
11    0  0.3439373E-009  0.9118800E+02  0.7816531E-02  0.1126479E+00
         25   -1    0    0    0    0  0.00000000000E+00  0.00000000000E+00  0.99999998245E-14  0.12500000000E+03  0.12500000000E+03 0.  0.
    3000001    1    3    3    0    0 -0.26695145505E+02  0.18076997747E+01 -0.53511120283E+01  0.27304449673E+02  0.10000000000E+01 0.  1.
    1000022    2    1    0    0    0 -0.57586393184E+02  0.13280259013E+02 -0.17711326831E+02  0.62499992164E+02  0.99999981500E+01 0.  0.
    3000022    2    3    3    0    0 -0.30891247679E+02  0.11472559238E+02 -0.12360214802E+02  0.35195542491E+02  0.25000525487E+00 0.  0.
    1000022    2    1    0    0    0  0.57586393184E+02 -0.13280259013E+02  0.17711326831E+02  0.62500007836E+02  0.10000096101E+02 0.  0.
    3000022    2    5    5    0    0  0.20241342300E+02 -0.67558092174E+00  0.32999494112E+01  0.20521221116E+02  0.25000463258E+00 0.  0.
        -13    1    4    4    0    0 -0.22545080473E+02  0.83870373639E+01 -0.90581682479E+01  0.25703783501E+02  0.10500000000E+00 0.  1.
         13    1    4    4    0    0 -0.83461672065E+01  0.30855218745E+01 -0.33020465546E+01  0.94917589901E+01  0.10500000000E+00 0. -1.
    3000001    1    5    5    0    0  0.37345050884E+02 -0.12604678091E+02  0.14411377420E+02  0.41978786720E+02  0.10000000000E+01 0.  1.
        -13    1    6    6    0    0  0.12298653223E+02 -0.40229149968E+00  0.20674935299E+01  0.12478151468E+02  0.10500000000E+00 0. -1.
         13    1    6    6    0    0  0.79426890763E+01 -0.27328942206E+00  0.12324558813E+01  0.80430696485E+01  0.10500000000E+00 0.  1.
</event>
<event>
11    0  0.3439373E-009  0.9118800E+02  0.7816531E-02  0.1126479E+00
         25   -1    0    0    0    0  0.00000000000E+00  0.00000000000E+00  0.99999998245E-14  0.12500000000E+03  0.12500000000E+03 0.  0.
    3000001    1    3    3    0    0  0.75077237991E+01 -0.11029124031E+02  0.86686821234E+00  0.13407421602E+02  0.10000000000E+01 0.  1.
    1000022    2    1    0    0    0  0.42435704506E+02 -0.43386598739E+02 -0.11093440908E+02  0.62500002506E+02  0.99999957461E+01 0.  0.
    3000022    2    3    3    0    0  0.34927980707E+02 -0.32357474709E+02 -0.11960309120E+02  0.49092580904E+02  0.24999938448E+00 0.  0.
    1000022    2    1    0    0    0 -0.42435704506E+02  0.43386598739E+02  0.11093440908E+02  0.62499997494E+02  0.99999644232E+01 0.  0.
    3000022    2    5    5    0    0 -0.94239153329E+01  0.11965223361E+02 -0.12160841523E+01  0.15281299266E+02  0.24999265549E+00 0.  0.
        -13    1    4    4    0    0  0.20776835848E+02 -0.19325822271E+02 -0.71560259594E+01  0.29264040166E+02  0.10500000000E+00 0.  1.
         13    1    4    4    0    0  0.14151144859E+02 -0.13031652438E+02 -0.48042831608E+01  0.19828540737E+02  0.10500000000E+00 0. -1.
    3000001    1    5    5    0    0 -0.33011789174E+02  0.31421375379E+02  0.12309525060E+02  0.47218698228E+02  0.10000000000E+01 0.  1.
        -13    1    6    6    0    0 -0.65353479380E+01  0.83548638693E+01 -0.87757473537E+00  0.10644044596E+02  0.10500000000E+00 0.  1.
         13    1    6    6    0    0 -0.28885673948E+01  0.36103594914E+01 -0.33850941695E+00  0.46372546703E+01  0.10500000000E+00 0. -1.
</event>
<event>
11    0  0.3439373E-009  0.9118800E+02  0.7816531E-02  0.1126479E+00
         25   -1    0    0    0    0  0.00000000000E+00  0.00000000000E+00  0.99999998245E-14  0.12500000000E+03  0.12500000000E+03 0.  0.
    3000001    1    3    3    0    0 -0.21896387331E+00 -0.80430130142E+00 -0.61354223163E+00  0.14391941604E+01  0.10000000000E+01 0. -1.
    1000022    2    1    0    0    0 -0.55459034143E+02 -0.21183676028E+02 -0.16786826173E+02  0.62499999017E+02  0.99999873016E+01 0.  0.
    3000022    2    3    3    0    0 -0.55240070270E+02 -0.20379374726E+02 -0.16173283941E+02  0.61060804857E+02  0.24999729166E+00 0.  0.
    1000022    2    1    0    0    0  0.55459034143E+02  0.21183676028E+02  0.16786826173E+02  0.62500000983E+02  0.99999995883E+01 0.  0.
    3000022    2    5    5    0    0  0.31282851461E+01  0.30618190731E+01 -0.64803535654E+00  0.44320805223E+01  0.24996787972E+00 0.  0.
        -13    1    4    4    0    0 -0.31068337894E+02 -0.11508708315E+02 -0.90496511030E+01  0.34345293661E+02  0.10500000000E+00 0.  1.
         13    1    4    4    0    0 -0.24171732376E+02 -0.88706664114E+01 -0.71236328382E+01  0.26715511195E+02  0.10500000000E+00 0. -1.
    3000001    1    5    5    0    0  0.52330748997E+02  0.18121856955E+02  0.17434861529E+02  0.58067920461E+02  0.10000000000E+01 0. -1.
        -13    1    6    6    0    0  0.88494829240E+00  0.82246137355E+00 -0.20172891817E+00  0.12293476919E+01  0.10500000000E+00 0.  1.
         13    1    6    6    0    0  0.22433368537E+01  0.22393576995E+01 -0.44630643836E+00  0.32027328303E+01  0.10500000000E+00 0. -1.
</event>
<event>
11    0  0.3439373E-009  0.9118800E+02  0.7816531E-02  0.1126479E+00
         25   -1    0    0    0    0  0.00000000000E+00  0.00000000000E+00  0.99999998245E-14  0.12500000000E+03  0.12500000000E+03 0.  0.
    3000001    1    3    3    0    0  0.18574214425E+02  0.56583731599E+01 -0.45719058654E+01  0.19973005571E+02  0.10000000000E+01 0.  1.
    1000022    2    1    0    0    0  0.56734295526E+02  0.24186672966E+02 -0.15730493030E+01  0.62500000839E+02  0.10000009136E+02 0.  0.
    3000022    2    3    3    0    0  0.38160081102E+02  0.18528299806E+02  0.29988565624E+01  0.42526995268E+02  0.25000483562E+00 0.  0.
    1000022    2    1    0    0    0 -0.56734295526E+02 -0.24186672966E+02  0.15730493030E+01  0.62499999161E+02  0.99999986487E+01 0.  0.
    3000022    2    5    5    0    0 -0.17650602093E+02 -0.12549274930E+02 -0.37575463204E+00  0.21661757742E+02  0.25000280585E+00 0.  0.
        -13    1    4    4    0    0  0.15848357791E+02  0.76792715373E+01  0.11819821844E+01  0.17650772304E+02  0.10500000000E+00 0. -1.
         13    1    4    4    0    0  0.22311723310E+02  0.10849028269E+02  0.18168743781E+01  0.24876222964E+02  0.10500000000E+00 0.  1.
    3000001    1    5    5    0    0 -0.39083693433E+02 -0.11637398036E+02  0.19488039350E+01  0.40838241419E+02  0.10000000000E+01 0. -1.
        -13    1    6    6    0    0 -0.46422528078E+01 -0.33207677715E+01 -0.12794616568E+00  0.57101142673E+01  0.10500000000E+00 0. -1.
         13    1    6    6    0    0 -0.13008349286E+02 -0.92285071585E+01 -0.24780846636E+00  0.15951643475E+02  0.10500000000E+00 0.  1.
</event>
<event>
11    0  0.3439373E-009  0.9118800E+02  0.7816531E-02  0.1126479E+00
         25   -1    0    0    0    0  0.00000000000E+00  0.00000000000E+00  0.99999998245E-14  0.12500000000E+03  0.12500000000E+03 0.  0.
    3000001    1    3    3    0    0 -0.22610210541E+02 -0.19488825740E+02 -0.41050738498E+01  0.30147762450E+02  0.10000000000E+01 0.  1.
    1000022    2    1    0    0    0 -0.39557333339E+02 -0.45305238047E+02 -0.13744190832E+02  0.62499999093E+02  0.99999944821E+01 0.  0.
    3000022    2    3    3    0    0 -0.16947122797E+02 -0.25816412307E+02 -0.96391169822E+01  0.32352236643E+02  0.25004815685E+00 0.  0.
    1000022    2    1    0    0    0  0.39557333339E+02  0.45305238047E+02  0.13744190832E+02  0.62500000907E+02  0.10000005818E+02 0.  0.
    3000022    2    5    5    0    0  0.12526324099E+02  0.14447209734E+02 -0.30740548068E+00  0.19125576060E+02  0.24999390669E+00 0.  0.
        -13    1    4    4    0    0 -0.12598423394E+02 -0.19240439449E+02 -0.71653775966E+01  0.24088761763E+02  0.10500000000E+00 0.  1.
         13    1    4    4    0    0 -0.43486994038E+01 -0.65759728584E+01 -0.24737393855E+01  0.82634748797E+01  0.10500000000E+00 0. -1.
    3000001    1    5    5    0    0  0.27031009239E+02  0.30858028313E+02  0.14051596313E+02  0.43374424847E+02  0.10000000000E+01 0.  1.
        -13    1    6    6    0    0  0.84607775170E+01  0.97234816853E+01 -0.16041994348E+00  0.12890601686E+02  0.10500000000E+00 0. -1.
         13    1    6    6    0    0  0.40655465824E+01  0.47237280490E+01 -0.14698553720E+00  0.62349743739E+01  0.10500000000E+00 0.  1.
</event>
<event>
11    0  0.3439373E-009  0.9118800E+02  0.7816531E-02  0.1126479E+00
         25   -1    0    0    0    0  0.00000000000E+00  0.00000000000E+00  0.99999998245E-14  0.12500000000E+03  0.12500000000E+03 0.  0.
    3000001    1    3    3    0    0 -0.17348733084E+01  0.18340545204E+02 -0.31880072866E+02  0.36833740371E+02  0.10000000000E+01 0.  1.
    1000022    2    1    0    0    0 -0.68516309478E+01  0.24186854981E+02 -0.56340936287E+02  0.62500000117E+02  0.10000005622E+02 0.  0.
    3000022    2    3    3    0    0 -0.51167576394E+01  0.58463097775E+01 -0.24460863421E+02  0.25666259747E+02  0.25000664198E+00 0.  0.
    1000022    2    1    0    0    0  0.68516309478E+01 -0.24186854981E+02  0.56340936287E+02  0.62499999883E+02  0.10000004156E+02 0.  0.
    3000022    2    5    5    0    0  0.68014030571E+01 -0.15403213709E+02  0.26683442330E+02  0.31552918847E+02  0.25003410507E+00 0.  0.
        -13    1    4    4    0    0 -0.28317261093E+01  0.31338483865E+01 -0.13290171200E+02  0.13945585466E+02  0.10500000000E+00 0.  1.
         13    1    4    4    0    0 -0.22850315300E+01  0.27124613910E+01 -0.11170692221E+02  0.11720674280E+02  0.10500000000E+00 0. -1.
    3000001    1    5    5    0    0  0.50227890686E-01 -0.87836412717E+01  0.29657493957E+02  0.30947081036E+02  0.10000000000E+01 0.  1.
        -13    1    6    6    0    0  0.17671956096E+01 -0.40708234744E+01  0.69993799509E+01  0.82883610430E+01  0.10500000000E+00 0.  1.
         13    1    6    6    0    0  0.50342074475E+01 -0.11332390235E+02  0.19684062379E+02  0.23264557804E+02  0.10500000000E+00 0. -1.
</event>
<event>
11    0  0.3439373E-009  0.9118800E+02  0.7816531E-02  0.1126479E+00
         25   -1    0    0    0    0  0.00000000000E+00  0.00000000000E+00  0.99999998245E-14  0.12500000000E+03  0.12500000000E+03 0.  0.
    3000001    1    3    3    0    0  0.21077794808E+01  0.25146204811E+00 -0.67708043220E+00  0.24422132202E+01  0.10000000000E+01 0. -1.
    1000022    2    1    0    0    0  0.32328883643E+02 -0.54126892744E+01 -0.52266587873E+02  0.62499998146E+02  0.99999818746E+01 0.  0.
    3000022    2    3    3    0    0  0.30221104162E+02 -0.56641513225E+01 -0.51589507441E+02  0.60057784925E+02  0.25001026839E+00 0.  0.
    1000022    2    1    0    0    0 -0.32328883643E+02  0.54126892744E+01  0.52266587873E+02  0.62500001854E+02  0.10000005054E+02 0.  0.
    3000022    2    5    5    0    0 -0.30082725475E+02  0.56478787631E+01  0.42184033961E+02  0.52119325864E+02  0.25000159182E+00 0.  0.
        -13    1    4    4    0    0  0.22796196311E+02 -0.42936264109E+01 -0.38898423053E+02  0.45290177026E+02  0.10500000000E+00 0. -1.
         13    1    4    4    0    0  0.74249078513E+01 -0.13705249116E+01 -0.12691084388E+02  0.14767607900E+02  0.10500000000E+00 0.  1.
    3000001    1    5    5    0    0 -0.22461581677E+01 -0.23518948875E+00  0.10082553913E+02  0.10380675990E+02  0.10000000000E+01 0. -1.
        -13    1    6    6    0    0 -0.99668355838E+01  0.19251913290E+01  0.13997024489E+02  0.17290803705E+02  0.10500000000E+00 0. -1.
         13    1    6    6    0    0 -0.20115889891E+02  0.37226874341E+01  0.28187009471E+02  0.34828522159E+02  0.10500000000E+00 0.  1.
</event>
<event>
11    0  0.3439373E-009  0.9118800E+02  0.7816531E-02  0.1126479E+00
         25   -1    0    0    0    0  0.00000000000E+00  0.00000000000E+00  0.99999998245E-14  0.12500000000E+03  0.12500000000E+03 0.  0.
    3000001    1    3    3    0    0 -0.71073405419E+01 -0.10892496142E+02  0.73983159211E+01  0.14996527606E+02  0.10000000000E+01 0.  1.
    1000022    2    1    0    0    0 -0.16030327588E+02 -0.42825244098E+02  0.41415911778E+02  0.62499994893E+02  0.99999339286E+01 0.  0.
    3000022    2    3    3    0    0 -0.89229870463E+01 -0.31932747956E+02  0.34017595856E+02  0.47503467286E+02  0.24997302266E+00 0.  0.
    1000022    2    1    0    0    0  0.16030327588E+02  0.42825244098E+02 -0.41415911778E+02  0.62500005107E+02  0.99999977710E+01 0.  0.
    3000022    2    5    5    0    0  0.14540047774E+02  0.36983636436E+02 -0.30908881964E+02  0.50345047703E+02  0.24998125338E+00 0.  0.
        -13    1    4    4    0    0 -0.42147789912E+01 -0.14835324309E+02  0.15834350822E+02  0.22104047146E+02  0.10500000000E+00 0. -1.
         13    1    4    4    0    0 -0.47082080551E+01 -0.17097423647E+02  0.18183245034E+02  0.25399420140E+02  0.10500000000E+00 0.  1.
    3000001    1    5    5    0    0  0.14902798140E+01  0.58416076618E+01 -0.10507029814E+02  0.12154957405E+02  0.10000000000E+01 0.  1.
        -13    1    6    6    0    0  0.60418899185E+01  0.15484245599E+02 -0.12866291393E+02  0.21019485597E+02  0.10500000000E+00 0. -1.
         13    1    6    6    0    0  0.84981578556E+01  0.21499390837E+02 -0.18042590571E+02  0.29325562106E+02  0.10500000000E+00 0.  1.
</event>
<event>
11    0  0.3439373E-009  0.9118800E+02  0.7816531E-02  0.1126479E+00
         25   -1    0    0    0    0  0.00000000000E+00  0.00000000000E+00  0.99999998245E-14  0.12500000000E+03  0.12500000000E+03 0.  0.
    3000001    1    3    3    0    0 -0.43295404410E+00 -0.47043005583E+01 -0.15534110112E+02  0.16267343665E+02  0.10000000000E+01 0.  1.
    1000022    2    1    0    0    0 -0.11750542758E+02 -0.29323512892E+02 -0.52993454543E+02  0.62499998973E+02  0.99999991883E+01 0.  0.
    3000022    2    3    3    0    0 -0.11317588713E+02 -0.24619212334E+02 -0.37459344431E+02  0.46232655308E+02  0.25000275082E+00 0.  0.
    1000022    2    1    0    0    0  0.11750542758E+02  0.29323512892E+02  0.52993454543E+02  0.62500001027E+02  0.10000012031E+02 0.  0.
    3000022    2    5    5    0    0  0.46110464024E+00  0.31066210189E+01  0.12862993613E+02  0.13243217465E+02  0.24998497537E+00 0.  0.
        -13    1    4    4    0    0 -0.67319857431E+01 -0.14611965945E+02 -0.22134914260E+02  0.27364112175E+02  0.10500000000E+00 0.  1.
         13    1    4    4    0    0 -0.45856029704E+01 -0.10007246389E+02 -0.15324430171E+02  0.18868543133E+02  0.10500000000E+00 0. -1.
    3000001    1    5    5    0    0  0.11289438117E+02  0.26216891873E+02  0.40130460930E+02  0.49256783563E+02  0.10000000000E+01 0.  1.
        -13    1    6    6    0    0  0.19012257305E+00  0.16153611296E+01  0.64614307145E+01  0.66638314842E+01  0.10500000000E+00 0. -1.
         13    1    6    6    0    0  0.27098206719E+00  0.14912598894E+01  0.64015628983E+01  0.65793859805E+01  0.10500000000E+00 0.  1.
</event>
<event>
11    0  0.3439373E-009  0.9118800E+02  0.7816531E-02  0.1126479E+00
         25   -1    0    0    0    0  0.00000000000E+00  0.00000000000E+00  0.99999998245E-14  0.12500000000E+03  0.12500000000E+03 0.  0.
    3000001    1    3    3    0    0  0.30442370572E+01 -0.70320691079E+01  0.27417157713E+01  0.81996573446E+01  0.10000000000E+01 0. -1.
    1000022    2    1    0    0    0  0.19319753498E+02 -0.41027929411E+02  0.41829486833E+02  0.62500000866E+02  0.10000013631E+02 0.  0.
    3000022    2    3    3    0    0  0.16275516441E+02 -0.33995860303E+02  0.39087771062E+02  0.54300343522E+02  0.25001370848E+00 0.  0.
    1000022    2    1    0    0    0 -0.19319753498E+02  0.41027929411E+02 -0.41829486833E+02  0.62499999134E+02  0.10000002802E+02 0.  0.
    3000022    2    5    5    0    0 -0.76657555085E+01  0.22526647752E+02 -0.27361530818E+02  0.36261957221E+02  0.25001269155E+00 0.  0.
        -13    1    4    4    0    0  0.10979324984E+02 -0.22998417202E+02  0.26491200893E+02  0.36759590867E+02  0.10500000000E+00 0. -1.
         13    1    4    4    0    0  0.52961914563E+01 -0.10997443101E+02  0.12596570168E+02  0.17540752655E+02  0.10500000000E+00 0.  1.
    3000001    1    5    5    0    0 -0.11653997989E+02  0.18501281659E+02 -0.14467956015E+02  0.26238041913E+02  0.10000000000E+01 0.  1.
        -13    1    6    6    0    0 -0.37403912444E+01  0.11166942421E+02 -0.13484442523E+02  0.17903417127E+02  0.10500000000E+00 0.  1.
         13    1    6    6    0    0 -0.39253642641E+01  0.11359705331E+02 -0.13877088295E+02  0.18358540094E+02  0.10500000000E+00 0. -1.
</event>
<event>
11    0  0.3439373E-009  0.9118800E+02  0.7816531E-02  0.1126479E+00
         25   -1    0    0    0    0  0.00000000000E+00  0.00000000000E+00  0.99999998245E-14  0.12500000000E+03  0.12500000000E+03 0.  0.
    3000001    1    3    3    0    0 -0.58187766139E+01 -0.95677417210E+01  0.43607746015E+01  0.12058863879E+02  0.10000000000E+01 0. -1.
    1000022    2    1    0    0    0 -0.13097699505E+02 -0.50577557693E+02  0.32811750240E+02  0.62500000286E+02  0.10000000373E+02 0.  0.
    3000022    2    3    3    0    0 -0.72789228908E+01 -0.41009815972E+02  0.28450975639E+02  0.50441136407E+02  0.25000555297E+00 0.  0.
    1000022    2    1    0    0    0  0.13097699505E+02  0.50577557693E+02 -0.32811750240E+02  0.62499999714E+02  0.99999967977E+01 0.  0.
    3000022    2    5    5    0    0  0.13045192620E+02  0.31760866475E+02 -0.20483019512E+02  0.39981824239E+02  0.24998282071E+00 0.  0.
        -13    1    4    4    0    0 -0.23211171470E+01 -0.12860549076E+02  0.88886605303E+01  0.15805082043E+02  0.10500000000E+00 0. -1.
         13    1    4    4    0    0 -0.49578057438E+01 -0.28149266895E+02  0.19562315108E+02  0.34636054364E+02  0.10500000000E+00 0.  1.
    3000001    1    5    5    0    0  0.52506884638E-01  0.18816691218E+02 -0.12328730728E+02  0.22518175475E+02  0.10000000000E+01 0. -1.
        -13    1    6    6    0    0  0.60332397169E+01  0.14848555111E+02 -0.95271843908E+01  0.18645584941E+02  0.10500000000E+00 0.  1.
         13    1    6    6    0    0  0.70119529032E+01  0.16912311364E+02 -0.10955835121E+02  0.21336239298E+02  0.10500000000E+00 0. -1.
</event>
<event>
11    0  0.3439373E-009  0.9118800E+02  0.7816531E-02  0.1126479E+00
         25   -1    0    0    0    0  0.00000000000E+00  0.00000000000E+00  0.99999998245E-14  0.12500000000E+03  0.12500000000E+03 0.  0.
    3000001    1    3    3    0    0  0.15186725795E+01 -0.13161082794E+01 -0.10005341722E+01  0.24575548899E+01  0.10000000000E+01 0. -1.
    1000022    2    1    0    0    0  0.21916056782E+01 -0.40464551495E+02 -0.46519537006E+02  0.62500002998E+02  0.99999994178E+01 0.  0.
    3000022    2    3    3    0    0  0.67293309869E+00 -0.39148443216E+02 -0.45519002834E+02  0.60042448108E+02  0.25002134576E+00 0.  0.
    1000022    2    1    0    0    0 -0.21916056782E+01  0.40464551495E+02  0.46519537006E+02  0.62499997002E+02  0.99999619379E+01 0.  0.
    3000022    2    5    5    0    0  0.29161654132E+01  0.20074510397E+02  0.18479432858E+02  0.27441609387E+02  0.24999717723E+00 0.  0.
        -13    1    4    4    0    0  0.16121134833E+00 -0.12131345269E+02 -0.14089190032E+02  0.18593327510E+02  0.10500000000E+00 0.  1.
         13    1    4    4    0    0  0.51172175037E+00 -0.27017097947E+02 -0.31429812802E+02  0.41449120599E+02  0.10500000000E+00 0. -1.
    3000001    1    5    5    0    0 -0.51077710914E+01  0.20390041099E+02  0.28040104148E+02  0.35058387615E+02  0.10000000000E+01 0.  1.
        -13    1    6    6    0    0  0.13205801350E+01  0.95207723363E+01  0.87195055705E+01  0.12978052249E+02  0.10500000000E+00 0.  1.
         13    1    6    6    0    0  0.15955852782E+01  0.10553738060E+02  0.97599272880E+01  0.14463557138E+02  0.10500000000E+00 0. -1.
</event>
<event>
11    0  0.3439373E-009  0.9118800E+02  0.7816531E-02  0.1126479E+00
         25   -1    0    0    0    0  0.00000000000E+00  0.00000000000E+00  0.99999998245E-14  0.12500000000E+03  0.12500000000E+03 0.  0.
    3000001    1    3    3    0    0  0.26137838375E+02 -0.49851095832E+01 -0.49784832477E+02  0.56458546361E+02  0.10000000000E+01 0. -1.
    1000022    2    1    0    0    0  0.26453059393E+02 -0.76026754621E+01 -0.55214898361E+02  0.62499997567E+02  0.99999834724E+01 0.  0.
    3000022    2    3    3    0    0  0.31522101754E+00 -0.26175658789E+01 -0.54300658842E+01  0.60414512058E+01  0.25000348981E+00 0.  0.
    1000022    2    1    0    0    0 -0.26453059393E+02  0.76026754621E+01  0.55214898361E+02  0.62500002433E+02  0.10000013886E+02 0.  0.
    3000022    2    5    5    0    0 -0.17004654276E+01  0.23835439698E+01  0.19556643304E+01  0.35298722735E+01  0.25002153455E+00 0.  0.
        -13    1    4    4    0    0  0.12722179385E+00 -0.12587083973E+01 -0.27502382609E+01  0.30290869426E+01  0.10500000000E+00 0.  1.
         13    1    4    4    0    0  0.18799922369E+00 -0.13588574816E+01 -0.26798276233E+01  0.30123642632E+01  0.10500000000E+00 0. -1.
    3000001    1    5    5    0    0 -0.24752593965E+02  0.52191314924E+01  0.53259234031E+02  0.58970130160E+02  0.10000000000E+01 0. -1.
        -13    1    6    6    0    0 -0.55213588522E+00  0.84247423274E+00  0.72104896250E+00  0.12432029098E+01  0.10500000000E+00 0. -1.
         13    1    6    6    0    0 -0.11483295424E+01  0.15410697370E+01  0.12346153679E+01  0.22866693637E+01  0.10500000000E+00 0.  1.
</event>
<event>
11    0  0.3439373E-009  0.9118800E+02  0.7816531E-02  0.1126479E+00
         25   -1    0    0    0    0  0.00000000000E+00  0.00000000000E+00  0.99999998245E-14  0.12500000000E+03  0.12500000000E+03 0.  0.
    3000001    1    3    3    0    0  0.34083997521E+01  0.41846438613E+01 -0.12926875215E+02  0.14043950154E+02  0.10000000000E+01 0.  1.
    1000022    2    1    0    0    0 -0.29412625906E+01  0.19280200583E+02 -0.58530955840E+02  0.62499999478E+02  0.99999991535E+01 0.  0.
    3000022    2    3    3    0    0 -0.63496623428E+01  0.15095556722E+02 -0.45604080625E+02  0.48456049324E+02  0.25000359696E+00 0.  0.
    1000022    2    1    0    0    0  0.29412625906E+01 -0.19280200583E+02  0.58530955840E+02  0.62500000522E+02  0.10000005679E+02 0.  0.
    3000022    2    5    5    0    0 -0.56040505923E+00  0.10553507663E+01  0.42011844164E+01  0.43749595505E+01  0.25000299580E+00 0.  0.
        -13    1    4    4    0    0 -0.41106986278E+01  0.98007801437E+01 -0.29429485858E+02  0.31289915268E+02  0.10500000000E+00 0. -1.
         13    1    4    4    0    0 -0.22389637150E+01  0.52947765781E+01 -0.16174594767E+02  0.17166134056E+02  0.10500000000E+00 0.  1.
    3000001    1    5    5    0    0  0.35016676499E+01 -0.20335551349E+02  0.54329771423E+02  0.58125040972E+02  0.10000000000E+01 0.  1.
        -13    1    6    6    0    0 -0.30272188074E+00  0.47504193452E+00  0.21608855995E+01  0.22355663601E+01  0.10500000000E+00 0.  1.
         13    1    6    6    0    0 -0.25768317849E+00  0.58030883180E+00  0.20402988169E+01  0.21393931904E+01  0.10500000000E+00 0. -1.
</event>
<event>
11    0  0.3439373E-009  0.9118800E+02  0.7816531E-02  0.1126479E+00
         25   -1    0    0    0    0  0.00000000000E+00  0.00000000000E+00  0.99999998245E-14  0.12500000000E+03  0.12500000000E+03 0.  0.
    3000001    1    3    3    0    0 -0.84397838435E+01  0.12885461557E+02  0.19533051613E+01  0.15558935437E+02  0.10000000000E+01 0. -1.
    1000022    2    1    0    0    0 -0.41862910325E+02  0.41304654970E+02  0.18645969970E+02  0.62499999490E+02  0.99999978509E+01 0.  0.
    3000022    2    3    3    0    0 -0.33423126481E+02  0.28419193413E+02  0.16692664809E+02  0.46941064053E+02  0.24999597906E+00 0.  0.
    1000022    2    1    0    0    0  0.41862910325E+02 -0.41304654970E+02 -0.18645969970E+02  0.62500000510E+02  0.10000004228E+02 0.  0.
    3000022    2    5    5    0    0  0.19182871135E+02 -0.18587138460E+02 -0.33308583696E+01  0.26918792304E+02  0.25000106903E+00 0.  0.
        -13    1    4    4    0    0 -0.13888128778E+02  0.11888930144E+02  0.69333925489E+01  0.19552742471E+02  0.10500000000E+00 0.  1.
         13    1    4    4    0    0 -0.19534997703E+02  0.16530263270E+02  0.97592722603E+01  0.27388321582E+02  0.10500000000E+00 0. -1.
    3000001    1    5    5    0    0  0.22680039190E+02 -0.22717516511E+02 -0.15315111601E+02  0.35581208206E+02  0.10000000000E+01 0. -1.
        -13    1    6    6    0    0  0.12264050335E+02 -0.11911451174E+02 -0.21867529074E+01  0.17236081718E+02  0.10500000000E+00 0.  1.
         13    1    6    6    0    0  0.69188207996E+01 -0.66756872857E+01 -0.11441054622E+01  0.96827105865E+01  0.10500000000E+00 0. -1.
</event>
<event>
11    0  0.3439373E-009  0.9118800E+02  0.7816531E-02  0.1126479E+00
         25   -1    0    0    0    0  0.00000000000E+00  0.00000000000E+00  0.99999998245E-14  0.12500000000E+03  0.12500000000E+03 0.  0.
    3000001    1    3    3    0    0  0.56078239565E+01  0.18686957682E+02  0.14431188881E+02  0.24288048284E+02  0.10000000000E+01 0. -1.
    1000022    2    1    0    0    0  0.71442103097E+01  0.53961312153E+02  0.29041128588E+02  0.62500001343E+02  0.10000003405E+02 0.  0.
    3000022    2    3    3    0    0  0.15363863531E+01  0.35274354470E+02  0.14609939707E+02  0.38211953059E+02  0.24990402756E+00 0.  0.
    1000022    2    1    0    0    0 -0.71442103097E+01 -0.53961312153E+02 -0.29041128588E+02  0.62499998657E+02  0.99999866126E+01 0.  0.
    3000022    2    5    5    0    0  0.16614884068E+01 -0.24976527277E+02 -0.13301947922E+02  0.28347694310E+02  0.24999123646E+00 0.  0.
        -13    1    4    4    0    0  0.41498918900E+00  0.10484962638E+02  0.43603266472E+01  0.11363543946E+02  0.10500000000E+00 0.  1.
         13    1    4    4    0    0  0.11213971641E+01  0.24789391832E+02  0.10249613059E+02  0.26848409113E+02  0.10500000000E+00 0. -1.
    3000001    1    5    5    0    0 -0.88056987164E+01 -0.28984784875E+02 -0.15739180666E+02  0.34152304347E+02  0.10000000000E+01 0.  1.
        -13    1    6    6    0    0  0.81287622969E+00 -0.11753591106E+02 -0.61930032914E+01  0.13310596771E+02  0.10500000000E+00 0. -1.
         13    1    6    6    0    0  0.84861217707E+00 -0.13222936172E+02 -0.71089446302E+01  0.15037097539E+02  0.10500000000E+00 0.  1.
</event>
<event>
11    0  0.3439373E-009  0.9118800E+02  0.7816531E-02  0.1126479E+00
         25   -1    0    0    0    0  0.00000000000E+00  0.00000000000E+00  0.99999998245E-14  0.12500000000E+03  0.12500000000E+03 0.  0.
    3000001    1    3    3    0    0  0.19404364262E+02 -0.14513791437E+01  0.43842146094E+02  0.47976761332E+02  0.10000000000E+01 0. -1.
    1000022    2    1    0    0    0  0.20035959321E+02 -0.99410478689E+00  0.58342283091E+02  0.62500000196E+02  0.10000005902E+02 0.  0.
    3000022    2    3    3    0    0  0.63159505931E+00  0.45727435681E+00  0.14500136998E+02  0.14523238865E+02  0.24996402055E+00 0.  0.
    1000022    2    1    0    0    0 -0.20035959321E+02  0.99410478689E+00 -0.58342283091E+02  0.62499999804E+02  0.10000003446E+02 0.  0.
    3000022    2    5    5    0    0 -0.22390013025E+01 -0.32479843450E+01 -0.13254588810E+02  0.13831455440E+02  0.25001183398E+00 0.  0.
        -13    1    4    4    0    0  0.20459357695E+00  0.22358298324E+00  0.55518235067E+01  0.55610805724E+01  0.10500000000E+00 0.  1.
         13    1    4    4    0    0  0.42700148236E+00  0.23369137358E+00  0.89483134908E+01  0.89621582922E+01  0.10500000000E+00 0. -1.
    3000001    1    5    5    0    0 -0.17796958018E+02  0.42420891319E+01 -0.45087694281E+02  0.48668544364E+02  0.10000000000E+01 0. -1.
        -13    1    6    6    0    0 -0.16934944592E+01 -0.24072398410E+01 -0.98517854781E+01  0.10282578920E+02  0.10500000000E+00 0.  1.
         13    1    6    6    0    0 -0.54550684333E+00 -0.84074450405E+00 -0.34028033322E+01  0.35488765201E+01  0.10500000000E+00 0. -1.
</event>
<event>
11    0  0.3439373E-009  0.9118800E+02  0.7816531E-02  0.1126479E+00
         25   -1    0    0    0    0  0.00000000000E+00  0.00000000000E+00  0.99999998245E-14  0.12500000000E+03  0.12500000000E+03 0.  0.
    3000001    1    3    3    0    0  0.55956275473E+02 -0.17991155595E+02  0.15446779021E+02  0.60781489177E+02  0.10000000000E+01 0. -1.
    1000022    2    1    0    0    0  0.57174306187E+02 -0.18252498524E+02  0.14289678101E+02  0.62500001159E+02  0.10000012715E+02 0.  0.
    3000022    2    3    3    0    0  0.12180307143E+01 -0.26134292977E+00 -0.11571009200E+01  0.17185119825E+01  0.25000389375E+00 0.  0.
    1000022    2    1    0    0    0 -0.57174306187E+02  0.18252498524E+02 -0.14289678101E+02  0.62499998841E+02  0.99999982285E+01 0.  0.
    3000022    2    5    5    0    0 -0.15278713937E+02  0.55632954605E+01  0.53847453612E+00  0.16270888585E+02  0.25000919441E+00 0.  0.
        -13    1    4    4    0    0  0.79875864623E+00 -0.15629703235E+00 -0.67526243792E+00  0.10627551446E+01  0.10500000000E+00 0.  1.
         13    1    4    4    0    0  0.41927206805E+00 -0.10504589742E+00 -0.48183848208E+00  0.65575683788E+00  0.10500000000E+00 0. -1.
    3000001    1    5    5    0    0 -0.41895592250E+02  0.12689203064E+02 -0.14828152637E+02  0.46229110256E+02  0.10000000000E+01 0. -1.
        -13    1    6    6    0    0 -0.10085188911E+02  0.36375202189E+01  0.31083013788E+00  0.10726146982E+02  0.10500000000E+00 0. -1.
         13    1    6    6    0    0 -0.51935250256E+01  0.19257752416E+01  0.22764439824E+00  0.55447416030E+01  0.10500000000E+00 0.  1.
</event>
<event>
11    0  0.3439373E-009  0.9118800E+02  0.7816531E-02  0.1126479E+00
         25   -1    0    0    0    0  0.00000000000E+00  0.00000000000E+00  0.99999998245E-14  0.12500000000E+03  0.12500000000E+03 0.  0.
    3000001    1    3    3    0    0 -0.41561938338E+02 -0.17134831643E+02  0.12443193106E+02  0.46656513248E+02  0.10000000000E+01 0.  1.
    1000022    2    1    0    0    0 -0.57261023523E+02 -0.17863249536E+02  0.14433613829E+02  0.62500002082E+02  0.10000027659E+02 0.  0.
    3000022    2    3    3    0    0 -0.15699085185E+02 -0.72841789369E+00  0.19904207227E+01  0.15843488833E+02  0.24999096898E+00 0.  0.
    1000022    2    1    0    0    0  0.57261023523E+02  0.17863249536E+02 -0.14433613829E+02  0.62499997918E+02  0.10000001638E+02 0.  0.
    3000022    2    5    5    0    0  0.54843862403E+02  0.18825529451E+02 -0.14226060616E+02  0.59705050897E+02  0.24999933988E+00 0.  0.
        -13    1    4    4    0    0 -0.11102063259E+02 -0.53907631965E+00  0.13706853947E+01  0.11199831040E+02  0.10500000000E+00 0.  1.
         13    1    4    4    0    0 -0.45970219263E+01 -0.18934157405E+00  0.61973532795E+00  0.46436577931E+01  0.10500000000E+00 0. -1.
    3000001    1    5    5    0    0  0.24171611200E+01 -0.96227991436E+00 -0.20755321314E+00  0.27949470209E+01  0.10000000000E+01 0. -1.
        -13    1    6    6    0    0  0.15757398674E+02  0.54167845781E+01 -0.41307037145E+01  0.17167146132E+02  0.10500000000E+00 0. -1.
         13    1    6    6    0    0  0.39086463729E+02  0.13408744873E+02 -0.10095356901E+02  0.42537904766E+02  0.10500000000E+00 0.  1.
</event>
<event>
11    0  0.3439373E-009  0.9118800E+02  0.7816531E-02  0.1126479E+00
         25   -1    0    0    0    0  0.00000000000E+00  0.00000000000E+00  0.99999998245E-14  0.12500000000E+03  0.12500000000E+03 0.  0.
    3000001    1    3    3    0    0  0.62687060338E+01 -0.22862432783E+01  0.22242576001E+01  0.71042878276E+01  0.10000000000E+01 0. -1.
    1000022    2    1    0    0    0  0.53313893381E+02  0.39979220171E+01  0.30787910938E+02  0.62500002252E+02  0.10000010688E+02 0.  0.
    3000022    2    3    3    0    0  0.47045187347E+02  0.62841652953E+01  0.28563653338E+02  0.55395714425E+02  0.24999732330E+00 0.  0.
    1000022    2    1    0    0    0 -0.53313893381E+02 -0.39979220171E+01 -0.30787910938E+02  0.62499997748E+02  0.99999825317E+01 0.  0.
    3000022    2    5    5    0    0 -0.22527651768E+02  0.31304270114E+01 -0.13886379749E+02  0.26649366106E+02  0.25000779925E+00 0.  0.
        -13    1    4    4    0    0  0.28051074519E+02  0.37273498730E+01  0.16959230153E+02  0.32990641569E+02  0.10500000000E+00 0. -1.
         13    1    4    4    0    0  0.18994112828E+02  0.25568154223E+01  0.11604423186E+02  0.22405072856E+02  0.10500000000E+00 0.  1.
    3000001    1    5    5    0    0 -0.30786241613E+02 -0.71283490285E+01 -0.16901531190E+02  0.35850631641E+02  0.10000000000E+01 0. -1.
        -13    1    6    6    0    0 -0.12058400797E+02  0.17434760268E+01 -0.74359643923E+01  0.14274078951E+02  0.10500000000E+00 0. -1.
         13    1    6    6    0    0 -0.10469250971E+02  0.13869509846E+01 -0.64504153563E+01  0.12375287156E+02  0.10500000000E+00 0.  1.
</event>
<event>
11    0  0.3439373E-009  0.9118800E+02  0.7816531E-02  0.1126479E+00
         25   -1    0    0    0    0  0.00000000000E+00  0.00000000000E+00  0.99999998245E-14  0.12500000000E+03  0.12500000000E+03 0.  0.
    3000001    1    3    3    0    0  0.38423171947E+02  0.30052780838E+02  0.23741440399E+00  0.48791045737E+02  0.10000000000E+01 0.  1.
    1000022    2    1    0    0    0  0.49644210378E+02  0.36278958285E+02  0.50536261170E+01  0.62499998462E+02  0.10000011626E+02 0.  0.
    3000022    2    3    3    0    0  0.11221038431E+02  0.62261774469E+01  0.48162117130E+01  0.13708952724E+02  0.25000092708E+00 0.  0.
    1000022    2    1    0    0    0 -0.49644210378E+02 -0.36278958285E+02 -0.50536261170E+01  0.62500001538E+02  0.10000030855E+02 0.  0.
    3000022    2    5    5    0    0 -0.46774102928E+02 -0.35773583571E+02 -0.62011541376E+01  0.59212184492E+02  0.24998678046E+00 0.  0.
        -13    1    4    4    0    0  0.71169965906E+01  0.39783234015E+01  0.30033121399E+01  0.86896263652E+01  0.10500000000E+00 0. -1.
         13    1    4    4    0    0  0.41040418402E+01  0.22478540454E+01  0.18128995732E+01  0.50193263590E+01  0.10500000000E+00 0.  1.
    3000001    1    5    5    0    0 -0.28701074499E+01 -0.50537471354E+00  0.11475280206E+01  0.32878170468E+01  0.10000000000E+01 0. -1.
        -13    1    6    6    0    0 -0.34807534760E+02 -0.26615068014E+02 -0.46435500772E+01  0.44062454582E+02  0.10500000000E+00 0. -1.
         13    1    6    6    0    0 -0.11966568168E+02 -0.91585155572E+01 -0.15576040604E+01  0.15149729910E+02  0.10500000000E+00 0.  1.
</event>
<event>
11    0  0.3439373E-009  0.9118800E+02  0.7816531E-02  0.1126479E+00
         25   -1    0    0    0    0  0.00000000000E+00  0.00000000000E+00  0.99999998245E-14  0.12500000000E+03  0.12500000000E+03 0.  0.
    3000001    1    3    3    0    0 -0.81260243875E+00 -0.57239870193E+02  0.17382016471E+02  0.59834752101E+02  0.10000000000E+01 0.  1.
    1000022    2    1    0    0    0  0.79860732133E+00 -0.58732378387E+02  0.18871135621E+02  0.62500000558E+02  0.10000013275E+02 0.  0.
    3000022    2    3    3    0    0  0.16112097601E+01 -0.14925081940E+01  0.14891191501E+01  0.26652484569E+01  0.24999178719E+00 0.  0.
    1000022    2    1    0    0    0 -0.79860732133E+00  0.58732378387E+02 -0.18871135621E+02  0.62499999442E+02  0.10000006295E+02 0.  0.
    3000022    2    5    5    0    0  0.24116840170E+01  0.40651689076E+02 -0.93190323050E+01  0.41776583358E+02  0.25001875775E+00 0.  0.
        -13    1    4    4    0    0  0.69276465210E+00 -0.67129970253E+00  0.57976018348E+00  0.11303596880E+01  0.10500000000E+00 0.  1.
         13    1    4    4    0    0  0.91844510797E+00 -0.82120849148E+00  0.90935896665E+00  0.15348887690E+01  0.10500000000E+00 0. -1.
    3000001    1    5    5    0    0 -0.32102913383E+01  0.18080689311E+02 -0.95521033158E+01  0.20723416084E+02  0.10000000000E+01 0.  1.
        -13    1    6    6    0    0  0.16309651011E+01  0.26691676024E+02 -0.61488437689E+01  0.27439477415E+02  0.10500000000E+00 0.  1.
         13    1    6    6    0    0  0.78071891586E+00  0.13960013053E+02 -0.31701885361E+01  0.14337105943E+02  0.10500000000E+00 0. -1.
</event>
<event>
11    0  0.3439373E-009  0.9118800E+02  0.7816531E-02  0.1126479E+00
         25   -1    0    0    0    0  0.00000000000E+00  0.00000000000E+00  0.99999998245E-14  0.12500000000E+03  0.12500000000E+03 0.  0.
    3000001    1    3    3    0    0  0.21754888511E+02  0.22817371818E+01 -0.32676248616E+01  0.22139531859E+02  0.10000000000E+01 0. -1.
    1000022    2    1    0    0    0  0.60524652312E+02  0.11572037930E+02  0.30173423773E+01  0.62500002454E+02  0.10000017618E+02 0.  0.
    3000022    2    3    3    0    0  0.38769763801E+02  0.92903007479E+01  0.62849672389E+01  0.40360470595E+02  0.25000056102E+00 0.  0.
    1000022    2    1    0    0    0 -0.60524652312E+02 -0.11572037930E+02 -0.30173423773E+01  0.62499997546E+02  0.99999869428E+01 0.  0.
    3000022    2    5    5    0    0 -0.47873172247E+02 -0.80336644334E+01  0.15160753548E+01  0.48566874738E+02  0.24990426847E+00 0.  0.
        -13    1    4    4    0    0  0.18051245249E+02  0.43508574402E+01  0.29906261727E+01  0.18807771942E+02  0.10500000000E+00 0.  1.
         13    1    4    4    0    0  0.20718518552E+02  0.49394433077E+01  0.32943410663E+01  0.21552698653E+02  0.10500000000E+00 0. -1.
    3000001    1    5    5    0    0 -0.12651480066E+02 -0.35383734963E+01 -0.45334177321E+01  0.13933122808E+02  0.10000000000E+01 0. -1.
        -13    1    6    6    0    0 -0.23275689261E+02 -0.39689901332E+01  0.71080633991E+00  0.23622592235E+02  0.10500000000E+00 0.  1.
         13    1    6    6    0    0 -0.24597482986E+02 -0.40646743002E+01  0.80526901487E+00  0.24944282503E+02  0.10500000000E+00 0. -1.
</event>
<event>
11    0  0.3439373E-009  0.9118800E+02  0.7816531E-02  0.1126479E+00
         25   -1    0    0    0    0  0.00000000000E+00  0.00000000000E+00  0.99999998245E-14  0.12500000000E+03  0.12500000000E+03 0.  0.
    3000001    1    3    3    0    0  0.11748541830E+00  0.39182927239E+01 -0.19123780138E+01  0.44748195899E+01  0.10000000000E+01 0.  1.
    1000022    2    1    0    0    0  0.29149154266E+02  0.39264144220E+02 -0.37615213472E+02  0.62500003426E+02  0.99999964015E+01 0.  0.
    3000022    2    3    3    0    0  0.29031668848E+02  0.35345851496E+02 -0.35702835458E+02  0.58025183836E+02  0.24997093896E+00 0.  0.
    1000022    2    1    0    0    0 -0.29149154266E+02 -0.39264144220E+02  0.37615213472E+02  0.62499996574E+02  0.99999535749E+01 0.  0.
    3000022    2    5    5    0    0  0.18623176374E+00 -0.93462069972E+00 -0.38839694014E+00  0.10590358791E+01  0.25001337535E+00 0.  0.
        -13    1    4    4    0    0  0.13302173178E+02  0.16284570138E+02 -0.16367290321E+02  0.26646467932E+02  0.10500000000E+00 0. -1.
         13    1    4    4    0    0  0.15729495670E+02  0.19061281357E+02 -0.19335545137E+02  0.31378715904E+02  0.10500000000E+00 0.  1.
    3000001    1    5    5    0    0 -0.29335386030E+02 -0.38329523520E+02  0.38003610412E+02  0.61440960695E+02  0.10000000000E+01 0.  1.
        -13    1    6    6    0    0  0.14663818620E+00 -0.56071906562E+00 -0.28957483898E+00  0.65634382421E+00  0.10500000000E+00 0.  1.
         13    1    6    6    0    0  0.39593577543E-01 -0.37390163410E+00 -0.98822101153E-01  0.40269205485E+00  0.10500000000E+00 0. -1.
</event>
<event>
11    0  0.3439373E-009  0.9118800E+02  0.7816531E-02  0.1126479E+00
         25   -1    0    0    0    0  0.00000000000E+00  0.00000000000E+00  0.99999998245E-14  0.12500000000E+03  0.12500000000E+03 0.  0.
    3000001    1    3    3    0    0 -0.12079489218E+02  0.22912807331E+02  0.41153392121E+02  0.48636534443E+02  0.10000000000E+01 0. -1.
    1000022    2    1    0    0    0 -0.14058822606E+02  0.33527807503E+02  0.49844609350E+02  0.62500002291E+02  0.10000041800E+02 0.  0.
    3000022    2    3    3    0    0 -0.19793333884E+01  0.10615000172E+02  0.86912172291E+01  0.13863467848E+02  0.24998904231E+00 0.  0.
    1000022    2    1    0    0    0  0.14058822606E+02 -0.33527807503E+02 -0.49844609350E+02  0.62499997709E+02  0.10000013165E+02 0.  0.
    3000022    2    5    5    0    0  0.72360710866E+01 -0.97092111307E+01 -0.10693207119E+02  0.16156629595E+02  0.24999166525E+00 0.  0.
        -13    1    4    4    0    0 -0.89852873188E+00  0.48291759831E+01  0.40396912796E+01  0.63606937666E+01  0.10500000000E+00 0.  1.
         13    1    4    4    0    0 -0.10808046565E+01  0.57858241891E+01  0.46515259496E+01  0.75027740811E+01  0.10500000000E+00 0. -1.
    3000001    1    5    5    0    0  0.68227515196E+01 -0.23818596373E+02 -0.39151402232E+02  0.46343368114E+02  0.10000000000E+01 0. -1.
        -13    1    6    6    0    0  0.54722731589E+01 -0.73346046200E+01 -0.81094790307E+01  0.12227709254E+02  0.10500000000E+00 0.  1.
         13    1    6    6    0    0  0.17637979278E+01 -0.23746065107E+01 -0.25837280881E+01  0.39289203407E+01  0.10500000000E+00 0. -1.
</event>
<event>
11    0  0.3439373E-009  0.9118800E+02  0.7816531E-02  0.1126479E+00
         25   -1    0    0    0    0  0.00000000000E+00  0.00000000000E+00  0.99999998245E-14  0.12500000000E+03  0.12500000000E+03 0.  0.
    3000001    1    3    3    0    0 -0.11517858744E+02 -0.17882142602E+01 -0.12040244359E+02  0.16787681928E+02  0.10000000000E+01 0.  1.
    1000022    2    1    0    0    0 -0.43556695495E+02  0.93691303804E+01 -0.42676506477E+02  0.62500004704E+02  0.10000002818E+02 0.  0.
    3000022    2    3    3    0    0 -0.32038836750E+02  0.11157344641E+02 -0.30636262118E+02  0.45712322776E+02  0.24999443523E+00 0.  0.
    1000022    2    1    0    0    0  0.43556695495E+02 -0.93691303804E+01  0.42676506477E+02  0.62499995296E+02  0.99999440216E+01 0.  0.
    3000022    2    5    5    0    0  0.21273842145E+02 -0.89466323496E+00  0.24785981310E+02  0.32676966651E+02  0.24999622409E+00 0.  0.
        -13    1    4    4    0    0 -0.14697901738E+02  0.51160014718E+01 -0.13963546208E+02  0.20909171057E+02  0.10500000000E+00 0.  1.
         13    1    4    4    0    0 -0.17340935012E+02  0.60413431689E+01 -0.16672715910E+02  0.24803151719E+02  0.10500000000E+00 0. -1.
    3000001    1    5    5    0    0  0.22282853350E+02 -0.84744671454E+01  0.17890525167E+02  0.29823028645E+02  0.10000000000E+01 0.  1.
        -13    1    6    6    0    0  0.10145725667E+02 -0.37278394297E+00  0.11755495236E+02  0.15533106915E+02  0.10500000000E+00 0.  1.
         13    1    6    6    0    0  0.11128116478E+02 -0.52187929199E+00  0.13030486074E+02  0.17143859737E+02  0.10500000000E+00 0. -1.
</event>
<event>
11    0  0.3439373E-009  0.9118800E+02  0.7816531E-02  0.1126479E+00
         25   -1    0    0    0    0  0.00000000000E+00  0.00000000000E+00  0.99999998245E-14  0.12500000000E+03  0.12500000000E+03 0.  0.
    3000001    1    3    3    0    0 -0.19094854038E+02  0.18342890696E+02 -0.15447701382E+02  0.30670940120E+02  0.10000000000E+01 0. -1.
    1000022    2    1    0    0    0 -0.42307290769E+02  0.39064419116E+02 -0.22143039715E+02  0.62499999344E+02  0.10000000856E+02 0.  0.
    3000022    2    3    3    0    0 -0.23212436730E+02  0.20721528420E+02 -0.66953383335E+01  0.31829059225E+02  0.24999340438E+00 0.  0.
    1000022    2    1    0    0    0  0.42307290769E+02 -0.39064419116E+02  0.22143039715E+02  0.62500000656E+02  0.10000009055E+02 0.  0.
    3000022    2    5    5    0    0  0.26221843396E+02 -0.20687455813E+02  0.83292164848E+01  0.34423745392E+02  0.25000087499E+00 0.  0.
        -13    1    4    4    0    0 -0.59998159680E+01  0.53641383763E+01 -0.17629034582E+01  0.82395767958E+01  0.10500000000E+00 0.  1.
         13    1    4    4    0    0 -0.17212620762E+02  0.15357390044E+02 -0.49324348753E+01  0.23589482429E+02  0.10500000000E+00 0. -1.
    3000001    1    5    5    0    0  0.16085447372E+02 -0.18376963303E+02  0.13813823230E+02  0.28076255264E+02  0.10000000000E+01 0.  1.
        -13    1    6    6    0    0  0.82341410164E+01 -0.65446897882E+01  0.26558909191E+01  0.10848908898E+02  0.10500000000E+00 0.  1.
         13    1    6    6    0    0  0.17987702380E+02 -0.14142766025E+02  0.56733255657E+01  0.23574836494E+02  0.10500000000E+00 0. -1.
</event>
<event>
11    0  0.3439373E-009  0.9118800E+02  0.7816531E-02  0.1126479E+00
         25   -1    0    0    0    0  0.00000000000E+00  0.00000000000E+00  0.99999998245E-14  0.12500000000E+03  0.12500000000E+03 0.  0.
    3000001    1    3    3    0    0 -0.13580238063E+02 -0.68835735567E+01  0.41320729996E+01  0.15807608232E+02  0.10000000000E+01 0.  1.
    1000022    2    1    0    0    0 -0.56885529816E+02 -0.23880223402E+02  0.14678041671E+00  0.62500000100E+02  0.99999947874E+01 0.  0.
    3000022    2    3    3    0    0 -0.43305291754E+02 -0.16996649845E+02 -0.39852925829E+01  0.46692391867E+02  0.25000298525E+00 0.  0.
    1000022    2    1    0    0    0  0.56885529816E+02  0.23880223402E+02 -0.14678041671E+00  0.62499999900E+02  0.99999935420E+01 0.  0.
    3000022    2    5    5    0    0  0.90792669186E+01  0.39329785999E+01 -0.37026900516E+01  0.10567583812E+02  0.25001111845E+00 0.  0.
        -13    1    4    4    0    0 -0.18639643419E+02 -0.73851964100E+01 -0.17288013699E+01  0.20124045617E+02  0.10500000000E+00 0. -1.
         13    1    4    4    0    0 -0.24665648335E+02 -0.96114534350E+01 -0.22564912130E+01  0.26568346251E+02  0.10500000000E+00 0.  1.
    3000001    1    5    5    0    0  0.47806262898E+02  0.19947244802E+02  0.35559096349E+01  0.51932416088E+02  0.10000000000E+01 0.  1.
        -13    1    6    6    0    0  0.62518888447E+01  0.27585137439E+01 -0.25718054968E+01  0.73021038554E+01  0.10500000000E+00 0. -1.
         13    1    6    6    0    0  0.28273780739E+01  0.11744648560E+01 -0.11308845548E+01  0.32654799566E+01  0.10500000000E+00 0.  1.
</event>
<event>
11    0  0.3439373E-009  0.9118800E+02  0.7816531E-02  0.1126479E+00
         25   -1    0    0    0    0  0.00000000000E+00  0.00000000000E+00  0.99999998245E-14  0.12500000000E+03  0.12500000000E+03 0.  0.
    3000001    1    3    3    0    0  0.33925986060E+02 -0.11957689247E+02  0.56276232562E+01  0.36422918689E+02  0.10000000000E+01 0. -1.
    1000022    2    1    0    0    0  0.54067973464E+02 -0.25896191450E+02  0.14570223779E+02  0.62499998934E+02  0.99999979812E+01 0.  0.
    3000022    2    3    3    0    0  0.20141987404E+02 -0.13938502202E+02  0.89426005233E+01  0.26077080245E+02  0.25001951975E+00 0.  0.
    1000022    2    1    0    0    0 -0.54067973464E+02  0.25896191450E+02 -0.14570223779E+02  0.62500001066E+02  0.10000011307E+02 0.  0.
    3000022    2    5    5    0    0 -0.24208296284E+02  0.11571968802E+02 -0.14762532035E+01  0.26873666127E+02  0.25007326631E+00 0.  0.
        -13    1    4    4    0    0  0.86832489899E+01 -0.59559025164E+01  0.37921288663E+01  0.11192088909E+02  0.10500000000E+00 0. -1.
         13    1    4    4    0    0  0.11458738414E+02 -0.79825996860E+01  0.51504716570E+01  0.14884991336E+02  0.10500000000E+00 0.  1.
    3000001    1    5    5    0    0 -0.29859677180E+02  0.14324222648E+02 -0.13093970576E+02  0.35626334939E+02  0.10000000000E+01 0. -1.
        -13    1    6    6    0    0 -0.15395834734E+02  0.72971924686E+01 -0.95509176797E+00  0.17064699539E+02  0.10500000000E+00 0. -1.
         13    1    6    6    0    0 -0.88124615504E+01  0.42747763333E+01 -0.52116143555E+00  0.98089665878E+01  0.10500000000E+00 0.  1.
</event>
<event>
11    0  0.3439373E-009  0.9118800E+02  0.7816531E-02  0.1126479E+00
         25   -1    0    0    0    0  0.00000000000E+00  0.00000000000E+00  0.99999998245E-14  0.12500000000E+03  0.12500000000E+03 0.  0.
    3000001    1    3    3    0    0 -0.25107198116E+01  0.37241590129E+01 -0.52881335731E+00  0.46317078808E+01  0.10000000000E+01 0.  1.
    1000022    2    1    0    0    0 -0.50383287655E+01  0.57806119457E+02 -0.20959906775E+02  0.62500000840E+02  0.10000010479E+02 0.  0.
    3000022    2    3    3    0    0 -0.25276089538E+01  0.54081960444E+02 -0.20431093417E+02  0.57868292959E+02  0.24999859345E+00 0.  0.
    1000022    2    1    0    0    0  0.50383287655E+01 -0.57806119457E+02  0.20959906775E+02  0.62499999160E+02  0.99999999834E+01 0.  0.
    3000022    2    5    5    0    0  0.70710057761E+01 -0.46512142140E+02  0.14197460582E+02  0.49142739787E+02  0.24999531896E+00 0.  0.
        -13    1    4    4    0    0 -0.10741708935E+01  0.21758531344E+02 -0.82499450187E+01  0.23295067014E+02  0.10500000000E+00 0. -1.
         13    1    4    4    0    0 -0.14534380603E+01  0.32323429100E+02 -0.12181148399E+02  0.34573225945E+02  0.10500000000E+00 0.  1.
    3000001    1    5    5    0    0 -0.20326770107E+01 -0.11293977316E+02  0.67624461928E+01  0.13357259373E+02  0.10000000000E+01 0.  1.
        -13    1    6    6    0    0  0.25932894558E+01 -0.17104569529E+02  0.51593475044E+01  0.18053291685E+02  0.10500000000E+00 0. -1.
         13    1    6    6    0    0  0.44777163204E+01 -0.29407572611E+02  0.90381130773E+01  0.31089448102E+02  0.10500000000E+00 0.  1.
</event>
<event>
11    0  0.3439373E-009  0.9118800E+02  0.7816531E-02  0.1126479E+00
         25   -1    0    0    0    0  0.00000000000E+00  0.00000000000E+00  0.99999998245E-14  0.12500000000E+03  0.12500000000E+03 0.  0.
    3000001    1    3    3    0    0 -0.22528502376E+02 -0.70451883464E+01  0.11355026774E+02  0.26212682640E+02  0.10000000000E+01 0. -1.
    1000022    2    1    0    0    0 -0.55283350186E+02 -0.21727420840E+02  0.16670941516E+02  0.62500000810E+02  0.10000009300E+02 0.  0.
    3000022    2    3    3    0    0 -0.32754847810E+02 -0.14682232494E+02  0.53159147419E+01  0.36287318170E+02  0.25000868659E+00 0.  0.
    1000022    2    1    0    0    0  0.55283350186E+02  0.21727420840E+02 -0.16670941516E+02  0.62499999190E+02  0.99999991792E+01 0.  0.
    3000022    2    5    5    0    0  0.84725559099E+01  0.63081587964E+00  0.23764186751E-01  0.84997177083E+01  0.25000812761E+00 0.  0.
        -13    1    4    4    0    0 -0.13500470152E+02 -0.61115542001E+01  0.21607727930E+01  0.14976439935E+02  0.10500000000E+00 0. -1.
         13    1    4    4    0    0 -0.19254377658E+02 -0.85706782936E+01  0.31551419489E+01  0.21310878235E+02  0.10500000000E+00 0.  1.
    3000001    1    5    5    0    0  0.46810794276E+02  0.21096604960E+02 -0.16694705702E+02  0.54000281482E+02  0.10000000000E+01 0.  1.
        -13    1    6    6    0    0  0.61991050092E+01  0.44895814560E+00  0.50468664817E-01  0.62164329336E+01  0.10500000000E+00 0. -1.
         13    1    6    6    0    0  0.22734509007E+01  0.18185773404E+00 -0.26704478065E-01  0.22832847747E+01  0.10500000000E+00 0.  1.
</event>
<event>
11    0  0.3439373E-009  0.9118800E+02  0.7816531E-02  0.1126479E+00
         25   -1    0    0    0    0  0.00000000000E+00  0.00000000000E+00  0.99999998245E-14  0.12500000000E+03  0.12500000000E+03 0.  0.
    3000001    1    3    3    0    0 -0.13697321921E+02  0.11437382641E+02  0.15590083870E+02  0.23716683254E+02  0.10000000000E+01 0. -1.
    1000022    2    1    0    0    0 -0.24843696209E+02  0.32193197533E+02  0.46396539863E+02  0.62500001070E+02  0.10000000689E+02 0.  0.
    3000022    2    3    3    0    0 -0.11146374288E+02  0.20755814892E+02  0.30806455993E+02  0.38783317816E+02  0.24999679965E+00 0.  0.
    1000022    2    1    0    0    0  0.24843696209E+02 -0.32193197533E+02 -0.46396539863E+02  0.62499998930E+02  0.99999873131E+01 0.  0.
    3000022    2    5    5    0    0  0.25465280934E+02 -0.30747752699E+02 -0.45079801384E+02  0.60217570714E+02  0.25000153919E+00 0.  0.
        -13    1    4    4    0    0 -0.81027539198E+01  0.15161892446E+02  0.22494003212E+02  0.28311284131E+02  0.10500000000E+00 0. -1.
         13    1    4    4    0    0 -0.30436203681E+01  0.55939224455E+01  0.83124527812E+01  0.10472033686E+02  0.10500000000E+00 0.  1.
    3000001    1    5    5    0    0 -0.62158472564E+00 -0.14454448333E+01 -0.13167384796E+01  0.22824282159E+01  0.10000000000E+01 0.  1.
        -13    1    6    6    0    0  0.12061678272E+02 -0.14515265966E+02 -0.21219562114E+02  0.28398201882E+02  0.10500000000E+00 0.  1.
         13    1    6    6    0    0  0.13403602662E+02 -0.16232486734E+02 -0.23860239270E+02  0.31819368833E+02  0.10500000000E+00 0. -1.
</event>
<event>
11    0  0.3439373E-009  0.9118800E+02  0.7816531E-02  0.1126479E+00
         25   -1    0    0    0    0  0.00000000000E+00  0.00000000000E+00  0.99999998245E-14  0.12500000000E+03  0.12500000000E+03 0.  0.
    3000001    1    3    3    0    0 -0.17276938055E+02 -0.23288782156E+02  0.97773251184E+01  0.30617904065E+02  0.10000000000E+01 0. -1.
    1000022    2    1    0    0    0 -0.40369015822E+02 -0.45196460681E+02  0.11570323511E+02  0.62499995943E+02  0.99999805057E+01 0.  0.
    3000022    2    3    3    0    0 -0.23092077768E+02 -0.21907678525E+02  0.17929983924E+01  0.31882091878E+02  0.25001055180E+00 0.  0.
    1000022    2    1    0    0    0  0.40369015822E+02  0.45196460681E+02 -0.11570323511E+02  0.62500004057E+02  0.10000031223E+02 0.  0.
    3000022    2    5    5    0    0  0.18444063248E+02  0.25969099646E+02 -0.25336028411E+01  0.31954017771E+02  0.25000562219E+00 0.  0.
        -13    1    4    4    0    0 -0.76268498339E+01 -0.73078368314E+01  0.58536692184E+00  0.10579555613E+02  0.10500000000E+00 0.  1.
         13    1    4    4    0    0 -0.15465227934E+02 -0.14599841694E+02  0.12076314706E+01  0.21302536264E+02  0.10500000000E+00 0. -1.
    3000001    1    5    5    0    0  0.21924952574E+02  0.19227361035E+02 -0.90367206697E+01  0.30545986286E+02  0.10000000000E+01 0. -1.
        -13    1    6    6    0    0  0.71640868019E+01  0.10079119546E+02 -0.92178429105E+00  0.12400544416E+02  0.10500000000E+00 0.  1.
         13    1    6    6    0    0  0.11279976446E+02  0.15889980101E+02 -0.16118185500E+01  0.19553473355E+02  0.10500000000E+00 0. -1.
</event>
<event>
11    0  0.3439373E-009  0.9118800E+02  0.7816531E-02  0.1126479E+00
         25   -1    0    0    0    0  0.00000000000E+00  0.00000000000E+00  0.99999998245E-14  0.12500000000E+03  0.12500000000E+03 0.  0.
    3000001    1    3    3    0    0  0.29065261591E+00  0.40756560240E+02 -0.35999435177E+02  0.54388794936E+02  0.10000000000E+01 0. -1.
    1000022    2    1    0    0    0 -0.14825920289E+01  0.48314057416E+02 -0.38338019970E+02  0.62499999692E+02  0.99999981632E+01 0.  0.
    3000022    2    3    3    0    0 -0.17732446448E+01  0.75574971760E+01 -0.23385847931E+01  0.81112047568E+01  0.25000727294E+00 0.  0.
    1000022    2    1    0    0    0  0.14825920289E+01 -0.48314057416E+02  0.38338019970E+02  0.62500000308E+02  0.10000002008E+02 0.  0.
    3000022    2    5    5    0    0 -0.47643661543E+00 -0.27553546932E+02  0.27680998984E+02  0.39060531775E+02  0.24999493003E+00 0.  0.
        -13    1    4    4    0    0 -0.89039242970E+00  0.35876874093E+01 -0.10631975816E+01  0.38478193465E+01  0.10500000000E+00 0. -1.
         13    1    4    4    0    0 -0.88285221508E+00  0.39698097667E+01 -0.12753872115E+01  0.42633854103E+01  0.10500000000E+00 0.  1.
    3000001    1    5    5    0    0  0.19590286443E+01 -0.20760510484E+02  0.10657020986E+02  0.23439468532E+02  0.10000000000E+01 0.  1.
        -13    1    6    6    0    0 -0.10928291623E+00 -0.89482090411E+01  0.89540572584E+01  0.12659721726E+02  0.10500000000E+00 0. -1.
         13    1    6    6    0    0 -0.36715369920E+00 -0.18605337891E+02  0.18726941725E+02  0.26400810049E+02  0.10500000000E+00 0.  1.
</event>
<event>
11    0  0.3439373E-009  0.9118800E+02  0.7816531E-02  0.1126479E+00
         25   -1    0    0    0    0  0.00000000000E+00  0.00000000000E+00  0.99999998245E-14  0.12500000000E+03  0.12500000000E+03 0.  0.
    3000001    1    3    3    0    0 -0.33275550241E+02  0.28985278947E+02 -0.16345234212E+02  0.47069898246E+02  0.10000000000E+01 0. -1.
    1000022    2    1    0    0    0 -0.45314268730E+02  0.33800220211E+02 -0.24706521394E+02  0.62499999499E+02  0.99999950529E+01 0.  0.
    3000022    2    3    3    0    0 -0.12038718489E+02  0.48149412641E+01 -0.83612871827E+01  0.15430101252E+02  0.24999814320E+00 0.  0.
    1000022    2    1    0    0    0  0.45314268730E+02 -0.33800220211E+02  0.24706521394E+02  0.62500000501E+02  0.10000001321E+02 0.  0.
    3000022    2    5    5    0    0  0.28252048162E+02 -0.19417913354E+02  0.98375705311E+01  0.35666144628E+02  0.24998866501E+00 0.  0.
        -13    1    4    4    0    0 -0.77264068528E+01  0.31242487640E+01 -0.54313548831E+01  0.99483131264E+01  0.10500000000E+00 0. -1.
         13    1    4    4    0    0 -0.43123116363E+01  0.16906925002E+01 -0.29299322995E+01  0.54817881260E+01  0.10500000000E+00 0.  1.
    3000001    1    5    5    0    0  0.17062220568E+02 -0.14382306857E+02  0.14868950863E+02  0.26833855873E+02  0.10000000000E+01 0. -1.
        -13    1    6    6    0    0  0.19419611946E+02 -0.13377011512E+02  0.68108401742E+01  0.24545148889E+02  0.10500000000E+00 0.  1.
         13    1    6    6    0    0  0.88324362160E+01 -0.60409018423E+01  0.30267303569E+01  0.11120995739E+02  0.10500000000E+00 0. -1.
</event>
<event>
11    0  0.3439373E-009  0.9118800E+02  0.7816531E-02  0.1126479E+00
         25   -1    0    0    0    0  0.00000000000E+00  0.00000000000E+00  0.99999998245E-14  0.12500000000E+03  0.12500000000E+03 0.  0.
    3000001    1    3    3    0    0  0.63998166262E+01 -0.36637554840E+01  0.42263924653E+01  0.85582212151E+01  0.10000000000E+01 0.  1.
    1000022    2    1    0    0    0  0.52335210299E+02 -0.31702914302E+02  0.78867611850E+01  0.62500001131E+02  0.10000006358E+02 0.  0.
    3000022    2    3    3    0    0  0.45935393672E+02 -0.28039158818E+02  0.36603687198E+01  0.53941779916E+02  0.25000457309E+00 0.  0.
    1000022    2    1    0    0    0 -0.52335210299E+02  0.31702914302E+02 -0.78867611850E+01  0.62499998869E+02  0.99999922217E+01 0.  0.
    3000022    2    5    5    0    0 -0.51052509597E+02  0.31482135036E+02 -0.88000314701E+01  0.60621667911E+02  0.25000771726E+00 0.  0.
        -13    1    4    4    0    0  0.11405491550E+02 -0.69371594933E+01  0.92162588891E+00  0.13381697898E+02  0.10500000000E+00 0.  1.
         13    1    4    4    0    0  0.34529902122E+02 -0.21101999324E+02  0.27387428309E+01  0.40560082018E+02  0.10500000000E+00 0. -1.
    3000001    1    5    5    0    0 -0.12827007012E+01  0.22077926545E+00  0.91327028511E+00  0.18783309577E+01  0.10000000000E+01 0.  1.
        -13    1    6    6    0    0 -0.13549851142E+02  0.83198650623E+01 -0.23178033304E+01  0.16068660738E+02  0.10500000000E+00 0.  1.
         13    1    6    6    0    0 -0.37502658455E+02  0.23162269974E+02 -0.64822281397E+01  0.44553007173E+02  0.10500000000E+00 0. -1.
</event>
<event>
11    0  0.3439373E-009  0.9118800E+02  0.7816531E-02  0.1126479E+00
         25   -1    0    0    0    0  0.00000000000E+00  0.00000000000E+00  0.99999998245E-14  0.12500000000E+03  0.12500000000E+03 0.  0.
    3000001    1    3    3    0    0 -0.75944240412E+01  0.40235438202E+02  0.45315218490E+01  0.41208014440E+02  0.10000000000E+01 0. -1.
    1000022    2    1    0    0    0 -0.59349931160E+01  0.60368811892E+02  0.11253111509E+02  0.62500001601E+02  0.10000004450E+02 0.  0.
    3000022    2    3    3    0    0  0.16594309252E+01  0.20133373690E+02  0.67215896602E+01  0.21291987162E+02  0.25000516061E+00 0.  0.
    1000022    2    1    0    0    0  0.59349931160E+01 -0.60368811892E+02 -0.11253111509E+02  0.62499998399E+02  0.99999844316E+01 0.  0.
    3000022    2    5    5    0    0 -0.22339149512E+01 -0.48140387701E+01 -0.11869660573E+01  0.54439631358E+01  0.25000182744E+00 0.  0.
        -13    1    4    4    0    0  0.40814790267E+00  0.52730712618E+01  0.17399858203E+01  0.55687019042E+01  0.10500000000E+00 0. -1.
         13    1    4    4    0    0  0.12512830225E+01  0.14860302429E+02  0.49816038399E+01  0.15723285258E+02  0.10500000000E+00 0.  1.
    3000001    1    5    5    0    0  0.81689080672E+01 -0.55554773122E+02 -0.10066145452E+02  0.57056035263E+02  0.10000000000E+01 0. -1.
        -13    1    6    6    0    0 -0.10183256763E+01 -0.20480044903E+01 -0.53447363722E+00  0.23511692079E+01  0.10500000000E+00 0. -1.
         13    1    6    6    0    0 -0.12155892749E+01 -0.27660342798E+01 -0.65249242006E+00  0.30927939279E+01  0.10500000000E+00 0.  1.
</event>
<event>
11    0  0.3439373E-009  0.9118800E+02  0.7816531E-02  0.1126479E+00
         25   -1    0    0    0    0  0.00000000000E+00  0.00000000000E+00  0.99999998245E-14  0.12500000000E+03  0.12500000000E+03 0.  0.
    3000001    1    3    3    0    0 -0.71116165686E+01 -0.31474348404E+00 -0.21220683778E+02  0.22405168459E+02  0.10000000000E+01 0.  1.
    1000022    2    1    0    0    0 -0.96598766977E+01 -0.91911020722E+01 -0.60236702063E+02  0.62500000460E+02  0.10000010348E+02 0.  0.
    3000022    2    3    3    0    0 -0.25482601292E+01 -0.88763585881E+01 -0.39016018286E+02  0.40094832001E+02  0.24999776679E+00 0.  0.
    1000022    2    1    0    0    0  0.96598766977E+01  0.91911020722E+01  0.60236702063E+02  0.62499999540E+02  0.10000004596E+02 0.  0.
    3000022    2    5    5    0    0  0.11401789294E+02  0.62136744375E+01  0.44358100442E+02  0.46220278281E+02  0.25000089963E+00 0.  0.
        -13    1    4    4    0    0 -0.11597138902E+01 -0.38212297303E+01 -0.16984585308E+02  0.17448034160E+02  0.10500000000E+00 0.  1.
         13    1    4    4    0    0 -0.13885462390E+01 -0.50551288578E+01 -0.22031432978E+02  0.22646797842E+02  0.10500000000E+00 0. -1.
    3000001    1    5    5    0    0 -0.17419125966E+01  0.29774276347E+01  0.15878601621E+02  0.16279721258E+02  0.10000000000E+01 0.  1.
        -13    1    6    6    0    0  0.60422145312E+01  0.33695196918E+01  0.23634423007E+02  0.24626388190E+02  0.10500000000E+00 0. -1.
         13    1    6    6    0    0  0.53595747632E+01  0.28441547457E+01  0.20723677435E+02  0.21593890091E+02  0.10500000000E+00 0.  1.
</event>
<event>
11    0  0.3439373E-009  0.9118800E+02  0.7816531E-02  0.1126479E+00
         25   -1    0    0    0    0  0.00000000000E+00  0.00000000000E+00  0.99999998245E-14  0.12500000000E+03  0.12500000000E+03 0.  0.
    3000001    1    3    3    0    0 -0.32939131235E+01  0.10111467094E+00 -0.11091301094E+01  0.36180460807E+01  0.10000000000E+01 0.  1.
    1000022    2    1    0    0    0 -0.56922180724E+02 -0.22164228186E+02  0.86522923790E+01  0.62499999593E+02  0.10000005810E+02 0.  0.
    3000022    2    3    3    0    0 -0.53628267601E+02 -0.22265342857E+02  0.97614224884E+01  0.58881953512E+02  0.25000403884E+00 0.  0.
    1000022    2    1    0    0    0  0.56922180724E+02  0.22164228186E+02 -0.86522923790E+01  0.62500000407E+02  0.10000010899E+02 0.  0.
    3000022    2    5    5    0    0  0.53369530144E+02  0.19960268987E+02 -0.56569709667E+01  0.57260657637E+02  0.25001344302E+00 0.  0.
        -13    1    4    4    0    0 -0.35661900198E+02 -0.14857516271E+02  0.65200326539E+01  0.39179570777E+02  0.10500000000E+00 0.  1.
         13    1    4    4    0    0 -0.17966367403E+02 -0.74078265860E+01  0.32413898345E+01  0.19702382735E+02  0.10500000000E+00 0. -1.
    3000001    1    5    5    0    0  0.35526505808E+01  0.22039591991E+01 -0.29953214122E+01  0.52393427701E+01  0.10000000000E+01 0.  1.
        -13    1    6    6    0    0  0.24675480417E+02  0.92331428350E+01 -0.25482901136E+01  0.26469512045E+02  0.10500000000E+00 0. -1.
         13    1    6    6    0    0  0.28694049727E+02  0.10727126152E+02 -0.31086808531E+01  0.30791145592E+02  0.10500000000E+00 0.  1.
</event>
<event>
11    0  0.3439373E-009  0.9118800E+02  0.7816531E-02  0.1126479E+00
         25   -1    0    0    0    0  0.00000000000E+00  0.00000000000E+00  0.99999998245E-14  0.12500000000E+03  0.12500000000E+03 0.  0.
    3000001    1    3    3    0    0 -0.40503303048E+02 -0.42746004031E+02 -0.14211796797E+02  0.60586414208E+02  0.10000000000E+01 0. -1.
    1000022    2    1    0    0    0 -0.42387792942E+02 -0.42541358419E+02 -0.14133571411E+02  0.62499999569E+02  0.99999969303E+01 0.  0.
    3000022    2    3    3    0    0 -0.18844898938E+01  0.20464561223E+00  0.78225385595E-01  0.19135853601E+01  0.25001546493E+00 0.  0.
    1000022    2    1    0    0    0  0.42387792942E+02  0.42541358419E+02  0.14133571411E+02  0.62500000431E+02  0.10000002324E+02 0.  0.
    3000022    2    5    5    0    0  0.41202321372E+02  0.39447374755E+02  0.14898524194E+02  0.58955535660E+02  0.25000053710E+00 0.  0.
        -13    1    4    4    0    0 -0.12070327248E+01  0.10631180459E+00 -0.32178231814E-02  0.12162506127E+01  0.10500000000E+00 0.  1.
         13    1    4    4    0    0 -0.67745716903E+00  0.98333807637E-01  0.81443208777E-01  0.69733474734E+00  0.10500000000E+00 0. -1.
    3000001    1    5    5    0    0  0.11854715697E+01  0.30939836642E+01 -0.76495278306E+00  0.35444647716E+01  0.10000000000E+01 0. -1.
        -13    1    6    6    0    0  0.14304484934E+02  0.13722989950E+02  0.52316236046E+01  0.20501698782E+02  0.10500000000E+00 0. -1.
         13    1    6    6    0    0  0.26897836438E+02  0.25724384805E+02  0.96669005897E+01  0.38453836878E+02  0.10500000000E+00 0.  1.
</event>
<event>
11    0  0.3439373E-009  0.9118800E+02  0.7816531E-02  0.1126479E+00
         25   -1    0    0    0    0  0.00000000000E+00  0.00000000000E+00  0.99999998245E-14  0.12500000000E+03  0.12500000000E+03 0.  0.
    3000001    1    3    3    0    0 -0.37581404658E+02  0.27825586080E+01 -0.40973602334E+02  0.55677111066E+02  0.10000000000E+01 0. -1.
    1000022    2    1    0    0    0 -0.41806353439E+02 -0.26928398950E+00 -0.45369665379E+02  0.62499999460E+02  0.99999847038E+01 0.  0.
    3000022    2    3    3    0    0 -0.42249487815E+01 -0.30518425975E+01 -0.43960630450E+01  0.68228883932E+01  0.25000056972E+00 0.  0.
    1000022    2    1    0    0    0  0.41806353439E+02  0.26928398950E+00  0.45369665379E+02  0.62500000540E+02  0.99999914584E+01 0.  0.
    3000022    2    5    5    0    0  0.32251232560E+02  0.42541868900E+01  0.35691775817E+02  0.48292913136E+02  0.24998086696E+00 0.  0.
        -13    1    4    4    0    0 -0.22221888005E+01 -0.16881256422E+01 -0.23518383032E+01  0.36510354221E+01  0.10500000000E+00 0.  1.
         13    1    4    4    0    0 -0.20027599810E+01 -0.13637169553E+01 -0.20442247418E+01  0.31718529711E+01  0.10500000000E+00 0. -1.
    3000001    1    5    5    0    0  0.95551208792E+01 -0.39849029005E+01  0.96778895624E+01  0.14207087405E+02  0.10000000000E+01 0.  1.
        -13    1    6    6    0    0  0.13705898596E+02  0.17433701731E+01  0.15177040527E+02  0.20524243714E+02  0.10500000000E+00 0. -1.
         13    1    6    6    0    0  0.18545333964E+02  0.25108167169E+01  0.20514735290E+02  0.27768669421E+02  0.10500000000E+00 0.  1.
</event>
<event>
11    0  0.3439373E-009  0.9118800E+02  0.7816531E-02  0.1126479E+00
         25   -1    0    0    0    0  0.00000000000E+00  0.00000000000E+00  0.99999998245E-14  0.12500000000E+03  0.12500000000E+03 0.  0.
    3000001    1    3    3    0    0  0.24465493882E+02  0.46602430679E+01  0.22790390179E+01  0.25029428183E+02  0.10000000000E+01 0.  1.
    1000022    2    1    0    0    0  0.61299135120E+02 -0.36901748144E+00  0.69663339797E+01  0.62500000944E+02  0.10000008429E+02 0.  0.
    3000022    2    3    3    0    0  0.36833641238E+02 -0.50292605493E+01  0.46872949618E+01  0.37470572761E+02  0.25000091993E+00 0.  0.
    1000022    2    1    0    0    0 -0.61299135120E+02  0.36901748144E+00 -0.69663339797E+01  0.62499999056E+02  0.99999966250E+01 0.  0.
    3000022    2    5    5    0    0 -0.10164873805E+02 -0.25295965576E+01  0.14811024377E+01  0.10582046230E+02  0.25003954005E+00 0.  0.
        -13    1    4    4    0    0  0.20778300141E+02 -0.27730213742E+01  0.26610385141E+01  0.21131009329E+02  0.10500000000E+00 0.  1.
         13    1    4    4    0    0  0.16055341097E+02 -0.22562391752E+01  0.20262564477E+01  0.16339563432E+02  0.10500000000E+00 0. -1.
    3000001    1    5    5    0    0 -0.51134261315E+02  0.28986140390E+01 -0.84474364174E+01  0.51917952825E+02  0.10000000000E+01 0.  1.
        -13    1    6    6    0    0 -0.46562819599E+01 -0.10910515755E+01  0.66296017058E+00  0.48292749371E+01  0.10500000000E+00 0. -1.
         13    1    6    6    0    0 -0.55085918453E+01 -0.14385449821E+01  0.81814226710E+00  0.57527712933E+01  0.10500000000E+00 0.  1.
</event>
<event>
11    0  0.3439373E-009  0.9118800E+02  0.7816531E-02  0.1126479E+00
         25   -1    0    0    0    0  0.00000000000E+00  0.00000000000E+00  0.99999998245E-14  0.12500000000E+03  0.12500000000E+03 0.  0.
    3000001    1    3    3    0    0 -0.32118128147E+02 -0.14651134565E+02 -0.16061543104E+02  0.38796946614E+02  0.10000000000E+01 0.  1.
    1000022    2    1    0    0    0 -0.52124215337E+02 -0.27030677279E+02 -0.18938284902E+02  0.62500000118E+02  0.10000002052E+02 0.  0.
    3000022    2    3    3    0    0 -0.20006087190E+02 -0.12379542714E+02 -0.28767417983E+01  0.23703053504E+02  0.24999911878E+00 0.  0.
    1000022    2    1    0    0    0  0.52124215337E+02  0.27030677279E+02  0.18938284902E+02  0.62499999882E+02  0.10000000581E+02 0.  0.
    3000022    2    5    5    0    0  0.26459296296E+02  0.18729118881E+02  0.12542888501E+02  0.34760046091E+02  0.24999555192E+00 0.  0.
        -13    1    4    4    0    0 -0.10527028830E+02 -0.65882904911E+01 -0.14946192106E+01  0.12508749704E+02  0.10500000000E+00 0.  1.
         13    1    4    4    0    0 -0.94790583601E+01 -0.57912522231E+01 -0.13821225877E+01  0.11194303799E+02  0.10500000000E+00 0. -1.
    3000001    1    5    5    0    0  0.25664919041E+02  0.83015583976E+01  0.63953964013E+01  0.27739953791E+02  0.10000000000E+01 0. -1.
        -13    1    6    6    0    0  0.19032528638E+02  0.13448037749E+02  0.89792830583E+01  0.24974495288E+02  0.10500000000E+00 0.  1.
         13    1    6    6    0    0  0.74267676582E+01  0.52810811321E+01  0.35636054428E+01  0.97855508033E+01  0.10500000000E+00 0. -1.
</event>
<event>
11    0  0.3439373E-009  0.9118800E+02  0.7816531E-02  0.1126479E+00
         25   -1    0    0    0    0  0.00000000000E+00  0.00000000000E+00  0.99999998245E-14  0.12500000000E+03  0.12500000000E+03 0.  0.
    3000001    1    3    3    0    0 -0.27823845697E+01  0.11436179502E+01  0.43911733424E+00  0.32003671575E+01  0.10000000000E+01 0.  1.
    1000022    2    1    0    0    0 -0.59998409911E+02 -0.12442431721E+02 -0.71851676308E+01  0.62500000518E+02  0.10000006593E+02 0.  0.
    3000022    2    3    3    0    0 -0.57216025342E+02 -0.13586049672E+02 -0.76242849650E+01  0.59299633361E+02  0.24998779120E+00 0.  0.
    1000022    2    1    0    0    0  0.59998409911E+02  0.12442431721E+02  0.71851676308E+01  0.62499999482E+02  0.10000000117E+02 0.  0.
    3000022    2    5    5    0    0  0.19206751592E+02  0.59799356610E+01 -0.18775975254E+01  0.20205118514E+02  0.25000898518E+00 0.  0.
        -13    1    4    4    0    0 -0.17944210249E+02 -0.42900929108E+01 -0.23514235237E+01  0.18599456880E+02  0.10500000000E+00 0. -1.
         13    1    4    4    0    0 -0.39271815092E+02 -0.92959567609E+01 -0.52728614414E+01  0.40700176480E+02  0.10500000000E+00 0.  1.
    3000001    1    5    5    0    0  0.40791658319E+02  0.64624960605E+01  0.90627651562E+01  0.42294880968E+02  0.10000000000E+01 0.  1.
        -13    1    6    6    0    0  0.12036640232E+02  0.37108868167E+01 -0.12246213540E+01  0.12655517038E+02  0.10500000000E+00 0. -1.
         13    1    6    6    0    0  0.71701113598E+01  0.22690488443E+01 -0.65297617134E+00  0.75496014762E+01  0.10500000000E+00 0.  1.
</event>
<event>
11    0  0.3439373E-009  0.9118800E+02  0.7816531E-02  0.1126479E+00
         25   -1    0    0    0    0  0.00000000000E+00  0.00000000000E+00  0.99999998245E-14  0.12500000000E+03  0.12500000000E+03 0.  0.
    3000001    1    3    3    0    0  0.16747152946E+02  0.22712739764E+02 -0.20770808502E+02  0.35053704016E+02  0.10000000000E+01 0. -1.
    1000022    2    1    0    0    0  0.26849426541E+02  0.34984072047E+02 -0.43144799828E+02  0.62500006457E+02  0.10000002615E+02 0.  0.
    3000022    2    3    3    0    0  0.10102273595E+02  0.12271332284E+02 -0.22373991326E+02  0.27446302441E+02  0.25000408836E+00 0.  0.
    1000022    2    1    0    0    0 -0.26849426541E+02 -0.34984072047E+02  0.43144799828E+02  0.62499993543E+02  0.99999219056E+01 0.  0.
    3000022    2    5    5    0    0 -0.11765663732E+02 -0.10144945935E+02  0.20057046374E+02  0.25371211635E+02  0.24999891155E+00 0.  0.
        -13    1    4    4    0    0  0.44562101107E+01  0.54640137423E+01 -0.10025070012E+02  0.12256684236E+02  0.10500000000E+00 0.  1.
         13    1    4    4    0    0  0.56460634843E+01  0.68073185414E+01 -0.12348921314E+02  0.15189618205E+02  0.10500000000E+00 0. -1.
    3000001    1    5    5    0    0 -0.15083762809E+02 -0.24839126112E+02  0.23087753453E+02  0.37128781909E+02  0.10000000000E+01 0.  1.
        -13    1    6    6    0    0 -0.30497383053E+01 -0.25973327105E+01  0.51429458687E+01  0.65198127387E+01  0.10500000000E+00 0. -1.
         13    1    6    6    0    0 -0.87159254269E+01 -0.75476132248E+01  0.14914100506E+02  0.18851398896E+02  0.10500000000E+00 0.  1.
</event>
<event>
11    0  0.3439373E-009  0.9118800E+02  0.7816531E-02  0.1126479E+00
         25   -1    0    0    0    0  0.00000000000E+00  0.00000000000E+00  0.99999998245E-14  0.12500000000E+03  0.12500000000E+03 0.  0.
    3000001    1    3    3    0    0 -0.18432909870E+02  0.53813493341E+01  0.17979316500E+02  0.26324644513E+02  0.10000000000E+01 0.  1.
    1000022    2    1    0    0    0 -0.44886423970E+02  0.22189608112E+02  0.36042754495E+02  0.62499998917E+02  0.99999974066E+01 0.  0.
    3000022    2    3    3    0    0 -0.26453514099E+02  0.16808258777E+02  0.18063437995E+02  0.36175354404E+02  0.25000542540E+00 0.  0.
    1000022    2    1    0    0    0  0.44886423970E+02 -0.22189608112E+02 -0.36042754495E+02  0.62500001083E+02  0.10000010943E+02 0.  0.
    3000022    2    5    5    0    0  0.29491888718E+02 -0.19401175005E+02 -0.23308763407E+02  0.42302931894E+02  0.25000704428E+00 0.  0.
        -13    1    4    4    0    0 -0.11176734839E+02  0.71155239299E+01  0.77100940398E+01  0.15329926861E+02  0.10500000000E+00 0. -1.
         13    1    4    4    0    0 -0.15276779261E+02  0.96927348475E+01  0.10353343955E+02  0.20845427543E+02  0.10500000000E+00 0.  1.
    3000001    1    5    5    0    0  0.15394535252E+02 -0.27884331067E+01 -0.12733991087E+02  0.20197069189E+02  0.10000000000E+01 0. -1.
        -13    1    6    6    0    0  0.11962765515E+02 -0.79447186258E+01 -0.94956000909E+01  0.17216380540E+02  0.10500000000E+00 0. -1.
         13    1    6    6    0    0  0.17529123203E+02 -0.11456456379E+02 -0.13813163316E+02  0.25086551354E+02  0.10500000000E+00 0.  1.
</event>
<event>
11    0  0.3439373E-009  0.9118800E+02  0.7816531E-02  0.1126479E+00
         25   -1    0    0    0    0  0.00000000000E+00  0.00000000000E+00  0.99999998245E-14  0.12500000000E+03  0.12500000000E+03 0.  0.
    3000001    1    3    3    0    0 -0.78247306447E+01  0.98525885907E+01  0.40095891491E+01  0.13242987455E+02  0.10000000000E+01 0.  1.
    1000022    2    1    0    0    0 -0.22702792754E+02  0.56227931829E+02  0.11368990317E+02  0.62499991840E+02  0.99998961277E+01 0.  0.
    3000022    2    3    3    0    0 -0.14878062109E+02  0.46375343239E+02  0.73594011683E+01  0.49257004385E+02  0.25000556512E+00 0.  0.
    1000022    2    1    0    0    0  0.22702792754E+02 -0.56227931829E+02 -0.11368990317E+02  0.62500008160E+02  0.99999981270E+01 0.  0.
    3000022    2    5    5    0    0  0.13353071514E+02 -0.20235103394E+02 -0.50728397080E+01  0.24770146001E+02  0.25000396088E+00 0.  0.
        -13    1    4    4    0    0 -0.41021579172E+01  0.12711787817E+02  0.20486529579E+01  0.13513891113E+02  0.10500000000E+00 0. -1.
         13    1    4    4    0    0 -0.10775904192E+02  0.33663555422E+02  0.53107482104E+01  0.35743113271E+02  0.10500000000E+00 0.  1.
    3000001    1    5    5    0    0  0.93497212394E+01 -0.35992828436E+02 -0.62961506093E+01  0.37729862159E+02  0.10000000000E+01 0. -1.
        -13    1    6    6    0    0  0.33526669323E+01 -0.50362565939E+01 -0.12754417848E+01  0.61840142937E+01  0.10500000000E+00 0. -1.
         13    1    6    6    0    0  0.10000404582E+02 -0.15198846800E+02 -0.37973979232E+01  0.18586131707E+02  0.10500000000E+00 0.  1.
</event>
<event>
11    0  0.3439373E-009  0.9118800E+02  0.7816531E-02  0.1126479E+00
         25   -1    0    0    0    0  0.00000000000E+00  0.00000000000E+00  0.99999998245E-14  0.12500000000E+03  0.12500000000E+03 0.  0.
    3000001    1    3    3    0    0 -0.99579215975E+01 -0.12285837667E+01  0.11874303011E+02  0.15577826954E+02  0.10000000000E+01 0. -1.
    1000022    2    1    0    0    0 -0.42271686206E+02  0.11383690184E+02  0.43471439353E+02  0.62500000421E+02  0.10000007813E+02 0.  0.
    3000022    2    3    3    0    0 -0.32313764608E+02  0.12612273950E+02  0.31597136343E+02  0.46922173467E+02  0.25000088931E+00 0.  0.
    1000022    2    1    0    0    0  0.42271686206E+02 -0.11383690184E+02 -0.43471439353E+02  0.62499999579E+02  0.10000002553E+02 0.  0.
    3000022    2    5    5    0    0  0.17292407068E+02 -0.84016715920E+01 -0.23505549918E+02  0.30367561731E+02  0.25000155928E+00 0.  0.
        -13    1    4    4    0    0 -0.19907839928E+02  0.77877550988E+01  0.19551848651E+02  0.28969933220E+02  0.10500000000E+00 0. -1.
         13    1    4    4    0    0 -0.12405924680E+02  0.48245188515E+01  0.12045287692E+02  0.17952240247E+02  0.10500000000E+00 0.  1.
    3000001    1    5    5    0    0  0.24979279138E+02 -0.29820185916E+01 -0.19965889435E+02  0.32132437848E+02  0.10000000000E+01 0.  1.
        -13    1    6    6    0    0  0.49893297888E+01 -0.24494876676E+01 -0.67394447733E+01  0.87363918426E+01  0.10500000000E+00 0.  1.
         13    1    6    6    0    0  0.12303077279E+02 -0.59521839244E+01 -0.16766105145E+02  0.21631169888E+02  0.10500000000E+00 0. -1.
</event>
<event>
11    0  0.3439373E-009  0.9118800E+02  0.7816531E-02  0.1126479E+00
         25   -1    0    0    0    0  0.00000000000E+00  0.00000000000E+00  0.99999998245E-14  0.12500000000E+03  0.12500000000E+03 0.  0.
    3000001    1    3    3    0    0  0.17063890543E-02  0.12993146515E+01  0.60392101251E+00  0.17472670273E+01  0.10000000000E+01 0. -1.
    1000022    2    1    0    0    0  0.13349537586E+02  0.55766966166E+02 -0.22761498836E+02  0.62500003641E+02  0.99999978311E+01 0.  0.
    3000022    2    3    3    0    0  0.13347831197E+02  0.54467651515E+02 -0.23365419849E+02  0.60752736613E+02  0.25000413765E+00 0.  0.
    1000022    2    1    0    0    0 -0.13349537586E+02 -0.55766966166E+02  0.22761498836E+02  0.62499996359E+02  0.99999523245E+01 0.  0.
    3000022    2    5    5    0    0 -0.52729178962E+01 -0.12964945664E+02  0.16802006057E+01  0.14098902572E+02  0.25000091667E+00 0.  0.
        -13    1    4    4    0    0  0.10086647715E+02  0.41181417914E+02 -0.17688933076E+02  0.45940820867E+02  0.10500000000E+00 0.  1.
         13    1    4    4    0    0  0.32611834825E+01  0.13286233601E+02 -0.56764867726E+01  0.14811915746E+02  0.10500000000E+00 0. -1.
    3000001    1    5    5    0    0 -0.80766196902E+01 -0.42802020502E+02  0.21081298231E+02  0.48401093787E+02  0.10000000000E+01 0. -1.
        -13    1    6    6    0    0 -0.24412759092E+01 -0.58358668271E+01  0.73660477526E+00  0.63695197059E+01  0.10500000000E+00 0. -1.
         13    1    6    6    0    0 -0.28316419870E+01 -0.71290788370E+01  0.94359583046E+00  0.77293828666E+01  0.10500000000E+00 0.  1.
</event>
<event>
11    0  0.3439373E-009  0.9118800E+02  0.7816531E-02  0.1126479E+00
         25   -1    0    0    0    0  0.00000000000E+00  0.00000000000E+00  0.99999998245E-14  0.12500000000E+03  0.12500000000E+03 0.  0.
    3000001    1    3    3    0    0  0.10262603193E+02 -0.68869979018E+01 -0.34217848466E+00  0.12404388357E+02  0.10000000000E+01 0.  1.
    1000022    2    1    0    0    0  0.59230021269E+02 -0.17099640570E+02  0.23784284689E+01  0.62499999998E+02  0.99999975297E+01 0.  0.
    3000022    2    3    3    0    0  0.48967418076E+02 -0.10212642668E+02  0.27206069536E+01  0.50095611641E+02  0.25000033504E+00 0.  0.
    1000022    2    1    0    0    0 -0.59230021269E+02  0.17099640570E+02 -0.23784284689E+01  0.62500000002E+02  0.99999975558E+01 0.  0.
    3000022    2    5    5    0    0 -0.57684114878E+02  0.17936123757E+02 -0.19951937223E+01  0.60441748423E+02  0.25001952011E+00 0.  0.
        -13    1    4    4    0    0  0.12593619544E+02 -0.26040637910E+01  0.72020297140E+00  0.12880610186E+02  0.10500000000E+00 0. -1.
         13    1    4    4    0    0  0.36373798532E+02 -0.76085788773E+01  0.20004039822E+01  0.37215001455E+02  0.10500000000E+00 0.  1.
    3000001    1    5    5    0    0 -0.15459063906E+01 -0.83648318664E+00 -0.38323474660E+00  0.20582515786E+01  0.10000000000E+01 0.  1.
        -13    1    6    6    0    0 -0.34828889292E+02  0.10882321874E+02 -0.12424898304E+01  0.36510700687E+02  0.10500000000E+00 0.  1.
         13    1    6    6    0    0 -0.22855225587E+02  0.70538018828E+01 -0.75270389199E+00  0.23931047737E+02  0.10500000000E+00 0. -1.
</event>
<event>
11    0  0.3439373E-009  0.9118800E+02  0.7816531E-02  0.1126479E+00
         25   -1    0    0    0    0  0.00000000000E+00  0.00000000000E+00  0.99999998245E-14  0.12500000000E+03  0.12500000000E+03 0.  0.
    3000001    1    3    3    0    0  0.11001693692E+02 -0.32413375327E+01 -0.26806925810E+01  0.11820729496E+02  0.10000000000E+01 0. -1.
    1000022    2    1    0    0    0  0.47588978830E+02 -0.31881407792E+02 -0.22915386888E+02  0.62499999583E+02  0.99999961410E+01 0.  0.
    3000022    2    3    3    0    0  0.36587285138E+02 -0.28640070259E+02 -0.20234694308E+02  0.50679270088E+02  0.25000942609E+00 0.  0.
    1000022    2    1    0    0    0 -0.47588978830E+02  0.31881407792E+02  0.22915386888E+02  0.62500000417E+02  0.10000001348E+02 0.  0.
    3000022    2    5    5    0    0 -0.42636730052E+02  0.30556527512E+02  0.18381346555E+02  0.55583527510E+02  0.25001244245E+00 0.  0.
        -13    1    4    4    0    0  0.15513869637E+02 -0.12112345867E+02 -0.85059599931E+01  0.21441815546E+02  0.10500000000E+00 0.  1.
         13    1    4    4    0    0  0.21073415501E+02 -0.16527724392E+02 -0.11728734314E+02  0.29237454542E+02  0.10500000000E+00 0. -1.
    3000001    1    5    5    0    0 -0.49522487783E+01  0.13248802799E+01  0.45340403335E+01  0.69164729063E+01  0.10000000000E+01 0. -1.
        -13    1    6    6    0    0 -0.17926931933E+02  0.12774242486E+02  0.77402261425E+01  0.23334058484E+02  0.10500000000E+00 0.  1.
         13    1    6    6    0    0 -0.24709798119E+02  0.17782285026E+02  0.10641120412E+02  0.32249469026E+02  0.10500000000E+00 0. -1.
</event>
<event>
11    0  0.3439373E-009  0.9118800E+02  0.7816531E-02  0.1126479E+00
         25   -1    0    0    0    0  0.00000000000E+00  0.00000000000E+00  0.99999998245E-14  0.12500000000E+03  0.12500000000E+03 0.  0.
    3000001    1    3    3    0    0 -0.22077983793E+02  0.14495318732E+02 -0.14560086152E+02  0.30175283632E+02  0.10000000000E+01 0.  1.
    1000022    2    1    0    0    0 -0.38130794555E+02  0.31536648613E+02 -0.36847416922E+02  0.62499999685E+02  0.10000006386E+02 0.  0.
    3000022    2    3    3    0    0 -0.16052810761E+02  0.17041329881E+02 -0.22287330770E+02  0.32324716053E+02  0.24999523375E+00 0.  0.
    1000022    2    1    0    0    0  0.38130794555E+02 -0.31536648613E+02  0.36847416922E+02  0.62500000315E+02  0.10000010318E+02 0.  0.
    3000022    2    5    5    0    0  0.10246898226E+02 -0.33076543893E+01  0.71300855707E+01  0.12916660653E+02  0.25000272991E+00 0.  0.
        -13    1    4    4    0    0 -0.12360617588E+02  0.13127719645E+02 -0.17170953166E+02  0.24899288099E+02  0.10500000000E+00 0. -1.
         13    1    4    4    0    0 -0.36921931734E+01  0.39136102363E+01 -0.51163776042E+01  0.74254279540E+01  0.10500000000E+00 0.  1.
    3000001    1    5    5    0    0  0.27883896329E+02 -0.28228994224E+02  0.29717331352E+02  0.49583339662E+02  0.10000000000E+01 0.  1.
        -13    1    6    6    0    0  0.48464045979E+01 -0.15027960851E+01  0.33198589423E+01  0.60645298249E+01  0.10500000000E+00 0. -1.
         13    1    6    6    0    0  0.54004936277E+01 -0.18048583042E+01  0.38102266284E+01  0.68521308277E+01  0.10500000000E+00 0.  1.
</event>
<event>
11    0  0.3439373E-009  0.9118800E+02  0.7816531E-02  0.1126479E+00
         25   -1    0    0    0    0  0.00000000000E+00  0.00000000000E+00  0.99999998245E-14  0.12500000000E+03  0.12500000000E+03 0.  0.
    3000001    1    3    3    0    0  0.23360863713E+02 -0.36003429321E+00 -0.23532572020E+02  0.33175917832E+02  0.10000000000E+01 0. -1.
    1000022    2    1    0    0    0  0.46438501485E+02  0.71788635777E+01 -0.39977234158E+02  0.62499999380E+02  0.10000008454E+02 0.  0.
    3000022    2    3    3    0    0  0.23077637772E+02  0.75388978709E+01 -0.16444662138E+02  0.29324081548E+02  0.24999907247E+00 0.  0.
    1000022    2    1    0    0    0 -0.46438501485E+02 -0.71788635777E+01  0.39977234158E+02  0.62500000620E+02  0.10000016206E+02 0.  0.
    3000022    2    5    5    0    0 -0.23218763875E+01 -0.89534698833E+00 -0.17701765823E+00  0.25073083178E+01  0.25000712198E+00 0.  0.
        -13    1    4    4    0    0  0.85838797486E+01  0.27437484748E+01 -0.61239628072E+01  0.10896104473E+02  0.10500000000E+00 0.  1.
         13    1    4    4    0    0  0.14493758024E+02  0.47951493961E+01 -0.10320699331E+02  0.18427977075E+02  0.10500000000E+00 0. -1.
    3000001    1    5    5    0    0 -0.44116625098E+02 -0.62835165894E+01  0.40154251816E+02  0.59992692302E+02  0.10000000000E+01 0. -1.
        -13    1    6    6    0    0 -0.14000935884E+01 -0.48692699563E+00 -0.14526699615E+00  0.14931468299E+01  0.10500000000E+00 0.  1.
         13    1    6    6    0    0 -0.92178279902E+00 -0.40841999270E+00 -0.31750662074E-01  0.10141614879E+01  0.10500000000E+00 0. -1.
</event>
<event>
11    0  0.3439373E-009  0.9118800E+02  0.7816531E-02  0.1126479E+00
         25   -1    0    0    0    0  0.00000000000E+00  0.00000000000E+00  0.99999998245E-14  0.12500000000E+03  0.12500000000E+03 0.  0.
    3000001    1    3    3    0    0  0.62258435951E+01  0.19765409689E+02  0.90420658356E+01  0.22631648265E+02  0.10000000000E+01 0.  1.
    1000022    2    1    0    0    0  0.85302051946E+01  0.58920939829E+02  0.16180500099E+02  0.62499998706E+02  0.99999851882E+01 0.  0.
    3000022    2    3    3    0    0  0.23043615995E+01  0.39155530140E+02  0.71384342634E+01  0.39868350440E+02  0.25000030149E+00 0.  0.
    1000022    2    1    0    0    0 -0.85302051946E+01 -0.58920939829E+02 -0.16180500099E+02  0.62500001294E+02  0.10000001368E+02 0.  0.
    3000022    2    5    5    0    0 -0.80256215688E+01 -0.57686294731E+02 -0.14271261920E+02  0.59965411864E+02  0.25000386637E+00 0.  0.
        -13    1    4    4    0    0  0.11108771297E+01  0.19788596540E+02  0.36492726960E+01  0.20153183798E+02  0.10500000000E+00 0. -1.
         13    1    4    4    0    0  0.11934844698E+01  0.19366933601E+02  0.34891615673E+01  0.19715166642E+02  0.10500000000E+00 0.  1.
    3000001    1    5    5    0    0 -0.50458362578E+00 -0.12346450981E+01 -0.19092381794E+01  0.25345894302E+01  0.10000000000E+01 0. -1.
        -13    1    6    6    0    0 -0.18872436592E+01 -0.13613339318E+02 -0.33531705797E+01  0.14147065913E+02  0.10500000000E+00 0. -1.
         13    1    6    6    0    0 -0.61383779096E+01 -0.44072955413E+02 -0.10918091340E+02  0.45818345951E+02  0.10500000000E+00 0.  1.
</event>
<event>
11    0  0.3439373E-009  0.9118800E+02  0.7816531E-02  0.1126479E+00
         25   -1    0    0    0    0  0.00000000000E+00  0.00000000000E+00  0.99999998245E-14  0.12500000000E+03  0.12500000000E+03 0.  0.
    3000001    1    3    3    0    0  0.87206103933E+01 -0.11222835232E+02  0.17478361227E+02  0.22549815685E+02  0.10000000000E+01 0. -1.
    1000022    2    1    0    0    0  0.21527836275E+02 -0.41230267555E+02  0.40532295287E+02  0.62500002245E+02  0.10000031102E+02 0.  0.
    3000022    2    3    3    0    0  0.12807225882E+02 -0.30007432323E+02  0.23053934060E+02  0.39950186559E+02  0.25000214635E+00 0.  0.
    1000022    2    1    0    0    0 -0.21527836275E+02  0.41230267555E+02 -0.40532295287E+02  0.62499997755E+02  0.10000003046E+02 0.  0.
    3000022    2    5    5    0    0 -0.14478301205E+02  0.17463695584E+02 -0.17568951238E+02  0.28693769663E+02  0.25000128261E+00 0.  0.
        -13    1    4    4    0    0  0.47002102900E+01 -0.11016364745E+02  0.83909457574E+01  0.14624338094E+02  0.10500000000E+00 0. -1.
         13    1    4    4    0    0  0.81070155915E+01 -0.18991067578E+02  0.14662988303E+02  0.25325848466E+02  0.10500000000E+00 0.  1.
    3000001    1    5    5    0    0 -0.70495350698E+01  0.23766571971E+02 -0.22963344048E+02  0.33806228092E+02  0.10000000000E+01 0.  1.
        -13    1    6    6    0    0 -0.86027775710E+01  0.10475813487E+02 -0.10497920501E+02  0.17145489494E+02  0.10500000000E+00 0.  1.
         13    1    6    6    0    0 -0.58755236339E+01  0.69878820969E+01 -0.70710307369E+01  0.11548280169E+02  0.10500000000E+00 0. -1.
</event>
<event>
11    0  0.3439373E-009  0.9118800E+02  0.7816531E-02  0.1126479E+00
         25   -1    0    0    0    0  0.00000000000E+00  0.00000000000E+00  0.99999998245E-14  0.12500000000E+03  0.12500000000E+03 0.  0.
    3000001    1    3    3    0    0 -0.10794107618E+01  0.42319723947E+01 -0.19245233036E+01  0.48763211428E+01  0.10000000000E+01 0. -1.
    1000022    2    1    0    0    0 -0.23999739495E+01  0.37082431111E+02 -0.49248184121E+02  0.62499995928E+02  0.99999639832E+01 0.  0.
    3000022    2    3    3    0    0 -0.13205631877E+01  0.32850458716E+02 -0.47323660818E+02  0.57623674785E+02  0.24999504830E+00 0.  0.
    1000022    2    1    0    0    0  0.23999739495E+01 -0.37082431111E+02  0.49248184121E+02  0.62500004072E+02  0.10000014888E+02 0.  0.
    3000022    2    5    5    0    0  0.13970817138E+01 -0.33821934659E+02  0.47992295275E+02  0.58729873207E+02  0.24999953022E+00 0.  0.
        -13    1    4    4    0    0 -0.98699981330E+00  0.24564613092E+02 -0.35338143680E+02  0.43048691139E+02  0.10500000000E+00 0.  1.
         13    1    4    4    0    0 -0.33356337443E+00  0.82858456239E+01 -0.11985517138E+02  0.14574983646E+02  0.10500000000E+00 0. -1.
    3000001    1    5    5    0    0  0.10028922358E+01 -0.32604964513E+01  0.12558888465E+01  0.37701308651E+01  0.10000000000E+01 0.  1.
        -13    1    6    6    0    0  0.94252855895E+00 -0.21383294295E+02  0.30347469599E+02  0.37136418393E+02  0.10500000000E+00 0. -1.
         13    1    6    6    0    0  0.45455315482E+00 -0.12438640364E+02  0.17644825676E+02  0.21593454815E+02  0.10500000000E+00 0.  1.
</event>
<event>
11    0  0.3439373E-009  0.9118800E+02  0.7816531E-02  0.1126479E+00
         25   -1    0    0    0    0  0.00000000000E+00  0.00000000000E+00  0.99999998245E-14  0.12500000000E+03  0.12500000000E+03 0.  0.
    3000001    1    3    3    0    0 -0.35825793959E+02 -0.10826300215E+02  0.16365017053E+02  0.40859638671E+02  0.10000000000E+01 0. -1.
    1000022    2    1    0    0    0 -0.51147372743E+02 -0.15016069586E+02  0.31059837098E+02  0.62499998641E+02  0.10000013263E+02 0.  0.
    3000022    2    3    3    0    0 -0.15321578784E+02 -0.41897693708E+01  0.14694820045E+02  0.21640359970E+02  0.24999936555E+00 0.  0.
    1000022    2    1    0    0    0  0.51147372743E+02  0.15016069586E+02 -0.31059837098E+02  0.62500001359E+02  0.10000030249E+02 0.  0.
    3000022    2    5    5    0    0  0.79899475581E+01  0.40876904034E+01 -0.93366908920E+01  0.12953176019E+02  0.24999471730E+00 0.  0.
        -13    1    4    4    0    0 -0.84745131894E+01 -0.22878775764E+01  0.80385374707E+01  0.11902977244E+02  0.10500000000E+00 0.  1.
         13    1    4    4    0    0 -0.68470655941E+01 -0.19018917944E+01  0.66562825747E+01  0.97373827265E+01  0.10500000000E+00 0. -1.
    3000001    1    5    5    0    0  0.43157425185E+02  0.10928379182E+02 -0.21723146206E+02  0.49546825340E+02  0.10000000000E+01 0. -1.
        -13    1    6    6    0    0  0.42053091544E+01  0.20758181797E+01 -0.48697506320E+01  0.67615931863E+01  0.10500000000E+00 0. -1.
         13    1    6    6    0    0  0.37846384037E+01  0.20118722237E+01 -0.44669402600E+01  0.61915828330E+01  0.10500000000E+00 0.  1.
</event>
<event>
11    0  0.3439373E-009  0.9118800E+02  0.7816531E-02  0.1126479E+00
         25   -1    0    0    0    0  0.00000000000E+00  0.00000000000E+00  0.99999998245E-14  0.12500000000E+03  0.12500000000E+03 0.  0.
    3000001    1    3    3    0    0 -0.11587589860E+02 -0.10629099699E+02  0.28722826922E+02  0.32760506491E+02  0.10000000000E+01 0. -1.
    1000022    2    1    0    0    0 -0.27331319627E+02 -0.12480831821E+02  0.53883928993E+02  0.62500000241E+02  0.10000001542E+02 0.  0.
    3000022    2    3    3    0    0 -0.15743729768E+02 -0.18517321222E+01  0.25161102072E+02  0.29739493750E+02  0.24998440669E+00 0.  0.
    1000022    2    1    0    0    0  0.27331319627E+02  0.12480831821E+02 -0.53883928993E+02  0.62499999759E+02  0.99999985306E+01 0.  0.
    3000022    2    5    5    0    0  0.13099084979E+02  0.75012859405E+01 -0.36304378134E+02  0.39318261501E+02  0.24999539004E+00 0.  0.
        -13    1    4    4    0    0 -0.88411722802E+01 -0.10399793698E+01  0.14005422824E+02  0.16595504749E+02  0.10500000000E+00 0. -1.
         13    1    4    4    0    0 -0.69025574878E+01 -0.81175275243E+00  0.11155679247E+02  0.13143989002E+02  0.10500000000E+00 0.  1.
    3000001    1    5    5    0    0  0.14232234648E+02  0.49795458802E+01 -0.17579550859E+02  0.23181738258E+02  0.10000000000E+01 0.  1.
        -13    1    6    6    0    0  0.51624151692E+01  0.30283906344E+01 -0.14384649927E+02  0.15580464009E+02  0.10500000000E+00 0. -1.
         13    1    6    6    0    0  0.79366698099E+01  0.44728953061E+01 -0.21919728207E+02  0.23737797492E+02  0.10500000000E+00 0.  1.
</event>
<event>
11    0  0.3439373E-009  0.9118800E+02  0.7816531E-02  0.1126479E+00
         25   -1    0    0    0    0  0.00000000000E+00  0.00000000000E+00  0.99999998245E-14  0.12500000000E+03  0.12500000000E+03 0.  0.
    3000001    1    3    3    0    0  0.16948815084E+02  0.94769267821E+01  0.54930413119E+01  0.20205147286E+02  0.10000000000E+01 0. -1.
    1000022    2    1    0    0    0  0.50102850033E+02  0.21650850691E+02  0.28760996918E+02  0.62500001744E+02  0.10000017856E+02 0.  0.
    3000022    2    3    3    0    0  0.33154034950E+02  0.12173923909E+02  0.23267955606E+02  0.42294854458E+02  0.24999752643E+00 0.  0.
    1000022    2    1    0    0    0 -0.50102850033E+02 -0.21650850691E+02 -0.28760996918E+02  0.62499998256E+02  0.99999960611E+01 0.  0.
    3000022    2    5    5    0    0 -0.15909586889E+02 -0.11956532968E+02 -0.93236554971E+01  0.21978778111E+02  0.24999964178E+00 0.  0.
        -13    1    4    4    0    0  0.20385207316E+02  0.75480220029E+01  0.14341463809E+02  0.26042617431E+02  0.10500000000E+00 0. -1.
         13    1    4    4    0    0  0.12768827634E+02  0.46259019061E+01  0.89264917971E+01  0.16252237027E+02  0.10500000000E+00 0.  1.
    3000001    1    5    5    0    0 -0.34193263144E+02 -0.96943177229E+01 -0.19437341421E+02  0.40521220145E+02  0.10000000000E+01 0.  1.
        -13    1    6    6    0    0 -0.12124732325E+02 -0.91059111521E+01 -0.70846891641E+01  0.16737102420E+02  0.10500000000E+00 0.  1.
         13    1    6    6    0    0 -0.37848545641E+01 -0.28506218161E+01 -0.22389663330E+01  0.52416756910E+01  0.10500000000E+00 0. -1.
</event>
<event>
11    0  0.3439373E-009  0.9118800E+02  0.7816531E-02  0.1126479E+00
         25   -1    0    0    0    0  0.00000000000E+00  0.00000000000E+00  0.99999998245E-14  0.12500000000E+03  0.12500000000E+03 0.  0.
    3000001    1    3    3    0    0  0.29809826216E+02  0.71628730668E+01  0.11467903916E+02  0.32748210788E+02  0.10000000000E+01 0. -1.
    1000022    2    1    0    0    0  0.58871626268E+02  0.13414446086E+02  0.12666261224E+02  0.62499999744E+02  0.10000002567E+02 0.  0.
    3000022    2    3    3    0    0  0.29061800052E+02  0.62515730193E+01  0.11983573077E+01  0.29751788955E+02  0.24999668602E+00 0.  0.
    1000022    2    1    0    0    0 -0.58871626268E+02 -0.13414446086E+02 -0.12666261224E+02  0.62500000256E+02  0.10000005771E+02 0.  0.
    3000022    2    5    5    0    0 -0.78250695180E+01  0.15692425293E+01 -0.12993307308E+01  0.80898082940E+01  0.25000561732E+00 0.  0.
        -13    1    4    4    0    0  0.15339282192E+02  0.32775446247E+01  0.56836820746E+00  0.15696176106E+02  0.10500000000E+00 0. -1.
         13    1    4    4    0    0  0.13722517860E+02  0.29740283947E+01  0.62998910020E+00  0.14055612849E+02  0.10500000000E+00 0.  1.
    3000001    1    5    5    0    0 -0.51046556750E+02 -0.14983688615E+02 -0.11366930493E+02  0.54410191962E+02  0.10000000000E+01 0.  1.
        -13    1    6    6    0    0 -0.51690371967E+01  0.10263785195E+01 -0.91228837024E+00  0.53493638385E+01  0.10500000000E+00 0.  1.
         13    1    6    6    0    0 -0.26560323213E+01  0.54286400982E+00 -0.38704236054E+00  0.27404444555E+01  0.10500000000E+00 0. -1.
</event>
<event>
11    0  0.3439373E-009  0.9118800E+02  0.7816531E-02  0.1126479E+00
         25   -1    0    0    0    0  0.00000000000E+00  0.00000000000E+00  0.99999998245E-14  0.12500000000E+03  0.12500000000E+03 0.  0.
    3000001    1    3    3    0    0  0.16139134853E+01 -0.17003849261E+01  0.27824959994E+01  0.37733684715E+01  0.10000000000E+01 0.  1.
    1000022    2    1    0    0    0 -0.45950865580E+01 -0.45359706027E+02  0.41564793217E+02  0.62499998547E+02  0.10000001594E+02 0.  0.
    3000022    2    3    3    0    0 -0.62090000433E+01 -0.43659321101E+02  0.38782297217E+02  0.58726630075E+02  0.25000405312E+00 0.  0.
    1000022    2    1    0    0    0  0.45950865580E+01  0.45359706027E+02 -0.41564793217E+02  0.62500001453E+02  0.10000019762E+02 0.  0.
    3000022    2    5    5    0    0  0.13137412016E+01  0.25595040388E+02 -0.16867712956E+02  0.30682474703E+02  0.25001016982E+00 0.  0.
        -13    1    4    4    0    0 -0.25867647759E+01 -0.18625140278E+02  0.16566592691E+02  0.25060930166E+02  0.10500000000E+00 0. -1.
         13    1    4    4    0    0 -0.36222352675E+01 -0.25034180823E+02  0.22215704526E+02  0.33665699909E+02  0.10500000000E+00 0.  1.
    3000001    1    5    5    0    0  0.32813453564E+01  0.19764665638E+02 -0.24697080260E+02  0.31817526751E+02  0.10000000000E+01 0. -1.
        -13    1    6    6    0    0  0.44924515005E+00  0.81868015925E+01 -0.54464028167E+01  0.98437731669E+01  0.10500000000E+00 0. -1.
         13    1    6    6    0    0  0.86449605156E+00  0.17408238796E+02 -0.11421310140E+02  0.20838701536E+02  0.10500000000E+00 0.  1.
</event>
<event>
11    0  0.3439373E-009  0.9118800E+02  0.7816531E-02  0.1126479E+00
         25   -1    0    0    0    0  0.00000000000E+00  0.00000000000E+00  0.99999998245E-14  0.12500000000E+03  0.12500000000E+03 0.  0.
    3000001    1    3    3    0    0  0.36704538919E+01  0.34385256776E+01 -0.10647624092E+01  0.52373093852E+01  0.10000000000E+01 0.  1.
    1000022    2    1    0    0    0  0.22036094074E+02  0.46424259068E+02 -0.34138668225E+02  0.62500000253E+02  0.10000004574E+02 0.  0.
    3000022    2    3    3    0    0  0.18365640182E+02  0.42985733390E+02 -0.33073905815E+02  0.57262690868E+02  0.25001037469E+00 0.  0.
    1000022    2    1    0    0    0 -0.22036094074E+02 -0.46424259068E+02  0.34138668225E+02  0.62499999747E+02  0.10000001407E+02 0.  0.
    3000022    2    5    5    0    0 -0.89827456455E+01 -0.18177385619E+02  0.78198847790E+01  0.21732928146E+02  0.25000114146E+00 0.  0.
        -13    1    4    4    0    0  0.12274391585E+02  0.28607430625E+02 -0.21995161292E+02  0.38116189750E+02  0.10500000000E+00 0. -1.
         13    1    4    4    0    0  0.60912485974E+01  0.14378302765E+02 -0.11078744523E+02  0.19146501118E+02  0.10500000000E+00 0.  1.
    3000001    1    5    5    0    0 -0.13053348428E+02 -0.28246873449E+02  0.26318783446E+02  0.40767071601E+02  0.10000000000E+01 0. -1.
        -13    1    6    6    0    0 -0.56399180897E+01 -0.11408950056E+02  0.48441808322E+01  0.13618000234E+02  0.10500000000E+00 0. -1.
         13    1    6    6    0    0 -0.33428275558E+01 -0.67684355629E+01  0.29757039468E+01  0.81149279119E+01  0.10500000000E+00 0.  1.
</event>
<event>
11    0  0.3439373E-009  0.9118800E+02  0.7816531E-02  0.1126479E+00
         25   -1    0    0    0    0  0.00000000000E+00  0.00000000000E+00  0.99999998245E-14  0.12500000000E+03  0.12500000000E+03 0.  0.
    3000001    1    3    3    0    0 -0.23453499759E+02  0.46048718415E+01  0.22009829406E+02  0.32506985189E+02  0.10000000000E+01 0. -1.
    1000022    2    1    0    0    0 -0.41025115061E+02  0.17439195635E+02  0.42650491125E+02  0.62500000188E+02  0.10000001006E+02 0.  0.
    3000022    2    3    3    0    0 -0.17571615302E+02  0.12834323793E+02  0.20640661720E+02  0.29993014999E+02  0.25000188784E+00 0.  0.
    1000022    2    1    0    0    0  0.41025115061E+02 -0.17439195635E+02 -0.42650491125E+02  0.62499999812E+02  0.99999986554E+01 0.  0.
    3000022    2    5    5    0    0  0.53228106539E+01 -0.58408272794E+01 -0.99235312208E+01  0.12688047501E+02  0.25000184104E+00 0.  0.
        -13    1    4    4    0    0 -0.12237152397E+02  0.88805160949E+01  0.14353355211E+02  0.20848052564E+02  0.10500000000E+00 0. -1.
         13    1    4    4    0    0 -0.53344629043E+01  0.39538076985E+01  0.62873065085E+01  0.91449624344E+01  0.10500000000E+00 0.  1.
    3000001    1    5    5    0    0  0.35702304407E+02 -0.11598368355E+02 -0.32726959904E+02  0.49811952311E+02  0.10000000000E+01 0.  1.
        -13    1    6    6    0    0  0.36621427782E+01 -0.39825547012E+01 -0.67225913805E+01  0.86299647476E+01  0.10500000000E+00 0. -1.
         13    1    6    6    0    0  0.16606678757E+01 -0.18582725782E+01 -0.32009398404E+01  0.40580827530E+01  0.10500000000E+00 0.  1.
</event>
<event>
11    0  0.3439373E-009  0.9118800E+02  0.7816531E-02  0.1126479E+00
         25   -1    0    0    0    0  0.00000000000E+00  0.00000000000E+00  0.99999998245E-14  0.12500000000E+03  0.12500000000E+03 0.  0.
    3000001    1    3    3    0    0 -0.15099859430E+02 -0.22426028145E+01  0.20270658320E+02  0.25395562820E+02  0.10000000000E+01 0. -1.
    1000022    2    1    0    0    0 -0.44680572778E+02 -0.94234103378E+01  0.41486087272E+02  0.62500003522E+02  0.10000037849E+02 0.  0.
    3000022    2    3    3    0    0 -0.29580713349E+02 -0.71808075233E+01  0.21215428952E+02  0.37104440703E+02  0.24999074990E+00 0.  0.
    1000022    2    1    0    0    0  0.44680572778E+02  0.94234103378E+01 -0.41486087272E+02  0.62499996478E+02  0.99999938174E+01 0.  0.
    3000022    2    5    5    0    0  0.41957743900E+02  0.62921805460E+01 -0.38489871800E+02  0.57285046404E+02  0.25000234638E+00 0.  0.
        -13    1    4    4    0    0 -0.10360481597E+02 -0.25666973017E+01  0.74711889640E+01  0.13029090663E+02  0.10500000000E+00 0. -1.
         13    1    4    4    0    0 -0.19220231751E+02 -0.46141102216E+01  0.13744239988E+02  0.24075350040E+02  0.10500000000E+00 0.  1.
    3000001    1    5    5    0    0  0.27228288782E+01  0.31312297918E+01 -0.29962154723E+01  0.52149500732E+01  0.10000000000E+01 0. -1.
        -13    1    6    6    0    0  0.26591216737E+02  0.39426007393E+01 -0.24335013718E+02  0.36260733939E+02  0.10500000000E+00 0. -1.
         13    1    6    6    0    0  0.15366527163E+02  0.23495798066E+01 -0.14154858082E+02  0.21024312465E+02  0.10500000000E+00 0.  1.
</event>
<event>
11    0  0.3439373E-009  0.9118800E+02  0.7816531E-02  0.1126479E+00
         25   -1    0    0    0    0  0.00000000000E+00  0.00000000000E+00  0.99999998245E-14  0.12500000000E+03  0.12500000000E+03 0.  0.
    3000001    1    3    3    0    0  0.39645558976E+02 -0.15144226263E+02  0.97742497614E+01  0.43562069442E+02  0.10000000000E+01 0.  1.
    1000022    2    1    0    0    0  0.58099787255E+02 -0.19075743933E+02  0.81719490205E+01  0.62500000648E+02  0.10000002230E+02 0.  0.
    3000022    2    3    3    0    0  0.18454228278E+02 -0.39315176701E+01 -0.16023007409E+01  0.18937931207E+02  0.24999635570E+00 0.  0.
    1000022    2    1    0    0    0 -0.58099787255E+02  0.19075743933E+02 -0.81719490205E+01  0.62499999352E+02  0.99999941285E+01 0.  0.
    3000022    2    5    5    0    0 -0.19057593543E+02  0.10668156584E+02 -0.51200204542E+01  0.22433870479E+02  0.24999736116E+00 0.  0.
        -13    1    4    4    0    0  0.91673213738E+01 -0.19508583157E+01 -0.72789551002E+00  0.94014087355E+01  0.10500000000E+00 0.  1.
         13    1    4    4    0    0  0.92869069047E+01 -0.19806593544E+01 -0.87440523091E+00  0.95365224711E+01  0.10500000000E+00 0. -1.
    3000001    1    5    5    0    0 -0.39042193712E+02  0.84075873482E+01 -0.30519285662E+01  0.40066128873E+02  0.10000000000E+01 0.  1.
        -13    1    6    6    0    0 -0.54568426645E+01  0.30535840130E+01 -0.14231488318E+01  0.64138821931E+01  0.10500000000E+00 0. -1.
         13    1    6    6    0    0 -0.13600750878E+02  0.76145725715E+01 -0.36968716224E+01  0.16019988286E+02  0.10500000000E+00 0.  1.
</event>
<event>
11    0  0.3439373E-009  0.9118800E+02  0.7816531E-02  0.1126479E+00
         25   -1    0    0    0    0  0.00000000000E+00  0.00000000000E+00  0.99999998245E-14  0.12500000000E+03  0.12500000000E+03 0.  0.
    3000001    1    3    3    0    0 -0.84675395862E+01 -0.13840136129E+02 -0.53291934297E+02  0.55716055638E+02  0.10000000000E+01 0. -1.
    1000022    2    1    0    0    0 -0.62573321500E+01 -0.14319383826E+02 -0.59682920936E+02  0.62500000691E+02  0.10000003811E+02 0.  0.
    3000022    2    3    3    0    0  0.22102074361E+01 -0.47924769665E+00 -0.63909866387E+01  0.67839450536E+01  0.25001001673E+00 0.  0.
    1000022    2    1    0    0    0  0.62573321500E+01  0.14319383826E+02  0.59682920936E+02  0.62499999309E+02  0.99999951694E+01 0.  0.
    3000022    2    5    5    0    0  0.46611696138E+01  0.12332651259E+01  0.10258780161E+02  0.11338100118E+02  0.24999771535E+00 0.  0.
        -13    1    4    4    0    0  0.14328006229E+01 -0.25195346232E+00 -0.40760403854E+01  0.43291486918E+01  0.10500000000E+00 0. -1.
         13    1    4    4    0    0  0.77740681320E+00 -0.22729423432E+00 -0.23149462533E+01  0.24547963618E+01  0.10500000000E+00 0.  1.
    3000001    1    5    5    0    0  0.15961625362E+01  0.13086118700E+02  0.49424140775E+02  0.51161899191E+02  0.10000000000E+01 0. -1.
        -13    1    6    6    0    0  0.28254660455E+01  0.70687115624E+00  0.60790617904E+01  0.67415830824E+01  0.10500000000E+00 0.  1.
         13    1    6    6    0    0  0.18357035683E+01  0.52639396968E+00  0.41797183706E+01  0.45965170357E+01  0.10500000000E+00 0. -1.
</event>
<event>
11    0  0.3439373E-009  0.9118800E+02  0.7816531E-02  0.1126479E+00
         25   -1    0    0    0    0  0.00000000000E+00  0.00000000000E+00  0.99999998245E-14  0.12500000000E+03  0.12500000000E+03 0.  0.
    3000001    1    3    3    0    0  0.10944380899E+02  0.90793937363E+01 -0.10623163231E+02  0.17778258096E+02  0.10000000000E+01 0.  1.
    1000022    2    1    0    0    0  0.30261380505E+02  0.43697229823E+02 -0.31321730579E+02  0.62500000468E+02  0.10000010389E+02 0.  0.
    3000022    2    3    3    0    0  0.19316999605E+02  0.34617836087E+02 -0.20698567348E+02  0.44721742373E+02  0.25000293958E+00 0.  0.
    1000022    2    1    0    0    0 -0.30261380505E+02 -0.43697229823E+02  0.31321730579E+02  0.62499999532E+02  0.10000004535E+02 0.  0.
    3000022    2    5    5    0    0 -0.13336127942E+02 -0.13724856127E+02  0.15383696915E+02  0.24554930335E+02  0.24997752174E+00 0.  0.
        -13    1    4    4    0    0  0.13193888725E+02  0.23746315907E+02 -0.14182280310E+02  0.30644972159E+02  0.10500000000E+00 0.  1.
         13    1    4    4    0    0  0.61231108807E+01  0.10871520180E+02 -0.65162870389E+01  0.14076770214E+02  0.10500000000E+00 0.  1.
    3000001    1    5    5    0    0 -0.16925252563E+02 -0.29972373696E+02  0.15938033664E+02  0.37945069197E+02  0.10000000000E+01 0.  1.
        -13    1    6    6    0    0 -0.37744477740E+01 -0.38567742622E+01  0.43840206375E+01  0.69535477030E+01  0.10500000000E+00 0.  1.
         13    1    6    6    0    0 -0.95616801680E+01 -0.98680818649E+01  0.10999676278E+02  0.17601382632E+02  0.10500000000E+00 0. -1.
</event>
<event>
11    0  0.3439373E-009  0.9118800E+02  0.7816531E-02  0.1126479E+00
         25   -1    0    0    0    0  0.00000000000E+00  0.00000000000E+00  0.99999998245E-14  0.12500000000E+03  0.12500000000E+03 0.  0.
    3000001    1    3    3    0    0  0.42333499066E+01 -0.90127069863E+01 -0.16378819500E+00  0.10008844350E+02  0.10000000000E+01 0.  1.
    1000022    2    1    0    0    0  0.87561118998E+01 -0.59440620994E+02 -0.14014026468E+02  0.62500000616E+02  0.10000010971E+02 0.  0.
    3000022    2    3    3    0    0  0.45227619932E+01 -0.50427914008E+02 -0.13850238273E+02  0.52491156266E+02  0.24999741306E+00 0.  0.
    1000022    2    1    0    0    0 -0.87561118998E+01  0.59440620994E+02  0.14014026468E+02  0.62499999384E+02  0.10000003266E+02 0.  0.
    3000022    2    5    5    0    0 -0.22723271041E+01  0.27061176029E+02  0.15910419823E+01  0.27204129015E+02  0.25000468903E+00 0.  0.
        -13    1    4    4    0    0  0.23626794220E+01 -0.25608135116E+02 -0.70523891875E+01  0.26666571891E+02  0.10500000000E+00 0. -1.
         13    1    4    4    0    0  0.21600825712E+01 -0.24819778892E+02 -0.67978490851E+01  0.25824584375E+02  0.10500000000E+00 0.  1.
    3000001    1    5    5    0    0 -0.64837847957E+01  0.32379444965E+02  0.12422984485E+02  0.35295870368E+02  0.10000000000E+01 0. -1.
        -13    1    6    6    0    0 -0.64217502178E+00  0.75136789304E+01  0.40455128309E+00  0.75526450048E+01  0.10500000000E+00 0. -1.
         13    1    6    6    0    0 -0.16301520823E+01  0.19547497099E+02  0.11864906992E+01  0.19651484011E+02  0.10500000000E+00 0.  1.
</event>
<event>
11    0  0.3439373E-009  0.9118800E+02  0.7816531E-02  0.1126479E+00
         25   -1    0    0    0    0  0.00000000000E+00  0.00000000000E+00  0.99999998245E-14  0.12500000000E+03  0.12500000000E+03 0.  0.
    3000001    1    3    3    0    0  0.33064088533E+02  0.31895590249E+02 -0.14403104705E+02  0.48156121656E+02  0.10000000000E+01 0.  1.
    1000022    2    1    0    0    0  0.41894844497E+02  0.43173016460E+02 -0.13680761515E+02  0.62500000867E+02  0.99999763500E+01 0.  0.
    3000022    2    3    3    0    0  0.88307559641E+01  0.11277426212E+02  0.72234319015E+00  0.14343879210E+02  0.24999652673E+00 0.  0.
    1000022    2    1    0    0    0 -0.41894844497E+02 -0.43173016460E+02  0.13680761515E+02  0.62499999133E+02  0.99999655150E+01 0.  0.
    3000022    2    5    5    0    0 -0.10879654356E+02 -0.63607042284E+01  0.65271959276E+00  0.12621965615E+02  0.25007183503E+00 0.  0.
        -13    1    4    4    0    0  0.48331672769E+01  0.62716335811E+01  0.37332958164E+00  0.79273762166E+01  0.10500000000E+00 0. -1.
         13    1    4    4    0    0  0.39975886872E+01  0.50057926305E+01  0.34901360851E+00  0.64165029939E+01  0.10500000000E+00 0.  1.
    3000001    1    5    5    0    0 -0.31015190141E+02 -0.36812312232E+02  0.13028041923E+02  0.49878033518E+02  0.10000000000E+01 0.  1.
        -13    1    6    6    0    0 -0.56399011379E+01 -0.32948078885E+01  0.40608385121E+00  0.65452404816E+01  0.10500000000E+00 0. -1.
         13    1    6    6    0    0 -0.52397532183E+01 -0.30658963400E+01  0.24663574155E+00  0.60767251333E+01  0.10500000000E+00 0.  1.
</event>
<event>
11    0  0.3439373E-009  0.9118800E+02  0.7816531E-02  0.1126479E+00
         25   -1    0    0    0    0  0.00000000000E+00  0.00000000000E+00  0.99999998245E-14  0.12500000000E+03  0.12500000000E+03 0.  0.
    3000001    1    3    3    0    0 -0.21357236703E+02  0.58074707181E+02 -0.13830239376E+01  0.61900855640E+02  0.10000000000E+01 0. -1.
    1000022    2    1    0    0    0 -0.21513613917E+02  0.57814771584E+02 -0.93086091580E+00  0.62499999287E+02  0.10000000589E+02 0.  0.
    3000022    2    3    3    0    0 -0.15637721408E+00 -0.25993559793E+00  0.45216302180E+00  0.59914364639E+00  0.25000272513E+00 0.  0.
    1000022    2    1    0    0    0  0.21513613917E+02 -0.57814771584E+02  0.93086091580E+00  0.62500000713E+02  0.10000009506E+02 0.  0.
    3000022    2    5    5    0    0  0.62899165892E+01 -0.99313317342E+01 -0.28630015251E+01  0.12101804671E+02  0.24999568871E+00 0.  0.
        -13    1    4    4    0    0 -0.12539947469E+00 -0.21601603771E+00  0.35331182150E+00  0.44524397807E+00  0.10500000000E+00 0.  1.
         13    1    4    4    0    0 -0.30977739390E-01 -0.43919560222E-01  0.98851200302E-01  0.15389966832E+00  0.10500000000E+00 0. -1.
    3000001    1    5    5    0    0  0.15223697328E+02 -0.47883439849E+02  0.37938624409E+01  0.50398196043E+02  0.10000000000E+01 0. -1.
        -13    1    6    6    0    0  0.42213559115E+01 -0.65739255039E+01 -0.19259528301E+01  0.80471523886E+01  0.10500000000E+00 0.  1.
         13    1    6    6    0    0  0.20685606776E+01 -0.33574062303E+01 -0.93704869504E+00  0.40546522822E+01  0.10500000000E+00 0. -1.
</event>
<event>
11    0  0.3439373E-009  0.9118800E+02  0.7816531E-02  0.1126479E+00
         25   -1    0    0    0    0  0.00000000000E+00  0.00000000000E+00  0.99999998245E-14  0.12500000000E+03  0.12500000000E+03 0.  0.
    3000001    1    3    3    0    0  0.53437071883E+02 -0.23133586027E+02 -0.14098017690E+02  0.59920259986E+02  0.10000000000E+01 0.  1.
    1000022    2    1    0    0    0  0.54907831630E+02 -0.24938996262E+02 -0.13016392537E+02  0.62499999252E+02  0.99999961468E+01 0.  0.
    3000022    2    3    3    0    0  0.14707597470E+01 -0.18054102345E+01  0.10816251535E+01  0.25797392664E+01  0.25000272318E+00 0.  0.
    1000022    2    1    0    0    0 -0.54907831630E+02  0.24938996262E+02  0.13016392537E+02  0.62500000748E+02  0.10000005497E+02 0.  0.
    3000022    2    5    5    0    0 -0.12369865566E+01 -0.49082139927E+00  0.14526953949E+01  0.19859170254E+01  0.25000226850E+00 0.  0.
        -13    1    4    4    0    0  0.97135267693E+00 -0.11946368082E+01  0.65292300804E+00  0.16757137527E+01  0.10500000000E+00 0. -1.
         13    1    4    4    0    0  0.49940707008E+00 -0.61077342632E+00  0.42870214544E+00  0.90402551372E+00  0.10500000000E+00 0.  1.
    3000001    1    5    5    0    0 -0.53670845074E+02  0.25429817661E+02  0.11563697142E+02  0.60514083723E+02  0.10000000000E+01 0.  1.
        -13    1    6    6    0    0 -0.77300126742E+00 -0.36673100849E+00  0.94945608083E+00  0.12823862294E+01  0.10500000000E+00 0. -1.
         13    1    6    6    0    0 -0.46398528916E+00 -0.12409039078E+00  0.50323931409E+00  0.70353079598E+00  0.10500000000E+00 0.  1.
</event>
<event>
11    0  0.3439373E-009  0.9118800E+02  0.7816531E-02  0.1126479E+00
         25   -1    0    0    0    0  0.00000000000E+00  0.00000000000E+00  0.99999998245E-14  0.12500000000E+03  0.12500000000E+03 0.  0.
    3000001    1    3    3    0    0  0.51762588790E+02 -0.27783096206E+00 -0.49439893209E+01  0.52008516790E+02  0.10000000000E+01 0.  1.
    1000022    2    1    0    0    0  0.61132741131E+02  0.37286821229E+01 -0.74252708306E+01  0.62499997314E+02  0.99999954402E+01 0.  0.
    3000022    2    3    3    0    0  0.93701523405E+01  0.40065130850E+01 -0.24812815097E+01  0.10491480524E+02  0.25000733175E+00 0.  0.
    1000022    2    1    0    0    0 -0.61132741131E+02 -0.37286821229E+01  0.74252708306E+01  0.62500002686E+02  0.10000029016E+02 0.  0.
    3000022    2    5    5    0    0 -0.81128898595E+00  0.28755244602E+00 -0.11214828568E+01  0.14356536142E+01  0.25000254776E+00 0.  0.
        -13    1    4    4    0    0  0.60644569387E+01  0.25371217638E+01 -0.16264091212E+01  0.67728027017E+01  0.10500000000E+00 0. -1.
         13    1    4    4    0    0  0.33056954018E+01  0.14693913211E+01 -0.85487238846E+00  0.37186778221E+01  0.10500000000E+00 0.  1.
    3000001    1    5    5    0    0 -0.60321452145E+02 -0.40162345689E+01  0.85467536875E+01  0.61064349072E+02  0.10000000000E+01 0.  1.
        -13    1    6    6    0    0 -0.20278262454E+00  0.50208020406E-01 -0.26420711525E+00  0.35280594932E+00  0.10500000000E+00 0. -1.
         13    1    6    6    0    0 -0.60850636141E+00  0.23734442562E+00 -0.85727574159E+00  0.10828476649E+01  0.10500000000E+00 0.  1.
</event>
<event>
11    0  0.3439373E-009  0.9118800E+02  0.7816531E-02  0.1126479E+00
         25   -1    0    0    0    0  0.00000000000E+00  0.00000000000E+00  0.99999998245E-14  0.12500000000E+03  0.12500000000E+03 0.  0.
    3000001    1    3    3    0    0 -0.32624531943E+02  0.13300941516E+02  0.46897120426E+01  0.35556553950E+02  0.10000000000E+01 0. -1.
    1000022    2    1    0    0    0 -0.59377678245E+02  0.16333368687E+02  0.37097621919E+01  0.62500000045E+02  0.10000003183E+02 0.  0.
    3000022    2    3    3    0    0 -0.26753146301E+02  0.30324271706E+01 -0.97994985064E+00  0.26943446095E+02  0.25006836299E+00 0.  0.
    1000022    2    1    0    0    0  0.59377678245E+02 -0.16333368687E+02 -0.37097621919E+01  0.62499999955E+02  0.10000002625E+02 0.  0.
    3000022    2    5    5    0    0  0.50203379100E+01  0.13462241091E+01 -0.71577160491E+00  0.52527080601E+01  0.25000178312E+00 0.  0.
        -13    1    4    4    0    0 -0.12419426681E+02  0.13489555967E+01 -0.48813101698E+00  0.12502445248E+02  0.10500000000E+00 0. -1.
         13    1    4    4    0    0 -0.14333719621E+02  0.16834715739E+01 -0.49181883366E+00  0.14441000847E+02  0.10500000000E+00 0.  1.
    3000001    1    5    5    0    0  0.54357340335E+02 -0.17679592796E+02 -0.29939905870E+01  0.57247291895E+02  0.10000000000E+01 0.  1.
        -13    1    6    6    0    0  0.32875419309E+01  0.90127161958E+00 -0.52184690420E+00  0.34501553112E+01  0.10500000000E+00 0. -1.
         13    1    6    6    0    0  0.17327959791E+01  0.44495248952E+00 -0.19392470071E+00  0.18025527489E+01  0.10500000000E+00 0.  1.
</event>
<event>
11    0  0.3439373E-009  0.9118800E+02  0.7816531E-02  0.1126479E+00
         25   -1    0    0    0    0  0.00000000000E+00  0.00000000000E+00  0.99999998245E-14  0.12500000000E+03  0.12500000000E+03 0.  0.
    3000001    1    3    3    0    0  0.25775273407E+01  0.55605160843E+01 -0.41939038753E+02  0.42396296511E+02  0.10000000000E+01 0. -1.
    1000022    2    1    0    0    0 -0.29490969508E+01  0.88155236765E+01 -0.60990481333E+02  0.62499992924E+02  0.99999835909E+01 0.  0.
    3000022    2    3    3    0    0 -0.55266242915E+01  0.32550075922E+01 -0.19051442580E+02  0.20103696413E+02  0.24998925132E+00 0.  0.
    1000022    2    1    0    0    0  0.29490969508E+01 -0.88155236765E+01  0.60990481333E+02  0.62500007076E+02  0.10000072039E+02 0.  0.
    3000022    2    5    5    0    0  0.22904638252E+01  0.13259300834E+00  0.28713082056E+01  0.36838453959E+01  0.25000129727E+00 0.  0.
        -13    1    4    4    0    0 -0.36208555994E+01  0.21728892250E+01 -0.12404187536E+02  0.13103699336E+02  0.10500000000E+00 0.  1.
         13    1    4    4    0    0 -0.19057686921E+01  0.10821183671E+01 -0.66472550437E+01  0.69999970775E+01  0.10500000000E+00 0. -1.
    3000001    1    5    5    0    0  0.65863312562E+00 -0.89481166849E+01  0.58119173127E+02  0.58816161680E+02  0.10000000000E+01 0.  1.
        -13    1    6    6    0    0  0.54005427390E+00  0.18401014026E-01  0.70193700743E+00  0.89204135469E+00  0.10500000000E+00 0.  1.
         13    1    6    6    0    0  0.17504095513E+01  0.11419199432E+00  0.21693711982E+01  0.27918040412E+01  0.10500000000E+00 0. -1.
</event>
<event>
11    0  0.3439373E-009  0.9118800E+02  0.7816531E-02  0.1126479E+00
         25   -1    0    0    0    0  0.00000000000E+00  0.00000000000E+00  0.99999998245E-14  0.12500000000E+03  0.12500000000E+03 0.  0.
    3000001    1    3    3    0    0 -0.57005404788E+01  0.84489530358E+01 -0.22348911313E+02  0.24583628821E+02  0.10000000000E+01 0.  1.
    1000022    2    1    0    0    0 -0.25285000324E+02  0.23193266322E+02 -0.51273689446E+02  0.62499999043E+02  0.99999903448E+01 0.  0.
    3000022    2    3    3    0    0 -0.19584459845E+02  0.14744313286E+02 -0.28924778133E+02  0.37916370222E+02  0.24999805158E+00 0.  0.
    1000022    2    1    0    0    0  0.25285000324E+02 -0.23193266322E+02  0.51273689446E+02  0.62500000957E+02  0.10000002307E+02 0.  0.
    3000022    2    5    5    0    0  0.11931896590E+02 -0.53157470230E+01  0.14910337984E+02  0.19824429430E+02  0.25000155009E+00 0.  0.
        -13    1    4    4    0    0 -0.12412836283E+02  0.92918121211E+01 -0.18231027482E+02  0.23933191704E+02  0.10500000000E+00 0. -1.
         13    1    4    4    0    0 -0.71716235618E+01  0.54525011650E+01 -0.10693750651E+02  0.13983178518E+02  0.10500000000E+00 0.  1.
    3000001    1    5    5    0    0  0.13353103734E+02 -0.17877519299E+02  0.36363351462E+02  0.42675571527E+02  0.10000000000E+01 0. -1.
        -13    1    6    6    0    0  0.68295317357E+01 -0.29784079634E+01  0.84598268587E+01  0.11273558143E+02  0.10500000000E+00 0. -1.
         13    1    6    6    0    0  0.51023648542E+01 -0.23373390597E+01  0.64505111254E+01  0.85508712868E+01  0.10500000000E+00 0.  1.
</event>
<event>
11    0  0.3439373E-009  0.9118800E+02  0.7816531E-02  0.1126479E+00
         25   -1    0    0    0    0  0.00000000000E+00  0.00000000000E+00  0.99999998245E-14  0.12500000000E+03  0.12500000000E+03 0.  0.
    3000001    1    3    3    0    0 -0.13921078338E+02  0.10291747769E+02  0.41637349152E+01  0.17834045606E+02  0.10000000000E+01 0.  1.
    1000022    2    1    0    0    0 -0.55415136891E+02  0.26820626101E+02  0.40083358383E+01  0.62499998689E+02  0.99999849363E+01 0.  0.
    3000022    2    3    3    0    0 -0.41494058554E+02  0.16528878332E+02 -0.15539907687E+00  0.44665953083E+02  0.25000347976E+00 0.  0.
    1000022    2    1    0    0    0  0.55415136891E+02 -0.26820626101E+02 -0.40083358383E+01  0.62500001311E+02  0.10000001330E+02 0.  0.
    3000022    2    5    5    0    0  0.47613566019E+02 -0.18984849564E+02 -0.28795642927E+01  0.51340340599E+02  0.25000057523E+00 0.  0.
        -13    1    4    4    0    0 -0.14381737799E+02  0.57825417435E+01 -0.28399020151E-01  0.15501096820E+02  0.10500000000E+00 0. -1.
         13    1    4    4    0    0 -0.27112320755E+02  0.10746336589E+02 -0.12700005672E+00  0.29164856262E+02  0.10500000000E+00 0.  1.
    3000001    1    5    5    0    0  0.78015708726E+01 -0.78357765374E+01 -0.11287715456E+01  0.11159660713E+02  0.10000000000E+01 0. -1.
        -13    1    6    6    0    0  0.22297349302E+02 -0.88945140676E+01 -0.12812126367E+01  0.24040314000E+02  0.10500000000E+00 0.  1.
         13    1    6    6    0    0  0.25316216716E+02 -0.10090335497E+02 -0.15983516560E+01  0.27300026599E+02  0.10500000000E+00 0. -1.
</event>
<event>
11    0  0.3439373E-009  0.9118800E+02  0.7816531E-02  0.1126479E+00
         25   -1    0    0    0    0  0.00000000000E+00  0.00000000000E+00  0.99999998245E-14  0.12500000000E+03  0.12500000000E+03 0.  0.
    3000001    1    3    3    0    0  0.31389781514E+02  0.25800799665E+02  0.10500382291E+02  0.41979252912E+02  0.10000000000E+01 0.  1.
    1000022    2    1    0    0    0  0.42012005597E+02  0.40350186182E+02  0.20324957505E+02  0.62500000186E+02  0.99999993257E+01 0.  0.
    3000022    2    3    3    0    0  0.10622224083E+02  0.14549386517E+02  0.98245752133E+01  0.20520747274E+02  0.24999610837E+00 0.  0.
    1000022    2    1    0    0    0 -0.42012005597E+02 -0.40350186182E+02 -0.20324957505E+02  0.62499999814E+02  0.99999969982E+01 0.  0.
    3000022    2    5    5    0    0 -0.22783785183E+02 -0.25073153721E+02 -0.16289568064E+02  0.37592238994E+02  0.25000021510E+00 0.  0.
        -13    1    4    4    0    0  0.46932772072E+01  0.63201387835E+01  0.43120974800E+01  0.89764255059E+01  0.10500000000E+00 0.  1.
         13    1    4    4    0    0  0.59289468763E+01  0.82292477336E+01  0.55124777333E+01  0.11544321768E+02  0.10500000000E+00 0. -1.
    3000001    1    5    5    0    0 -0.19228220414E+02 -0.15277032461E+02 -0.40353894403E+01  0.24907760820E+02  0.10000000000E+01 0.  1.
        -13    1    6    6    0    0 -0.13565041446E+02 -0.14977969097E+02 -0.96564877669E+01  0.22396622260E+02  0.10500000000E+00 0.  1.
         13    1    6    6    0    0 -0.92187437372E+01 -0.10095184624E+02 -0.66330802973E+01  0.15195616734E+02  0.10500000000E+00 0. -1.
</event>
<event>
11    0  0.3439373E-009  0.9118800E+02  0.7816531E-02  0.1126479E+00
         25   -1    0    0    0    0  0.00000000000E+00  0.00000000000E+00  0.99999998245E-14  0.12500000000E+03  0.12500000000E+03 0.  0.
    3000001    1    3    3    0    0 -0.50622706494E+02  0.19146149065E+02  0.15499370362E+02  0.56306872746E+02  0.10000000000E+01 0.  1.
    1000022    2    1    0    0    0 -0.56213998870E+02  0.21273422713E+02  0.13916820278E+02  0.62499999499E+02  0.99999933910E+01 0.  0.
    3000022    2    3    3    0    0 -0.55912923757E+01  0.21272736480E+01 -0.15825500844E+01  0.61931267526E+01  0.25002120008E+00 0.  0.
    1000022    2    1    0    0    0  0.56213998870E+02 -0.21273422713E+02 -0.13916820278E+02  0.62500000501E+02  0.99999996543E+01 0.  0.
    3000022    2    5    5    0    0  0.45217606072E+02 -0.18491243842E+02 -0.74878012891E+01  0.49423553775E+02  0.25000365352E+00 0.  0.
        -13    1    4    4    0    0 -0.30307577418E+01  0.12242590971E+01 -0.87126029815E+00  0.33844382596E+01  0.10500000000E+00 0. -1.
         13    1    4    4    0    0 -0.25605346339E+01  0.90301455091E+00 -0.71128978623E+00  0.28086884930E+01  0.10500000000E+00 0.  1.
    3000001    1    5    5    0    0  0.10996392798E+02 -0.27821788715E+01 -0.64290189887E+01  0.13076446726E+02  0.10000000000E+01 0.  1.
        -13    1    6    6    0    0  0.18269413368E+02 -0.74697794717E+01 -0.30894339439E+01  0.19978105447E+02  0.10500000000E+00 0. -1.
         13    1    6    6    0    0  0.26948192705E+02 -0.11021464370E+02 -0.43983673452E+01  0.29445448328E+02  0.10500000000E+00 0.  1.
</event>
<event>
11    0  0.3439373E-009  0.9118800E+02  0.7816531E-02  0.1126479E+00
         25   -1    0    0    0    0  0.00000000000E+00  0.00000000000E+00  0.99999998245E-14  0.12500000000E+03  0.12500000000E+03 0.  0.
    3000001    1    3    3    0    0 -0.27482651081E+01 -0.37529476237E+01 -0.58827786055E+01  0.75660201620E+01  0.10000000000E+01 0.  1.
    1000022    2    1    0    0    0 -0.34192201617E+02 -0.80013917681E+01 -0.50725937618E+02  0.62499997200E+02  0.99999990598E+01 0.  0.
    3000022    2    3    3    0    0 -0.31443936509E+02 -0.42484441444E+01 -0.44843159012E+02  0.54933977038E+02  0.25000444415E+00 0.  0.
    1000022    2    1    0    0    0  0.34192201617E+02  0.80013917681E+01  0.50725937618E+02  0.62500002800E+02  0.10000034060E+02 0.  0.
    3000022    2    5    5    0    0  0.19084150015E+02 -0.44372789257E+00  0.28695265172E+02  0.34465670319E+02  0.25002195333E+00 0.  0.
        -13    1    4    4    0    0 -0.83596511557E+01 -0.10990200206E+01 -0.11888983104E+02  0.14575683747E+02  0.10500000000E+00 0.  1.
         13    1    4    4    0    0 -0.23084285353E+02 -0.31494241238E+01 -0.32954175908E+02  0.40358293291E+02  0.10500000000E+00 0. -1.
    3000001    1    5    5    0    0  0.15108051602E+02  0.84451196607E+01  0.22030672445E+02  0.28034332482E+02  0.10000000000E+01 0. -1.
        -13    1    6    6    0    0  0.89077789781E+01 -0.14845026714E+00  0.13332305608E+02  0.16035334784E+02  0.10500000000E+00 0.  1.
         13    1    6    6    0    0  0.10176371037E+02 -0.29527762543E+00  0.15362959564E+02  0.18430335535E+02  0.10500000000E+00 0. -1.
</event>
<event>
11    0  0.3439373E-009  0.9118800E+02  0.7816531E-02  0.1126479E+00
         25   -1    0    0    0    0  0.00000000000E+00  0.00000000000E+00  0.99999998245E-14  0.12500000000E+03  0.12500000000E+03 0.  0.
    3000001    1    3    3    0    0 -0.29676266648E+02  0.37652363405E+02  0.35993983579E+02  0.59957886271E+02  0.10000000000E+01 0. -1.
    1000022    2    1    0    0    0 -0.31790625910E+02  0.39008273108E+02  0.35692586971E+02  0.62500000517E+02  0.10000001665E+02 0.  0.
    3000022    2    3    3    0    0 -0.21143592614E+01  0.13559097033E+01 -0.30139660794E+00  0.25421142461E+01  0.24999743136E+00 0.  0.
    1000022    2    1    0    0    0  0.31790625910E+02 -0.39008273108E+02 -0.35692586971E+02  0.62499999483E+02  0.99999952066E+01 0.  0.
    3000022    2    5    5    0    0  0.87056308777E+01 -0.47275422059E+01 -0.80698016840E+01  0.12779744317E+02  0.25000259120E+00 0.  0.
        -13    1    4    4    0    0 -0.11086992261E+01  0.74397744553E+00 -0.22190218933E+00  0.13575647296E+01  0.10500000000E+00 0. -1.
         13    1    4    4    0    0 -0.10056600353E+01  0.61193225774E+00 -0.79494418613E-01  0.11845495166E+01  0.10500000000E+00 0.  1.
    3000001    1    5    5    0    0  0.23084995032E+02 -0.34280730902E+02 -0.27622785287E+02  0.49720255167E+02  0.10000000000E+01 0. -1.
        -13    1    6    6    0    0  0.61754830284E+01 -0.33821997852E+01 -0.57790367701E+01  0.91095640406E+01  0.10500000000E+00 0.  1.
         13    1    6    6    0    0  0.25301478493E+01 -0.13453424207E+01 -0.22907649139E+01  0.36701802761E+01  0.10500000000E+00 0. -1.
</event>
<event>
11    0  0.3439373E-009  0.9118800E+02  0.7816531E-02  0.1126479E+00
         25   -1    0    0    0    0  0.00000000000E+00  0.00000000000E+00  0.99999998245E-14  0.12500000000E+03  0.12500000000E+03 0.  0.
    3000001    1    3    3    0    0 -0.35469220347E+02  0.38155505063E+02 -0.27299756616E+02  0.58823336100E+02  0.10000000000E+01 0.  1.
    1000022    2    1    0    0    0 -0.35613132480E+02  0.41684270512E+02 -0.28290921016E+02  0.62500001318E+02  0.10000016985E+02 0.  0.
    3000022    2    3    3    0    0 -0.14391213383E+00  0.35287654492E+01 -0.99116440009E+00  0.36766652189E+01  0.25012790021E+00 0.  0.
    1000022    2    1    0    0    0  0.35613132480E+02 -0.41684270512E+02  0.28290921016E+02  0.62499998682E+02  0.10000000504E+02 0.  0.
    3000022    2    5    5    0    0  0.28658345982E+02 -0.28585616814E+02  0.23869988741E+02  0.46992309424E+02  0.24999883579E+00 0.  0.
        -13    1    4    4    0    0 -0.10520827629E+00  0.26857297775E+01 -0.77260151323E+00  0.27985980986E+01  0.10500000000E+00 0. -1.
         13    1    4    4    0    0 -0.38703857542E-01  0.84303567169E+00 -0.21856288686E+00  0.87806712035E+00  0.10500000000E+00 0.  1.
    3000001    1    5    5    0    0  0.69547864987E+01 -0.13098653698E+02  0.44209322750E+01  0.15507689258E+02  0.10000000000E+01 0. -1.
        -13    1    6    6    0    0  0.22041802108E+02 -0.21980762920E+02  0.18365832381E+02  0.36142908057E+02  0.10500000000E+00 0.  1.
         13    1    6    6    0    0  0.66165438734E+01 -0.66048538938E+01  0.55041563598E+01  0.10849401367E+02  0.10500000000E+00 0. -1.
</event>
<event>
11    0  0.3439373E-009  0.9118800E+02  0.7816531E-02  0.1126479E+00
         25   -1    0    0    0    0  0.00000000000E+00  0.00000000000E+00  0.99999998245E-14  0.12500000000E+03  0.12500000000E+03 0.  0.
    3000001    1    3    3    0    0 -0.19838357719E+02  0.97193861591E+01 -0.23168585568E+02  0.32028272846E+02  0.10000000000E+01 0.  1.
    1000022    2    1    0    0    0 -0.38873206971E+02  0.26864976051E+02 -0.39666065410E+02  0.62499998705E+02  0.99999967291E+01 0.  0.
    3000022    2    3    3    0    0 -0.19034849251E+02  0.17145589891E+02 -0.16497479842E+02  0.30471725858E+02  0.24999376931E+00 0.  0.
    1000022    2    1    0    0    0  0.38873206971E+02 -0.26864976051E+02  0.39666065410E+02  0.62500001295E+02  0.10000012922E+02 0.  0.
    3000022    2    5    5    0    0  0.16885419141E+01 -0.45609049306E+01  0.31229029564E+01  0.57851564486E+01  0.24996935541E+00 0.  0.
        -13    1    4    4    0    0 -0.60710265878E+01  0.54746697102E+01 -0.52048495804E+01  0.96917932511E+01  0.10500000000E+00 0.  1.
         13    1    4    4    0    0 -0.12963822664E+02  0.11670920181E+02 -0.11292630262E+02  0.20779932607E+02  0.10500000000E+00 0. -1.
    3000001    1    5    5    0    0  0.37184665057E+02 -0.22304071120E+02  0.36543162454E+02  0.56714844847E+02  0.10000000000E+01 0.  1.
        -13    1    6    6    0    0  0.93999796927E+00 -0.23585722090E+01  0.16597376252E+01  0.30351627686E+01  0.10500000000E+00 0.  1.
         13    1    6    6    0    0  0.74854394481E+00 -0.22023327216E+01  0.14631653311E+01  0.27499936801E+01  0.10500000000E+00 0. -1.
</event>
<event>
11    0  0.3439373E-009  0.9118800E+02  0.7816531E-02  0.1126479E+00
         25   -1    0    0    0    0  0.00000000000E+00  0.00000000000E+00  0.99999998245E-14  0.12500000000E+03  0.12500000000E+03 0.  0.
    3000001    1    3    3    0    0  0.12131407633E+02  0.25454845974E+02 -0.27856920267E+02  0.39650072402E+02  0.10000000000E+01 0. -1.
    1000022    2    1    0    0    0  0.15742353870E+02  0.35022767022E+02 -0.48289068211E+02  0.62500000583E+02  0.10000002451E+02 0.  0.
    3000022    2    3    3    0    0  0.36109462375E+01  0.95679210479E+01 -0.20432147944E+02  0.22849928182E+02  0.25000479613E+00 0.  0.
    1000022    2    1    0    0    0 -0.15742353870E+02 -0.35022767022E+02  0.48289068211E+02  0.62499999417E+02  0.99999951595E+01 0.  0.
    3000022    2    5    5    0    0 -0.13661712099E+02 -0.30020246894E+02  0.45833803165E+02  0.56468199996E+02  0.24999432482E+00 0.  0.
        -13    1    4    4    0    0  0.26138185204E+01  0.69986810774E+01 -0.14867772078E+02  0.16639568975E+02  0.10500000000E+00 0.  1.
         13    1    4    4    0    0  0.99712771709E+00  0.25692399705E+01 -0.55643758655E+01  0.62103592072E+01  0.10500000000E+00 0. -1.
    3000001    1    5    5    0    0 -0.20806417711E+01 -0.50025201279E+01  0.24552650461E+01  0.60317994211E+01  0.10000000000E+01 0.  1.
        -13    1    6    6    0    0 -0.36067471046E+01 -0.78756588228E+01  0.12081667593E+02  0.14866483895E+02  0.10500000000E+00 0.  1.
         13    1    6    6    0    0 -0.10054964994E+02 -0.22144588071E+02  0.33752135572E+02  0.41601716101E+02  0.10500000000E+00 0. -1.
</event>
<event>
11    0  0.3439373E-009  0.9118800E+02  0.7816531E-02  0.1126479E+00
         25   -1    0    0    0    0  0.00000000000E+00  0.00000000000E+00  0.99999998245E-14  0.12500000000E+03  0.12500000000E+03 0.  0.
    3000001    1    3    3    0    0  0.50847832095E+01 -0.15354951327E+02  0.30753707152E+02  0.34762336719E+02  0.10000000000E+01 0.  1.
    1000022    2    1    0    0    0  0.17363554304E+02 -0.24704698568E+02  0.53799952354E+02  0.62499999143E+02  0.99999935128E+01 0.  0.
    3000022    2    3    3    0    0  0.12278771094E+02 -0.93497472407E+01  0.23046245202E+02  0.27737662425E+02  0.25001166934E+00 0.  0.
    1000022    2    1    0    0    0 -0.17363554304E+02  0.24704698568E+02 -0.53799952354E+02  0.62500000857E+02  0.10000004219E+02 0.  0.
    3000022    2    5    5    0    0 -0.13962807896E+02  0.17450386481E+02 -0.30297901082E+02  0.37649718484E+02  0.24999861879E+00 0.  0.
        -13    1    4    4    0    0  0.72720053825E+01 -0.55228078210E+01  0.13522436741E+02  0.16317193047E+02  0.10500000000E+00 0.  1.
         13    1    4    4    0    0  0.50067657119E+01 -0.38269394197E+01  0.95238084605E+01  0.11420469378E+02  0.10500000000E+00 0. -1.
    3000001    1    5    5    0    0 -0.34007464080E+01  0.72543120869E+01 -0.23502051272E+02  0.24850282372E+02  0.10000000000E+01 0.  1.
        -13    1    6    6    0    0 -0.59139642876E+01  0.73619322143E+01 -0.12697007068E+02  0.15823970204E+02  0.10500000000E+00 0. -1.
         13    1    6    6    0    0 -0.80488436083E+01  0.10088454267E+02 -0.17600894014E+02  0.21825748281E+02  0.10500000000E+00 0.  1.
</event>
<event>
11    0  0.3439373E-009  0.9118800E+02  0.7816531E-02  0.1126479E+00
         25   -1    0    0    0    0  0.00000000000E+00  0.00000000000E+00  0.99999998245E-14  0.12500000000E+03  0.12500000000E+03 0.  0.
    3000001    1    3    3    0    0 -0.41020428143E+02 -0.55135047417E+01  0.21579072479E+02  0.46687585380E+02  0.10000000000E+01 0.  1.
    1000022    2    1    0    0    0 -0.54318763939E+02 -0.12564796814E+02  0.26416796192E+02  0.62500003954E+02  0.10000056922E+02 0.  0.
    3000022    2    3    3    0    0 -0.13298335796E+02 -0.70512920721E+01  0.48377237131E+01  0.15812418574E+02  0.25011122036E+00 0.  0.
    1000022    2    1    0    0    0  0.54318763939E+02  0.12564796814E+02 -0.26416796192E+02  0.62499996046E+02  0.10000007491E+02 0.  0.
    3000022    2    5    5    0    0  0.34024771520E+02  0.32834346042E+01 -0.17960604291E+02  0.38614917142E+02  0.24999918501E+00 0.  0.
        -13    1    4    4    0    0 -0.95032459482E+01 -0.50713304977E+01  0.34930430637E+01  0.11324418370E+02  0.10500000000E+00 0. -1.
         13    1    4    4    0    0 -0.37950898477E+01 -0.19799615744E+01  0.13446806494E+01  0.44880002047E+01  0.10500000000E+00 0.  1.
    3000001    1    5    5    0    0  0.20293992419E+02  0.92813622096E+01 -0.84561919008E+01  0.23885078904E+02  0.10000000000E+01 0.  1.
        -13    1    6    6    0    0  0.14720131624E+02  0.14628217992E+01 -0.78294655104E+01  0.16737194443E+02  0.10500000000E+00 0.  1.
         13    1    6    6    0    0  0.19304639896E+02  0.18206128050E+01 -0.10131138780E+02  0.21877722699E+02  0.10500000000E+00 0. -1.
</event>
<event>
11    0  0.3439373E-009  0.9118800E+02  0.7816531E-02  0.1126479E+00
         25   -1    0    0    0    0  0.00000000000E+00  0.00000000000E+00  0.99999998245E-14  0.12500000000E+03  0.12500000000E+03 0.  0.
    3000001    1    3    3    0    0  0.11053196420E+02 -0.17961785342E+02  0.13240830373E+02  0.24922248549E+02  0.10000000000E+01 0.  1.
    1000022    2    1    0    0    0  0.37311857244E+02 -0.37897552058E+02  0.31270606052E+02  0.62499999601E+02  0.10000000211E+02 0.  0.
    3000022    2    3    3    0    0  0.26258660824E+02 -0.19935766716E+02  0.18029775679E+02  0.37577751051E+02  0.25000044849E+00 0.  0.
    1000022    2    1    0    0    0 -0.37311857244E+02  0.37897552058E+02 -0.31270606052E+02  0.62500000399E+02  0.10000005203E+02 0.  0.
    3000022    2    5    5    0    0 -0.21183124280E+02  0.28047898394E+02 -0.19166157005E+02  0.40035152502E+02  0.25000584917E+00 0.  0.
        -13    1    4    4    0    0  0.11637791314E+02 -0.87615111617E+01  0.79318571092E+01  0.16586972198E+02  0.10500000000E+00 0.  1.
         13    1    4    4    0    0  0.14620869511E+02 -0.11174255554E+02  0.10097918569E+02  0.20990778853E+02  0.10500000000E+00 0. -1.
    3000001    1    5    5    0    0 -0.16128732964E+02  0.98496536644E+01 -0.12104449047E+02  0.22464847898E+02  0.10000000000E+01 0.  1.
        -13    1    6    6    0    0 -0.72606887903E+01  0.95336195867E+01 -0.65046967210E+01  0.13635600778E+02  0.10500000000E+00 0.  1.
         13    1    6    6    0    0 -0.13922435490E+02  0.18514278807E+02 -0.12661460284E+02  0.26399551724E+02  0.10500000000E+00 0. -1.
</event>
<event>
11    0  0.3439373E-009  0.9118800E+02  0.7816531E-02  0.1126479E+00
         25   -1    0    0    0    0  0.00000000000E+00  0.00000000000E+00  0.99999998245E-14  0.12500000000E+03  0.12500000000E+03 0.  0.
    3000001    1    3    3    0    0 -0.41730514791E+01 -0.24365218603E+01  0.47641494421E+01  0.68591630196E+01  0.10000000000E+01 0. -1.
    1000022    2    1    0    0    0 -0.53355314660E+02 -0.22751974193E+02  0.21019230174E+02  0.62500000194E+02  0.10000002747E+02 0.  0.
    3000022    2    3    3    0    0 -0.49182263181E+02 -0.20315452332E+02  0.16255080732E+02  0.55640837174E+02  0.24999348620E+00 0.  0.
    1000022    2    1    0    0    0  0.53355314660E+02  0.22751974193E+02 -0.21019230174E+02  0.62499999806E+02  0.10000000326E+02 0.  0.
    3000022    2    5    5    0    0  0.47342090482E+02  0.16760281086E+02 -0.16718780529E+02  0.52931660429E+02  0.25000009290E+00 0.  0.
        -13    1    4    4    0    0 -0.31745154909E+02 -0.13074606938E+02  0.10440311146E+02  0.35884694907E+02  0.10500000000E+00 0.  1.
         13    1    4    4    0    0 -0.17437108272E+02 -0.72408453947E+01  0.58147695866E+01  0.19756142267E+02  0.10500000000E+00 0. -1.
    3000001    1    5    5    0    0  0.60132241779E+01  0.59916931062E+01 -0.43004496451E+01  0.95683393775E+01  0.10000000000E+01 0.  1.
        -13    1    6    6    0    0  0.28057370235E+02  0.99739106499E+01 -0.99663884653E+01  0.31401191732E+02  0.10500000000E+00 0.  1.
         13    1    6    6    0    0  0.19284720248E+02  0.67863704366E+01 -0.67523920640E+01  0.21530468697E+02  0.10500000000E+00 0. -1.
</event>
<event>
11    0  0.3439373E-009  0.9118800E+02  0.7816531E-02  0.1126479E+00
         25   -1    0    0    0    0  0.00000000000E+00  0.00000000000E+00  0.99999998245E-14  0.12500000000E+03  0.12500000000E+03 0.  0.
    3000001    1    3    3    0    0  0.47814543359E+01  0.28424951884E-01  0.46833257865E+01  0.67673225109E+01  0.10000000000E+01 0. -1.
    1000022    2    1    0    0    0  0.56599309772E+02 -0.11257535228E+02  0.21818250074E+02  0.62499998485E+02  0.99999904159E+01 0.  0.
    3000022    2    3    3    0    0  0.51817855436E+02 -0.11285960180E+02  0.17134924288E+02  0.55732675974E+02  0.25000354477E+00 0.  0.
    1000022    2    1    0    0    0 -0.56599309772E+02  0.11257535228E+02 -0.21818250074E+02  0.62500001515E+02  0.10000009351E+02 0.  0.
    3000022    2    5    5    0    0 -0.31903423266E+02  0.34751925603E+01 -0.16345980752E+02  0.36016093207E+02  0.25000750855E+00 0.  0.
        -13    1    4    4    0    0  0.33248025104E+02 -0.72493353918E+01  0.11055062056E+02  0.35780014799E+02  0.10500000000E+00 0. -1.
         13    1    4    4    0    0  0.18569830332E+02 -0.40366247882E+01  0.60798622313E+01  0.19952661176E+02  0.10500000000E+00 0.  1.
    3000001    1    5    5    0    0 -0.24695886506E+02  0.77823426678E+01 -0.54722693219E+01  0.26483908308E+02  0.10000000000E+01 0. -1.
        -13    1    6    6    0    0 -0.23832887341E+02  0.25881421018E+01 -0.12180066601E+02  0.26889961806E+02  0.10500000000E+00 0. -1.
         13    1    6    6    0    0 -0.80705359247E+01  0.88705045848E+00 -0.41659141516E+01  0.91261314009E+01  0.10500000000E+00 0.  1.
</event>
<event>
11    0  0.3439373E-009  0.9118800E+02  0.7816531E-02  0.1126479E+00
         25   -1    0    0    0    0  0.00000000000E+00  0.00000000000E+00  0.99999998245E-14  0.12500000000E+03  0.12500000000E+03 0.  0.
    3000001    1    3    3    0    0  0.54477465647E+02 -0.21410984405E+02 -0.13469758132E+02  0.60072114168E+02  0.10000000000E+01 0.  1.
    1000022    2    1    0    0    0  0.56155150357E+02 -0.22496766528E+02 -0.12113808492E+02  0.62500001154E+02  0.10000018609E+02 0.  0.
    3000022    2    3    3    0    0  0.16776847103E+01 -0.10857821236E+01  0.13559496400E+01  0.24278869857E+01  0.24997396274E+00 0.  0.
    1000022    2    1    0    0    0 -0.56155150357E+02  0.22496766528E+02  0.12113808492E+02  0.62499998846E+02  0.10000004188E+02 0.  0.
    3000022    2    5    5    0    0 -0.16134407563E+02  0.72281209381E+01  0.81552034411E+01  0.19471381091E+02  0.24999747754E+00 0.  0.
        -13    1    4    4    0    0  0.79575120012E+00 -0.43737294016E+00  0.59784260781E+00  0.10922251805E+01  0.10500000000E+00 0. -1.
         13    1    4    4    0    0  0.88193351021E+00 -0.64840918346E+00  0.75810703222E+00  0.13356618052E+01  0.10500000000E+00 0.  1.
    3000001    1    5    5    0    0 -0.40020742794E+02  0.15268645590E+02  0.39586050508E+01  0.43028617755E+02  0.10000000000E+01 0.  1.
        -13    1    6    6    0    0 -0.11812578956E+02  0.53121028209E+01  0.60068272548E+01  0.14277550793E+02  0.10500000000E+00 0.  1.
         13    1    6    6    0    0 -0.43218286063E+01  0.19160181173E+01  0.21483761863E+01  0.51938302981E+01  0.10500000000E+00 0. -1.
</event>
<event>
11    0  0.3439373E-009  0.9118800E+02  0.7816531E-02  0.1126479E+00
         25   -1    0    0    0    0  0.00000000000E+00  0.00000000000E+00  0.99999998245E-14  0.12500000000E+03  0.12500000000E+03 0.  0.
    3000001    1    3    3    0    0  0.37104874080E+02 -0.12805040141E+02  0.10638630618E+02  0.40680722645E+02  0.10000000000E+01 0.  1.
    1000022    2    1    0    0    0  0.57275982291E+02 -0.12902758446E+02  0.18953376043E+02  0.62499995018E+02  0.99999795434E+01 0.  0.
    3000022    2    3    3    0    0  0.20171108211E+02 -0.97718305072E-01  0.83147454248E+01  0.21819272373E+02  0.25000012067E+00 0.  0.
    1000022    2    1    0    0    0 -0.57275982291E+02  0.12902758446E+02 -0.18953376043E+02  0.62500004982E+02  0.10000041817E+02 0.  0.
    3000022    2    5    5    0    0 -0.53894333882E+02  0.14200198216E+02 -0.17025058546E+02  0.58276581691E+02  0.25000237890E+00 0.  0.
        -13    1    4    4    0    0  0.14032573910E+02 -0.23694846618E-01  0.58010158116E+01  0.15184745682E+02  0.10500000000E+00 0. -1.
         13    1    4    4    0    0  0.61385343017E+01 -0.74023458454E-01  0.25137296132E+01  0.66345266910E+01  0.10500000000E+00 0.  1.
    3000001    1    5    5    0    0 -0.33816484098E+01 -0.12974397698E+01 -0.19283174972E+01  0.42234232908E+01  0.10000000000E+01 0. -1.
        -13    1    6    6    0    0 -0.28089301773E+02  0.73934622478E+01 -0.88024419366E+01  0.30350719384E+02  0.10500000000E+00 0. -1.
         13    1    6    6    0    0 -0.25805032109E+02  0.68067359678E+01 -0.82226166095E+01  0.27925862307E+02  0.10500000000E+00 0.  1.
</event>
<event>
11    0  0.3439373E-009  0.9118800E+02  0.7816531E-02  0.1126479E+00
         25   -1    0    0    0    0  0.00000000000E+00  0.00000000000E+00  0.99999998245E-14  0.12500000000E+03  0.12500000000E+03 0.  0.
    3000001    1    3    3    0    0  0.76257930263E+01  0.21897959900E+02  0.66214426708E+01  0.24135386264E+02  0.10000000000E+01 0.  1.
    1000022    2    1    0    0    0  0.27189908707E+02  0.49765842103E+02  0.24296497819E+02  0.62499999685E+02  0.99999989299E+01 0.  0.
    3000022    2    3    3    0    0  0.19564115681E+02  0.27867882203E+02  0.17675055148E+02  0.38364613421E+02  0.25001516759E+00 0.  0.
    1000022    2    1    0    0    0 -0.27189908707E+02 -0.49765842103E+02 -0.24296497819E+02  0.62500000315E+02  0.10000002868E+02 0.  0.
    3000022    2    5    5    0    0 -0.20312055499E+02 -0.40452090349E+02 -0.23094057421E+02  0.50816820122E+02  0.25001405367E+00 0.  0.
        -13    1    4    4    0    0  0.57004542574E+01  0.81038949673E+01  0.51910310839E+01  0.11185978772E+02  0.10500000000E+00 0.  1.
         13    1    4    4    0    0  0.13863661424E+02  0.19763987236E+02  0.12484024065E+02  0.27178634649E+02  0.10500000000E+00 0. -1.
    3000001    1    5    5    0    0 -0.68778532084E+01 -0.93137517545E+01 -0.12024403981E+01  0.11683180193E+02  0.10000000000E+01 0. -1.
        -13    1    6    6    0    0 -0.93088667727E+01 -0.18688389369E+02 -0.10648869416E+02  0.23437583976E+02  0.10500000000E+00 0.  1.
         13    1    6    6    0    0 -0.11003188726E+02 -0.21763700980E+02 -0.12445188006E+02  0.27379236147E+02  0.10500000000E+00 0. -1.
</event>
<event>
11    0  0.3439373E-009  0.9118800E+02  0.7816531E-02  0.1126479E+00
         25   -1    0    0    0    0  0.00000000000E+00  0.00000000000E+00  0.99999998245E-14  0.12500000000E+03  0.12500000000E+03 0.  0.
    3000001    1    3    3    0    0 -0.40263167843E+02  0.85411103425E+01  0.86386671562E+01  0.42067800285E+02  0.10000000000E+01 0. -1.
    1000022    2    1    0    0    0 -0.56881365342E+02  0.14873640628E+02  0.18695850738E+02  0.62500001880E+02  0.10000024576E+02 0.  0.
    3000022    2    3    3    0    0 -0.16618197499E+02  0.63325302854E+01  0.10057183582E+02  0.20432201595E+02  0.24998495664E+00 0.  0.
    1000022    2    1    0    0    0  0.56881365342E+02 -0.14873640628E+02 -0.18695850738E+02  0.62499998120E+02  0.10000001077E+02 0.  0.
    3000022    2    5    5    0    0  0.52203937759E+02 -0.11004877665E+02 -0.15447610575E+02  0.55543223019E+02  0.25000172477E+00 0.  0.
        -13    1    4    4    0    0 -0.11025471576E+02  0.42541299232E+01  0.67078807333E+01  0.13589162366E+02  0.10500000000E+00 0. -1.
         13    1    4    4    0    0 -0.55927259226E+01  0.20784003622E+01  0.33493028484E+01  0.68430392284E+01  0.10500000000E+00 0.  1.
    3000001    1    5    5    0    0  0.46774275826E+01 -0.38687629631E+01 -0.32482401628E+01  0.69567751014E+01  0.10000000000E+01 0.  1.
        -13    1    6    6    0    0  0.31755449042E+02 -0.66317993727E+01 -0.93806593703E+01  0.33769766093E+02  0.10500000000E+00 0.  1.
         13    1    6    6    0    0  0.20448488717E+02 -0.43730782921E+01 -0.60669512049E+01  0.21773456925E+02  0.10500000000E+00 0. -1.
</event>
<event>
11    0  0.3439373E-009  0.9118800E+02  0.7816531E-02  0.1126479E+00
         25   -1    0    0    0    0  0.00000000000E+00  0.00000000000E+00  0.99999998245E-14  0.12500000000E+03  0.12500000000E+03 0.  0.
    3000001    1    3    3    0    0  0.36870393507E+02  0.26270665752E+02 -0.40743346768E+02  0.60914646040E+02  0.10000000000E+01 0.  1.
    1000022    2    1    0    0    0  0.37611568985E+02  0.27598775687E+02 -0.40372359207E+02  0.62499999818E+02  0.10000002422E+02 0.  0.
    3000022    2    3    3    0    0  0.74117547855E+00  0.13281099347E+01  0.37098756086E+00  0.15853537781E+01  0.24999548558E+00 0.  0.
    1000022    2    1    0    0    0 -0.37611568985E+02 -0.27598775687E+02  0.40372359207E+02  0.62500000182E+02  0.10000004692E+02 0.  0.
    3000022    2    5    5    0    0 -0.37637838016E+02 -0.27203670838E+02  0.38427448357E+02  0.60277506960E+02  0.25000121504E+00 0.  0.
        -13    1    4    4    0    0  0.27775379230E+00  0.52130557339E+00  0.82512257843E-01  0.60559057348E+00  0.10500000000E+00 0.  1.
         13    1    4    4    0    0  0.46342168625E+00  0.80680436127E+00  0.28847530302E+00  0.97976320461E+00  0.10500000000E+00 0. -1.
    3000001    1    5    5    0    0  0.26269030437E-01 -0.39510484888E+00  0.19449108501E+01  0.22224932212E+01  0.10000000000E+01 0. -1.
        -13    1    6    6    0    0 -0.21406512580E+02 -0.15549557362E+02  0.21917485471E+02  0.34357163873E+02  0.10500000000E+00 0. -1.
         13    1    6    6    0    0 -0.16231325436E+02 -0.11654113476E+02  0.16509962886E+02  0.25920343088E+02  0.10500000000E+00 0.  1.
</event>
<event>
11    0  0.3439373E-009  0.9118800E+02  0.7816531E-02  0.1126479E+00
         25   -1    0    0    0    0  0.00000000000E+00  0.00000000000E+00  0.99999998245E-14  0.12500000000E+03  0.12500000000E+03 0.  0.
    3000001    1    3    3    0    0 -0.23278603549E+02  0.90817597625E+01  0.65934473244E+01  0.25862043446E+02  0.10000000000E+01 0.  1.
    1000022    2    1    0    0    0 -0.52576201633E+02  0.18406793755E+02  0.26517600127E+02  0.62500000234E+02  0.99999939119E+01 0.  0.
    3000022    2    3    3    0    0 -0.29297598084E+02  0.93250339922E+01  0.19924152803E+02  0.36637956788E+02  0.25000047944E+00 0.  0.
    1000022    2    1    0    0    0  0.52576201633E+02 -0.18406793755E+02 -0.26517600127E+02  0.62499999766E+02  0.99999909846E+01 0.  0.
    3000022    2    5    5    0    0  0.50337559350E+02 -0.19385527100E+02 -0.25565397900E+02  0.59693555874E+02  0.25000169793E+00 0.  0.
        -13    1    4    4    0    0 -0.84566385044E+01  0.26475263079E+01  0.57360896627E+01  0.10556414162E+02  0.10500000000E+00 0. -1.
         13    1    4    4    0    0 -0.20840959580E+02  0.66775076843E+01  0.14188063140E+02  0.26081542626E+02  0.10500000000E+00 0.  1.
    3000001    1    5    5    0    0  0.22386422835E+01  0.97873334563E+00 -0.95220222675E+00  0.28064438915E+01  0.10000000000E+01 0.  1.
        -13    1    6    6    0    0  0.32734894553E+02 -0.12646540777E+02 -0.16678929192E+02  0.38854935581E+02  0.10500000000E+00 0.  1.
         13    1    6    6    0    0  0.17602664797E+02 -0.67389863228E+01 -0.88864687087E+01  0.20838620293E+02  0.10500000000E+00 0. -1.
</event>
<event>
11    0  0.3439373E-009  0.9118800E+02  0.7816531E-02  0.1126479E+00
         25   -1    0    0    0    0  0.00000000000E+00  0.00000000000E+00  0.99999998245E-14  0.12500000000E+03  0.12500000000E+03 0.  0.
    3000001    1    3    3    0    0 -0.34915921378E+02  0.15733582429E+02 -0.12480237130E+02  0.40291729928E+02  0.10000000000E+01 0. -1.
    1000022    2    1    0    0    0 -0.51015511498E+02  0.23101783741E+02 -0.25883877036E+02  0.62499999908E+02  0.10000003630E+02 0.  0.
    3000022    2    3    3    0    0 -0.16099590120E+02  0.73682013111E+01 -0.13403639906E+02  0.22208269979E+02  0.25000033295E+00 0.  0.
    1000022    2    1    0    0    0  0.51015511498E+02 -0.23101783741E+02  0.25883877036E+02  0.62500000092E+02  0.10000004786E+02 0.  0.
    3000022    2    5    5    0    0  0.45599752901E+02 -0.23610866738E+02  0.23074226118E+02  0.56296473276E+02  0.24999922233E+00 0.  0.
        -13    1    4    4    0    0 -0.91229654122E+01  0.41383138830E+01 -0.76544336990E+01  0.12607756341E+02  0.10500000000E+00 0.  1.
         13    1    4    4    0    0 -0.69766247075E+01  0.32298874281E+01 -0.57492062070E+01  0.96005136382E+01  0.10500000000E+00 0. -1.
    3000001    1    5    5    0    0  0.54157585967E+01  0.50908299753E+00  0.28096509183E+01  0.62035268161E+01  0.10000000000E+01 0.  1.
        -13    1    6    6    0    0  0.30107551857E+02 -0.15532299336E+02  0.15246281328E+02  0.37150735132E+02  0.10500000000E+00 0.  1.
         13    1    6    6    0    0  0.15492201044E+02 -0.80785674020E+01  0.78279447897E+01  0.19145738145E+02  0.10500000000E+00 0. -1.
</event>
<event>
11    0  0.3439373E-009  0.9118800E+02  0.7816531E-02  0.1126479E+00
         25   -1    0    0    0    0  0.00000000000E+00  0.00000000000E+00  0.99999998245E-14  0.12500000000E+03  0.12500000000E+03 0.  0.
    3000001    1    3    3    0    0  0.77256366471E+01  0.46683762789E+02  0.99365416470E+01  0.48361079698E+02  0.10000000000E+01 0.  1.
    1000022    2    1    0    0    0  0.92946320932E+01  0.60524641604E+02  0.75251300525E+01  0.62499999143E+02  0.99999941759E+01 0.  0.
    3000022    2    3    3    0    0  0.15689954461E+01  0.13840878816E+02 -0.24114115945E+01  0.14138919445E+02  0.24992815826E+00 0.  0.
    1000022    2    1    0    0    0 -0.92946320932E+01 -0.60524641604E+02 -0.75251300525E+01  0.62500000857E+02  0.10000004887E+02 0.  0.
    3000022    2    5    5    0    0 -0.72408739513E+01 -0.18047160481E+02 -0.36312995103E+01  0.19783303403E+02  0.25000078392E+00 0.  0.
        -13    1    4    4    0    0  0.80584302769E+00  0.71714812363E+01 -0.11810549656E+01  0.73133741830E+01  0.10500000000E+00 0.  1.
         13    1    4    4    0    0  0.76315241837E+00  0.66693975794E+01 -0.12303566289E+01  0.68255452617E+01  0.10500000000E+00 0. -1.
    3000001    1    5    5    0    0 -0.20537581419E+01 -0.42477481124E+02 -0.38938305422E+01  0.42716697454E+02  0.10000000000E+01 0.  1.
        -13    1    6    6    0    0 -0.42850454796E+01 -0.10717640187E+02 -0.20922317899E+01  0.11731064948E+02  0.10500000000E+00 0.  1.
         13    1    6    6    0    0 -0.29558284716E+01 -0.73295202934E+01 -0.15390677203E+01  0.80522384548E+01  0.10500000000E+00 0. -1.
</event>
<event>
11    0  0.3439373E-009  0.9118800E+02  0.7816531E-02  0.1126479E+00
         25   -1    0    0    0    0  0.00000000000E+00  0.00000000000E+00  0.99999998245E-14  0.12500000000E+03  0.12500000000E+03 0.  0.
    3000001    1    3    3    0    0  0.21855125367E+02  0.87102147102E+01 -0.30129060433E+02  0.38239699628E+02  0.10000000000E+01 0.  1.
    1000022    2    1    0    0    0  0.29781417730E+02  0.19288408655E+02 -0.50470530529E+02  0.62500000660E+02  0.10000004003E+02 0.  0.
    3000022    2    3    3    0    0  0.79262923631E+01  0.10578193945E+02 -0.20341470097E+02  0.24260301031E+02  0.25000532807E+00 0.  0.
    1000022    2    1    0    0    0 -0.29781417730E+02 -0.19288408655E+02  0.50470530529E+02  0.62499999340E+02  0.99999957568E+01 0.  0.
    3000022    2    5    5    0    0 -0.17013532469E+02 -0.64872064868E+01  0.19943403731E+02  0.27006406375E+02  0.24999568316E+00 0.  0.
        -13    1    4    4    0    0  0.29806587639E+01  0.39504189304E+01 -0.75103193539E+01  0.89947794965E+01  0.10500000000E+00 0. -1.
         13    1    4    4    0    0  0.49456335992E+01  0.66277750148E+01 -0.12831150743E+02  0.15265521535E+02  0.10500000000E+00 0.  1.
    3000001    1    5    5    0    0 -0.12767885261E+02 -0.12801202169E+02  0.30527126798E+02  0.35493592965E+02  0.10000000000E+01 0.  1.
        -13    1    6    6    0    0 -0.41022170359E+01 -0.15477080925E+01  0.48222418245E+01  0.65183300134E+01  0.10500000000E+00 0.  1.
         13    1    6    6    0    0 -0.12911315434E+02 -0.49394983942E+01  0.15121161907E+02  0.20488076362E+02  0.10500000000E+00 0. -1.
</event>
<event>
11    0  0.3439373E-009  0.9118800E+02  0.7816531E-02  0.1126479E+00
         25   -1    0    0    0    0  0.00000000000E+00  0.00000000000E+00  0.99999998245E-14  0.12500000000E+03  0.12500000000E+03 0.  0.
    3000001    1    3    3    0    0  0.25978092923E+02  0.18712318886E+02 -0.83646012162E+01  0.33105569675E+02  0.10000000000E+01 0.  1.
    1000022    2    1    0    0    0  0.42516524087E+02  0.41976650563E+02 -0.15380378298E+02  0.62499998856E+02  0.99999903734E+01 0.  0.
    3000022    2    3    3    0    0  0.16538431165E+02  0.23264331677E+02 -0.70157770814E+01  0.29394429181E+02  0.25001013650E+00 0.  0.
    1000022    2    1    0    0    0 -0.42516524087E+02 -0.41976650563E+02  0.15380378298E+02  0.62500001144E+02  0.10000004672E+02 0.  0.
    3000022    2    5    5    0    0 -0.34651829096E+02 -0.32901060453E+02  0.82293365327E+01  0.48487251183E+02  0.25001768561E+00 0.  0.
        -13    1    4    4    0    0  0.12706560975E+02  0.17879566266E+02 -0.53816144004E+01  0.22585579032E+02  0.10500000000E+00 0.  1.
         13    1    4    4    0    0  0.38318701896E+01  0.53847654109E+01 -0.16341626810E+01  0.68088501487E+01  0.10500000000E+00 0. -1.
    3000001    1    5    5    0    0 -0.78646949911E+01 -0.90755901101E+01  0.71510417648E+01  0.14012749961E+02  0.10000000000E+01 0.  1.
        -13    1    6    6    0    0 -0.11552929494E+02 -0.11013468428E+02  0.27926039975E+01  0.16204207133E+02  0.10500000000E+00 0. -1.
         13    1    6    6    0    0 -0.23098899602E+02 -0.21887592025E+02  0.54367325352E+01  0.32283044050E+02  0.10500000000E+00 0.  1.
</event>
<event>
11    0  0.3439373E-009  0.9118800E+02  0.7816531E-02  0.1126479E+00
         25   -1    0    0    0    0  0.00000000000E+00  0.00000000000E+00  0.99999998245E-14  0.12500000000E+03  0.12500000000E+03 0.  0.
    3000001    1    3    3    0    0  0.59250734741E+00  0.64956528504E+00  0.29257197734E+01  0.32144729286E+01  0.10000000000E+01 0. -1.
    1000022    2    1    0    0    0 -0.24374474594E+02 -0.13713793425E+01  0.56659106295E+02  0.62500000092E+02  0.99999996158E+01 0.  0.
    3000022    2    3    3    0    0 -0.24966981942E+02 -0.20209446276E+01  0.53733386522E+02  0.59285527164E+02  0.24999901750E+00 0.  0.
    1000022    2    1    0    0    0  0.24374474594E+02  0.13713793425E+01 -0.56659106295E+02  0.62499999908E+02  0.99999984610E+01 0.  0.
    3000022    2    5    5    0    0  0.97642924148E+01 -0.17898497361E+00 -0.11989364747E+02  0.15465471496E+02  0.24999919734E+00 0.  0.
        -13    1    4    4    0    0 -0.17673737158E+02 -0.14610013731E+01  0.38115193596E+02  0.42038964283E+02  0.10500000000E+00 0.  1.
         13    1    4    4    0    0 -0.72932447838E+01 -0.55994325447E+00  0.15618192926E+02  0.17246562880E+02  0.10500000000E+00 0. -1.
    3000001    1    5    5    0    0  0.14610182180E+02  0.15503643161E+01 -0.44669741549E+02  0.47034528411E+02  0.10000000000E+01 0.  1.
        -13    1    6    6    0    0  0.41071726045E+01 -0.15238267353E-01 -0.50035807943E+01  0.64742524490E+01  0.10500000000E+00 0.  1.
         13    1    6    6    0    0  0.56571198104E+01 -0.16374670625E+00 -0.69857839522E+01  0.89912190475E+01  0.10500000000E+00 0. -1.
</event>
<event>
11    0  0.3439373E-009  0.9118800E+02  0.7816531E-02  0.1126479E+00
         25   -1    0    0    0    0  0.00000000000E+00  0.00000000000E+00  0.99999998245E-14  0.12500000000E+03  0.12500000000E+03 0.  0.
    3000001    1    3    3    0    0 -0.12292290497E+02  0.10119771748E+02 -0.55133017656E+02  0.57394771728E+02  0.10000000000E+01 0. -1.
    1000022    2    1    0    0    0 -0.15223905331E+02  0.88956088607E+01 -0.59121493146E+02  0.62500002059E+02  0.10000007749E+02 0.  0.
    3000022    2    3    3    0    0 -0.29316148346E+01 -0.12241628869E+01 -0.39884754907E+01  0.51052303310E+01  0.24999936108E+00 0.  0.
    1000022    2    1    0    0    0  0.15223905331E+02 -0.88956088607E+01  0.59121493146E+02  0.62499997941E+02  0.99999820111E+01 0.  0.
    3000022    2    5    5    0    0  0.42293446790E+01  0.20386751587E+01  0.15232754928E+02  0.15941859303E+02  0.25000509895E+00 0.  0.
        -13    1    4    4    0    0 -0.16692097864E+01 -0.66127307795E+00 -0.23433970328E+01  0.29539935762E+01  0.10500000000E+00 0. -1.
         13    1    4    4    0    0 -0.12624050482E+01 -0.56288980898E+00 -0.16450784579E+01  0.21512367548E+01  0.10500000000E+00 0.  1.
    3000001    1    5    5    0    0  0.10994560652E+02 -0.10934284019E+02  0.43888738219E+02  0.46558138638E+02  0.10000000000E+01 0.  1.
        -13    1    6    6    0    0  0.20114958475E+01  0.91209793017E+00  0.73113544151E+01  0.76383876939E+01  0.10500000000E+00 0.  1.
         13    1    6    6    0    0  0.22178488315E+01  0.11265772285E+01  0.79214005124E+01  0.83034716095E+01  0.10500000000E+00 0. -1.
</event>
<event>
11    0  0.3439373E-009  0.9118800E+02  0.7816531E-02  0.1126479E+00
         25   -1    0    0    0    0  0.00000000000E+00  0.00000000000E+00  0.99999998245E-14  0.12500000000E+03  0.12500000000E+03 0.  0.
    3000001    1    3    3    0    0 -0.42424256745E+01  0.34992588221E+02  0.29800984986E+02  0.46169016798E+02  0.10000000000E+01 0. -1.
    1000022    2    1    0    0    0 -0.82759951438E+00  0.48979807313E+02  0.37503915706E+02  0.62499998932E+02  0.99999863953E+01 0.  0.
    3000022    2    3    3    0    0  0.34148261601E+01  0.13987219092E+02  0.77029307202E+01  0.16330982134E+02  0.25000030696E+00 0.  0.
    1000022    2    1    0    0    0  0.82759951438E+00 -0.48979807313E+02 -0.37503915706E+02  0.62500001068E+02  0.99999997443E+01 0.  0.
    3000022    2    5    5    0    0 -0.20768392701E+01 -0.35326471276E+02 -0.31090605054E+02  0.47105849481E+02  0.24999698275E+00 0.  0.
        -13    1    4    4    0    0  0.14504603060E+01  0.59824958780E+01  0.33668037294E+01  0.70171564314E+01  0.10500000000E+00 0.  1.
         13    1    4    4    0    0  0.19643658541E+01  0.80047232137E+01  0.43361269908E+01  0.93138257026E+01  0.10500000000E+00 0. -1.
    3000001    1    5    5    0    0  0.29044387845E+01 -0.13653336036E+02 -0.64133106519E+01  0.15394151587E+02  0.10000000000E+01 0. -1.
        -13    1    6    6    0    0 -0.13365618937E+01 -0.22506838015E+02 -0.19884439792E+02  0.30062370598E+02  0.10500000000E+00 0. -1.
         13    1    6    6    0    0 -0.74027737641E+00 -0.12819633262E+02 -0.11206165262E+02  0.17043478883E+02  0.10500000000E+00 0.  1.
</event>
<event>
11    0  0.3439373E-009  0.9118800E+02  0.7816531E-02  0.1126479E+00
         25   -1    0    0    0    0  0.00000000000E+00  0.00000000000E+00  0.99999998245E-14  0.12500000000E+03  0.12500000000E+03 0.  0.
    3000001    1    3    3    0    0 -0.14450449794E+01  0.44156512187E+02  0.12938169351E+02  0.46046519408E+02  0.10000000000E+01 0.  1.
    1000022    2    1    0    0    0 -0.74471635334E+01  0.59273501785E+02  0.15409139962E+02  0.62499999176E+02  0.10000002208E+02 0.  0.
    3000022    2    3    3    0    0 -0.60021185540E+01  0.15116989598E+02  0.24709706111E+01  0.16453479768E+02  0.24999813107E+00 0.  0.
    1000022    2    1    0    0    0  0.74471635334E+01 -0.59273501785E+02 -0.15409139962E+02  0.62500000824E+02  0.10000012503E+02 0.  0.
    3000022    2    5    5    0    0  0.58100062234E+01 -0.57546733674E+02 -0.13816656366E+02  0.59467177689E+02  0.25000045485E+00 0.  0.
        -13    1    4    4    0    0 -0.38467072782E+01  0.98208974826E+01  0.16313942001E+01  0.10673315150E+02  0.10500000000E+00 0. -1.
         13    1    4    4    0    0 -0.21554112758E+01  0.52960921156E+01  0.83957641102E+00  0.57801646183E+01  0.10500000000E+00 0.  1.
    3000001    1    5    5    0    0  0.16371573100E+01 -0.17267681106E+01 -0.15924835955E+01  0.30328231349E+01  0.10000000000E+01 0.  1.
        -13    1    6    6    0    0  0.32550845547E+01 -0.32360927977E+02 -0.78360993752E+01  0.33455055125E+02  0.10500000000E+00 0.  1.
         13    1    6    6    0    0  0.25549216687E+01 -0.25185805697E+02 -0.59805569909E+01  0.26012122564E+02  0.10500000000E+00 0. -1.
</event>
<event>
11    0  0.3439373E-009  0.9118800E+02  0.7816531E-02  0.1126479E+00
         25   -1    0    0    0    0  0.00000000000E+00  0.00000000000E+00  0.99999998245E-14  0.12500000000E+03  0.12500000000E+03 0.  0.
    3000001    1    3    3    0    0 -0.99606660779E+01 -0.79324547332E+01 -0.37959340150E+01  0.13324707196E+02  0.10000000000E+01 0. -1.
    1000022    2    1    0    0    0 -0.40571401282E+02 -0.46401392552E+02 -0.26687318897E+01  0.62499999427E+02  0.99999982878E+01 0.  0.
    3000022    2    3    3    0    0 -0.30610735204E+02 -0.38468937818E+02  0.11272021253E+01  0.49175292231E+02  0.24998953198E+00 0.  0.
    1000022    2    1    0    0    0  0.40571401282E+02  0.46401392552E+02  0.26687318897E+01  0.62500000573E+02  0.10000005453E+02 0.  0.
    3000022    2    5    5    0    0  0.97732459275E+01  0.74832637516E+01  0.36787059847E+01  0.12849550724E+02  0.25000751953E+00 0.  0.
        -13    1    4    4    0    0 -0.17769292096E+02 -0.22233069929E+02  0.67488399516E+00  0.28469696757E+02  0.10500000000E+00 0. -1.
         13    1    4    4    0    0 -0.12841443108E+02 -0.16235867890E+02  0.45231813012E+00  0.20705595474E+02  0.10500000000E+00 0.  1.
    3000001    1    5    5    0    0  0.30798155354E+02  0.38918128800E+02 -0.10099740950E+01  0.49650449849E+02  0.10000000000E+01 0.  1.
        -13    1    6    6    0    0  0.28488794755E+01  0.22262969469E+01  0.11078090514E+01  0.37829589287E+01  0.10500000000E+00 0. -1.
         13    1    6    6    0    0  0.69243664520E+01  0.52569668047E+01  0.25708969333E+01  0.90665917957E+01  0.10500000000E+00 0.  1.
</event>
<event>
11    0  0.3439373E-009  0.9118800E+02  0.7816531E-02  0.1126479E+00
         25   -1    0    0    0    0  0.00000000000E+00  0.00000000000E+00  0.99999998245E-14  0.12500000000E+03  0.12500000000E+03 0.  0.
    3000001    1    3    3    0    0  0.12968097793E+02 -0.25849771925E+02  0.10853218859E+02  0.30905899575E+02  0.10000000000E+01 0.  1.
    1000022    2    1    0    0    0  0.34259100565E+02 -0.48191365845E+02  0.17611256820E+02  0.62500000278E+02  0.99999977223E+01 0.  0.
    3000022    2    3    3    0    0  0.21291002772E+02 -0.22341593920E+02  0.67580379617E+01  0.31594100703E+02  0.25000845664E+00 0.  0.
    1000022    2    1    0    0    0 -0.34259100565E+02  0.48191365845E+02 -0.17611256820E+02  0.62499999722E+02  0.99999942463E+01 0.  0.
    3000022    2    5    5    0    0 -0.13738289111E+02  0.23168366265E+02 -0.12599737702E+02  0.29737680900E+02  0.24998412698E+00 0.  0.
        -13    1    4    4    0    0  0.13372415913E+02 -0.14105770433E+02  0.42241761595E+01  0.19890926476E+02  0.10500000000E+00 0. -1.
         13    1    4    4    0    0  0.79185868594E+01 -0.82358234868E+01  0.25338618022E+01  0.11703174227E+02  0.10500000000E+00 0.  1.
    3000001    1    5    5    0    0 -0.20520811454E+02  0.25022999580E+02 -0.50115191180E+01  0.32762318822E+02  0.10000000000E+01 0. -1.
        -13    1    6    6    0    0 -0.76837110759E+01  0.13084264224E+02 -0.71130013114E+01  0.16758376975E+02  0.10500000000E+00 0.  1.
         13    1    6    6    0    0 -0.60545780349E+01  0.10084102041E+02 -0.54867363909E+01  0.12979303925E+02  0.10500000000E+00 0. -1.
</event>
<event>
11    0  0.3439373E-009  0.9118800E+02  0.7816531E-02  0.1126479E+00
         25   -1    0    0    0    0  0.00000000000E+00  0.00000000000E+00  0.99999998245E-14  0.12500000000E+03  0.12500000000E+03 0.  0.
    3000001    1    3    3    0    0  0.16035685221E+02 -0.67097566136E+01  0.22266888607E+00  0.17413030057E+02  0.10000000000E+01 0.  1.
    1000022    2    1    0    0    0  0.59130114596E+02 -0.13727394339E+02 -0.11019897738E+02  0.62500000282E+02  0.10000004084E+02 0.  0.
    3000022    2    3    3    0    0  0.43094429375E+02 -0.70176377256E+01 -0.11242566624E+02  0.45086970226E+02  0.24999489010E+00 0.  0.
    1000022    2    1    0    0    0 -0.59130114596E+02  0.13727394339E+02  0.11019897738E+02  0.62499999718E+02  0.10000000553E+02 0.  0.
    3000022    2    5    5    0    0 -0.63037081490E+01 -0.11127612986E+01  0.28630300157E+01  0.70167236021E+01  0.24999020455E+00 0.  0.
        -13    1    4    4    0    0  0.16974595480E+02 -0.28190695324E+01 -0.44627625814E+01  0.17776707220E+02  0.10500000000E+00 0.  1.
         13    1    4    4    0    0  0.26119833895E+02 -0.41985681931E+01 -0.67798040425E+01  0.27310263006E+02  0.10500000000E+00 0. -1.
    3000001    1    5    5    0    0 -0.52826406447E+02  0.14840155638E+02  0.81568677221E+01  0.55483276115E+02  0.10000000000E+01 0. -1.
        -13    1    6    6    0    0 -0.26937120680E+01 -0.45431755272E+00  0.11543338103E+01  0.29674906385E+01  0.10500000000E+00 0. -1.
         13    1    6    6    0    0 -0.36099960810E+01 -0.65844374592E+00  0.17086962055E+01  0.40492329637E+01  0.10500000000E+00 0.  1.
</event>
<event>
11    0  0.3439373E-009  0.9118800E+02  0.7816531E-02  0.1126479E+00
         25   -1    0    0    0    0  0.00000000000E+00  0.00000000000E+00  0.99999998245E-14  0.12500000000E+03  0.12500000000E+03 0.  0.
    3000001    1    3    3    0    0 -0.17682978783E+02  0.24677695070E+02 -0.38271390975E+02  0.48860779156E+02  0.10000000000E+01 0. -1.
    1000022    2    1    0    0    0 -0.20601949386E+02  0.27346840446E+02 -0.51322109873E+02  0.62500005453E+02  0.10000085948E+02 0.  0.
    3000022    2    3    3    0    0 -0.29189706030E+01  0.26691453763E+01 -0.13050718898E+02  0.13639226297E+02  0.25000761126E+00 0.  0.
    1000022    2    1    0    0    0  0.20601949386E+02 -0.27346840446E+02  0.51322109873E+02  0.62499994547E+02  0.10000017780E+02 0.  0.
    3000022    2    5    5    0    0  0.11516350782E+02 -0.21136807820E+02  0.29810237055E+02  0.38315841070E+02  0.24992704492E+00 0.  0.
        -13    1    4    4    0    0 -0.80324780092E+00  0.69846865397E+00 -0.36054587333E+01  0.37607742777E+01  0.10500000000E+00 0.  1.
         13    1    4    4    0    0 -0.21157228021E+01  0.19706767224E+01 -0.94452601646E+01  0.98784520193E+01  0.10500000000E+00 0.  1.
    3000001    1    5    5    0    0  0.90855986033E+01 -0.62100326268E+01  0.21511872818E+02  0.24184153476E+02  0.10000000000E+01 0. -1.
        -13    1    6    6    0    0  0.54820310686E+01 -0.99925926646E+01  0.14208978063E+02  0.18215670600E+02  0.10500000000E+00 0. -1.
         13    1    6    6    0    0  0.60343197139E+01 -0.11144215155E+02  0.15601258992E+02  0.20100170471E+02  0.10500000000E+00 0.  1.
</event>
<event>
11    0  0.3439373E-009  0.9118800E+02  0.7816531E-02  0.1126479E+00
         25   -1    0    0    0    0  0.00000000000E+00  0.00000000000E+00  0.99999998245E-14  0.12500000000E+03  0.12500000000E+03 0.  0.
    3000001    1    3    3    0    0 -0.38599651173E+02 -0.15643384467E+02  0.10880066062E+02  0.43058383455E+02  0.10000000000E+01 0.  1.
    1000022    2    1    0    0    0 -0.52370563834E+02 -0.28255078148E+02  0.16285717993E+02  0.62499999672E+02  0.99999975514E+01 0.  0.
    3000022    2    3    3    0    0 -0.13770912661E+02 -0.12611693681E+02  0.54056519313E+01  0.19441616217E+02  0.25003060842E+00 0.  0.
    1000022    2    1    0    0    0  0.52370563834E+02  0.28255078148E+02 -0.16285717993E+02  0.62500000328E+02  0.10000001648E+02 0.  0.
    3000022    2    5    5    0    0  0.33984714906E+02  0.23488785351E+02 -0.11629910980E+02  0.42918541578E+02  0.24999450730E+00 0.  0.
        -13    1    4    4    0    0 -0.81523195810E+01 -0.75009896088E+01  0.32675354551E+01  0.11550453351E+02  0.10500000000E+00 0.  1.
         13    1    4    4    0    0 -0.56185930799E+01 -0.51107040723E+01  0.21381164762E+01  0.78911628660E+01  0.10500000000E+00 0. -1.
    3000001    1    5    5    0    0  0.18385848928E+02  0.47662927973E+01 -0.46558070129E+01  0.19581458750E+02  0.10000000000E+01 0. -1.
        -13    1    6    6    0    0  0.11977982776E+02  0.82163506650E+01 -0.40637413490E+01  0.15083285729E+02  0.10500000000E+00 0. -1.
         13    1    6    6    0    0  0.22006732130E+02  0.15272434686E+02 -0.75661696314E+01  0.27835255849E+02  0.10500000000E+00 0.  1.
</event>
<event>
11    0  0.3439373E-009  0.9118800E+02  0.7816531E-02  0.1126479E+00
         25   -1    0    0    0    0  0.00000000000E+00  0.00000000000E+00  0.99999998245E-14  0.12500000000E+03  0.12500000000E+03 0.  0.
    3000001    1    3    3    0    0  0.71734633573E+01  0.12824615305E+02  0.10974386623E+02  0.18367539193E+02  0.10000000000E+01 0. -1.
    1000022    2    1    0    0    0  0.14022147004E+02  0.52036423340E+02  0.30030651159E+02  0.62499999784E+02  0.10000000169E+02 0.  0.
    3000022    2    3    3    0    0  0.68486836466E+01  0.39211808034E+02  0.19056264537E+02  0.44132460591E+02  0.25000542921E+00 0.  0.
    1000022    2    1    0    0    0 -0.14022147004E+02 -0.52036423340E+02 -0.30030651159E+02  0.62500000216E+02  0.10000002869E+02 0.  0.
    3000022    2    5    5    0    0 -0.25858131111E+01 -0.23648870017E+01 -0.37697779704E+01  0.51529452287E+01  0.24999721586E+00 0.  0.
        -13    1    4    4    0    0  0.34492343388E+01  0.19652001214E+02  0.96248361738E+01  0.22152807172E+02  0.10500000000E+00 0. -1.
         13    1    4    4    0    0  0.33994493078E+01  0.19559806821E+02  0.94314283628E+01  0.21979653419E+02  0.10500000000E+00 0.  1.
    3000001    1    5    5    0    0 -0.11436333893E+02 -0.49671536338E+02 -0.26260873189E+02  0.57347054987E+02  0.10000000000E+01 0.  1.
        -13    1    6    6    0    0 -0.13369664300E+01 -0.12484683679E+01 -0.20625451081E+01  0.27588529906E+01  0.10500000000E+00 0.  1.
         13    1    6    6    0    0 -0.12488466810E+01 -0.11164186338E+01 -0.17072328623E+01  0.23940922381E+01  0.10500000000E+00 0. -1.
</event>
<event>
11    0  0.3439373E-009  0.9118800E+02  0.7816531E-02  0.1126479E+00
         25   -1    0    0    0    0  0.00000000000E+00  0.00000000000E+00  0.99999998245E-14  0.12500000000E+03  0.12500000000E+03 0.  0.
    3000001    1    3    3    0    0 -0.32299226731E+02 -0.32993071151E+01  0.48410906583E+02  0.58298725124E+02  0.10000000000E+01 0.  1.
    1000022    2    1    0    0    0 -0.32249628847E+02 -0.25326645198E+01  0.52533771195E+02  0.62500000391E+02  0.99999991311E+01 0.  0.
    3000022    2    3    3    0    0  0.49597884179E-01  0.76664259532E+00  0.41228646110E+01  0.42012752668E+01  0.25000089544E+00 0.  0.
    1000022    2    1    0    0    0  0.32249628847E+02  0.25326645198E+01 -0.52533771195E+02  0.62499999609E+02  0.99999942431E+01 0.  0.
    3000022    2    5    5    0    0  0.86557479716E+01 -0.11806155645E+01 -0.75074699884E+01  0.11521303431E+02  0.25000210575E+00 0.  0.
        -13    1    4    4    0    0  0.85360604622E-01  0.44462747296E+00  0.25421223030E+01  0.25842582739E+01  0.10500000000E+00 0. -1.
         13    1    4    4    0    0 -0.35762720443E-01  0.32201512235E+00  0.15807423080E+01  0.16170169930E+01  0.10500000000E+00 0.  1.
    3000001    1    5    5    0    0  0.23593880875E+02  0.37132800843E+01 -0.45026301206E+02  0.50978696178E+02  0.10000000000E+01 0.  1.
        -13    1    6    6    0    0  0.36424333941E+01 -0.44836645436E+00 -0.32115035691E+01  0.48778205874E+01  0.10500000000E+00 0. -1.
         13    1    6    6    0    0  0.50133145775E+01 -0.73224911010E+00 -0.42959664193E+01  0.66434828432E+01  0.10500000000E+00 0.  1.
</event>
<event>
11    0  0.3439373E-009  0.9118800E+02  0.7816531E-02  0.1126479E+00
         25   -1    0    0    0    0  0.00000000000E+00  0.00000000000E+00  0.99999998245E-14  0.12500000000E+03  0.12500000000E+03 0.  0.
    3000001    1    3    3    0    0 -0.28257223732E+02 -0.44761780749E+01  0.88158313399E+01  0.29953726737E+02  0.10000000000E+01 0.  1.
    1000022    2    1    0    0    0 -0.58660986617E+02 -0.15963770157E+02  0.10502206622E+02  0.62500000430E+02  0.10000020070E+02 0.  0.
    3000022    2    3    3    0    0 -0.30403762884E+02 -0.11487592082E+02  0.16863752820E+01  0.32546273694E+02  0.25000072102E+00 0.  0.
    1000022    2    1    0    0    0  0.58660986617E+02  0.15963770157E+02 -0.10502206622E+02  0.62499999570E+02  0.10000014690E+02 0.  0.
    3000022    2    5    5    0    0  0.26304572533E+02  0.56074384170E+01  0.99001937025E-01  0.26896955284E+02  0.25000088902E+00 0.  0.
        -13    1    4    4    0    0 -0.16697806502E+02 -0.63613206487E+01  0.88177105850E+00  0.17890547436E+02  0.10500000000E+00 0.  1.
         13    1    4    4    0    0 -0.13705956383E+02 -0.51262714338E+01  0.80460422348E+00  0.14655726258E+02  0.10500000000E+00 0. -1.
    3000001    1    5    5    0    0  0.32356414084E+02  0.10356331740E+02 -0.10601208559E+02  0.35603044286E+02  0.10000000000E+01 0. -1.
        -13    1    6    6    0    0  0.16194849158E+02  0.33895687183E+01  0.63203838756E-01  0.16546218150E+02  0.10500000000E+00 0.  1.
         13    1    6    6    0    0  0.10109723375E+02  0.22178696987E+01  0.35798098269E-01  0.10350737134E+02  0.10500000000E+00 0. -1.
</event>
<event>
11    0  0.3439373E-009  0.9118800E+02  0.7816531E-02  0.1126479E+00
         25   -1    0    0    0    0  0.00000000000E+00  0.00000000000E+00  0.99999998245E-14  0.12500000000E+03  0.12500000000E+03 0.  0.
    3000001    1    3    3    0    0  0.28542438637E+02 -0.10443160288E+02  0.18762749871E+02  0.35731935056E+02  0.10000000000E+01 0. -1.
    1000022    2    1    0    0    0  0.53798490846E+02 -0.16283945964E+02  0.25432371979E+02  0.62500000152E+02  0.99999980493E+01 0.  0.
    3000022    2    3    3    0    0  0.25256052209E+02 -0.58407856762E+01  0.66696221082E+01  0.26768065095E+02  0.24999875868E+00 0.  0.
    1000022    2    1    0    0    0 -0.53798490846E+02  0.16283945964E+02 -0.25432371979E+02  0.62499999848E+02  0.99999961548E+01 0.  0.
    3000022    2    5    5    0    0 -0.47424240388E+02  0.14723320335E+02 -0.25582159958E+02  0.55860040685E+02  0.24999821009E+00 0.  0.
        -13    1    4    4    0    0  0.62357462135E+01 -0.14672039333E+01  0.16506745278E+01  0.66161143897E+01  0.10500000000E+00 0. -1.
         13    1    4    4    0    0  0.19020305996E+02 -0.43735817430E+01  0.50189475805E+01  0.20151950706E+02  0.10500000000E+00 0.  1.
    3000001    1    5    5    0    0 -0.63742504583E+01  0.15606256289E+01  0.14978797918E+00  0.66399591638E+01  0.10000000000E+01 0. -1.
        -13    1    6    6    0    0 -0.30669241951E+02  0.95476817696E+01 -0.16490181410E+02  0.36106754728E+02  0.10500000000E+00 0.  1.
         13    1    6    6    0    0 -0.16754998436E+02  0.51756385655E+01 -0.90919785483E+01  0.19753285957E+02  0.10500000000E+00 0. -1.
</event>
<event>
11    0  0.3439373E-009  0.9118800E+02  0.7816531E-02  0.1126479E+00
         25   -1    0    0    0    0  0.00000000000E+00  0.00000000000E+00  0.99999998245E-14  0.12500000000E+03  0.12500000000E+03 0.  0.
    3000001    1    3    3    0    0  0.18241172850E+02 -0.29722563211E+02  0.17841345120E+02  0.39185261853E+02  0.10000000000E+01 0. -1.
    1000022    2    1    0    0    0  0.29289769702E+02 -0.49965833880E+02  0.21254996072E+02  0.62499999982E+02  0.99999987621E+01 0.  0.
    3000022    2    3    3    0    0  0.11048596852E+02 -0.20243270669E+02  0.34136509513E+01  0.23314738129E+02  0.25000288629E+00 0.  0.
    1000022    2    1    0    0    0 -0.29289769702E+02  0.49965833880E+02 -0.21254996072E+02  0.62500000018E+02  0.99999989852E+01 0.  0.
    3000022    2    5    5    0    0 -0.12037494489E+02  0.18008287434E+02 -0.30919850895E+01  0.21882014558E+02  0.24999889757E+00 0.  0.
        -13    1    4    4    0    0  0.72592860053E+01 -0.13389687033E+02  0.22889184754E+01  0.15402309078E+02  0.10500000000E+00 0.  1.
         13    1    4    4    0    0  0.37893108464E+01 -0.68535836355E+01  0.11247324759E+01  0.79124290507E+01  0.10500000000E+00 0. -1.
    3000001    1    5    5    0    0 -0.17252275213E+02  0.31957546446E+02 -0.18163010982E+02  0.40617985460E+02  0.10000000000E+01 0.  1.
        -13    1    6    6    0    0 -0.71550273608E+01  0.10630011145E+02 -0.17797198112E+01  0.12937155061E+02  0.10500000000E+00 0. -1.
         13    1    6    6    0    0 -0.48824671279E+01  0.73782762892E+01 -0.13122652784E+01  0.89448594967E+01  0.10500000000E+00 0.  1.
</event>
<event>
11    0  0.3439373E-009  0.9118800E+02  0.7816531E-02  0.1126479E+00
         25   -1    0    0    0    0  0.00000000000E+00  0.00000000000E+00  0.99999998245E-14  0.12500000000E+03  0.12500000000E+03 0.  0.
    3000001    1    3    3    0    0 -0.55585700066E+01  0.26229653636E+01 -0.12257334830E+02  0.13748451002E+02  0.10000000000E+01 0. -1.
    1000022    2    1    0    0    0 -0.39013460285E+02  0.17071352447E+02 -0.44640442797E+02  0.62500002314E+02  0.99999999222E+01 0.  0.
    3000022    2    3    3    0    0 -0.33454890278E+02  0.14448387083E+02 -0.32383107967E+02  0.48751551312E+02  0.25000189599E+00 0.  0.
    1000022    2    1    0    0    0  0.39013460285E+02 -0.17071352447E+02  0.44640442797E+02  0.62499997686E+02  0.99999709930E+01 0.  0.
    3000022    2    5    5    0    0  0.26106185059E+02 -0.16245185367E+02  0.32292816569E+02  0.44590665502E+02  0.25000401512E+00 0.  0.
        -13    1    4    4    0    0 -0.14662293408E+02  0.62664496980E+01 -0.14134021283E+02  0.21308045955E+02  0.10500000000E+00 0.  1.
         13    1    4    4    0    0 -0.18792596870E+02  0.81819373849E+01 -0.18249086684E+02  0.27443505357E+02  0.10500000000E+00 0. -1.
    3000001    1    5    5    0    0  0.12907275226E+02 -0.82616707914E+00  0.12347626228E+02  0.17909332183E+02  0.10000000000E+01 0. -1.
        -13    1    6    6    0    0  0.14820212826E+02 -0.91564108024E+01  0.18245378758E+02  0.25226641433E+02  0.10500000000E+00 0.  1.
         13    1    6    6    0    0  0.11285972233E+02 -0.70887745650E+01  0.14047437811E+02  0.19364024069E+02  0.10500000000E+00 0. -1.
</event>
<event>
11    0  0.3439373E-009  0.9118800E+02  0.7816531E-02  0.1126479E+00
         25   -1    0    0    0    0  0.00000000000E+00  0.00000000000E+00  0.99999998245E-14  0.12500000000E+03  0.12500000000E+03 0.  0.
    3000001    1    3    3    0    0 -0.30015652080E+00  0.14818367351E+01  0.34584419295E+00  0.18454111336E+01  0.10000000000E+01 0.  1.
    1000022    2    1    0    0    0 -0.38402850772E+02  0.41684984685E+02 -0.24368690327E+02  0.62499999772E+02  0.10000000386E+02 0.  0.
    3000022    2    3    3    0    0 -0.38102694251E+02  0.40203147950E+02 -0.24714534520E+02  0.60654588639E+02  0.24998428645E+00 0.  0.
    1000022    2    1    0    0    0  0.38402850772E+02 -0.41684984685E+02  0.24368690327E+02  0.62500000228E+02  0.10000003233E+02 0.  0.
    3000022    2    5    5    0    0  0.12547208221E+02 -0.11038716369E+02  0.27577371198E+01  0.16939696103E+02  0.24999367615E+00 0.  0.
        -13    1    4    4    0    0 -0.26653920122E+02  0.28159103281E+02 -0.17342301840E+02  0.42475086975E+02  0.10500000000E+00 0. -1.
         13    1    4    4    0    0 -0.11448774128E+02  0.12044044669E+02 -0.73722326803E+01  0.18179501663E+02  0.10500000000E+00 0.  1.
    3000001    1    5    5    0    0  0.25855642551E+02 -0.30646268315E+02  0.21610953207E+02  0.45560304124E+02  0.10000000000E+01 0. -1.
        -13    1    6    6    0    0  0.45591692057E+01 -0.40838951558E+01  0.10324999188E+01  0.62081643480E+01  0.10500000000E+00 0.  1.
         13    1    6    6    0    0  0.79880390148E+01 -0.69548212137E+01  0.17252372010E+01  0.10731531755E+02  0.10500000000E+00 0. -1.
</event>
<event>
11    0  0.3439373E-009  0.9118800E+02  0.7816531E-02  0.1126479E+00
         25   -1    0    0    0    0  0.00000000000E+00  0.00000000000E+00  0.99999998245E-14  0.12500000000E+03  0.12500000000E+03 0.  0.
    3000001    1    3    3    0    0 -0.36934559422E+01  0.66997883953E+01  0.11608768461E+02  0.13938876802E+02  0.10000000000E+01 0.  1.
    1000022    2    1    0    0    0 -0.32141757637E+02  0.21431333080E+02  0.48102549085E+02  0.62500001270E+02  0.10000015433E+02 0.  0.
    3000022    2    3    3    0    0 -0.28448301695E+02  0.14731544685E+02  0.36493780624E+02  0.48561124467E+02  0.25001430055E+00 0.  0.
    1000022    2    1    0    0    0  0.32141757637E+02 -0.21431333080E+02 -0.48102549085E+02  0.62499998730E+02  0.99999995605E+01 0.  0.
    3000022    2    5    5    0    0  0.98386899472E+01 -0.95886038427E+01 -0.23547186117E+02  0.27263044908E+02  0.25000021589E+00 0.  0.
        -13    1    4    4    0    0 -0.14949556892E+02  0.78002934698E+01  0.19272979912E+02  0.25608448004E+02  0.10500000000E+00 0. -1.
         13    1    4    4    0    0 -0.13498744803E+02  0.69312512148E+01  0.17220800712E+02  0.22952676463E+02  0.10500000000E+00 0.  1.
    3000001    1    5    5    0    0  0.22303067690E+02 -0.11842729237E+02 -0.24555362969E+02  0.35236953822E+02  0.10000000000E+01 0. -1.
        -13    1    6    6    0    0  0.54686518345E+01 -0.53589629858E+01 -0.13247649572E+02  0.15301499317E+02  0.10500000000E+00 0. -1.
         13    1    6    6    0    0  0.43700381127E+01 -0.42296408570E+01 -0.10299536545E+02  0.11961545591E+02  0.10500000000E+00 0.  1.
</event>
<event>
11    0  0.3439373E-009  0.9118800E+02  0.7816531E-02  0.1126479E+00
         25   -1    0    0    0    0  0.00000000000E+00  0.00000000000E+00  0.99999998245E-14  0.12500000000E+03  0.12500000000E+03 0.  0.
    3000001    1    3    3    0    0 -0.23383231380E+02  0.35699563935E+02 -0.25351026565E+02  0.49647849126E+02  0.10000000000E+01 0. -1.
    1000022    2    1    0    0    0 -0.25521995111E+02  0.47487637084E+02 -0.29996702938E+02  0.62500000240E+02  0.99999966247E+01 0.  0.
    3000022    2    3    3    0    0 -0.21387637309E+01  0.11788073150E+02 -0.46456763736E+01  0.12852151114E+02  0.25000083320E+00 0.  0.
    1000022    2    1    0    0    0  0.25521995111E+02 -0.47487637084E+02  0.29996702938E+02  0.62499999760E+02  0.99999936278E+01 0.  0.
    3000022    2    5    5    0    0  0.15067264492E+01 -0.55021055428E+01  0.26691687125E+00  0.57163914977E+01  0.24999428235E+00 0.  0.
        -13    1    4    4    0    0 -0.12315189206E+01  0.71010367500E+01 -0.27635416037E+01  0.77194267256E+01  0.10500000000E+00 0.  1.
         13    1    4    4    0    0 -0.90724481028E+00  0.46870363995E+01 -0.18821347699E+01  0.51327243885E+01  0.10500000000E+00 0. -1.
    3000001    1    5    5    0    0  0.24015268662E+02 -0.41985531541E+02  0.29729786067E+02  0.56783608263E+02  0.10000000000E+01 0.  1.
        -13    1    6    6    0    0  0.84865747028E+00 -0.33063078326E+01  0.12798987675E+00  0.34174987044E+01  0.10500000000E+00 0.  1.
         13    1    6    6    0    0  0.65806897896E+00 -0.21957977102E+01  0.13892699449E+00  0.22988927933E+01  0.10500000000E+00 0. -1.
</event>
<event>
11    0  0.3439373E-009  0.9118800E+02  0.7816531E-02  0.1126479E+00
         25   -1    0    0    0    0  0.00000000000E+00  0.00000000000E+00  0.99999998245E-14  0.12500000000E+03  0.12500000000E+03 0.  0.
    3000001    1    3    3    0    0  0.44429600455E+02  0.14546981642E+02  0.14787894914E+02  0.49043714251E+02  0.10000000000E+01 0. -1.
    1000022    2    1    0    0    0  0.55618884344E+02  0.22010562640E+02  0.15110420050E+02  0.62499999963E+02  0.10000001891E+02 0.  0.
    3000022    2    3    3    0    0  0.11189283889E+02  0.74635809980E+01  0.32252513680E+00  0.13456285712E+02  0.24997489247E+00 0.  0.
    1000022    2    1    0    0    0 -0.55618884344E+02 -0.22010562640E+02 -0.15110420050E+02  0.62500000037E+02  0.10000002354E+02 0.  0.
    3000022    2    5    5    0    0 -0.12228336123E+02 -0.53146952283E+01  0.77710694299E+00  0.13358315313E+02  0.25000616676E+00 0.  0.
        -13    1    4    4    0    0  0.42711874419E+01  0.29219589309E+01  0.13325031503E+00  0.51778052111E+01  0.10500000000E+00 0. -1.
         13    1    4    4    0    0  0.69180964470E+01  0.45416220672E+01  0.18927482178E+00  0.82784805012E+01  0.10500000000E+00 0.  1.
    3000001    1    5    5    0    0 -0.43390548221E+02 -0.16695867412E+02 -0.15887526993E+02  0.49141684724E+02  0.10000000000E+01 0. -1.
        -13    1    6    6    0    0 -0.64361992604E+01 -0.27283944572E+01  0.43131095468E+00  0.70047020903E+01  0.10500000000E+00 0. -1.
         13    1    6    6    0    0 -0.57921368628E+01 -0.25863007711E+01  0.34579598831E+00  0.63536132225E+01  0.10500000000E+00 0.  1.
</event>
<event>
11    0  0.3439373E-009  0.9118800E+02  0.7816531E-02  0.1126479E+00
         25   -1    0    0    0    0  0.00000000000E+00  0.00000000000E+00  0.99999998245E-14  0.12500000000E+03  0.12500000000E+03 0.  0.
    3000001    1    3    3    0    0 -0.22477867923E+01  0.91163356533E+01  0.13468632268E+02  0.16448835107E+02  0.10000000000E+01 0.  1.
    1000022    2    1    0    0    0  0.77240864208E+01  0.35979035434E+02  0.49518659202E+02  0.62500000550E+02  0.99999978917E+01 0.  0.
    3000022    2    3    3    0    0  0.99718732131E+01  0.26862699780E+02  0.36050026934E+02  0.46051165443E+02  0.25000372099E+00 0.  0.
    1000022    2    1    0    0    0 -0.77240864208E+01 -0.35979035434E+02 -0.49518659202E+02  0.62499999450E+02  0.99999910121E+01 0.  0.
    3000022    2    5    5    0    0 -0.22321823004E+01 -0.35373647953E+01 -0.18759181131E+01  0.45909864796E+01  0.25000114301E+00 0.  0.
        -13    1    4    4    0    0  0.73883100638E+01  0.19891074516E+02  0.26645313477E+02  0.34062086346E+02  0.10500000000E+00 0. -1.
         13    1    4    4    0    0  0.25835631494E+01  0.69716252647E+01  0.94047134573E+01  0.11989079097E+02  0.10500000000E+00 0.  1.
    3000001    1    5    5    0    0 -0.54919041204E+01 -0.32441670638E+02 -0.47642741089E+02  0.57909012970E+02  0.10000000000E+01 0. -1.
        -13    1    6    6    0    0 -0.81557104767E+00 -0.13373472735E+01 -0.64282094398E+00  0.16964367450E+01  0.10500000000E+00 0. -1.
         13    1    6    6    0    0 -0.14166112528E+01 -0.22000175218E+01 -0.12330971692E+01  0.28945497346E+01  0.10500000000E+00 0.  1.
</event>
<event>
11    0  0.3439373E-009  0.9118800E+02  0.7816531E-02  0.1126479E+00
         25   -1    0    0    0    0  0.00000000000E+00  0.00000000000E+00  0.99999998245E-14  0.12500000000E+03  0.12500000000E+03 0.  0.
    3000001    1    3    3    0    0 -0.17586541668E+02 -0.70903321635E+01  0.61850893605E+01  0.19970342722E+02  0.10000000000E+01 0.  1.
    1000022    2    1    0    0    0 -0.58216062985E+02 -0.19644101519E+02  0.55900964550E+01  0.62499998774E+02  0.99999977236E+01 0.  0.
    3000022    2    3    3    0    0 -0.40629521316E+02 -0.12553769355E+02 -0.59499290542E+00  0.42529656052E+02  0.24999985134E+00 0.  0.
    1000022    2    1    0    0    0  0.58216062985E+02  0.19644101519E+02 -0.55900964550E+01  0.62500001226E+02  0.10000013045E+02 0.  0.
    3000022    2    5    5    0    0  0.18279768890E+02  0.10805815560E+02 -0.35794935724E+01  0.21535804557E+02  0.25000621384E+00 0.  0.
        -13    1    4    4    0    0 -0.15362596243E+02 -0.46926290476E+01 -0.19326763270E+00  0.16064822068E+02  0.10500000000E+00 0. -1.
         13    1    4    4    0    0 -0.25266925073E+02 -0.78611403077E+01 -0.40172527273E+00  0.26464833984E+02  0.10500000000E+00 0.  1.
    3000001    1    5    5    0    0  0.39936294095E+02  0.88382859586E+01 -0.20106028827E+01  0.40964196669E+02  0.10000000000E+01 0.  1.
        -13    1    6    6    0    0  0.91110501645E+01  0.54634270449E+01 -0.17786491900E+01  0.10771949133E+02  0.10500000000E+00 0.  1.
         13    1    6    6    0    0  0.91687187251E+01  0.53423885154E+01 -0.18008443824E+01  0.10763855424E+02  0.10500000000E+00 0. -1.
</event>
<event>
11    0  0.3439373E-009  0.9118800E+02  0.7816531E-02  0.1126479E+00
         25   -1    0    0    0    0  0.00000000000E+00  0.00000000000E+00  0.99999998245E-14  0.12500000000E+03  0.12500000000E+03 0.  0.
    3000001    1    3    3    0    0 -0.91839160487E+01  0.82967317717E+00  0.31209484356E+01  0.97863675952E+01  0.10000000000E+01 0. -1.
    1000022    2    1    0    0    0 -0.60591650463E+02 -0.10761222639E+02  0.43701170690E+01  0.62499999094E+02  0.99999972550E+01 0.  0.
    3000022    2    3    3    0    0 -0.51407734414E+02 -0.11590895816E+02  0.12491686335E+01  0.52713631499E+02  0.25000028409E+00 0.  0.
    1000022    2    1    0    0    0  0.60591650463E+02  0.10761222639E+02 -0.43701170690E+01  0.62500000906E+02  0.10000008575E+02 0.  0.
    3000022    2    5    5    0    0  0.50937526941E+02  0.10487532689E+02 -0.69101408634E+01  0.52463630644E+02  0.25000150761E+00 0.  0.
        -13    1    4    4    0    0 -0.33568045776E+02 -0.76189383656E+01  0.84278510685E+00  0.34432299237E+02  0.10500000000E+00 0.  1.
         13    1    4    4    0    0 -0.17839688639E+02 -0.39719574503E+01  0.40638352661E+00  0.18281332262E+02  0.10500000000E+00 0. -1.
    3000001    1    5    5    0    0  0.96541235215E+01  0.27368994925E+00  0.25400237944E+01  0.10036370262E+02  0.10000000000E+01 0.  1.
        -13    1    6    6    0    0  0.12242827988E+02  0.25383149582E+01 -0.16517753645E+01  0.12612266523E+02  0.10500000000E+00 0.  1.
         13    1    6    6    0    0  0.38694698953E+02  0.79492177312E+01 -0.52583654990E+01  0.39851364121E+02  0.10500000000E+00 0. -1.
</event>
<event>
11    0  0.3439373E-009  0.9118800E+02  0.7816531E-02  0.1126479E+00
         25   -1    0    0    0    0  0.00000000000E+00  0.00000000000E+00  0.99999998245E-14  0.12500000000E+03  0.12500000000E+03 0.  0.
    3000001    1    3    3    0    0 -0.13965968682E+02 -0.20111000367E+02 -0.10434357133E+02  0.26634121456E+02  0.10000000000E+01 0.  1.
    1000022    2    1    0    0    0 -0.22223367597E+02 -0.51514378149E+02 -0.25664000669E+02  0.62500000984E+02  0.99999984589E+01 0.  0.
    3000022    2    3    3    0    0 -0.82573989150E+01 -0.31403377782E+02 -0.15229643536E+02  0.35865879527E+02  0.24999809725E+00 0.  0.
    1000022    2    1    0    0    0  0.22223367597E+02  0.51514378149E+02  0.25664000669E+02  0.62499999016E+02  0.99999861633E+01 0.  0.
    3000022    2    5    5    0    0  0.92475263533E+01  0.11245094993E+02  0.49259460459E+01  0.15371933795E+02  0.24999822701E+00 0.  0.
        -13    1    4    4    0    0 -0.48769801530E+01 -0.18509901486E+02 -0.90477385337E+01  0.21172481810E+02  0.10500000000E+00 0. -1.
         13    1    4    4    0    0 -0.33804187620E+01 -0.12893476296E+02 -0.61819050024E+01  0.14693397717E+02  0.10500000000E+00 0.  1.
    3000001    1    5    5    0    0  0.12975841243E+02  0.40269283157E+02  0.20738054623E+02  0.47128065221E+02  0.10000000000E+01 0.  1.
        -13    1    6    6    0    0  0.46288928899E+01  0.57086594000E+01  0.25340703191E+01  0.77748298318E+01  0.10500000000E+00 0.  1.
         13    1    6    6    0    0  0.46186334634E+01  0.55364355926E+01  0.23918757267E+01  0.75971039635E+01  0.10500000000E+00 0. -1.
</event>
<event>
11    0  0.3439373E-009  0.9118800E+02  0.7816531E-02  0.1126479E+00
         25   -1    0    0    0    0  0.00000000000E+00  0.00000000000E+00  0.99999998245E-14  0.12500000000E+03  0.12500000000E+03 0.  0.
    3000001    1    3    3    0    0  0.43959912191E+02  0.99692011227E+01  0.30249087093E+02  0.54294254953E+02  0.10000000000E+01 0.  1.
    1000022    2    1    0    0    0  0.51955896078E+02  0.92916947223E+01  0.31945254400E+02  0.62500000133E+02  0.10000000494E+02 0.  0.
    3000022    2    3    3    0    0  0.79959838864E+01 -0.67750640038E+00  0.16961673072E+01  0.82057451805E+01  0.24999439879E+00 0.  0.
    1000022    2    1    0    0    0 -0.51955896078E+02 -0.92916947223E+01 -0.31945254400E+02  0.62499999867E+02  0.99999988287E+01 0.  0.
    3000022    2    5    5    0    0 -0.16429448734E+02 -0.66089651027E+01 -0.72405595720E+01  0.19133567622E+02  0.25000318359E+00 0.  0.
        -13    1    4    4    0    0  0.31204328724E+01 -0.31430465125E+00  0.62501205029E+00  0.31996177565E+01  0.10500000000E+00 0. -1.
         13    1    4    4    0    0  0.48755510140E+01 -0.36320174912E+00  0.10711552570E+01  0.50061274240E+01  0.10500000000E+00 0.  1.
    3000001    1    5    5    0    0 -0.35526447343E+02 -0.26827296196E+01 -0.24704694829E+02  0.43366432245E+02  0.10000000000E+01 0. -1.
        -13    1    6    6    0    0 -0.76815663138E+01 -0.31626375646E+01 -0.33954294112E+01  0.89748929400E+01  0.10500000000E+00 0.  1.
         13    1    6    6    0    0 -0.87478824205E+01 -0.34463275382E+01 -0.38451301608E+01  0.10158674682E+02  0.10500000000E+00 0. -1.
</event>
<event>
11    0  0.3439373E-009  0.9118800E+02  0.7816531E-02  0.1126479E+00
         25   -1    0    0    0    0  0.00000000000E+00  0.00000000000E+00  0.99999998245E-14  0.12500000000E+03  0.12500000000E+03 0.  0.
    3000001    1    3    3    0    0  0.26870227110E+02  0.41598486427E+01  0.28393087622E+02  0.39325320982E+02  0.10000000000E+01 0.  1.
    1000022    2    1    0    0    0  0.44823816472E+02 -0.16606672768E+00  0.42391601186E+02  0.62500001115E+02  0.10000009348E+02 0.  0.
    3000022    2    3    3    0    0  0.17953589363E+02 -0.43259153704E+01  0.13998513564E+02  0.23174680133E+02  0.25000490708E+00 0.  0.
    1000022    2    1    0    0    0 -0.44823816472E+02  0.16606672768E+00 -0.42391601186E+02  0.62499998885E+02  0.99999954112E+01 0.  0.
    3000022    2    5    5    0    0 -0.39958209744E+02 -0.23522406566E+01 -0.39452668375E+02  0.56202910114E+02  0.25000277705E+00 0.  0.
        -13    1    4    4    0    0  0.73458547211E+01 -0.17094699815E+01  0.57482188588E+01  0.94835074866E+01  0.10500000000E+00 0. -1.
         13    1    4    4    0    0  0.10607734642E+02 -0.26164453889E+01  0.82502947056E+01  0.13691172646E+02  0.10500000000E+00 0.  1.
    3000001    1    5    5    0    0 -0.48656067288E+01  0.25183073843E+01 -0.29389328111E+01  0.62970887709E+01  0.10000000000E+01 0.  1.
        -13    1    6    6    0    0 -0.11990082381E+02 -0.74270129946E+00 -0.11802421030E+02  0.16841076210E+02  0.10500000000E+00 0. -1.
         13    1    6    6    0    0 -0.27968127362E+02 -0.16095393571E+01 -0.27650247345E+02  0.39361833905E+02  0.10500000000E+00 0.  1.
</event>
<event>
11    0  0.3439373E-009  0.9118800E+02  0.7816531E-02  0.1126479E+00
         25   -1    0    0    0    0  0.00000000000E+00  0.00000000000E+00  0.99999998245E-14  0.12500000000E+03  0.12500000000E+03 0.  0.
    3000001    1    3    3    0    0  0.21018990380E+02 -0.82984447870E+01 -0.28516431954E+02  0.36398475708E+02  0.10000000000E+01 0.  1.
    1000022    2    1    0    0    0  0.33043567249E+02 -0.21881191540E+02 -0.47281979703E+02  0.62500002764E+02  0.10000043051E+02 0.  0.
    3000022    2    3    3    0    0  0.12024576870E+02 -0.13582746753E+02 -0.18765547749E+02  0.26101527056E+02  0.24994811562E+00 0.  0.
    1000022    2    1    0    0    0 -0.33043567249E+02  0.21881191540E+02  0.47281979703E+02  0.62499997236E+02  0.10000008502E+02 0.  0.
    3000022    2    5    5    0    0 -0.11930824212E+02  0.13787677846E+02  0.21628692585E+02  0.28289706059E+02  0.24999833760E+00 0.  0.
        -13    1    4    4    0    0  0.88841783808E+01 -0.10076635491E+02 -0.13917670514E+02  0.19343727300E+02  0.10500000000E+00 0.  1.
         13    1    4    4    0    0  0.31403984890E+01 -0.35061112619E+01 -0.48478772349E+01  0.67577997555E+01  0.10500000000E+00 0. -1.
    3000001    1    5    5    0    0 -0.21112743037E+02  0.80935136940E+01  0.25653287119E+02  0.34210291178E+02  0.10000000000E+01 0. -1.
        -13    1    6    6    0    0 -0.30109585401E+01  0.34756282383E+01  0.54985268913E+01  0.71687297310E+01  0.10500000000E+00 0. -1.
         13    1    6    6    0    0 -0.89198656722E+01  0.10312049608E+02  0.16130165694E+02  0.21120976328E+02  0.10500000000E+00 0.  1.
</event>
<event>
11    0  0.3439373E-009  0.9118800E+02  0.7816531E-02  0.1126479E+00
         25   -1    0    0    0    0  0.00000000000E+00  0.00000000000E+00  0.99999998245E-14  0.12500000000E+03  0.12500000000E+03 0.  0.
    3000001    1    3    3    0    0  0.44837600765E+02  0.24928321909E+02 -0.29637092450E+02  0.59255286046E+02  0.10000000000E+01 0.  1.
    1000022    2    1    0    0    0  0.47849224976E+02  0.25948388907E+02 -0.29041053280E+02  0.62500001066E+02  0.10000006997E+02 0.  0.
    3000022    2    3    3    0    0  0.30116242110E+01  0.10200669979E+01  0.59603917050E+00  0.32447150191E+01  0.24999158695E+00 0.  0.
    1000022    2    1    0    0    0 -0.47849224976E+02 -0.25948388907E+02  0.29041053280E+02  0.62499998934E+02  0.99999936779E+01 0.  0.
    3000022    2    5    5    0    0 -0.99271260326E+00 -0.26005227636E+01  0.41624758274E+00  0.28255897932E+01  0.24999734507E+00 0.  0.
        -13    1    4    4    0    0  0.87495208110E+00  0.34279336460E+00  0.16886176943E+00  0.96051430609E+00  0.10500000000E+00 0. -1.
         13    1    4    4    0    0  0.21366721299E+01  0.67727363333E+00  0.42717740107E+00  0.22842007130E+01  0.10500000000E+00 0.  1.
    3000001    1    5    5    0    0 -0.46856512372E+02 -0.23347866143E+02  0.28624805697E+02  0.59674409141E+02  0.10000000000E+01 0.  1.
        -13    1    6    6    0    0 -0.50618574745E+00 -0.13460089602E+01  0.28304420101E+00  0.14693886999E+01  0.10500000000E+00 0.  1.
         13    1    6    6    0    0 -0.48652685582E+00 -0.12545138035E+01  0.13320338173E+00  0.13562010933E+01  0.10500000000E+00 0. -1.
</event>
<event>
11    0  0.3439373E-009  0.9118800E+02  0.7816531E-02  0.1126479E+00
         25   -1    0    0    0    0  0.00000000000E+00  0.00000000000E+00  0.99999998245E-14  0.12500000000E+03  0.12500000000E+03 0.  0.
    3000001    1    3    3    0    0  0.21283930540E+02 -0.41111488293E+01 -0.20573153319E+02  0.29902539715E+02  0.10000000000E+01 0.  1.
    1000022    2    1    0    0    0  0.39582872871E+02 -0.17632982389E+02 -0.43914971360E+02  0.62499997352E+02  0.99999533433E+01 0.  0.
    3000022    2    3    3    0    0  0.18298942331E+02 -0.13521833560E+02 -0.23341818040E+02  0.32597457637E+02  0.25000343889E+00 0.  0.
    1000022    2    1    0    0    0 -0.39582872871E+02  0.17632982389E+02  0.43914971360E+02  0.62500002648E+02  0.99999864424E+01 0.  0.
    3000022    2    5    5    0    0 -0.29120299374E+02  0.85216195323E+01  0.32910938248E+02  0.44763849683E+02  0.25009394220E+00 0.  0.
        -13    1    4    4    0    0  0.42549925835E+01 -0.31521491410E+01 -0.54192090192E+01  0.75775891606E+01  0.10500000000E+00 0. -1.
         13    1    4    4    0    0  0.14043949747E+02 -0.10369684419E+02 -0.17922609021E+02  0.25019868476E+02  0.10500000000E+00 0.  1.
    3000001    1    5    5    0    0 -0.10462573497E+02  0.91113628566E+01  0.11004033111E+02  0.17736152965E+02  0.10000000000E+01 0.  1.
        -13    1    6    6    0    0 -0.20545355016E+02  0.60257675334E+01  0.23160848192E+02  0.31541360166E+02  0.10500000000E+00 0.  1.
         13    1    6    6    0    0 -0.85749443576E+01  0.24958519989E+01  0.97500900561E+01  0.13222489517E+02  0.10500000000E+00 0. -1.
</event>
<event>
11    0  0.3439373E-009  0.9118800E+02  0.7816531E-02  0.1126479E+00
         25   -1    0    0    0    0  0.00000000000E+00  0.00000000000E+00  0.99999998245E-14  0.12500000000E+03  0.12500000000E+03 0.  0.
    3000001    1    3    3    0    0  0.15265346043E+02  0.35057984960E+02  0.49249297771E+01  0.38566151384E+02  0.10000000000E+01 0.  1.
    1000022    2    1    0    0    0  0.29606808069E+02  0.54067383102E+02  0.25308119961E+01  0.62499998842E+02  0.99999923153E+01 0.  0.
    3000022    2    3    3    0    0  0.14341462026E+02  0.19009398142E+02 -0.23941177810E+01  0.23933847458E+02  0.25000681112E+00 0.  0.
    1000022    2    1    0    0    0 -0.29606808069E+02 -0.54067383102E+02 -0.25308119961E+01  0.62500001158E+02  0.10000006789E+02 0.  0.
    3000022    2    5    5    0    0 -0.30798279580E+01 -0.28997464343E+01 -0.23715353865E+01  0.48559807823E+01  0.24999926833E+00 0.  0.
        -13    1    4    4    0    0  0.53867719512E+01  0.71794096516E+01 -0.95833727464E+00  0.90272183054E+01  0.10500000000E+00 0. -1.
         13    1    4    4    0    0  0.89546900752E+01  0.11829988491E+02 -0.14357805064E+01  0.14906629153E+02  0.10500000000E+00 0.  1.
    3000001    1    5    5    0    0 -0.26526980111E+02 -0.51167636668E+02 -0.15927660961E+00  0.57644020376E+02  0.10000000000E+01 0. -1.
        -13    1    6    6    0    0 -0.17236128063E+01 -0.16764076464E+01 -0.14077491441E+01  0.27881833433E+01  0.10500000000E+00 0.  1.
         13    1    6    6    0    0 -0.13562151517E+01 -0.12233387880E+01 -0.96378624239E+00  0.20677974390E+01  0.10500000000E+00 0. -1.
</event>
<event>
11    0  0.3439373E-009  0.9118800E+02  0.7816531E-02  0.1126479E+00
         25   -1    0    0    0    0  0.00000000000E+00  0.00000000000E+00  0.99999998245E-14  0.12500000000E+03  0.12500000000E+03 0.  0.
    3000001    1    3    3    0    0 -0.72345931183E+01 -0.39823731370E+01 -0.24433073759E+01  0.86699702608E+01  0.10000000000E+01 0.  1.
    1000022    2    1    0    0    0 -0.56833410223E+02 -0.58675313765E+01 -0.23276287295E+02  0.62499999281E+02  0.99999958898E+01 0.  0.
    3000022    2    3    3    0    0 -0.49598817105E+02 -0.18851582395E+01 -0.20832979919E+02  0.53830029020E+02  0.24998436905E+00 0.  0.
    1000022    2    1    0    0    0  0.56833410223E+02  0.58675313765E+01  0.23276287295E+02  0.62500000719E+02  0.10000004879E+02 0.  0.
    3000022    2    5    5    0    0  0.44245807617E+01  0.32922731374E+01  0.23557203944E+01  0.60023239529E+01  0.24999386217E+00 0.  0.
        -13    1    4    4    0    0 -0.33252426683E+02 -0.12339094785E+01 -0.14013559525E+02  0.36105917638E+02  0.10500000000E+00 0.  1.
         13    1    4    4    0    0 -0.16346390422E+02 -0.65124876098E+00 -0.68194203946E+01  0.17724111382E+02  0.10500000000E+00 0. -1.
    3000001    1    5    5    0    0  0.52408829462E+02  0.25752582391E+01  0.20920566901E+02  0.56497676766E+02  0.10000000000E+01 0.  1.
        -13    1    6    6    0    0  0.20549808547E+01  0.14468462830E+01  0.10854068030E+01  0.27396064330E+01  0.10500000000E+00 0.  1.
         13    1    6    6    0    0  0.23695999070E+01  0.18454268544E+01  0.12703135914E+01  0.32627175199E+01  0.10500000000E+00 0. -1.
</event>
<event>
11    0  0.3439373E-009  0.9118800E+02  0.7816531E-02  0.1126479E+00
         25   -1    0    0    0    0  0.00000000000E+00  0.00000000000E+00  0.99999998245E-14  0.12500000000E+03  0.12500000000E+03 0.  0.
    3000001    1    3    3    0    0  0.13636116119E+02 -0.34102707665E+02  0.14017402611E+02  0.39324622170E+02  0.10000000000E+01 0. -1.
    1000022    2    1    0    0    0  0.26836373385E+02 -0.52940314325E+02  0.16833982057E+02  0.62499994622E+02  0.99999279272E+01 0.  0.
    3000022    2    3    3    0    0  0.13200257266E+02 -0.18837606661E+02  0.28165794453E+01  0.23175372452E+02  0.25010379840E+00 0.  0.
    1000022    2    1    0    0    0 -0.26836373385E+02  0.52940314325E+02 -0.16833982057E+02  0.62500005378E+02  0.99999951521E+01 0.  0.
    3000022    2    5    5    0    0 -0.26492182776E+02  0.49934503267E+02 -0.17635043408E+02  0.59214420715E+02  0.24999961950E+00 0.  0.
        -13    1    4    4    0    0  0.79567058824E+01 -0.11436649065E+02  0.17475160858E+01  0.14041757290E+02  0.10500000000E+00 0.  1.
         13    1    4    4    0    0  0.52435513839E+01 -0.74009575960E+01  0.10690633595E+01  0.91336151616E+01  0.10500000000E+00 0. -1.
    3000001    1    5    5    0    0 -0.34419060927E+00  0.30058110581E+01  0.80106135092E+00  0.32855846635E+01  0.10000000000E+01 0. -1.
        -13    1    6    6    0    0 -0.15983238093E+02  0.30007138912E+02 -0.10576453614E+02  0.35605683278E+02  0.10500000000E+00 0.  1.
         13    1    6    6    0    0 -0.10508944682E+02  0.19927364355E+02 -0.70585897939E+01  0.23608737437E+02  0.10500000000E+00 0. -1.
</event>
<event>
11    0  0.3439373E-009  0.9118800E+02  0.7816531E-02  0.1126479E+00
         25   -1    0    0    0    0  0.00000000000E+00  0.00000000000E+00  0.99999998245E-14  0.12500000000E+03  0.12500000000E+03 0.  0.
    3000001    1    3    3    0    0 -0.16302432003E+02  0.23121377714E+02  0.29451940342E+02  0.40850755030E+02  0.10000000000E+01 0. -1.
    1000022    2    1    0    0    0 -0.18108607897E+02  0.37675740199E+02  0.45374739644E+02  0.62499999241E+02  0.99999913958E+01 0.  0.
    3000022    2    3    3    0    0 -0.18061758939E+01  0.14554362485E+02  0.15922799302E+02  0.21649244212E+02  0.24999723566E+00 0.  0.
    1000022    2    1    0    0    0  0.18108607897E+02 -0.37675740199E+02 -0.45374739644E+02  0.62500000759E+02  0.10000000878E+02 0.  0.
    3000022    2    5    5    0    0  0.10493011566E+02 -0.14443679203E+02 -0.24630723638E+02  0.30421344838E+02  0.25002837644E+00 0.  0.
        -13    1    4    4    0    0 -0.75346412276E+00  0.63183333792E+01  0.69946984335E+01  0.94565255803E+01  0.10500000000E+00 0.  1.
         13    1    4    4    0    0 -0.10527117711E+01  0.82360291054E+01  0.89281008690E+01  0.12192718631E+02  0.10500000000E+00 0. -1.
    3000001    1    5    5    0    0  0.76155963301E+01 -0.23232060996E+02 -0.20744016006E+02  0.32078655920E+02  0.10000000000E+01 0. -1.
        -13    1    6    6    0    0  0.71793217147E+01 -0.98011709733E+01 -0.16789813739E+02  0.20724731195E+02  0.10500000000E+00 0. -1.
         13    1    6    6    0    0  0.33136898518E+01 -0.46425082293E+01 -0.78409098990E+01  0.96966136428E+01  0.10500000000E+00 0.  1.
</event>
<event>
11    0  0.3439373E-009  0.9118800E+02  0.7816531E-02  0.1126479E+00
         25   -1    0    0    0    0  0.00000000000E+00  0.00000000000E+00  0.99999998245E-14  0.12500000000E+03  0.12500000000E+03 0.  0.
    3000001    1    3    3    0    0  0.12871728874E+02  0.10741922020E+02  0.23258462836E+02  0.28688436457E+02  0.10000000000E+01 0.  1.
    1000022    2    1    0    0    0  0.22623271524E+02  0.15378946352E+02  0.55298512438E+02  0.62500000606E+02  0.10000009624E+02 0.  0.
    3000022    2    3    3    0    0  0.97515426501E+01  0.46370243325E+01  0.32040049602E+02  0.33811564148E+02  0.25002584411E+00 0.  0.
    1000022    2    1    0    0    0 -0.22623271524E+02 -0.15378946352E+02 -0.55298512438E+02  0.62499999394E+02  0.10000002054E+02 0.  0.
    3000022    2    5    5    0    0 -0.16225315789E+02 -0.10776119235E+02 -0.47624104200E+02  0.51453896151E+02  0.25002004805E+00 0.  0.
        -13    1    4    4    0    0  0.33550576498E+01  0.15772805466E+01  0.11168844374E+02  0.11768531574E+02  0.10500000000E+00 0. -1.
         13    1    4    4    0    0  0.63964850004E+01  0.30597437859E+01  0.20871205228E+02  0.22043032574E+02  0.10500000000E+00 0.  1.
    3000001    1    5    5    0    0 -0.63979557352E+01 -0.46028271174E+01 -0.76744082375E+01  0.11046103243E+02  0.10000000000E+01 0. -1.
        -13    1    6    6    0    0 -0.12495673471E+02 -0.82906340323E+01 -0.36665409089E+02  0.39613630442E+02  0.10500000000E+00 0.  1.
         13    1    6    6    0    0 -0.37296423177E+01 -0.24854852026E+01 -0.10958695111E+02  0.11840265709E+02  0.10500000000E+00 0. -1.
</event>
<event>
11    0  0.3439373E-009  0.9118800E+02  0.7816531E-02  0.1126479E+00
         25   -1    0    0    0    0  0.00000000000E+00  0.00000000000E+00  0.99999998245E-14  0.12500000000E+03  0.12500000000E+03 0.  0.
    3000001    1    3    3    0    0  0.74688071080E+01  0.39124285151E+01 -0.11639790360E+01  0.85700072169E+01  0.10000000000E+01 0. -1.
    1000022    2    1    0    0    0  0.38769000420E+02  0.45172434930E+02 -0.16206987260E+02  0.62500006495E+02  0.10000005239E+02 0.  0.
    3000022    2    3    3    0    0  0.31300193312E+02  0.41260006415E+02 -0.15043008224E+02  0.53929999278E+02  0.24998998522E+00 0.  0.
    1000022    2    1    0    0    0 -0.38769000420E+02 -0.45172434930E+02  0.16206987260E+02  0.62499993505E+02  0.99999240473E+01 0.  0.
    3000022    2    5    5    0    0 -0.31121807881E+02 -0.33965151519E+02  0.84409345677E+01  0.46834926330E+02  0.25000883264E+00 0.  0.
        -13    1    4    4    0    0  0.15079478417E+02  0.19932973518E+02 -0.71987061551E+01  0.26010507452E+02  0.10500000000E+00 0. -1.
         13    1    4    4    0    0  0.16220714895E+02  0.21327032897E+02 -0.78443020686E+01  0.27919491827E+02  0.10500000000E+00 0.  1.
    3000001    1    5    5    0    0 -0.76471925390E+01 -0.11207283411E+02  0.77660526920E+01  0.15665067175E+02  0.10000000000E+01 0. -1.
        -13    1    6    6    0    0 -0.13396928429E+02 -0.14664005283E+02  0.36991618838E+01  0.20204097750E+02  0.10500000000E+00 0. -1.
         13    1    6    6    0    0 -0.17724879452E+02 -0.19301146237E+02  0.47417726839E+01  0.26630828580E+02  0.10500000000E+00 0.  1.
</event>
<event>
11    0  0.3439373E-009  0.9118800E+02  0.7816531E-02  0.1126479E+00
         25   -1    0    0    0    0  0.00000000000E+00  0.00000000000E+00  0.99999998245E-14  0.12500000000E+03  0.12500000000E+03 0.  0.
    3000001    1    3    3    0    0 -0.13264726514E+02  0.54865070690E+02  0.19428676220E+02  0.59704291395E+02  0.10000000000E+01 0. -1.
    1000022    2    1    0    0    0 -0.11780870462E+02  0.57094858498E+02  0.20190052383E+02  0.62499999871E+02  0.99999996390E+01 0.  0.
    3000022    2    3    3    0    0  0.14838560513E+01  0.22297878087E+01  0.76137616305E+00  0.27957084759E+01  0.25001953467E+00 0.  0.
    1000022    2    1    0    0    0  0.11780870462E+02 -0.57094858498E+02 -0.20190052383E+02  0.62500000129E+02  0.10000001256E+02 0.  0.
    3000022    2    5    5    0    0  0.11783881848E+02 -0.33154947183E+02 -0.12148750591E+02  0.37225865181E+02  0.25000688880E+00 0.  0.
        -13    1    4    4    0    0  0.78001942872E+00  0.11828085766E+01  0.33273225079E+00  0.14591786007E+01  0.10500000000E+00 0. -1.
         13    1    4    4    0    0  0.70383662261E+00  0.10469792320E+01  0.42864391227E+00  0.13365298752E+01  0.10500000000E+00 0.  1.
    3000001    1    5    5    0    0 -0.30113859538E-02 -0.23939911316E+02 -0.80413017922E+01  0.25274134948E+02  0.10000000000E+01 0. -1.
        -13    1    6    6    0    0  0.62923016944E+01 -0.17679641097E+02 -0.64085190561E+01  0.19830353285E+02  0.10500000000E+00 0. -1.
         13    1    6    6    0    0  0.54915801539E+01 -0.15475306086E+02 -0.57402315350E+01  0.17395511896E+02  0.10500000000E+00 0.  1.
</event>
<event>
11    0  0.3439373E-009  0.9118800E+02  0.7816531E-02  0.1126479E+00
         25   -1    0    0    0    0  0.00000000000E+00  0.00000000000E+00  0.99999998245E-14  0.12500000000E+03  0.12500000000E+03 0.  0.
    3000001    1    3    3    0    0  0.21462312419E+02 -0.19576468874E+02 -0.31964388873E+02  0.43204063975E+02  0.10000000000E+01 0.  1.
    1000022    2    1    0    0    0  0.27120203165E+02 -0.33292497007E+02 -0.44298467467E+02  0.62500000019E+02  0.10000000286E+02 0.  0.
    3000022    2    3    3    0    0  0.56578907461E+01 -0.13716028133E+02 -0.12334078594E+02  0.19295936044E+02  0.24999517386E+00 0.  0.
    1000022    2    1    0    0    0 -0.27120203165E+02  0.33292497007E+02  0.44298467467E+02  0.62499999981E+02  0.10000000053E+02 0.  0.
    3000022    2    5    5    0    0 -0.17286902988E+01  0.30211196411E+01  0.53387308985E+00  0.35303049315E+01  0.24999679621E+00 0.  0.
        -13    1    4    4    0    0  0.29091987516E+01 -0.68747664223E+01 -0.62070930542E+01  0.97090102442E+01  0.10500000000E+00 0.  1.
         13    1    4    4    0    0  0.27486919944E+01 -0.68412617105E+01 -0.61269855402E+01  0.95869257994E+01  0.10500000000E+00 0. -1.
    3000001    1    5    5    0    0 -0.25391512867E+02  0.30271377365E+02  0.43764594377E+02  0.58969695050E+02  0.10000000000E+01 0. -1.
        -13    1    6    6    0    0 -0.11480714015E+01  0.20917404746E+01  0.33929989480E+00  0.24123837950E+01  0.10500000000E+00 0. -1.
         13    1    6    6    0    0 -0.58061889734E+00  0.92937916658E+00  0.19457319505E+00  0.11179211365E+01  0.10500000000E+00 0.  1.
</event>
<event>
11    0  0.3439373E-009  0.9118800E+02  0.7816531E-02  0.1126479E+00
         25   -1    0    0    0    0  0.00000000000E+00  0.00000000000E+00  0.99999998245E-14  0.12500000000E+03  0.12500000000E+03 0.  0.
    3000001    1    3    3    0    0  0.28566802398E+01 -0.18858941094E+01  0.47380260847E+01  0.59301020028E+01  0.10000000000E+01 0. -1.
    1000022    2    1    0    0    0  0.51028670407E+02 -0.17974449488E+02  0.29652044408E+02  0.62499997356E+02  0.99999947031E+01 0.  0.
    3000022    2    3    3    0    0  0.48171990167E+02 -0.16088555379E+02  0.24914018323E+02  0.56569895353E+02  0.25000090508E+00 0.  0.
    1000022    2    1    0    0    0 -0.51028670407E+02  0.17974449488E+02 -0.29652044408E+02  0.62500002644E+02  0.10000027753E+02 0.  0.
    3000022    2    5    5    0    0 -0.13804586200E+02  0.63233732017E+01 -0.36702685484E+01  0.15623220540E+02  0.25000002231E+00 0.  0.
        -13    1    4    4    0    0  0.31287038651E+02 -0.10508434734E+02  0.16182541480E+02  0.36758559029E+02  0.10500000000E+00 0.  1.
         13    1    4    4    0    0  0.16884951516E+02 -0.55801206451E+01  0.87314768433E+01  0.19811336325E+02  0.10500000000E+00 0. -1.
    3000001    1    5    5    0    0 -0.37224084207E+02  0.11651076286E+02 -0.25981775859E+02  0.46876782104E+02  0.10000000000E+01 0.  1.
        -13    1    6    6    0    0 -0.82329834993E+01  0.37379871827E+01 -0.21280497078E+01  0.92894664022E+01  0.10500000000E+00 0.  1.
         13    1    6    6    0    0 -0.55716027006E+01  0.25853860191E+01 -0.15422188406E+01  0.63337541374E+01  0.10500000000E+00 0. -1.
</event>
<event>
11    0  0.3439373E-009  0.9118800E+02  0.7816531E-02  0.1126479E+00
         25   -1    0    0    0    0  0.00000000000E+00  0.00000000000E+00  0.99999998245E-14  0.12500000000E+03  0.12500000000E+03 0.  0.
    3000001    1    3    3    0    0  0.21210877053E+02  0.75735608839E+01  0.45656476379E+01  0.23002288325E+02  0.10000000000E+01 0.  1.
    1000022    2    1    0    0    0  0.52260503476E+02  0.22313867805E+02  0.24024597086E+02  0.62499999255E+02  0.99999860880E+01 0.  0.
    3000022    2    3    3    0    0  0.31049626423E+02  0.14740306921E+02  0.19458949448E+02  0.39497710931E+02  0.25001196077E+00 0.  0.
    1000022    2    1    0    0    0 -0.52260503476E+02 -0.22313867805E+02 -0.24024597086E+02  0.62500000745E+02  0.99999953977E+01 0.  0.
    3000022    2    5    5    0    0 -0.12706465948E+02 -0.65724310984E+01 -0.16672782809E+01  0.14404632792E+02  0.25000314762E+00 0.  0.
        -13    1    4    4    0    0  0.17722140601E+02  0.84239117943E+01  0.11034622720E+02  0.22512451687E+02  0.10500000000E+00 0.  1.
         13    1    4    4    0    0  0.13327485822E+02  0.63163951269E+01  0.84243267281E+01  0.16985259243E+02  0.10500000000E+00 0. -1.
    3000001    1    5    5    0    0 -0.39554037528E+02 -0.15741436707E+02 -0.22357318805E+02  0.48095367953E+02  0.10000000000E+01 0.  1.
        -13    1    6    6    0    0 -0.76786078742E+01 -0.40409146328E+01 -0.10221865025E+01  0.87376141024E+01  0.10500000000E+00 0.  1.
         13    1    6    6    0    0 -0.50278580736E+01 -0.25315164656E+01 -0.64509177838E+00  0.56670186894E+01  0.10500000000E+00 0. -1.
</event>
<event>
11    0  0.3439373E-009  0.9118800E+02  0.7816531E-02  0.1126479E+00
         25   -1    0    0    0    0  0.00000000000E+00  0.00000000000E+00  0.99999998245E-14  0.12500000000E+03  0.12500000000E+03 0.  0.
    3000001    1    3    3    0    0  0.10768411202E+02 -0.45582645084E+02 -0.62738821401E+01  0.47266243872E+02  0.10000000000E+01 0. -1.
    1000022    2    1    0    0    0  0.18981821016E+02 -0.57827371778E+02 -0.10096349876E+02  0.62499995617E+02  0.99999357746E+01 0.  0.
    3000022    2    3    3    0    0  0.82134098132E+01 -0.12244726694E+02 -0.38224677356E+01  0.15233751745E+02  0.25000012352E+00 0.  0.
    1000022    2    1    0    0    0 -0.18981821016E+02  0.57827371778E+02  0.10096349876E+02  0.62500004383E+02  0.99999905642E+01 0.  0.
    3000022    2    5    5    0    0 -0.56758685607E+01  0.75543583179E+01  0.34552949282E+01  0.10064063809E+02  0.25000759775E+00 0.  0.
        -13    1    4    4    0    0  0.58029646218E+01 -0.86459050849E+01 -0.27447305483E+01  0.10768966706E+02  0.10500000000E+00 0.  1.
         13    1    4    4    0    0  0.24104451914E+01 -0.35988216089E+01 -0.10777371873E+01  0.44647850384E+01  0.10500000000E+00 0. -1.
    3000001    1    5    5    0    0 -0.13305952455E+02  0.50273013460E+02  0.66410549475E+01  0.52435940574E+02  0.10000000000E+01 0. -1.
        -13    1    6    6    0    0 -0.33625702223E+01  0.45267224293E+01  0.21207548574E+01  0.60255058392E+01  0.10500000000E+00 0. -1.
         13    1    6    6    0    0 -0.23132983383E+01  0.30276358886E+01  0.13345400708E+01  0.40385579700E+01  0.10500000000E+00 0.  1.
</event>
<event>
11    0  0.3439373E-009  0.9118800E+02  0.7816531E-02  0.1126479E+00
         25   -1    0    0    0    0  0.00000000000E+00  0.00000000000E+00  0.99999998245E-14  0.12500000000E+03  0.12500000000E+03 0.  0.
    3000001    1    3    3    0    0 -0.17283916421E+02 -0.12250793226E+02  0.50458159671E+01  0.21800824761E+02  0.10000000000E+01 0. -1.
    1000022    2    1    0    0    0 -0.52388787335E+02 -0.24206137333E+02  0.21811183499E+02  0.62499992566E+02  0.99999611046E+01 0.  0.
    3000022    2    3    3    0    0 -0.35104870914E+02 -0.11955344108E+02  0.16765367532E+02  0.40699167805E+02  0.24999376251E+00 0.  0.
    1000022    2    1    0    0    0  0.52388787335E+02  0.24206137333E+02 -0.21811183499E+02  0.62500007434E+02  0.10000054028E+02 0.  0.
    3000022    2    5    5    0    0  0.30470582665E+01  0.29514190739E+01  0.57674172153E+00  0.42884237803E+01  0.25001775379E+00 0.  0.
        -13    1    4    4    0    0 -0.10203223967E+02 -0.34598913704E+01  0.48261595935E+01  0.11805908226E+02  0.10500000000E+00 0.  1.
         13    1    4    4    0    0 -0.24901646947E+02 -0.84954527373E+01  0.11939207939E+02  0.28893259579E+02  0.10500000000E+00 0. -1.
    3000001    1    5    5    0    0  0.49341729069E+02  0.21254718260E+02 -0.22387925221E+02  0.58211583654E+02  0.10000000000E+01 0. -1.
        -13    1    6    6    0    0  0.23144490113E+01  0.22114977120E+01  0.42509792561E+00  0.32309641908E+01  0.10500000000E+00 0. -1.
         13    1    6    6    0    0  0.73260925520E+00  0.73992136188E+00  0.15164379592E+00  0.10574595895E+01  0.10500000000E+00 0.  1.
</event>
<event>
11    0  0.3439373E-009  0.9118800E+02  0.7816531E-02  0.1126479E+00
         25   -1    0    0    0    0  0.00000000000E+00  0.00000000000E+00  0.99999998245E-14  0.12500000000E+03  0.12500000000E+03 0.  0.
    3000001    1    3    3    0    0  0.76616679342E+01 -0.10027876008E+02  0.39897566630E+01  0.13273191440E+02  0.10000000000E+01 0.  1.
    1000022    2    1    0    0    0  0.42743030793E+02 -0.33297662578E+02  0.29505068307E+02  0.62499999364E+02  0.99999925110E+01 0.  0.
    3000022    2    3    3    0    0  0.35081362859E+02 -0.23269786570E+02  0.25515311644E+02  0.49226807925E+02  0.25000624734E+00 0.  0.
    1000022    2    1    0    0    0 -0.42743030793E+02  0.33297662578E+02 -0.29505068307E+02  0.62500000636E+02  0.10000000458E+02 0.  0.
    3000022    2    5    5    0    0 -0.26274757164E+02  0.22773342301E+02 -0.13807338206E+02  0.37412472182E+02  0.25000568349E+00 0.  0.
        -13    1    4    4    0    0  0.14116488695E+02 -0.92990240603E+01  0.10206860691E+02  0.19746851185E+02  0.10500000000E+00 0.  1.
         13    1    4    4    0    0  0.20964874164E+02 -0.13970762510E+02  0.15308450952E+02  0.29479956739E+02  0.10500000000E+00 0. -1.
    3000001    1    5    5    0    0 -0.16468273629E+02  0.10524320277E+02 -0.15697730101E+02  0.25087528454E+02  0.10000000000E+01 0.  1.
        -13    1    6    6    0    0 -0.84379214773E+01  0.73363537330E+01 -0.43884566186E+01  0.12012084808E+02  0.10500000000E+00 0.  1.
         13    1    6    6    0    0 -0.17836835687E+02  0.15436988568E+02 -0.94188815876E+01  0.25400387373E+02  0.10500000000E+00 0. -1.
</event>
<event>
11    0  0.3439373E-009  0.9118800E+02  0.7816531E-02  0.1126479E+00
         25   -1    0    0    0    0  0.00000000000E+00  0.00000000000E+00  0.99999998245E-14  0.12500000000E+03  0.12500000000E+03 0.  0.
    3000001    1    3    3    0    0  0.10641573976E+02  0.39357772229E+02 -0.46220915981E+00  0.40785916305E+02  0.10000000000E+01 0.  1.
    1000022    2    1    0    0    0  0.16107242269E+02  0.59206096861E+02  0.64377531913E+01  0.62500001607E+02  0.10000018785E+02 0.  0.
    3000022    2    3    3    0    0  0.54656682928E+01  0.19848324632E+02  0.68999623511E+01  0.21714085302E+02  0.24999895263E+00 0.  0.
    1000022    2    1    0    0    0 -0.16107242269E+02 -0.59206096861E+02 -0.64377531913E+01  0.62499998393E+02  0.99999986971E+01 0.  0.
    3000022    2    5    5    0    0 -0.83599536296E+01 -0.43412279643E+02 -0.16512954267E+01  0.44241429952E+02  0.24999827771E+00 0.  0.
        -13    1    4    4    0    0  0.13028648850E+01  0.47032921331E+01  0.16201877207E+01  0.51433886737E+01  0.10500000000E+00 0. -1.
         13    1    4    4    0    0  0.41628034078E+01  0.15145032499E+02  0.52797746304E+01  0.16570696629E+02  0.10500000000E+00 0.  1.
    3000001    1    5    5    0    0 -0.77472886391E+01 -0.15793817219E+02 -0.47864577646E+01  0.18258568441E+02  0.10000000000E+01 0.  1.
        -13    1    6    6    0    0 -0.36182970353E+01 -0.18497821175E+02 -0.73897290548E+00  0.18863153703E+02  0.10500000000E+00 0. -1.
         13    1    6    6    0    0 -0.47416565944E+01 -0.24914458467E+02 -0.91232252117E+00  0.25378276249E+02  0.10500000000E+00 0.  1.
</event>
<event>
11    0  0.3439373E-009  0.9118800E+02  0.7816531E-02  0.1126479E+00
         25   -1    0    0    0    0  0.00000000000E+00  0.00000000000E+00  0.99999998245E-14  0.12500000000E+03  0.12500000000E+03 0.  0.
    3000001    1    3    3    0    0  0.76267351190E+01 -0.10924226325E+02  0.23064052166E+01  0.13558219441E+02  0.10000000000E+01 0. -1.
    1000022    2    1    0    0    0  0.28786561601E+02 -0.46998930153E+02  0.27725157666E+02  0.62500001123E+02  0.10000010417E+02 0.  0.
    3000022    2    3    3    0    0  0.21159826482E+02 -0.36074703828E+02  0.25418752450E+02  0.48941781682E+02  0.25001012633E+00 0.  0.
    1000022    2    1    0    0    0 -0.28786561601E+02  0.46998930153E+02 -0.27725157666E+02  0.62499998877E+02  0.99999963805E+01 0.  0.
    3000022    2    5    5    0    0 -0.24885634688E+02  0.42539205052E+02 -0.21261923209E+02  0.53675046843E+02  0.24998938302E+00 0.  0.
        -13    1    4    4    0    0  0.66555587663E+01 -0.11250126416E+02  0.79483633500E+01  0.15298670263E+02  0.10500000000E+00 0.  1.
         13    1    4    4    0    0  0.14504267716E+02 -0.24824577412E+02  0.17470389100E+02  0.33643111419E+02  0.10500000000E+00 0. -1.
    3000001    1    5    5    0    0 -0.39009269129E+01  0.44597251012E+01 -0.64632344574E+01  0.88249520344E+01  0.10000000000E+01 0. -1.
        -13    1    6    6    0    0 -0.10045910407E+02  0.17165768288E+02 -0.86496136986E+01  0.21688954768E+02  0.10500000000E+00 0. -1.
         13    1    6    6    0    0 -0.14839724281E+02  0.25373436765E+02 -0.12612309510E+02  0.31986092074E+02  0.10500000000E+00 0.  1.
</event>
<event>
11    0  0.3439373E-009  0.9118800E+02  0.7816531E-02  0.1126479E+00
         25   -1    0    0    0    0  0.00000000000E+00  0.00000000000E+00  0.99999998245E-14  0.12500000000E+03  0.12500000000E+03 0.  0.
    3000001    1    3    3    0    0 -0.23103955474E-02 -0.21053550986E+02 -0.10297827678E+02  0.23458415746E+02  0.10000000000E+01 0. -1.
    1000022    2    1    0    0    0  0.66393604721E+01 -0.58942247323E+02 -0.16969981508E+02  0.62499999191E+02  0.99999999765E+01 0.  0.
    3000022    2    3    3    0    0  0.66416708676E+01 -0.37888696337E+02 -0.66721538307E+01  0.39041583445E+02  0.24999817578E+00 0.  0.
    1000022    2    1    0    0    0 -0.66393604721E+01  0.58942247323E+02  0.16969981508E+02  0.62500000809E+02  0.10000010090E+02 0.  0.
    3000022    2    5    5    0    0 -0.42247229433E+01  0.14649055811E+02  0.77918999867E+00  0.15268030509E+02  0.24999695046E+00 0.  0.
        -13    1    4    4    0    0  0.25153925314E+01 -0.14558225208E+02 -0.25122676228E+01  0.14986381631E+02  0.10500000000E+00 0.  1.
         13    1    4    4    0    0  0.41262783362E+01 -0.23330471129E+02 -0.41598862080E+01  0.24055201813E+02  0.10500000000E+00 0. -1.
    3000001    1    5    5    0    0 -0.24146375288E+01  0.44293191512E+02  0.16190791510E+02  0.47231970300E+02  0.10000000000E+01 0.  1.
        -13    1    6    6    0    0 -0.20021977261E+01  0.69895141689E+01  0.43798331680E+00  0.72845698869E+01  0.10500000000E+00 0.  1.
         13    1    6    6    0    0 -0.22225252172E+01  0.76595416422E+01  0.34120668187E+00  0.79834606224E+01  0.10500000000E+00 0. -1.
</event>
<event>
11    0  0.3439373E-009  0.9118800E+02  0.7816531E-02  0.1126479E+00
         25   -1    0    0    0    0  0.00000000000E+00  0.00000000000E+00  0.99999998245E-14  0.12500000000E+03  0.12500000000E+03 0.  0.
    3000001    1    3    3    0    0 -0.30540855591E+01  0.13561023792E+01  0.52598302771E+02  0.52713830316E+02  0.10000000000E+01 0.  1.
    1000022    2    1    0    0    0 -0.77225842776E+01  0.18384406748E+01  0.61181956772E+02  0.62499999922E+02  0.99999991849E+01 0.  0.
    3000022    2    3    3    0    0 -0.46684987185E+01  0.48233829559E+00  0.85836540016E+01  0.97861696055E+01  0.24993801514E+00 0.  0.
    1000022    2    1    0    0    0  0.77225842776E+01 -0.18384406748E+01 -0.61181956772E+02  0.62500000078E+02  0.10000000164E+02 0.  0.
    3000022    2    5    5    0    0  0.38380298240E+01  0.40793449740E+01 -0.25546975954E+02  0.26154961790E+02  0.25003495657E+00 0.  0.
        -13    1    4    4    0    0 -0.19769000474E+01  0.19058316708E+00  0.37664282398E+01  0.42592795667E+01  0.10500000000E+00 0.  1.
         13    1    4    4    0    0 -0.26915986710E+01  0.29175512851E+00  0.48172257618E+01  0.55268900388E+01  0.10500000000E+00 0. -1.
    3000001    1    5    5    0    0  0.38845544536E+01 -0.59177856489E+01 -0.35634980818E+02  0.36345038288E+02  0.10000000000E+01 0.  1.
        -13    1    6    6    0    0  0.23721724289E+01  0.26067021542E+01 -0.16122172782E+02  0.16503259628E+02  0.10500000000E+00 0. -1.
         13    1    6    6    0    0  0.14658573951E+01  0.14726428199E+01 -0.94248031727E+01  0.96517021619E+01  0.10500000000E+00 0.  1.
</event>
<event>
11    0  0.3439373E-009  0.9118800E+02  0.7816531E-02  0.1126479E+00
         25   -1    0    0    0    0  0.00000000000E+00  0.00000000000E+00  0.99999998245E-14  0.12500000000E+03  0.12500000000E+03 0.  0.
    3000001    1    3    3    0    0  0.41380974917E+02 -0.43156821020E+02 -0.22612919337E+00  0.59799225915E+02  0.10000000000E+01 0. -1.
    1000022    2    1    0    0    0  0.43953648432E+02 -0.43290061778E+02  0.54541543082E+00  0.62500000967E+02  0.99999991843E+01 0.  0.
    3000022    2    3    3    0    0  0.25726735152E+01 -0.13324075766E+00  0.77154462419E+00  0.27007750520E+01  0.25000531847E+00 0.  0.
    1000022    2    1    0    0    0 -0.43953648432E+02  0.43290061778E+02 -0.54541543082E+00  0.62499999033E+02  0.99999870934E+01 0.  0.
    3000022    2    5    5    0    0 -0.21375460432E+02  0.14281752028E+02  0.46709506397E+00  0.25713020556E+02  0.24999734054E+00 0.  0.
        -13    1    4    4    0    0  0.18736490940E+01 -0.59863813349E-01  0.56393798419E+00  0.19604070122E+01  0.10500000000E+00 0. -1.
         13    1    4    4    0    0  0.69902442125E+00 -0.73376944312E-01  0.20760664000E+00  0.74036803985E+00  0.10500000000E+00 0.  1.
    3000001    1    5    5    0    0 -0.22578188000E+02  0.29008309750E+02 -0.10125104948E+01  0.36786978476E+02  0.10000000000E+01 0.  1.
        -13    1    6    6    0    0 -0.90301251439E+01  0.59871072970E+01  0.14456032542E+00  0.10836075701E+02  0.10500000000E+00 0. -1.
         13    1    6    6    0    0 -0.12345335288E+02  0.82946447311E+01  0.32253473856E+00  0.14876944856E+02  0.10500000000E+00 0.  1.
</event>
<event>
11    0  0.3439373E-009  0.9118800E+02  0.7816531E-02  0.1126479E+00
         25   -1    0    0    0    0  0.00000000000E+00  0.00000000000E+00  0.99999998245E-14  0.12500000000E+03  0.12500000000E+03 0.  0.
    3000001    1    3    3    0    0  0.10201087512E+02 -0.32672926893E+02  0.28883747342E-01  0.34243001803E+02  0.10000000000E+01 0.  1.
    1000022    2    1    0    0    0  0.21676095154E+02 -0.57183848332E+02  0.81488809850E+01  0.62499999772E+02  0.10000004950E+02 0.  0.
    3000022    2    3    3    0    0  0.11475007642E+02 -0.24510921439E+02  0.81199972377E+01  0.28256997970E+02  0.25001784858E+00 0.  0.
    1000022    2    1    0    0    0 -0.21676095154E+02  0.57183848332E+02 -0.81488809850E+01  0.62500000228E+02  0.10000007798E+02 0.  0.
    3000022    2    5    5    0    0 -0.13475376747E+02  0.37162160980E+02 -0.51228798049E+00  0.39533997103E+02  0.25000154892E+00 0.  0.
        -13    1    4    4    0    0  0.46409281719E+01 -0.10015386486E+02  0.33607649930E+01  0.11539148456E+02  0.10500000000E+00 0.  1.
         13    1    4    4    0    0  0.68340794705E+01 -0.14495534953E+02  0.47592322447E+01  0.16717849513E+02  0.10500000000E+00 0. -1.
    3000001    1    5    5    0    0 -0.82007184068E+01  0.20021687352E+02 -0.76365930045E+01  0.22966003125E+02  0.10000000000E+01 0.  1.
        -13    1    6    6    0    0 -0.43793886963E+01  0.11961659939E+02 -0.19777485308E+00  0.12740113569E+02  0.10500000000E+00 0.  1.
         13    1    6    6    0    0 -0.90959880509E+01  0.25200501041E+02 -0.31451312741E+00  0.26793883534E+02  0.10500000000E+00 0. -1.
</event>
<event>
11    0  0.3439373E-009  0.9118800E+02  0.7816531E-02  0.1126479E+00
         25   -1    0    0    0    0  0.00000000000E+00  0.00000000000E+00  0.99999998245E-14  0.12500000000E+03  0.12500000000E+03 0.  0.
    3000001    1    3    3    0    0  0.46234759600E+02 -0.24071872029E+02  0.25632401002E+02  0.58095851826E+02  0.10000000000E+01 0.  1.
    1000022    2    1    0    0    0  0.47522386507E+02 -0.26579219294E+02  0.29007198828E+02  0.62500001707E+02  0.10000025598E+02 0.  0.
    3000022    2    3    3    0    0  0.12876269064E+01 -0.25073472648E+01  0.33747978261E+01  0.44041498808E+01  0.25000489724E+00 0.  0.
    1000022    2    1    0    0    0 -0.47522386507E+02  0.26579219294E+02 -0.29007198828E+02  0.62499998293E+02  0.10000004262E+02 0.  0.
    3000022    2    5    5    0    0 -0.34093016158E+02  0.14804649228E+02 -0.16465799267E+02  0.40653369465E+02  0.25002771788E+00 0.  0.
        -13    1    4    4    0    0  0.77325211203E+00 -0.16250739921E+01  0.21829109644E+01  0.28310615654E+01  0.10500000000E+00 0.  1.
         13    1    4    4    0    0  0.51437479435E+00 -0.88227327274E+00  0.11918868617E+01  0.15730883154E+01  0.10500000000E+00 0. -1.
    3000001    1    5    5    0    0 -0.13429370348E+02  0.11774570066E+02 -0.12541399561E+02  0.21846628828E+02  0.10000000000E+01 0.  1.
        -13    1    6    6    0    0 -0.84033112312E+01  0.36458074886E+01 -0.40318910080E+01  0.10008732287E+02  0.10500000000E+00 0. -1.
         13    1    6    6    0    0 -0.25689704927E+02  0.11158841739E+02 -0.12433908259E+02  0.30644637178E+02  0.10500000000E+00 0.  1.
</event>
<event>
11    0  0.3439373E-009  0.9118800E+02  0.7816531E-02  0.1126479E+00
         25   -1    0    0    0    0  0.00000000000E+00  0.00000000000E+00  0.99999998245E-14  0.12500000000E+03  0.12500000000E+03 0.  0.
    3000001    1    3    3    0    0  0.12479448109E+01 -0.40395333157E+00 -0.19235661264E+01  0.25339003903E+01  0.10000000000E+01 0.  1.
    1000022    2    1    0    0    0  0.21275336903E+02  0.31133950463E+02 -0.48829161690E+02  0.62500000900E+02  0.10000012470E+02 0.  0.
    3000022    2    3    3    0    0  0.20027392092E+02  0.31537903794E+02 -0.46905595564E+02  0.59966100510E+02  0.25001082472E+00 0.  0.
    1000022    2    1    0    0    0 -0.21275336903E+02 -0.31133950463E+02  0.48829161690E+02  0.62499999100E+02  0.10000001218E+02 0.  0.
    3000022    2    5    5    0    0 -0.68314730328E+01 -0.14053619379E+02  0.27190152501E+02  0.31361443704E+02  0.25003347976E+00 0.  0.
        -13    1    4    4    0    0  0.10008270736E+02  0.15710308671E+02 -0.23486973231E+02  0.29977128252E+02  0.10500000000E+00 0. -1.
         13    1    4    4    0    0  0.10019121356E+02  0.15827595123E+02 -0.23418622333E+02  0.29988972258E+02  0.10500000000E+00 0.  1.
    3000001    1    5    5    0    0 -0.14443863870E+02 -0.17080331084E+02  0.21639009190E+02  0.31138555396E+02  0.10000000000E+01 0.  1.
        -13    1    6    6    0    0 -0.46350736308E+01 -0.96473835269E+01  0.18638199266E+02  0.21493008476E+02  0.10500000000E+00 0. -1.
         13    1    6    6    0    0 -0.21963994020E+01 -0.44062358521E+01  0.85519532348E+01  0.98684352279E+01  0.10500000000E+00 0.  1.
</event>
<event>
11    0  0.3439373E-009  0.9118800E+02  0.7816531E-02  0.1126479E+00
         25   -1    0    0    0    0  0.00000000000E+00  0.00000000000E+00  0.99999998245E-14  0.12500000000E+03  0.12500000000E+03 0.  0.
    3000001    1    3    3    0    0 -0.32364417037E+02  0.29142642098E+02 -0.11005527906E+02  0.44931845312E+02  0.10000000000E+01 0.  1.
    1000022    2    1    0    0    0 -0.48414974977E+02  0.35430238064E+02 -0.14385355667E+02  0.62499998905E+02  0.99999917071E+01 0.  0.
    3000022    2    3    3    0    0 -0.16050557940E+02  0.62875959658E+01 -0.33798277608E+01  0.17568153593E+02  0.25002353571E+00 0.  0.
    1000022    2    1    0    0    0  0.48414974977E+02 -0.35430238064E+02  0.14385355667E+02  0.62500001095E+02  0.10000005393E+02 0.  0.
    3000022    2    5    5    0    0  0.50132576335E+01 -0.55883466874E+01 -0.10972427283E+01  0.75913642297E+01  0.24999692898E+00 0.  0.
        -13    1    4    4    0    0 -0.39694458610E+01  0.15818703576E+01 -0.83979278396E+00  0.43560407702E+01  0.10500000000E+00 0.  1.
         13    1    4    4    0    0 -0.12081112079E+02  0.47057256083E+01 -0.25400349768E+01  0.13212112823E+02  0.10500000000E+00 0. -1.
    3000001    1    5    5    0    0  0.43401717344E+02 -0.29841891377E+02  0.15482598395E+02  0.54908636865E+02  0.10000000000E+01 0. -1.
        -13    1    6    6    0    0  0.27950313734E+01 -0.30989423890E+01 -0.54373996767E+00  0.42097888856E+01  0.10500000000E+00 0.  1.
         13    1    6    6    0    0  0.22182262602E+01 -0.24894042983E+01 -0.55350276068E+00  0.33815753441E+01  0.10500000000E+00 0. -1.
</event>
<event>
11    0  0.3439373E-009  0.9118800E+02  0.7816531E-02  0.1126479E+00
         25   -1    0    0    0    0  0.00000000000E+00  0.00000000000E+00  0.99999998245E-14  0.12500000000E+03  0.12500000000E+03 0.  0.
    3000001    1    3    3    0    0  0.73361874579E+01 -0.34835235268E+02  0.69939725795E+01  0.36293648412E+02  0.10000000000E+01 0.  1.
    1000022    2    1    0    0    0  0.10047124048E+02 -0.60735099149E+02  0.40685304490E+01  0.62499999594E+02  0.10000001951E+02 0.  0.
    3000022    2    3    3    0    0  0.27109365899E+01 -0.25899863881E+02 -0.29254421305E+01  0.26206351182E+02  0.25000880004E+00 0.  0.
    1000022    2    1    0    0    0 -0.10047124048E+02  0.60735099149E+02 -0.40685304490E+01  0.62500000406E+02  0.10000007021E+02 0.  0.
    3000022    2    5    5    0    0 -0.18010775341E+00  0.20494108735E+01  0.17310776244E+01  0.27003058183E+01  0.24999607905E+00 0.  0.
        -13    1    4    4    0    0  0.19617528624E+01 -0.18581237906E+02 -0.20617671188E+01  0.18798212284E+02  0.10500000000E+00 0. -1.
         13    1    4    4    0    0  0.74918372758E+00 -0.73186259745E+01 -0.86367501170E+00  0.74081388984E+01  0.10500000000E+00 0.  1.
    3000001    1    5    5    0    0 -0.98670162944E+01  0.58685688276E+02 -0.57996080734E+01  0.59799694587E+02  0.10000000000E+01 0. -1.
        -13    1    6    6    0    0 -0.81959918555E-01  0.13217952677E+01  0.11710469022E+01  0.17709421236E+01  0.10500000000E+00 0. -1.
         13    1    6    6    0    0 -0.98147834856E-01  0.72761560581E+00  0.56003072228E+00  0.92936369479E+00  0.10500000000E+00 0.  1.
</event>
<event>
11    0  0.3439373E-009  0.9118800E+02  0.7816531E-02  0.1126479E+00
         25   -1    0    0    0    0  0.00000000000E+00  0.00000000000E+00  0.99999998245E-14  0.12500000000E+03  0.12500000000E+03 0.  0.
    3000001    1    3    3    0    0  0.14507046477E+02  0.27843761392E+02 -0.17889635473E+02  0.36149253150E+02  0.10000000000E+01 0.  1.
    1000022    2    1    0    0    0  0.17288769237E+02  0.48343242990E+02 -0.34209340105E+02  0.62500002467E+02  0.10000033671E+02 0.  0.
    3000022    2    3    3    0    0  0.27817227601E+01  0.20499481598E+02 -0.16319704632E+02  0.26350749317E+02  0.25000597341E+00 0.  0.
    1000022    2    1    0    0    0 -0.17288769237E+02 -0.48343242990E+02  0.34209340105E+02  0.62499997533E+02  0.10000002832E+02 0.  0.
    3000022    2    5    5    0    0 -0.12592180159E+01 -0.13441514756E+02  0.12339997796E+02  0.18292019982E+02  0.25000095777E+00 0.  0.
        -13    1    4    4    0    0  0.16736938200E+01  0.12690881344E+02 -0.10145773591E+02  0.16334242163E+02  0.10500000000E+00 0.  1.
         13    1    4    4    0    0  0.11080289401E+01  0.78086002545E+01 -0.61739310413E+01  0.10016507154E+02  0.10500000000E+00 0. -1.
    3000001    1    5    5    0    0 -0.16029551222E+02 -0.34901728234E+02  0.21869342309E+02  0.44207977550E+02  0.10000000000E+01 0. -1.
        -13    1    6    6    0    0 -0.50685918932E+00 -0.61015263175E+01  0.55723310706E+01  0.82793374252E+01  0.10500000000E+00 0. -1.
         13    1    6    6    0    0 -0.75235882655E+00 -0.73399884390E+01  0.67676667251E+01  0.10012682557E+02  0.10500000000E+00 0.  1.
</event>
<event>
11    0  0.3439373E-009  0.9118800E+02  0.7816531E-02  0.1126479E+00
         25   -1    0    0    0    0  0.00000000000E+00  0.00000000000E+00  0.99999998245E-14  0.12500000000E+03  0.12500000000E+03 0.  0.
    3000001    1    3    3    0    0 -0.28695623203E+02  0.25519096547E+02  0.31776361889E+02  0.49853788768E+02  0.10000000000E+01 0.  1.
    1000022    2    1    0    0    0 -0.33444919606E+02  0.35681679731E+02  0.37609907109E+02  0.62499999336E+02  0.99999944207E+01 0.  0.
    3000022    2    3    3    0    0 -0.47492964027E+01  0.10162583184E+02  0.58335452198E+01  0.12646210568E+02  0.24995723672E+00 0.  0.
    1000022    2    1    0    0    0  0.33444919606E+02 -0.35681679731E+02 -0.37609907109E+02  0.62500000664E+02  0.10000002718E+02 0.  0.
    3000022    2    5    5    0    0  0.30939750347E+02 -0.35191772013E+02 -0.33675675011E+02  0.57704787969E+02  0.24999633324E+00 0.  0.
        -13    1    4    4    0    0 -0.22510545744E+01  0.47883675913E+01  0.26768811074E+01  0.59306347341E+01  0.10500000000E+00 0.  1.
         13    1    4    4    0    0 -0.24982418283E+01  0.53742155923E+01  0.31566641124E+01  0.67155758341E+01  0.10500000000E+00 0. -1.
    3000001    1    5    5    0    0  0.25051692585E+01 -0.48990771802E+00 -0.39342320977E+01  0.47952126944E+01  0.10000000000E+01 0. -1.
        -13    1    6    6    0    0  0.15977469926E+02 -0.18078303708E+02 -0.17307512643E+02  0.29692854849E+02  0.10500000000E+00 0.  1.
         13    1    6    6    0    0  0.14962280421E+02 -0.17113468305E+02 -0.16368162368E+02  0.28011933121E+02  0.10500000000E+00 0. -1.
</event>
<event>
11    0  0.3439373E-009  0.9118800E+02  0.7816531E-02  0.1126479E+00
         25   -1    0    0    0    0  0.00000000000E+00  0.00000000000E+00  0.99999998245E-14  0.12500000000E+03  0.12500000000E+03 0.  0.
    3000001    1    3    3    0    0  0.68539054513E+01  0.44186032609E+00  0.10717668719E+02  0.12768699356E+02  0.10000000000E+01 0. -1.
    1000022    2    1    0    0    0  0.41867579053E+02  0.16228068638E+02  0.42308458851E+02  0.62499999516E+02  0.99999930783E+01 0.  0.
    3000022    2    3    3    0    0  0.35013673602E+02  0.15786208312E+02  0.31590790133E+02  0.49731300160E+02  0.24996473726E+00 0.  0.
    1000022    2    1    0    0    0 -0.41867579053E+02 -0.16228068638E+02 -0.42308458851E+02  0.62500000484E+02  0.99999991327E+01 0.  0.
    3000022    2    5    5    0    0 -0.23151203964E+02 -0.13350859903E+02 -0.21107761447E+02  0.34056185744E+02  0.24997791237E+00 0.  0.
        -13    1    4    4    0    0  0.13275106437E+02  0.59187852652E+01  0.11951592687E+02  0.18817865519E+02  0.10500000000E+00 0. -1.
         13    1    4    4    0    0  0.21738567165E+02  0.98674230472E+01  0.19639197445E+02  0.30913434640E+02  0.10500000000E+00 0.  1.
    3000001    1    5    5    0    0 -0.18716375089E+02 -0.28772087356E+01 -0.21200697404E+02  0.28443814740E+02  0.10000000000E+01 0.  1.
        -13    1    6    6    0    0 -0.15201347879E+02 -0.87022137964E+01 -0.13836304003E+02  0.22321824203E+02  0.10500000000E+00 0. -1.
         13    1    6    6    0    0 -0.79498560850E+01 -0.46486461064E+01 -0.72714574447E+01  0.11734361541E+02  0.10500000000E+00 0.  1.
</event>
<event>
11    0  0.3439373E-009  0.9118800E+02  0.7816531E-02  0.1126479E+00
         25   -1    0    0    0    0  0.00000000000E+00  0.00000000000E+00  0.99999998245E-14  0.12500000000E+03  0.12500000000E+03 0.  0.
    3000001    1    3    3    0    0  0.30509758440E+02  0.80084208631E+01 -0.17382920999E+02  0.36029794715E+02  0.10000000000E+01 0.  1.
    1000022    2    1    0    0    0  0.55423265508E+02  0.67846033106E+01 -0.26238920458E+02  0.62500000434E+02  0.99999952952E+01 0.  0.
    3000022    2    3    3    0    0  0.24913507068E+02 -0.12238175525E+01 -0.88559994588E+01  0.26470205719E+02  0.25000114923E+00 0.  0.
    1000022    2    1    0    0    0 -0.55423265508E+02 -0.67846033106E+01  0.26238920458E+02  0.62499999566E+02  0.99999898665E+01 0.  0.
    3000022    2    5    5    0    0 -0.18686752882E+02  0.18367653906E+01  0.62824304183E+01  0.19801511854E+02  0.24999875131E+00 0.  0.
        -13    1    4    4    0    0  0.19175894384E+02 -0.93454816161E+00 -0.68160604876E+01  0.20372972569E+02  0.10500000000E+00 0.  1.
         13    1    4    4    0    0  0.57376126835E+01 -0.28926939089E+00 -0.20399389712E+01  0.60972331506E+01  0.10500000000E+00 0. -1.
    3000001    1    5    5    0    0 -0.36736512626E+02 -0.86213687012E+01  0.19956490039E+02  0.42698487712E+02  0.10000000000E+01 0. -1.
        -13    1    6    6    0    0 -0.47176987971E+01  0.48089329722E+00  0.16100486040E+01  0.50091138748E+01  0.10500000000E+00 0. -1.
         13    1    6    6    0    0 -0.13969054084E+02  0.13558720934E+01  0.46723818143E+01  0.14792397979E+02  0.10500000000E+00 0.  1.
</event>
<event>
11    0  0.3439373E-009  0.9118800E+02  0.7816531E-02  0.1126479E+00
         25   -1    0    0    0    0  0.00000000000E+00  0.00000000000E+00  0.99999998245E-14  0.12500000000E+03  0.12500000000E+03 0.  0.
    3000001    1    3    3    0    0 -0.85975578897E+01  0.59885368200E+01 -0.41897431397E+02  0.43199251528E+02  0.10000000000E+01 0.  1.
    1000022    2    1    0    0    0 -0.13261587936E+02  0.14854427243E+02 -0.58392861224E+02  0.62500000152E+02  0.10000002688E+02 0.  0.
    3000022    2    3    3    0    0 -0.46640300460E+01  0.88658904232E+01 -0.16495429827E+02  0.19300748624E+02  0.25000599371E+00 0.  0.
    1000022    2    1    0    0    0  0.13261587936E+02 -0.14854427243E+02  0.58392861224E+02  0.62499999848E+02  0.10000000787E+02 0.  0.
    3000022    2    5    5    0    0  0.11201602193E+02 -0.54193277671E+01  0.36076941720E+02  0.38163506537E+02  0.25000430015E+00 0.  0.
        -13    1    4    4    0    0 -0.35001812703E+01  0.66068670675E+01 -0.12273260971E+02  0.14371705579E+02  0.10500000000E+00 0. -1.
         13    1    4    4    0    0 -0.11638487756E+01  0.22590233557E+01 -0.42221688557E+01  0.49290430451E+01  0.10500000000E+00 0.  1.
    3000001    1    5    5    0    0  0.20599857428E+01 -0.94350994761E+01  0.22315919504E+02  0.24336493311E+02  0.10000000000E+01 0.  1.
        -13    1    6    6    0    0  0.47673296261E+01 -0.23095010243E+01  0.15159221371E+02  0.16058463323E+02  0.10500000000E+00 0. -1.
         13    1    6    6    0    0  0.64342725668E+01 -0.31098267428E+01  0.20917720350E+02  0.22105043213E+02  0.10500000000E+00 0.  1.
</event>
<event>
11    0  0.3439373E-009  0.9118800E+02  0.7816531E-02  0.1126479E+00
         25   -1    0    0    0    0  0.00000000000E+00  0.00000000000E+00  0.99999998245E-14  0.12500000000E+03  0.12500000000E+03 0.  0.
    3000001    1    3    3    0    0 -0.61516068212E+01  0.36555356041E+01 -0.15497247002E+01  0.73896450308E+01  0.10000000000E+01 0.  1.
    1000022    2    1    0    0    0 -0.46729192285E+02  0.38675287740E+02  0.11262959296E+02  0.62499996642E+02  0.10000001738E+02 0.  0.
    3000022    2    3    3    0    0 -0.40577585464E+02  0.35019752136E+02  0.12812683996E+02  0.55110351611E+02  0.25000357200E+00 0.  0.
    1000022    2    1    0    0    0  0.46729192285E+02 -0.38675287740E+02 -0.11262959296E+02  0.62500003358E+02  0.10000043711E+02 0.  0.
    3000022    2    5    5    0    0  0.91152888720E+01 -0.45241588774E+01 -0.48722534356E+01  0.11285294006E+02  0.25000500220E+00 0.  0.
        -13    1    4    4    0    0 -0.19672658353E+02  0.17024043545E+02  0.61592002287E+01  0.26735338370E+02  0.10500000000E+00 0.  1.
         13    1    4    4    0    0 -0.20904927112E+02  0.17995708591E+02  0.66534837676E+01  0.28375013242E+02  0.10500000000E+00 0. -1.
    3000001    1    5    5    0    0  0.37613903413E+02 -0.34151128862E+02 -0.63907058605E+01  0.51214709351E+02  0.10000000000E+01 0. -1.
        -13    1    6    6    0    0  0.59100513745E+01 -0.29253168457E+01 -0.30943447015E+01  0.72850655473E+01  0.10500000000E+00 0.  1.
         13    1    6    6    0    0  0.32052374975E+01 -0.15988420318E+01 -0.17779087341E+01  0.40002284591E+01  0.10500000000E+00 0. -1.
</event>
<event>
11    0  0.3439373E-009  0.9118800E+02  0.7816531E-02  0.1126479E+00
         25   -1    0    0    0    0  0.00000000000E+00  0.00000000000E+00  0.99999998245E-14  0.12500000000E+03  0.12500000000E+03 0.  0.
    3000001    1    3    3    0    0 -0.43680274077E+02  0.65733604848E+01 -0.24937187463E+02  0.50734985267E+02  0.10000000000E+01 0.  1.
    1000022    2    1    0    0    0 -0.51504161269E+02  0.12163264692E+02 -0.31711612620E+02  0.62500000157E+02  0.10000000433E+02 0.  0.
    3000022    2    3    3    0    0 -0.78238871928E+01  0.55899042077E+01 -0.67744251570E+01  0.11765014890E+02  0.24999861096E+00 0.  0.
    1000022    2    1    0    0    0  0.51504161269E+02 -0.12163264692E+02  0.31711612620E+02  0.62499999843E+02  0.99999984649E+01 0.  0.
    3000022    2    5    5    0    0  0.18147724390E+02 -0.90009714954E+01  0.13583348213E+02  0.24391130140E+02  0.24998490047E+00 0.  0.
        -13    1    4    4    0    0 -0.40423246335E+01  0.28932100467E+01 -0.34194821869E+01  0.60344789538E+01  0.10500000000E+00 0.  1.
         13    1    4    4    0    0 -0.37815625593E+01  0.26966941610E+01 -0.33549429701E+01  0.57305359365E+01  0.10500000000E+00 0. -1.
    3000001    1    5    5    0    0  0.33356436880E+02 -0.31622931971E+01  0.18128264407E+02  0.38108869702E+02  0.10000000000E+01 0.  1.
        -13    1    6    6    0    0  0.71772765026E+01 -0.35097966190E+01  0.53050266994E+01  0.95909490449E+01  0.10500000000E+00 0. -1.
         13    1    6    6    0    0  0.10970447887E+02 -0.54911748764E+01  0.82783215141E+01  0.14800181095E+02  0.10500000000E+00 0.  1.
</event>
<event>
11    0  0.3439373E-009  0.9118800E+02  0.7816531E-02  0.1126479E+00
         25   -1    0    0    0    0  0.00000000000E+00  0.00000000000E+00  0.99999998245E-14  0.12500000000E+03  0.12500000000E+03 0.  0.
    3000001    1    3    3    0    0 -0.22458295821E+02 -0.99717299065E+01  0.42165747267E+02  0.48813529795E+02  0.10000000000E+01 0. -1.
    1000022    2    1    0    0    0 -0.23713961117E+02 -0.13073650958E+02  0.55434445188E+02  0.62499999548E+02  0.99999964514E+01 0.  0.
    3000022    2    3    3    0    0 -0.12556652957E+01 -0.31019210514E+01  0.13268697921E+02  0.13686469753E+02  0.25000046103E+00 0.  0.
    1000022    2    1    0    0    0  0.23713961117E+02  0.13073650958E+02 -0.55434445188E+02  0.62500000452E+02  0.10000002097E+02 0.  0.
    3000022    2    5    5    0    0  0.33451880154E+01  0.44895434789E+01 -0.19594577857E+02  0.20380291180E+02  0.25000731566E+00 0.  0.
        -13    1    4    4    0    0 -0.73313019419E+00 -0.18350445551E+01  0.80867193100E+01  0.83253181681E+01  0.10500000000E+00 0. -1.
         13    1    4    4    0    0 -0.52253510147E+00 -0.12668764963E+01  0.51819786111E+01  0.53611515848E+01  0.10500000000E+00 0.  1.
    3000001    1    5    5    0    0  0.20368773102E+02  0.85841074789E+01 -0.35839867330E+02  0.42119709272E+02  0.10000000000E+01 0.  1.
        -13    1    6    6    0    0  0.12812267270E+01  0.17309417553E+01 -0.77633103347E+01  0.80571529488E+01  0.10500000000E+00 0.  1.
         13    1    6    6    0    0  0.20639612884E+01  0.27586017237E+01 -0.11831267523E+02  0.12323138231E+02  0.10500000000E+00 0. -1.
</event>
<event>
11    0  0.3439373E-009  0.9118800E+02  0.7816531E-02  0.1126479E+00
         25   -1    0    0    0    0  0.00000000000E+00  0.00000000000E+00  0.99999998245E-14  0.12500000000E+03  0.12500000000E+03 0.  0.
    3000001    1    3    3    0    0 -0.16070833803E+02 -0.36974476745E+02  0.22909071850E+02  0.46381129813E+02  0.10000000000E+01 0. -1.
    1000022    2    1    0    0    0 -0.20147034177E+02 -0.52298739266E+02  0.25791253904E+02  0.62499997810E+02  0.99999916657E+01 0.  0.
    3000022    2    3    3    0    0 -0.40762003747E+01 -0.15324262522E+02  0.28821820532E+01  0.16118867997E+02  0.25000158688E+00 0.  0.
    1000022    2    1    0    0    0  0.20147034177E+02  0.52298739266E+02 -0.25791253904E+02  0.62500002190E+02  0.10000019043E+02 0.  0.
    3000022    2    5    5    0    0 -0.11499660801E+00  0.94972661385E+01 -0.32280879436E+01  0.10034656946E+02  0.24999985353E+00 0.  0.
        -13    1    4    4    0    0 -0.10574894342E+01 -0.41080182954E+01  0.77925120283E+00  0.43142039423E+01  0.10500000000E+00 0. -1.
         13    1    4    4    0    0 -0.30187109405E+01 -0.11216244226E+02  0.21029308503E+01  0.11804664055E+02  0.10500000000E+00 0.  1.
    3000001    1    5    5    0    0  0.20262030785E+02  0.42801473128E+02 -0.22563165960E+02  0.52465345244E+02  0.10000000000E+01 0. -1.
        -13    1    6    6    0    0 -0.11395646719E+00  0.44705521509E+01 -0.15526990406E+01  0.47350524729E+01  0.10500000000E+00 0.  1.
         13    1    6    6    0    0 -0.10401408251E-02  0.50267139876E+01 -0.16753889029E+01  0.52996044730E+01  0.10500000000E+00 0. -1.
</event>
<event>
11    0  0.3439373E-009  0.9118800E+02  0.7816531E-02  0.1126479E+00
         25   -1    0    0    0    0  0.00000000000E+00  0.00000000000E+00  0.99999998245E-14  0.12500000000E+03  0.12500000000E+03 0.  0.
    3000001    1    3    3    0    0  0.56845570771E+01 -0.10606938711E+01  0.79939926236E+01  0.99168129314E+01  0.10000000000E+01 0.  1.
    1000022    2    1    0    0    0  0.35813141448E+02 -0.27377535263E+02  0.42120538370E+02  0.62499998084E+02  0.99999735200E+01 0.  0.
    3000022    2    3    3    0    0  0.30128584371E+02 -0.26316841392E+02  0.34126545747E+02  0.52583185152E+02  0.24999821280E+00 0.  0.
    1000022    2    1    0    0    0 -0.35813141448E+02  0.27377535263E+02 -0.42120538370E+02  0.62500001916E+02  0.99999974741E+01 0.  0.
    3000022    2    5    5    0    0 -0.12543921000E+02  0.13913781030E+02 -0.22057589689E+02  0.28940335528E+02  0.25000194861E+00 0.  0.
        -13    1    4    4    0    0  0.15295193555E+02 -0.13288639024E+02  0.17338887254E+02  0.26667937851E+02  0.10500000000E+00 0.  1.
         13    1    4    4    0    0  0.14833390816E+02 -0.13028202368E+02  0.16787658493E+02  0.25915247302E+02  0.10500000000E+00 0. -1.
    3000001    1    5    5    0    0 -0.23269220448E+02  0.13463754233E+02 -0.20062948681E+02  0.33559666388E+02  0.10000000000E+01 0. -1.
        -13    1    6    6    0    0 -0.78330741427E+01  0.87745978709E+01 -0.13873314996E+02  0.18188746859E+02  0.10500000000E+00 0. -1.
         13    1    6    6    0    0 -0.47108468571E+01  0.51391831590E+01 -0.81842746930E+01  0.10751588669E+02  0.10500000000E+00 0.  1.
</event>
<event>
11    0  0.3439373E-009  0.9118800E+02  0.7816531E-02  0.1126479E+00
         25   -1    0    0    0    0  0.00000000000E+00  0.00000000000E+00  0.99999998245E-14  0.12500000000E+03  0.12500000000E+03 0.  0.
    3000001    1    3    3    0    0  0.16997229421E+02  0.31415222443E+02  0.38310928861E+02  0.52388446048E+02  0.10000000000E+01 0. -1.
    1000022    2    1    0    0    0  0.16200861987E+02  0.38884722552E+02  0.45075054529E+02  0.62500000320E+02  0.99999961026E+01 0.  0.
    3000022    2    3    3    0    0 -0.79636743356E+00  0.74695001095E+01  0.67641256677E+01  0.10111554271E+02  0.25000152457E+00 0.  0.
    1000022    2    1    0    0    0 -0.16200861987E+02 -0.38884722552E+02 -0.45075054529E+02  0.62499999680E+02  0.99999921071E+01 0.  0.
    3000022    2    5    5    0    0 -0.95697060031E+01 -0.30352642847E+02 -0.28702205890E+02  0.42857220184E+02  0.24999634629E+00 0.  0.
        -13    1    4    4    0    0 -0.34670033906E+00  0.31890571573E+01  0.28016555770E+01  0.42603504140E+01  0.10500000000E+00 0. -1.
         13    1    4    4    0    0 -0.44966709450E+00  0.42804429522E+01  0.39624700907E+01  0.58512038575E+01  0.10500000000E+00 0.  1.
    3000001    1    5    5    0    0 -0.66311559839E+01 -0.85320797058E+01 -0.16372848639E+02  0.19642779497E+02  0.10000000000E+01 0.  1.
        -13    1    6    6    0    0 -0.66718356816E+01 -0.21307563574E+02 -0.20151296954E+02  0.30076759313E+02  0.10500000000E+00 0. -1.
         13    1    6    6    0    0 -0.28978703215E+01 -0.90450792730E+01 -0.85509089354E+01  0.12780460871E+02  0.10500000000E+00 0.  1.
</event>
<event>
11    0  0.3439373E-009  0.9118800E+02  0.7816531E-02  0.1126479E+00
         25   -1    0    0    0    0  0.00000000000E+00  0.00000000000E+00  0.99999998245E-14  0.12500000000E+03  0.12500000000E+03 0.  0.
    3000001    1    3    3    0    0 -0.41996848533E+02  0.17707998946E+02 -0.16925080273E+02  0.48628868541E+02  0.10000000000E+01 0.  1.
    1000022    2    1    0    0    0 -0.54454028661E+02  0.17636473139E+02 -0.23020929886E+02  0.62500001728E+02  0.10000029047E+02 0.  0.
    3000022    2    3    3    0    0 -0.12457180128E+02 -0.71525806373E-01 -0.60958496128E+01  0.13871133187E+02  0.25000136999E+00 0.  0.
    1000022    2    1    0    0    0  0.54454028661E+02 -0.17636473139E+02  0.23020929886E+02  0.62499998272E+02  0.10000007449E+02 0.  0.
    3000022    2    5    5    0    0  0.84431099432E+01 -0.62676194832E+01  0.61381245722E+01  0.12178187991E+02  0.25005994393E+00 0.  0.
        -13    1    4    4    0    0 -0.68779313099E+01  0.90216363310E-02 -0.33146743608E+01  0.76357129079E+01  0.10500000000E+00 0. -1.
         13    1    4    4    0    0 -0.55792488186E+01 -0.80547442704E-01 -0.27811752520E+01  0.62354202787E+01  0.10500000000E+00 0.  1.
    3000001    1    5    5    0    0  0.46010918718E+02 -0.11368853656E+02  0.16882805313E+02  0.50321810281E+02  0.10000000000E+01 0.  1.
        -13    1    6    6    0    0  0.34313749137E+01 -0.24824600657E+01  0.25143347242E+01  0.49264435328E+01  0.10500000000E+00 0.  1.
         13    1    6    6    0    0  0.50117350294E+01 -0.37851594175E+01  0.36237898480E+01  0.72517444580E+01  0.10500000000E+00 0. -1.
</event>
<event>
11    0  0.3439373E-009  0.9118800E+02  0.7816531E-02  0.1126479E+00
         25   -1    0    0    0    0  0.00000000000E+00  0.00000000000E+00  0.99999998245E-14  0.12500000000E+03  0.12500000000E+03 0.  0.
    3000001    1    3    3    0    0  0.55448653139E+02  0.17747838251E+01 -0.34866573944E+01  0.55595501368E+02  0.10000000000E+01 0. -1.
    1000022    2    1    0    0    0  0.61252648417E+02  0.15394987104E+01 -0.72106171453E+01  0.62499999671E+02  0.99999982451E+01 0.  0.
    3000022    2    3    3    0    0  0.58039952779E+01 -0.23528511476E+00 -0.37239597509E+01  0.69044983032E+01  0.25000064357E+00 0.  0.
    1000022    2    1    0    0    0 -0.61252648417E+02 -0.15394987104E+01  0.72106171453E+01  0.62500000329E+02  0.10000002353E+02 0.  0.
    3000022    2    5    5    0    0 -0.45879398154E+02  0.27144658308E+01  0.71795674086E+01  0.46517697551E+02  0.24999519129E+00 0.  0.
        -13    1    4    4    0    0  0.28671759132E+01 -0.11193374447E+00 -0.19199293217E+01  0.34540382860E+01  0.10500000000E+00 0. -1.
         13    1    4    4    0    0  0.29368193646E+01 -0.12335137029E+00 -0.18040304292E+01  0.34504600172E+01  0.10500000000E+00 0.  1.
    3000001    1    5    5    0    0 -0.15373250264E+02 -0.42539645412E+01  0.31049736714E-01  0.15982302777E+02  0.10000000000E+01 0.  1.
        -13    1    6    6    0    0 -0.32286673416E+02  0.18851384956E+01  0.50897675798E+01  0.32739880672E+02  0.10500000000E+00 0.  1.
         13    1    6    6    0    0 -0.13592724738E+02  0.82932733521E+00  0.20897998287E+01  0.13777816879E+02  0.10500000000E+00 0. -1.
</event>
<event>
11    0  0.3439373E-009  0.9118800E+02  0.7816531E-02  0.1126479E+00
         25   -1    0    0    0    0  0.00000000000E+00  0.00000000000E+00  0.99999998245E-14  0.12500000000E+03  0.12500000000E+03 0.  0.
    3000001    1    3    3    0    0 -0.54813582965E+01  0.73126388090E+01 -0.66938262016E+01  0.11372215454E+02  0.10000000000E+01 0.  1.
    1000022    2    1    0    0    0 -0.40974631160E+02  0.22969446179E+02 -0.39996675983E+02  0.62499999857E+02  0.10000001798E+02 0.  0.
    3000022    2    3    3    0    0 -0.35493272864E+02  0.15656807370E+02 -0.33302849781E+02  0.51127784402E+02  0.24999751593E+00 0.  0.
    1000022    2    1    0    0    0  0.40974631160E+02 -0.22969446179E+02  0.39996675983E+02  0.62500000143E+02  0.10000003587E+02 0.  0.
    3000022    2    5    5    0    0  0.45147543389E+01 -0.17720779188E+01  0.81345370794E+00  0.49241723435E+01  0.24999888567E+00 0.  0.
        -13    1    4    4    0    0 -0.21337143786E+02  0.94324346155E+01 -0.19947945868E+02  0.30694887149E+02  0.10500000000E+00 0. -1.
         13    1    4    4    0    0 -0.14156129078E+02  0.62243727544E+01 -0.13354903913E+02  0.20432897253E+02  0.10500000000E+00 0.  1.
    3000001    1    5    5    0    0  0.36459876822E+02 -0.21197368260E+02  0.39183222275E+02  0.57575827800E+02  0.10000000000E+01 0.  1.
        -13    1    6    6    0    0  0.22033111639E+01 -0.80793890059E+00  0.43631364672E+00  0.23892969573E+01  0.10500000000E+00 0.  1.
         13    1    6    6    0    0  0.23114431750E+01 -0.96413901816E+00  0.37714006122E+00  0.25348753862E+01  0.10500000000E+00 0. -1.
</event>
<event>
11    0  0.3439373E-009  0.9118800E+02  0.7816531E-02  0.1126479E+00
         25   -1    0    0    0    0  0.00000000000E+00  0.00000000000E+00  0.99999998245E-14  0.12500000000E+03  0.12500000000E+03 0.  0.
    3000001    1    3    3    0    0 -0.15596200688E+02 -0.70561790386E+01 -0.59129400111E+00  0.17157528002E+02  0.10000000000E+01 0. -1.
    1000022    2    1    0    0    0 -0.50501055207E+02 -0.31905581734E+02 -0.15424891265E+02  0.62500000279E+02  0.10000002074E+02 0.  0.
    3000022    2    3    3    0    0 -0.34904854518E+02 -0.24849402696E+02 -0.14833597264E+02  0.45342472277E+02  0.25000217567E+00 0.  0.
    1000022    2    1    0    0    0  0.50501055207E+02  0.31905581734E+02  0.15424891265E+02  0.62499999721E+02  0.99999985919E+01 0.  0.
    3000022    2    5    5    0    0  0.28404934325E+02  0.19774119875E+02  0.13667031493E+02  0.37211642799E+02  0.24999823623E+00 0.  0.
        -13    1    4    4    0    0 -0.10002346439E+02 -0.70718342434E+01 -0.42284348645E+01  0.12959493056E+02  0.10500000000E+00 0.  1.
         13    1    4    4    0    0 -0.24902508079E+02 -0.17777568452E+02 -0.10605162400E+02  0.32382979221E+02  0.10500000000E+00 0. -1.
    3000001    1    5    5    0    0  0.22096120882E+02  0.12131461859E+02  0.17578597723E+01  0.25288356923E+02  0.10000000000E+01 0.  1.
        -13    1    6    6    0    0  0.11259622466E+02  0.78703436511E+01  0.54861240713E+01  0.14792903352E+02  0.10500000000E+00 0. -1.
         13    1    6    6    0    0  0.17145311859E+02  0.11903776224E+02  0.81809074219E+01  0.22418739446E+02  0.10500000000E+00 0.  1.
</event>
<event>
11    0  0.3439373E-009  0.9118800E+02  0.7816531E-02  0.1126479E+00
         25   -1    0    0    0    0  0.00000000000E+00  0.00000000000E+00  0.99999998245E-14  0.12500000000E+03  0.12500000000E+03 0.  0.
    3000001    1    3    3    0    0  0.34292661062E+02 -0.44568652857E-01 -0.25694140371E+02  0.42862307900E+02  0.10000000000E+01 0. -1.
    1000022    2    1    0    0    0  0.46756443439E+02  0.52804689914E+01 -0.39902399525E+02  0.62500001719E+02  0.10000018561E+02 0.  0.
    3000022    2    3    3    0    0  0.12463782377E+02  0.53250376442E+01 -0.14208259154E+02  0.19637693820E+02  0.24998662766E+00 0.  0.
    1000022    2    1    0    0    0 -0.46756443439E+02 -0.52804689914E+01  0.39902399525E+02  0.62499998281E+02  0.99999970707E+01 0.  0.
    3000022    2    5    5    0    0 -0.58552020411E+01 -0.13546780562E+00  0.12771300119E+01  0.59996086357E+01  0.25000049172E+00 0.  0.
        -13    1    4    4    0    0  0.71236213066E+01  0.31090689513E+01 -0.81110756047E+01  0.11234449819E+02  0.10500000000E+00 0. -1.
         13    1    4    4    0    0  0.53401610706E+01  0.22159686929E+01 -0.60971835491E+01  0.84032440009E+01  0.10500000000E+00 0.  1.
    3000001    1    5    5    0    0 -0.40901241398E+02 -0.51450011858E+01  0.38625269513E+02  0.56500389645E+02  0.10000000000E+01 0. -1.
        -13    1    6    6    0    0 -0.40998864289E+01 -0.12691720086E+00  0.86049999557E+00  0.41924529750E+01  0.10500000000E+00 0. -1.
         13    1    6    6    0    0 -0.17553156122E+01 -0.85506047561E-02  0.41663001633E+00  0.18071556606E+01  0.10500000000E+00 0.  1.
</event>
<event>
11    0  0.3439373E-009  0.9118800E+02  0.7816531E-02  0.1126479E+00
         25   -1    0    0    0    0  0.00000000000E+00  0.00000000000E+00  0.99999998245E-14  0.12500000000E+03  0.12500000000E+03 0.  0.
    3000001    1    3    3    0    0  0.41635173699E+02  0.13018690562E+01  0.59100158039E+01  0.42084567704E+02  0.10000000000E+01 0.  1.
    1000022    2    1    0    0    0  0.61228605565E+02  0.65948562094E+01  0.37170367039E+01  0.62500001578E+02  0.99999783765E+01 0.  0.
    3000022    2    3    3    0    0  0.19593431866E+02  0.52929871532E+01 -0.21929791000E+01  0.20415433875E+02  0.24999531977E+00 0.  0.
    1000022    2    1    0    0    0 -0.61228605565E+02 -0.65948562094E+01 -0.37170367039E+01  0.62499998422E+02  0.99999586469E+01 0.  0.
    3000022    2    5    5    0    0 -0.55658949614E+02 -0.56174145158E+01 -0.55614799329E+00  0.55945024957E+02  0.24999772745E+00 0.  0.
        -13    1    4    4    0    0  0.11223711863E+02  0.29772857951E+01 -0.12158669886E+01  0.11675842420E+02  0.10500000000E+00 0. -1.
         13    1    4    4    0    0  0.83697200032E+01  0.23157013581E+01 -0.97711211137E+00  0.87395914544E+01  0.10500000000E+00 0.  1.
    3000001    1    5    5    0    0 -0.55696559509E+01 -0.97744169361E+00 -0.31608887106E+01  0.65549734643E+01  0.10000000000E+01 0. -1.
        -13    1    6    6    0    0 -0.25471652330E+02 -0.25072444718E+01 -0.27671492213E+00  0.25596463494E+02  0.10500000000E+00 0. -1.
         13    1    6    6    0    0 -0.30187297285E+02 -0.31101700440E+01 -0.27943307116E+00  0.30348561463E+02  0.10500000000E+00 0.  1.
</event>
<event>
11    0  0.3439373E-009  0.9118800E+02  0.7816531E-02  0.1126479E+00
         25   -1    0    0    0    0  0.00000000000E+00  0.00000000000E+00  0.99999998245E-14  0.12500000000E+03  0.12500000000E+03 0.  0.
    3000001    1    3    3    0    0  0.15355529203E+02 -0.95708944658E+01  0.44867318442E+01  0.18668825904E+02  0.10000000000E+01 0. -1.
    1000022    2    1    0    0    0  0.57599460482E+02 -0.21015856166E+02  0.68473251795E+01  0.62499999525E+02  0.10000001015E+02 0.  0.
    3000022    2    3    3    0    0  0.42243931280E+02 -0.11444961700E+02  0.23605933353E+01  0.43831173622E+02  0.25000380170E+00 0.  0.
    1000022    2    1    0    0    0 -0.57599460482E+02  0.21015856166E+02 -0.68473251795E+01  0.62500000475E+02  0.10000006948E+02 0.  0.
    3000022    2    5    5    0    0 -0.55770454513E+02  0.18401331117E+02 -0.70505813527E+01  0.59150027767E+02  0.25000789984E+00 0.  0.
        -13    1    4    4    0    0  0.29673279000E+02 -0.80778904812E+01  0.16840609983E+01  0.30799397521E+02  0.10500000000E+00 0.  1.
         13    1    4    4    0    0  0.12570652280E+02 -0.33670712189E+01  0.67653233708E+00  0.13031776101E+02  0.10500000000E+00 0. -1.
    3000001    1    5    5    0    0 -0.18290059690E+01  0.26145250494E+01  0.20325617321E+00  0.33499727075E+01  0.10000000000E+01 0.  1.
        -13    1    6    6    0    0 -0.35099412629E+02  0.11599221438E+02 -0.44954342638E+01  0.37238832676E+02  0.10500000000E+00 0. -1.
         13    1    6    6    0    0 -0.20671041884E+02  0.68021096787E+01 -0.25551470889E+01  0.21911195091E+02  0.10500000000E+00 0.  1.
</event>
<event>
11    0  0.3439373E-009  0.9118800E+02  0.7816531E-02  0.1126479E+00
         25   -1    0    0    0    0  0.00000000000E+00  0.00000000000E+00  0.99999998245E-14  0.12500000000E+03  0.12500000000E+03 0.  0.
    3000001    1    3    3    0    0  0.15142693158E+01 -0.16354841457E+01 -0.24043333536E+01  0.34276287469E+01  0.10000000000E+01 0.  1.
    1000022    2    1    0    0    0  0.33298167524E+02 -0.50304736029E+02 -0.12919602452E+02  0.62500005104E+02  0.10000004160E+02 0.  0.
    3000022    2    3    3    0    0  0.31783898208E+02 -0.48669251883E+02 -0.10515269098E+02  0.59072376358E+02  0.25000034537E+00 0.  0.
    1000022    2    1    0    0    0 -0.33298167524E+02  0.50304736029E+02  0.12919602452E+02  0.62499994896E+02  0.99999403533E+01 0.  0.
    3000022    2    5    5    0    0 -0.93194966847E+01  0.10914389111E+02  0.70830782752E+01  0.16006542669E+02  0.25000446034E+00 0.  0.
        -13    1    4    4    0    0  0.14956207770E+02 -0.22780131551E+02 -0.49405755785E+01  0.27695538565E+02  0.10500000000E+00 0.  1.
         13    1    4    4    0    0  0.16827690438E+02 -0.25889120332E+02 -0.55746935194E+01  0.31376837792E+02  0.10500000000E+00 0. -1.
    3000001    1    5    5    0    0 -0.23978670839E+02  0.39390346917E+02  0.58365241763E+01  0.46493452227E+02  0.10000000000E+01 0.  1.
        -13    1    6    6    0    0 -0.62610312815E+01  0.73038264788E+01  0.46923275959E+01  0.10703987911E+02  0.10500000000E+00 0. -1.
         13    1    6    6    0    0 -0.30584654032E+01  0.36105626324E+01  0.23907506793E+01  0.53025547575E+01  0.10500000000E+00 0.  1.
</event>
<event>
11    0  0.3439373E-009  0.9118800E+02  0.7816531E-02  0.1126479E+00
         25   -1    0    0    0    0  0.00000000000E+00  0.00000000000E+00  0.99999998245E-14  0.12500000000E+03  0.12500000000E+03 0.  0.
    3000001    1    3    3    0    0  0.35494368508E+02  0.50724859075E+00  0.13688131679E+02  0.38058802475E+02  0.10000000000E+01 0.  1.
    1000022    2    1    0    0    0  0.56768223140E+02  0.86267805539E+01  0.22565405984E+02  0.62500001121E+02  0.10000004584E+02 0.  0.
    3000022    2    3    3    0    0  0.21273854632E+02  0.81195319631E+01  0.88772743050E+01  0.24441198647E+02  0.25000397754E+00 0.  0.
    1000022    2    1    0    0    0 -0.56768223140E+02 -0.86267805539E+01 -0.22565405984E+02  0.62499998879E+02  0.99999905672E+01 0.  0.
    3000022    2    5    5    0    0 -0.32215412747E+02 -0.15438055008E+00 -0.10912836974E+02  0.34014837398E+02  0.25000114160E+00 0.  0.
        -13    1    4    4    0    0  0.88624638144E+01  0.33725870705E+01  0.37654296837E+01  0.10203288397E+02  0.10500000000E+00 0.  1.
         13    1    4    4    0    0  0.12411390818E+02  0.47469448926E+01  0.51118446213E+01  0.14237910249E+02  0.10500000000E+00 0. -1.
    3000001    1    5    5    0    0 -0.24552810393E+02 -0.84724000038E+01 -0.11652569011E+02  0.28485161481E+02  0.10000000000E+01 0.  1.
        -13    1    6    6    0    0 -0.24420244075E+02 -0.13791126226E+00 -0.82703475262E+01  0.25783270029E+02  0.10500000000E+00 0. -1.
         13    1    6    6    0    0 -0.77951686721E+01 -0.16469287824E-01 -0.26424894475E+01  0.82315673686E+01  0.10500000000E+00 0.  1.
</event>
<event>
11    0  0.3439373E-009  0.9118800E+02  0.7816531E-02  0.1126479E+00
         25   -1    0    0    0    0  0.00000000000E+00  0.00000000000E+00  0.99999998245E-14  0.12500000000E+03  0.12500000000E+03 0.  0.
    3000001    1    3    3    0    0  0.90891618451E+01  0.42042104791E+02  0.23865280145E+02  0.49200640593E+02  0.10000000000E+01 0.  1.
    1000022    2    1    0    0    0  0.64641327062E+01  0.52916796961E+02  0.31052820793E+02  0.62499999482E+02  0.99999921920E+01 0.  0.
    3000022    2    3    3    0    0 -0.26250291389E+01  0.10874692169E+02  0.71875406484E+01  0.13299358889E+02  0.24999708711E+00 0.  0.
    1000022    2    1    0    0    0 -0.64641327062E+01 -0.52916796961E+02 -0.31052820793E+02  0.62500000518E+02  0.99999986660E+01 0.  0.
    3000022    2    5    5    0    0 -0.65783730584E+01 -0.18304801063E+02 -0.88876187591E+01  0.21386748493E+02  0.25001967164E+00 0.  0.
        -13    1    4    4    0    0 -0.13040289648E+01  0.56717146690E+01  0.37103064965E+01  0.69026254517E+01  0.10500000000E+00 0.  1.
         13    1    4    4    0    0 -0.13210001741E+01  0.52029775001E+01  0.34772341519E+01  0.63967334378E+01  0.10500000000E+00 0. -1.
    3000001    1    5    5    0    0  0.11424035218E+00 -0.34611995898E+02 -0.22165202034E+02  0.41113252025E+02  0.10000000000E+01 0.  1.
        -13    1    6    6    0    0 -0.36660898772E+01 -0.10343694593E+02 -0.50636421755E+01  0.12086510245E+02  0.10500000000E+00 0.  1.
         13    1    6    6    0    0 -0.29122831811E+01 -0.79611064698E+01 -0.38239765836E+01  0.93002382476E+01  0.10500000000E+00 0. -1.
</event>
<event>
11    0  0.3439373E-009  0.9118800E+02  0.7816531E-02  0.1126479E+00
         25   -1    0    0    0    0  0.00000000000E+00  0.00000000000E+00  0.99999998245E-14  0.12500000000E+03  0.12500000000E+03 0.  0.
    3000001    1    3    3    0    0 -0.11634448111E+01  0.19658081519E+02 -0.29688260925E+02  0.35639677462E+02  0.10000000000E+01 0. -1.
    1000022    2    1    0    0    0 -0.88468837689E+01  0.37770750789E+02 -0.47972419169E+02  0.62500000584E+02  0.10000005228E+02 0.  0.
    3000022    2    3    3    0    0 -0.76834389577E+01  0.18112669270E+02 -0.18284158243E+02  0.26860323122E+02  0.24998652226E+00 0.  0.
    1000022    2    1    0    0    0  0.88468837689E+01 -0.37770750789E+02  0.47972419169E+02  0.62499999416E+02  0.99999979259E+01 0.  0.
    3000022    2    5    5    0    0  0.62778751977E-01  0.45423714330E+00 -0.59494678439E-02  0.52230939453E+00  0.24999830678E+00 0.  0.
        -13    1    4    4    0    0 -0.49653367279E+01  0.11712452001E+02 -0.11743988475E+02  0.17313820809E+02  0.10500000000E+00 0. -1.
         13    1    4    4    0    0 -0.27181022298E+01  0.64002172689E+01 -0.65401697679E+01  0.95465023131E+01  0.10500000000E+00 0.  1.
    3000001    1    5    5    0    0  0.87841050169E+01 -0.38224987932E+02  0.47978368636E+02  0.61977690021E+02  0.10000000000E+01 0.  1.
        -13    1    6    6    0    0 -0.47846286279E-02  0.27484526848E+00 -0.52333137430E-01  0.29887551180E+00  0.10500000000E+00 0.  1.
         13    1    6    6    0    0  0.67563380605E-01  0.17939187482E+00  0.46383669586E-01  0.22343388274E+00  0.10500000000E+00 0. -1.
</event>
<event>
11    0  0.3439373E-009  0.9118800E+02  0.7816531E-02  0.1126479E+00
         25   -1    0    0    0    0  0.00000000000E+00  0.00000000000E+00  0.99999998245E-14  0.12500000000E+03  0.12500000000E+03 0.  0.
    3000001    1    3    3    0    0  0.14192035950E+00  0.34562820810E+00 -0.12737946592E+01  0.16619726473E+01  0.10000000000E+01 0. -1.
    1000022    2    1    0    0    0  0.17471786262E+02  0.53396929971E+02 -0.25490284669E+02  0.62500001527E+02  0.10000006638E+02 0.  0.
    3000022    2    3    3    0    0  0.17329865903E+02  0.53051301763E+02 -0.24216490010E+02  0.60838028879E+02  0.24999707635E+00 0.  0.
    1000022    2    1    0    0    0 -0.17471786262E+02 -0.53396929971E+02  0.25490284669E+02  0.62499998473E+02  0.99999875558E+01 0.  0.
    3000022    2    5    5    0    0 -0.49856876471E+01 -0.15200167215E+02  0.25036194992E+01  0.16193604537E+02  0.25010528423E+00 0.  0.
        -13    1    4    4    0    0  0.10800109693E+02  0.33167478063E+02 -0.15190404502E+02  0.38045806397E+02  0.10500000000E+00 0.  1.
         13    1    4    4    0    0  0.65297562095E+01  0.19883823700E+02 -0.90260855079E+01  0.22792222482E+02  0.10500000000E+00 0. -1.
    3000001    1    5    5    0    0 -0.12486098615E+02 -0.38196762757E+02  0.22986665170E+02  0.46306393936E+02  0.10000000000E+01 0.  1.
        -13    1    6    6    0    0 -0.31784144241E+01 -0.95177260833E+01  0.15973172154E+01  0.10161292995E+02  0.10500000000E+00 0. -1.
         13    1    6    6    0    0 -0.18072732230E+01 -0.56824411312E+01  0.90630228376E+00  0.60323115422E+01  0.10500000000E+00 0.  1.
</event>
<event>
11    0  0.3439373E-009  0.9118800E+02  0.7816531E-02  0.1126479E+00
         25   -1    0    0    0    0  0.00000000000E+00  0.00000000000E+00  0.99999998245E-14  0.12500000000E+03  0.12500000000E+03 0.  0.
    3000001    1    3    3    0    0  0.10836336653E+02 -0.13318178716E+02  0.45532519870E+01  0.17791351270E+02  0.10000000000E+01 0. -1.
    1000022    2    1    0    0    0  0.48564243310E+02 -0.35560437438E+02  0.13535883142E+02  0.62499998865E+02  0.99999643289E+01 0.  0.
    3000022    2    3    3    0    0  0.37727906657E+02 -0.22242258722E+02  0.89826311551E+01  0.44708647594E+02  0.24998692926E+00 0.  0.
    1000022    2    1    0    0    0 -0.48564243310E+02  0.35560437438E+02 -0.13535883142E+02  0.62500001135E+02  0.99999785209E+01 0.  0.
    3000022    2    5    5    0    0 -0.34582060866E+02  0.21087143785E+02 -0.12220293408E+02  0.42308209946E+02  0.24998230097E+00 0.  0.
        -13    1    4    4    0    0  0.23514461613E+02 -0.13812026345E+02  0.56358622061E+01  0.27847368718E+02  0.10500000000E+00 0. -1.
         13    1    4    4    0    0  0.14213445044E+02 -0.84302323775E+01  0.33467689490E+01  0.16861278877E+02  0.10500000000E+00 0.  1.
    3000001    1    5    5    0    0 -0.13982182444E+02  0.14473293653E+02 -0.13155897345E+01  0.20191791189E+02  0.10000000000E+01 0. -1.
        -13    1    6    6    0    0 -0.15185654111E+02  0.93362157483E+01 -0.53670477734E+01  0.18616799996E+02  0.10500000000E+00 0. -1.
         13    1    6    6    0    0 -0.19396406755E+02  0.11750928036E+02 -0.68532456342E+01  0.23691409951E+02  0.10500000000E+00 0.  1.
</event>
<event>
11    0  0.3439373E-009  0.9118800E+02  0.7816531E-02  0.1126479E+00
         25   -1    0    0    0    0  0.00000000000E+00  0.00000000000E+00  0.99999998245E-14  0.12500000000E+03  0.12500000000E+03 0.  0.
    3000001    1    3    3    0    0  0.14912427716E+02  0.28300720536E+02  0.34213632406E+02  0.46849588319E+02  0.10000000000E+01 0.  1.
    1000022    2    1    0    0    0  0.20052998965E+02  0.41340500306E+02  0.41171474245E+02  0.62500000169E+02  0.99999998298E+01 0.  0.
    3000022    2    3    3    0    0  0.51405712489E+01  0.13039779770E+02  0.69578418391E+01  0.15650411850E+02  0.24999761640E+00 0.  0.
    1000022    2    1    0    0    0 -0.20052998965E+02 -0.41340500306E+02 -0.41171474245E+02  0.62499999831E+02  0.99999977186E+01 0.  0.
    3000022    2    5    5    0    0 -0.14088571287E+02 -0.36961627793E+02 -0.34645243540E+02  0.52583316453E+02  0.24999847234E+00 0.  0.
        -13    1    4    4    0    0  0.18632703833E+01  0.46589989781E+01  0.25494378570E+01  0.56292722785E+01  0.10500000000E+00 0.  1.
         13    1    4    4    0    0  0.32773008655E+01  0.83807807922E+01  0.44084039821E+01  0.10021139572E+02  0.10500000000E+00 0. -1.
    3000001    1    5    5    0    0 -0.59644276783E+01 -0.43788725134E+01 -0.65262307043E+01  0.99166833782E+01  0.10000000000E+01 0. -1.
        -13    1    6    6    0    0 -0.35174650344E+01 -0.92420222594E+01 -0.86271321541E+01  0.13123489243E+02  0.10500000000E+00 0.  1.
         13    1    6    6    0    0 -0.10571106253E+02 -0.27719605533E+02 -0.26018111386E+02  0.39459827210E+02  0.10500000000E+00 0. -1.
</event>
<event>
11    0  0.3439373E-009  0.9118800E+02  0.7816531E-02  0.1126479E+00
         25   -1    0    0    0    0  0.00000000000E+00  0.00000000000E+00  0.99999998245E-14  0.12500000000E+03  0.12500000000E+03 0.  0.
    3000001    1    3    3    0    0  0.13667309429E+02  0.50366389379E+01  0.18234056170E+01  0.14713527342E+02  0.10000000000E+01 0. -1.
    1000022    2    1    0    0    0  0.61432556431E+02  0.56543865680E+01  0.56478951547E+00  0.62500000832E+02  0.10000001984E+02 0.  0.
    3000022    2    3    3    0    0  0.47765247002E+02  0.61774763014E+00 -0.12586161015E+01  0.47786473490E+02  0.25000150222E+00 0.  0.
    1000022    2    1    0    0    0 -0.61432556431E+02 -0.56543865680E+01 -0.56478951547E+00  0.62499999168E+02  0.99999915861E+01 0.  0.
    3000022    2    5    5    0    0 -0.10602275950E+02  0.26762497139E+01 -0.96651589147E+00  0.10980310711E+02  0.25000498476E+00 0.  0.
        -13    1    4    4    0    0  0.13001755703E+02  0.16182756487E+00 -0.30630030501E+00  0.13006793779E+02  0.10500000000E+00 0.  1.
         13    1    4    4    0    0  0.34763491299E+02  0.45592006527E+00 -0.95231579650E+00  0.34779679711E+02  0.10500000000E+00 0. -1.
    3000001    1    5    5    0    0 -0.50830280481E+02 -0.83306362819E+01  0.40172637599E+00  0.51519688457E+02  0.10000000000E+01 0. -1.
        -13    1    6    6    0    0 -0.61114365317E+01  0.15322641449E+01 -0.62142704853E+00  0.63320365182E+01  0.10500000000E+00 0.  1.
         13    1    6    6    0    0 -0.44908394182E+01  0.11439855690E+01 -0.34508884294E+00  0.46482741928E+01  0.10500000000E+00 0. -1.
</event>
<event>
11    0  0.3439373E-009  0.9118800E+02  0.7816531E-02  0.1126479E+00
         25   -1    0    0    0    0  0.00000000000E+00  0.00000000000E+00  0.99999998245E-14  0.12500000000E+03  0.12500000000E+03 0.  0.
    3000001    1    3    3    0    0  0.40284277089E+02  0.25270367342E+01 -0.27877902401E+02  0.49065123433E+02  0.10000000000E+01 0. -1.
    1000022    2    1    0    0    0  0.53241832448E+02  0.44503488100E+01 -0.30850474698E+02  0.62500005520E+02  0.10000028697E+02 0.  0.
    3000022    2    3    3    0    0  0.12957555359E+02  0.19233120758E+01 -0.29725722975E+01  0.13434882087E+02  0.25000080292E+00 0.  0.
    1000022    2    1    0    0    0 -0.53241832448E+02 -0.44503488100E+01  0.30850474698E+02  0.62499994480E+02  0.99999596971E+01 0.  0.
    3000022    2    5    5    0    0 -0.26130232017E+02 -0.57878342199E+01  0.11401232051E+02  0.29091899882E+02  0.24999243555E+00 0.  0.
        -13    1    4    4    0    0  0.98528675921E+01  0.14647717967E+01 -0.22795207601E+01  0.10219187644E+02  0.10500000000E+00 0. -1.
         13    1    4    4    0    0  0.31046877673E+01  0.45854027910E+00 -0.69305153735E+00  0.32156944435E+01  0.10500000000E+00 0.  1.
    3000001    1    5    5    0    0 -0.27111600431E+02  0.13374854099E+01  0.19449242647E+02  0.33408094598E+02  0.10000000000E+01 0.  1.
        -13    1    6    6    0    0 -0.15271212197E+02 -0.33166439557E+01  0.66525886509E+01  0.16984640410E+02  0.10500000000E+00 0.  1.
         13    1    6    6    0    0 -0.10859019820E+02 -0.24711902643E+01  0.47486434005E+01  0.12107259472E+02  0.10500000000E+00 0. -1.
</event>
<event>
11    0  0.3439373E-009  0.9118800E+02  0.7816531E-02  0.1126479E+00
         25   -1    0    0    0    0  0.00000000000E+00  0.00000000000E+00  0.99999998245E-14  0.12500000000E+03  0.12500000000E+03 0.  0.
    3000001    1    3    3    0    0  0.78592852386E+00  0.94810198591E+00  0.13299391838E+01  0.20701012664E+01  0.10000000000E+01 0. -1.
    1000022    2    1    0    0    0 -0.14290318862E+02  0.51236962305E+02  0.31253976681E+02  0.62500004699E+02  0.10000000483E+02 0.  0.
    3000022    2    3    3    0    0 -0.15076247386E+02  0.50288860319E+02  0.29924037497E+02  0.60429903433E+02  0.25000278499E+00 0.  0.
    1000022    2    1    0    0    0  0.14290318862E+02 -0.51236962305E+02 -0.31253976681E+02  0.62499995301E+02  0.99999417397E+01 0.  0.
    3000022    2    5    5    0    0  0.11498760943E+02 -0.29492180761E+02 -0.22665639959E+02  0.38933327151E+02  0.24999817473E+00 0.  0.
        -13    1    4    4    0    0 -0.53182332387E+01  0.17913360522E+02  0.10617924132E+02  0.21492403957E+02  0.10500000000E+00 0.  1.
         13    1    4    4    0    0 -0.97580141477E+01  0.32375499796E+02  0.19306113365E+02  0.38937499476E+02  0.10500000000E+00 0. -1.
    3000001    1    5    5    0    0  0.27915579198E+01 -0.21744781543E+02 -0.85883367226E+01  0.23566668149E+02  0.10000000000E+01 0.  1.
        -13    1    6    6    0    0  0.61200297815E+01 -0.15598489413E+02 -0.11927481614E+02  0.20568020788E+02  0.10500000000E+00 0.  1.
         13    1    6    6    0    0  0.53787311612E+01 -0.13893691348E+02 -0.10738158345E+02  0.18365306364E+02  0.10500000000E+00 0. -1.
</event>
<event>
11    0  0.3439373E-009  0.9118800E+02  0.7816531E-02  0.1126479E+00
         25   -1    0    0    0    0  0.00000000000E+00  0.00000000000E+00  0.99999998245E-14  0.12500000000E+03  0.12500000000E+03 0.  0.
    3000001    1    3    3    0    0 -0.67780670362E+01  0.37884191790E+02 -0.24203392260E+02  0.45474810359E+02  0.10000000000E+01 0. -1.
    1000022    2    1    0    0    0 -0.14574187948E+02  0.49201283916E+02 -0.34250209674E+02  0.62500000977E+02  0.99999983022E+01 0.  0.
    3000022    2    3    3    0    0 -0.77961209119E+01  0.11317092126E+02 -0.10046817414E+02  0.17025190618E+02  0.24999989391E+00 0.  0.
    1000022    2    1    0    0    0  0.14574187948E+02 -0.49201283916E+02  0.34250209674E+02  0.62499999023E+02  0.99999860932E+01 0.  0.
    3000022    2    5    5    0    0  0.59384114834E+01 -0.34490548744E+02  0.20448058010E+02  0.40534531694E+02  0.24999928829E+00 0.  0.
        -13    1    4    4    0    0 -0.57679391462E+01  0.83394466669E+01 -0.74450569963E+01  0.12579959912E+02  0.10500000000E+00 0.  1.
         13    1    4    4    0    0 -0.20281817656E+01  0.29776454594E+01 -0.26017604177E+01  0.44452307058E+01  0.10500000000E+00 0. -1.
    3000001    1    5    5    0    0  0.86357764647E+01 -0.14710735172E+02  0.13802151663E+02  0.21965467329E+02  0.10000000000E+01 0. -1.
        -13    1    6    6    0    0  0.28329414429E+01 -0.16067516974E+02  0.95147959186E+01  0.18887377406E+02  0.10500000000E+00 0.  1.
         13    1    6    6    0    0  0.31054700406E+01 -0.18423031771E+02  0.10933262092E+02  0.21647154288E+02  0.10500000000E+00 0. -1.
</event>
<event>
11    0  0.3439373E-009  0.9118800E+02  0.7816531E-02  0.1126479E+00
         25   -1    0    0    0    0  0.00000000000E+00  0.00000000000E+00  0.99999998245E-14  0.12500000000E+03  0.12500000000E+03 0.  0.
    3000001    1    3    3    0    0  0.14433631023E+02  0.85873610903E+01  0.17753983099E+01  0.16918171123E+02  0.10000000000E+01 0.  1.
    1000022    2    1    0    0    0  0.43051758739E+02  0.42150917007E+02  0.13270183594E+02  0.62499988692E+02  0.99998539412E+01 0.  0.
    3000022    2    3    3    0    0  0.28618127716E+02  0.33563555917E+02  0.11494785285E+02  0.45581817569E+02  0.24996879099E+00 0.  0.
    1000022    2    1    0    0    0 -0.43051758739E+02 -0.42150917007E+02 -0.13270183594E+02  0.62500011308E+02  0.99999952878E+01 0.  0.
    3000022    2    5    5    0    0 -0.18406174387E+02 -0.12805983535E+02 -0.79825580714E+01  0.23802609170E+02  0.25000013735E+00 0.  0.
        -13    1    4    4    0    0  0.71952095688E+01  0.84433852222E+01  0.28631910947E+01  0.11457341882E+02  0.10500000000E+00 0.  1.
         13    1    4    4    0    0  0.21422918148E+02  0.25120170694E+02  0.86315941899E+01  0.34124475687E+02  0.10500000000E+00 0. -1.
    3000001    1    5    5    0    0 -0.24645584352E+02 -0.29344933472E+02 -0.52876255230E+01  0.38697402137E+02  0.10000000000E+01 0.  1.
        -13    1    6    6    0    0 -0.79385096046E+01 -0.55605167199E+01 -0.33888557102E+01  0.10268137560E+02  0.10500000000E+00 0.  1.
         13    1    6    6    0    0 -0.10467664783E+02 -0.72454668153E+01 -0.45937023612E+01  0.13534471610E+02  0.10500000000E+00 0. -1.
</event>
<event>
11    0  0.3439373E-009  0.9118800E+02  0.7816531E-02  0.1126479E+00
         25   -1    0    0    0    0  0.00000000000E+00  0.00000000000E+00  0.99999998245E-14  0.12500000000E+03  0.12500000000E+03 0.  0.
    3000001    1    3    3    0    0  0.13838487369E+02 -0.12498249305E+02  0.61777880570E+01  0.19669139118E+02  0.10000000000E+01 0.  1.
    1000022    2    1    0    0    0  0.52071451796E+02 -0.27786057223E+02  0.17965216232E+02  0.62499999510E+02  0.99999938164E+01 0.  0.
    3000022    2    3    3    0    0  0.38232964427E+02 -0.15287807918E+02  0.11787428174E+02  0.42830860392E+02  0.24999830771E+00 0.  0.
    1000022    2    1    0    0    0 -0.52071451796E+02  0.27786057223E+02 -0.17965216232E+02  0.62500000490E+02  0.99999999410E+01 0.  0.
    3000022    2    5    5    0    0 -0.48477534164E+01  0.58649125054E+01 -0.39343140932E+01  0.85696705333E+01  0.25002756700E+00 0.  0.
        -13    1    4    4    0    0  0.26423883007E+02 -0.10535903652E+02  0.81843220464E+01  0.29601030578E+02  0.10500000000E+00 0.  1.
         13    1    4    4    0    0  0.11809081420E+02 -0.47519042667E+01  0.36031061281E+01  0.13229829814E+02  0.10500000000E+00 0. -1.
    3000001    1    5    5    0    0 -0.47223698380E+02  0.21921144718E+02 -0.14030902138E+02  0.53930329957E+02  0.10000000000E+01 0.  1.
        -13    1    6    6    0    0 -0.34212254806E+01  0.40704239552E+01 -0.27651986779E+01  0.59942041751E+01  0.10500000000E+00 0.  1.
         13    1    6    6    0    0 -0.14265279357E+01  0.17944885501E+01 -0.11691154153E+01  0.25754663582E+01  0.10500000000E+00 0. -1.
</event>
<event>
11    0  0.3439373E-009  0.9118800E+02  0.7816531E-02  0.1126479E+00
         25   -1    0    0    0    0  0.00000000000E+00  0.00000000000E+00  0.99999998245E-14  0.12500000000E+03  0.12500000000E+03 0.  0.
    3000001    1    3    3    0    0  0.34558910944E+02  0.22859134135E+01  0.26590459822E+02  0.43676037816E+02  0.10000000000E+01 0.  1.
    1000022    2    1    0    0    0  0.50542797342E+02  0.85094518389E+01  0.34340427062E+02  0.62499999866E+02  0.99999959382E+01 0.  0.
    3000022    2    3    3    0    0  0.15983886397E+02  0.62235384254E+01  0.77499672404E+01  0.18823962050E+02  0.25000028712E+00 0.  0.
    1000022    2    1    0    0    0 -0.50542797342E+02 -0.85094518389E+01 -0.34340427062E+02  0.62500000134E+02  0.99999976103E+01 0.  0.
    3000022    2    5    5    0    0 -0.32941385442E+02 -0.10239928125E+02 -0.22142045309E+02  0.40991751334E+02  0.25000823670E+00 0.  0.
        -13    1    4    4    0    0  0.10384421498E+02  0.40824662543E+01  0.49939349925E+01  0.12225103365E+02  0.10500000000E+00 0. -1.
         13    1    4    4    0    0  0.55994648992E+01  0.21410721710E+01  0.27560322479E+01  0.65988586854E+01  0.10500000000E+00 0.  1.
    3000001    1    5    5    0    0 -0.17601411900E+02  0.17304762864E+01 -0.12198381753E+02  0.21508248800E+02  0.10000000000E+01 0. -1.
        -13    1    6    6    0    0 -0.20463442475E+02 -0.63231603785E+01 -0.13805327768E+02  0.25482011986E+02  0.10500000000E+00 0. -1.
         13    1    6    6    0    0 -0.12477942967E+02 -0.39167677468E+01 -0.83367175411E+01  0.15509739347E+02  0.10500000000E+00 0.  1.
</event>
<event>
11    0  0.3439373E-009  0.9118800E+02  0.7816531E-02  0.1126479E+00
         25   -1    0    0    0    0  0.00000000000E+00  0.00000000000E+00  0.99999998245E-14  0.12500000000E+03  0.12500000000E+03 0.  0.
    3000001    1    3    3    0    0  0.34857300145E+02  0.40565843804E+01  0.53531692939E+01  0.35512584695E+02  0.10000000000E+01 0. -1.
    1000022    2    1    0    0    0  0.58495780837E+02  0.92375237328E+01  0.17296292301E+02  0.62500000094E+02  0.10000003200E+02 0.  0.
    3000022    2    3    3    0    0  0.23638480692E+02  0.51809393525E+01  0.11943123007E+02  0.26987415399E+02  0.25000154890E+00 0.  0.
    1000022    2    1    0    0    0 -0.58495780837E+02 -0.92375237328E+01 -0.17296292301E+02  0.62499999906E+02  0.10000002024E+02 0.  0.
    3000022    2    5    5    0    0 -0.51792302752E+02 -0.88623037072E+01 -0.18293740813E+02  0.55639073435E+02  0.24997695211E+00 0.  0.
        -13    1    4    4    0    0  0.94848202221E+01  0.21275033869E+01  0.47509353003E+01  0.10819912039E+02  0.10500000000E+00 0.  1.
         13    1    4    4    0    0  0.14153660470E+02  0.30534359656E+01  0.71921877066E+01  0.16167503360E+02  0.10500000000E+00 0. -1.
    3000001    1    5    5    0    0 -0.67034780847E+01 -0.37522002559E+00  0.99744851183E+00  0.68609264705E+01  0.10000000000E+01 0.  1.
        -13    1    6    6    0    0 -0.21358853046E+02 -0.36523624826E+01 -0.76120294342E+01  0.22967245639E+02  0.10500000000E+00 0.  1.
         13    1    6    6    0    0 -0.30433449706E+02 -0.52099412247E+01 -0.10681711379E+02  0.32671827796E+02  0.10500000000E+00 0. -1.
</event>
<event>
11    0  0.3439373E-009  0.9118800E+02  0.7816531E-02  0.1126479E+00
         25   -1    0    0    0    0  0.00000000000E+00  0.00000000000E+00  0.99999998245E-14  0.12500000000E+03  0.12500000000E+03 0.  0.
    3000001    1    3    3    0    0  0.22986059728E+02 -0.34287889562E+02  0.40275015110E+02  0.57680977406E+02  0.10000000000E+01 0. -1.
    1000022    2    1    0    0    0  0.23227743093E+02 -0.38779171376E+02  0.41986876042E+02  0.62500000635E+02  0.10000006890E+02 0.  0.
    3000022    2    3    3    0    0  0.24168336544E+00 -0.44912818141E+01  0.17118609320E+01  0.48190232288E+01  0.24998769297E+00 0.  0.
    1000022    2    1    0    0    0 -0.23227743093E+02  0.38779171376E+02 -0.41986876042E+02  0.62499999365E+02  0.99999989529E+01 0.  0.
    3000022    2    5    5    0    0 -0.20581047201E+02  0.36973873845E+02 -0.35661690479E+02  0.55339547513E+02  0.25000025705E+00 0.  0.
        -13    1    4    4    0    0  0.84186784815E-01 -0.17255066079E+01  0.59316117277E+00  0.18295697979E+01  0.10500000000E+00 0.  1.
         13    1    4    4    0    0  0.15749658062E+00 -0.27657752062E+01  0.11186997592E+01  0.29894534309E+01  0.10500000000E+00 0. -1.
    3000001    1    5    5    0    0 -0.26466958918E+01  0.18052975314E+01 -0.63251855633E+01  0.71604518524E+01  0.10000000000E+01 0.  1.
        -13    1    6    6    0    0 -0.13753168608E+02  0.24806045847E+02 -0.23932098177E+02  0.37111263863E+02  0.10500000000E+00 0.  1.
         13    1    6    6    0    0 -0.68278785933E+01  0.12167827997E+02 -0.11729592302E+02  0.18228283650E+02  0.10500000000E+00 0. -1.
</event>
<event>
11    0  0.3439373E-009  0.9118800E+02  0.7816531E-02  0.1126479E+00
         25   -1    0    0    0    0  0.00000000000E+00  0.00000000000E+00  0.99999998245E-14  0.12500000000E+03  0.12500000000E+03 0.  0.
    3000001    1    3    3    0    0  0.24784353740E+02  0.43597556977E+01  0.37100026934E+02  0.44840647392E+02  0.10000000000E+01 0. -1.
    1000022    2    1    0    0    0  0.39045847963E+02  0.55737468307E+01  0.47440540760E+02  0.62499998680E+02  0.10000001526E+02 0.  0.
    3000022    2    3    3    0    0  0.14261494223E+02  0.12139911330E+01  0.10340513825E+02  0.17659351287E+02  0.24993954487E+00 0.  0.
    1000022    2    1    0    0    0 -0.39045847963E+02 -0.55737468307E+01 -0.47440540760E+02  0.62500001320E+02  0.10000018030E+02 0.  0.
    3000022    2    5    5    0    0 -0.29546194162E+02 -0.53370678216E+01 -0.29065439842E+02  0.41789043520E+02  0.24996535258E+00 0.  0.
        -13    1    4    4    0    0  0.73688928565E+01  0.58736637637E+00  0.52729216484E+01  0.90807658764E+01  0.10500000000E+00 0.  1.
         13    1    4    4    0    0  0.68926013662E+01  0.62662475660E+00  0.50675921771E+01  0.85785854109E+01  0.10500000000E+00 0. -1.
    3000001    1    5    5    0    0 -0.94996538006E+01 -0.23667900914E+00 -0.18375100917E+02  0.20710957800E+02  0.10000000000E+01 0.  1.
        -13    1    6    6    0    0 -0.14018744153E+02 -0.25056637220E+01 -0.13872683553E+02  0.19881295538E+02  0.10500000000E+00 0. -1.
         13    1    6    6    0    0 -0.15527450009E+02 -0.28314040996E+01 -0.15192756289E+02  0.21907747982E+02  0.10500000000E+00 0.  1.
</event>
<event>
11    0  0.3439373E-009  0.9118800E+02  0.7816531E-02  0.1126479E+00
         25   -1    0    0    0    0  0.00000000000E+00  0.00000000000E+00  0.99999998245E-14  0.12500000000E+03  0.12500000000E+03 0.  0.
    3000001    1    3    3    0    0 -0.12070233083E+02  0.25103892383E+02  0.42476038785E+02  0.50804623907E+02  0.10000000000E+01 0. -1.
    1000022    2    1    0    0    0 -0.18115685603E+02  0.32516254737E+02  0.49201269513E+02  0.62500000573E+02  0.10000013148E+02 0.  0.
    3000022    2    3    3    0    0 -0.60454525198E+01  0.74123623544E+01  0.67252307283E+01  0.11695376667E+02  0.24999036845E+00 0.  0.
    1000022    2    1    0    0    0  0.18115685603E+02 -0.32516254737E+02 -0.49201269513E+02  0.62499999427E+02  0.10000005983E+02 0.  0.
    3000022    2    5    5    0    0  0.14940774062E+01 -0.11318165794E+01 -0.10067277717E+00  0.18936514314E+01  0.25000934009E+00 0.  0.
        -13    1    4    4    0    0 -0.35842737949E+01  0.44235628275E+01  0.40769422227E+01  0.70033855822E+01  0.10500000000E+00 0.  1.
         13    1    4    4    0    0 -0.24611787249E+01  0.29887995269E+01  0.26482885056E+01  0.46919910845E+01  0.10500000000E+00 0. -1.
    3000001    1    5    5    0    0  0.16621608197E+02 -0.31384438158E+02 -0.49100596736E+02  0.60606347995E+02  0.10000000000E+01 0. -1.
        -13    1    6    6    0    0  0.89974274484E+00 -0.70384850892E+00 -0.14757154958E-02  0.11471560086E+01  0.10500000000E+00 0. -1.
         13    1    6    6    0    0  0.59433466138E+00 -0.42796807052E+00 -0.99197061677E-01  0.74649542273E+00  0.10500000000E+00 0.  1.
</event>
<event>
11    0  0.3439373E-009  0.9118800E+02  0.7816531E-02  0.1126479E+00
         25   -1    0    0    0    0  0.00000000000E+00  0.00000000000E+00  0.99999998245E-14  0.12500000000E+03  0.12500000000E+03 0.  0.
    3000001    1    3    3    0    0 -0.15128294431E+02 -0.44298818509E+01  0.62576213832E+01  0.16989613621E+02  0.10000000000E+01 0.  1.
    1000022    2    1    0    0    0 -0.55073320622E+02 -0.97606115410E+00  0.27788970993E+02  0.62500002654E+02  0.10000004160E+02 0.  0.
    3000022    2    3    3    0    0 -0.39945026191E+02  0.34538206968E+01  0.21531349610E+02  0.45510389034E+02  0.24999828660E+00 0.  0.
    1000022    2    1    0    0    0  0.55073320622E+02  0.97606115410E+00 -0.27788970993E+02  0.62499997346E+02  0.99999709802E+01 0.  0.
    3000022    2    5    5    0    0  0.32144658329E+02  0.41424144439E+01 -0.19863958717E+02  0.38014181712E+02  0.24999746180E+00 0.  0.
        -13    1    4    4    0    0 -0.22689475223E+02  0.19191699657E+01  0.12171343608E+02  0.25819530001E+02  0.10500000000E+00 0.  1.
         13    1    4    4    0    0 -0.17255550969E+02  0.15346507310E+01  0.93600060023E+01  0.19690859033E+02  0.10500000000E+00 0. -1.
    3000001    1    5    5    0    0  0.22928662293E+02 -0.31663532898E+01 -0.79250122757E+01  0.24485815634E+02  0.10000000000E+01 0.  1.
        -13    1    6    6    0    0  0.13239751256E+02  0.17677981979E+01 -0.81635756221E+01  0.15654747386E+02  0.10500000000E+00 0.  1.
         13    1    6    6    0    0  0.18904907073E+02  0.23746162460E+01 -0.11700383095E+02  0.22359434325E+02  0.10500000000E+00 0. -1.
</event>
<event>
11    0  0.3439373E-009  0.9118800E+02  0.7816531E-02  0.1126479E+00
         25   -1    0    0    0    0  0.00000000000E+00  0.00000000000E+00  0.99999998245E-14  0.12500000000E+03  0.12500000000E+03 0.  0.
    3000001    1    3    3    0    0  0.32487270582E+02  0.61942700879E+01 -0.34892747017E+02  0.48086334089E+02  0.10000000000E+01 0.  1.
    1000022    2    1    0    0    0  0.38436044768E+02  0.11650466291E+02 -0.46831476526E+02  0.62499999624E+02  0.99999928540E+01 0.  0.
    3000022    2    3    3    0    0  0.59487741868E+01  0.54561962035E+01 -0.11938729509E+02  0.14413665534E+02  0.25000100131E+00 0.  0.
    1000022    2    1    0    0    0 -0.38436044768E+02 -0.11650466291E+02  0.46831476526E+02  0.62500000376E+02  0.99999975583E+01 0.  0.
    3000022    2    5    5    0    0 -0.77440994247E+00  0.20387095931E+00 -0.40137470443E+00  0.92998913063E+00  0.25000800526E+00 0.  0.
        -13    1    4    4    0    0  0.36390974251E+01  0.33810442471E+01 -0.72517032464E+01  0.87904900457E+01  0.10500000000E+00 0. -1.
         13    1    4    4    0    0  0.23096767617E+01  0.20751519564E+01 -0.46870262631E+01  0.56231754887E+01  0.10500000000E+00 0.  1.
    3000001    1    5    5    0    0 -0.37661634826E+02 -0.11854337251E+02  0.47232851231E+02  0.61570011246E+02  0.10000000000E+01 0.  1.
        -13    1    6    6    0    0 -0.45794825237E+00  0.57930021580E-01 -0.25490624586E+00  0.53765665943E+00  0.10500000000E+00 0. -1.
         13    1    6    6    0    0 -0.31646169010E+00  0.14594093773E+00 -0.14646845857E+00  0.39233247120E+00  0.10500000000E+00 0. -1.
</event>
<event>
11    0  0.3439373E-009  0.9118800E+02  0.7816531E-02  0.1126479E+00
         25   -1    0    0    0    0  0.00000000000E+00  0.00000000000E+00  0.99999998245E-14  0.12500000000E+03  0.12500000000E+03 0.  0.
    3000001    1    3    3    0    0  0.68588081945E+00  0.76520310767E+01  0.81197240594E+01  0.11222919892E+02  0.10000000000E+01 0.  1.
    1000022    2    1    0    0    0 -0.16552967693E+02  0.38606335714E+02  0.45186281984E+02  0.62500001419E+02  0.10000010056E+02 0.  0.
    3000022    2    3    3    0    0 -0.17238848512E+02  0.30954304638E+02  0.37066557924E+02  0.51277081527E+02  0.24999990898E+00 0.  0.
    1000022    2    1    0    0    0  0.16552967693E+02 -0.38606335714E+02 -0.45186281984E+02  0.62499998581E+02  0.99999923190E+01 0.  0.
    3000022    2    5    5    0    0  0.99598044625E+01 -0.11817667173E+02 -0.18450955808E+02  0.24069799137E+02  0.24999582394E+00 0.  0.
        -13    1    4    4    0    0 -0.75314226534E+01  0.13505540160E+02  0.16082986964E+02  0.22311329788E+02  0.10500000000E+00 0. -1.
         13    1    4    4    0    0 -0.97074258587E+01  0.17448764477E+02  0.20983570960E+02  0.28965751740E+02  0.10500000000E+00 0.  1.
    3000001    1    5    5    0    0  0.65931632302E+01 -0.26788668541E+02 -0.26735326176E+02  0.38430199444E+02  0.10000000000E+01 0. -1.
        -13    1    6    6    0    0  0.41451271796E+01 -0.49677318462E+01 -0.78122145638E+01  0.10144070210E+02  0.10500000000E+00 0. -1.
         13    1    6    6    0    0  0.58146772828E+01 -0.68499353267E+01 -0.10638741244E+02  0.13925728927E+02  0.10500000000E+00 0.  1.
</event>
<event>
11    0  0.3439373E-009  0.9118800E+02  0.7816531E-02  0.1126479E+00
         25   -1    0    0    0    0  0.00000000000E+00  0.00000000000E+00  0.99999998245E-14  0.12500000000E+03  0.12500000000E+03 0.  0.
    3000001    1    3    3    0    0 -0.19401238220E+01 -0.45770027547E+01  0.14643833908E+01  0.52780160455E+01  0.10000000000E+01 0.  1.
    1000022    2    1    0    0    0 -0.42199219212E+02 -0.33566559736E+02  0.29979358994E+02  0.62500000433E+02  0.10000002691E+02 0.  0.
    3000022    2    3    3    0    0 -0.40259095390E+02 -0.28989556981E+02  0.28514975603E+02  0.57221984387E+02  0.24997599855E+00 0.  0.
    1000022    2    1    0    0    0  0.42199219212E+02  0.33566559736E+02 -0.29979358994E+02  0.62499999567E+02  0.99999972840E+01 0.  0.
    3000022    2    5    5    0    0  0.70349324945E+01  0.51539035087E+01 -0.97683026871E+00  0.87789351080E+01  0.25001535492E+00 0.  0.
        -13    1    4    4    0    0 -0.18431396184E+02 -0.13353575074E+02  0.13070230192E+02  0.26246452614E+02  0.10500000000E+00 0. -1.
         13    1    4    4    0    0 -0.21827699206E+02 -0.15635981907E+02  0.15444745411E+02  0.30975531773E+02  0.10500000000E+00 0.  1.
    3000001    1    5    5    0    0  0.35164286717E+02  0.28412656227E+02 -0.29002528725E+02  0.53721064459E+02  0.10000000000E+01 0.  1.
        -13    1    6    6    0    0  0.35821502514E+01  0.27067476661E+01 -0.48975272351E+00  0.45176505046E+01  0.10500000000E+00 0.  1.
         13    1    6    6    0    0  0.34527822431E+01  0.24471558425E+01 -0.48707754520E+00  0.42612846034E+01  0.10500000000E+00 0. -1.
</event>
<event>
11    0  0.3439373E-009  0.9118800E+02  0.7816531E-02  0.1126479E+00
         25   -1    0    0    0    0  0.00000000000E+00  0.00000000000E+00  0.99999998245E-14  0.12500000000E+03  0.12500000000E+03 0.  0.
    3000001    1    3    3    0    0 -0.31151038901E+01  0.20021862881E+01 -0.37259120472E+02  0.37456036637E+02  0.10000000000E+01 0. -1.
    1000022    2    1    0    0    0 -0.96420328771E+01 -0.33027868680E+01 -0.60847126791E+02  0.62500000032E+02  0.99999983111E+01 0.  0.
    3000022    2    3    3    0    0 -0.65269289870E+01 -0.53049731561E+01 -0.23588006318E+02  0.25043963395E+02  0.25003653593E+00 0.  0.
    1000022    2    1    0    0    0  0.96420328771E+01  0.33027868680E+01  0.60847126791E+02  0.62499999968E+02  0.99999979106E+01 0.  0.
    3000022    2    5    5    0    0  0.10950603986E+02  0.46468720737E+00  0.44938448933E+02  0.46256441269E+02  0.25000898207E+00 0.  0.
        -13    1    4    4    0    0 -0.46287573809E+01 -0.37047983832E+01 -0.16620355616E+02  0.17646477601E+02  0.10500000000E+00 0. -1.
         13    1    4    4    0    0 -0.18981716061E+01 -0.16001747729E+01 -0.69676507027E+01  0.73974857935E+01  0.10500000000E+00 0. -1.
    3000001    1    5    5    0    0 -0.13085711091E+01  0.28380996607E+01  0.15908677857E+02  0.16243558699E+02  0.10000000000E+01 0. -1.
        -13    1    6    6    0    0  0.35453548775E+01  0.98871332528E-01  0.14548726529E+02  0.14975172298E+02  0.10500000000E+00 0.  1.
         13    1    6    6    0    0  0.74052491087E+01  0.36581587485E+00  0.30389722404E+02  0.31281268971E+02  0.10500000000E+00 0. -1.
</event>
<event>
11    0  0.3439373E-009  0.9118800E+02  0.7816531E-02  0.1126479E+00
         25   -1    0    0    0    0  0.00000000000E+00  0.00000000000E+00  0.99999998245E-14  0.12500000000E+03  0.12500000000E+03 0.  0.
    3000001    1    3    3    0    0 -0.84708408517E+01 -0.10857608465E+02  0.16200737550E+02  0.21286303190E+02  0.10000000000E+01 0.  1.
    1000022    2    1    0    0    0 -0.27588089594E+02 -0.40610110402E+02  0.37362631355E+02  0.62500000114E+02  0.10000001907E+02 0.  0.
    3000022    2    3    3    0    0 -0.19117248742E+02 -0.29752501936E+02  0.21161893805E+02  0.41213696924E+02  0.24998752876E+00 0.  0.
    1000022    2    1    0    0    0  0.27588089594E+02  0.40610110402E+02 -0.37362631355E+02  0.62499999886E+02  0.10000000485E+02 0.  0.
    3000022    2    5    5    0    0  0.10619152561E+02  0.23170793987E+02 -0.22282162682E+02  0.33855713956E+02  0.24999719037E+00 0.  0.
        -13    1    4    4    0    0 -0.14736140629E+02 -0.22939616752E+02  0.16313257175E+02  0.31772838117E+02  0.10500000000E+00 0.  1.
         13    1    4    4    0    0 -0.43811081139E+01 -0.68128851846E+01  0.48486366301E+01  0.94408588070E+01  0.10500000000E+00 0. -1.
    3000001    1    5    5    0    0  0.16968937033E+02  0.17439316415E+02 -0.15080468673E+02  0.28644285930E+02  0.10000000000E+01 0. -1.
        -13    1    6    6    0    0  0.61207762773E+01  0.13432143230E+02 -0.12829047624E+02  0.19557143501E+02  0.10500000000E+00 0. -1.
         13    1    6    6    0    0  0.44983762841E+01  0.97386507567E+01 -0.94531150577E+01  0.14298570455E+02  0.10500000000E+00 0.  1.
</event>
<event>
11    0  0.3439373E-009  0.9118800E+02  0.7816531E-02  0.1126479E+00
         25   -1    0    0    0    0  0.00000000000E+00  0.00000000000E+00  0.99999998245E-14  0.12500000000E+03  0.12500000000E+03 0.  0.
    3000001    1    3    3    0    0  0.15583907798E+02 -0.97826783592E+01  0.14404063547E+02  0.23388801269E+02  0.10000000000E+01 0.  1.
    1000022    2    1    0    0    0  0.42890875916E+02 -0.13972217095E+02  0.42088005049E+02  0.62499999880E+02  0.99999864263E+01 0.  0.
    3000022    2    3    3    0    0  0.27306968118E+02 -0.41895387357E+01  0.27683941502E+02  0.39111198611E+02  0.24999406728E+00 0.  0.
    1000022    2    1    0    0    0 -0.42890875916E+02  0.13972217095E+02 -0.42088005049E+02  0.62500000120E+02  0.99999879311E+01 0.  0.
    3000022    2    5    5    0    0 -0.41209129721E+02  0.11090086418E+02 -0.38147904252E+02  0.57240785179E+02  0.24999996161E+00 0.  0.
        -13    1    4    4    0    0  0.19706619698E+02 -0.29862496831E+01  0.19953460382E+02  0.28203194026E+02  0.10500000000E+00 0.  1.
         13    1    4    4    0    0  0.76003484204E+01 -0.12032890526E+01  0.77304811205E+01  0.10908004584E+02  0.10500000000E+00 0. -1.
    3000001    1    5    5    0    0 -0.16817461949E+01  0.28821306772E+01 -0.39401007975E+01  0.52592149413E+01  0.10000000000E+01 0. -1.
        -13    1    6    6    0    0 -0.13599773311E+02  0.37147389606E+01 -0.12603373471E+02  0.18910557038E+02  0.10500000000E+00 0.  1.
         13    1    6    6    0    0 -0.27609356410E+02  0.73753474570E+01 -0.25544530781E+02  0.38330228141E+02  0.10500000000E+00 0. -1.
</event>
<event>
11    0  0.3439373E-009  0.9118800E+02  0.7816531E-02  0.1126479E+00
         25   -1    0    0    0    0  0.00000000000E+00  0.00000000000E+00  0.99999998245E-14  0.12500000000E+03  0.12500000000E+03 0.  0.
    3000001    1    3    3    0    0  0.20484662702E+02  0.97892545392E+01 -0.31065121115E+02  0.38490163163E+02  0.10000000000E+01 0. -1.
    1000022    2    1    0    0    0  0.31903862196E+02  0.83757293918E+01 -0.52136750766E+02  0.62499999655E+02  0.99999955311E+01 0.  0.
    3000022    2    3    3    0    0  0.11419199494E+02 -0.14135251475E+01 -0.21071629651E+02  0.24009836492E+02  0.25000360279E+00 0.  0.
    1000022    2    1    0    0    0 -0.31903862196E+02 -0.83757293918E+01  0.52136750766E+02  0.62500000345E+02  0.99999998406E+01 0.  0.
    3000022    2    5    5    0    0 -0.14719702917E+02 -0.89190892665E+01  0.24697534614E+02  0.30103995142E+02  0.25000036662E+00 0.  0.
        -13    1    4    4    0    0  0.31581884667E+01 -0.42263572464E+00 -0.57903774601E+01  0.66100129710E+01  0.10500000000E+00 0.  1.
         13    1    4    4    0    0  0.82610110274E+01 -0.99088942282E+00 -0.15281252191E+02  0.17399823521E+02  0.10500000000E+00 0. -1.
    3000001    1    5    5    0    0 -0.17184159279E+02  0.54335987471E+00  0.27439216152E+02  0.32396005203E+02  0.10000000000E+01 0. -1.
        -13    1    6    6    0    0 -0.99051293272E+01 -0.60412425992E+01  0.16717054257E+02  0.20348934300E+02  0.10500000000E+00 0. -1.
         13    1    6    6    0    0 -0.48145735898E+01 -0.28778466673E+01  0.79804803575E+01  0.97550608419E+01  0.10500000000E+00 0.  1.
</event>
<event>
11    0  0.3439373E-009  0.9118800E+02  0.7816531E-02  0.1126479E+00
         25   -1    0    0    0    0  0.00000000000E+00  0.00000000000E+00  0.99999998245E-14  0.12500000000E+03  0.12500000000E+03 0.  0.
    3000001    1    3    3    0    0  0.37613975562E+02 -0.63644683901E+01  0.41027361617E+02  0.56031794695E+02  0.10000000000E+01 0. -1.
    1000022    2    1    0    0    0  0.40611130181E+02 -0.10155205938E+02  0.45319507629E+02  0.62499999532E+02  0.10000003380E+02 0.  0.
    3000022    2    3    3    0    0  0.29971546184E+01 -0.37907375478E+01  0.42921460119E+01  0.64682048372E+01  0.25005892414E+00 0.  0.
    1000022    2    1    0    0    0 -0.40611130181E+02  0.10155205938E+02 -0.45319507629E+02  0.62500000468E+02  0.10000009229E+02 0.  0.
    3000022    2    5    5    0    0 -0.38792172220E+02  0.85443158300E+01 -0.39052823782E+02  0.55704788813E+02  0.24998561709E+00 0.  0.
        -13    1    4    4    0    0  0.19943272032E+01 -0.25671986673E+01  0.28258611699E+01  0.43086385718E+01  0.10500000000E+00 0. -1.
         13    1    4    4    0    0  0.10028274152E+01 -0.12235388805E+01  0.14662848420E+01  0.21595662654E+01  0.10500000000E+00 0.  1.
    3000001    1    5    5    0    0 -0.18189579611E+01  0.16108901079E+01 -0.62666838464E+01  0.67952116549E+01  0.10000000000E+01 0. -1.
        -13    1    6    6    0    0 -0.22433018839E+02  0.48851155770E+01 -0.22621023440E+02  0.32230830192E+02  0.10500000000E+00 0. -1.
         13    1    6    6    0    0 -0.16359153381E+02  0.36592002530E+01 -0.16431800343E+02  0.23473958621E+02  0.10500000000E+00 0.  1.
</event>
<event>
11    0  0.3439373E-009  0.9118800E+02  0.7816531E-02  0.1126479E+00
         25   -1    0    0    0    0  0.00000000000E+00  0.00000000000E+00  0.99999998245E-14  0.12500000000E+03  0.12500000000E+03 0.  0.
    3000001    1    3    3    0    0  0.33061483039E+02  0.21420436980E+02  0.33647364793E+02  0.51817390311E+02  0.10000000000E+01 0. -1.
    1000022    2    1    0    0    0  0.37687026200E+02  0.29432372038E+02  0.38982992014E+02  0.62500001027E+02  0.99999997220E+01 0.  0.
    3000022    2    3    3    0    0  0.46255431608E+01  0.80119350583E+01  0.53356272206E+01  0.10682610716E+02  0.25000190727E+00 0.  0.
    1000022    2    1    0    0    0 -0.37687026200E+02 -0.29432372038E+02 -0.38982992014E+02  0.62499998973E+02  0.99999868897E+01 0.  0.
    3000022    2    5    5    0    0 -0.36755777595E+01 -0.52429197247E+01 -0.92228067797E+01  0.11230350512E+02  0.25005723199E+00 0.  0.
        -13    1    4    4    0    0  0.25058901781E+01  0.42301220477E+01  0.28799647745E+01  0.56990034414E+01  0.10500000000E+00 0. -1.
         13    1    4    4    0    0  0.21196529827E+01  0.37818130106E+01  0.24556624461E+01  0.49836072742E+01  0.10500000000E+00 0.  1.
    3000001    1    5    5    0    0 -0.34011448440E+02 -0.24189452313E+02 -0.29760185234E+02  0.51269648462E+02  0.10000000000E+01 0. -1.
        -13    1    6    6    0    0 -0.26331671751E+01 -0.37630217872E+01 -0.66834428005E+01  0.81100761408E+01  0.10500000000E+00 0. -1.
         13    1    6    6    0    0 -0.10424105844E+01 -0.14798979375E+01 -0.25393639792E+01  0.31202743711E+01  0.10500000000E+00 0.  1.
</event>
<event>
11    0  0.3439373E-009  0.9118800E+02  0.7816531E-02  0.1126479E+00
         25   -1    0    0    0    0  0.00000000000E+00  0.00000000000E+00  0.99999998245E-14  0.12500000000E+03  0.12500000000E+03 0.  0.
    3000001    1    3    3    0    0 -0.33638039381E+02 -0.61221079597E+01 -0.21006729643E+02  0.40140759704E+02  0.10000000000E+01 0.  1.
    1000022    2    1    0    0    0 -0.54924778594E+02 -0.10899033254E+02 -0.25898453997E+02  0.62500002760E+02  0.10000009805E+02 0.  0.
    3000022    2    3    3    0    0 -0.21286739212E+02 -0.47769252946E+01 -0.48917243537E+01  0.22359243056E+02  0.25000263859E+00 0.  0.
    1000022    2    1    0    0    0  0.54924778594E+02  0.10899033254E+02  0.25898453997E+02  0.62499997240E+02  0.99999753084E+01 0.  0.
    3000022    2    5    5    0    0  0.16954725469E+02 -0.10799388578E+01  0.91063250898E+01  0.19277360805E+02  0.24999862781E+00 0.  0.
        -13    1    4    4    0    0 -0.16208384195E+02 -0.36185447117E+01 -0.37243043632E+01  0.17020195417E+02  0.10500000000E+00 0. -1.
         13    1    4    4    0    0 -0.50783550171E+01 -0.11583805830E+01 -0.11674199905E+01  0.53390476388E+01  0.10500000000E+00 0.  1.
    3000001    1    5    5    0    0  0.37970053125E+02  0.11978972112E+02  0.16792128907E+02  0.43222636435E+02  0.10000000000E+01 0.  1.
        -13    1    6    6    0    0  0.86552971813E+01 -0.61711267833E+00  0.46699098527E+01  0.98546476541E+01  0.10500000000E+00 0.  1.
         13    1    6    6    0    0  0.82994282876E+01 -0.46282617950E+00  0.44364152372E+01  0.94227131513E+01  0.10500000000E+00 0. -1.
</event>
<event>
11    0  0.3439373E-009  0.9118800E+02  0.7816531E-02  0.1126479E+00
         25   -1    0    0    0    0  0.00000000000E+00  0.00000000000E+00  0.99999998245E-14  0.12500000000E+03  0.12500000000E+03 0.  0.
    3000001    1    3    3    0    0  0.26412826280E+02  0.13166936374E+02  0.84368260313E+01  0.30711327537E+02  0.10000000000E+01 0.  1.
    1000022    2    1    0    0    0  0.52437867976E+02  0.31419133745E+02  0.83281630677E+01  0.62500001826E+02  0.99999982552E+01 0.  0.
    3000022    2    3    3    0    0  0.26025041695E+02  0.18252197371E+02 -0.10866296356E+00  0.31788674290E+02  0.25000267298E+00 0.  0.
    1000022    2    1    0    0    0 -0.52437867976E+02 -0.31419133745E+02 -0.83281630677E+01  0.62499998174E+02  0.99999754278E+01 0.  0.
    3000022    2    5    5    0    0 -0.52212451239E+02 -0.30541232486E+02 -0.75958069109E+01  0.60964462806E+02  0.24999297848E+00 0.  0.
        -13    1    4    4    0    0  0.89319418341E+01  0.62513583513E+01 -0.91563127825E-01  0.10903140601E+02  0.10500000000E+00 0. -1.
         13    1    4    4    0    0  0.17093099861E+02  0.12000839020E+02 -0.17099835735E-01  0.20885533688E+02  0.10500000000E+00 0.  1.
    3000001    1    5    5    0    0 -0.22541673693E+00 -0.87790125905E+00 -0.73235615676E+00  0.15355353680E+01  0.10000000000E+01 0. -1.
        -13    1    6    6    0    0 -0.20947478706E+02 -0.12229806107E+02 -0.29856167422E+01  0.24439516236E+02  0.10500000000E+00 0.  1.
         13    1    6    6    0    0 -0.31264972533E+02 -0.18311426379E+02 -0.46101901688E+01  0.36524946569E+02  0.10500000000E+00 0. -1.
</event>
<event>
11    0  0.3439373E-009  0.9118800E+02  0.7816531E-02  0.1126479E+00
         25   -1    0    0    0    0  0.00000000000E+00  0.00000000000E+00  0.99999998245E-14  0.12500000000E+03  0.12500000000E+03 0.  0.
    3000001    1    3    3    0    0  0.34699807772E+02  0.22761221875E+02  0.41286812430E+02  0.58546996177E+02  0.10000000000E+01 0.  1.
    1000022    2    1    0    0    0  0.38175109509E+02  0.22217712902E+02  0.43073023089E+02  0.62499991340E+02  0.99998923422E+01 0.  0.
    3000022    2    3    3    0    0  0.34753017368E+01 -0.54350897280E+00  0.17862106592E+01  0.39529951636E+01  0.24999615847E+00 0.  0.
    1000022    2    1    0    0    0 -0.38175109509E+02 -0.22217712902E+02 -0.43073023089E+02  0.62500008660E+02  0.10000000590E+02 0.  0.
    3000022    2    5    5    0    0 -0.15432109595E+02 -0.52926409387E+01 -0.20785211256E+02  0.26424412166E+02  0.24999343393E+00 0.  0.
        -13    1    4    4    0    0  0.20943690941E+01 -0.27470450356E+00  0.11110104322E+01  0.23889775318E+01  0.10500000000E+00 0. -1.
         13    1    4    4    0    0  0.13809326427E+01 -0.26880446924E+00  0.67520022695E+00  0.15640176319E+01  0.10500000000E+00 0. -1.
    3000001    1    5    5    0    0 -0.22742999914E+02 -0.16925071963E+02 -0.22287811833E+02  0.36075596493E+02  0.10000000000E+01 0.  1.
        -13    1    6    6    0    0 -0.79427188187E+01 -0.26528081993E+01 -0.10657404882E+02  0.13554168267E+02  0.10500000000E+00 0.  1.
         13    1    6    6    0    0 -0.74893907767E+01 -0.26398327394E+01 -0.10127806374E+02  0.12870243900E+02  0.10500000000E+00 0. -1.
</event>
<event>
11    0  0.3439373E-009  0.9118800E+02  0.7816531E-02  0.1126479E+00
         25   -1    0    0    0    0  0.00000000000E+00  0.00000000000E+00  0.99999998245E-14  0.12500000000E+03  0.12500000000E+03 0.  0.
    3000001    1    3    3    0    0  0.11813449935E+01 -0.19857885836E+02 -0.31617044435E+02  0.37368017136E+02  0.10000000000E+01 0. -1.
    1000022    2    1    0    0    0 -0.43675284572E+01 -0.28427989774E+02 -0.54580426054E+02  0.62499990250E+02  0.99999982786E+01 0.  0.
    3000022    2    3    3    0    0 -0.55488734507E+01 -0.85701039376E+01 -0.22963381619E+02  0.25131973114E+02  0.24999825728E+00 0.  0.
    1000022    2    1    0    0    0  0.43675284572E+01  0.28427989774E+02  0.54580426054E+02  0.62500009750E+02  0.10000120153E+02 0.  0.
    3000022    2    5    5    0    0  0.70294817897E+01  0.13216148619E+02  0.27324984530E+02  0.31157623121E+02  0.25000096100E+00 0.  0.
        -13    1    4    4    0    0 -0.31169648237E+01 -0.48434122395E+01 -0.12796350543E+02  0.14033236407E+02  0.10500000000E+00 0.  1.
         13    1    4    4    0    0 -0.24319086270E+01 -0.37266916981E+01 -0.10167031076E+02  0.11098736707E+02  0.10500000000E+00 0. -1.
    3000001    1    5    5    0    0 -0.26619533325E+01  0.15211841155E+02  0.27255441525E+02  0.31342386629E+02  0.10000000000E+01 0.  1.
        -13    1    6    6    0    0  0.34979170594E+01  0.66613841297E+01  0.13848119796E+02  0.15760422240E+02  0.10500000000E+00 0.  1.
         13    1    6    6    0    0  0.35315647303E+01  0.65547644889E+01  0.13476864733E+02  0.15397200882E+02  0.10500000000E+00 0. -1.
</event>
<event>
11    0  0.3439373E-009  0.9118800E+02  0.7816531E-02  0.1126479E+00
         25   -1    0    0    0    0  0.00000000000E+00  0.00000000000E+00  0.99999998245E-14  0.12500000000E+03  0.12500000000E+03 0.  0.
    3000001    1    3    3    0    0  0.43654981354E+02  0.32290114172E+02  0.84239182080E+01  0.54957904511E+02  0.10000000000E+01 0. -1.
    1000022    2    1    0    0    0  0.51086928406E+02  0.33549773230E+02  0.84135872081E+01  0.62499999743E+02  0.99999990215E+01 0.  0.
    3000022    2    3    3    0    0  0.74319470513E+01  0.12596590577E+01 -0.10330999822E-01  0.75420952314E+01  0.25003166798E+00 0.  0.
    1000022    2    1    0    0    0 -0.51086928406E+02 -0.33549773230E+02 -0.84135872081E+01  0.62500000257E+02  0.10000002239E+02 0.  0.
    3000022    2    5    5    0    0  0.11777749663E+00  0.64618306740E-01 -0.70054280407E+00  0.75584847869E+00  0.24999927625E+00 0.  0.
        -13    1    4    4    0    0  0.51976516801E+01  0.92642584028E+00 -0.16590449916E-01  0.52806389829E+01  0.10500000000E+00 0.  1.
         13    1    4    4    0    0  0.22342953712E+01  0.33323321742E+00  0.62594500944E-02  0.22614562485E+01  0.10500000000E+00 0. -1.
    3000001    1    5    5    0    0 -0.51204705902E+02 -0.33614391536E+02 -0.77130444041E+01  0.61744151779E+02  0.10000000000E+01 0.  1.
        -13    1    6    6    0    0  0.12378673515E+00  0.62919683672E-01 -0.36869154324E+00  0.40772600658E+00  0.10500000000E+00 0.  1.
         13    1    6    6    0    0 -0.60092385183E-02  0.16986230675E-02 -0.33185126083E+00  0.34812247210E+00  0.10500000000E+00 0. -1.
</event>
<event>
11    0  0.3439373E-009  0.9118800E+02  0.7816531E-02  0.1126479E+00
         25   -1    0    0    0    0  0.00000000000E+00  0.00000000000E+00  0.99999998245E-14  0.12500000000E+03  0.12500000000E+03 0.  0.
    3000001    1    3    3    0    0 -0.54587237198E+02  0.31426997701E+01  0.27688664663E+02  0.61296861074E+02  0.10000000000E+01 0. -1.
    1000022    2    1    0    0    0 -0.54577102393E+02  0.40069335602E+01  0.28487434011E+02  0.62499996220E+02  0.10000000436E+02 0.  0.
    3000022    2    3    3    0    0  0.10134804642E-01  0.86423379010E+00  0.79876934888E+00  0.12031351456E+01  0.24999789549E+00 0.  0.
    1000022    2    1    0    0    0  0.54577102393E+02 -0.40069335602E+01 -0.28487434011E+02  0.62500003780E+02  0.10000047688E+02 0.  0.
    3000022    2    5    5    0    0  0.50043972534E+01  0.21169987008E+01 -0.11856883614E+01  0.55672280111E+01  0.24999093647E+00 0.  0.
        -13    1    4    4    0    0 -0.18941075809E-01  0.20083746833E+00  0.19838297322E+00  0.30178677424E+00  0.10500000000E+00 0.  1.
         13    1    4    4    0    0  0.29075880450E-01  0.66339632177E+00  0.60038637566E+00  0.90134837141E+00  0.10500000000E+00 0. -1.
    3000001    1    5    5    0    0  0.49572705140E+02 -0.61239322610E+01 -0.27301745650E+02  0.56932775769E+02  0.10000000000E+01 0. -1.
        -13    1    6    6    0    0  0.34595535801E+01  0.14105886886E+01 -0.80885224323E+00  0.38240735313E+01  0.10500000000E+00 0. -1.
         13    1    6    6    0    0  0.15448436733E+01  0.70641001218E+00 -0.37683611813E+00  0.17431544798E+01  0.10500000000E+00 0.  1.
</event>
<event>
11    0  0.3439373E-009  0.9118800E+02  0.7816531E-02  0.1126479E+00
         25   -1    0    0    0    0  0.00000000000E+00  0.00000000000E+00  0.99999998245E-14  0.12500000000E+03  0.12500000000E+03 0.  0.
    3000001    1    3    3    0    0 -0.93621042065E+01  0.80856189299E+01  0.34534866619E+02  0.36697183013E+02  0.10000000000E+01 0. -1.
    1000022    2    1    0    0    0 -0.89276512267E+01  0.18183649867E+02  0.58274367752E+02  0.62500000534E+02  0.10000002553E+02 0.  0.
    3000022    2    3    3    0    0  0.43445297978E+00  0.10098030937E+02  0.23739501132E+02  0.25802817522E+02  0.24999972687E+00 0.  0.
    1000022    2    1    0    0    0  0.89276512267E+01 -0.18183649867E+02 -0.58274367752E+02  0.62499999466E+02  0.99999958727E+01 0.  0.
    3000022    2    5    5    0    0  0.37561139150E+01 -0.10816614391E+02 -0.18914959528E+02  0.22112117303E+02  0.24999810577E+00 0.  0.
        -13    1    4    4    0    0  0.14080745904E+00  0.32736035480E+01  0.78303269732E+01  0.84888958314E+01  0.10500000000E+00 0. -1.
         13    1    4    4    0    0  0.29364552074E+00  0.68244273888E+01  0.15909174159E+02  0.17313921690E+02  0.10500000000E+00 0.  1.
    3000001    1    5    5    0    0  0.51715373117E+01 -0.73670354759E+01 -0.39359408224E+02  0.40387882163E+02  0.10000000000E+01 0.  1.
        -13    1    6    6    0    0  0.15874379616E+01 -0.44058600239E+01 -0.78014696043E+01  0.90997535581E+01  0.10500000000E+00 0.  1.
         13    1    6    6    0    0  0.21686759534E+01 -0.64107543670E+01 -0.11113489924E+02  0.13012363745E+02  0.10500000000E+00 0. -1.
</event>
<event>
11    0  0.3439373E-009  0.9118800E+02  0.7816531E-02  0.1126479E+00
         25   -1    0    0    0    0  0.00000000000E+00  0.00000000000E+00  0.99999998245E-14  0.12500000000E+03  0.12500000000E+03 0.  0.
    3000001    1    3    3    0    0 -0.54416800282E+01 -0.12505653088E+02 -0.10846542005E+01  0.13717861183E+02  0.10000000000E+01 0. -1.
    1000022    2    1    0    0    0 -0.39477093208E+02 -0.47405818941E+02  0.70521483346E+00  0.62499999916E+02  0.10000005196E+02 0.  0.
    3000022    2    3    3    0    0 -0.34035413180E+02 -0.34900165852E+02  0.17898690339E+01  0.48782138733E+02  0.25000273287E+00 0.  0.
    1000022    2    1    0    0    0  0.39477093208E+02  0.47405818941E+02 -0.70521483346E+00  0.62500000084E+02  0.10000006244E+02 0.  0.
    3000022    2    5    5    0    0  0.25934918191E+02  0.31242062300E+02 -0.51393584754E+01  0.40928742291E+02  0.25000323618E+00 0.  0.
        -13    1    4    4    0    0 -0.18503310861E+02 -0.19050149122E+02  0.93497084186E+00  0.26573782001E+02  0.10500000000E+00 0. -1.
         13    1    4    4    0    0 -0.15532102320E+02 -0.15850016730E+02  0.85489819206E+00  0.22208356732E+02  0.10500000000E+00 0.  1.
    3000001    1    5    5    0    0  0.13542175018E+02  0.16163756640E+02  0.44341436420E+01  0.21571257793E+02  0.10000000000E+01 0. -1.
        -13    1    6    6    0    0  0.16668000323E+02  0.20090986706E+02 -0.33617315686E+01  0.26320756937E+02  0.10500000000E+00 0.  1.
         13    1    6    6    0    0  0.92669178674E+01  0.11151075594E+02 -0.17776269069E+01  0.14607985354E+02  0.10500000000E+00 0. -1.
</event>
<event>
11    0  0.3439373E-009  0.9118800E+02  0.7816531E-02  0.1126479E+00
         25   -1    0    0    0    0  0.00000000000E+00  0.00000000000E+00  0.99999998245E-14  0.12500000000E+03  0.12500000000E+03 0.  0.
    3000001    1    3    3    0    0 -0.91434089800E+01 -0.20185611994E+02 -0.37841155138E+02  0.43863582634E+02  0.10000000000E+01 0. -1.
    1000022    2    1    0    0    0 -0.71633661489E+01 -0.26414425765E+02 -0.55292078856E+02  0.62499996682E+02  0.99999948974E+01 0.  0.
    3000022    2    3    3    0    0  0.19800428311E+01 -0.62288137713E+01 -0.17450923718E+02  0.18636414048E+02  0.24999867027E+00 0.  0.
    1000022    2    1    0    0    0  0.71633661489E+01  0.26414425765E+02  0.55292078856E+02  0.62500003318E+02  0.10000036373E+02 0.  0.
    3000022    2    5    5    0    0 -0.24109360478E+01  0.69860296953E+01  0.15882233745E+02  0.17519277134E+02  0.24999805272E+00 0.  0.
        -13    1    4    4    0    0  0.96879193810E+00 -0.31020646999E+01 -0.88643892341E+01  0.94419163688E+01  0.10500000000E+00 0.  1.
         13    1    4    4    0    0  0.10112508930E+01 -0.31267490714E+01 -0.85865344838E+01  0.91944976788E+01  0.10500000000E+00 0. -1.
    3000001    1    5    5    0    0  0.95743021967E+01  0.19428396070E+02  0.39409845111E+02  0.44980726184E+02  0.10000000000E+01 0.  1.
        -13    1    6    6    0    0 -0.55425921367E+00  0.15995074393E+01  0.36345178512E+01  0.40107820104E+01  0.10500000000E+00 0.  1.
         13    1    6    6    0    0 -0.18566768341E+01  0.53865222560E+01  0.12247715894E+02  0.13508495123E+02  0.10500000000E+00 0. -1.
</event>
<event>
11    0  0.3439373E-009  0.9118800E+02  0.7816531E-02  0.1126479E+00
         25   -1    0    0    0    0  0.00000000000E+00  0.00000000000E+00  0.99999998245E-14  0.12500000000E+03  0.12500000000E+03 0.  0.
    3000001    1    3    3    0    0  0.18122364384E+02 -0.40368890216E+01  0.33714212410E+01  0.18896641104E+02  0.10000000000E+01 0. -1.
    1000022    2    1    0    0    0  0.55865449622E+02 -0.25857527306E+02  0.40853164842E+01  0.62499999611E+02  0.99999980392E+01 0.  0.
    3000022    2    3    3    0    0  0.37743085239E+02 -0.21820638284E+02  0.71389524322E+00  0.43603358507E+02  0.24997651436E+00 0.  0.
    1000022    2    1    0    0    0 -0.55865449622E+02  0.25857527306E+02 -0.40853164842E+01  0.62500000389E+02  0.10000002900E+02 0.  0.
    3000022    2    5    5    0    0 -0.32284632764E+02  0.18417095019E+02 -0.61192221911E+01  0.37669540693E+02  0.25002825174E+00 0.  0.
        -13    1    4    4    0    0  0.17995523531E+02 -0.10427143713E+02  0.27607913275E+00  0.20800274947E+02  0.10500000000E+00 0. -1.
         13    1    4    4    0    0  0.19747561707E+02 -0.11393494571E+02  0.43781611047E+00  0.22803083560E+02  0.10500000000E+00 0.  1.
    3000001    1    5    5    0    0 -0.23580816858E+02  0.74404322869E+01  0.20339057069E+01  0.24830459696E+02  0.10000000000E+01 0.  1.
        -13    1    6    6    0    0 -0.24827964442E+02  0.14162936676E+02 -0.47147899498E+01  0.28969930322E+02  0.10500000000E+00 0.  1.
         13    1    6    6    0    0 -0.74566683227E+01  0.42541583424E+01 -0.14044322413E+01  0.86996103704E+01  0.10500000000E+00 0. -1.
</event>
<event>
11    0  0.3439373E-009  0.9118800E+02  0.7816531E-02  0.1126479E+00
         25   -1    0    0    0    0  0.00000000000E+00  0.00000000000E+00  0.99999998245E-14  0.12500000000E+03  0.12500000000E+03 0.  0.
    3000001    1    3    3    0    0  0.82006425218E+01  0.61397665156E+01  0.26314923643E+02  0.28256370555E+02  0.10000000000E+01 0.  1.
    1000022    2    1    0    0    0  0.24116429512E+02  0.20891667556E+02  0.52803276541E+02  0.62500000634E+02  0.10000006004E+02 0.  0.
    3000022    2    3    3    0    0  0.15915786990E+02  0.14751901041E+02  0.26488352898E+02  0.34243630078E+02  0.25000372487E+00 0.  0.
    1000022    2    1    0    0    0 -0.24116429512E+02 -0.20891667556E+02 -0.52803276541E+02  0.62499999366E+02  0.99999980815E+01 0.  0.
    3000022    2    5    5    0    0 -0.22975187335E+02 -0.21791313580E+02 -0.50287176738E+02  0.59427125322E+02  0.24999820115E+00 0.  0.
        -13    1    4    4    0    0  0.57605792065E+01  0.52633731525E+01  0.95504029146E+01  0.12333231149E+02  0.10500000000E+00 0.  1.
         13    1    4    4    0    0  0.10155207784E+02  0.94885278882E+01  0.16937949984E+02  0.21910398930E+02  0.10500000000E+00 0. -1.
    3000001    1    5    5    0    0 -0.11412421772E+01  0.89964602390E+00 -0.25160998031E+01  0.30728740447E+01  0.10000000000E+01 0. -1.
        -13    1    6    6    0    0 -0.78788168501E+01 -0.74995508668E+01 -0.17371925013E+02  0.20496678312E+02  0.10500000000E+00 0. -1.
         13    1    6    6    0    0 -0.15096370485E+02 -0.14291762713E+02 -0.32915251725E+02  0.38930447010E+02  0.10500000000E+00 0.  1.
</event>
<event>
11    0  0.3439373E-009  0.9118800E+02  0.7816531E-02  0.1126479E+00
         25   -1    0    0    0    0  0.00000000000E+00  0.00000000000E+00  0.99999998245E-14  0.12500000000E+03  0.12500000000E+03 0.  0.
    3000001    1    3    3    0    0 -0.54984267495E+01 -0.10064153132E+01  0.63409764564E+00  0.57138120661E+01  0.10000000000E+01 0. -1.
    1000022    2    1    0    0    0 -0.49061580392E+02 -0.37387605493E+02 -0.11740091456E+01  0.62499999677E+02  0.99999973498E+01 0.  0.
    3000022    2    3    3    0    0 -0.43563153643E+02 -0.36381190180E+02 -0.18081067912E+01  0.56786187611E+02  0.24999789503E+00 0.  0.
    1000022    2    1    0    0    0  0.49061580392E+02  0.37387605493E+02  0.11740091456E+01  0.62500000323E+02  0.10000001391E+02 0.  0.
    3000022    2    5    5    0    0  0.21525509163E+02  0.11577774464E+02  0.34099922872E+01  0.24679606128E+02  0.25000991044E+00 0.  0.
        -13    1    4    4    0    0 -0.12830227695E+02 -0.10739144689E+02 -0.57334820518E+00  0.16741676275E+02  0.10500000000E+00 0. -1.
         13    1    4    4    0    0 -0.30732925948E+02 -0.25642045491E+02 -0.12347585860E+01  0.40044511335E+02  0.10500000000E+00 0.  1.
    3000001    1    5    5    0    0  0.27536071230E+02  0.25809831029E+02 -0.22359831416E+01  0.37820394196E+02  0.10000000000E+01 0.  1.
        -13    1    6    6    0    0  0.77270495121E+01  0.42050529780E+01  0.12666858465E+01  0.88884915899E+01  0.10500000000E+00 0.  1.
         13    1    6    6    0    0  0.13798459650E+02  0.73727214864E+01  0.21433064407E+01  0.15791114538E+02  0.10500000000E+00 0. -1.
</event>
<event>
11    0  0.3439373E-009  0.9118800E+02  0.7816531E-02  0.1126479E+00
         25   -1    0    0    0    0  0.00000000000E+00  0.00000000000E+00  0.99999998245E-14  0.12500000000E+03  0.12500000000E+03 0.  0.
    3000001    1    3    3    0    0  0.10479678076E+02  0.67072394064E+01  0.17678343717E+02  0.21641038552E+02  0.10000000000E+01 0.  1.
    1000022    2    1    0    0    0  0.21733122802E+02  0.10553634385E+02  0.56767439959E+02  0.62499999857E+02  0.99999958593E+01 0.  0.
    3000022    2    3    3    0    0  0.11253444726E+02  0.38463949785E+01  0.39089096242E+02  0.40858961305E+02  0.25000277998E+00 0.  0.
    1000022    2    1    0    0    0 -0.21733122802E+02 -0.10553634385E+02 -0.56767439959E+02  0.62500000143E+02  0.99999976442E+01 0.  0.
    3000022    2    5    5    0    0 -0.81017948402E+01  0.96997197675E+00 -0.15262678879E+02  0.17308720034E+02  0.24999474863E+00 0.  0.
        -13    1    4    4    0    0  0.85876386424E+01  0.29517802811E+01  0.29855859898E+02  0.31206472718E+02  0.10500000000E+00 0. -1.
         13    1    4    4    0    0  0.26658060833E+01  0.89461469743E+00  0.92332363440E+01  0.96524885866E+01  0.10500000000E+00 0.  1.
    3000001    1    5    5    0    0 -0.13631327962E+02 -0.11523606362E+02 -0.41504761080E+02  0.45191280109E+02  0.10000000000E+01 0. -1.
        -13    1    6    6    0    0 -0.30760334092E+01  0.37274789131E+00 -0.59261060284E+01  0.66880998935E+01  0.10500000000E+00 0.  1.
         13    1    6    6    0    0 -0.50257614310E+01  0.59722408544E+00 -0.93365728508E+01  0.10620620140E+02  0.10500000000E+00 0. -1.
</event>
<event>
11    0  0.3439373E-009  0.9118800E+02  0.7816531E-02  0.1126479E+00
         25   -1    0    0    0    0  0.00000000000E+00  0.00000000000E+00  0.99999998245E-14  0.12500000000E+03  0.12500000000E+03 0.  0.
    3000001    1    3    3    0    0 -0.12604994640E+02  0.24277990974E+02  0.32046147785E+02  0.42145727227E+02  0.10000000000E+01 0. -1.
    1000022    2    1    0    0    0 -0.11906849376E+02  0.37176391082E+02  0.47774395896E+02  0.62500000010E+02  0.99999991072E+01 0.  0.
    3000022    2    3    3    0    0  0.69814526366E+00  0.12898400108E+02  0.15728248111E+02  0.20354272784E+02  0.24999953664E+00 0.  0.
    1000022    2    1    0    0    0  0.11906849376E+02 -0.37176391082E+02 -0.47774395896E+02  0.62499999990E+02  0.99999989775E+01 0.  0.
    3000022    2    5    5    0    0  0.86939005027E+01 -0.35308183386E+02 -0.44316814696E+02  0.57326209483E+02  0.25001771690E+00 0.  0.
        -13    1    4    4    0    0  0.37470027820E+00  0.79474338911E+01  0.97281980887E+01  0.12567854582E+02  0.10500000000E+00 0. -1.
         13    1    4    4    0    0  0.32344498546E+00  0.49509662165E+01  0.60000500223E+01  0.77864182013E+01  0.10500000000E+00 0.  1.
    3000001    1    5    5    0    0  0.32129488732E+01 -0.18682076956E+01 -0.34575811994E+01  0.51737905066E+01  0.10000000000E+01 0.  1.
        -13    1    6    6    0    0  0.61161268589E+01 -0.24653779080E+02 -0.30936142333E+02  0.40028386904E+02  0.10500000000E+00 0.  1.
         13    1    6    6    0    0  0.25777736438E+01 -0.10654404307E+02 -0.13380672363E+02  0.17297822579E+02  0.10500000000E+00 0. -1.
</event>
<event>
11    0  0.3439373E-009  0.9118800E+02  0.7816531E-02  0.1126479E+00
         25   -1    0    0    0    0  0.00000000000E+00  0.00000000000E+00  0.99999998245E-14  0.12500000000E+03  0.12500000000E+03 0.  0.
    3000001    1    3    3    0    0 -0.25059279255E+02  0.52673960741E+00  0.20423724195E+02  0.32347696075E+02  0.10000000000E+01 0.  1.
    1000022    2    1    0    0    0 -0.41536331730E+02  0.38478749793E+01  0.45455218057E+02  0.62499999227E+02  0.10000002965E+02 0.  0.
    3000022    2    3    3    0    0 -0.16477052476E+02  0.33211353718E+01  0.25031493861E+02  0.30152303151E+02  0.25000392169E+00 0.  0.
    1000022    2    1    0    0    0  0.41536331730E+02 -0.38478749793E+01 -0.45455218057E+02  0.62500000773E+02  0.10000012629E+02 0.  0.
    3000022    2    5    5    0    0  0.55512598290E+01  0.17296951587E+01 -0.10545453870E+02  0.12044809525E+02  0.25001623358E+00 0.  0.
        -13    1    4    4    0    0 -0.11813490372E+02  0.23908025964E+01  0.17877392903E+02  0.21561231269E+02  0.10500000000E+00 0. -1.
         13    1    4    4    0    0 -0.46635621031E+01  0.93033277547E+00  0.71541009589E+01  0.85910718827E+01  0.10500000000E+00 0.  1.
    3000001    1    5    5    0    0  0.35985071901E+02 -0.55775701379E+01 -0.34909764186E+02  0.50455191249E+02  0.10000000000E+01 0. -1.
        -13    1    6    6    0    0  0.33510104222E+01  0.98030614335E+00 -0.62959568696E+01  0.72000256172E+01  0.10500000000E+00 0.  1.
         13    1    6    6    0    0  0.22002494069E+01  0.74938901533E+00 -0.42494970009E+01  0.48447839074E+01  0.10500000000E+00 0. -1.
</event>
<event>
11    0  0.3439373E-009  0.9118800E+02  0.7816531E-02  0.1126479E+00
         25   -1    0    0    0    0  0.00000000000E+00  0.00000000000E+00  0.99999998245E-14  0.12500000000E+03  0.12500000000E+03 0.  0.
    3000001    1    3    3    0    0 -0.10911653255E+02 -0.24793535544E+02  0.10665611759E+02  0.29129690278E+02  0.10000000000E+01 0. -1.
    1000022    2    1    0    0    0 -0.17464087477E+02 -0.50310795834E+02  0.31146093800E+02  0.62500000594E+02  0.10000019321E+02 0.  0.
    3000022    2    3    3    0    0 -0.65524342227E+01 -0.25517260290E+02  0.20480482040E+02  0.33370310316E+02  0.24999800551E+00 0.  0.
    1000022    2    1    0    0    0  0.17464087477E+02  0.50310795834E+02 -0.31146093800E+02  0.62499999406E+02  0.10000011893E+02 0.  0.
    3000022    2    5    5    0    0  0.73944858566E-01  0.25806062565E+01  0.49973588898E+00  0.26414445109E+01  0.24999330434E+00 0.  0.
        -13    1    4    4    0    0 -0.16443831114E+01 -0.63384882997E+01  0.50661950576E+01  0.82799629893E+01  0.10500000000E+00 0.  1.
         13    1    4    4    0    0 -0.49080511113E+01 -0.19178771991E+02  0.15414286983E+02  0.25090347326E+02  0.10500000000E+00 0. -1.
    3000001    1    5    5    0    0  0.17390142619E+02  0.47730189578E+02 -0.31645829688E+02  0.59858554895E+02  0.10000000000E+01 0.  1.
        -13    1    6    6    0    0  0.43541855619E-01  0.19118767026E+01  0.39934446543E+00  0.19564430534E+01  0.10500000000E+00 0.  1.
         13    1    6    6    0    0  0.30403002947E-01  0.66872955399E+00  0.10039142356E+00  0.68500145759E+00  0.10500000000E+00 0. -1.
</event>
<event>
11    0  0.3439373E-009  0.9118800E+02  0.7816531E-02  0.1126479E+00
         25   -1    0    0    0    0  0.00000000000E+00  0.00000000000E+00  0.99999998245E-14  0.12500000000E+03  0.12500000000E+03 0.  0.
    3000001    1    3    3    0    0  0.19249558459E+02  0.25477940504E+02 -0.41846540519E+02  0.52647924048E+02  0.10000000000E+01 0. -1.
    1000022    2    1    0    0    0  0.21725349225E+02  0.26448591166E+02 -0.51329634013E+02  0.62499992982E+02  0.99999510588E+01 0.  0.
    3000022    2    3    3    0    0  0.24757907652E+01  0.97065066275E+00 -0.94830934940E+01  0.98520689333E+01  0.24999485783E+00 0.  0.
    1000022    2    1    0    0    0 -0.21725349225E+02 -0.26448591166E+02  0.51329634013E+02  0.62500007018E+02  0.10000038788E+02 0.  0.
    3000022    2    5    5    0    0  0.66403403871E+00 -0.35863501161E-01  0.27164217229E+01  0.28077874685E+01  0.24999219229E+00 0.  0.
        -13    1    4    4    0    0  0.14839867191E+01  0.59179928057E+00 -0.54589237627E+01  0.56888765691E+01  0.10500000000E+00 0. -1.
         13    1    4    4    0    0  0.99180404607E+00  0.37885138218E+00 -0.40241697312E+01  0.41631923642E+01  0.10500000000E+00 0.  1.
    3000001    1    5    5    0    0 -0.22389383263E+02 -0.26412727665E+02  0.48613212290E+02  0.59692219550E+02  0.10000000000E+01 0. -1.
        -13    1    6    6    0    0  0.27004041481E+00 -0.69805022650E-01  0.10140948360E+01  0.10569805595E+01  0.10500000000E+00 0. -1.
         13    1    6    6    0    0  0.39399362390E+00  0.33941521489E-01  0.17023268869E+01  0.17508069090E+01  0.10500000000E+00 0.  1.
</event>
<event>
11    0  0.3439373E-009  0.9118800E+02  0.7816531E-02  0.1126479E+00
         25   -1    0    0    0    0  0.00000000000E+00  0.00000000000E+00  0.99999998245E-14  0.12500000000E+03  0.12500000000E+03 0.  0.
    3000001    1    3    3    0    0 -0.42211330770E+00  0.74897936155E-02 -0.72872138851E+00  0.13073907616E+01  0.10000000000E+01 0. -1.
    1000022    2    1    0    0    0 -0.13929323018E+02 -0.48639073987E+02 -0.35305301142E+02  0.62499998572E+02  0.99999987311E+01 0.  0.
    3000022    2    3    3    0    0 -0.13507209710E+02 -0.48646563781E+02 -0.34576579754E+02  0.61192607810E+02  0.25000253434E+00 0.  0.
    1000022    2    1    0    0    0  0.13929323018E+02  0.48639073987E+02  0.35305301142E+02  0.62500001428E+02  0.10000016584E+02 0.  0.
    3000022    2    5    5    0    0 -0.15003941654E+01  0.27655504099E+01  0.24228199277E+01  0.39789461694E+01  0.25000899131E+00 0.  0.
        -13    1    4    4    0    0 -0.45389686362E+01 -0.16154540186E+02 -0.11508693732E+02  0.20347787627E+02  0.10500000000E+00 0.  1.
         13    1    4    4    0    0 -0.89682410740E+01 -0.32492023595E+02 -0.23067886022E+02  0.40844820183E+02  0.10500000000E+00 0. -1.
    3000001    1    5    5    0    0  0.15429717183E+02  0.45873523577E+02  0.32882481215E+02  0.58521055259E+02  0.10000000000E+01 0. -1.
        -13    1    6    6    0    0 -0.85422791131E+00  0.15734852009E+01  0.12949309341E+01  0.22121103331E+01  0.10500000000E+00 0.  1.
         13    1    6    6    0    0 -0.64616625411E+00  0.11920652090E+01  0.11278889936E+01  0.17668358363E+01  0.10500000000E+00 0. -1.
</event>
<event>
11    0  0.3439373E-009  0.9118800E+02  0.7816531E-02  0.1126479E+00
         25   -1    0    0    0    0  0.00000000000E+00  0.00000000000E+00  0.99999998245E-14  0.12500000000E+03  0.12500000000E+03 0.  0.
    3000001    1    3    3    0    0  0.12932820566E+02 -0.98889677635E+01  0.10409974778E+02  0.19349860622E+02  0.10000000000E+01 0.  1.
    1000022    2    1    0    0    0  0.49206471313E+02 -0.19418745863E+02  0.31747202325E+02  0.62499996135E+02  0.10000007574E+02 0.  0.
    3000022    2    3    3    0    0  0.36273650747E+02 -0.95297780994E+01  0.21337227547E+02  0.43150135513E+02  0.25001254076E+00 0.  0.
    1000022    2    1    0    0    0 -0.49206471313E+02  0.19418745863E+02 -0.31747202325E+02  0.62500003865E+02  0.10000055881E+02 0.  0.
    3000022    2    5    5    0    0 -0.31811895278E+02  0.12518854255E+02 -0.14872815172E+02  0.37282455977E+02  0.24999907427E+00 0.  0.
        -13    1    4    4    0    0  0.27054799412E+02 -0.71291409035E+01  0.15940103268E+02  0.32200694689E+02  0.10500000000E+00 0.  1.
         13    1    4    4    0    0  0.92188513349E+01 -0.24006371959E+01  0.53971242797E+01  0.10949440825E+02  0.10500000000E+00 0. -1.
    3000001    1    5    5    0    0 -0.17394576035E+02  0.68998916078E+01 -0.16874387153E+02  0.25217547887E+02  0.10000000000E+01 0. -1.
        -13    1    6    6    0    0 -0.15972799864E+02  0.62217646557E+01 -0.74929128013E+01  0.18708165548E+02  0.10500000000E+00 0. -1.
         13    1    6    6    0    0 -0.15839095414E+02  0.62970895994E+01 -0.73799023706E+01  0.18574290429E+02  0.10500000000E+00 0.  1.
</event>
<event>
11    0  0.3439373E-009  0.9118800E+02  0.7816531E-02  0.1126479E+00
         25   -1    0    0    0    0  0.00000000000E+00  0.00000000000E+00  0.99999998245E-14  0.12500000000E+03  0.12500000000E+03 0.  0.
    3000001    1    3    3    0    0 -0.12953887642E+01 -0.68672208839E+01 -0.33328663690E+02  0.34068116739E+02  0.10000000000E+01 0.  1.
    1000022    2    1    0    0    0 -0.88400621796E+01 -0.62844881978E+01 -0.60733915932E+02  0.62500000532E+02  0.10000001543E+02 0.  0.
    3000022    2    3    3    0    0 -0.75446734154E+01  0.58273268606E+00 -0.27405252241E+02  0.28431883793E+02  0.24998262576E+00 0.  0.
    1000022    2    1    0    0    0  0.88400621796E+01  0.62844881978E+01  0.60733915932E+02  0.62499999468E+02  0.99999948926E+01 0.  0.
    3000022    2    5    5    0    0  0.95378105611E+01  0.13374374153E+01  0.41362436299E+02  0.42469662791E+02  0.25010362140E+00 0.  0.
        -13    1    4    4    0    0 -0.45864679487E+01  0.29306956905E+00 -0.16686918719E+02  0.17308548736E+02  0.10500000000E+00 0. -1.
         13    1    4    4    0    0 -0.29582054667E+01  0.28966311701E+00 -0.10718333522E+02  0.11123335058E+02  0.10500000000E+00 0.  1.
    3000001    1    5    5    0    0 -0.69774838148E+00  0.49470507825E+01  0.19371479632E+02  0.20030336677E+02  0.10000000000E+01 0. -1.
        -13    1    6    6    0    0  0.42253526831E+01  0.62800807255E+00  0.18098291048E+02  0.18595891033E+02  0.10500000000E+00 0.  1.
         13    1    6    6    0    0  0.53124578779E+01  0.70942934280E+00  0.23264145251E+02  0.23873771758E+02  0.10500000000E+00 0. -1.
</event>
<event>
11    0  0.3439373E-009  0.9118800E+02  0.7816531E-02  0.1126479E+00
         25   -1    0    0    0    0  0.00000000000E+00  0.00000000000E+00  0.99999998245E-14  0.12500000000E+03  0.12500000000E+03 0.  0.
    3000001    1    3    3    0    0 -0.80256568131E+00 -0.29046466024E+01 -0.46303143862E+01  0.56143472348E+01  0.10000000000E+01 0.  1.
    1000022    2    1    0    0    0 -0.11949676711E+02 -0.52714155342E+02 -0.29743453452E+02  0.62500000380E+02  0.10000003868E+02 0.  0.
    3000022    2    3    3    0    0 -0.11147111030E+02 -0.49809508739E+02 -0.25113139066E+02  0.56885653145E+02  0.25006972183E+00 0.  0.
    1000022    2    1    0    0    0  0.11949676711E+02  0.52714155342E+02  0.29743453452E+02  0.62499999620E+02  0.99999991182E+01 0.  0.
    3000022    2    5    5    0    0  0.12954056043E+02  0.38836838676E+02  0.20711222518E+02  0.45881639552E+02  0.25000709973E+00 0.  0.
        -13    1    4    4    0    0 -0.59944602463E+01 -0.26963473346E+02 -0.13529273304E+02  0.30757352123E+02  0.10500000000E+00 0. -1.
         13    1    4    4    0    0 -0.51526507832E+01 -0.22846035394E+02 -0.11583865762E+02  0.26128301022E+02  0.10500000000E+00 0.  1.
    3000001    1    5    5    0    0 -0.10043793319E+01  0.13877316666E+02  0.90322309335E+01  0.16618360067E+02  0.10000000000E+01 0.  1.
        -13    1    6    6    0    0  0.52322912919E+01  0.15573981471E+02  0.82530487935E+01  0.18386125487E+02  0.10500000000E+00 0. -1.
         13    1    6    6    0    0  0.77217647509E+01  0.23262857204E+02  0.12458173725E+02  0.27495514066E+02  0.10500000000E+00 0.  1.
</event>
<event>
11    0  0.3439373E-009  0.9118800E+02  0.7816531E-02  0.1126479E+00
         25   -1    0    0    0    0  0.00000000000E+00  0.00000000000E+00  0.99999998245E-14  0.12500000000E+03  0.12500000000E+03 0.  0.
    3000001    1    3    3    0    0 -0.22009795801E+01  0.31572522654E+01  0.41182222048E+01  0.57247102204E+01  0.10000000000E+01 0.  1.
    1000022    2    1    0    0    0 -0.82905757481E+01  0.13908170610E+02  0.59532168797E+02  0.62499998861E+02  0.99999940031E+01 0.  0.
    3000022    2    3    3    0    0 -0.60895961680E+01  0.10750918344E+02  0.55413946592E+02  0.56775288641E+02  0.24999323221E+00 0.  0.
    1000022    2    1    0    0    0  0.82905757481E+01 -0.13908170610E+02 -0.59532168797E+02  0.62500001139E+02  0.10000008237E+02 0.  0.
    3000022    2    5    5    0    0  0.38728617843E+01 -0.76443283111E+01 -0.14790530790E+02  0.17095529018E+02  0.24999526321E+00 0.  0.
        -13    1    4    4    0    0 -0.44128225363E+01  0.78567012051E+01  0.40481564527E+02  0.41472507136E+02  0.10500000000E+00 0.  1.
         13    1    4    4    0    0 -0.16767736317E+01  0.28942171393E+01  0.14932382065E+02  0.15302781505E+02  0.10500000000E+00 0. -1.
    3000001    1    5    5    0    0  0.44177139638E+01 -0.62638422987E+01 -0.44741638007E+02  0.45404472121E+02  0.10000000000E+01 0.  1.
        -13    1    6    6    0    0  0.18363162869E+01 -0.34901540874E+01 -0.68632744273E+01  0.79163624174E+01  0.10500000000E+00 0.  1.
         13    1    6    6    0    0  0.20365454974E+01 -0.41541742238E+01 -0.79272563625E+01  0.91791666006E+01  0.10500000000E+00 0. -1.
</event>
<event>
11    0  0.3439373E-009  0.9118800E+02  0.7816531E-02  0.1126479E+00
         25   -1    0    0    0    0  0.00000000000E+00  0.00000000000E+00  0.99999998245E-14  0.12500000000E+03  0.12500000000E+03 0.  0.
    3000001    1    3    3    0    0  0.39916794160E+02  0.44042473790E+02  0.81455880457E+01  0.60003671206E+02  0.10000000000E+01 0.  1.
    1000022    2    1    0    0    0  0.40778756593E+02  0.45161175012E+02  0.10188793125E+02  0.62499999970E+02  0.99999886598E+01 0.  0.
    3000022    2    3    3    0    0  0.86196243254E+00  0.11187012223E+01  0.20432050792E+01  0.24963287644E+01  0.24999728863E+00 0.  0.
    1000022    2    1    0    0    0 -0.40778756593E+02 -0.45161175012E+02 -0.10188793125E+02  0.62500000030E+02  0.99999890300E+01 0.  0.
    3000022    2    5    5    0    0 -0.30930617351E+02 -0.34551620874E+02 -0.34535896812E+01  0.46502767426E+02  0.25000373821E+00 0.  0.
        -13    1    4    4    0    0  0.27491860576E+00  0.32809319000E+00  0.70760964154E+00  0.83364368042E+00  0.10500000000E+00 0.  1.
         13    1    4    4    0    0  0.58704382678E+00  0.79060803232E+00  0.13355954377E+01  0.16626850840E+01  0.10500000000E+00 0. -1.
    3000001    1    5    5    0    0 -0.98481392418E+01 -0.10609554139E+02 -0.67352034437E+01  0.15997232604E+02  0.10000000000E+01 0.  1.
        -13    1    6    6    0    0 -0.11191171657E+02 -0.12418620872E+02 -0.12635441898E+01  0.16765203140E+02  0.10500000000E+00 0.  1.
         13    1    6    6    0    0 -0.19739445694E+02 -0.22133000002E+02 -0.21900454914E+01  0.29737564286E+02  0.10500000000E+00 0. -1.
</event>
<event>
11    0  0.3439373E-009  0.9118800E+02  0.7816531E-02  0.1126479E+00
         25   -1    0    0    0    0  0.00000000000E+00  0.00000000000E+00  0.99999998245E-14  0.12500000000E+03  0.12500000000E+03 0.  0.
    3000001    1    3    3    0    0  0.50989458350E+02  0.14714155646E+02  0.26401634850E+02  0.59283029291E+02  0.10000000000E+01 0.  1.
    1000022    2    1    0    0    0  0.52687489207E+02  0.17370267814E+02  0.26991701118E+02  0.62500002860E+02  0.10000035266E+02 0.  0.
    3000022    2    3    3    0    0  0.16980308575E+01  0.26561121680E+01  0.59006626757E+00  0.32169735684E+01  0.25000019587E+00 0.  0.
    1000022    2    1    0    0    0 -0.52687489207E+02 -0.17370267814E+02 -0.26991701118E+02  0.62499997140E+02  0.99999995212E+01 0.  0.
    3000022    2    5    5    0    0 -0.37066348271E+02 -0.79381249383E+01 -0.20571735750E+02  0.43129883080E+02  0.25000214591E+00 0.  0.
        -13    1    4    4    0    0  0.11560042386E+01  0.18907477249E+01  0.42251201753E+00  0.22584982099E+01  0.10500000000E+00 0. -1.
         13    1    4    4    0    0  0.54202661883E+00  0.76536444303E+00  0.16755425004E+00  0.95847535852E+00  0.10500000000E+00 0.  1.
    3000001    1    5    5    0    0 -0.15621140936E+02 -0.94321428755E+01 -0.64199653677E+01  0.19370114060E+02  0.10000000000E+01 0.  1.
        -13    1    6    6    0    0 -0.16212838193E+02 -0.34712909685E+01 -0.90731269520E+01  0.18900757681E+02  0.10500000000E+00 0. -1.
         13    1    6    6    0    0 -0.20853510078E+02 -0.44668339699E+01 -0.11498608798E+02  0.24229125399E+02  0.10500000000E+00 0.  1.
</event>
<event>
11    0  0.3439373E-009  0.9118800E+02  0.7816531E-02  0.1126479E+00
         25   -1    0    0    0    0  0.00000000000E+00  0.00000000000E+00  0.99999998245E-14  0.12500000000E+03  0.12500000000E+03 0.  0.
    3000001    1    3    3    0    0  0.46674245826E+01  0.27446129118E+01 -0.89485614373E+01  0.10506878893E+02  0.10000000000E+01 0. -1.
    1000022    2    1    0    0    0  0.44459980048E+02  0.16211690112E+02 -0.39582081765E+02  0.62500000625E+02  0.10000007956E+02 0.  0.
    3000022    2    3    3    0    0  0.39792555465E+02  0.13467077200E+02 -0.30633520328E+02  0.51993121732E+02  0.25000204627E+00 0.  0.
    1000022    2    1    0    0    0 -0.44459980048E+02 -0.16211690112E+02  0.39582081765E+02  0.62499999375E+02  0.10000000144E+02 0.  0.
    3000022    2    5    5    0    0 -0.34760588489E+02 -0.89588566414E+01  0.26322899866E+02  0.44514235710E+02  0.24999820288E+00 0.  0.
        -13    1    4    4    0    0  0.23793368393E+02  0.80194204052E+01 -0.18377111956E+02  0.31115345924E+02  0.10500000000E+00 0.  1.
         13    1    4    4    0    0  0.15999187072E+02  0.54476567950E+01 -0.12256408372E+02  0.20877775808E+02  0.10500000000E+00 0. -1.
    3000001    1    5    5    0    0 -0.96993915584E+01 -0.72528334705E+01  0.13259181900E+02  0.17985763665E+02  0.10000000000E+01 0.  1.
        -13    1    6    6    0    0 -0.21227499557E+02 -0.55268960616E+01  0.16047772297E+02  0.27178950278E+02  0.10500000000E+00 0. -1.
         13    1    6    6    0    0 -0.13533088932E+02 -0.34319605798E+01  0.10275127568E+02  0.17335285432E+02  0.10500000000E+00 0.  1.
</event>
<event>
11    0  0.3439373E-009  0.9118800E+02  0.7816531E-02  0.1126479E+00
         25   -1    0    0    0    0  0.00000000000E+00  0.00000000000E+00  0.99999998245E-14  0.12500000000E+03  0.12500000000E+03 0.  0.
    3000001    1    3    3    0    0  0.58587299701E+01 -0.23921148732E+02  0.22641681981E+02  0.33469267044E+02  0.10000000000E+01 0. -1.
    1000022    2    1    0    0    0  0.16432198157E+02 -0.47692417633E+02  0.35519940503E+02  0.62500000690E+02  0.10000003850E+02 0.  0.
    3000022    2    3    3    0    0  0.10573468187E+02 -0.23771268901E+02  0.12878258522E+02  0.29030733646E+02  0.24999765161E+00 0.  0.
    1000022    2    1    0    0    0 -0.16432198157E+02  0.47692417633E+02 -0.35519940503E+02  0.62499999310E+02  0.99999952220E+01 0.  0.
    3000022    2    5    5    0    0 -0.53056609907E+01  0.26194155749E+02 -0.14401940164E+02  0.30360537091E+02  0.24999612420E+00 0.  0.
        -13    1    4    4    0    0  0.26767000177E+01 -0.59536796935E+01  0.32240885349E+01  0.72812634040E+01  0.10500000000E+00 0.  1.
         13    1    4    4    0    0  0.78967681692E+01 -0.17817589208E+02  0.96541699866E+01  0.21749470242E+02  0.10500000000E+00 0. -1.
    3000001    1    5    5    0    0 -0.11126537166E+02  0.21498261884E+02 -0.21118000339E+02  0.32139462218E+02  0.10000000000E+01 0.  1.
        -13    1    6    6    0    0 -0.36292349190E+01  0.17943892936E+02 -0.99210566882E+01  0.20822896787E+02  0.10500000000E+00 0.  1.
         13    1    6    6    0    0 -0.16764260717E+01  0.82502628125E+01 -0.44808834753E+01  0.95376403040E+01  0.10500000000E+00 0. -1.
</event>
<event>
11    0  0.3439373E-009  0.9118800E+02  0.7816531E-02  0.1126479E+00
         25   -1    0    0    0    0  0.00000000000E+00  0.00000000000E+00  0.99999998245E-14  0.12500000000E+03  0.12500000000E+03 0.  0.
    3000001    1    3    3    0    0  0.33281472397E+01  0.48805843899E+02  0.26752345530E+02  0.55765356218E+02  0.10000000000E+01 0.  1.
    1000022    2    1    0    0    0  0.56442339298E+00  0.53527189758E+02  0.30671995229E+02  0.62499999916E+02  0.10000004051E+02 0.  0.
    3000022    2    3    3    0    0 -0.27637238467E+01  0.47213458592E+01  0.39196496983E+01  0.67346436981E+01  0.24999151942E+00 0.  0.
    1000022    2    1    0    0    0 -0.56442339298E+00 -0.53527189758E+02 -0.30671995229E+02  0.62500000084E+02  0.10000005106E+02 0.  0.
    3000022    2    5    5    0    0  0.26834039594E+01 -0.43716680623E+02 -0.27172262567E+02  0.51543604660E+02  0.25001363570E+00 0.  0.
        -13    1    4    4    0    0 -0.14151308022E+01  0.25276717866E+01  0.21216759210E+01  0.35922490951E+01  0.10500000000E+00 0.  1.
         13    1    4    4    0    0 -0.13485930446E+01  0.21936740726E+01  0.17979737773E+01  0.31423946029E+01  0.10500000000E+00 0. -1.
    3000001    1    5    5    0    0 -0.32478273524E+01 -0.98105091350E+01 -0.34997326613E+01  0.10956395425E+02  0.10000000000E+01 0. -1.
        -13    1    6    6    0    0  0.17303341805E+01 -0.27298589914E+02 -0.16999547858E+02  0.32205631807E+02  0.10500000000E+00 0. -1.
         13    1    6    6    0    0  0.95306977890E+00 -0.16418090709E+02 -0.10172714709E+02  0.19337972853E+02  0.10500000000E+00 0.  1.
</event>
<event>
11    0  0.3439373E-009  0.9118800E+02  0.7816531E-02  0.1126479E+00
         25   -1    0    0    0    0  0.00000000000E+00  0.00000000000E+00  0.99999998245E-14  0.12500000000E+03  0.12500000000E+03 0.  0.
    3000001    1    3    3    0    0  0.15175585064E-01  0.67644226014E+00  0.14266665265E+01  0.18690055665E+01  0.10000000000E+01 0. -1.
    1000022    2    1    0    0    0  0.41814104429E+02  0.15189846518E+01  0.45337878628E+02  0.62499999117E+02  0.10000000377E+02 0.  0.
    3000022    2    3    3    0    0  0.41798928844E+02  0.84254239171E+00  0.43911212101E+02  0.60630993550E+02  0.25000100305E+00 0.  0.
    1000022    2    1    0    0    0 -0.41814104429E+02 -0.15189846518E+01 -0.45337878628E+02  0.62500000883E+02  0.10000011418E+02 0.  0.
    3000022    2    5    5    0    0 -0.19540865878E+01 -0.22302525649E+01 -0.18907848500E+01  0.35256260915E+01  0.24998218381E+00 0.  0.
        -13    1    4    4    0    0  0.31567169472E+02  0.62082715442E+00  0.33136962347E+02  0.45770524505E+02  0.10500000000E+00 0.  1.
         13    1    4    4    0    0  0.10231759372E+02  0.22171523729E+00  0.10774249754E+02  0.14860469046E+02  0.10500000000E+00 0. -1.
    3000001    1    5    5    0    0 -0.39860017841E+02  0.71126791301E+00 -0.43447093778E+02  0.58974374792E+02  0.10000000000E+01 0.  1.
        -13    1    6    6    0    0 -0.10711818889E+01 -0.12188781772E+01 -0.95501516479E+00  0.18857819638E+01  0.10500000000E+00 0.  1.
         13    1    6    6    0    0 -0.88290469891E+00 -0.10113743876E+01 -0.93576968524E+00  0.16398441277E+01  0.10500000000E+00 0. -1.
</event>
<event>
11    0  0.3439373E-009  0.9118800E+02  0.7816531E-02  0.1126479E+00
         25   -1    0    0    0    0  0.00000000000E+00  0.00000000000E+00  0.99999998245E-14  0.12500000000E+03  0.12500000000E+03 0.  0.
    3000001    1    3    3    0    0 -0.31409786562E+02  0.19983893324E+02 -0.12519067152E+02  0.39289409853E+02  0.10000000000E+01 0. -1.
    1000022    2    1    0    0    0 -0.50696491237E+02  0.32894385433E+02 -0.12412692980E+02  0.62500002142E+02  0.10000025198E+02 0.  0.
    3000022    2    3    3    0    0 -0.19286704675E+02  0.12910492109E+02  0.10637417174E+00  0.23210592289E+02  0.24999042627E+00 0.  0.
    1000022    2    1    0    0    0  0.50696491237E+02 -0.32894385433E+02  0.12412692980E+02  0.62499997858E+02  0.99999984237E+01 0.  0.
    3000022    2    5    5    0    0  0.25350449184E+02 -0.22080741179E+02  0.54308545512E+01  0.34055265171E+02  0.24999969482E+00 0.  0.
        -13    1    4    4    0    0 -0.60445878222E+01  0.40828456433E+01  0.72397942521E-01  0.72954051944E+01  0.10500000000E+00 0. -1.
         13    1    4    4    0    0 -0.13242116853E+02  0.88276464657E+01  0.33976229218E-01  0.15915187095E+02  0.10500000000E+00 0.  1.
    3000001    1    5    5    0    0  0.25346042053E+02 -0.10813644254E+02  0.69818384287E+01  0.28444732687E+02  0.10000000000E+01 0. -1.
        -13    1    6    6    0    0  0.12938266507E+02 -0.11318504921E+02  0.27194460475E+01  0.17404416269E+02  0.10500000000E+00 0.  1.
         13    1    6    6    0    0  0.12412182678E+02 -0.10762236258E+02  0.27114085037E+01  0.16650848902E+02  0.10500000000E+00 0. -1.
</event>
<event>
11    0  0.3439373E-009  0.9118800E+02  0.7816531E-02  0.1126479E+00
         25   -1    0    0    0    0  0.00000000000E+00  0.00000000000E+00  0.99999998245E-14  0.12500000000E+03  0.12500000000E+03 0.  0.
    3000001    1    3    3    0    0  0.22289556149E+01 -0.13495817554E+01  0.21080734978E+01  0.34976546314E+01  0.10000000000E+01 0.  1.
    1000022    2    1    0    0    0  0.31279011086E+02  0.89555552472E+01  0.52418234935E+02  0.62499997049E+02  0.99999886564E+01 0.  0.
    3000022    2    3    3    0    0  0.29050055471E+02  0.10305137003E+02  0.50310161437E+02  0.59002342417E+02  0.24999085833E+00 0.  0.
    1000022    2    1    0    0    0 -0.31279011086E+02 -0.89555552472E+01 -0.52418234935E+02  0.62500002951E+02  0.10000025548E+02 0.  0.
    3000022    2    5    5    0    0  0.39612131796E+00 -0.13155363463E+01 -0.28382039016E+01  0.31631393769E+01  0.25000270800E+00 0.  0.
        -13    1    4    4    0    0  0.11434564637E+02  0.40848749475E+01  0.19711094316E+02  0.23151106580E+02  0.10500000000E+00 0.  1.
         13    1    4    4    0    0  0.17615490834E+02  0.62202620552E+01  0.30599067121E+02  0.35851235837E+02  0.10500000000E+00 0. -1.
    3000001    1    5    5    0    0 -0.31675132404E+02 -0.76400189010E+01 -0.49580031033E+02  0.59336863574E+02  0.10000000000E+01 0. -1.
        -13    1    6    6    0    0  0.25349911818E+00 -0.95655604445E+00 -0.19684912271E+01  0.22057298067E+01  0.10500000000E+00 0. -1.
         13    1    6    6    0    0  0.14262219978E+00 -0.35898030181E+00 -0.86971267448E+00  0.95740957020E+00  0.10500000000E+00 0.  1.
</event>
<event>
11    0  0.3439373E-009  0.9118800E+02  0.7816531E-02  0.1126479E+00
         25   -1    0    0    0    0  0.00000000000E+00  0.00000000000E+00  0.99999998245E-14  0.12500000000E+03  0.12500000000E+03 0.  0.
    3000001    1    3    3    0    0 -0.38391357488E+02  0.30763663939E+01  0.32408484181E+02  0.50345508308E+02  0.10000000000E+01 0. -1.
    1000022    2    1    0    0    0 -0.44792516987E+02  0.74512922066E+01  0.41765535709E+02  0.62500002706E+02  0.99999515781E+01 0.  0.
    3000022    2    3    3    0    0 -0.64011594992E+01  0.43749258127E+01  0.93570515281E+01  0.12154494397E+02  0.25000389522E+00 0.  0.
    1000022    2    1    0    0    0  0.44792516987E+02 -0.74512922066E+01 -0.41765535709E+02  0.62499997294E+02  0.99999177591E+01 0.  0.
    3000022    2    5    5    0    0  0.28047808885E+02 -0.59211169091E+00 -0.28878771811E+02  0.40262589835E+02  0.24999879576E+00 0.  0.
        -13    1    4    4    0    0 -0.48146990917E+01  0.32711644121E+01  0.70542676935E+01  0.91463414350E+01  0.10500000000E+00 0. -1.
         13    1    4    4    0    0 -0.15864604075E+01  0.11037614006E+01  0.23027838346E+01  0.30081529621E+01  0.10500000000E+00 0.  1.
    3000001    1    5    5    0    0  0.16744708102E+02 -0.68591805157E+01 -0.12886763898E+02  0.22237407460E+02  0.10000000000E+01 0.  1.
        -13    1    6    6    0    0  0.10649302446E+02 -0.27824042937E+00 -0.11007905661E+02  0.15318944884E+02  0.10500000000E+00 0.  1.
         13    1    6    6    0    0  0.17398506439E+02 -0.31387126154E+00 -0.17870866150E+02  0.24943644951E+02  0.10500000000E+00 0. -1.
</event>
<event>
11    0  0.3439373E-009  0.9118800E+02  0.7816531E-02  0.1126479E+00
         25   -1    0    0    0    0  0.00000000000E+00  0.00000000000E+00  0.99999998245E-14  0.12500000000E+03  0.12500000000E+03 0.  0.
    3000001    1    3    3    0    0  0.35593010696E+01 -0.26681683274E+01  0.86458477224E+01  0.97743761523E+01  0.10000000000E+01 0. -1.
    1000022    2    1    0    0    0  0.64919471422E+00 -0.17212412837E+02  0.59241550722E+02  0.62500000177E+02  0.10000004039E+02 0.  0.
    3000022    2    3    3    0    0 -0.29101063553E+01 -0.14544244510E+02  0.50595702999E+02  0.52725624025E+02  0.24999892229E+00 0.  0.
    1000022    2    1    0    0    0 -0.64919471422E+00  0.17212412837E+02 -0.59241550722E+02  0.62499999823E+02  0.10000001824E+02 0.  0.
    3000022    2    5    5    0    0  0.84626404703E+00  0.10802009059E+01 -0.38625386609E+00  0.14473125218E+01  0.25004929973E+00 0.  0.
        -13    1    4    4    0    0 -0.22198806790E+01 -0.11058371572E+02  0.38407590708E+02  0.40029607805E+02  0.10500000000E+00 0.  1.
         13    1    4    4    0    0 -0.69022567632E+00 -0.34858729380E+01  0.12188112291E+02  0.12696016220E+02  0.10500000000E+00 0. -1.
    3000001    1    5    5    0    0 -0.14954587612E+01  0.16132211931E+02 -0.58855296856E+02  0.61052687301E+02  0.10000000000E+01 0.  1.
        -13    1    6    6    0    0  0.37418904245E+00  0.48191654249E+00 -0.10349065065E+00  0.62769125228E+00  0.10500000000E+00 0.  1.
         13    1    6    6    0    0  0.47207500457E+00  0.59828436339E+00 -0.28276321544E+00  0.81962126950E+00  0.10500000000E+00 0.  1.
</event>
<event>
11    0  0.3439373E-009  0.9118800E+02  0.7816531E-02  0.1126479E+00
         25   -1    0    0    0    0  0.00000000000E+00  0.00000000000E+00  0.99999998245E-14  0.12500000000E+03  0.12500000000E+03 0.  0.
    3000001    1    3    3    0    0 -0.27653152787E+02  0.28212771851E+02 -0.24961112514E+02  0.46740929521E+02  0.10000000000E+01 0.  1.
    1000022    2    1    0    0    0 -0.31792580652E+02  0.39747233412E+02 -0.34866017871E+02  0.62500000487E+02  0.10000005513E+02 0.  0.
    3000022    2    3    3    0    0 -0.41394278648E+01  0.11534461561E+02 -0.99049053572E+01  0.15759070965E+02  0.25000202814E+00 0.  0.
    1000022    2    1    0    0    0  0.31792580652E+02 -0.39747233412E+02  0.34866017871E+02  0.62499999513E+02  0.99999994271E+01 0.  0.
    3000022    2    5    5    0    0  0.52084296845E+01 -0.73699478584E+01  0.20069215492E+01  0.92484651356E+01  0.25000409074E+00 0.  0.
        -13    1    4    4    0    0 -0.26517985130E+01  0.74693340953E+01 -0.63410682986E+01  0.10151017651E+02  0.10500000000E+00 0.  1.
         13    1    4    4    0    0 -0.14876293518E+01  0.40651274654E+01 -0.35638370586E+01  0.56080533146E+01  0.10500000000E+00 0. -1.
    3000001    1    5    5    0    0  0.26584150968E+02 -0.32377285554E+02  0.32859096322E+02  0.53251534378E+02  0.10000000000E+01 0. -1.
        -13    1    6    6    0    0  0.39926123642E+01 -0.56305949075E+01  0.15243558871E+01  0.70695995907E+01  0.10500000000E+00 0. -1.
         13    1    6    6    0    0  0.12158173203E+01 -0.17393529510E+01  0.48256566213E+00  0.21788655449E+01  0.10500000000E+00 0.  1.
</event>
<event>
11    0  0.3439373E-009  0.9118800E+02  0.7816531E-02  0.1126479E+00
         25   -1    0    0    0    0  0.00000000000E+00  0.00000000000E+00  0.99999998245E-14  0.12500000000E+03  0.12500000000E+03 0.  0.
    3000001    1    3    3    0    0 -0.31378301521E+02 -0.15555354089E+01  0.10935873259E+01  0.31451763544E+02  0.10000000000E+01 0.  1.
    1000022    2    1    0    0    0 -0.60711199117E+02  0.10855327485E+01  0.10918878486E+02  0.62499999692E+02  0.99999987226E+01 0.  0.
    3000022    2    3    3    0    0 -0.29332897596E+02  0.26410681574E+01  0.98252911600E+01  0.31048236148E+02  0.24999825640E+00 0.  0.
    1000022    2    1    0    0    0  0.60711199117E+02 -0.10855327485E+01 -0.10918878486E+02  0.62500000308E+02  0.10000002575E+02 0.  0.
    3000022    2    5    5    0    0  0.10172878645E+02  0.35182117325E+01 -0.24268849922E+01  0.11037098594E+02  0.25000174204E+00 0.  0.
        -13    1    4    4    0    0 -0.17839361057E+02  0.16672182633E+01  0.59632532902E+01  0.18883692289E+02  0.10500000000E+00 0.  1.
         13    1    4    4    0    0 -0.11493536539E+02  0.97384989408E+00  0.38620378698E+01  0.12164543859E+02  0.10500000000E+00 0. -1.
    3000001    1    5    5    0    0  0.50538320472E+02 -0.46037444811E+01 -0.84919934937E+01  0.51462901715E+02  0.10000000000E+01 0.  1.
        -13    1    6    6    0    0  0.23577122094E+01  0.80543434917E+00 -0.56477568699E+00  0.25568589968E+01  0.10500000000E+00 0.  1.
         13    1    6    6    0    0  0.78151664360E+01  0.27127773834E+01 -0.18621093052E+01  0.84802395967E+01  0.10500000000E+00 0. -1.
</event>
<event>
11    0  0.3439373E-009  0.9118800E+02  0.7816531E-02  0.1126479E+00
         25   -1    0    0    0    0  0.00000000000E+00  0.00000000000E+00  0.99999998245E-14  0.12500000000E+03  0.12500000000E+03 0.  0.
    3000001    1    3    3    0    0  0.36223094705E+02  0.98251174824E+01 -0.30711742167E+02  0.48506253519E+02  0.10000000000E+01 0.  1.
    1000022    2    1    0    0    0  0.43055741755E+02  0.16269194873E+02 -0.41082428110E+02  0.62499995204E+02  0.99999950612E+01 0.  0.
    3000022    2    3    3    0    0  0.68326470495E+01  0.64440773910E+01 -0.10370685943E+02  0.13993741685E+02  0.24996056084E+00 0.  0.
    1000022    2    1    0    0    0 -0.43055741755E+02 -0.16269194873E+02  0.41082428110E+02  0.62500004796E+02  0.10000055009E+02 0.  0.
    3000022    2    5    5    0    0 -0.16290780498E+02 -0.22941562686E+01  0.18659250463E+02  0.24877355356E+02  0.24999890061E+00 0.  0.
        -13    1    4    4    0    0  0.48018467455E+01  0.44670087281E+01 -0.72565203225E+01  0.97816159879E+01  0.10500000000E+00 0. -1.
         13    1    4    4    0    0  0.20308003040E+01  0.19770686629E+01 -0.31141656209E+01  0.42121256969E+01  0.10500000000E+00 0.  1.
    3000001    1    5    5    0    0 -0.26764961257E+02 -0.13975038605E+02  0.22423177647E+02  0.37622649440E+02  0.10000000000E+01 0. -1.
        -13    1    6    6    0    0 -0.10877650976E+02 -0.15690524179E+01  0.12406144509E+02  0.16574337478E+02  0.10500000000E+00 0.  1.
         13    1    6    6    0    0 -0.54131295218E+01 -0.72510385075E+00  0.62531059535E+01  0.83030178778E+01  0.10500000000E+00 0. -1.
</event>
<event>
11    0  0.3439373E-009  0.9118800E+02  0.7816531E-02  0.1126479E+00
         25   -1    0    0    0    0  0.00000000000E+00  0.00000000000E+00  0.99999998245E-14  0.12500000000E+03  0.12500000000E+03 0.  0.
    3000001    1    3    3    0    0  0.79103067472E+01  0.12506489464E+02 -0.16103005887E+02  0.21892739211E+02  0.10000000000E+01 0. -1.
    1000022    2    1    0    0    0  0.23351652455E+02  0.23716058050E+02 -0.51947078379E+02  0.62499999833E+02  0.99999972555E+01 0.  0.
    3000022    2    3    3    0    0  0.15441345708E+02  0.11209568587E+02 -0.35844072492E+02  0.40607260622E+02  0.24999448104E+00 0.  0.
    1000022    2    1    0    0    0 -0.23351652455E+02 -0.23716058050E+02  0.51947078379E+02  0.62500000167E+02  0.99999993487E+01 0.  0.
    3000022    2    5    5    0    0 -0.83316570630E+01 -0.25721952565E+01  0.11347197241E+02  0.14312724422E+02  0.24999455272E+00 0.  0.
        -13    1    4    4    0    0  0.37591844133E+01  0.27202901659E+01 -0.86741620108E+01  0.98378634687E+01  0.10500000000E+00 0.  1.
         13    1    4    4    0    0  0.11682161295E+02  0.84892784208E+01 -0.27169910481E+02  0.30769397153E+02  0.10500000000E+00 0. -1.
    3000001    1    5    5    0    0 -0.15019995392E+02 -0.21143862794E+02  0.40599881138E+02  0.48187275746E+02  0.10000000000E+01 0.  1.
        -13    1    6    6    0    0 -0.28154522454E+01 -0.82588506856E+00  0.38765820626E+01  0.48628973853E+01  0.10500000000E+00 0. -1.
         13    1    6    6    0    0 -0.55162048176E+01 -0.17463101880E+01  0.74706151789E+01  0.94498270362E+01  0.10500000000E+00 0.  1.
</event>
<event>
11    0  0.3439373E-009  0.9118800E+02  0.7816531E-02  0.1126479E+00
         25   -1    0    0    0    0  0.00000000000E+00  0.00000000000E+00  0.99999998245E-14  0.12500000000E+03  0.12500000000E+03 0.  0.
    3000001    1    3    3    0    0  0.11969849308E+02 -0.43242291475E+02  0.37242654624E+01  0.45033800836E+02  0.10000000000E+01 0.  1.
    1000022    2    1    0    0    0  0.18607558408E+02 -0.57858297018E+02  0.10603129395E+02  0.62499998824E+02  0.99999868171E+01 0.  0.
    3000022    2    3    3    0    0  0.66377090998E+01 -0.14616005543E+02  0.68788639322E+01  0.17466197989E+02  0.25000610614E+00 0.  0.
    1000022    2    1    0    0    0 -0.18607558408E+02  0.57858297018E+02 -0.10603129395E+02  0.62500001176E+02  0.10000001514E+02 0.  0.
    3000022    2    5    5    0    0 -0.19471468983E+01  0.22437969193E+01  0.12580714549E+01  0.32359309604E+01  0.24999947157E+00 0.  0.
        -13    1    4    4    0    0  0.26746725425E+01 -0.58119943715E+01  0.28006458872E+01  0.69848259942E+01  0.10500000000E+00 0. -1.
         13    1    4    4    0    0  0.39630365574E+01 -0.88040111717E+01  0.40782180450E+01  0.10481371995E+02  0.10500000000E+00 0.  1.
    3000001    1    5    5    0    0 -0.16660411509E+02  0.55614500099E+02 -0.11861200849E+02  0.59264070215E+02  0.10000000000E+01 0.  1.
        -13    1    6    6    0    0 -0.11349214101E+01  0.13701562670E+01  0.80469762489E+00  0.19554892151E+01  0.10500000000E+00 0.  1.
         13    1    6    6    0    0 -0.81222548827E+00  0.87364065236E+00  0.45337382997E+00  0.12804417452E+01  0.10500000000E+00 0. -1.
</event>
<event>
11    0  0.3439373E-009  0.9118800E+02  0.7816531E-02  0.1126479E+00
         25   -1    0    0    0    0  0.00000000000E+00  0.00000000000E+00  0.99999998245E-14  0.12500000000E+03  0.12500000000E+03 0.  0.
    3000001    1    3    3    0    0  0.15341775151E+02  0.84793119381E+01 -0.78260865391E+01  0.19222810051E+02  0.10000000000E+01 0. -1.
    1000022    2    1    0    0    0  0.56308863870E+02  0.15520132910E+02 -0.19866734368E+02  0.62500000587E+02  0.10000013153E+02 0.  0.
    3000022    2    3    3    0    0  0.40967088719E+02  0.70408209719E+01 -0.12040647829E+02  0.43277190537E+02  0.25000501425E+00 0.  0.
    1000022    2    1    0    0    0 -0.56308863870E+02 -0.15520132910E+02  0.19866734368E+02  0.62499999413E+02  0.10000005813E+02 0.  0.
    3000022    2    5    5    0    0 -0.49518957161E+02 -0.13512907409E+02  0.20604810278E+02  0.55311359529E+02  0.25000283757E+00 0.  0.
        -13    1    4    4    0    0  0.21252729101E+02  0.35872730459E+01 -0.62648505943E+01  0.22445632095E+02  0.10500000000E+00 0.  1.
         13    1    4    4    0    0  0.19714359618E+02  0.34535479260E+01 -0.57757972348E+01  0.20831558442E+02  0.10500000000E+00 0. -1.
    3000001    1    5    5    0    0 -0.67899067096E+01 -0.20072255005E+01 -0.73807590941E+00  0.71886398840E+01  0.10000000000E+01 0. -1.
        -13    1    6    6    0    0 -0.25086118624E+02 -0.69102669489E+01  0.10473741679E+02  0.28049517406E+02  0.10500000000E+00 0.  1.
         13    1    6    6    0    0 -0.24432838537E+02 -0.66026404605E+01  0.10131068599E+02  0.27261842123E+02  0.10500000000E+00 0. -1.
</event>
<event>
11    0  0.3439373E-009  0.9118800E+02  0.7816531E-02  0.1126479E+00
         25   -1    0    0    0    0  0.00000000000E+00  0.00000000000E+00  0.99999998245E-14  0.12500000000E+03  0.12500000000E+03 0.  0.
    3000001    1    3    3    0    0 -0.15667369286E+02 -0.41702287948E+02 -0.10778524010E+01  0.44572514470E+02  0.10000000000E+01 0.  1.
    1000022    2    1    0    0    0 -0.18806603962E+02 -0.58346335866E+02 -0.69475018880E+01  0.62499990986E+02  0.99998914541E+01 0.  0.
    3000022    2    3    3    0    0 -0.31392346763E+01 -0.16644047919E+02 -0.58696494870E+01  0.17927476515E+02  0.25000726342E+00 0.  0.
    1000022    2    1    0    0    0  0.18806603962E+02  0.58346335866E+02  0.69475018880E+01  0.62500009014E+02  0.10000004135E+02 0.  0.
    3000022    2    5    5    0    0  0.11044199191E+02  0.47181726347E+02  0.47592874543E+01  0.48690891883E+02  0.24999682574E+00 0.  0.
        -13    1    4    4    0    0 -0.23559518236E+01 -0.12506505148E+02 -0.43831490867E+01  0.13460542372E+02  0.10500000000E+00 0.  1.
         13    1    4    4    0    0 -0.78328285266E+00 -0.41375427704E+01 -0.14865004003E+01  0.44669341437E+01  0.10500000000E+00 0. -1.
    3000001    1    5    5    0    0  0.77624047708E+01  0.11164609519E+02  0.21882144337E+01  0.13809117132E+02  0.10000000000E+01 0.  1.
        -13    1    6    6    0    0  0.76160165431E+01  0.32580449712E+02  0.32387247943E+01  0.33615320536E+02  0.10500000000E+00 0. -1.
         13    1    6    6    0    0  0.34281826483E+01  0.14601276635E+02  0.15205626599E+01  0.15075571347E+02  0.10500000000E+00 0.  1.
</event>
<event>
11    0  0.3439373E-009  0.9118800E+02  0.7816531E-02  0.1126479E+00
         25   -1    0    0    0    0  0.00000000000E+00  0.00000000000E+00  0.99999998245E-14  0.12500000000E+03  0.12500000000E+03 0.  0.
    3000001    1    3    3    0    0 -0.78966223164E+01  0.36880393993E+02 -0.31855470380E+02  0.49379055258E+02  0.10000000000E+01 0.  1.
    1000022    2    1    0    0    0 -0.13754985843E+02  0.47458872981E+02 -0.36941925193E+02  0.62499998996E+02  0.99999888678E+01 0.  0.
    3000022    2    3    3    0    0 -0.58583635270E+01  0.10578478989E+02 -0.50864548125E+01  0.13120943738E+02  0.25000216245E+00 0.  0.
    1000022    2    1    0    0    0  0.13754985843E+02 -0.47458872981E+02  0.36941925193E+02  0.62500001004E+02  0.10000001419E+02 0.  0.
    3000022    2    5    5    0    0  0.81602825862E+01 -0.12533889531E+02  0.12513691506E+02  0.19502399041E+02  0.24998917905E+00 0.  0.
        -13    1    4    4    0    0 -0.33288478694E+01  0.59811530119E+01 -0.28095071144E+01  0.73999847781E+01  0.10500000000E+00 0.  1.
         13    1    4    4    0    0 -0.25295156576E+01  0.45973259766E+01 -0.22769476981E+01  0.57209589596E+01  0.10500000000E+00 0. -1.
    3000001    1    5    5    0    0  0.55947032572E+01 -0.34924983450E+02  0.24428233687E+02  0.42997601963E+02  0.10000000000E+01 0. -1.
        -13    1    6    6    0    0  0.36484643353E+01 -0.54827104857E+01  0.55076611381E+01  0.85858466378E+01  0.10500000000E+00 0. -1.
         13    1    6    6    0    0  0.45118182509E+01 -0.70511790457E+01  0.70060303680E+01  0.10916552404E+02  0.10500000000E+00 0.  1.
</event>
<event>
11    0  0.3439373E-009  0.9118800E+02  0.7816531E-02  0.1126479E+00
         25   -1    0    0    0    0  0.00000000000E+00  0.00000000000E+00  0.99999998245E-14  0.12500000000E+03  0.12500000000E+03 0.  0.
    3000001    1    3    3    0    0 -0.66799353263E+00  0.67826168417E+01 -0.11745394789E+02  0.13616328629E+02  0.10000000000E+01 0.  1.
    1000022    2    1    0    0    0  0.15048155413E+02  0.27451413144E+02 -0.53162232374E+02  0.62500000321E+02  0.10000001216E+02 0.  0.
    3000022    2    3    3    0    0  0.15716148945E+02  0.20668796302E+02 -0.41416837584E+02  0.48883671692E+02  0.24988873135E+00 0.  0.
    1000022    2    1    0    0    0 -0.15048155413E+02 -0.27451413144E+02  0.53162232374E+02  0.62499999679E+02  0.99999972002E+01 0.  0.
    3000022    2    5    5    0    0 -0.16157460306E+02 -0.22761805908E+02  0.44250265879E+02  0.52319325823E+02  0.24998485299E+00 0.  0.
        -13    1    4    4    0    0  0.44647598450E+01  0.58997357065E+01 -0.11731642700E+02  0.13870235302E+02  0.10500000000E+00 0. -1.
         13    1    4    4    0    0  0.11251389100E+02  0.14769060595E+02 -0.29685194884E+02  0.35013436390E+02  0.10500000000E+00 0.  1.
    3000001    1    5    5    0    0  0.11093048930E+01 -0.46896072351E+01  0.89119664944E+01  0.10180673856E+02  0.10000000000E+01 0. -1.
        -13    1    6    6    0    0 -0.40289876088E+01 -0.56326128127E+01  0.10984145067E+02  0.12985435537E+02  0.10500000000E+00 0. -1.
         13    1    6    6    0    0 -0.12128472697E+02 -0.17129193096E+02  0.33266120812E+02  0.39333890285E+02  0.10500000000E+00 0.  1.
</event>
<event>
11    0  0.3439373E-009  0.9118800E+02  0.7816531E-02  0.1126479E+00
         25   -1    0    0    0    0  0.00000000000E+00  0.00000000000E+00  0.99999998245E-14  0.12500000000E+03  0.12500000000E+03 0.  0.
    3000001    1    3    3    0    0 -0.55078867425E+02 -0.23196684188E+02 -0.78818622118E+01  0.60290061752E+02  0.10000000000E+01 0. -1.
    1000022    2    1    0    0    0 -0.56146518261E+02 -0.24684514323E+02 -0.66703229659E+01  0.62500000067E+02  0.10000001990E+02 0.  0.
    3000022    2    3    3    0    0 -0.10676508358E+01 -0.14878301345E+01  0.12115392459E+01  0.22099383153E+01  0.24996639134E+00 0.  0.
    1000022    2    1    0    0    0  0.56146518261E+02  0.24684514323E+02  0.66703229659E+01  0.62499999933E+02  0.10000001149E+02 0.  0.
    3000022    2    5    5    0    0  0.19013817988E+02  0.72123936657E+01  0.68175933448E+01  0.21449614814E+02  0.24999961247E+00 0.  0.
        -13    1    4    4    0    0 -0.44612073229E+00 -0.66176538516E+00  0.45554300862E+00  0.92493327623E+00  0.10500000000E+00 0. -1.
         13    1    4    4    0    0 -0.62153010350E+00 -0.82606474930E+00  0.75599623726E+00  0.12850050390E+01  0.10500000000E+00 0.  1.
    3000001    1    5    5    0    0  0.37132700273E+02  0.17472120657E+02 -0.14727037889E+00  0.41050385118E+02  0.10000000000E+01 0. -1.
        -13    1    6    6    0    0  0.14170992047E+02  0.53751793465E+01  0.50503063354E+01  0.15975800064E+02  0.10500000000E+00 0. -1.
         13    1    6    6    0    0  0.48428259411E+01  0.18372143192E+01  0.17672870094E+01  0.54738147506E+01  0.10500000000E+00 0.  1.
</event>
<event>
11    0  0.3439373E-009  0.9118800E+02  0.7816531E-02  0.1126479E+00
         25   -1    0    0    0    0  0.00000000000E+00  0.00000000000E+00  0.99999998245E-14  0.12500000000E+03  0.12500000000E+03 0.  0.
    3000001    1    3    3    0    0  0.30017020857E+02 -0.86229500434E+01 -0.43345042000E+02  0.53433785890E+02  0.10000000000E+01 0.  1.
    1000022    2    1    0    0    0  0.32953769148E+02 -0.67673948785E+01 -0.51715589162E+02  0.62499994303E+02  0.99999295507E+01 0.  0.
    3000022    2    3    3    0    0  0.29367482912E+01  0.18555551650E+01 -0.83705471621E+01  0.90662084131E+01  0.24999940215E+00 0.  0.
    1000022    2    1    0    0    0 -0.32953769148E+02  0.67673948785E+01  0.51715589162E+02  0.62500005697E+02  0.10000000765E+02 0.  0.
    3000022    2    5    5    0    0 -0.23835648923E+02  0.92692807039E+01  0.38437239003E+02  0.46168620818E+02  0.24996348462E+00 0.  0.
        -13    1    4    4    0    0  0.69096288870E+00  0.42615308328E+00 -0.19399340193E+01  0.21055652835E+01  0.10500000000E+00 0. -1.
         13    1    4    4    0    0  0.22457854025E+01  0.14294020817E+01 -0.64306131428E+01  0.69606431296E+01  0.10500000000E+00 0.  1.
    3000001    1    5    5    0    0 -0.91181202249E+01 -0.25018858254E+01  0.13278350159E+02  0.16331384879E+02  0.10000000000E+01 0. -1.
        -13    1    6    6    0    0 -0.67832587094E+01  0.26811344686E+01  0.10945986540E+02  0.13153962410E+02  0.10500000000E+00 0.  1.
         13    1    6    6    0    0 -0.17052390213E+02  0.65881462353E+01  0.27491252464E+02  0.33014658409E+02  0.10500000000E+00 0. -1.
</event>
<event>
11    0  0.3439373E-009  0.9118800E+02  0.7816531E-02  0.1126479E+00
         25   -1    0    0    0    0  0.00000000000E+00  0.00000000000E+00  0.99999998245E-14  0.12500000000E+03  0.12500000000E+03 0.  0.
    3000001    1    3    3    0    0  0.16812971994E+02  0.32889418849E+01 -0.24336422987E+02  0.29778425912E+02  0.10000000000E+01 0. -1.
    1000022    2    1    0    0    0  0.41679899858E+02  0.96956833449E+00 -0.45476321628E+02  0.62499999856E+02  0.10000001911E+02 0.  0.
    3000022    2    3    3    0    0  0.24866927864E+02 -0.23193735504E+01 -0.21139898640E+02  0.32721573944E+02  0.24998346718E+00 0.  0.
    1000022    2    1    0    0    0 -0.41679899858E+02 -0.96956833449E+00  0.45476321628E+02  0.62500000144E+02  0.10000003715E+02 0.  0.
    3000022    2    5    5    0    0 -0.19765950915E+01 -0.13075001225E+01  0.39010914052E+00  0.24147842944E+01  0.25002664041E+00 0.  0.
        -13    1    4    4    0    0  0.89442651180E+01 -0.82572935371E+00 -0.75281294502E+01  0.11720301425E+02  0.10500000000E+00 0. -1.
         13    1    4    4    0    0  0.15922662746E+02 -0.14936441967E+01 -0.13611769190E+02  0.21001272519E+02  0.10500000000E+00 0.  1.
    3000001    1    5    5    0    0 -0.39703304767E+02  0.33793178797E+00  0.45086212487E+02  0.60085215850E+02  0.10000000000E+01 0. -1.
        -13    1    6    6    0    0 -0.14122108985E+01 -0.87978040352E+00  0.26754817587E+00  0.16884786664E+01  0.10500000000E+00 0. -1.
         13    1    6    6    0    0 -0.56438419299E+00 -0.42771971894E+00  0.12256096465E+00  0.72630562804E+00  0.10500000000E+00 0.  1.
</event>
<event>
11    0  0.3439373E-009  0.9118800E+02  0.7816531E-02  0.1126479E+00
         25   -1    0    0    0    0  0.00000000000E+00  0.00000000000E+00  0.99999998245E-14  0.12500000000E+03  0.12500000000E+03 0.  0.
    3000001    1    3    3    0    0 -0.46063944211E+01  0.41639694329E+02 -0.11427195473E+02  0.43435743458E+02  0.10000000000E+01 0.  1.
    1000022    2    1    0    0    0 -0.53392016890E+01  0.60637688451E+02 -0.10040604723E+02  0.62500001028E+02  0.10000002498E+02 0.  0.
    3000022    2    3    3    0    0 -0.73280726797E+00  0.18997994121E+02  0.13865907498E+01  0.19064257570E+02  0.24999128426E+00 0.  0.
    1000022    2    1    0    0    0  0.53392016890E+01 -0.60637688451E+02  0.10040604723E+02  0.62499998972E+02  0.99999896486E+01 0.  0.
    3000022    2    5    5    0    0  0.33046369862E+01 -0.46627301768E+02  0.35087144447E+01  0.46876427705E+02  0.25000309059E+00 0.  0.
        -13    1    4    4    0    0 -0.39324026149E+00  0.88560780942E+01  0.60321839365E+00  0.88859245182E+01  0.10500000000E+00 0. -1.
         13    1    4    4    0    0 -0.33956700647E+00  0.10141916027E+02  0.78337235617E+00  0.10178333051E+02  0.10500000000E+00 0.  1.
    3000001    1    5    5    0    0  0.20345647028E+01 -0.14010386682E+02  0.65318902782E+01  0.15623571267E+02  0.10000000000E+01 0. -1.
        -13    1    6    6    0    0  0.14533051368E+01 -0.20902278165E+02  0.16333144686E+01  0.21016566548E+02  0.10500000000E+00 0.  1.
         13    1    6    6    0    0  0.18513318494E+01 -0.25725023603E+02  0.18753999761E+01  0.25859861157E+02  0.10500000000E+00 0. -1.
</event>
<event>
11    0  0.3439373E-009  0.9118800E+02  0.7816531E-02  0.1126479E+00
         25   -1    0    0    0    0  0.00000000000E+00  0.00000000000E+00  0.99999998245E-14  0.12500000000E+03  0.12500000000E+03 0.  0.
    3000001    1    3    3    0    0 -0.58384452027E+01 -0.56001152308E+02  0.39442736037E+01  0.56451517220E+02  0.10000000000E+01 0. -1.
    1000022    2    1    0    0    0 -0.68592392796E+01 -0.61300105097E+02  0.12238480667E+01  0.62499998868E+02  0.10000000302E+02 0.  0.
    3000022    2    3    3    0    0 -0.10207940769E+01 -0.52989527889E+01 -0.27204255371E+01  0.60484816479E+01  0.24998787218E+00 0.  0.
    1000022    2    1    0    0    0  0.68592392796E+01  0.61300105097E+02 -0.12238480667E+01  0.62500001132E+02  0.10000014455E+02 0.  0.
    3000022    2    5    5    0    0 -0.26110404034E-01  0.32976068615E+02  0.26237899620E+01  0.33081241789E+02  0.25000301020E+00 0.  0.
        -13    1    4    4    0    0 -0.65718016216E+00 -0.31256643258E+01 -0.15714125638E+01  0.35611831867E+01  0.10500000000E+00 0.  1.
         13    1    4    4    0    0 -0.36361391474E+00 -0.21732884631E+01 -0.11490129732E+01  0.24872984612E+01  0.10500000000E+00 0. -1.
    3000001    1    5    5    0    0  0.68853496836E+01  0.28324036482E+02 -0.38476380287E+01  0.29418759343E+02  0.10000000000E+01 0.  1.
        -13    1    6    6    0    0  0.18428839361E-01  0.10203765051E+02  0.85237996708E+00  0.10239860226E+02  0.10500000000E+00 0.  1.
         13    1    6    6    0    0 -0.44539243396E-01  0.22772303564E+02  0.17714099949E+01  0.22841381563E+02  0.10500000000E+00 0. -1.
</event>
<event>
11    0  0.3439373E-009  0.9118800E+02  0.7816531E-02  0.1126479E+00
         25   -1    0    0    0    0  0.00000000000E+00  0.00000000000E+00  0.99999998245E-14  0.12500000000E+03  0.12500000000E+03 0.  0.
    3000001    1    3    3    0    0 -0.48607411445E+02 -0.11663677191E+02  0.55784698707E+01  0.50307466037E+02  0.10000000000E+01 0.  1.
    1000022    2    1    0    0    0 -0.58956215167E+02 -0.14014651148E+02  0.11576015297E+02  0.62499999329E+02  0.10000001622E+02 0.  0.
    3000022    2    3    3    0    0 -0.10348803722E+02 -0.23509739563E+01  0.59975454264E+01  0.12192533292E+02  0.24999984317E+00 0.  0.
    1000022    2    1    0    0    0  0.58956215167E+02  0.14014651148E+02 -0.11576015297E+02  0.62500000671E+02  0.10000010004E+02 0.  0.
    3000022    2    5    5    0    0  0.16009578022E+02  0.12243961618E+01  0.54689061337E+00  0.16067586213E+02  0.25000593115E+00 0.  0.
        -13    1    4    4    0    0 -0.57215659532E+01 -0.12449200475E+01  0.33543459263E+01  0.67489854404E+01  0.10500000000E+00 0.  1.
         13    1    4    4    0    0 -0.46272377686E+01 -0.11060539088E+01  0.26431995000E+01  0.54435478517E+01  0.10500000000E+00 0. -1.
    3000001    1    5    5    0    0  0.42946637145E+02  0.12790254986E+02 -0.12122905910E+02  0.46432414458E+02  0.10000000000E+01 0.  1.
        -13    1    6    6    0    0  0.65443046695E+01  0.44067823946E+00  0.20060744593E+00  0.65630320177E+01  0.10500000000E+00 0.  1.
         13    1    6    6    0    0  0.94652733524E+01  0.78371792233E+00  0.34628316744E+00  0.95045541952E+01  0.10500000000E+00 0. -1.
</event>
<event>
11    0  0.3439373E-009  0.9118800E+02  0.7816531E-02  0.1126479E+00
         25   -1    0    0    0    0  0.00000000000E+00  0.00000000000E+00  0.99999998245E-14  0.12500000000E+03  0.12500000000E+03 0.  0.
    3000001    1    3    3    0    0 -0.24981366283E+01 -0.47702834038E+02  0.10341555395E+01  0.47789858124E+02  0.10000000000E+01 0.  1.
    1000022    2    1    0    0    0 -0.20773740552E+01 -0.61303806514E+02  0.66164732528E+01  0.62499999421E+02  0.10000001660E+02 0.  0.
    3000022    2    3    3    0    0  0.42076257310E+00 -0.13600972476E+02  0.55823177134E+01  0.14710141296E+02  0.24998493246E+00 0.  0.
    1000022    2    1    0    0    0  0.20773740552E+01  0.61303806514E+02 -0.66164732528E+01  0.62500000579E+02  0.10000008902E+02 0.  0.
    3000022    2    5    5    0    0 -0.37161313645E+01  0.16897329099E+02 -0.29909666296E+01  0.17559548426E+02  0.24999311179E+00 0.  0.
        -13    1    4    4    0    0  0.13738051602E+00 -0.44965022260E+01  0.17886022042E+01  0.48422648130E+01  0.10500000000E+00 0.  1.
         13    1    4    4    0    0  0.28338205708E+00 -0.91044702500E+01  0.37937155092E+01  0.98678764833E+01  0.10500000000E+00 0. -1.
    3000001    1    5    5    0    0  0.57935054197E+01  0.44406477415E+02 -0.36255066233E+01  0.44940452153E+02  0.10000000000E+01 0. -1.
        -13    1    6    6    0    0 -0.27412926078E+01  0.12477236829E+02 -0.21755756008E+01  0.12959177376E+02  0.10500000000E+00 0. -1.
         13    1    6    6    0    0 -0.97483875667E+00  0.44200922697E+01 -0.81539102884E+00  0.46003710507E+01  0.10500000000E+00 0.  1.
</event>
<event>
11    0  0.3439373E-009  0.9118800E+02  0.7816531E-02  0.1126479E+00
         25   -1    0    0    0    0  0.00000000000E+00  0.00000000000E+00  0.99999998245E-14  0.12500000000E+03  0.12500000000E+03 0.  0.
    3000001    1    3    3    0    0 -0.19076597265E+02  0.40870063633E+02  0.10541583647E+02  0.46329295811E+02  0.10000000000E+01 0. -1.
    1000022    2    1    0    0    0 -0.29892462924E+02  0.52886735942E+02  0.10755643030E+02  0.62500000208E+02  0.99999995371E+01 0.  0.
    3000022    2    3    3    0    0 -0.10815865659E+02  0.12016672309E+02  0.21405938303E+00  0.16170704397E+02  0.24999186104E+00 0.  0.
    1000022    2    1    0    0    0  0.29892462924E+02 -0.52886735942E+02 -0.10755643030E+02  0.62499999792E+02  0.99999969399E+01 0.  0.
    3000022    2    5    5    0    0  0.54255114151E+01 -0.99961196325E+01 -0.60571775978E+01  0.12888385618E+02  0.25000314111E+00 0.  0.
        -13    1    4    4    0    0 -0.73110505566E+01  0.81221607099E+01  0.19630791895E+00  0.10930256934E+02  0.10500000000E+00 0. -1.
         13    1    4    4    0    0 -0.35048151025E+01  0.38945115994E+01  0.17751464074E-01  0.52404474632E+01  0.10500000000E+00 0.  1.
    3000001    1    5    5    0    0  0.24466951509E+02 -0.42890616310E+02 -0.46984654324E+01  0.49611614174E+02  0.10000000000E+01 0. -1.
        -13    1    6    6    0    0  0.33741520526E+01 -0.60924984019E+01 -0.37283650291E+01  0.79003271858E+01  0.10500000000E+00 0.  1.
         13    1    6    6    0    0  0.20513593625E+01 -0.39036212305E+01 -0.23288125687E+01  0.49880584324E+01  0.10500000000E+00 0. -1.
</event>
<event>
11    0  0.3439373E-009  0.9118800E+02  0.7816531E-02  0.1126479E+00
         25   -1    0    0    0    0  0.00000000000E+00  0.00000000000E+00  0.99999998245E-14  0.12500000000E+03  0.12500000000E+03 0.  0.
    3000001    1    3    3    0    0 -0.35527426564E+02 -0.29303426586E+02  0.38969798295E+02  0.60336838060E+02  0.10000000000E+01 0. -1.
    1000022    2    1    0    0    0 -0.36384480090E+02 -0.28588494611E+02  0.40805854420E+02  0.62500000744E+02  0.99999961236E+01 0.  0.
    3000022    2    3    3    0    0 -0.85705352679E+00  0.71493197471E+00  0.18360561252E+01  0.21631626843E+01  0.25000445500E+00 0.  0.
    1000022    2    1    0    0    0  0.36384480090E+02  0.28588494611E+02 -0.40805854420E+02  0.62499999256E+02  0.99999868183E+01 0.  0.
    3000022    2    5    5    0    0  0.32153622285E+02  0.27669581460E+02 -0.33965773428E+02  0.54343329155E+02  0.24998967927E+00 0.  0.
        -13    1    4    4    0    0 -0.35507272453E+00  0.28750743530E+00  0.63886510933E+00  0.79240822370E+00  0.10500000000E+00 0.  1.
         13    1    4    4    0    0 -0.50198080226E+00  0.42742453940E+00  0.11971910159E+01  0.13707544606E+01  0.10500000000E+00 0. -1.
    3000001    1    5    5    0    0  0.42308578059E+01  0.91891315117E+00 -0.68400809925E+01  0.81566701010E+01  0.10000000000E+01 0. -1.
        -13    1    6    6    0    0  0.18463436035E+02  0.15939865300E+02 -0.19597724240E+02  0.31289928034E+02  0.10500000000E+00 0. -1.
         13    1    6    6    0    0  0.13690186250E+02  0.11729716160E+02 -0.14368049188E+02  0.23053401121E+02  0.10500000000E+00 0. -1.
</event>
<event>
11    0  0.3439373E-009  0.9118800E+02  0.7816531E-02  0.1126479E+00
         25   -1    0    0    0    0  0.00000000000E+00  0.00000000000E+00  0.99999998245E-14  0.12500000000E+03  0.12500000000E+03 0.  0.
    3000001    1    3    3    0    0 -0.13105166572E+02  0.50445628595E+02  0.12408063033E+02  0.53586069677E+02  0.10000000000E+01 0.  1.
    1000022    2    1    0    0    0 -0.12398050194E+02  0.59297698356E+02  0.11675646491E+02  0.62499996210E+02  0.10000006318E+02 0.  0.
    3000022    2    3    3    0    0  0.70711637845E+00  0.88520697608E+01 -0.73241654165E+00  0.89139265327E+01  0.24999923546E+00 0.  0.
    1000022    2    1    0    0    0  0.12398050194E+02 -0.59297698356E+02 -0.11675646491E+02  0.62500003790E+02  0.10000053692E+02 0.  0.
    3000022    2    5    5    0    0  0.10692450283E+02 -0.57581471341E+02 -0.12215753082E+02  0.59826762059E+02  0.25000060905E+00 0.  0.
        -13    1    4    4    0    0  0.30409491994E+00  0.36764755007E+01 -0.24048835316E+00  0.36983517242E+01  0.10500000000E+00 0.  1.
         13    1    4    4    0    0  0.40302145852E+00  0.51755942601E+01 -0.49192818849E+00  0.52155748085E+01  0.10500000000E+00 0. -1.
    3000001    1    5    5    0    0  0.17055999105E+01 -0.17162270151E+01  0.54010659053E+00  0.26732417307E+01  0.10000000000E+01 0. -1.
        -13    1    6    6    0    0  0.41918799781E+01 -0.22513877381E+02 -0.47142698487E+01  0.23381229602E+02  0.10500000000E+00 0. -1.
         13    1    6    6    0    0  0.65005703053E+01 -0.35067593960E+02 -0.75014832331E+01  0.36445532458E+02  0.10500000000E+00 0.  1.
</event>
<event>
11    0  0.3439373E-009  0.9118800E+02  0.7816531E-02  0.1126479E+00
         25   -1    0    0    0    0  0.00000000000E+00  0.00000000000E+00  0.99999998245E-14  0.12500000000E+03  0.12500000000E+03 0.  0.
    3000001    1    3    3    0    0 -0.40244464373E+02  0.31795813949E+02 -0.34807556849E+02  0.61993198910E+02  0.10000000000E+01 0.  1.
    1000022    2    1    0    0    0 -0.40283131111E+02  0.31619500764E+02 -0.34405328278E+02  0.62499999574E+02  0.99999926065E+01 0.  0.
    3000022    2    3    3    0    0 -0.38666738177E-01 -0.17631318489E+00  0.40222857031E+00  0.50680066388E+00  0.24995526464E+00 0.  0.
    1000022    2    1    0    0    0  0.40283131111E+02 -0.31619500764E+02  0.34405328278E+02  0.62500000426E+02  0.99999979310E+01 0.  0.
    3000022    2    5    5    0    0  0.35711352878E+02 -0.31265751847E+02  0.30806369479E+02  0.56585712730E+02  0.25004359345E+00 0.  0.
        -13    1    4    4    0    0  0.33831759826E-01 -0.74877639330E-01  0.25214998279E+00  0.28522949123E+00  0.10500000000E+00 0.  1.
         13    1    4    4    0    0 -0.72498498003E-01 -0.10143554556E+00  0.15007858752E+00  0.22157117265E+00  0.10500000000E+00 0. -1.
    3000001    1    5    5    0    0  0.45717782327E+01 -0.35374891748E+00  0.35989587994E+01  0.59142876956E+01  0.10000000000E+01 0. -1.
        -13    1    6    6    0    0  0.14815324558E+02 -0.12988030476E+02  0.12863089727E+02  0.23529829573E+02  0.10500000000E+00 0. -1.
         13    1    6    6    0    0  0.20896028320E+02 -0.18277721370E+02  0.17943279752E+02  0.33055883157E+02  0.10500000000E+00 0.  1.
</event>
<event>
11    0  0.3439373E-009  0.9118800E+02  0.7816531E-02  0.1126479E+00
         25   -1    0    0    0    0  0.00000000000E+00  0.00000000000E+00  0.99999998245E-14  0.12500000000E+03  0.12500000000E+03 0.  0.
    3000001    1    3    3    0    0 -0.21533451205E-01 -0.81327854113E+01  0.12206987040E+02  0.14702149327E+02  0.10000000000E+01 0.  1.
    1000022    2    1    0    0    0 -0.16879236533E+02 -0.29174331693E+02  0.51673976064E+02  0.62500000195E+02  0.99999983253E+01 0.  0.
    3000022    2    3    3    0    0 -0.16857703082E+02 -0.21041546282E+02  0.39466989024E+02  0.47797850868E+02  0.25000383665E+00 0.  0.
    1000022    2    1    0    0    0  0.16879236533E+02  0.29174331693E+02 -0.51673976064E+02  0.62499999805E+02  0.99999958845E+01 0.  0.
    3000022    2    5    5    0    0  0.11660979440E+02  0.13747604481E+02 -0.33738693479E+02  0.38253588092E+02  0.24998751356E+00 0.  0.
        -13    1    4    4    0    0 -0.91636611408E+01 -0.11507083132E+02  0.21442208652E+02  0.26003172586E+02  0.10500000000E+00 0. -1.
         13    1    4    4    0    0 -0.76940419412E+01 -0.95344631503E+01  0.18024780372E+02  0.21794678282E+02  0.10500000000E+00 0.  1.
    3000001    1    5    5    0    0  0.52182570929E+01  0.15426727212E+02 -0.17935282584E+02  0.24246411713E+02  0.10000000000E+01 0. -1.
        -13    1    6    6    0    0  0.26886938133E+01  0.31812656983E+01 -0.78077234585E+01  0.88499207041E+01  0.10500000000E+00 0.  1.
         13    1    6    6    0    0  0.89722856269E+01  0.10566338783E+02 -0.25930970021E+02  0.29403667388E+02  0.10500000000E+00 0. -1.
</event>
<event>
11    0  0.3439373E-009  0.9118800E+02  0.7816531E-02  0.1126479E+00
         25   -1    0    0    0    0  0.00000000000E+00  0.00000000000E+00  0.99999998245E-14  0.12500000000E+03  0.12500000000E+03 0.  0.
    3000001    1    3    3    0    0 -0.26784703030E+01  0.18836857308E+01 -0.53639117768E+01  0.63634915452E+01  0.10000000000E+01 0.  1.
    1000022    2    1    0    0    0  0.11548596497E+01  0.17878770194E+02 -0.59036139261E+02  0.62500000783E+02  0.10000011730E+02 0.  0.
    3000022    2    3    3    0    0  0.38333299527E+01  0.15995084464E+02 -0.53672227484E+02  0.56136509238E+02  0.25004161103E+00 0.  0.
    1000022    2    1    0    0    0 -0.11548596497E+01 -0.17878770194E+02  0.59036139261E+02  0.62499999217E+02  0.10000001940E+02 0.  0.
    3000022    2    5    5    0    0  0.39258177512E+01 -0.62173018340E+01  0.15965624426E+02  0.17579264858E+02  0.25000506543E+00 0.  0.
        -13    1    4    4    0    0  0.24312762506E+01  0.10064223441E+02 -0.33977217003E+02  0.35519881728E+02  0.10500000000E+00 0.  1.
         13    1    4    4    0    0  0.14020537021E+01  0.59308610225E+01 -0.19695010481E+02  0.20616627510E+02  0.10500000000E+00 0. -1.
    3000001    1    5    5    0    0 -0.50806774009E+01 -0.11661468360E+02  0.43070514835E+02  0.44920734359E+02  0.10000000000E+01 0.  1.
        -13    1    6    6    0    0  0.24954843109E+01 -0.39805802297E+01  0.10332855876E+02  0.11351272901E+02  0.10500000000E+00 0. -1.
         13    1    6    6    0    0  0.14303334404E+01 -0.22367216043E+01  0.56327685495E+01  0.62279919571E+01  0.10500000000E+00 0.  1.
</event>
<event>
11    0  0.3439373E-009  0.9118800E+02  0.7816531E-02  0.1126479E+00
         25   -1    0    0    0    0  0.00000000000E+00  0.00000000000E+00  0.99999998245E-14  0.12500000000E+03  0.12500000000E+03 0.  0.
    3000001    1    3    3    0    0  0.72986362622E+01 -0.41955928204E+00 -0.21376236144E+02  0.22613924758E+02  0.10000000000E+01 0.  1.
    1000022    2    1    0    0    0  0.31700446471E+02 -0.16652674755E+01 -0.52901405384E+02  0.62499999122E+02  0.99999888199E+01 0.  0.
    3000022    2    3    3    0    0  0.24401810209E+02 -0.12457081934E+01 -0.31525169240E+02  0.39886074364E+02  0.25000434138E+00 0.  0.
    1000022    2    1    0    0    0 -0.31700446471E+02  0.16652674755E+01  0.52901405384E+02  0.62500000878E+02  0.99999997989E+01 0.  0.
    3000022    2    5    5    0    0 -0.81773087353E+01  0.19847419259E+01  0.71506677033E+01  0.11045457141E+02  0.24999239099E+00 0.  0.
        -13    1    4    4    0    0  0.15728911886E+02 -0.80458945361E+00 -0.20226465206E+02  0.25635267758E+02  0.10500000000E+00 0. -1.
         13    1    4    4    0    0  0.86728983228E+01 -0.44111873984E+00 -0.11298704034E+02  0.14250806605E+02  0.10500000000E+00 0.  1.
    3000001    1    5    5    0    0 -0.23523137736E+02 -0.31947445046E+00  0.45750737681E+02  0.51454543737E+02  0.10000000000E+01 0. -1.
        -13    1    6    6    0    0 -0.45253616292E+01  0.11644002951E+01  0.39924603417E+01  0.61469903613E+01  0.10500000000E+00 0.  1.
         13    1    6    6    0    0 -0.36519471061E+01  0.82034163088E+00  0.31582073616E+01  0.48984667801E+01  0.10500000000E+00 0. -1.
</event>
<event>
11    0  0.3439373E-009  0.9118800E+02  0.7816531E-02  0.1126479E+00
         25   -1    0    0    0    0  0.00000000000E+00  0.00000000000E+00  0.99999998245E-14  0.12500000000E+03  0.12500000000E+03 0.  0.
    3000001    1    3    3    0    0  0.28151847094E+02 -0.15334578929E+01  0.18602473039E+02  0.33792454647E+02  0.10000000000E+01 0.  1.
    1000022    2    1    0    0    0  0.55801577581E+02 -0.33731505476E+01  0.26097044575E+02  0.62500000125E+02  0.10000003743E+02 0.  0.
    3000022    2    3    3    0    0  0.27649730487E+02 -0.18396926547E+01  0.74945715364E+01  0.28707545478E+02  0.24999952322E+00 0.  0.
    1000022    2    1    0    0    0 -0.55801577581E+02  0.33731505476E+01 -0.26097044575E+02  0.62499999875E+02  0.10000002181E+02 0.  0.
    3000022    2    5    5    0    0 -0.43194485311E+02 -0.11443026398E+01 -0.17933047314E+02  0.46783861352E+02  0.25001431000E+00 0.  0.
        -13    1    4    4    0    0  0.13504707253E+02 -0.91561560386E+00  0.35928773763E+01  0.14004829980E+02  0.10500000000E+00 0.  1.
         13    1    4    4    0    0  0.14145023234E+02 -0.92407705086E+00  0.39016941601E+01  0.14702715498E+02  0.10500000000E+00 0. -1.
    3000001    1    5    5    0    0 -0.12607092270E+02  0.45174531874E+01 -0.81639972612E+01  0.15716138523E+02  0.10000000000E+01 0.  1.
        -13    1    6    6    0    0 -0.10107828875E+02 -0.26074356488E+00 -0.41842094091E+01  0.10943254779E+02  0.10500000000E+00 0.  1.
         13    1    6    6    0    0 -0.33086656436E+02 -0.88355907492E+00 -0.13748837905E+02  0.35840606573E+02  0.10500000000E+00 0.  1.
</event>
<event>
11    0  0.3439373E-009  0.9118800E+02  0.7816531E-02  0.1126479E+00
         25   -1    0    0    0    0  0.00000000000E+00  0.00000000000E+00  0.99999998245E-14  0.12500000000E+03  0.12500000000E+03 0.  0.
    3000001    1    3    3    0    0 -0.26029221277E+01 -0.11472970306E+02 -0.10043622242E+02  0.15500922520E+02  0.10000000000E+01 0.  1.
    1000022    2    1    0    0    0 -0.21355916978E+02 -0.34538987163E+02 -0.46446024045E+02  0.62500000234E+02  0.10000002775E+02 0.  0.
    3000022    2    3    3    0    0 -0.18752994850E+02 -0.23066016857E+02 -0.36402401803E+02  0.46999077714E+02  0.24999889621E+00 0.  0.
    1000022    2    1    0    0    0  0.21355916978E+02  0.34538987163E+02  0.46446024045E+02  0.62499999766E+02  0.99999998482E+01 0.  0.
    3000022    2    5    5    0    0  0.15304655023E+02  0.21184243906E+02  0.22923978360E+02  0.34764578877E+02  0.25001076151E+00 0.  0.
        -13    1    4    4    0    0 -0.70852985980E+01 -0.87318977825E+01 -0.13675840329E+02  0.17705567735E+02  0.10500000000E+00 0.  1.
         13    1    4    4    0    0 -0.11667696252E+02 -0.14334119075E+02 -0.22726561473E+02  0.29293509979E+02  0.10500000000E+00 0. -1.
    3000001    1    5    5    0    0  0.60512619548E+01  0.13354743257E+02  0.23522045685E+02  0.27735420889E+02  0.10000000000E+01 0. -1.
        -13    1    6    6    0    0  0.58947618532E+01  0.82354668420E+01  0.89405917827E+01  0.13509860763E+02  0.10500000000E+00 0.  1.
         13    1    6    6    0    0  0.94098931697E+01  0.12948777064E+02  0.13983386577E+02  0.21254718114E+02  0.10500000000E+00 0. -1.
</event>
<event>
11    0  0.3439373E-009  0.9118800E+02  0.7816531E-02  0.1126479E+00
         25   -1    0    0    0    0  0.00000000000E+00  0.00000000000E+00  0.99999998245E-14  0.12500000000E+03  0.12500000000E+03 0.  0.
    3000001    1    3    3    0    0  0.30624479675E+02  0.29726190285E+02 -0.26388331864E+02  0.50188138069E+02  0.10000000000E+01 0. -1.
    1000022    2    1    0    0    0  0.41350564042E+02  0.34132121842E+02 -0.30518503852E+02  0.62499999959E+02  0.10000001467E+02 0.  0.
    3000022    2    3    3    0    0  0.10726084367E+02  0.44059315577E+01 -0.41301719880E+01  0.12311861890E+02  0.25000760200E+00 0.  0.
    1000022    2    1    0    0    0 -0.41350564042E+02 -0.34132121842E+02  0.30518503852E+02  0.62500000041E+02  0.10000001985E+02 0.  0.
    3000022    2    5    5    0    0 -0.27811079177E+02 -0.17183012125E+02  0.20467945003E+02  0.38570860821E+02  0.25000234321E+00 0.  0.
        -13    1    4    4    0    0  0.79275490476E+01  0.32712698408E+01 -0.30236294538E+01  0.90939870435E+01  0.10500000000E+00 0.  1.
         13    1    4    4    0    0  0.27985353198E+01  0.11346617169E+01 -0.11065425342E+01  0.32178748465E+01  0.10500000000E+00 0. -1.
    3000001    1    5    5    0    0 -0.13539484866E+02 -0.16949109718E+02  0.10050558849E+02  0.23929139221E+02  0.10000000000E+01 0. -1.
        -13    1    6    6    0    0 -0.14931047745E+02 -0.93034005071E+01  0.11024565443E+02  0.20761539345E+02  0.10500000000E+00 0.  1.
         13    1    6    6    0    0 -0.12880031431E+02 -0.78796116176E+01  0.94433795603E+01  0.17809321476E+02  0.10500000000E+00 0. -1.
</event>
<event>
11    0  0.3439373E-009  0.9118800E+02  0.7816531E-02  0.1126479E+00
         25   -1    0    0    0    0  0.00000000000E+00  0.00000000000E+00  0.99999998245E-14  0.12500000000E+03  0.12500000000E+03 0.  0.
    3000001    1    3    3    0    0  0.20493203156E+02  0.98168568889E+01 -0.20084201837E+02  0.30343322465E+02  0.10000000000E+01 0. -1.
    1000022    2    1    0    0    0  0.44804041150E+02  0.10377594551E+02 -0.41123639742E+02  0.62499997021E+02  0.99999655000E+01 0.  0.
    3000022    2    3    3    0    0  0.24310837994E+02  0.56073766228E+00 -0.21039437904E+02  0.32156674557E+02  0.25000096726E+00 0.  0.
    1000022    2    1    0    0    0 -0.44804041150E+02 -0.10377594551E+02  0.41123639742E+02  0.62500002979E+02  0.10000002735E+02 0.  0.
    3000022    2    5    5    0    0 -0.35062168321E+02 -0.11515797892E+02  0.29419203831E+02  0.47196623840E+02  0.24999887488E+00 0.  0.
        -13    1    4    4    0    0  0.14601547572E+02  0.28329417250E+00 -0.12679403751E+02  0.19340727793E+02  0.10500000000E+00 0. -1.
         13    1    4    4    0    0  0.97092904225E+01  0.27744348978E+00 -0.83600341537E+01  0.12815946764E+02  0.10500000000E+00 0.  1.
    3000001    1    5    5    0    0 -0.97418728291E+01  0.11382033404E+01  0.11704435911E+02  0.15303379138E+02  0.10000000000E+01 0. -1.
        -13    1    6    6    0    0 -0.15559691596E+02 -0.51590859687E+01  0.13006780304E+02  0.20926240214E+02  0.10500000000E+00 0. -1.
         13    1    6    6    0    0 -0.19502476725E+02 -0.63567119230E+01  0.16412423526E+02  0.26270383626E+02  0.10500000000E+00 0.  1.
</event>
<event>
11    0  0.3439373E-009  0.9118800E+02  0.7816531E-02  0.1126479E+00
         25   -1    0    0    0    0  0.00000000000E+00  0.00000000000E+00  0.99999998245E-14  0.12500000000E+03  0.12500000000E+03 0.  0.
    3000001    1    3    3    0    0  0.19603744155E+01  0.31321277733E+02  0.13601418292E+02  0.34217891317E+02  0.10000000000E+01 0.  1.
    1000022    2    1    0    0    0  0.10809524165E+02  0.57529011897E+02  0.19488893568E+02  0.62499999393E+02  0.99999964545E+01 0.  0.
    3000022    2    3    3    0    0  0.88491497494E+01  0.26207734164E+02  0.58874752753E+01  0.28282108075E+02  0.24998149357E+00 0.  0.
    1000022    2    1    0    0    0 -0.10809524165E+02 -0.57529011897E+02 -0.19488893568E+02  0.62500000607E+02  0.10000004044E+02 0.  0.
    3000022    2    5    5    0    0 -0.10989381160E+02 -0.45171299410E+02 -0.18588201225E+02  0.50067918998E+02  0.24999859906E+00 0.  0.
        -13    1    4    4    0    0  0.39855803640E+01  0.11839737641E+02  0.25917613475E+01  0.12759016033E+02  0.10500000000E+00 0. -1.
         13    1    4    4    0    0  0.48635693854E+01  0.14367996524E+02  0.32957139278E+01  0.15523092043E+02  0.10500000000E+00 0.  1.
    3000001    1    5    5    0    0  0.17985699493E+00 -0.12357712487E+02 -0.90069234245E+00  0.12432081609E+02  0.10000000000E+01 0. -1.
        -13    1    6    6    0    0 -0.59483825535E+01 -0.24471274980E+02 -0.99975646364E+01  0.27095919948E+02  0.10500000000E+00 0.  1.
         13    1    6    6    0    0 -0.50409986063E+01 -0.20700024430E+02 -0.85906365888E+01  0.22971999050E+02  0.10500000000E+00 0. -1.
</event>
<event>
11    0  0.3439373E-009  0.9118800E+02  0.7816531E-02  0.1126479E+00
         25   -1    0    0    0    0  0.00000000000E+00  0.00000000000E+00  0.99999998245E-14  0.12500000000E+03  0.12500000000E+03 0.  0.
    3000001    1    3    3    0    0  0.41721979627E+02 -0.25422455730E+02 -0.11299336005E+02  0.50156752621E+02  0.10000000000E+01 0.  1.
    1000022    2    1    0    0    0  0.48556684281E+02 -0.34355349090E+02 -0.16377074443E+02  0.62499997717E+02  0.99999773888E+01 0.  0.
    3000022    2    3    3    0    0  0.68347046540E+01 -0.89328933605E+01 -0.50777384374E+01  0.12343245095E+02  0.25000069889E+00 0.  0.
    1000022    2    1    0    0    0 -0.48556684281E+02  0.34355349090E+02  0.16377074443E+02  0.62500002283E+02  0.10000005931E+02 0.  0.
    3000022    2    5    5    0    0 -0.11108123243E+01 -0.47548148496E+00 -0.38623142392E+00  0.12929279546E+01  0.25000264122E+00 0.  0.
        -13    1    4    4    0    0  0.29229082171E+01 -0.38799848104E+01 -0.21331287624E+01  0.53064995893E+01  0.10500000000E+00 0. -1.
         13    1    4    4    0    0  0.39117964369E+01 -0.50529085501E+01 -0.29446096750E+01  0.70367455061E+01  0.10500000000E+00 0.  1.
    3000001    1    5    5    0    0 -0.47445871957E+02  0.34830830575E+02  0.16763305867E+02  0.61207074329E+02  0.10000000000E+01 0.  1.
        -13    1    6    6    0    0 -0.74365974312E+00 -0.35006093857E+00 -0.21511908663E+00  0.85608042594E+00  0.10500000000E+00 0.  1.
         13    1    6    6    0    0 -0.36715258115E+00 -0.12542054639E+00 -0.17111233730E+00  0.43684752864E+00  0.10500000000E+00 0. -1.
</event>
<event>
11    0  0.3439373E-009  0.9118800E+02  0.7816531E-02  0.1126479E+00
         25   -1    0    0    0    0  0.00000000000E+00  0.00000000000E+00  0.99999998245E-14  0.12500000000E+03  0.12500000000E+03 0.  0.
    3000001    1    3    3    0    0  0.10284906015E+02  0.33145344462E+02 -0.19479834277E+02  0.39810263685E+02  0.10000000000E+01 0. -1.
    1000022    2    1    0    0    0  0.10194453048E+02  0.50020315064E+02 -0.34645217950E+02  0.62500000908E+02  0.10000009734E+02 0.  0.
    3000022    2    3    3    0    0 -0.90452967256E-01  0.16874970602E+02 -0.15165383673E+02  0.22689737223E+02  0.24999746434E+00 0.  0.
    1000022    2    1    0    0    0 -0.10194453048E+02 -0.50020315064E+02  0.34645217950E+02  0.62499999092E+02  0.99999983796E+01 0.  0.
    3000022    2    5    5    0    0 -0.11188525219E+02 -0.31212091535E+02  0.22057821562E+02  0.39824461620E+02  0.24999335918E+00 0.  0.
        -13    1    4    4    0    0 -0.26255276088E-01  0.11813793582E+02 -0.10652293975E+02  0.15907507663E+02  0.10500000000E+00 0.  1.
         13    1    4    4    0    0 -0.64197691167E-01  0.50611770205E+01 -0.45130896982E+01  0.67822295597E+01  0.10500000000E+00 0. -1.
    3000001    1    5    5    0    0  0.99407217141E+00 -0.18808223529E+02  0.12587396388E+02  0.22675537472E+02  0.10000000000E+01 0. -1.
        -13    1    6    6    0    0 -0.68295123631E+01 -0.19232421275E+02  0.13586098408E+02  0.24517776453E+02  0.10500000000E+00 0. -1.
         13    1    6    6    0    0 -0.43590128563E+01 -0.11979670259E+02  0.84717231547E+01  0.15306685167E+02  0.10500000000E+00 0.  1.
</event>
<event>
11    0  0.3439373E-009  0.9118800E+02  0.7816531E-02  0.1126479E+00
         25   -1    0    0    0    0  0.00000000000E+00  0.00000000000E+00  0.99999998245E-14  0.12500000000E+03  0.12500000000E+03 0.  0.
    3000001    1    3    3    0    0 -0.42354832558E+02  0.18648672219E+02  0.50843331270E+01  0.46567749139E+02  0.10000000000E+01 0.  1.
    1000022    2    1    0    0    0 -0.57427838023E+02  0.20206948496E+02  0.99986384866E+01  0.62500000177E+02  0.99999951488E+01 0.  0.
    3000022    2    3    3    0    0 -0.15073005465E+02  0.15582762776E+01  0.49143053595E+01  0.15932251038E+02  0.25001450593E+00 0.  0.
    1000022    2    1    0    0    0  0.57427838023E+02 -0.20206948496E+02 -0.99986384866E+01  0.62499999823E+02  0.99999929374E+01 0.  0.
    3000022    2    5    5    0    0  0.51477007614E+01  0.12192661313E+00 -0.29952621782E+01  0.59621965845E+01  0.25000673676E+00 0.  0.
        -13    1    4    4    0    0 -0.77461396341E+01  0.86346223790E+00  0.25554899889E+01  0.82030360447E+01  0.10500000000E+00 0.  1.
         13    1    4    4    0    0 -0.73268658310E+01  0.69481403969E+00  0.23588153706E+01  0.77292149930E+01  0.10500000000E+00 0. -1.
    3000001    1    5    5    0    0  0.52280137262E+02 -0.20328875109E+02 -0.70033763084E+01  0.56537803239E+02  0.10000000000E+01 0.  1.
        -13    1    6    6    0    0  0.23593119743E+01  0.47732311944E-02 -0.13222347464E+01  0.27066040532E+01  0.10500000000E+00 0. -1.
         13    1    6    6    0    0  0.27883887871E+01  0.11715338193E+00 -0.16730274318E+01  0.32555925314E+01  0.10500000000E+00 0.  1.
</event>
<event>
11    0  0.3439373E-009  0.9118800E+02  0.7816531E-02  0.1126479E+00
         25   -1    0    0    0    0  0.00000000000E+00  0.00000000000E+00  0.99999998245E-14  0.12500000000E+03  0.12500000000E+03 0.  0.
    3000001    1    3    3    0    0 -0.16860685626E+02 -0.33336008172E+02 -0.10127669145E+01  0.37384460106E+02  0.10000000000E+01 0. -1.
    1000022    2    1    0    0    0 -0.32858098916E+02 -0.52074407110E+02  0.38537465495E+01  0.62499998720E+02  0.99999968648E+01 0.  0.
    3000022    2    3    3    0    0 -0.15997413291E+02 -0.18738398938E+02  0.48665134639E+01  0.25115538614E+02  0.24999963907E+00 0.  0.
    1000022    2    1    0    0    0  0.32858098916E+02  0.52074407110E+02 -0.38537465495E+01  0.62500001280E+02  0.10000012864E+02 0.  0.
    3000022    2    5    5    0    0  0.18716960395E+02  0.33413753435E+02  0.19770270922E+01  0.38350680057E+02  0.24999939410E+00 0.  0.
        -13    1    4    4    0    0 -0.46792779126E+01 -0.54432039909E+01  0.14542999827E+01  0.73246245576E+01  0.10500000000E+00 0. -1.
         13    1    4    4    0    0 -0.11318135378E+02 -0.13295194947E+02  0.34122134812E+01  0.17790914056E+02  0.10500000000E+00 0.  1.
    3000001    1    5    5    0    0  0.14141138521E+02  0.18660653675E+02 -0.58307736416E+01  0.24149321223E+02  0.10000000000E+01 0. -1.
        -13    1    6    6    0    0  0.94200235782E+01  0.16927631156E+02  0.95919633844E+00  0.19396201262E+02  0.10500000000E+00 0.  1.
         13    1    6    6    0    0  0.92969368169E+01  0.16486122279E+02  0.10178307537E+01  0.18954478796E+02  0.10500000000E+00 0. -1.
</event>
<event>
11    0  0.3439373E-009  0.9118800E+02  0.7816531E-02  0.1126479E+00
         25   -1    0    0    0    0  0.00000000000E+00  0.00000000000E+00  0.99999998245E-14  0.12500000000E+03  0.12500000000E+03 0.  0.
    3000001    1    3    3    0    0 -0.90547594103E+01 -0.77350246234E+01  0.38702133701E+01  0.12561760443E+02  0.10000000000E+01 0. -1.
    1000022    2    1    0    0    0 -0.37266613530E+02 -0.48928634071E+02  0.48413015183E+01  0.62499999117E+02  0.99999986602E+01 0.  0.
    3000022    2    3    3    0    0 -0.28211854119E+02 -0.41193609448E+02  0.97108814828E+00  0.49938238674E+02  0.24999494097E+00 0.  0.
    1000022    2    1    0    0    0  0.37266613530E+02  0.48928634071E+02 -0.48413015183E+01  0.62500000883E+02  0.10000009700E+02 0.  0.
    3000022    2    5    5    0    0  0.51346893262E+01  0.37808188950E+01  0.19235232733E+01  0.66649883674E+01  0.25000432225E+00 0.  0.
        -13    1    4    4    0    0 -0.19656819995E+02 -0.28733877994E+02  0.63419876343E+00  0.34820102670E+02  0.10500000000E+00 0.  1.
         13    1    4    4    0    0 -0.85550341241E+01 -0.12459731454E+02  0.33688938484E+00  0.15118136003E+02  0.10500000000E+00 0. -1.
    3000001    1    5    5    0    0  0.32131924203E+02  0.45147815176E+02 -0.67648247917E+01  0.55835012516E+02  0.10000000000E+01 0. -1.
        -13    1    6    6    0    0  0.20560554857E+01  0.15927014459E+01  0.77748608300E+00  0.27165367042E+01  0.10500000000E+00 0. -1.
         13    1    6    6    0    0  0.30786338405E+01  0.21881174491E+01  0.11460371903E+01  0.39484516632E+01  0.10500000000E+00 0.  1.
</event>
<event>
11    0  0.3439373E-009  0.9118800E+02  0.7816531E-02  0.1126479E+00
         25   -1    0    0    0    0  0.00000000000E+00  0.00000000000E+00  0.99999998245E-14  0.12500000000E+03  0.12500000000E+03 0.  0.
    3000001    1    3    3    0    0 -0.52628181127E+01 -0.75888511102E+00  0.12411151445E+01  0.55509934157E+01  0.10000000000E+01 0. -1.
    1000022    2    1    0    0    0 -0.44529712167E+02 -0.22568715615E+02  0.36249245407E+02  0.62500000071E+02  0.10000001306E+02 0.  0.
    3000022    2    3    3    0    0 -0.39266894054E+02 -0.21809830504E+02  0.35008130263E+02  0.56949006655E+02  0.24999855227E+00 0.  0.
    1000022    2    1    0    0    0  0.44529712167E+02  0.22568715615E+02 -0.36249245407E+02  0.62499999929E+02  0.10000000419E+02 0.  0.
    3000022    2    5    5    0    0  0.40032945579E+02  0.16671416785E+02 -0.31998014333E+02  0.53893490248E+02  0.25000110127E+00 0.  0.
        -13    1    4    4    0    0 -0.25859698109E+02 -0.14302586742E+02  0.23012316678E+02  0.37454849054E+02  0.10500000000E+00 0.  1.
         13    1    4    4    0    0 -0.13407195945E+02 -0.75072437621E+01  0.11995813584E+02  0.19494157601E+02  0.10500000000E+00 0. -1.
    3000001    1    5    5    0    0  0.44967665880E+01  0.58972988305E+01 -0.42512310737E+01  0.86065096808E+01  0.10000000000E+01 0. -1.
        -13    1    6    6    0    0  0.19028404132E+02  0.79900820581E+01 -0.15191325746E+02  0.25626333683E+02  0.10500000000E+00 0.  1.
         13    1    6    6    0    0  0.21004541447E+02  0.86813347266E+01 -0.16806688587E+02  0.28267156565E+02  0.10500000000E+00 0. -1.
</event>
<event>
11    0  0.3439373E-009  0.9118800E+02  0.7816531E-02  0.1126479E+00
         25   -1    0    0    0    0  0.00000000000E+00  0.00000000000E+00  0.99999998245E-14  0.12500000000E+03  0.12500000000E+03 0.  0.
    3000001    1    3    3    0    0 -0.25215137135E+02 -0.31994279411E+02 -0.44048376498E+02  0.60005804118E+02  0.10000000000E+01 0.  1.
    1000022    2    1    0    0    0 -0.27114060665E+02 -0.33591728355E+02 -0.44075769802E+02  0.62499999977E+02  0.10000000694E+02 0.  0.
    3000022    2    3    3    0    0 -0.18989235303E+01 -0.15974489444E+01 -0.27393304576E-01  0.24941958596E+01  0.25001777737E+00 0.  0.
    1000022    2    1    0    0    0  0.27114060665E+02  0.33591728355E+02  0.44075769802E+02  0.62500000023E+02  0.10000000978E+02 0.  0.
    3000022    2    5    5    0    0 -0.86285060406E+00  0.12026233247E+01  0.14459723886E+01  0.20842626993E+01  0.25000164972E+00 0.  0.
        -13    1    4    4    0    0 -0.61748194238E+00 -0.57245131907E+00  0.27439170176E-01  0.84897724936E+00  0.10500000000E+00 0.  1.
         13    1    4    4    0    0 -0.12814415880E+01 -0.10249976254E+01 -0.54832474752E-01  0.16452186103E+01  0.10500000000E+00 0. -1.
    3000001    1    5    5    0    0  0.27976911269E+02  0.32389105031E+02  0.42629797413E+02  0.60415737323E+02  0.10000000000E+01 0.  1.
        -13    1    6    6    0    0 -0.66221477929E+00  0.88852597742E+00  0.11016336375E+01  0.15660870019E+01  0.10500000000E+00 0. -1.
         13    1    6    6    0    0 -0.20063582476E+00  0.31409734731E+00  0.34433875118E+00  0.51817569735E+00  0.10500000000E+00 0. -1.
</event>
<event>
11    0  0.3439373E-009  0.9118800E+02  0.7816531E-02  0.1126479E+00
         25   -1    0    0    0    0  0.00000000000E+00  0.00000000000E+00  0.99999998245E-14  0.12500000000E+03  0.12500000000E+03 0.  0.
    3000001    1    3    3    0    0 -0.29647804874E+01  0.16617286223E+02 -0.38536627773E+01  0.17342861400E+02  0.10000000000E+01 0. -1.
    1000022    2    1    0    0    0 -0.24902080744E+02  0.55846695750E+02 -0.82025937220E+01  0.62500002836E+02  0.10000037962E+02 0.  0.
    3000022    2    3    3    0    0 -0.21937300256E+02  0.39229409527E+02 -0.43489309447E+01  0.45157141436E+02  0.25001587894E+00 0.  0.
    1000022    2    1    0    0    0  0.24902080744E+02 -0.55846695750E+02  0.82025937220E+01  0.62499997164E+02  0.10000002506E+02 0.  0.
    3000022    2    5    5    0    0  0.70567910641E+01 -0.12890681977E+02 -0.20990760308E+01  0.14847107611E+02  0.25000455283E+00 0.  0.
        -13    1    4    4    0    0 -0.13760051334E+02  0.24639015729E+02 -0.26726286322E+01  0.28347382200E+02  0.10500000000E+00 0. -1.
         13    1    4    4    0    0 -0.81772489222E+01  0.14590393798E+02 -0.16763023125E+01  0.16809759236E+02  0.10500000000E+00 0.  1.
    3000001    1    5    5    0    0  0.17845289680E+02 -0.42956013773E+02  0.10301669753E+02  0.47652889552E+02  0.10000000000E+01 0. -1.
        -13    1    6    6    0    0  0.18297213527E+01 -0.34104142443E+01 -0.55876193774E+00  0.39117828991E+01  0.10500000000E+00 0.  1.
         13    1    6    6    0    0  0.52270697114E+01 -0.94802677329E+01 -0.15403140931E+01  0.10935324712E+02  0.10500000000E+00 0. -1.
</event>
<event>
11    0  0.3439373E-009  0.9118800E+02  0.7816531E-02  0.1126479E+00
         25   -1    0    0    0    0  0.00000000000E+00  0.00000000000E+00  0.99999998245E-14  0.12500000000E+03  0.12500000000E+03 0.  0.
    3000001    1    3    3    0    0  0.27259690811E+02  0.31923433576E+02 -0.29471692853E+02  0.51300848278E+02  0.10000000000E+01 0.  1.
    1000022    2    1    0    0    0  0.30731828449E+02  0.36560549872E+02 -0.39052920173E+02  0.62500000103E+02  0.10000017600E+02 0.  0.
    3000022    2    3    3    0    0  0.34721376387E+01  0.46371162957E+01 -0.95812273207E+01  0.11199151825E+02  0.24999462541E+00 0.  0.
    1000022    2    1    0    0    0 -0.30731828449E+02 -0.36560549872E+02  0.39052920173E+02  0.62499999897E+02  0.10000016312E+02 0.  0.
    3000022    2    5    5    0    0 -0.17107910987E+02 -0.16152756953E+02  0.13814605911E+02  0.27285490875E+02  0.25000059391E+00 0.  0.
        -13    1    4    4    0    0  0.26509970767E+01  0.35162213032E+01 -0.73034885806E+01  0.85289840075E+01  0.10500000000E+00 0.  1.
         13    1    4    4    0    0  0.82114056200E+00  0.11208949925E+01 -0.22777387401E+01  0.26701678178E+01  0.10500000000E+00 0. -1.
    3000001    1    5    5    0    0 -0.13623917463E+02 -0.20407792919E+02  0.25238314262E+02  0.35214509022E+02  0.10000000000E+01 0.  1.
        -13    1    6    6    0    0 -0.87929718607E+01 -0.82097802785E+01  0.70520387321E+01  0.13944860044E+02  0.10500000000E+00 0.  1.
         13    1    6    6    0    0 -0.83149391259E+01 -0.79429766741E+01  0.67625671791E+01  0.13340630831E+02  0.10500000000E+00 0. -1.
</event>
<event>
11    0  0.3439373E-009  0.9118800E+02  0.7816531E-02  0.1126479E+00
         25   -1    0    0    0    0  0.00000000000E+00  0.00000000000E+00  0.99999998245E-14  0.12500000000E+03  0.12500000000E+03 0.  0.
    3000001    1    3    3    0    0  0.25895317498E+01 -0.52661900372E+01  0.40906837247E+02  0.41337728115E+02  0.10000000000E+01 0. -1.
    1000022    2    1    0    0    0 -0.15682243589E+01 -0.12239567503E+02  0.60448186783E+02  0.62500000400E+02  0.10000021215E+02 0.  0.
    3000022    2    3    3    0    0 -0.41577561086E+01 -0.69733774661E+01  0.19541349536E+02  0.21162272285E+02  0.24999480853E+00 0.  0.
    1000022    2    1    0    0    0  0.15682243589E+01  0.12239567503E+02 -0.60448186783E+02  0.62499999600E+02  0.10000016215E+02 0.  0.
    3000022    2    5    5    0    0 -0.41582887509E+01  0.58834523918E+01 -0.30273823009E+02  0.31120302647E+02  0.24999970366E+00 0.  0.
        -13    1    4    4    0    0 -0.29634432546E+01 -0.49167668331E+01  0.13724506942E+02  0.14877153889E+02  0.10500000000E+00 0. -1.
         13    1    4    4    0    0 -0.11943128541E+01 -0.20566106330E+01  0.58168425939E+01  0.62851183960E+01  0.10500000000E+00 0.  1.
    3000001    1    5    5    0    0  0.57265131098E+01  0.63561151114E+01 -0.30174363774E+02  0.31379696953E+02  0.10000000000E+01 0. -1.
        -13    1    6    6    0    0 -0.26686057787E+01  0.37440835292E+01 -0.19075382197E+02  0.19621948151E+02  0.10500000000E+00 0.  1.
         13    1    6    6    0    0 -0.14896829721E+01  0.21393688626E+01 -0.11198440812E+02  0.11498354496E+02  0.10500000000E+00 0. -1.
</event>
<event>
11    0  0.3439373E-009  0.9118800E+02  0.7816531E-02  0.1126479E+00
         25   -1    0    0    0    0  0.00000000000E+00  0.00000000000E+00  0.99999998245E-14  0.12500000000E+03  0.12500000000E+03 0.  0.
    3000001    1    3    3    0    0 -0.39573463350E+01  0.17097313956E+01 -0.99452180119E+01  0.10885363235E+02  0.10000000000E+01 0.  1.
    1000022    2    1    0    0    0 -0.12079077426E+02  0.27764034543E+02 -0.53754110247E+02  0.62500000325E+02  0.99999973308E+01 0.  0.
    3000022    2    3    3    0    0 -0.81217310906E+01  0.26054303147E+02 -0.43808892235E+02  0.51614637090E+02  0.24998925691E+00 0.  0.
    1000022    2    1    0    0    0  0.12079077426E+02 -0.27764034543E+02  0.53754110247E+02  0.62499999675E+02  0.99999932658E+01 0.  0.
    3000022    2    5    5    0    0  0.51723811645E+01 -0.10230361903E+02  0.11580819319E+02  0.16296984651E+02  0.25000212346E+00 0.  0.
        -13    1    4    4    0    0 -0.26370893144E+01  0.83447181685E+01 -0.13977759952E+02  0.16491736101E+02  0.10500000000E+00 0.  1.
         13    1    4    4    0    0 -0.54846417761E+01  0.17709584979E+02 -0.29831132284E+02  0.35122900989E+02  0.10500000000E+00 0. -1.
    3000001    1    5    5    0    0  0.69066962611E+01 -0.17533672640E+02  0.42173290929E+02  0.46203015023E+02  0.10000000000E+01 0. -1.
        -13    1    6    6    0    0  0.15488004180E+01 -0.31693584545E+01  0.35662870858E+01  0.50172745915E+01  0.10500000000E+00 0. -1.
         13    1    6    6    0    0  0.36235807465E+01 -0.70610034487E+01  0.80145322327E+01  0.11279710060E+02  0.10500000000E+00 0.  1.
</event>
<event>
11    0  0.3439373E-009  0.9118800E+02  0.7816531E-02  0.1126479E+00
         25   -1    0    0    0    0  0.00000000000E+00  0.00000000000E+00  0.99999998245E-14  0.12500000000E+03  0.12500000000E+03 0.  0.
    3000001    1    3    3    0    0  0.27726925203E+02 -0.34065505933E+02  0.14411833568E+01  0.43958140146E+02  0.10000000000E+01 0.  1.
    1000022    2    1    0    0    0  0.35921951811E+02 -0.49620667125E+02  0.73247809280E+01  0.62500004588E+02  0.10000046502E+02 0.  0.
    3000022    2    3    3    0    0  0.81950266079E+01 -0.15555161192E+02  0.58835975712E+01  0.18541864442E+02  0.25003154174E+00 0.  0.
    1000022    2    1    0    0    0 -0.35921951811E+02  0.49620667125E+02 -0.73247809280E+01  0.62499995412E+02  0.99999891504E+01 0.  0.
    3000022    2    5    5    0    0 -0.23534953222E-01  0.71257633944E-01  0.73168385219E+00  0.77684790179E+00  0.24999971708E+00 0.  0.
        -13    1    4    4    0    0  0.44508427391E+01 -0.85579597298E+01  0.32731391346E+01  0.10186910259E+02  0.10500000000E+00 0.  1.
         13    1    4    4    0    0  0.37441838688E+01 -0.69972014625E+01  0.26104584366E+01  0.83549541830E+01  0.10500000000E+00 0. -1.
    3000001    1    5    5    0    0 -0.35898416858E+02  0.49549409491E+02 -0.80564647802E+01  0.61723147510E+02  0.10000000000E+01 0.  1.
        -13    1    6    6    0    0 -0.60245441023E-01  0.30904383490E-01  0.51524528865E+00  0.53017667014E+00  0.10500000000E+00 0.  1.
         13    1    6    6    0    0  0.36710487801E-01  0.40353250454E-01  0.21643856353E+00  0.24667123164E+00  0.10500000000E+00 0. -1.
</event>
<event>
11    0  0.3439373E-009  0.9118800E+02  0.7816531E-02  0.1126479E+00
         25   -1    0    0    0    0  0.00000000000E+00  0.00000000000E+00  0.99999998245E-14  0.12500000000E+03  0.12500000000E+03 0.  0.
    3000001    1    3    3    0    0  0.35820480404E+01  0.33395144140E+02 -0.98222344785E+01  0.35007756433E+02  0.10000000000E+01 0.  1.
    1000022    2    1    0    0    0  0.63570326314E+01  0.55838170464E+02 -0.25454602837E+02  0.62499999595E+02  0.99999999583E+01 0.  0.
    3000022    2    3    3    0    0  0.27749845910E+01  0.22443026324E+02 -0.15632368358E+02  0.27492243162E+02  0.25004710000E+00 0.  0.
    1000022    2    1    0    0    0 -0.63570326314E+01 -0.55838170464E+02  0.25454602837E+02  0.62500000405E+02  0.10000005020E+02 0.  0.
    3000022    2    5    5    0    0 -0.49728045038E+01 -0.46039415109E+02  0.24803660461E+02  0.52532281509E+02  0.25000014786E+00 0.  0.
        -13    1    4    4    0    0  0.17993397239E+01  0.14912909516E+02 -0.10420989250E+02  0.18282246460E+02  0.10500000000E+00 0.  1.
         13    1    4    4    0    0  0.97564486717E+00  0.75301168074E+01 -0.52113791083E+01  0.92099967019E+01  0.10500000000E+00 0. -1.
    3000001    1    5    5    0    0 -0.13842281276E+01 -0.97987553547E+01  0.65094237643E+00  0.99677188959E+01  0.10000000000E+01 0. -1.
        -13    1    6    6    0    0 -0.31647017518E+01 -0.29810947109E+02  0.16074397818E+02  0.34016248984E+02  0.10500000000E+00 0. -1.
         13    1    6    6    0    0 -0.18081027520E+01 -0.16228468000E+02  0.87292626422E+01  0.18516032525E+02  0.10500000000E+00 0.  1.
</event>
<event>
11    0  0.3439373E-009  0.9118800E+02  0.7816531E-02  0.1126479E+00
         25   -1    0    0    0    0  0.00000000000E+00  0.00000000000E+00  0.99999998245E-14  0.12500000000E+03  0.12500000000E+03 0.  0.
    3000001    1    3    3    0    0 -0.12885488490E+02  0.20465097179E+01 -0.17111708095E+02  0.21541461640E+02  0.10000000000E+01 0. -1.
    1000022    2    1    0    0    0 -0.37600213292E+02 -0.75766665008E+01 -0.48322542253E+02  0.62499999391E+02  0.99999959648E+01 0.  0.
    3000022    2    3    3    0    0 -0.24714724801E+02 -0.96231762186E+01 -0.31210834158E+02  0.40958537751E+02  0.25000671278E+00 0.  0.
    1000022    2    1    0    0    0  0.37600213292E+02  0.75766665008E+01  0.48322542253E+02  0.62500000609E+02  0.10000003573E+02 0.  0.
    3000022    2    5    5    0    0  0.22826884624E+02  0.51127217057E+01  0.36672698650E+02  0.43498918538E+02  0.25000568310E+00 0.  0.
        -13    1    4    4    0    0 -0.11572651407E+02 -0.45782995756E+01 -0.14649832111E+02  0.19222790990E+02  0.10500000000E+00 0.  1.
         13    1    4    4    0    0 -0.13142073395E+02 -0.50448766430E+01 -0.16561002047E+02  0.21735746761E+02  0.10500000000E+00 0. -1.
    3000001    1    5    5    0    0  0.14773328668E+02  0.24639447951E+01  0.11649843603E+02  0.19001082071E+02  0.10000000000E+01 0. -1.
        -13    1    6    6    0    0  0.12496591819E+02  0.27700997650E+01  0.19953784743E+02  0.23706598456E+02  0.10500000000E+00 0.  1.
         13    1    6    6    0    0  0.10330292805E+02  0.23426219407E+01  0.16718913907E+02  0.19792320081E+02  0.10500000000E+00 0. -1.
</event>
<event>
11    0  0.3439373E-009  0.9118800E+02  0.7816531E-02  0.1126479E+00
         25   -1    0    0    0    0  0.00000000000E+00  0.00000000000E+00  0.99999998245E-14  0.12500000000E+03  0.12500000000E+03 0.  0.
    3000001    1    3    3    0    0 -0.16060832684E+02 -0.24259460853E+02 -0.19125723337E+02  0.34831954877E+02  0.10000000000E+01 0.  1.
    1000022    2    1    0    0    0 -0.32627040534E+02 -0.36326759132E+02 -0.37710644959E+02  0.62500000676E+02  0.10000006913E+02 0.  0.
    3000022    2    3    3    0    0 -0.16566207849E+02 -0.12067298279E+02 -0.18584921622E+02  0.27668045799E+02  0.25003276739E+00 0.  0.
    1000022    2    1    0    0    0  0.32627040534E+02  0.36326759132E+02  0.37710644959E+02  0.62499999324E+02  0.99999984627E+01 0.  0.
    3000022    2    5    5    0    0  0.16740999187E+02  0.24827142515E+02  0.19620017506E+02  0.35800218544E+02  0.25000336230E+00 0.  0.
        -13    1    4    4    0    0 -0.64617504831E+01 -0.47821526740E+01 -0.73077569510E+01  0.10864508280E+02  0.10500000000E+00 0.  1.
         13    1    4    4    0    0 -0.10104457366E+02 -0.72851456048E+01 -0.11277164671E+02  0.16803537519E+02  0.10500000000E+00 0. -1.
    3000001    1    5    5    0    0  0.15886041347E+02  0.11499616617E+02  0.18090627454E+02  0.26699780780E+02  0.10000000000E+01 0.  1.
        -13    1    6    6    0    0  0.59626028302E+01  0.88811993216E+01  0.69452137573E+01  0.12754424841E+02  0.10500000000E+00 0.  1.
         13    1    6    6    0    0  0.10778396357E+02  0.15945943193E+02  0.12674803748E+02  0.23045793703E+02  0.10500000000E+00 0. -1.
</event>
<event>
11    0  0.3439373E-009  0.9118800E+02  0.7816531E-02  0.1126479E+00
         25   -1    0    0    0    0  0.00000000000E+00  0.00000000000E+00  0.99999998245E-14  0.12500000000E+03  0.12500000000E+03 0.  0.
    3000001    1    3    3    0    0  0.39075486302E+02  0.32137738159E+01 -0.67611115718E+01  0.39798675877E+02  0.10000000000E+01 0. -1.
    1000022    2    1    0    0    0  0.61542223927E+02  0.23811279850E+01 -0.36242282230E+01  0.62500000398E+02  0.99999961577E+01 0.  0.
    3000022    2    3    3    0    0  0.22466737625E+02 -0.83264583086E+00  0.31368833487E+01  0.22701324521E+02  0.24999853115E+00 0.  0.
    1000022    2    1    0    0    0 -0.61542223927E+02 -0.23811279850E+01  0.36242282230E+01  0.62499999602E+02  0.99999911861E+01 0.  0.
    3000022    2    5    5    0    0 -0.32443456726E+02 -0.60621814163E+01  0.30517857507E+01  0.33146701707E+02  0.25001978706E+00 0.  0.
        -13    1    4    4    0    0  0.11933443299E+02 -0.50106497892E+00  0.16997613231E+01  0.12064756468E+02  0.10500000000E+00 0. -1.
         13    1    4    4    0    0  0.10533294326E+02 -0.33158085194E+00  0.14371220256E+01  0.10636568053E+02  0.10500000000E+00 0.  1.
    3000001    1    5    5    0    0 -0.29098767201E+02  0.36810534312E+01  0.57244247230E+00  0.29353297896E+02  0.10000000000E+01 0.  1.
        -13    1    6    6    0    0 -0.12429393636E+02 -0.23476164349E+01  0.12258888836E+01  0.12708853514E+02  0.10500000000E+00 0.  1.
         13    1    6    6    0    0 -0.20014063090E+02 -0.37145649814E+01  0.18258968672E+01  0.20437848192E+02  0.10500000000E+00 0. -1.
</event>
<event>
11    0  0.3439373E-009  0.9118800E+02  0.7816531E-02  0.1126479E+00
         25   -1    0    0    0    0  0.00000000000E+00  0.00000000000E+00  0.99999998245E-14  0.12500000000E+03  0.12500000000E+03 0.  0.
    3000001    1    3    3    0    0 -0.89460018331E+01  0.13932274579E+02 -0.13195766439E+02  0.21195930639E+02  0.10000000000E+01 0. -1.
    1000022    2    1    0    0    0 -0.17341689840E+02  0.49363910407E+02 -0.32691284193E+02  0.62499999509E+02  0.10000000965E+02 0.  0.
    3000022    2    3    3    0    0 -0.83956880067E+01  0.35431635829E+02 -0.19495517753E+02  0.41304068870E+02  0.24999633264E+00 0.  0.
    1000022    2    1    0    0    0  0.17341689840E+02 -0.49363910407E+02  0.32691284193E+02  0.62500000491E+02  0.10000007097E+02 0.  0.
    3000022    2    5    5    0    0  0.60827993611E+01 -0.15775951942E+02  0.53371811308E+01  0.17732149046E+02  0.24999921464E+00 0.  0.
        -13    1    4    4    0    0 -0.23164004936E+01  0.99372086479E+01 -0.54790315687E+01  0.11582082666E+02  0.10500000000E+00 0. -1.
         13    1    4    4    0    0 -0.60792875131E+01  0.25494427181E+02 -0.14016486185E+02  0.29721986204E+02  0.10500000000E+00 0.  1.
    3000001    1    5    5    0    0  0.11258890479E+02 -0.33587958465E+02  0.27354103062E+02  0.44767851445E+02  0.10000000000E+01 0. -1.
        -13    1    6    6    0    0  0.36409127362E+01 -0.92873850505E+01  0.31813280182E+01  0.10471085884E+02  0.10500000000E+00 0. -1.
         13    1    6    6    0    0  0.24418866248E+01 -0.64885668915E+01  0.21558531125E+01  0.72610631616E+01  0.10500000000E+00 0.  1.
</event>
<event>
11    0  0.3439373E-009  0.9118800E+02  0.7816531E-02  0.1126479E+00
         25   -1    0    0    0    0  0.00000000000E+00  0.00000000000E+00  0.99999998245E-14  0.12500000000E+03  0.12500000000E+03 0.  0.
    3000001    1    3    3    0    0  0.91018283879E+01 -0.27677189553E+02  0.75468868050E+01  0.30113545158E+02  0.10000000000E+01 0.  1.
    1000022    2    1    0    0    0  0.87669794548E+01 -0.58754413403E+02  0.16652593849E+02  0.62499998623E+02  0.99999961472E+01 0.  0.
    3000022    2    3    3    0    0 -0.33484893308E+00 -0.31077223850E+02  0.91057070440E+01  0.32386453465E+02  0.25000249822E+00 0.  0.
    1000022    2    1    0    0    0 -0.87669794548E+01  0.58754413403E+02 -0.16652593849E+02  0.62500001377E+02  0.10000013355E+02 0.  0.
    3000022    2    5    5    0    0 -0.10734958528E+01  0.29501323795E+02 -0.12055229125E+02  0.31888423437E+02  0.25000207006E+00 0.  0.
        -13    1    4    4    0    0 -0.24595425811E+00 -0.20511715579E+02  0.59591610089E+01  0.21361497944E+02  0.10500000000E+00 0.  1.
         13    1    4    4    0    0 -0.88894674968E-01 -0.10565508271E+02  0.31465460351E+01  0.11024955521E+02  0.10500000000E+00 0. -1.
    3000001    1    5    5    0    0 -0.76934836020E+01  0.29253089608E+02 -0.45973647236E+01  0.30611577940E+02  0.10000000000E+01 0. -1.
        -13    1    6    6    0    0 -0.39317396632E+00  0.11787621873E+02 -0.48724224390E+01  0.12761431762E+02  0.10500000000E+00 0.  1.
         13    1    6    6    0    0 -0.68032188644E+00  0.17713701922E+02 -0.71828066864E+01  0.19126991675E+02  0.10500000000E+00 0. -1.
</event>
<event>
11    0  0.3439373E-009  0.9118800E+02  0.7816531E-02  0.1126479E+00
         25   -1    0    0    0    0  0.00000000000E+00  0.00000000000E+00  0.99999998245E-14  0.12500000000E+03  0.12500000000E+03 0.  0.
    3000001    1    3    3    0    0  0.18465959901E+02  0.17496085712E+02 -0.16915282859E+01  0.25514034535E+02  0.10000000000E+01 0.  1.
    1000022    2    1    0    0    0  0.35784870783E+02  0.50062042048E+02 -0.44141805934E+01  0.62499998484E+02  0.99999894580E+01 0.  0.
    3000022    2    3    3    0    0  0.17318910882E+02  0.32565956336E+02 -0.27226523076E+01  0.36985963948E+02  0.25001481021E+00 0.  0.
    1000022    2    1    0    0    0 -0.35784870783E+02 -0.50062042048E+02  0.44141805934E+01  0.62500001516E+02  0.10000008414E+02 0.  0.
    3000022    2    5    5    0    0 -0.32906149334E+02 -0.43140144030E+02  0.11707191277E+01  0.54270800363E+02  0.24999556406E+00 0.  0.
        -13    1    4    4    0    0  0.69390584306E+01  0.13036946828E+02 -0.10271013927E+01  0.14804677530E+02  0.10500000000E+00 0.  1.
         13    1    4    4    0    0  0.10379852451E+02  0.19529009508E+02 -0.16955509149E+01  0.22181286418E+02  0.10500000000E+00 0. -1.
    3000001    1    5    5    0    0 -0.28787214487E+01 -0.69218980179E+01  0.32434614657E+01  0.82292011537E+01  0.10000000000E+01 0. -1.
        -13    1    6    6    0    0 -0.23959014075E+02 -0.31352415074E+02  0.86303281233E+00  0.39468520837E+02  0.10500000000E+00 0.  1.
         13    1    6    6    0    0 -0.89471352593E+01 -0.11787728956E+02  0.30768631539E+00  0.14802279526E+02  0.10500000000E+00 0. -1.
</event>
<event>
11    0  0.3439373E-009  0.9118800E+02  0.7816531E-02  0.1126479E+00
         25   -1    0    0    0    0  0.00000000000E+00  0.00000000000E+00  0.99999998245E-14  0.12500000000E+03  0.12500000000E+03 0.  0.
    3000001    1    3    3    0    0 -0.30303534172E+02  0.49762464995E+02 -0.14511645335E+02  0.60051602444E+02  0.10000000000E+01 0.  1.
    1000022    2    1    0    0    0 -0.31500583331E+02  0.50404501441E+02 -0.16533281398E+02  0.62499999835E+02  0.10000003494E+02 0.  0.
    3000022    2    3    3    0    0 -0.11970491593E+01  0.64203644549E+00 -0.20216360631E+01  0.24483973913E+01  0.24999985425E+00 0.  0.
    1000022    2    1    0    0    0  0.31500583331E+02 -0.50404501441E+02  0.16533281398E+02  0.62500000165E+02  0.10000005557E+02 0.  0.
    3000022    2    5    5    0    0  0.51821758148E+01 -0.16627900174E+02  0.39868369075E+01  0.17868950024E+02  0.24999212899E+00 0.  0.
        -13    1    4    4    0    0 -0.53918619951E+00  0.32255932745E+00 -0.10436627483E+01  0.12227114172E+01  0.10500000000E+00 0.  1.
         13    1    4    4    0    0 -0.65786295975E+00  0.31947711804E+00 -0.97797331479E+00  0.12256859741E+01  0.10500000000E+00 0. -1.
    3000001    1    5    5    0    0  0.26318407516E+02 -0.33776601267E+02  0.12546444491E+02  0.44631050141E+02  0.10000000000E+01 0.  1.
        -13    1    6    6    0    0  0.20624356765E+01 -0.65458815533E+01  0.15109240457E+01  0.70282375245E+01  0.10500000000E+00 0.  1.
         13    1    6    6    0    0  0.31197401383E+01 -0.10082018620E+02  0.24759128618E+01  0.10840712499E+02  0.10500000000E+00 0.  1.
</event>
<event>
11    0  0.3439373E-009  0.9118800E+02  0.7816531E-02  0.1126479E+00
         25   -1    0    0    0    0  0.00000000000E+00  0.00000000000E+00  0.99999998245E-14  0.12500000000E+03  0.12500000000E+03 0.  0.
    3000001    1    3    3    0    0  0.16491616700E+01 -0.39831803900E-01 -0.16734176548E+01  0.25537516390E+01  0.10000000000E+01 0.  1.
    1000022    2    1    0    0    0  0.51461452019E+01  0.11369651242E+02 -0.60419352866E+02  0.62499999286E+02  0.99999965077E+01 0.  0.
    3000022    2    3    3    0    0  0.34969835319E+01  0.11409483046E+02 -0.58745935211E+02  0.59946247647E+02  0.25001174597E+00 0.  0.
    1000022    2    1    0    0    0 -0.51461452019E+01 -0.11369651242E+02  0.60419352866E+02  0.62500000714E+02  0.10000005438E+02 0.  0.
    3000022    2    5    5    0    0 -0.39870752623E+00 -0.68044567318E+01  0.13656933079E+02  0.15265446946E+02  0.24990042465E+00 0.  0.
        -13    1    4    4    0    0  0.24737144991E+01  0.79416925081E+01 -0.41079620633E+02  0.41913434597E+02  0.10500000000E+00 0. -1.
         13    1    4    4    0    0  0.10232690328E+01  0.34677905381E+01 -0.17666314578E+02  0.18032813050E+02  0.10500000000E+00 0.  1.
    3000001    1    5    5    0    0 -0.47474376756E+01 -0.45651945105E+01  0.46762419787E+02  0.47234553769E+02  0.10000000000E+01 0. -1.
        -13    1    6    6    0    0 -0.24546056090E+00 -0.43006540383E+01  0.84968489729E+01  0.95269797687E+01  0.10500000000E+00 0. -1.
         13    1    6    6    0    0 -0.15324696533E+00 -0.25038026935E+01  0.51600841059E+01  0.57384671769E+01  0.10500000000E+00 0.  1.
</event>
<event>
11    0  0.3439373E-009  0.9118800E+02  0.7816531E-02  0.1126479E+00
         25   -1    0    0    0    0  0.00000000000E+00  0.00000000000E+00  0.99999998245E-14  0.12500000000E+03  0.12500000000E+03 0.  0.
    3000001    1    3    3    0    0 -0.11610084626E+02  0.21252079237E+02 -0.98095593138E+01  0.26147129687E+02  0.10000000000E+01 0. -1.
    1000022    2    1    0    0    0 -0.25356346760E+02  0.45251867483E+02 -0.33400215525E+02  0.62499999221E+02  0.99999836839E+01 0.  0.
    3000022    2    3    3    0    0 -0.13746262134E+02  0.23999788246E+02 -0.23590656211E+02  0.36352869534E+02  0.25000866017E+00 0.  0.
    1000022    2    1    0    0    0  0.25356346760E+02 -0.45251867483E+02  0.33400215525E+02  0.62500000779E+02  0.99999934271E+01 0.  0.
    3000022    2    5    5    0    0  0.22049853434E+02 -0.43378723692E+02  0.29210463879E+02  0.56755822454E+02  0.24995358149E+00 0.  0.
        -13    1    4    4    0    0 -0.91816538308E+01  0.16078594406E+02 -0.15854559437E+02  0.24376259867E+02  0.10500000000E+00 0.  1.
         13    1    4    4    0    0 -0.45646083034E+01  0.79211938402E+01 -0.77360967743E+01  0.11976609667E+02  0.10500000000E+00 0. -1.
    3000001    1    5    5    0    0  0.33064933262E+01 -0.18731437918E+01  0.41897516463E+01  0.57441783258E+01  0.10000000000E+01 0. -1.
        -13    1    6    6    0    0  0.87387756494E+01 -0.17183785433E+02  0.11499539284E+02  0.22447697218E+02  0.10500000000E+00 0. -1.
         13    1    6    6    0    0  0.13311077784E+02 -0.26194938259E+02  0.17710924595E+02  0.34308125235E+02  0.10500000000E+00 0.  1.
</event>
<event>
11    0  0.3439373E-009  0.9118800E+02  0.7816531E-02  0.1126479E+00
         25   -1    0    0    0    0  0.00000000000E+00  0.00000000000E+00  0.99999998245E-14  0.12500000000E+03  0.12500000000E+03 0.  0.
    3000001    1    3    3    0    0 -0.16196443398E+00 -0.20601507628E+00  0.21454105328E+00  0.10557947495E+01  0.10000000000E+01 0.  1.
    1000022    2    1    0    0    0  0.70384374203E+01 -0.56751806625E+02  0.23150438653E+02  0.62499998740E+02  0.99999938037E+01 0.  0.
    3000022    2    3    3    0    0  0.72004018543E+01 -0.56545791549E+02  0.22935897600E+02  0.61444203990E+02  0.24995301299E+00 0.  0.
    1000022    2    1    0    0    0 -0.70384374203E+01  0.56751806625E+02 -0.23150438653E+02  0.62500001260E+02  0.10000009555E+02 0.  0.
    3000022    2    5    5    0    0 -0.87197692508E+01  0.31870542541E+02 -0.11857825141E+02  0.35106073117E+02  0.24998997484E+00 0.  0.
        -13    1    4    4    0    0  0.21550715259E+01 -0.17174088579E+02  0.69274035663E+01  0.18643862180E+02  0.10500000000E+00 0. -1.
         13    1    4    4    0    0  0.50453303284E+01 -0.39371702970E+02  0.16008494034E+02  0.42800341810E+02  0.10500000000E+00 0.  1.
    3000001    1    5    5    0    0  0.16813318305E+01  0.24881264084E+02 -0.11292613513E+02  0.27393928143E+02  0.10000000000E+01 0. -1.
        -13    1    6    6    0    0 -0.35887936136E+01  0.12895004715E+02 -0.47774239998E+01  0.14212508268E+02  0.10500000000E+00 0. -1.
         13    1    6    6    0    0 -0.51309756372E+01  0.18975537826E+02 -0.70804011409E+01  0.20893564849E+02  0.10500000000E+00 0.  1.
</event>
<event>
11    0  0.3439373E-009  0.9118800E+02  0.7816531E-02  0.1126479E+00
         25   -1    0    0    0    0  0.00000000000E+00  0.00000000000E+00  0.99999998245E-14  0.12500000000E+03  0.12500000000E+03 0.  0.
    3000001    1    3    3    0    0  0.15059800541E+02 -0.55468227793E+01 -0.10001115091E+02  0.18936397185E+02  0.10000000000E+01 0. -1.
    1000022    2    1    0    0    0  0.50865130219E+02 -0.27587443803E+02 -0.21399074605E+02  0.62499989667E+02  0.99999893306E+01 0.  0.
    3000022    2    3    3    0    0  0.35805329679E+02 -0.22040621024E+02 -0.11397959514E+02  0.43563592483E+02  0.25000076177E+00 0.  0.
    1000022    2    1    0    0    0 -0.50865130219E+02  0.27587443803E+02  0.21399074605E+02  0.62500010333E+02  0.10000118491E+02 0.  0.
    3000022    2    5    5    0    0 -0.16646167369E+02  0.40562895985E+01  0.51260273750E+01  0.17885386016E+02  0.25000583900E+00 0.  0.
        -13    1    4    4    0    0  0.25400969061E+02 -0.15675198076E+02 -0.80633427751E+01  0.30918434399E+02  0.10500000000E+00 0. -1.
         13    1    4    4    0    0  0.10404360618E+02 -0.63654229481E+01 -0.33346167389E+01  0.12645158084E+02  0.10500000000E+00 0.  1.
    3000001    1    5    5    0    0 -0.34218962851E+02  0.23531154205E+02  0.16273047230E+02  0.44614624317E+02  0.10000000000E+01 0. -1.
        -13    1    6    6    0    0 -0.10193125507E+02  0.25375690529E+01  0.31083237238E+01  0.10954988164E+02  0.10500000000E+00 0. -1.
         13    1    6    6    0    0 -0.64530418621E+01  0.15187205456E+01  0.20177036512E+01  0.69303978525E+01  0.10500000000E+00 0.  1.
</event>
<event>
11    0  0.3439373E-009  0.9118800E+02  0.7816531E-02  0.1126479E+00
         25   -1    0    0    0    0  0.00000000000E+00  0.00000000000E+00  0.99999998245E-14  0.12500000000E+03  0.12500000000E+03 0.  0.
    3000001    1    3    3    0    0  0.11120281691E+02 -0.53065837839E+02  0.93550659780E+01  0.55028729495E+02  0.10000000000E+01 0. -1.
    1000022    2    1    0    0    0  0.14301349631E+02 -0.59549280034E+02  0.74568602614E+01  0.62500001254E+02  0.10000001899E+02 0.  0.
    3000022    2    3    3    0    0  0.31810679403E+01 -0.64834421953E+01 -0.18982057166E+01  0.74712717590E+01  0.25000162558E+00 0.  0.
    1000022    2    1    0    0    0 -0.14301349631E+02  0.59549280034E+02 -0.74568602614E+01  0.62499998746E+02  0.99999862214E+01 0.  0.
    3000022    2    5    5    0    0 -0.13412527177E+02  0.37479501562E+02 -0.67665879388E+01  0.40378931795E+02  0.24999594270E+00 0.  0.
        -13    1    4    4    0    0  0.23416382306E+01 -0.47745581033E+01 -0.13627577780E+01  0.54907019994E+01  0.10500000000E+00 0. -1.
         13    1    4    4    0    0  0.83942970968E+00 -0.17088840921E+01 -0.53544793867E+00  0.19805697596E+01  0.10500000000E+00 0.  1.
    3000001    1    5    5    0    0 -0.88882245416E+00  0.22069778472E+02 -0.69027232255E+00  0.22121066951E+02  0.10000000000E+01 0. -1.
        -13    1    6    6    0    0 -0.47986304689E+01  0.13566879208E+02 -0.24705164903E+01  0.14601422620E+02  0.10500000000E+00 0. -1.
         13    1    6    6    0    0 -0.86138967081E+01  0.23912622355E+02 -0.42960714485E+01  0.25777509175E+02  0.10500000000E+00 0.  1.
</event>
<event>
11    0  0.3439373E-009  0.9118800E+02  0.7816531E-02  0.1126479E+00
         25   -1    0    0    0    0  0.00000000000E+00  0.00000000000E+00  0.99999998245E-14  0.12500000000E+03  0.12500000000E+03 0.  0.
    3000001    1    3    3    0    0  0.98574447605E+01  0.11347164879E+02  0.11210694986E+02  0.18777834009E+02  0.10000000000E+01 0.  1.
    1000022    2    1    0    0    0  0.19622511096E+02  0.44906403568E+02  0.37478286096E+02  0.62500000745E+02  0.10000007063E+02 0.  0.
    3000022    2    3    3    0    0  0.97650663360E+01  0.33559238689E+02  0.26267591111E+02  0.43722166736E+02  0.24999886274E+00 0.  0.
    1000022    2    1    0    0    0 -0.19622511096E+02 -0.44906403568E+02 -0.37478286096E+02  0.62499999255E+02  0.99999977479E+01 0.  0.
    3000022    2    5    5    0    0 -0.21222890966E+01 -0.93598030018E+01 -0.32611389179E+01  0.10139405838E+02  0.25000094526E+00 0.  0.
        -13    1    4    4    0    0  0.38421540334E+01  0.13292549553E+02  0.10327125874E+02  0.17265994760E+02  0.10500000000E+00 0.  1.
         13    1    4    4    0    0  0.59229123025E+01  0.20266689136E+02  0.15940465237E+02  0.26456171976E+02  0.10500000000E+00 0. -1.
    3000001    1    5    5    0    0 -0.17500222000E+02 -0.35546600566E+02 -0.34217147179E+02  0.52360593416E+02  0.10000000000E+01 0.  1.
        -13    1    6    6    0    0 -0.14596612063E+01 -0.62516480941E+01 -0.22164945360E+01  0.67924655140E+01  0.10500000000E+00 0. -1.
         13    1    6    6    0    0 -0.66262789034E+00 -0.31081549076E+01 -0.10446443819E+01  0.33469403245E+01  0.10500000000E+00 0.  1.
</event>
<event>
11    0  0.3439373E-009  0.9118800E+02  0.7816531E-02  0.1126479E+00
         25   -1    0    0    0    0  0.00000000000E+00  0.00000000000E+00  0.99999998245E-14  0.12500000000E+03  0.12500000000E+03 0.  0.
    3000001    1    3    3    0    0 -0.21115169785E+02 -0.13438803083E+02  0.29610160934E+02  0.38784190773E+02  0.10000000000E+01 0. -1.
    1000022    2    1    0    0    0 -0.34453845983E+02 -0.27778282691E+02  0.42983127369E+02  0.62500001729E+02  0.10000024267E+02 0.  0.
    3000022    2    3    3    0    0 -0.13338676198E+02 -0.14339479609E+02  0.13372966435E+02  0.23715810956E+02  0.24999973710E+00 0.  0.
    1000022    2    1    0    0    0  0.34453845983E+02  0.27778282691E+02 -0.42983127369E+02  0.62499998271E+02  0.10000002660E+02 0.  0.
    3000022    2    5    5    0    0  0.33129200307E+02  0.23210129588E+02 -0.37320924749E+02  0.55037877430E+02  0.24999876903E+00 0.  0.
        -13    1    4    4    0    0 -0.47869465753E+01 -0.50994258801E+01  0.47179820533E+01  0.84373800126E+01  0.10500000000E+00 0.  1.
         13    1    4    4    0    0 -0.85517296223E+01 -0.92400537285E+01  0.86549843822E+01  0.15278430943E+02  0.10500000000E+00 0. -1.
    3000001    1    5    5    0    0  0.13246456760E+01  0.45681531034E+01 -0.56622026200E+01  0.74621208415E+01  0.10000000000E+01 0.  1.
        -13    1    6    6    0    0  0.18688913292E+02  0.13068282785E+02 -0.21125431944E+02  0.31086176908E+02  0.10500000000E+00 0. -1.
         13    1    6    6    0    0  0.14440287015E+02  0.10141846803E+02 -0.16195492806E+02  0.23951700522E+02  0.10500000000E+00 0.  1.
</event>
<event>
11    0  0.3439373E-009  0.9118800E+02  0.7816531E-02  0.1126479E+00
         25   -1    0    0    0    0  0.00000000000E+00  0.00000000000E+00  0.99999998245E-14  0.12500000000E+03  0.12500000000E+03 0.  0.
    3000001    1    3    3    0    0  0.19090795195E+02  0.23846056348E+02 -0.53092840665E+02  0.61261265041E+02  0.10000000000E+01 0.  1.
    1000022    2    1    0    0    0  0.19763565462E+02  0.24837729385E+02 -0.52903106434E+02  0.62499998624E+02  0.99999918444E+01 0.  0.
    3000022    2    3    3    0    0  0.67277026726E+00  0.99167303632E+00  0.18973423133E+00  0.12387335829E+01  0.24985309154E+00 0.  0.
    1000022    2    1    0    0    0 -0.19763565462E+02 -0.24837729385E+02  0.52903106434E+02  0.62500001376E+02  0.10000009045E+02 0.  0.
    3000022    2    5    5    0    0 -0.30198693754E+01 -0.19105494443E+00  0.84175476561E+01  0.89483920690E+01  0.24999808506E+00 0.  0.
        -13    1    4    4    0    0  0.44696703106E+00  0.55218195862E+00  0.13408092440E+00  0.73053893570E+00  0.10500000000E+00 0.  1.
         13    1    4    4    0    0  0.22580323620E+00  0.43949107770E+00  0.55653306934E-01  0.50819464719E+00  0.10500000000E+00 0. -1.
    3000001    1    5    5    0    0 -0.16743696087E+02 -0.24646674440E+02  0.44485558778E+02  0.53551609307E+02  0.10000000000E+01 0.  1.
        -13    1    6    6    0    0 -0.21951965277E+01 -0.16841481286E+00  0.61780965034E+01  0.65595085753E+01  0.10500000000E+00 0. -1.
         13    1    6    6    0    0 -0.82467284771E+00 -0.22640131571E-01  0.22394511527E+01  0.23888834937E+01  0.10500000000E+00 0.  1.
</event>
<event>
11    0  0.3439373E-009  0.9118800E+02  0.7816531E-02  0.1126479E+00
         25   -1    0    0    0    0  0.00000000000E+00  0.00000000000E+00  0.99999998245E-14  0.12500000000E+03  0.12500000000E+03 0.  0.
    3000001    1    3    3    0    0  0.27786124634E+01  0.47187098970E+01  0.64304160877E+01  0.85051255943E+01  0.10000000000E+01 0. -1.
    1000022    2    1    0    0    0  0.34382089169E+02  0.14934501026E+02  0.49000846415E+02  0.62499997244E+02  0.99999664804E+01 0.  0.
    3000022    2    3    3    0    0  0.31603476705E+02  0.10215791129E+02  0.42570430328E+02  0.53994871650E+02  0.24999592030E+00 0.  0.
    1000022    2    1    0    0    0 -0.34382089169E+02 -0.14934501026E+02 -0.49000846415E+02  0.62500002756E+02  0.10000000927E+02 0.  0.
    3000022    2    5    5    0    0 -0.54796647031E+01 -0.56516164549E+00 -0.13094440276E+02  0.14208201629E+02  0.24998888687E+00 0.  0.
        -13    1    4    4    0    0  0.20170260280E+02  0.64966416491E+01  0.27247903729E+02  0.34518184122E+02  0.10500000000E+00 0. -1.
         13    1    4    4    0    0  0.11433216425E+02  0.37191494801E+01  0.15322526599E+02  0.19476687528E+02  0.10500000000E+00 0.  1.
    3000001    1    5    5    0    0 -0.28902424465E+02 -0.14369339381E+02 -0.35906406140E+02  0.48291801127E+02  0.10000000000E+01 0. -1.
        -13    1    6    6    0    0 -0.26702804582E+01 -0.23512127730E+00 -0.62308659807E+01  0.67838334008E+01  0.10500000000E+00 0. -1.
         13    1    6    6    0    0 -0.28093842450E+01 -0.33004036818E+00 -0.68635742950E+01  0.74243682279E+01  0.10500000000E+00 0.  1.
</event>
<event>
11    0  0.3439373E-009  0.9118800E+02  0.7816531E-02  0.1126479E+00
         25   -1    0    0    0    0  0.00000000000E+00  0.00000000000E+00  0.99999998245E-14  0.12500000000E+03  0.12500000000E+03 0.  0.
    3000001    1    3    3    0    0  0.14725891435E+02 -0.79650887384E+01 -0.11809933301E+02  0.20512655648E+02  0.10000000000E+01 0. -1.
    1000022    2    1    0    0    0  0.35672258202E+02 -0.34928445667E+02 -0.36245600275E+02  0.62500001535E+02  0.10000016530E+02 0.  0.
    3000022    2    3    3    0    0  0.20946366767E+02 -0.26963356929E+02 -0.24435666974E+02  0.41987345887E+02  0.24999307373E+00 0.  0.
    1000022    2    1    0    0    0 -0.35672258202E+02  0.34928445667E+02  0.36245600275E+02  0.62499998465E+02  0.99999973402E+01 0.  0.
    3000022    2    5    5    0    0  0.44942165440E+00  0.16143133024E+01  0.64791728710E+00  0.18139028166E+01  0.24991869776E+00 0.  0.
        -13    1    4    4    0    0  0.10773899063E+02 -0.13884967904E+02 -0.12495403853E+02  0.21564215199E+02  0.10500000000E+00 0. -1.
         13    1    4    4    0    0  0.10172467704E+02 -0.13078389024E+02 -0.11940263121E+02  0.20423130687E+02  0.10500000000E+00 0.  1.
    3000001    1    5    5    0    0 -0.36121679857E+02  0.33314132365E+02  0.35597682988E+02  0.60686095648E+02  0.10000000000E+01 0.  1.
        -13    1    6    6    0    0  0.21107105065E+00  0.95950432457E+00  0.41560975516E+00  0.10718936542E+01  0.10500000000E+00 0. -1.
         13    1    6    6    0    0  0.23835060374E+00  0.65480897785E+00  0.23230753194E+00  0.74200916246E+00  0.10500000000E+00 0.  1.
</event>
<event>
11    0  0.3439373E-009  0.9118800E+02  0.7816531E-02  0.1126479E+00
         25   -1    0    0    0    0  0.00000000000E+00  0.00000000000E+00  0.99999998245E-14  0.12500000000E+03  0.12500000000E+03 0.  0.
    3000001    1    3    3    0    0  0.44249894539E+02 -0.13504496891E+02 -0.17615205617E+02  0.49514846985E+02  0.10000000000E+01 0.  1.
    1000022    2    1    0    0    0  0.53065114698E+02 -0.17002453687E+02 -0.26481318924E+02  0.62500001297E+02  0.10000004045E+02 0.  0.
    3000022    2    3    3    0    0  0.88152201588E+01 -0.34979567954E+01 -0.88661133068E+01  0.12985154312E+02  0.24991828231E+00 0.  0.
    1000022    2    1    0    0    0 -0.53065114698E+02  0.17002453687E+02  0.26481318924E+02  0.62499998703E+02  0.99999878304E+01 0.  0.
    3000022    2    5    5    0    0 -0.19301382626E+02  0.67041262566E+01  0.45631221024E+01  0.20937365206E+02  0.24999660426E+00 0.  0.
        -13    1    4    4    0    0  0.42844924944E+01 -0.16338246944E+01 -0.42483653232E+01  0.62518710788E+01  0.10500000000E+00 0. -1.
         13    1    4    4    0    0  0.45307276644E+01 -0.18641321010E+01 -0.46177479836E+01  0.67332832333E+01  0.10500000000E+00 0.  1.
    3000001    1    5    5    0    0 -0.33763732072E+02  0.10298327430E+02  0.21918196822E+02  0.41562633497E+02  0.10000000000E+01 0.  1.
        -13    1    6    6    0    0 -0.84800774140E+01  0.28983871746E+01  0.20514576235E+01  0.91941211946E+01  0.10500000000E+00 0.  1.
         13    1    6    6    0    0 -0.10821305212E+02  0.38057390820E+01  0.25116644789E+01  0.11743244011E+02  0.10500000000E+00 0. -1.
</event>
<event>
11    0  0.3439373E-009  0.9118800E+02  0.7816531E-02  0.1126479E+00
         25   -1    0    0    0    0  0.00000000000E+00  0.00000000000E+00  0.99999998245E-14  0.12500000000E+03  0.12500000000E+03 0.  0.
    3000001    1    3    3    0    0 -0.61161302708E+01 -0.91131219962E+01 -0.63621604617E+01  0.12725294800E+02  0.10000000000E+01 0. -1.
    1000022    2    1    0    0    0 -0.13450906233E+02 -0.53711727629E+02 -0.27209800590E+02  0.62499998840E+02  0.10000002168E+02 0.  0.
    3000022    2    3    3    0    0 -0.73347759624E+01 -0.44598605633E+02 -0.20847640129E+02  0.49774704040E+02  0.25000091954E+00 0.  0.
    1000022    2    1    0    0    0  0.13450906233E+02  0.53711727629E+02  0.27209800590E+02  0.62500001160E+02  0.10000016673E+02 0.  0.
    3000022    2    5    5    0    0  0.72947760507E+01  0.35897294797E+02  0.22696712741E+02  0.43093303401E+02  0.24999490578E+00 0.  0.
        -13    1    4    4    0    0 -0.21608181832E+01 -0.13389586444E+02 -0.62327894419E+01  0.14926782962E+02  0.10500000000E+00 0.  1.
         13    1    4    4    0    0 -0.51739577792E+01 -0.31209019189E+02 -0.14614850687E+02  0.34847921078E+02  0.10500000000E+00 0. -1.
    3000001    1    5    5    0    0  0.61561301825E+01  0.17814432833E+02  0.45130878495E+01  0.19406697759E+02  0.10000000000E+01 0.  1.
        -13    1    6    6    0    0  0.46258138399E+01  0.22522155200E+02  0.14287908372E+02  0.27070296991E+02  0.10500000000E+00 0.  1.
         13    1    6    6    0    0  0.26689622107E+01  0.13375139597E+02  0.84088043687E+01  0.16023006410E+02  0.10500000000E+00 0. -1.
</event>
<event>
11    0  0.3439373E-009  0.9118800E+02  0.7816531E-02  0.1126479E+00
         25   -1    0    0    0    0  0.00000000000E+00  0.00000000000E+00  0.99999998245E-14  0.12500000000E+03  0.12500000000E+03 0.  0.
    3000001    1    3    3    0    0 -0.12793348683E+00  0.13603675596E+01  0.34344845213E+00  0.17276931769E+01  0.10000000000E+01 0. -1.
    1000022    2    1    0    0    0 -0.34173373299E+02  0.28228804141E+02  0.42913462297E+02  0.62500001356E+02  0.10000004867E+02 0.  0.
    3000022    2    3    3    0    0 -0.34045439812E+02  0.26868436581E+02  0.42570013844E+02  0.60772308179E+02  0.25001269860E+00 0.  0.
    1000022    2    1    0    0    0  0.34173373299E+02 -0.28228804141E+02 -0.42913462297E+02  0.62499998644E+02  0.99999879216E+01 0.  0.
    3000022    2    5    5    0    0  0.15183771043E+02 -0.66794731326E+01 -0.17818164781E+02  0.24345672309E+02  0.24999917078E+00 0.  0.
        -13    1    4    4    0    0 -0.17656038314E+02  0.13855962151E+02  0.22069701803E+02  0.31477073225E+02  0.10500000000E+00 0.  1.
         13    1    4    4    0    0 -0.16389401497E+02  0.13012474430E+02  0.20500312041E+02  0.29295234954E+02  0.10500000000E+00 0. -1.
    3000001    1    5    5    0    0  0.18989602256E+02 -0.21549331008E+02 -0.25095297515E+02  0.38154326335E+02  0.10000000000E+01 0.  1.
        -13    1    6    6    0    0  0.74700313276E+01 -0.32253861974E+01 -0.86829665522E+01  0.11899975517E+02  0.10500000000E+00 0.  1.
         13    1    6    6    0    0  0.77137397153E+01 -0.34540869353E+01 -0.91351982292E+01  0.12445696792E+02  0.10500000000E+00 0. -1.
</event>
<event>
11    0  0.3439373E-009  0.9118800E+02  0.7816531E-02  0.1126479E+00
         25   -1    0    0    0    0  0.00000000000E+00  0.00000000000E+00  0.99999998245E-14  0.12500000000E+03  0.12500000000E+03 0.  0.
    3000001    1    3    3    0    0  0.10102115920E+01 -0.36652037971E+00  0.42839771112E+00  0.15291792727E+01  0.10000000000E+01 0.  1.
    1000022    2    1    0    0    0  0.50783916032E+02  0.32421553415E+02  0.13269731972E+02  0.62500006738E+02  0.10000090107E+02 0.  0.
    3000022    2    3    3    0    0  0.49773704440E+02  0.32788073795E+02  0.12841334261E+02  0.60970827465E+02  0.24999849346E+00 0.  0.
    1000022    2    1    0    0    0 -0.50783916032E+02 -0.32421553415E+02 -0.13269731972E+02  0.62499993262E+02  0.10000005887E+02 0.  0.
    3000022    2    5    5    0    0 -0.32797659761E+02 -0.16243204401E+02 -0.10807069525E+02  0.38162592049E+02  0.25001035058E+00 0.  0.
        -13    1    4    4    0    0  0.30962767406E+02  0.20352525672E+02  0.79336442558E+01  0.37892901747E+02  0.10500000000E+00 0.  1.
         13    1    4    4    0    0  0.18810937034E+02  0.12435548123E+02  0.49076900053E+01  0.23077925717E+02  0.10500000000E+00 0. -1.
    3000001    1    5    5    0    0 -0.17986256271E+02 -0.16178349014E+02 -0.24626624476E+01  0.24337401213E+02  0.10000000000E+01 0.  1.
        -13    1    6    6    0    0 -0.20184255752E+02 -0.99842274297E+01 -0.65861957319E+01  0.23462267087E+02  0.10500000000E+00 0. -1.
         13    1    6    6    0    0 -0.12613404009E+02 -0.62589769714E+01 -0.42208737928E+01  0.14700324963E+02  0.10500000000E+00 0.  1.
</event>
<event>
11    0  0.3439373E-009  0.9118800E+02  0.7816531E-02  0.1126479E+00
         25   -1    0    0    0    0  0.00000000000E+00  0.00000000000E+00  0.99999998245E-14  0.12500000000E+03  0.12500000000E+03 0.  0.
    3000001    1    3    3    0    0  0.12708812405E+02 -0.24052785767E+02  0.99728953050E+01  0.28991534224E+02  0.10000000000E+01 0.  1.
    1000022    2    1    0    0    0  0.33892350977E+02 -0.44626809813E+02  0.25807096001E+02  0.62499998578E+02  0.10000000471E+02 0.  0.
    3000022    2    3    3    0    0  0.21183538571E+02 -0.20574024046E+02  0.15834200696E+02  0.33508464354E+02  0.24999964025E+00 0.  0.
    1000022    2    1    0    0    0 -0.33892350977E+02  0.44626809813E+02 -0.25807096001E+02  0.62500001422E+02  0.10000018248E+02 0.  0.
    3000022    2    5    5    0    0 -0.30234519224E+01  0.76824913778E+01 -0.69176516385E+01  0.10773966374E+02  0.25002388704E+00 0.  0.
        -13    1    4    4    0    0  0.94243958356E+01 -0.92045060248E+01  0.71265551967E+01  0.14978016624E+02  0.10500000000E+00 0.  1.
         13    1    4    4    0    0  0.11759142736E+02 -0.11369518021E+02  0.87076454997E+01  0.18530447730E+02  0.10500000000E+00 0. -1.
    3000001    1    5    5    0    0 -0.30868899054E+02  0.36944318435E+02 -0.18889444363E+02  0.51726035048E+02  0.10000000000E+01 0.  1.
        -13    1    6    6    0    0 -0.23014999114E+01  0.58456771052E+01 -0.52379528816E+01  0.81802211492E+01  0.10500000000E+00 0.  1.
         13    1    6    6    0    0 -0.72195201098E+00  0.18368142725E+01 -0.16796987569E+01  0.25937452250E+01  0.10500000000E+00 0. -1.
</event>
<event>
11    0  0.3439373E-009  0.9118800E+02  0.7816531E-02  0.1126479E+00
         25   -1    0    0    0    0  0.00000000000E+00  0.00000000000E+00  0.99999998245E-14  0.12500000000E+03  0.12500000000E+03 0.  0.
    3000001    1    3    3    0    0  0.76874844625E+01 -0.32459163442E+01  0.12496366080E+02  0.15059633312E+02  0.10000000000E+01 0. -1.
    1000022    2    1    0    0    0  0.27092598376E+02  0.28485829463E+01  0.55354555732E+02  0.62499998845E+02  0.99999851859E+01 0.  0.
    3000022    2    3    3    0    0  0.19405113914E+02  0.60944992904E+01  0.42858189652E+02  0.47440365533E+02  0.24998811778E+00 0.  0.
    1000022    2    1    0    0    0 -0.27092598376E+02 -0.28485829463E+01 -0.55354555732E+02  0.62500001155E+02  0.99999996277E+01 0.  0.
    3000022    2    5    5    0    0 -0.15938515232E+02 -0.13043898309E+01 -0.21422343279E+02  0.26734191432E+02  0.24999872633E+00 0.  0.
        -13    1    4    4    0    0  0.73795258892E+01  0.22549169875E+01  0.16235643181E+02  0.17976350783E+02  0.10500000000E+00 0.  1.
         13    1    4    4    0    0  0.12025588025E+02  0.38395823029E+01  0.26622546471E+02  0.29464014750E+02  0.10500000000E+00 0. -1.
    3000001    1    5    5    0    0 -0.11154083145E+02 -0.15441931154E+01 -0.33932212454E+02  0.35765809723E+02  0.10000000000E+01 0.  1.
        -13    1    6    6    0    0 -0.10938050874E+02 -0.90724852075E+00 -0.14621850085E+02  0.18283150213E+02  0.10500000000E+00 0. -1.
         13    1    6    6    0    0 -0.50004643581E+01 -0.39714131014E+00 -0.68004931937E+01  0.84510412195E+01  0.10500000000E+00 0.  1.
</event>
<event>
11    0  0.3439373E-009  0.9118800E+02  0.7816531E-02  0.1126479E+00
         25   -1    0    0    0    0  0.00000000000E+00  0.00000000000E+00  0.99999998245E-14  0.12500000000E+03  0.12500000000E+03 0.  0.
    3000001    1    3    3    0    0 -0.28691055185E+01  0.31819439950E+01  0.25858280442E+00  0.44071985581E+01  0.10000000000E+01 0.  1.
    1000022    2    1    0    0    0 -0.19761869221E+02  0.54584073921E+02 -0.20887732612E+02  0.62499999974E+02  0.10000001113E+02 0.  0.
    3000022    2    3    3    0    0 -0.16892763703E+02  0.51402129926E+02 -0.21146315416E+02  0.58092801416E+02  0.24998863031E+00 0.  0.
    1000022    2    1    0    0    0  0.19761869221E+02 -0.54584073921E+02  0.20887732612E+02  0.62500000026E+02  0.10000001434E+02 0.  0.
    3000022    2    5    5    0    0  0.11577972364E+02 -0.41209244399E+02  0.12032419766E+02  0.44464512838E+02  0.25001702116E+00 0.  0.
        -13    1    4    4    0    0 -0.53630264621E+01  0.16344786133E+02 -0.66698543487E+01  0.18450259309E+02  0.10500000000E+00 0. -1.
         13    1    4    4    0    0 -0.11529737241E+02  0.35057343793E+02 -0.14476461067E+02  0.39642542107E+02  0.10500000000E+00 0.  1.
    3000001    1    5    5    0    0  0.81838968571E+01 -0.13374829522E+02  0.88553128456E+01  0.18035487188E+02  0.10000000000E+01 0.  1.
        -13    1    6    6    0    0  0.34808554057E+01 -0.12290365587E+02  0.35526781559E+01  0.13259034192E+02  0.10500000000E+00 0.  1.
         13    1    6    6    0    0  0.80971169586E+01 -0.28918878812E+02  0.84797416101E+01  0.31205478646E+02  0.10500000000E+00 0. -1.
</event>
<event>
11    0  0.3439373E-009  0.9118800E+02  0.7816531E-02  0.1126479E+00
         25   -1    0    0    0    0  0.00000000000E+00  0.00000000000E+00  0.99999998245E-14  0.12500000000E+03  0.12500000000E+03 0.  0.
    3000001    1    3    3    0    0 -0.21154802993E+02  0.20267112551E+02  0.74219283187E+01  0.30238494685E+02  0.10000000000E+01 0. -1.
    1000022    2    1    0    0    0 -0.35491040916E+02  0.46808499050E+02  0.18857362030E+02  0.62499997448E+02  0.10000000482E+02 0.  0.
    3000022    2    3    3    0    0 -0.14336237923E+02  0.26541386500E+02  0.11435433711E+02  0.32261502764E+02  0.25000258658E+00 0.  0.
    1000022    2    1    0    0    0  0.35491040916E+02 -0.46808499050E+02 -0.18857362030E+02  0.62500002552E+02  0.10000032380E+02 0.  0.
    3000022    2    5    5    0    0  0.14672690083E+02 -0.27273168643E+02 -0.11093741230E+02  0.32897525063E+02  0.24999743395E+00 0.  0.
        -13    1    4    4    0    0 -0.69588297484E+01  0.12867745006E+02  0.54736287454E+01  0.15619725019E+02  0.10500000000E+00 0. -1.
         13    1    4    4    0    0 -0.73774081747E+01  0.13673641494E+02  0.59618049655E+01  0.16641777745E+02  0.10500000000E+00 0.  1.
    3000001    1    5    5    0    0  0.20818350833E+02 -0.19535330408E+02 -0.77636207998E+01  0.29602477489E+02  0.10000000000E+01 0. -1.
        -13    1    6    6    0    0  0.46127880489E+01 -0.85045101924E+01 -0.34273330271E+01  0.10264606367E+02  0.10500000000E+00 0.  1.
         13    1    6    6    0    0  0.10059902034E+02 -0.18768658450E+02 -0.76664082027E+01  0.22632918696E+02  0.10500000000E+00 0. -1.
</event>
<event>
11    0  0.3439373E-009  0.9118800E+02  0.7816531E-02  0.1126479E+00
         25   -1    0    0    0    0  0.00000000000E+00  0.00000000000E+00  0.99999998245E-14  0.12500000000E+03  0.12500000000E+03 0.  0.
    3000001    1    3    3    0    0 -0.51361290125E+01  0.33813689694E+01  0.19360927459E+02  0.20338608345E+02  0.10000000000E+01 0.  1.
    1000022    2    1    0    0    0 -0.78566052489E+01 -0.12309454512E+01  0.61180133189E+02  0.62499999506E+02  0.99999884262E+01 0.  0.
    3000022    2    3    3    0    0 -0.27204762364E+01 -0.46123144206E+01  0.41819205730E+02  0.42161391161E+02  0.25000299693E+00 0.  0.
    1000022    2    1    0    0    0  0.78566052489E+01  0.12309454512E+01 -0.61180133189E+02  0.62500000494E+02  0.99999946022E+01 0.  0.
    3000022    2    5    5    0    0  0.38651341361E+01  0.22476658054E+01 -0.53825077000E+02  0.54011042168E+02  0.24999714513E+00 0.  0.
        -13    1    4    4    0    0 -0.75079446211E+00 -0.13530431302E+01  0.11999196253E+02  0.12099014578E+02  0.10500000000E+00 0.  1.
         13    1    4    4    0    0 -0.19696817743E+01 -0.32592712904E+01  0.29820009476E+02  0.30062376583E+02  0.10500000000E+00 0. -1.
    3000001    1    5    5    0    0  0.39914711128E+01 -0.10167203542E+01 -0.73550561890E+01  0.84889583263E+01  0.10000000000E+01 0.  1.
        -13    1    6    6    0    0  0.11989688217E+01  0.75483807720E+00 -0.17014904655E+02  0.17074112340E+02  0.10500000000E+00 0.  1.
         13    1    6    6    0    0  0.26661653144E+01  0.14928277282E+01 -0.36810172344E+02  0.36936929828E+02  0.10500000000E+00 0. -1.
</event>
<event>
11    0  0.3439373E-009  0.9118800E+02  0.7816531E-02  0.1126479E+00
         25   -1    0    0    0    0  0.00000000000E+00  0.00000000000E+00  0.99999998245E-14  0.12500000000E+03  0.12500000000E+03 0.  0.
    3000001    1    3    3    0    0  0.20507251057E+02  0.15626116994E+02 -0.33791484535E+02  0.42515730093E+02  0.10000000000E+01 0.  1.
    1000022    2    1    0    0    0  0.35424627707E+02  0.21856823367E+02 -0.45537071264E+02  0.62500001976E+02  0.10000020588E+02 0.  0.
    3000022    2    3    3    0    0  0.14917376651E+02  0.62307063730E+01 -0.11745586729E+02  0.19984271883E+02  0.24997410182E+00 0.  0.
    1000022    2    1    0    0    0 -0.35424627707E+02 -0.21856823367E+02  0.45537071264E+02  0.62499998024E+02  0.99999958899E+01 0.  0.
    3000022    2    5    5    0    0 -0.34082744194E+02 -0.17878202141E+02  0.41226212038E+02  0.56399704139E+02  0.25000856004E+00 0.  0.
        -13    1    4    4    0    0  0.56539122360E+01  0.24216113664E+01 -0.44378777371E+01  0.75852955771E+01  0.10500000000E+00 0.  1.
         13    1    4    4    0    0  0.92634644146E+01  0.38090950066E+01 -0.73077089916E+01  0.12398976306E+02  0.10500000000E+00 0. -1.
    3000001    1    5    5    0    0 -0.13418835128E+01 -0.39786212264E+01  0.43108592257E+01  0.61002938854E+01  0.10000000000E+01 0. -1.
        -13    1    6    6    0    0 -0.23549567904E+02 -0.12407220480E+02  0.28512971549E+02  0.39006689684E+02  0.10500000000E+00 0.  1.
         13    1    6    6    0    0 -0.10533176290E+02 -0.54709816613E+01  0.12713240489E+02  0.17393014455E+02  0.10500000000E+00 0. -1.
</event>
<event>
11    0  0.3439373E-009  0.9118800E+02  0.7816531E-02  0.1126479E+00
         25   -1    0    0    0    0  0.00000000000E+00  0.00000000000E+00  0.99999998245E-14  0.12500000000E+03  0.12500000000E+03 0.  0.
    3000001    1    3    3    0    0  0.16573652523E+01  0.59620603993E+01  0.52295692533E+01  0.81634195261E+01  0.10000000000E+01 0.  1.
    1000022    2    1    0    0    0  0.35041448866E+02  0.40466662471E+02  0.30672391807E+02  0.62500003202E+02  0.10000043547E+02 0.  0.
    3000022    2    3    3    0    0  0.33384083614E+02  0.34504602072E+02  0.25442822553E+02  0.54336583676E+02  0.25000647869E+00 0.  0.
    1000022    2    1    0    0    0 -0.35041448866E+02 -0.40466662471E+02 -0.30672391807E+02  0.62499996798E+02  0.10000003517E+02 0.  0.
    3000022    2    5    5    0    0 -0.29440932237E+02 -0.34754889028E+02 -0.21752057295E+02  0.50476581718E+02  0.25000605710E+00 0.  0.
        -13    1    4    4    0    0  0.12989877814E+02  0.13509520833E+02  0.99073865762E+01  0.21199325756E+02  0.10500000000E+00 0. -1.
         13    1    4    4    0    0  0.20394205800E+02  0.20995081240E+02  0.15535435977E+02  0.33137257920E+02  0.10500000000E+00 0.  1.
    3000001    1    5    5    0    0 -0.56005166290E+01 -0.57117734436E+01 -0.89203345113E+01  0.12023415080E+02  0.10000000000E+01 0. -1.
        -13    1    6    6    0    0 -0.16937325410E+02 -0.19926286959E+02 -0.12542383552E+02  0.29004349919E+02  0.10500000000E+00 0. -1.
         13    1    6    6    0    0 -0.12503606827E+02 -0.14828602069E+02 -0.92096737436E+01  0.21472231800E+02  0.10500000000E+00 0.  1.
</event>
<event>
11    0  0.3439373E-009  0.9118800E+02  0.7816531E-02  0.1126479E+00
         25   -1    0    0    0    0  0.00000000000E+00  0.00000000000E+00  0.99999998245E-14  0.12500000000E+03  0.12500000000E+03 0.  0.
    3000001    1    3    3    0    0 -0.27352189014E+02 -0.80098998191E+01  0.54219543463E+01  0.29029266747E+02  0.10000000000E+01 0. -1.
    1000022    2    1    0    0    0 -0.60239667302E+02 -0.67177225883E+01  0.11502374701E+02  0.62499999781E+02  0.10000001774E+02 0.  0.
    3000022    2    3    3    0    0 -0.32887478288E+02  0.12921772307E+01  0.60804203543E+01  0.33470733034E+02  0.25001597987E+00 0.  0.
    1000022    2    1    0    0    0  0.60239667302E+02  0.67177225883E+01 -0.11502374701E+02  0.62500000219E+02  0.10000004509E+02 0.  0.
    3000022    2    5    5    0    0  0.21823805407E+02  0.70416711117E+01 -0.57361324706E+01  0.23639571281E+02  0.25000028120E+00 0.  0.
        -13    1    4    4    0    0 -0.14665489855E+02  0.51808153074E+00  0.26781778487E+01  0.14917394636E+02  0.10500000000E+00 0.  1.
         13    1    4    4    0    0 -0.18221988434E+02  0.77409569998E+00  0.34022425056E+01  0.18553338398E+02  0.10500000000E+00 0. -1.
    3000001    1    5    5    0    0  0.38415861895E+02 -0.32394852337E+00 -0.57662422300E+01  0.38860428938E+02  0.10000000000E+01 0. -1.
        -13    1    6    6    0    0  0.50987233773E+01  0.16321461652E+01 -0.13420438095E+01  0.55202343944E+01  0.10500000000E+00 0. -1.
         13    1    6    6    0    0  0.16725082029E+02  0.54095249465E+01 -0.43940886611E+01  0.18119336886E+02  0.10500000000E+00 0.  1.
</event>
<event>
11    0  0.3439373E-009  0.9118800E+02  0.7816531E-02  0.1126479E+00
         25   -1    0    0    0    0  0.00000000000E+00  0.00000000000E+00  0.99999998245E-14  0.12500000000E+03  0.12500000000E+03 0.  0.
    3000001    1    3    3    0    0 -0.59675029701E+01  0.47372333784E+01 -0.59782079661E+01  0.97360896804E+01  0.10000000000E+01 0.  1.
    1000022    2    1    0    0    0 -0.48514052454E+02  0.10419160666E+02 -0.36661666280E+02  0.62500000491E+02  0.10000004622E+02 0.  0.
    3000022    2    3    3    0    0 -0.42546549484E+02  0.56819272877E+01 -0.30683458314E+02  0.52763910811E+02  0.24999845999E+00 0.  0.
    1000022    2    1    0    0    0  0.48514052454E+02 -0.10419160666E+02  0.36661666280E+02  0.62499999509E+02  0.99999984802E+01 0.  0.
    3000022    2    5    5    0    0  0.51825178271E+01 -0.42656477319E+01  0.64270155588E+01  0.92964120466E+01  0.25001269088E+00 0.  0.
        -13    1    4    4    0    0 -0.32565498621E+02  0.43395319125E+01 -0.23471300675E+02  0.40376431468E+02  0.10500000000E+00 0.  1.
         13    1    4    4    0    0 -0.99810508629E+01  0.13423953752E+01 -0.72121576387E+01  0.12387479343E+02  0.10500000000E+00 0. -1.
    3000001    1    5    5    0    0  0.43331534627E+02 -0.61535129342E+01  0.30234650721E+02  0.53203587462E+02  0.10000000000E+01 0.  1.
        -13    1    6    6    0    0  0.17702785208E+01 -0.14195654026E+01  0.21101942167E+01  0.31004832858E+01  0.10500000000E+00 0. -1.
         13    1    6    6    0    0  0.34122393063E+01 -0.28460823294E+01  0.43168213421E+01  0.61959287608E+01  0.10500000000E+00 0.  1.
</event>
<event>
11    0  0.3439373E-009  0.9118800E+02  0.7816531E-02  0.1126479E+00
         25   -1    0    0    0    0  0.00000000000E+00  0.00000000000E+00  0.99999998245E-14  0.12500000000E+03  0.12500000000E+03 0.  0.
    3000001    1    3    3    0    0  0.21419848071E+02  0.14366154054E+02 -0.14559785428E+02  0.29634163146E+02  0.10000000000E+01 0.  1.
    1000022    2    1    0    0    0  0.48981097020E+02  0.20626168054E+02 -0.31331505967E+02  0.62500001410E+02  0.10000011811E+02 0.  0.
    3000022    2    3    3    0    0  0.27561248949E+02  0.62600140008E+01 -0.16771720539E+02  0.32865838264E+02  0.24999204492E+00 0.  0.
    1000022    2    1    0    0    0 -0.48981097020E+02 -0.20626168054E+02  0.31331505967E+02  0.62499998590E+02  0.99999941884E+01 0.  0.
    3000022    2    5    5    0    0 -0.55250815593E+01 -0.61349427552E+01  0.48223847900E+01  0.95646191552E+01  0.24999134748E+00 0.  0.
        -13    1    4    4    0    0  0.84151899829E+01  0.19589875767E+01 -0.51378930726E+01  0.10052961007E+02  0.10500000000E+00 0. -1.
         13    1    4    4    0    0  0.19146058966E+02  0.43010264241E+01 -0.11633827466E+02  0.22812877257E+02  0.10500000000E+00 0.  1.
    3000001    1    5    5    0    0 -0.43456015460E+02 -0.14491225299E+02  0.26509121177E+02  0.52935379435E+02  0.10000000000E+01 0.  1.
        -13    1    6    6    0    0 -0.35953019743E+01 -0.39294212167E+01  0.30649918482E+01  0.61458723883E+01  0.10500000000E+00 0.  1.
         13    1    6    6    0    0 -0.19297795850E+01 -0.22055215385E+01  0.17573929418E+01  0.34187467668E+01  0.10500000000E+00 0. -1.
</event>
<event>
11    0  0.3439373E-009  0.9118800E+02  0.7816531E-02  0.1126479E+00
         25   -1    0    0    0    0  0.00000000000E+00  0.00000000000E+00  0.99999998245E-14  0.12500000000E+03  0.12500000000E+03 0.  0.
    3000001    1    3    3    0    0 -0.23295565327E+02 -0.64832547522E+00  0.20780858019E+02  0.31240162449E+02  0.10000000000E+01 0.  1.
    1000022    2    1    0    0    0 -0.47678040335E+02 -0.10364333484E+02  0.37757580255E+02  0.62500000853E+02  0.10000015060E+02 0.  0.
    3000022    2    3    3    0    0 -0.24382475008E+02 -0.97160080089E+01  0.16976722235E+02  0.31259838404E+02  0.25000010315E+00 0.  0.
    1000022    2    1    0    0    0  0.47678040335E+02  0.10364333484E+02 -0.37757580255E+02  0.62499999147E+02  0.10000004398E+02 0.  0.
    3000022    2    5    5    0    0  0.69865878494E+01 -0.53059329382E+00 -0.93298431091E+01  0.11670578788E+02  0.24999554871E+00 0.  0.
        -13    1    4    4    0    0 -0.14638398038E+02 -0.58547164450E+01  0.10126133214E+02  0.18737929465E+02  0.10500000000E+00 0. -1.
         13    1    4    4    0    0 -0.97440769699E+01 -0.38612915639E+01  0.68505890215E+01  0.12521908939E+02  0.10500000000E+00 0.  1.
    3000001    1    5    5    0    0  0.40691452485E+02  0.10894926778E+02 -0.28427737145E+02  0.50829420359E+02  0.10000000000E+01 0.  1.
        -13    1    6    6    0    0  0.39577952707E+01 -0.23480169851E+00 -0.52689379991E+01  0.65948470703E+01  0.10500000000E+00 0.  1.
         13    1    6    6    0    0  0.30287925787E+01 -0.29579159531E+00 -0.40609051100E+01  0.50757317172E+01  0.10500000000E+00 0. -1.
</event>
<event>
11    0  0.3439373E-009  0.9118800E+02  0.7816531E-02  0.1126479E+00
         25   -1    0    0    0    0  0.00000000000E+00  0.00000000000E+00  0.99999998245E-14  0.12500000000E+03  0.12500000000E+03 0.  0.
    3000001    1    3    3    0    0 -0.51361494771E+01 -0.13660836471E+01  0.54606769066E+01  0.76853892719E+01  0.10000000000E+01 0.  1.
    1000022    2    1    0    0    0 -0.38992110339E+02 -0.34095930593E+02  0.33516158658E+02  0.62499999762E+02  0.99999963685E+01 0.  0.
    3000022    2    3    3    0    0 -0.33855960862E+02 -0.32729846945E+02  0.28055481751E+02  0.54814610490E+02  0.24999979040E+00 0.  0.
    1000022    2    1    0    0    0  0.38992110339E+02  0.34095930593E+02 -0.33516158658E+02  0.62500000238E+02  0.99999993497E+01 0.  0.
    3000022    2    5    5    0    0  0.16894936104E+02  0.18366318198E+02 -0.20975823145E+02  0.32600738876E+02  0.25001706840E+00 0.  0.
        -13    1    4    4    0    0 -0.83632703789E+01 -0.80829812801E+01  0.69581748137E+01  0.13553822322E+02  0.10500000000E+00 0. -1.
         13    1    4    4    0    0 -0.25492690483E+02 -0.24646865665E+02  0.21097306937E+02  0.41260788167E+02  0.10500000000E+00 0.  1.
    3000001    1    5    5    0    0  0.22097174235E+02  0.15729612394E+02 -0.12540335512E+02  0.29899261362E+02  0.10000000000E+01 0.  1.
        -13    1    6    6    0    0  0.64394660690E+01  0.69120580203E+01 -0.79266926000E+01  0.12332345677E+02  0.10500000000E+00 0.  1.
         13    1    6    6    0    0  0.10455470035E+02  0.11454260178E+02 -0.13049130545E+02  0.20268393199E+02  0.10500000000E+00 0. -1.
</event>
<event>
11    0  0.3439373E-009  0.9118800E+02  0.7816531E-02  0.1126479E+00
         25   -1    0    0    0    0  0.00000000000E+00  0.00000000000E+00  0.99999998245E-14  0.12500000000E+03  0.12500000000E+03 0.  0.
    3000001    1    3    3    0    0 -0.10428274085E+02  0.13107259214E+02 -0.20243107122E+01  0.16901093998E+02  0.10000000000E+01 0. -1.
    1000022    2    1    0    0    0 -0.48391821930E+02  0.36427940451E+02 -0.11725474982E+02  0.62499999974E+02  0.99999978979E+01 0.  0.
    3000022    2    3    3    0    0 -0.37963547846E+02  0.23320681237E+02 -0.97011642694E+01  0.45598905976E+02  0.24999919062E+00 0.  0.
    1000022    2    1    0    0    0  0.48391821930E+02 -0.36427940451E+02  0.11725474982E+02  0.62500000026E+02  0.99999982255E+01 0.  0.
    3000022    2    5    5    0    0  0.28810710297E+02 -0.21910198646E+02  0.11902043764E+02  0.38102952327E+02  0.24999549637E+00 0.  0.
        -13    1    4    4    0    0 -0.12552023930E+02  0.77583840907E+01 -0.32479043038E+01  0.15109789403E+02  0.10500000000E+00 0.  1.
         13    1    4    4    0    0 -0.25411523915E+02  0.15562297147E+02 -0.64532599656E+01  0.30489116572E+02  0.10500000000E+00 0. -1.
    3000001    1    5    5    0    0  0.19581111633E+02 -0.14517741805E+02 -0.17656878213E+00  0.24397047699E+02  0.10000000000E+01 0.  1.
        -13    1    6    6    0    0  0.12221747478E+02 -0.92751614436E+01  0.49785611837E+01  0.16130617709E+02  0.10500000000E+00 0. -1.
         13    1    6    6    0    0  0.16588962819E+02 -0.12635037202E+02  0.69234825800E+01  0.21972334617E+02  0.10500000000E+00 0.  1.
</event>
<event>
11    0  0.3439373E-009  0.9118800E+02  0.7816531E-02  0.1126479E+00
         25   -1    0    0    0    0  0.00000000000E+00  0.00000000000E+00  0.99999998245E-14  0.12500000000E+03  0.12500000000E+03 0.  0.
    3000001    1    3    3    0    0 -0.15876369210E+02 -0.87470889251E+01  0.47476922277E+02  0.50829408937E+02  0.10000000000E+01 0.  1.
    1000022    2    1    0    0    0 -0.17690812385E+02 -0.14974897624E+02  0.57175497800E+02  0.62499998943E+02  0.99999958755E+01 0.  0.
    3000022    2    3    3    0    0 -0.18144431752E+01 -0.62278086990E+01  0.96985755232E+01  0.11670590007E+02  0.24999739159E+00 0.  0.
    1000022    2    1    0    0    0  0.17690812385E+02  0.14974897624E+02 -0.57175497800E+02  0.62500001057E+02  0.10000009083E+02 0.  0.
    3000022    2    5    5    0    0  0.11378674816E+02  0.38945747543E+01 -0.33430101638E+02  0.35528525856E+02  0.25000176848E+00 0.  0.
        -13    1    4    4    0    0 -0.13550237888E+01 -0.46090686983E+01  0.72317600707E+01  0.86826829065E+01  0.10500000000E+00 0. -1.
         13    1    4    4    0    0 -0.45941938632E+00 -0.16187400007E+01  0.24668154525E+01  0.29879071001E+01  0.10500000000E+00 0.  1.
    3000001    1    5    5    0    0  0.63121375682E+01  0.11080322870E+02 -0.23745396163E+02  0.26971475201E+02  0.10000000000E+01 0.  1.
        -13    1    6    6    0    0  0.76452587018E+01  0.25894930071E+01 -0.22298952012E+02  0.23715179537E+02  0.10500000000E+00 0. -1.
         13    1    6    6    0    0  0.37334161146E+01  0.13050817473E+01 -0.11131149625E+02  0.11813346318E+02  0.10500000000E+00 0.  1.
</event>
<event>
11    0  0.3439373E-009  0.9118800E+02  0.7816531E-02  0.1126479E+00
         25   -1    0    0    0    0  0.00000000000E+00  0.00000000000E+00  0.99999998245E-14  0.12500000000E+03  0.12500000000E+03 0.  0.
    3000001    1    3    3    0    0  0.55192957339E+01 -0.10028452147E+02 -0.12950703134E+02  0.17313381805E+02  0.10000000000E+01 0.  1.
    1000022    2    1    0    0    0  0.13132770577E+02 -0.24533935801E+02 -0.55062386448E+02  0.62499999871E+02  0.99999956775E+01 0.  0.
    3000022    2    3    3    0    0  0.76134748427E+01 -0.14505483654E+02 -0.42111683315E+02  0.45186618066E+02  0.25005084801E+00 0.  0.
    1000022    2    1    0    0    0 -0.13132770577E+02  0.24533935801E+02  0.55062386448E+02  0.62500000129E+02  0.99999972946E+01 0.  0.
    3000022    2    5    5    0    0 -0.74896629314E+01  0.22097773692E+02  0.44075099902E+02  0.49870668581E+02  0.25000070811E+00 0.  0.
        -13    1    4    4    0    0  0.32843606673E+01 -0.62288389162E+01 -0.18279000275E+02  0.19588729802E+02  0.10500000000E+00 0. -1.
         13    1    4    4    0    0  0.43291141754E+01 -0.82766447382E+01 -0.23832683040E+02  0.25597888264E+02  0.10500000000E+00 0.  1.
    3000001    1    5    5    0    0 -0.56431076452E+01  0.24361621094E+01  0.10987286546E+02  0.12629331549E+02  0.10000000000E+01 0.  1.
        -13    1    6    6    0    0 -0.41764500092E+01  0.12503662251E+02  0.24835745368E+02  0.28117780449E+02  0.10500000000E+00 0.  1.
         13    1    6    6    0    0 -0.33132129222E+01  0.95941114406E+01  0.19239354534E+02  0.21752888132E+02  0.10500000000E+00 0. -1.
</event>
<event>
11    0  0.3439373E-009  0.9118800E+02  0.7816531E-02  0.1126479E+00
         25   -1    0    0    0    0  0.00000000000E+00  0.00000000000E+00  0.99999998245E-14  0.12500000000E+03  0.12500000000E+03 0.  0.
    3000001    1    3    3    0    0 -0.19138331453E+01 -0.89927426862E+00  0.16639868462E+01  0.28705929253E+01  0.10000000000E+01 0. -1.
    1000022    2    1    0    0    0 -0.59445375187E+02  0.88769759921E+01  0.13917534997E+02  0.62499992985E+02  0.99999004461E+01 0.  0.
    3000022    2    3    3    0    0 -0.57531542041E+02  0.97762502607E+01  0.12253548151E+02  0.59629400060E+02  0.25002084948E+00 0.  0.
    1000022    2    1    0    0    0  0.59445375187E+02 -0.88769759921E+01 -0.13917534997E+02  0.62500007015E+02  0.99999881289E+01 0.  0.
    3000022    2    5    5    0    0  0.20596674315E+02  0.16619115947E+01 -0.48214138482E+01  0.21220119285E+02  0.24997599993E+00 0.  0.
        -13    1    4    4    0    0 -0.32760294531E+02  0.55011392565E+01  0.69853827172E+01  0.33945633410E+02  0.10500000000E+00 0.  1.
         13    1    4    4    0    0 -0.24771247510E+02  0.42751110042E+01  0.52681654338E+01  0.25683766651E+02  0.10500000000E+00 0. -1.
    3000001    1    5    5    0    0  0.38848700871E+02 -0.10538887587E+02 -0.90961211491E+01  0.41279887729E+02  0.10000000000E+01 0. -1.
        -13    1    6    6    0    0  0.13647394642E+02  0.10501208156E+01 -0.32130442307E+01  0.14060185364E+02  0.10500000000E+00 0. -1.
         13    1    6    6    0    0  0.69492796735E+01  0.61179077909E+00 -0.16083696176E+01  0.71599339218E+01  0.10500000000E+00 0.  1.
</event>
<event>
11    0  0.3439373E-009  0.9118800E+02  0.7816531E-02  0.1126479E+00
         25   -1    0    0    0    0  0.00000000000E+00  0.00000000000E+00  0.99999998245E-14  0.12500000000E+03  0.12500000000E+03 0.  0.
    3000001    1    3    3    0    0  0.12931219765E+02 -0.11842927458E+02 -0.53235782933E+00  0.17571419415E+02  0.10000000000E+01 0.  1.
    1000022    2    1    0    0    0  0.45283320559E+02 -0.39636324778E+02  0.13587962126E+02  0.62499999370E+02  0.99999921863E+01 0.  0.
    3000022    2    3    3    0    0  0.32352100794E+02 -0.27793397320E+02  0.14120319956E+02  0.44928579955E+02  0.25000153632E+00 0.  0.
    1000022    2    1    0    0    0 -0.45283320559E+02  0.39636324778E+02 -0.13587962126E+02  0.62500000630E+02  0.10000000062E+02 0.  0.
    3000022    2    5    5    0    0 -0.21369850326E+02  0.23072405641E+02 -0.10832910973E+02  0.33262904628E+02  0.24991825911E+00 0.  0.
        -13    1    4    4    0    0  0.91441126236E+01 -0.78277346816E+01  0.40214192254E+01  0.12691377526E+02  0.10500000000E+00 0. -1.
         13    1    4    4    0    0  0.23207988170E+02 -0.19965662638E+02  0.10098900730E+02  0.32237202429E+02  0.10500000000E+00 0.  1.
    3000001    1    5    5    0    0 -0.23913470233E+02  0.16563919137E+02 -0.27550511535E+01  0.29237096002E+02  0.10000000000E+01 0. -1.
        -13    1    6    6    0    0 -0.10306901018E+02  0.11227181951E+02 -0.52433330925E+01  0.16117859352E+02  0.10500000000E+00 0. -1.
         13    1    6    6    0    0 -0.11062949307E+02  0.11845223690E+02 -0.55895778802E+01  0.17145045276E+02  0.10500000000E+00 0.  1.
</event>
<event>
11    0  0.3439373E-009  0.9118800E+02  0.7816531E-02  0.1126479E+00
         25   -1    0    0    0    0  0.00000000000E+00  0.00000000000E+00  0.99999998245E-14  0.12500000000E+03  0.12500000000E+03 0.  0.
    3000001    1    3    3    0    0 -0.11594271984E+02  0.43262182136E+01  0.13350642433E+01  0.12487021398E+02  0.10000000000E+01 0. -1.
    1000022    2    1    0    0    0 -0.56117701336E+02  0.22258948759E+02 -0.12711898913E+02  0.62500002306E+02  0.10000035556E+02 0.  0.
    3000022    2    3    3    0    0 -0.44523429352E+02  0.17932730545E+02 -0.14046963157E+02  0.50012980907E+02  0.24999844307E+00 0.  0.
    1000022    2    1    0    0    0  0.56117701336E+02 -0.22258948759E+02  0.12711898913E+02  0.62499997694E+02  0.10000006737E+02 0.  0.
    3000022    2    5    5    0    0  0.30501969575E+02 -0.16944874808E+02  0.91936675674E+01  0.36084414275E+02  0.24999999268E+00 0.  0.
        -13    1    4    4    0    0 -0.18278526838E+02  0.74276611166E+01 -0.57531229100E+01  0.20551986309E+02  0.10500000000E+00 0. -1.
         13    1    4    4    0    0 -0.26244902514E+02  0.10505069429E+02 -0.82938402465E+01  0.29460994598E+02  0.10500000000E+00 0.  1.
    3000001    1    5    5    0    0  0.25615731761E+02 -0.53140739507E+01  0.35182313458E+01  0.26415583419E+02  0.10000000000E+01 0.  1.
        -13    1    6    6    0    0  0.11188663728E+02 -0.62293395139E+01  0.33143380066E+01  0.13228254920E+02  0.10500000000E+00 0.  1.
         13    1    6    6    0    0  0.19313305848E+02 -0.10715535294E+02  0.58793295607E+01  0.22856159356E+02  0.10500000000E+00 0. -1.
</event>
<event>
11    0  0.3439373E-009  0.9118800E+02  0.7816531E-02  0.1126479E+00
         25   -1    0    0    0    0  0.00000000000E+00  0.00000000000E+00  0.99999998245E-14  0.12500000000E+03  0.12500000000E+03 0.  0.
    3000001    1    3    3    0    0 -0.11611128718E+02  0.10948069923E+02 -0.19609386658E+02  0.25302304050E+02  0.10000000000E+01 0.  1.
    1000022    2    1    0    0    0 -0.17384846994E+02  0.27640808073E+02 -0.52345036512E+02  0.62500000364E+02  0.10000001110E+02 0.  0.
    3000022    2    3    3    0    0 -0.57737182758E+01  0.16692738150E+02 -0.32735649854E+02  0.37197696314E+02  0.25002010827E+00 0.  0.
    1000022    2    1    0    0    0  0.17384846994E+02 -0.27640808073E+02  0.52345036512E+02  0.62499999636E+02  0.99999965542E+01 0.  0.
    3000022    2    5    5    0    0  0.10595208841E+02 -0.17948381908E+02  0.24121950228E+02  0.31879991298E+02  0.24999768483E+00 0.  0.
        -13    1    4    4    0    0 -0.20734918507E+01  0.61309214031E+01 -0.11913776165E+02  0.13558637587E+02  0.10500000000E+00 0. -1.
         13    1    4    4    0    0 -0.37002264251E+01  0.10561816747E+02 -0.20821873689E+02  0.23639058727E+02  0.10500000000E+00 0.  1.
    3000001    1    5    5    0    0  0.67896381531E+01 -0.96924261645E+01  0.28223086284E+02  0.30620008338E+02  0.10000000000E+01 0.  1.
        -13    1    6    6    0    0  0.50941849004E+01 -0.87451975573E+01  0.11764605970E+02  0.15519219656E+02  0.10500000000E+00 0.  1.
         13    1    6    6    0    0  0.55010239407E+01 -0.92031843510E+01  0.12357344258E+02  0.16360771641E+02  0.10500000000E+00 0. -1.
</event>
<event>
11    0  0.3439373E-009  0.9118800E+02  0.7816531E-02  0.1126479E+00
         25   -1    0    0    0    0  0.00000000000E+00  0.00000000000E+00  0.99999998245E-14  0.12500000000E+03  0.12500000000E+03 0.  0.
    3000001    1    3    3    0    0  0.28279767813E+02  0.19451284791E+02  0.42227053127E+01  0.34596661512E+02  0.10000000000E+01 0.  1.
    1000022    2    1    0    0    0  0.47282286899E+02  0.36449611397E+02  0.15558281137E+02  0.62500005659E+02  0.10000088501E+02 0.  0.
    3000022    2    3    3    0    0  0.19002519085E+02  0.16998326606E+02  0.11335575824E+02  0.27903344147E+02  0.24999263681E+00 0.  0.
    1000022    2    1    0    0    0 -0.47282286899E+02 -0.36449611397E+02 -0.15558281137E+02  0.62499994341E+02  0.10000017766E+02 0.  0.
    3000022    2    5    5    0    0 -0.93765686626E+01 -0.35593215022E+01 -0.30232662255E+00  0.10037066549E+02  0.24998816127E+00 0.  0.
        -13    1    4    4    0    0  0.10545582401E+02  0.93519740541E+01  0.62964898491E+01  0.15437795707E+02  0.10500000000E+00 0.  1.
         13    1    4    4    0    0  0.84569366845E+01  0.76463525519E+01  0.50390859753E+01  0.12465548440E+02  0.10500000000E+00 0. -1.
    3000001    1    5    5    0    0 -0.37905718236E+02 -0.32890289895E+02 -0.15255954514E+02  0.52462927792E+02  0.10000000000E+01 0.  1.
        -13    1    6    6    0    0 -0.41883760138E+01 -0.16593294085E+01 -0.15074612096E+00  0.45088376675E+01  0.10500000000E+00 0. -1.
         13    1    6    6    0    0 -0.51881926488E+01 -0.18999920937E+01 -0.15158050159E+00  0.55282288814E+01  0.10500000000E+00 0.  1.
</event>
<event>
11    0  0.3439373E-009  0.9118800E+02  0.7816531E-02  0.1126479E+00
         25   -1    0    0    0    0  0.00000000000E+00  0.00000000000E+00  0.99999998245E-14  0.12500000000E+03  0.12500000000E+03 0.  0.
    3000001    1    3    3    0    0  0.70948180525E+01  0.63971740081E+01 -0.69229974071E+01  0.11840108597E+02  0.10000000000E+01 0.  1.
    1000022    2    1    0    0    0  0.48191591519E+02  0.16858462274E+02 -0.34635427997E+02  0.62500000486E+02  0.99999972379E+01 0.  0.
    3000022    2    3    3    0    0  0.41096773466E+02  0.10461288266E+02 -0.27712430590E+02  0.50659891889E+02  0.24999082155E+00 0.  0.
    1000022    2    1    0    0    0 -0.48191591519E+02 -0.16858462274E+02  0.34635427997E+02  0.62499999514E+02  0.99999911690E+01 0.  0.
    3000022    2    5    5    0    0 -0.47794319816E+02 -0.17076518368E+02  0.34552368769E+02  0.61398967225E+02  0.25000527390E+00 0.  0.
        -13    1    4    4    0    0  0.29317669704E+02  0.74310097804E+01 -0.19798058585E+02  0.36148579667E+02  0.10500000000E+00 0. -1.
         13    1    4    4    0    0  0.11779103762E+02  0.30302784856E+01 -0.79143720051E+01  0.14511312221E+02  0.10500000000E+00 0.  1.
    3000001    1    5    5    0    0 -0.39727170339E+00  0.21805609343E+00  0.83059228747E-01  0.11010322891E+01  0.10000000000E+01 0.  1.
        -13    1    6    6    0    0 -0.22836803703E+02 -0.81977039134E+01  0.16449229295E+02  0.29313991919E+02  0.10500000000E+00 0. -1.
         13    1    6    6    0    0 -0.24957516112E+02 -0.88788144542E+01  0.18103139473E+02  0.32084975306E+02  0.10500000000E+00 0.  1.
</event>
<event>
11    0  0.3439373E-009  0.9118800E+02  0.7816531E-02  0.1126479E+00
         25   -1    0    0    0    0  0.00000000000E+00  0.00000000000E+00  0.99999998245E-14  0.12500000000E+03  0.12500000000E+03 0.  0.
    3000001    1    3    3    0    0  0.57435839249E+01  0.50259636764E+01 -0.10530735439E+01  0.77690431243E+01  0.10000000000E+01 0.  1.
    1000022    2    1    0    0    0  0.58601457618E+02  0.18362640876E+02 -0.59103781125E+01  0.62500000338E+02  0.10000002895E+02 0.  0.
    3000022    2    3    3    0    0  0.52857873693E+02  0.13336677200E+02 -0.48573045686E+01  0.54730957214E+02  0.24999950985E+00 0.  0.
    1000022    2    1    0    0    0 -0.58601457618E+02 -0.18362640876E+02  0.59103781125E+01  0.62499999662E+02  0.99999986706E+01 0.  0.
    3000022    2    5    5    0    0 -0.12660512826E+02 -0.49914386111E+01 -0.26931501733E+01  0.13875107298E+02  0.25000052614E+00 0.  0.
        -13    1    4    4    0    0  0.31661646383E+02  0.79578206740E+01 -0.29647010627E+01  0.32780897470E+02  0.10500000000E+00 0. -1.
         13    1    4    4    0    0  0.21196227310E+02  0.53788565256E+01 -0.18926035059E+01  0.21950059743E+02  0.10500000000E+00 0.  1.
    3000001    1    5    5    0    0 -0.45940944792E+02 -0.13371202265E+02  0.86035282858E+01  0.48624892364E+02  0.10000000000E+01 0. -1.
        -13    1    6    6    0    0 -0.40411656460E+01 -0.15759007938E+01 -0.90729260651E+00  0.44326840587E+01  0.10500000000E+00 0.  1.
         13    1    6    6    0    0 -0.86193471798E+01 -0.34155378173E+01 -0.17858575668E+01  0.94424232396E+01  0.10500000000E+00 0. -1.
</event>
<event>
11    0  0.3439373E-009  0.9118800E+02  0.7816531E-02  0.1126479E+00
         25   -1    0    0    0    0  0.00000000000E+00  0.00000000000E+00  0.99999998245E-14  0.12500000000E+03  0.12500000000E+03 0.  0.
    3000001    1    3    3    0    0  0.18355374118E+01 -0.28465921102E+02  0.10666853481E+02  0.30470635454E+02  0.10000000000E+01 0.  1.
    1000022    2    1    0    0    0 -0.63275436962E+01 -0.57492782943E+02  0.21466068957E+02  0.62499999438E+02  0.99999956788E+01 0.  0.
    3000022    2    3    3    0    0 -0.81630811080E+01 -0.29026861840E+02  0.10799215476E+02  0.32029363984E+02  0.25000169329E+00 0.  0.
    1000022    2    1    0    0    0  0.63275436962E+01  0.57492782943E+02 -0.21466068957E+02  0.62500000562E+02  0.10000002702E+02 0.  0.
    3000022    2    5    5    0    0  0.71990183002E+01  0.29716595204E+02 -0.80174418014E+01  0.31610817250E+02  0.24999839315E+00 0.  0.
        -13    1    4    4    0    0 -0.37074957197E+01 -0.13394476199E+02  0.50149658101E+01  0.14775602330E+02  0.10500000000E+00 0.  1.
         13    1    4    4    0    0 -0.44555853883E+01 -0.15632385642E+02  0.57842496660E+01  0.17253761654E+02  0.10500000000E+00 0. -1.
    3000001    1    5    5    0    0 -0.87147460395E+00  0.27776187739E+02 -0.13448627156E+02  0.30889183312E+02  0.10000000000E+01 0. -1.
        -13    1    6    6    0    0  0.54135181676E+01  0.22423795568E+02 -0.60639319637E+01  0.23851940854E+02  0.10500000000E+00 0.  1.
         13    1    6    6    0    0  0.17855001326E+01  0.72927996357E+01 -0.19535098378E+01  0.77588763965E+01  0.10500000000E+00 0. -1.
</event>
<event>
11    0  0.3439373E-009  0.9118800E+02  0.7816531E-02  0.1126479E+00
         25   -1    0    0    0    0  0.00000000000E+00  0.00000000000E+00  0.99999998245E-14  0.12500000000E+03  0.12500000000E+03 0.  0.
    3000001    1    3    3    0    0 -0.15746074914E+01 -0.15605426365E+02 -0.10789711364E+01  0.15753504356E+02  0.10000000000E+01 0.  1.
    1000022    2    1    0    0    0 -0.83522760169E+01 -0.59869162283E+02  0.12335843253E+02  0.62499999692E+02  0.99999912850E+01 0.  0.
    3000022    2    3    3    0    0 -0.67776685254E+01 -0.44263735918E+02  0.13414814389E+02  0.46746495337E+02  0.24994619061E+00 0.  0.
    1000022    2    1    0    0    0  0.83522760169E+01  0.59869162283E+02 -0.12335843253E+02  0.62500000308E+02  0.99999951291E+01 0.  0.
    3000022    2    5    5    0    0  0.73899992977E+00  0.32038066668E+02 -0.31454051932E+01  0.32201551376E+02  0.25000101963E+00 0.  0.
        -13    1    4    4    0    0 -0.21942427454E+01 -0.14681013637E+02  0.44472304329E+01  0.15496313954E+02  0.10500000000E+00 0.  1.
         13    1    4    4    0    0 -0.45834257800E+01 -0.29582722282E+02  0.89675839562E+01  0.31250181383E+02  0.10500000000E+00 0. -1.
    3000001    1    5    5    0    0  0.76132760871E+01  0.27831095615E+02 -0.91904380596E+01  0.30298448931E+02  0.10000000000E+01 0.  1.
        -13    1    6    6    0    0  0.48568895969E+00  0.21522035998E+02 -0.20612762132E+01  0.21626229720E+02  0.10500000000E+00 0.  1.
         13    1    6    6    0    0  0.25331097007E+00  0.10516030669E+02 -0.10841289799E+01  0.10575321656E+02  0.10500000000E+00 0. -1.
</event>
<event>
11    0  0.3439373E-009  0.9118800E+02  0.7816531E-02  0.1126479E+00
         25   -1    0    0    0    0  0.00000000000E+00  0.00000000000E+00  0.99999998245E-14  0.12500000000E+03  0.12500000000E+03 0.  0.
    3000001    1    3    3    0    0 -0.47734410800E+01  0.31206730336E+02  0.47246038084E+02  0.56831627397E+02  0.10000000000E+01 0.  1.
    1000022    2    1    0    0    0 -0.54145470501E+01  0.36332028114E+02  0.49567290781E+02  0.62499996278E+02  0.99999816392E+01 0.  0.
    3000022    2    3    3    0    0 -0.64110597001E+00  0.51252977786E+01  0.23212526968E+01  0.56683688810E+01  0.24999501003E+00 0.  0.
    1000022    2    1    0    0    0  0.54145470501E+01 -0.36332028114E+02 -0.49567290781E+02  0.62500003722E+02  0.10000028161E+02 0.  0.
    3000022    2    5    5    0    0  0.81805903060E+01 -0.22889990174E+02 -0.31854803612E+02  0.40070746467E+02  0.25000273420E+00 0.  0.
        -13    1    4    4    0    0 -0.24746365936E+00  0.20609897848E+01  0.86498197959E+00  0.22512520918E+01  0.10500000000E+00 0. -1.
         13    1    4    4    0    0 -0.39364231065E+00  0.30643079938E+01  0.14562707172E+01  0.34171167892E+01  0.10500000000E+00 0.  1.
    3000001    1    5    5    0    0 -0.27660432560E+01 -0.13442037940E+02 -0.17712487169E+02  0.22429257254E+02  0.10000000000E+01 0. -1.
        -13    1    6    6    0    0  0.55347298765E+01 -0.15440816071E+02 -0.21413170280E+02  0.26973819199E+02  0.10500000000E+00 0. -1.
         13    1    6    6    0    0  0.26458604295E+01 -0.74491741035E+01 -0.10441633332E+02  0.13096927269E+02  0.10500000000E+00 0.  1.
</event>
<event>
11    0  0.3439373E-009  0.9118800E+02  0.7816531E-02  0.1126479E+00
         25   -1    0    0    0    0  0.00000000000E+00  0.00000000000E+00  0.99999998245E-14  0.12500000000E+03  0.12500000000E+03 0.  0.
    3000001    1    3    3    0    0  0.53429427072E+01 -0.83027127966E+01  0.13225430786E+01  0.10011553164E+02  0.10000000000E+01 0.  1.
    1000022    2    1    0    0    0  0.44406407612E+02 -0.37378015700E+02  0.20909450679E+02  0.62499999305E+02  0.99999845389E+01 0.  0.
    3000022    2    3    3    0    0  0.39063464905E+02 -0.29075302903E+02  0.19586907601E+02  0.52488446141E+02  0.24999941371E+00 0.  0.
    1000022    2    1    0    0    0 -0.44406407612E+02  0.37378015700E+02 -0.20909450679E+02  0.62500000695E+02  0.99999932246E+01 0.  0.
    3000022    2    5    5    0    0 -0.12090270693E+02  0.67838469369E+01 -0.86036080710E+01  0.16318081831E+02  0.24999621177E+00 0.  0.
        -13    1    4    4    0    0  0.15203616868E+02 -0.11334290161E+02  0.75627894565E+01  0.20416241297E+02  0.10500000000E+00 0. -1.
         13    1    4    4    0    0  0.23859848036E+02 -0.17741012743E+02  0.12024118144E+02  0.32072204845E+02  0.10500000000E+00 0.  1.
    3000001    1    5    5    0    0 -0.32316136918E+02  0.30594168763E+02 -0.12305842608E+02  0.46181918864E+02  0.10000000000E+01 0. -1.
        -13    1    6    6    0    0 -0.86938089782E+01  0.48505945674E+01 -0.62158548929E+01  0.11737054965E+02  0.10500000000E+00 0.  1.
         13    1    6    6    0    0 -0.33964617151E+01  0.19332523695E+01 -0.23877531781E+01  0.45810268659E+01  0.10500000000E+00 0. -1.
</event>
<event>
11    0  0.3439373E-009  0.9118800E+02  0.7816531E-02  0.1126479E+00
         25   -1    0    0    0    0  0.00000000000E+00  0.00000000000E+00  0.99999998245E-14  0.12500000000E+03  0.12500000000E+03 0.  0.
    3000001    1    3    3    0    0 -0.43061612218E+02 -0.19008181173E+02 -0.11523243306E+02  0.48470594536E+02  0.10000000000E+01 0. -1.
    1000022    2    1    0    0    0 -0.56040890826E+02 -0.19569922997E+02 -0.16813295781E+02  0.62500005895E+02  0.10000024559E+02 0.  0.
    3000022    2    3    3    0    0 -0.12979278608E+02 -0.56174182318E+00 -0.52900524750E+01  0.14029411359E+02  0.25000168689E+00 0.  0.
    1000022    2    1    0    0    0  0.56040890826E+02  0.19569922997E+02  0.16813295781E+02  0.62499994105E+02  0.99999508673E+01 0.  0.
    3000022    2    5    5    0    0  0.41316951605E+02  0.17846817839E+02  0.97632788693E+01  0.46054136996E+02  0.25004654513E+00 0.  0.
        -13    1    4    4    0    0 -0.59300289574E+01 -0.28676404037E+00 -0.23529592687E+01  0.63870900550E+01  0.10500000000E+00 0. -1.
         13    1    4    4    0    0 -0.70492496507E+01 -0.27497778281E+00 -0.29370932062E+01  0.76423213045E+01  0.10500000000E+00 0.  1.
    3000001    1    5    5    0    0  0.14723939222E+02  0.17231051581E+01  0.70500169118E+01  0.16445857109E+02  0.10000000000E+01 0. -1.
        -13    1    6    6    0    0  0.16151684434E+02  0.69373141898E+01  0.37616526168E+01  0.17976770946E+02  0.10500000000E+00 0. -1.
         13    1    6    6    0    0  0.25165267171E+02  0.10909503649E+02  0.60016262525E+01  0.28077366050E+02  0.10500000000E+00 0.  1.
</event>
<event>
11    0  0.3439373E-009  0.9118800E+02  0.7816531E-02  0.1126479E+00
         25   -1    0    0    0    0  0.00000000000E+00  0.00000000000E+00  0.99999998245E-14  0.12500000000E+03  0.12500000000E+03 0.  0.
    3000001    1    3    3    0    0 -0.10448876366E+02  0.89427771469E+01 -0.15728776605E+02  0.20917616831E+02  0.10000000000E+01 0. -1.
    1000022    2    1    0    0    0 -0.41709358689E+02  0.24773848794E+02 -0.38116081765E+02  0.62499999088E+02  0.10000000530E+02 0.  0.
    3000022    2    3    3    0    0 -0.31260482323E+02  0.15831071647E+02 -0.22387305160E+02  0.41582382257E+02  0.24999454601E+00 0.  0.
    1000022    2    1    0    0    0  0.41709358689E+02 -0.24773848794E+02  0.38116081765E+02  0.62500000912E+02  0.10000011926E+02 0.  0.
    3000022    2    5    5    0    0  0.14011418631E+02 -0.13771249713E+02  0.13591255280E+02  0.23890414224E+02  0.25000209680E+00 0.  0.
        -13    1    4    4    0    0 -0.18273391055E+02  0.91961531849E+01 -0.13023947936E+02  0.24251191701E+02  0.10500000000E+00 0.  1.
         13    1    4    4    0    0 -0.12987091268E+02  0.66349184622E+01 -0.93633572236E+01  0.17331190556E+02  0.10500000000E+00 0. -1.
    3000001    1    5    5    0    0  0.27697940058E+02 -0.11002599081E+02  0.24524826486E+02  0.38609586687E+02  0.10000000000E+01 0. -1.
        -13    1    6    6    0    0  0.35683344456E+01 -0.35431330952E+01  0.34973675093E+01  0.61261249857E+01  0.10500000000E+00 0. -1.
         13    1    6    6    0    0  0.10443084185E+02 -0.10228116617E+02  0.10093887770E+02  0.17764289239E+02  0.10500000000E+00 0.  1.
</event>
<event>
11    0  0.3439373E-009  0.9118800E+02  0.7816531E-02  0.1126479E+00
         25   -1    0    0    0    0  0.00000000000E+00  0.00000000000E+00  0.99999998245E-14  0.12500000000E+03  0.12500000000E+03 0.  0.
    3000001    1    3    3    0    0  0.30376883833E+02 -0.27306590640E+02 -0.39152129299E+02  0.56588816849E+02  0.10000000000E+01 0.  1.
    1000022    2    1    0    0    0  0.33452552813E+02 -0.27100634692E+02 -0.44189727569E+02  0.62499997984E+02  0.10000001749E+02 0.  0.
    3000022    2    3    3    0    0  0.30756689797E+01  0.20595594721E+00 -0.50375982695E+01  0.59111811345E+01  0.25001711070E+00 0.  0.
    1000022    2    1    0    0    0 -0.33452552813E+02  0.27100634692E+02  0.44189727569E+02  0.62500002016E+02  0.10000026951E+02 0.  0.
    3000022    2    5    5    0    0 -0.16682108526E+02  0.73322223026E+01  0.17076029232E+02  0.24974136704E+02  0.25000195609E+00 0.  0.
        -13    1    4    4    0    0  0.18851686204E+01  0.18251239601E+00 -0.31384383951E+01  0.36671504007E+01  0.10500000000E+00 0. -1.
         13    1    4    4    0    0  0.11905003593E+01  0.23443551205E-01 -0.18991598744E+01  0.22440307338E+01  0.10500000000E+00 0.  1.
    3000001    1    5    5    0    0 -0.16770444287E+02  0.19768412390E+02  0.27113698336E+02  0.37525865312E+02  0.10000000000E+01 0.  1.
        -13    1    6    6    0    0 -0.98025773022E+01  0.43527072245E+01  0.10118560711E+02  0.14745605372E+02  0.10500000000E+00 0.  1.
         13    1    6    6    0    0 -0.68795312239E+01  0.29795150780E+01  0.69574685219E+01  0.10228531331E+02  0.10500000000E+00 0. -1.
</event>
<event>
11    0  0.3439373E-009  0.9118800E+02  0.7816531E-02  0.1126479E+00
         25   -1    0    0    0    0  0.00000000000E+00  0.00000000000E+00  0.99999998245E-14  0.12500000000E+03  0.12500000000E+03 0.  0.
    3000001    1    3    3    0    0 -0.17668534218E+02 -0.58217759086E+01 -0.40965297444E+02  0.45002508495E+02  0.10000000000E+01 0.  1.
    1000022    2    1    0    0    0 -0.20347292469E+02 -0.37066705012E+01 -0.58124856765E+02  0.62500005267E+02  0.99999983683E+01 0.  0.
    3000022    2    3    3    0    0 -0.26787582509E+01  0.21151054074E+01 -0.17159559321E+02  0.17497496772E+02  0.25000108498E+00 0.  0.
    1000022    2    1    0    0    0  0.20347292469E+02  0.37066705012E+01  0.58124856765E+02  0.62499994733E+02  0.99999325346E+01 0.  0.
    3000022    2    5    5    0    0  0.12358055986E+01  0.33799018344E+01  0.63900299515E+01  0.73379786935E+01  0.24999327528E+00 0.  0.
        -13    1    4    4    0    0 -0.80463655899E+00  0.64133081264E+00 -0.49553786418E+01  0.50621682792E+01  0.10500000000E+00 0.  1.
         13    1    4    4    0    0 -0.18741216919E+01  0.14737745948E+01 -0.12204180679E+02  0.12435328492E+02  0.10500000000E+00 0. -1.
    3000001    1    5    5    0    0  0.19111486871E+02  0.32676866682E+00  0.51734826813E+02  0.55162016040E+02  0.10000000000E+01 0. -1.
        -13    1    6    6    0    0  0.66282822745E+00  0.16215826691E+01  0.30750751530E+01  0.35406191278E+01  0.10500000000E+00 0.  1.
         13    1    6    6    0    0  0.57297737113E+00  0.17583191653E+01  0.33149547986E+01  0.37973595657E+01  0.10500000000E+00 0. -1.
</event>
<event>
11    0  0.3439373E-009  0.9118800E+02  0.7816531E-02  0.1126479E+00
         25   -1    0    0    0    0  0.00000000000E+00  0.00000000000E+00  0.99999998245E-14  0.12500000000E+03  0.12500000000E+03 0.  0.
    3000001    1    3    3    0    0 -0.35257523661E+01  0.82009713430E+01  0.48316222394E+02  0.49144116709E+02  0.10000000000E+01 0.  1.
    1000022    2    1    0    0    0 -0.41768273299E+01  0.52680349456E+01  0.61327413448E+02  0.62499998913E+02  0.10000007256E+02 0.  0.
    3000022    2    3    3    0    0 -0.65107496374E+00 -0.29329363974E+01  0.13011191055E+02  0.13355882204E+02  0.24996452804E+00 0.  0.
    1000022    2    1    0    0    0  0.41768273299E+01 -0.52680349456E+01 -0.61327413448E+02  0.62500001087E+02  0.10000020842E+02 0.  0.
    3000022    2    5    5    0    0  0.46142903096E+01 -0.75330250755E+00 -0.50523130362E+02  0.50739613514E+02  0.25007653304E+00 0.  0.
        -13    1    4    4    0    0 -0.32961922689E+00 -0.13351427089E+01  0.62175050895E+01  0.63686458079E+01  0.10500000000E+00 0.  1.
         13    1    4    4    0    0 -0.32145573685E+00 -0.15977936885E+01  0.67936859650E+01  0.69872363960E+01  0.10500000000E+00 0. -1.
    3000001    1    5    5    0    0 -0.43746297976E+00 -0.45147324381E+01 -0.10804283087E+02  0.11760387573E+02  0.10000000000E+01 0. -1.
        -13    1    6    6    0    0  0.27628084362E+01 -0.39485211673E+00 -0.30472970320E+02  0.30600685675E+02  0.10500000000E+00 0.  1.
         13    1    6    6    0    0  0.18514818734E+01 -0.35845039082E+00 -0.20050160042E+02  0.20138927840E+02  0.10500000000E+00 0. -1.
</event>
<event>
11    0  0.3439373E-009  0.9118800E+02  0.7816531E-02  0.1126479E+00
         25   -1    0    0    0    0  0.00000000000E+00  0.00000000000E+00  0.99999998245E-14  0.12500000000E+03  0.12500000000E+03 0.  0.
    3000001    1    3    3    0    0  0.27171559278E+02  0.14212556966E+02 -0.47501422877E+02  0.56547993637E+02  0.10000000000E+01 0. -1.
    1000022    2    1    0    0    0  0.32298850608E+02  0.15484821031E+02 -0.50232007776E+02  0.62499999586E+02  0.99999954985E+01 0.  0.
    3000022    2    3    3    0    0  0.51272913307E+01  0.12722640653E+01 -0.27305848998E+01  0.59520059485E+01  0.25001734730E+00 0.  0.
    1000022    2    1    0    0    0 -0.32298850608E+02 -0.15484821031E+02  0.50232007776E+02  0.62500000414E+02  0.10000000678E+02 0.  0.
    3000022    2    5    5    0    0 -0.24913226973E+02 -0.70060072647E+01  0.34046691399E+02  0.42766724315E+02  0.24999486459E+00 0.  0.
        -13    1    4    4    0    0  0.21819284696E+01  0.48130024875E+00 -0.11873472228E+01  0.25324454986E+01  0.10500000000E+00 0. -1.
         13    1    4    4    0    0  0.29453628611E+01  0.79096381653E+00 -0.15432376770E+01  0.34195604499E+01  0.10500000000E+00 0.  1.
    3000001    1    5    5    0    0 -0.73856236355E+01 -0.84788137665E+01  0.16185316378E+02  0.19733276100E+02  0.10000000000E+01 0.  1.
        -13    1    6    6    0    0 -0.16988231308E+02 -0.48147526681E+01  0.23286939671E+02  0.29224551844E+02  0.10500000000E+00 0. -1.
         13    1    6    6    0    0 -0.79249956651E+01 -0.21912545966E+01  0.10759751727E+02  0.13542172471E+02  0.10500000000E+00 0.  1.
</event>
<event>
11    0  0.3439373E-009  0.9118800E+02  0.7816531E-02  0.1126479E+00
         25   -1    0    0    0    0  0.00000000000E+00  0.00000000000E+00  0.99999998245E-14  0.12500000000E+03  0.12500000000E+03 0.  0.
    3000001    1    3    3    0    0  0.47313000515E+02 -0.22645667789E+02 -0.17271831812E+02  0.55232802405E+02  0.10000000000E+01 0. -1.
    1000022    2    1    0    0    0  0.51215647628E+02 -0.26261005646E+02 -0.22216360932E+02  0.62500002058E+02  0.10000029238E+02 0.  0.
    3000022    2    3    3    0    0  0.39026471130E+01 -0.36153378572E+01 -0.49445291198E+01  0.72671996538E+01  0.25000056254E+00 0.  0.
    1000022    2    1    0    0    0 -0.51215647628E+02  0.26261005646E+02  0.22216360932E+02  0.62499997942E+02  0.10000003508E+02 0.  0.
    3000022    2    5    5    0    0 -0.63055289624E+01  0.42210240974E+01  0.66641702262E+01  0.10102000070E+02  0.25000136784E+00 0.  0.
        -13    1    4    4    0    0  0.21305516732E+01 -0.18820583228E+01 -0.26374121260E+01  0.38792217885E+01  0.10500000000E+00 0. -1.
         13    1    4    4    0    0  0.17720954398E+01 -0.17332795345E+01 -0.23071169938E+01  0.33879778653E+01  0.10500000000E+00 0.  1.
    3000001    1    5    5    0    0 -0.44910118665E+02  0.22039981549E+02  0.15552190706E+02  0.52397997872E+02  0.10000000000E+01 0. -1.
        -13    1    6    6    0    0 -0.33691605614E+01  0.22101606058E+01  0.36129038461E+01  0.54129614808E+01  0.10500000000E+00 0. -1.
         13    1    6    6    0    0 -0.29363684010E+01  0.20108634915E+01  0.30512663801E+01  0.46890385891E+01  0.10500000000E+00 0.  1.
</event>
<event>
11    0  0.3439373E-009  0.9118800E+02  0.7816531E-02  0.1126479E+00
         25   -1    0    0    0    0  0.00000000000E+00  0.00000000000E+00  0.99999998245E-14  0.12500000000E+03  0.12500000000E+03 0.  0.
    3000001    1    3    3    0    0 -0.28627130705E+01  0.47123890295E+01 -0.31695698694E+02  0.32187249839E+02  0.10000000000E+01 0.  1.
    1000022    2    1    0    0    0 -0.14771046579E+02  0.74447567905E+01 -0.59436032102E+02  0.62500000284E+02  0.99999951410E+01 0.  0.
    3000022    2    3    3    0    0 -0.11908333509E+02  0.27323677610E+01 -0.27740333408E+02  0.30312750446E+02  0.25000291460E+00 0.  0.
    1000022    2    1    0    0    0  0.14771046579E+02 -0.74447567905E+01  0.59436032102E+02  0.62499999716E+02  0.99999915902E+01 0.  0.
    3000022    2    5    5    0    0  0.51843467152E+01 -0.50394566829E+01  0.40245957189E+02  0.40890990992E+02  0.24999941748E+00 0.  0.
        -13    1    4    4    0    0 -0.48589739123E+01  0.10496876637E+01 -0.11297765228E+02  0.12343500144E+02  0.10500000000E+00 0.  1.
         13    1    4    4    0    0 -0.70493595964E+01  0.16826800973E+01 -0.16442568180E+02  0.17969250301E+02  0.10500000000E+00 0. -1.
    3000001    1    5    5    0    0  0.95866998641E+01 -0.24053001076E+01  0.19190074912E+02  0.21609008724E+02  0.10000000000E+01 0.  1.
        -13    1    6    6    0    0  0.27542377831E+01 -0.26504094548E+01  0.21640855294E+02  0.21976081064E+02  0.10500000000E+00 0. -1.
         13    1    6    6    0    0  0.24301089321E+01 -0.23890472281E+01  0.18605101895E+02  0.18914909928E+02  0.10500000000E+00 0.  1.
</event>
<event>
11    0  0.3439373E-009  0.9118800E+02  0.7816531E-02  0.1126479E+00
         25   -1    0    0    0    0  0.00000000000E+00  0.00000000000E+00  0.99999998245E-14  0.12500000000E+03  0.12500000000E+03 0.  0.
    3000001    1    3    3    0    0 -0.15742675668E+02  0.13947562805E+02  0.10073573102E+02  0.23341876969E+02  0.10000000000E+01 0. -1.
    1000022    2    1    0    0    0 -0.46373867133E+02  0.37852325070E+02  0.14930361288E+02  0.62499997955E+02  0.99999995095E+01 0.  0.
    3000022    2    3    3    0    0 -0.30631191464E+02  0.23904762265E+02  0.48567881855E+01  0.39158120986E+02  0.24999642647E+00 0.  0.
    1000022    2    1    0    0    0  0.46373867133E+02 -0.37852325070E+02 -0.14930361288E+02  0.62500002045E+02  0.10000025067E+02 0.  0.
    3000022    2    5    5    0    0  0.10887933460E+02 -0.64978836022E+01  0.48291859935E+00  0.12691150570E+02  0.25001212912E+00 0.  0.
        -13    1    4    4    0    0 -0.11811540053E+02  0.92908758335E+01  0.19004999776E+01  0.15147797772E+02  0.10500000000E+00 0.  1.
         13    1    4    4    0    0 -0.18819651412E+02  0.14613886431E+02  0.29562882079E+01  0.24010323214E+02  0.10500000000E+00 0. -1.
    3000001    1    5    5    0    0  0.35485933672E+02 -0.31354441468E+02 -0.15413279887E+02  0.49808851475E+02  0.10000000000E+01 0.  1.
        -13    1    6    6    0    0  0.53823636311E+01 -0.32248568355E+01  0.30596656245E+00  0.62828481125E+01  0.10500000000E+00 0. -1.
         13    1    6    6    0    0  0.55055698293E+01 -0.32730267667E+01  0.17695203691E+00  0.64083024573E+01  0.10500000000E+00 0.  1.
</event>
<event>
11    0  0.3439373E-009  0.9118800E+02  0.7816531E-02  0.1126479E+00
         25   -1    0    0    0    0  0.00000000000E+00  0.00000000000E+00  0.99999998245E-14  0.12500000000E+03  0.12500000000E+03 0.  0.
    3000001    1    3    3    0    0  0.46770754885E+02 -0.13267949109E+02 -0.37336627524E+02  0.61307142659E+02  0.10000000000E+01 0. -1.
    1000022    2    1    0    0    0  0.47179293300E+02 -0.14330133065E+02 -0.37081149218E+02  0.62500000753E+02  0.10000001839E+02 0.  0.
    3000022    2    3    3    0    0  0.40853841525E+00 -0.10621839555E+01  0.25547830676E+00  0.11928580936E+01  0.25000574831E+00 0.  0.
    1000022    2    1    0    0    0 -0.47179293300E+02  0.14330133065E+02  0.37081149218E+02  0.62499999247E+02  0.99999924320E+01 0.  0.
    3000022    2    5    5    0    0 -0.47215173108E+02  0.14164161536E+02  0.36419196998E+02  0.61288795445E+02  0.24998711026E+00 0.  0.
        -13    1    4    4    0    0  0.18143649377E+00 -0.51167016976E+00  0.54477957203E-01  0.55562434406E+00  0.10500000000E+00 0.  1.
         13    1    4    4    0    0  0.22710192148E+00 -0.55051378575E+00  0.20100034956E+00  0.63723374955E+00  0.10500000000E+00 0. -1.
    3000001    1    5    5    0    0  0.35879807331E-01  0.16597152912E+00  0.66195221978E+00  0.12112038021E+01  0.10000000000E+01 0.  1.
        -13    1    6    6    0    0 -0.17223984434E+02  0.52102322582E+01  0.13242922185E+02  0.22342743184E+02  0.10500000000E+00 0.  1.
         13    1    6    6    0    0 -0.29991188674E+02  0.89539292775E+01  0.23176274813E+02  0.38946052261E+02  0.10500000000E+00 0. -1.
</event>
<event>
11    0  0.3439373E-009  0.9118800E+02  0.7816531E-02  0.1126479E+00
         25   -1    0    0    0    0  0.00000000000E+00  0.00000000000E+00  0.99999998245E-14  0.12500000000E+03  0.12500000000E+03 0.  0.
    3000001    1    3    3    0    0  0.32804205802E+01  0.93014190934E+01  0.23572565579E+02  0.25572317147E+02  0.10000000000E+01 0. -1.
    1000022    2    1    0    0    0 -0.42140499583E+00  0.14719312442E+02  0.59911720504E+02  0.62500000004E+02  0.10000000294E+02 0.  0.
    3000022    2    3    3    0    0 -0.37018255761E+01  0.54178933489E+01  0.36339154925E+02  0.36927682857E+02  0.24999912776E+00 0.  0.
    1000022    2    1    0    0    0  0.42140499583E+00 -0.14719312442E+02 -0.59911720504E+02  0.62499999996E+02  0.10000000242E+02 0.  0.
    3000022    2    5    5    0    0  0.40934611699E+01 -0.88465696782E+01 -0.44766417293E+02  0.45816076193E+02  0.25000211545E+00 0.  0.
        -13    1    4    4    0    0 -0.20733883443E+01  0.31484064961E+01  0.20806345569E+02  0.21145364590E+02  0.10500000000E+00 0. -1.
         13    1    4    4    0    0 -0.16284372317E+01  0.22694868528E+01  0.15532809356E+02  0.15782318267E+02  0.10500000000E+00 0.  1.
    3000001    1    5    5    0    0 -0.36720561740E+01 -0.58727427641E+01 -0.15145303210E+02  0.16683923803E+02  0.10000000000E+01 0.  1.
        -13    1    6    6    0    0  0.22554758855E+01 -0.50018862399E+01 -0.25376751305E+02  0.25963369758E+02  0.10500000000E+00 0. -1.
         13    1    6    6    0    0  0.18379852844E+01 -0.38446834383E+01 -0.19389665989E+02  0.19852706435E+02  0.10500000000E+00 0.  1.
</event>
<event>
11    0  0.3439373E-009  0.9118800E+02  0.7816531E-02  0.1126479E+00
         25   -1    0    0    0    0  0.00000000000E+00  0.00000000000E+00  0.99999998245E-14  0.12500000000E+03  0.12500000000E+03 0.  0.
    3000001    1    3    3    0    0  0.50514463487E+02 -0.42037625064E+01 -0.14671977186E+02  0.52779253075E+02  0.10000000000E+01 0.  1.
    1000022    2    1    0    0    0  0.59578554089E+02 -0.76553584028E+01 -0.14072747611E+02  0.62499994912E+02  0.99999259572E+01 0.  0.
    3000022    2    3    3    0    0  0.90640906018E+01 -0.34515958964E+01  0.59922957522E+00  0.97207418376E+01  0.24998623924E+00 0.  0.
    1000022    2    1    0    0    0 -0.59578554089E+02  0.76553584028E+01  0.14072747611E+02  0.62500005088E+02  0.99999895545E+01 0.  0.
    3000022    2    5    5    0    0 -0.37432805949E+01 -0.39490804445E+00 -0.13532567246E+01  0.40077306770E+01  0.24999888168E+00 0.  0.
        -13    1    4    4    0    0  0.31818256551E+01 -0.11642849412E+01  0.24439113667E+00  0.33985770480E+01  0.10500000000E+00 0. -1.
         13    1    4    4    0    0  0.58822649467E+01 -0.22873109552E+01  0.35483843855E+00  0.63221647895E+01  0.10500000000E+00 0.  1.
    3000001    1    5    5    0    0 -0.55835273494E+02  0.80502664472E+01  0.15426004335E+02  0.58492274411E+02  0.10000000000E+01 0. -1.
        -13    1    6    6    0    0 -0.27352300197E+01 -0.25689867426E+00 -0.96721151143E+00  0.29144473400E+01  0.10500000000E+00 0. -1.
         13    1    6    6    0    0 -0.10080505751E+01 -0.13800937019E+00 -0.38604521319E+00  0.10932833370E+01  0.10500000000E+00 0.  1.
</event>
<event>
11    0  0.3439373E-009  0.9118800E+02  0.7816531E-02  0.1126479E+00
         25   -1    0    0    0    0  0.00000000000E+00  0.00000000000E+00  0.99999998245E-14  0.12500000000E+03  0.12500000000E+03 0.  0.
    3000001    1    3    3    0    0  0.17686541906E+02  0.24770960644E+02  0.24806652308E+02  0.39278292409E+02  0.10000000000E+01 0. -1.
    1000022    2    1    0    0    0  0.31703485896E+02  0.32961738061E+02  0.41408493602E+02  0.62499988910E+02  0.99999038709E+01 0.  0.
    3000022    2    3    3    0    0  0.14016943991E+02  0.81907774164E+01  0.16601841293E+02  0.23221696501E+02  0.25000105923E+00 0.  0.
    1000022    2    1    0    0    0 -0.31703485896E+02 -0.32961738061E+02 -0.41408493602E+02  0.62500011090E+02  0.10000042496E+02 0.  0.
    3000022    2    5    5    0    0 -0.10342852257E+02 -0.60380682031E+01 -0.14699290740E+02  0.18962186321E+02  0.25000278348E+00 0.  0.
        -13    1    4    4    0    0  0.70717412274E+01  0.42107844891E+01  0.84112834036E+01  0.11768642381E+02  0.10500000000E+00 0.  1.
         13    1    4    4    0    0  0.69452027633E+01  0.39799929273E+01  0.81905578897E+01  0.11453054120E+02  0.10500000000E+00 0. -1.
    3000001    1    5    5    0    0 -0.21360633639E+02 -0.26923669858E+02 -0.26709202862E+02  0.43537824769E+02  0.10000000000E+01 0.  1.
        -13    1    6    6    0    0 -0.26086501042E+01 -0.15433665441E+01 -0.37563107281E+01  0.48278288020E+01  0.10500000000E+00 0.  1.
         13    1    6    6    0    0 -0.77342021529E+01 -0.44947016590E+01 -0.10942980012E+02  0.14134357519E+02  0.10500000000E+00 0. -1.
</event>
<event>
11    0  0.3439373E-009  0.9118800E+02  0.7816531E-02  0.1126479E+00
         25   -1    0    0    0    0  0.00000000000E+00  0.00000000000E+00  0.99999998245E-14  0.12500000000E+03  0.12500000000E+03 0.  0.
    3000001    1    3    3    0    0  0.11119432303E+02 -0.57963750803E+02 -0.98028094435E+01  0.59837557227E+02  0.10000000000E+01 0. -1.
    1000022    2    1    0    0    0  0.12767255178E+02 -0.59269741851E+02 -0.11416862784E+02  0.62499999795E+02  0.10000005735E+02 0.  0.
    3000022    2    3    3    0    0  0.16478228749E+01 -0.13059910486E+01 -0.16140533405E+01  0.26624425687E+01  0.24999879931E+00 0.  0.
    1000022    2    1    0    0    0 -0.12767255178E+02  0.59269741851E+02  0.11416862784E+02  0.62500000205E+02  0.10000008293E+02 0.  0.
    3000022    2    5    5    0    0 -0.12233834771E+02  0.34438352466E+02  0.79481576103E+01  0.37401905622E+02  0.25000184608E+00 0.  0.
        -13    1    4    4    0    0  0.97684480491E+00 -0.73308500295E+00 -0.86471698010E+00  0.15001332774E+01  0.10500000000E+00 0.  1.
         13    1    4    4    0    0  0.67097807003E+00 -0.57290604561E+00 -0.74933636044E+00  0.11623092913E+01  0.10500000000E+00 0. -1.
    3000001    1    5    5    0    0 -0.53342040653E+00  0.24831389385E+02  0.34687051737E+01  0.25098094583E+02  0.10000000000E+01 0. -1.
        -13    1    6    6    0    0 -0.71097004906E+01  0.20184052259E+02  0.46845812925E+01  0.21906623052E+02  0.10500000000E+00 0. -1.
         13    1    6    6    0    0 -0.51241342808E+01  0.14254300207E+02  0.32635763178E+01  0.15495282569E+02  0.10500000000E+00 0.  1.
</event>
<event>
11    0  0.3439373E-009  0.9118800E+02  0.7816531E-02  0.1126479E+00
         25   -1    0    0    0    0  0.00000000000E+00  0.00000000000E+00  0.99999998245E-14  0.12500000000E+03  0.12500000000E+03 0.  0.
    3000001    1    3    3    0    0 -0.24297859306E+00 -0.24003710893E+02  0.65839733175E+01  0.24911561169E+02  0.10000000000E+01 0.  1.
    1000022    2    1    0    0    0 -0.11518034203E+02 -0.59552322143E+02  0.11274123270E+02  0.62499998648E+02  0.99999895439E+01 0.  0.
    3000022    2    3    3    0    0 -0.11275055610E+02 -0.35548611251E+02  0.46901499528E+01  0.37588437479E+02  0.24996933847E+00 0.  0.
    1000022    2    1    0    0    0  0.11518034203E+02  0.59552322143E+02 -0.11274123270E+02  0.62500001352E+02  0.10000006450E+02 0.  0.
    3000022    2    5    5    0    0  0.31824089146E+01  0.38702776516E+02 -0.93332276363E+01  0.39940008496E+02  0.25000804623E+00 0.  0.
        -13    1    4    4    0    0 -0.49987302255E+01 -0.15595823580E+02  0.20157993184E+01  0.16501257191E+02  0.10500000000E+00 0. -1.
         13    1    4    4    0    0 -0.62763253846E+01 -0.19952787670E+02  0.26743506343E+01  0.21087180287E+02  0.10500000000E+00 0.  1.
    3000001    1    5    5    0    0  0.83356252887E+01  0.20849545627E+02 -0.19408956339E+01  0.22559992856E+02  0.10000000000E+01 0.  1.
        -13    1    6    6    0    0  0.17933858566E+01  0.22535669551E+02 -0.54071863221E+01  0.23244812838E+02  0.10500000000E+00 0.  1.
         13    1    6    6    0    0  0.13890230579E+01  0.16167106965E+02 -0.39260413143E+01  0.16695195658E+02  0.10500000000E+00 0. -1.
</event>
<event>
11    0  0.3439373E-009  0.9118800E+02  0.7816531E-02  0.1126479E+00
         25   -1    0    0    0    0  0.00000000000E+00  0.00000000000E+00  0.99999998245E-14  0.12500000000E+03  0.12500000000E+03 0.  0.
    3000001    1    3    3    0    0 -0.21581379876E+01 -0.78015523129E+01  0.10559521166E+01  0.82241603180E+01  0.10000000000E+01 0. -1.
    1000022    2    1    0    0    0 -0.25930707696E+02 -0.54160070274E+02 -0.14161045198E+02  0.62499999936E+02  0.99999988597E+01 0.  0.
    3000022    2    3    3    0    0 -0.23772569708E+02 -0.46358517962E+02 -0.15216997315E+02  0.54275839618E+02  0.25000173110E+00 0.  0.
    1000022    2    1    0    0    0  0.25930707696E+02  0.54160070274E+02  0.14161045198E+02  0.62500000064E+02  0.99999996554E+01 0.  0.
    3000022    2    5    5    0    0  0.93387461573E+01  0.10415295987E+02  0.46776264729E+01  0.14752395979E+02  0.24985475641E+00 0.  0.
        -13    1    4    4    0    0 -0.18148877203E+02 -0.35381507332E+02 -0.11630803459E+02  0.41430899325E+02  0.10500000000E+00 0.  1.
         13    1    4    4    0    0 -0.56236925059E+01 -0.10977010630E+02 -0.35861938552E+01  0.12844940293E+02  0.10500000000E+00 0. -1.
    3000001    1    5    5    0    0  0.16591961539E+02  0.43744774287E+02  0.94834187251E+01  0.47747604085E+02  0.10000000000E+01 0.  1.
        -13    1    6    6    0    0  0.52883618420E+01  0.59327531309E+01  0.27220074930E+01  0.84014689476E+01  0.10500000000E+00 0. -1.
         13    1    6    6    0    0  0.40503843153E+01  0.44825428563E+01  0.19556189799E+01  0.63509270311E+01  0.10500000000E+00 0.  1.
</event>
<event>
11    0  0.3439373E-009  0.9118800E+02  0.7816531E-02  0.1126479E+00
         25   -1    0    0    0    0  0.00000000000E+00  0.00000000000E+00  0.99999998245E-14  0.12500000000E+03  0.12500000000E+03 0.  0.
    3000001    1    3    3    0    0  0.33841493496E+01  0.42131387977E+02  0.11811049924E+02  0.43897690372E+02  0.10000000000E+01 0. -1.
    1000022    2    1    0    0    0 -0.14919477026E+01  0.59702601695E+02  0.15479776182E+02  0.62499999752E+02  0.99999970670E+01 0.  0.
    3000022    2    3    3    0    0 -0.48760970522E+01  0.17571213717E+02  0.36687262581E+01  0.18602309380E+02  0.24997590216E+00 0.  0.
    1000022    2    1    0    0    0  0.14919477026E+01 -0.59702601695E+02 -0.15479776182E+02  0.62500000248E+02  0.10000000163E+02 0.  0.
    3000022    2    5    5    0    0  0.29623301013E+00 -0.32785523140E+02 -0.34267852486E+01  0.32966401720E+02  0.25000734661E+00 0.  0.
        -13    1    4    4    0    0 -0.28237380506E+01  0.10192967511E+02  0.20619834201E+01  0.10776496828E+02  0.10500000000E+00 0.  1.
         13    1    4    4    0    0 -0.20523590015E+01  0.73782462065E+01  0.16067428380E+01  0.78258125522E+01  0.10500000000E+00 0. -1.
    3000001    1    5    5    0    0  0.11957146925E+01 -0.26917078555E+02 -0.12052990934E+02  0.29533598528E+02  0.10000000000E+01 0.  1.
        -13    1    6    6    0    0  0.21633155605E+00 -0.17007243124E+02 -0.17519892354E+01  0.17098935911E+02  0.10500000000E+00 0.  1.
         13    1    6    6    0    0  0.79901454078E-01 -0.15778280016E+02 -0.16747960131E+01  0.15867465809E+02  0.10500000000E+00 0. -1.
</event>
<event>
11    0  0.3439373E-009  0.9118800E+02  0.7816531E-02  0.1126479E+00
         25   -1    0    0    0    0  0.00000000000E+00  0.00000000000E+00  0.99999998245E-14  0.12500000000E+03  0.12500000000E+03 0.  0.
    3000001    1    3    3    0    0  0.17876447291E+02 -0.46345158955E+02  0.11101748631E+02  0.50908643165E+02  0.10000000000E+01 0.  1.
    1000022    2    1    0    0    0  0.21858284753E+02 -0.54847127251E+02  0.17895756198E+02  0.62499999330E+02  0.99999923210E+01 0.  0.
    3000022    2    3    3    0    0  0.39818374618E+01 -0.85019682960E+01  0.67940075671E+01  0.11591356165E+02  0.25000888896E+00 0.  0.
    1000022    2    1    0    0    0 -0.21858284753E+02  0.54847127251E+02 -0.17895756198E+02  0.62500000670E+02  0.10000000690E+02 0.  0.
    3000022    2    5    5    0    0 -0.65443158778E+01  0.29774186256E+02 -0.92304947960E+01  0.31852704411E+02  0.25001311649E+00 0.  0.
        -13    1    4    4    0    0  0.23313342762E+01 -0.48431109716E+01  0.39283770596E+01  0.66583792858E+01  0.10500000000E+00 0.  1.
         13    1    4    4    0    0  0.16505031856E+01 -0.36588573244E+01  0.28656305075E+01  0.49329768793E+01  0.10500000000E+00 0. -1.
    3000001    1    5    5    0    0 -0.15313968875E+02  0.25072940994E+02 -0.86652614024E+01  0.30647296259E+02  0.10000000000E+01 0.  1.
        -13    1    6    6    0    0 -0.36886100288E+01  0.16897191876E+02 -0.53003150439E+01  0.18089369857E+02  0.10500000000E+00 0. -1.
         13    1    6    6    0    0 -0.28557058491E+01  0.12876994380E+02 -0.39301797521E+01  0.13763334554E+02  0.10500000000E+00 0.  1.
</event>
<event>
11    0  0.3439373E-009  0.9118800E+02  0.7816531E-02  0.1126479E+00
         25   -1    0    0    0    0  0.00000000000E+00  0.00000000000E+00  0.99999998245E-14  0.12500000000E+03  0.12500000000E+03 0.  0.
    3000001    1    3    3    0    0 -0.23450093373E+02 -0.29363149914E+02  0.21593052094E+02  0.43351601480E+02  0.10000000000E+01 0. -1.
    1000022    2    1    0    0    0 -0.37297705151E+02 -0.36900894240E+02  0.32456971668E+02  0.62499999640E+02  0.10000006998E+02 0.  0.
    3000022    2    3    3    0    0 -0.13847611778E+02 -0.75377443255E+01  0.10863919574E+02  0.19148398161E+02  0.24992429557E+00 0.  0.
    1000022    2    1    0    0    0  0.37297705151E+02  0.36900894240E+02 -0.32456971668E+02  0.62500000360E+02  0.10000011492E+02 0.  0.
    3000022    2    5    5    0    0  0.21924608434E+02  0.22522868619E+02 -0.24945139972E+02  0.40128426011E+02  0.25000008313E+00 0.  0.
        -13    1    4    4    0    0 -0.10660766892E+02 -0.58098024700E+01  0.83661007085E+01  0.14744776076E+02  0.10500000000E+00 0. -1.
         13    1    4    4    0    0 -0.31868448858E+01 -0.17279418555E+01  0.24978188656E+01  0.44036220850E+01  0.10500000000E+00 0.  1.
    3000001    1    5    5    0    0  0.15373096716E+02  0.14378025621E+02 -0.75118316959E+01  0.22371574349E+02  0.10000000000E+01 0. -1.
        -13    1    6    6    0    0  0.83795231727E+01  0.85669493885E+01 -0.95793565471E+01  0.15342233452E+02  0.10500000000E+00 0.  1.
         13    1    6    6    0    0  0.13545085262E+02  0.13955919230E+02 -0.15365783425E+02  0.24786192559E+02  0.10500000000E+00 0. -1.
</event>
<event>
11    0  0.3439373E-009  0.9118800E+02  0.7816531E-02  0.1126479E+00
         25   -1    0    0    0    0  0.00000000000E+00  0.00000000000E+00  0.99999998245E-14  0.12500000000E+03  0.12500000000E+03 0.  0.
    3000001    1    3    3    0    0  0.23037999770E+01  0.70929973913E+01  0.13227995157E+02  0.15218342952E+02  0.10000000000E+01 0. -1.
    1000022    2    1    0    0    0  0.13371598814E+02  0.41835174484E+02  0.43327456232E+02  0.62500000046E+02  0.10000003164E+02 0.  0.
    3000022    2    3    3    0    0  0.11067798837E+02  0.34742177093E+02  0.30099461075E+02  0.47281657094E+02  0.25000067192E+00 0.  0.
    1000022    2    1    0    0    0 -0.13371598814E+02 -0.41835174484E+02 -0.43327456232E+02  0.62499999954E+02  0.10000002587E+02 0.  0.
    3000022    2    5    5    0    0 -0.22389345245E+01 -0.38166625889E+01 -0.10510748530E+01  0.45548890004E+01  0.25002867206E+00 0.  0.
        -13    1    4    4    0    0  0.26202560261E+01  0.82695404513E+01  0.71467900184E+01  0.11240047753E+02  0.10500000000E+00 0. -1.
         13    1    4    4    0    0  0.84475428111E+01  0.26472636641E+02  0.22952671057E+02  0.36041609342E+02  0.10500000000E+00 0.  1.
    3000001    1    5    5    0    0 -0.11132664290E+02 -0.38018511895E+02 -0.42276381379E+02  0.57945110953E+02  0.10000000000E+01 0. -1.
        -13    1    6    6    0    0 -0.13078233643E+01 -0.22349738977E+01 -0.68096833098E+00  0.26795994372E+01  0.10500000000E+00 0. -1.
         13    1    6    6    0    0 -0.93111116015E+00 -0.15816886911E+01 -0.37010652207E+00  0.18752895632E+01  0.10500000000E+00 0.  1.
</event>
<event>
11    0  0.3439373E-009  0.9118800E+02  0.7816531E-02  0.1126479E+00
         25   -1    0    0    0    0  0.00000000000E+00  0.00000000000E+00  0.99999998245E-14  0.12500000000E+03  0.12500000000E+03 0.  0.
    3000001    1    3    3    0    0  0.57769731991E+02 -0.81885139045E+01 -0.12214904089E+02  0.59620445957E+02  0.10000000000E+01 0.  1.
    1000022    2    1    0    0    0  0.59551049947E+02 -0.74030587671E+01 -0.14321879448E+02  0.62500008685E+02  0.10000101290E+02 0.  0.
    3000022    2    3    3    0    0  0.17813179565E+01  0.78545513745E+00 -0.21069753591E+01  0.28795627280E+01  0.25000581067E+00 0.  0.
    1000022    2    1    0    0    0 -0.59551049947E+02  0.74030587671E+01  0.14321879448E+02  0.62499991315E+02  0.99999927226E+01 0.  0.
    3000022    2    5    5    0    0 -0.37682633459E+02  0.20042777134E+01  0.48616492384E+01  0.38048602147E+02  0.24999703375E+00 0.  0.
        -13    1    4    4    0    0  0.11172258332E+01  0.55582576538E+00 -0.13543305911E+01  0.18445520306E+01  0.10500000000E+00 0.  1.
         13    1    4    4    0    0  0.66409212331E+00  0.22962937208E+00 -0.75264476808E+00  0.10350106974E+01  0.10500000000E+00 0. -1.
    3000001    1    5    5    0    0 -0.21868416489E+02  0.53987810537E+01  0.94602302093E+01  0.24451389167E+02  0.10000000000E+01 0. -1.
        -13    1    6    6    0    0 -0.16996011273E+02  0.89076289027E+00  0.22585965538E+01  0.17168871283E+02  0.10500000000E+00 0.  1.
         13    1    6    6    0    0 -0.20686622185E+02  0.11135148231E+01  0.26030526846E+01  0.20879730865E+02  0.10500000000E+00 0. -1.
</event>
<event>
11    0  0.3439373E-009  0.9118800E+02  0.7816531E-02  0.1126479E+00
         25   -1    0    0    0    0  0.00000000000E+00  0.00000000000E+00  0.99999998245E-14  0.12500000000E+03  0.12500000000E+03 0.  0.
    3000001    1    3    3    0    0 -0.19474168402E+02  0.41857089285E+01  0.22442571540E+01  0.20069880029E+02  0.10000000000E+01 0. -1.
    1000022    2    1    0    0    0 -0.58906602071E+02  0.39554901349E+01  0.17905761544E+02  0.62499999583E+02  0.99999990823E+01 0.  0.
    3000022    2    3    3    0    0 -0.39432433669E+02 -0.23021879360E+00  0.15661504390E+02  0.42430119554E+02  0.24999979205E+00 0.  0.
    1000022    2    1    0    0    0  0.58906602071E+02 -0.39554901349E+01 -0.17905761544E+02  0.62500000417E+02  0.10000004292E+02 0.  0.
    3000022    2    5    5    0    0  0.35609841512E+02 -0.24671329215E+01 -0.15809889890E+02  0.39040526046E+02  0.24999658157E+00 0.  0.
        -13    1    4    4    0    0 -0.26687631928E+02 -0.18911877571E+00  0.10641761191E+02  0.28731925972E+02  0.10500000000E+00 0.  1.
         13    1    4    4    0    0 -0.12744801741E+02 -0.41100017890E-01  0.50197431999E+01  0.13698193582E+02  0.10500000000E+00 0. -1.
    3000001    1    5    5    0    0  0.23296760559E+02 -0.14883572134E+01 -0.20958716547E+01  0.23459474371E+02  0.10000000000E+01 0.  1.
        -13    1    6    6    0    0  0.23085306187E+02 -0.15451929838E+01 -0.10266555526E+02  0.25312687934E+02  0.10500000000E+00 0.  1.
         13    1    6    6    0    0  0.12524535325E+02 -0.92193993774E+00 -0.55433343638E+01  0.13727838112E+02  0.10500000000E+00 0. -1.
</event>
<event>
11    0  0.3439373E-009  0.9118800E+02  0.7816531E-02  0.1126479E+00
         25   -1    0    0    0    0  0.00000000000E+00  0.00000000000E+00  0.99999998245E-14  0.12500000000E+03  0.12500000000E+03 0.  0.
    3000001    1    3    3    0    0 -0.15859180007E+02 -0.21275398513E+02 -0.17430454530E+02  0.31764397011E+02  0.10000000000E+01 0. -1.
    1000022    2    1    0    0    0 -0.22824054993E+02 -0.41774681177E+02 -0.39245248527E+02  0.62500008489E+02  0.10000002778E+02 0.  0.
    3000022    2    3    3    0    0 -0.69648749856E+01 -0.20499282664E+02 -0.21814793997E+02  0.30735611478E+02  0.25000503632E+00 0.  0.
    1000022    2    1    0    0    0  0.22824054993E+02  0.41774681177E+02  0.39245248527E+02  0.62499991511E+02  0.99998966584E+01 0.  0.
    3000022    2    5    5    0    0  0.87842460087E+01  0.24533654575E+02  0.17549988894E+02  0.31418589916E+02  0.24999470037E+00 0.  0.
        -13    1    4    4    0    0 -0.29561387239E+01 -0.87198230553E+01 -0.93696525550E+01  0.13136798859E+02  0.10500000000E+00 0.  1.
         13    1    4    4    0    0 -0.40087362617E+01 -0.11779459609E+02 -0.12445141442E+02  0.17598812619E+02  0.10500000000E+00 0. -1.
    3000001    1    5    5    0    0  0.14039808984E+02  0.17241026602E+02  0.21695259633E+02  0.31081401595E+02  0.10000000000E+01 0. -1.
        -13    1    6    6    0    0  0.30044794249E+01  0.82681311949E+01  0.58825720944E+01  0.10583221131E+02  0.10500000000E+00 0. -1.
         13    1    6    6    0    0  0.57797665838E+01  0.16265523380E+02  0.11667416800E+02  0.20835368784E+02  0.10500000000E+00 0.  1.
</event>
<event>
11    0  0.3439373E-009  0.9118800E+02  0.7816531E-02  0.1126479E+00
         25   -1    0    0    0    0  0.00000000000E+00  0.00000000000E+00  0.99999998245E-14  0.12500000000E+03  0.12500000000E+03 0.  0.
    3000001    1    3    3    0    0 -0.18214831918E+01 -0.53777719508E+01 -0.51380791885E+02  0.51703230140E+02  0.10000000000E+01 0.  1.
    1000022    2    1    0    0    0 -0.50294014957E+01 -0.97565248249E+01 -0.60710503144E+02  0.62499999295E+02  0.10000003190E+02 0.  0.
    3000022    2    3    3    0    0 -0.32079183039E+01 -0.43787528741E+01 -0.93297112584E+01  0.10796769154E+02  0.24999086410E+00 0.  0.
    1000022    2    1    0    0    0  0.50294014957E+01  0.97565248249E+01  0.60710503144E+02  0.62500000705E+02  0.10000012007E+02 0.  0.
    3000022    2    5    5    0    0  0.68516664942E+01  0.82144284466E+01  0.56876436385E+02  0.57874119289E+02  0.24999839602E+00 0.  0.
        -13    1    4    4    0    0 -0.88985322535E+00 -0.12145070185E+01 -0.26693725810E+01  0.30665030632E+01  0.10500000000E+00 0.  1.
         13    1    4    4    0    0 -0.23180650786E+01 -0.31642458555E+01 -0.66603386774E+01  0.77302660912E+01  0.10500000000E+00 0. -1.
    3000001    1    5    5    0    0 -0.18222649985E+01  0.15420963783E+01  0.38340667588E+01  0.46258814161E+01  0.10000000000E+01 0. -1.
        -13    1    6    6    0    0  0.37432751506E+01  0.45137409519E+01  0.30828149843E+02  0.31381074137E+02  0.10500000000E+00 0. -1.
         13    1    6    6    0    0  0.31083913436E+01  0.37006874946E+01  0.26048286542E+02  0.26493045152E+02  0.10500000000E+00 0.  1.
</event>
<event>
11    0  0.3439373E-009  0.9118800E+02  0.7816531E-02  0.1126479E+00
         25   -1    0    0    0    0  0.00000000000E+00  0.00000000000E+00  0.99999998245E-14  0.12500000000E+03  0.12500000000E+03 0.  0.
    3000001    1    3    3    0    0  0.10842254142E+02 -0.13147304285E+02  0.20930866352E+01  0.17198462039E+02  0.10000000000E+01 0. -1.
    1000022    2    1    0    0    0  0.34986680940E+02 -0.45448649887E+02  0.22728895413E+02  0.62500000475E+02  0.99999876452E+01 0.  0.
    3000022    2    3    3    0    0  0.24144426798E+02 -0.32301345603E+02  0.20635808778E+02  0.45301538436E+02  0.25001527327E+00 0.  0.
    1000022    2    1    0    0    0 -0.34986680940E+02  0.45448649887E+02 -0.22728895413E+02  0.62499999525E+02  0.99999817068E+01 0.  0.
    3000022    2    5    5    0    0 -0.16313237100E+02  0.16515542161E+02 -0.13416611682E+02  0.26813295336E+02  0.25000042986E+00 0.  0.
        -13    1    4    4    0    0  0.12088456307E+02 -0.16277381428E+02  0.10403476091E+02  0.22788752968E+02  0.10500000000E+00 0.  1.
         13    1    4    4    0    0  0.12055970491E+02 -0.16023964174E+02  0.10232332688E+02  0.22512785469E+02  0.10500000000E+00 0. -1.
    3000001    1    5    5    0    0 -0.18673443840E+02  0.28933107727E+02 -0.93122837311E+01  0.35686704189E+02  0.10000000000E+01 0. -1.
        -13    1    6    6    0    0 -0.59186668295E+01  0.59783346047E+01 -0.49288849485E+01  0.97506940020E+01  0.10500000000E+00 0.  1.
         13    1    6    6    0    0 -0.10394570270E+02  0.10537207556E+02 -0.84877267339E+01  0.17062601334E+02  0.10500000000E+00 0. -1.
</event>
<event>
11    0  0.3439373E-009  0.9118800E+02  0.7816531E-02  0.1126479E+00
         25   -1    0    0    0    0  0.00000000000E+00  0.00000000000E+00  0.99999998245E-14  0.12500000000E+03  0.12500000000E+03 0.  0.
    3000001    1    3    3    0    0  0.10560035429E+02 -0.26700421604E+02  0.14184471652E+02  0.32041006510E+02  0.10000000000E+01 0.  1.
    1000022    2    1    0    0    0  0.11284757454E+02 -0.52645593594E+02  0.30122180288E+02  0.62499999289E+02  0.99999945075E+01 0.  0.
    3000022    2    3    3    0    0  0.72472202498E+00 -0.25945171990E+02  0.15937708636E+02  0.30458992779E+02  0.25002593667E+00 0.  0.
    1000022    2    1    0    0    0 -0.11284757454E+02  0.52645593594E+02 -0.30122180288E+02  0.62500000711E+02  0.10000003397E+02 0.  0.
    3000022    2    5    5    0    0 -0.21152707758E+01  0.31047542699E+02 -0.19492943258E+02  0.36721405554E+02  0.25002190049E+00 0.  0.
        -13    1    4    4    0    0  0.28848490266E+00 -0.11847732803E+02  0.73380097595E+01  0.13939490964E+02  0.10500000000E+00 0. -1.
         13    1    4    4    0    0  0.43623712232E+00 -0.14097439187E+02  0.85996988762E+01  0.16519501815E+02  0.10500000000E+00 0.  1.
    3000001    1    5    5    0    0 -0.91694866782E+01  0.21598050895E+02 -0.10629237030E+02  0.25778595157E+02  0.10000000000E+01 0. -1.
        -13    1    6    6    0    0 -0.85398763063E+00  0.13331870869E+02 -0.83246650566E+01  0.15741002162E+02  0.10500000000E+00 0. -1.
         13    1    6    6    0    0 -0.12612831452E+01  0.17715671829E+02 -0.11168278201E+02  0.20980403392E+02  0.10500000000E+00 0.  1.
</event>
<event>
11    0  0.3439373E-009  0.9118800E+02  0.7816531E-02  0.1126479E+00
         25   -1    0    0    0    0  0.00000000000E+00  0.00000000000E+00  0.99999998245E-14  0.12500000000E+03  0.12500000000E+03 0.  0.
    3000001    1    3    3    0    0  0.43579427451E+02 -0.40825558382E+02  0.11567571009E+02  0.60833390611E+02  0.10000000000E+01 0. -1.
    1000022    2    1    0    0    0  0.44440293928E+02 -0.41523756833E+02  0.10348341501E+02  0.62500001871E+02  0.99999978014E+01 0.  0.
    3000022    2    3    3    0    0  0.86086647740E+00 -0.69819845126E+00 -0.12192295080E+01  0.16666112599E+01  0.25000065823E+00 0.  0.
    1000022    2    1    0    0    0 -0.44440293928E+02  0.41523756833E+02 -0.10348341501E+02  0.62499998129E+02  0.99999744144E+01 0.  0.
    3000022    2    5    5    0    0 -0.38190481137E+02  0.39403433943E+02 -0.10254157138E+02  0.55824310914E+02  0.24998898374E+00 0.  0.
        -13    1    4    4    0    0  0.33073538779E+00 -0.21923414714E+00 -0.37860188593E+00  0.55840298713E+00  0.10500000000E+00 0. -1.
         13    1    4    4    0    0  0.53013108961E+00 -0.47896430412E+00 -0.84062762208E+00  0.11082082728E+01  0.10500000000E+00 0.  1.
    3000001    1    5    5    0    0 -0.62498127920E+01  0.21203228902E+01 -0.94184362905E-01  0.66756872147E+01  0.10000000000E+01 0.  1.
        -13    1    6    6    0    0 -0.14592170552E+02  0.15014086558E+02 -0.39671046268E+01  0.21309696871E+02  0.10500000000E+00 0.  1.
         13    1    6    6    0    0 -0.23598310584E+02  0.24389347385E+02 -0.62870525116E+01  0.34514614043E+02  0.10500000000E+00 0. -1.
</event>
<event>
11    0  0.3439373E-009  0.9118800E+02  0.7816531E-02  0.1126479E+00
         25   -1    0    0    0    0  0.00000000000E+00  0.00000000000E+00  0.99999998245E-14  0.12500000000E+03  0.12500000000E+03 0.  0.
    3000001    1    3    3    0    0 -0.22537560277E+02 -0.28144581747E+02  0.54070751325E+01  0.36473217111E+02  0.10000000000E+01 0. -1.
    1000022    2    1    0    0    0 -0.38852464523E+02 -0.47915708368E+02  0.90626936188E+00  0.62499997484E+02  0.99999626750E+01 0.  0.
    3000022    2    3    3    0    0 -0.16314904245E+02 -0.19771126621E+02 -0.45008057706E+01  0.26026780373E+02  0.24999120201E+00 0.  0.
    1000022    2    1    0    0    0  0.38852464523E+02  0.47915708368E+02 -0.90626936188E+00  0.62500002516E+02  0.99999941236E+01 0.  0.
    3000022    2    5    5    0    0  0.36387188169E+02  0.43637413391E+02 -0.33168770254E+01  0.56914984636E+02  0.24998530418E+00 0.  0.
        -13    1    4    4    0    0 -0.11601940402E+02 -0.14088191993E+02 -0.32432337521E+01  0.18536767919E+02  0.10500000000E+00 0.  1.
         13    1    4    4    0    0 -0.47129638436E+01 -0.56829346280E+01 -0.12575720185E+01  0.74900124538E+01  0.10500000000E+00 0. -1.
    3000001    1    5    5    0    0  0.24652763536E+01  0.42782949767E+01  0.24106076635E+01  0.55850178796E+01  0.10000000000E+01 0. -1.
        -13    1    6    6    0    0  0.10621421894E+02  0.12741277427E+02 -0.10118937807E+01  0.16618956271E+02  0.10500000000E+00 0.  1.
         13    1    6    6    0    0  0.25765766275E+02  0.30896135964E+02 -0.23049832447E+01  0.40296028365E+02  0.10500000000E+00 0. -1.
</event>
<event>
11    0  0.3439373E-009  0.9118800E+02  0.7816531E-02  0.1126479E+00
         25   -1    0    0    0    0  0.00000000000E+00  0.00000000000E+00  0.99999998245E-14  0.12500000000E+03  0.12500000000E+03 0.  0.
    3000001    1    3    3    0    0 -0.57638434629E+01 -0.50565145118E+01  0.54952432441E+01  0.94861967503E+01  0.10000000000E+01 0. -1.
    1000022    2    1    0    0    0 -0.19394166962E+02 -0.31517501823E+02  0.49363584055E+02  0.62500000551E+02  0.10000000239E+02 0.  0.
    3000022    2    3    3    0    0 -0.13630323499E+02 -0.26460987311E+02  0.43868340811E+02  0.53013803800E+02  0.24999945295E+00 0.  0.
    1000022    2    1    0    0    0  0.19394166962E+02  0.31517501823E+02 -0.49363584055E+02  0.62499999449E+02  0.99999933578E+01 0.  0.
    3000022    2    5    5    0    0  0.40387390252E+01  0.10194338630E+01 -0.54957093547E+01  0.69004333801E+01  0.25000241488E+00 0.  0.
        -13    1    4    4    0    0 -0.63449999058E+01 -0.12360847801E+02  0.20362932769E+02  0.24651767444E+02  0.10500000000E+00 0. -1.
         13    1    4    4    0    0 -0.72853235932E+01 -0.14100139509E+02  0.23505408042E+02  0.28362036356E+02  0.10500000000E+00 0.  1.
    3000001    1    5    5    0    0  0.15355427937E+02  0.30498067960E+02 -0.43867874700E+02  0.55599566069E+02  0.10000000000E+01 0.  1.
        -13    1    6    6    0    0  0.20804199467E+01  0.53366087778E+00 -0.27222428738E+01  0.34690881152E+01  0.10500000000E+00 0.  1.
         13    1    6    6    0    0  0.19583190785E+01  0.48577298521E+00 -0.27734664809E+01  0.34313452649E+01  0.10500000000E+00 0. -1.
</event>
<event>
11    0  0.3439373E-009  0.9118800E+02  0.7816531E-02  0.1126479E+00
         25   -1    0    0    0    0  0.00000000000E+00  0.00000000000E+00  0.99999998245E-14  0.12500000000E+03  0.12500000000E+03 0.  0.
    3000001    1    3    3    0    0  0.35454848841E+01  0.43358859029E+01  0.96880341295E+01  0.11235140182E+02  0.10000000000E+01 0. -1.
    1000022    2    1    0    0    0  0.31422626750E+02  0.34560838652E+02  0.40304051760E+02  0.62499999914E+02  0.10000018041E+02 0.  0.
    3000022    2    3    3    0    0  0.27877141866E+02  0.30224952749E+02  0.30616017631E+02  0.51264859732E+02  0.25000094166E+00 0.  0.
    1000022    2    1    0    0    0 -0.31422626750E+02 -0.34560838652E+02 -0.40304051760E+02  0.62500000086E+02  0.10000019112E+02 0.  0.
    3000022    2    5    5    0    0 -0.13857550309E+02 -0.11543844577E+02 -0.10208026253E+02  0.20725789405E+02  0.24999662663E+00 0.  0.
        -13    1    4    4    0    0  0.14046286260E+02  0.15316754931E+02  0.15433220817E+02  0.25886221607E+02  0.10500000000E+00 0.  1.
         13    1    4    4    0    0  0.13830855606E+02  0.14908197818E+02  0.15182796814E+02  0.25378638125E+02  0.10500000000E+00 0. -1.
    3000001    1    5    5    0    0 -0.17565076441E+02 -0.23016994075E+02 -0.30096025507E+02  0.41774210680E+02  0.10000000000E+01 0.  1.
        -13    1    6    6    0    0 -0.44639818483E+01 -0.37216740097E+01 -0.33485997577E+01  0.67083631918E+01  0.10500000000E+00 0. -1.
         13    1    6    6    0    0 -0.93935684608E+01 -0.78221705674E+01 -0.68594264949E+01  0.14017426214E+02  0.10500000000E+00 0.  1.
</event>
<event>
11    0  0.3439373E-009  0.9118800E+02  0.7816531E-02  0.1126479E+00
         25   -1    0    0    0    0  0.00000000000E+00  0.00000000000E+00  0.99999998245E-14  0.12500000000E+03  0.12500000000E+03 0.  0.
    3000001    1    3    3    0    0  0.60592555657E+01  0.56432399409E+02 -0.14241823809E+02  0.58524865028E+02  0.10000000000E+01 0. -1.
    1000022    2    1    0    0    0  0.39614533651E+01  0.59670261184E+02 -0.15166304343E+02  0.62499999470E+02  0.99999981884E+01 0.  0.
    3000022    2    3    3    0    0 -0.20978022006E+01  0.32378617749E+01 -0.92448053496E+00  0.39751344425E+01  0.25001326084E+00 0.  0.
    1000022    2    1    0    0    0 -0.39614533651E+01 -0.59670261184E+02  0.15166304343E+02  0.62500000530E+02  0.10000004813E+02 0.  0.
    3000022    2    5    5    0    0 -0.16188926099E+01 -0.56347333898E+02  0.14887636715E+02  0.58303919943E+02  0.25000624246E+00 0.  0.
        -13    1    4    4    0    0 -0.10804139492E+01  0.15478316635E+01 -0.47146729354E+00  0.19484310532E+01  0.10500000000E+00 0.  1.
         13    1    4    4    0    0 -0.10173882514E+01  0.16900301114E+01 -0.45301324142E+00  0.20267033893E+01  0.10500000000E+00 0. -1.
    3000001    1    5    5    0    0 -0.23425607552E+01 -0.33229272861E+01  0.27866762867E+00  0.41960805864E+01  0.10000000000E+01 0.  1.
        -13    1    6    6    0    0 -0.12412166579E+01 -0.42585799389E+02  0.11237160748E+02  0.44061045551E+02  0.10500000000E+00 0. -1.
         13    1    6    6    0    0 -0.37767595200E+00 -0.13761534509E+02  0.36504759671E+01  0.14242874392E+02  0.10500000000E+00 0.  1.
</event>
<event>
11    0  0.3439373E-009  0.9118800E+02  0.7816531E-02  0.1126479E+00
         25   -1    0    0    0    0  0.00000000000E+00  0.00000000000E+00  0.99999998245E-14  0.12500000000E+03  0.12500000000E+03 0.  0.
    3000001    1    3    3    0    0 -0.14908780073E+02 -0.29795555790E+01 -0.67216151020E+00  0.15251271285E+02  0.10000000000E+01 0.  1.
    1000022    2    1    0    0    0 -0.54710294300E+02 -0.27668977433E+02 -0.68892128203E+01  0.62499999333E+02  0.10000002441E+02 0.  0.
    3000022    2    3    3    0    0 -0.39801514227E+02 -0.24689421854E+02 -0.62170513101E+01  0.47248728049E+02  0.24997790350E+00 0.  0.
    1000022    2    1    0    0    0  0.54710294300E+02  0.27668977433E+02  0.68892128203E+01  0.62500000667E+02  0.10000010772E+02 0.  0.
    3000022    2    5    5    0    0  0.11379061409E+02  0.52842639563E+01 -0.25708870786E+01  0.12809311082E+02  0.25001182794E+00 0.  0.
        -13    1    4    4    0    0 -0.93731760862E+01 -0.57990431238E+01 -0.14703268799E+01  0.11120171637E+02  0.10500000000E+00 0.  1.
         13    1    4    4    0    0 -0.30428338141E+02 -0.18890378731E+02 -0.47467244302E+01  0.36128556412E+02  0.10500000000E+00 0. -1.
    3000001    1    5    5    0    0  0.43331232891E+02  0.22384713477E+02  0.94600998989E+01  0.49690689585E+02  0.10000000000E+01 0.  1.
        -13    1    6    6    0    0  0.56953232226E+01  0.25721908334E+01 -0.12970015806E+01  0.63832680026E+01  0.10500000000E+00 0. -1.
         13    1    6    6    0    0  0.56837381860E+01  0.27120731229E+01 -0.12738854980E+01  0.64260430790E+01  0.10500000000E+00 0.  1.
</event>
<event>
11    0  0.3439373E-009  0.9118800E+02  0.7816531E-02  0.1126479E+00
         25   -1    0    0    0    0  0.00000000000E+00  0.00000000000E+00  0.99999998245E-14  0.12500000000E+03  0.12500000000E+03 0.  0.
    3000001    1    3    3    0    0 -0.33539403190E+02  0.31128012305E+02 -0.38097406483E+02  0.59550458412E+02  0.10000000000E+01 0.  1.
    1000022    2    1    0    0    0 -0.33178111869E+02  0.33508850293E+02 -0.39782158883E+02  0.62500002952E+02  0.10000002420E+02 0.  0.
    3000022    2    3    3    0    0  0.36129132104E+00  0.23808379887E+01 -0.16847524004E+01  0.29495445397E+01  0.25000278845E+00 0.  0.
    1000022    2    1    0    0    0  0.33178111869E+02 -0.33508850293E+02  0.39782158883E+02  0.62499997048E+02  0.99999655222E+01 0.  0.
    3000022    2    5    5    0    0  0.29204785624E+02 -0.27920172846E+02  0.29202314209E+02  0.49852714716E+02  0.24990856778E+00 0.  0.
        -13    1    4    4    0    0  0.21055103653E+00  0.10726950999E+01 -0.70730859995E+00  0.13062606830E+01  0.10500000000E+00 0. -1.
         13    1    4    4    0    0  0.15074028450E+00  0.13081428887E+01 -0.97744380040E+00  0.16432838567E+01  0.10500000000E+00 0.  1.
    3000001    1    5    5    0    0  0.39733262442E+01 -0.55886774474E+01  0.10579844674E+02  0.12647282332E+02  0.10000000000E+01 0. -1.
        -13    1    6    6    0    0  0.21988757058E+02 -0.20993820873E+02  0.21990513336E+02  0.37521189395E+02  0.10500000000E+00 0. -1.
         13    1    6    6    0    0  0.72160285666E+01 -0.69263519726E+01  0.72118008731E+01  0.12331525322E+02  0.10500000000E+00 0.  1.
</event>
<event>
11    0  0.3439373E-009  0.9118800E+02  0.7816531E-02  0.1126479E+00
         25   -1    0    0    0    0  0.00000000000E+00  0.00000000000E+00  0.99999998245E-14  0.12500000000E+03  0.12500000000E+03 0.  0.
    3000001    1    3    3    0    0  0.35020030859E+02 -0.29172830772E+02  0.26871582877E+01  0.45669217601E+02  0.10000000000E+01 0.  1.
    1000022    2    1    0    0    0  0.43304245429E+02 -0.43729811262E+02  0.43238725081E+01  0.62500000389E+02  0.10000005497E+02 0.  0.
    3000022    2    3    3    0    0  0.82842145703E+01 -0.14556980489E+02  0.16367142204E+01  0.16830782788E+02  0.25004757114E+00 0.  0.
    1000022    2    1    0    0    0 -0.43304245429E+02  0.43729811262E+02 -0.43238725081E+01  0.62499999611E+02  0.10000000640E+02 0.  0.
    3000022    2    5    5    0    0 -0.24887542074E+01  0.40366270143E+00  0.10143244253E+01  0.27291386570E+01  0.25000537653E+00 0.  0.
        -13    1    4    4    0    0  0.45201965761E+01 -0.79303363147E+01  0.82501740578E+00  0.91659200231E+01  0.10500000000E+00 0. -1.
         13    1    4    4    0    0  0.37640179942E+01 -0.66266441748E+01  0.81169681458E+00  0.76648627645E+01  0.10500000000E+00 0.  1.
    3000001    1    5    5    0    0 -0.40815491222E+02  0.43326148560E+02 -0.53381969333E+01  0.59770860954E+02  0.10000000000E+01 0.  1.
        -13    1    6    6    0    0 -0.65770382859E+00  0.13912091906E+00  0.28751357667E+00  0.73865960566E+00  0.10500000000E+00 0. -1.
         13    1    6    6    0    0 -0.18310503788E+01  0.26454178237E+00  0.72681084859E+00  0.19904790514E+01  0.10500000000E+00 0.  1.
</event>
<event>
11    0  0.3439373E-009  0.9118800E+02  0.7816531E-02  0.1126479E+00
         25   -1    0    0    0    0  0.00000000000E+00  0.00000000000E+00  0.99999998245E-14  0.12500000000E+03  0.12500000000E+03 0.  0.
    3000001    1    3    3    0    0 -0.49565882417E+02  0.29457850713E+02  0.17465218850E+02  0.60254257426E+02  0.10000000000E+01 0.  1.
    1000022    2    1    0    0    0 -0.51681423392E+02  0.29206769143E+02  0.16800155591E+02  0.62500000159E+02  0.99999952161E+01 0.  0.
    3000022    2    3    3    0    0 -0.21155409752E+01 -0.25108157042E+00 -0.66506325900E+00  0.22457427330E+01  0.24999142293E+00 0.  0.
    1000022    2    1    0    0    0  0.51681423392E+02 -0.29206769143E+02 -0.16800155591E+02  0.62499999841E+02  0.99999932306E+01 0.  0.
    3000022    2    5    5    0    0  0.34936435283E+02 -0.17864023919E+02 -0.15560958988E+02  0.42212365572E+02  0.25000345697E+00 0.  0.
        -13    1    4    4    0    0 -0.10201734197E+01 -0.13056471624E+00 -0.25104821059E+00  0.10638849353E+01  0.10500000000E+00 0. -1.
         13    1    4    4    0    0 -0.10953675554E+01 -0.12051685418E+00 -0.41401504841E+00  0.11818577977E+01  0.10500000000E+00 0.  1.
    3000001    1    5    5    0    0  0.16744988110E+02 -0.11342745224E+02 -0.12391966034E+01  0.20287634269E+02  0.10000000000E+01 0.  1.
        -13    1    6    6    0    0  0.91708984324E+01 -0.46527918889E+01 -0.40764420821E+01  0.11062651376E+02  0.10500000000E+00 0. -1.
         13    1    6    6    0    0  0.25765536850E+02 -0.13211232030E+02 -0.11484516906E+02  0.31149714196E+02  0.10500000000E+00 0.  1.
</event>
<event>
11    0  0.3439373E-009  0.9118800E+02  0.7816531E-02  0.1126479E+00
         25   -1    0    0    0    0  0.00000000000E+00  0.00000000000E+00  0.99999998245E-14  0.12500000000E+03  0.12500000000E+03 0.  0.
    3000001    1    3    3    0    0 -0.38660587565E+02 -0.17597160091E+02  0.23566973215E+02  0.48587069274E+02  0.10000000000E+01 0. -1.
    1000022    2    1    0    0    0 -0.51786965808E+02 -0.21778446447E+02  0.25496266194E+02  0.62499999733E+02  0.99999909787E+01 0.  0.
    3000022    2    3    3    0    0 -0.13126378243E+02 -0.41812863557E+01  0.19292929785E+01  0.13912930459E+02  0.25000237065E+00 0.  0.
    1000022    2    1    0    0    0  0.51786965808E+02  0.21778446447E+02 -0.25496266194E+02  0.62500000267E+02  0.99999943165E+01 0.  0.
    3000022    2    5    5    0    0  0.14375086713E+02  0.48929946084E+01 -0.11750245049E+02  0.19201960144E+02  0.25000082367E+00 0.  0.
        -13    1    4    4    0    0 -0.92217732122E+01 -0.29408805562E+01  0.14008549396E+01  0.97807616874E+01  0.10500000000E+00 0.  1.
         13    1    4    4    0    0 -0.39046050306E+01 -0.12404057995E+01  0.52843803892E+00  0.41321687712E+01  0.10500000000E+00 0. -1.
    3000001    1    5    5    0    0  0.37411879095E+02  0.16885451838E+02 -0.13746021145E+02  0.43298040123E+02  0.10000000000E+01 0. -1.
        -13    1    6    6    0    0  0.89523493835E+01  0.31040575252E+01 -0.72970017604E+01  0.11959807369E+02  0.10500000000E+00 0. -1.
         13    1    6    6    0    0  0.54227373296E+01  0.17889370832E+01 -0.44532432884E+01  0.72421527752E+01  0.10500000000E+00 0.  1.
</event>
<event>
11    0  0.3439373E-009  0.9118800E+02  0.7816531E-02  0.1126479E+00
         25   -1    0    0    0    0  0.00000000000E+00  0.00000000000E+00  0.99999998245E-14  0.12500000000E+03  0.12500000000E+03 0.  0.
    3000001    1    3    3    0    0 -0.33270440891E+02  0.20562831103E+01  0.33637251172E+02  0.47366815427E+02  0.10000000000E+01 0.  1.
    1000022    2    1    0    0    0 -0.47056564912E+02  0.31763617831E+01  0.39772339602E+02  0.62500010783E+02  0.10000138750E+02 0.  0.
    3000022    2    3    3    0    0 -0.13786124021E+02  0.11200786729E+01  0.61350884307E+01  0.15133195357E+02  0.24999978021E+00 0.  0.
    1000022    2    1    0    0    0  0.47056564912E+02 -0.31763617831E+01 -0.39772339602E+02  0.62499989217E+02  0.10000003957E+02 0.  0.
    3000022    2    5    5    0    0  0.44152479137E+02 -0.34168716742E+01 -0.33557175483E+02  0.55563143808E+02  0.24999485579E+00 0.  0.
        -13    1    4    4    0    0 -0.41216503900E+01  0.29252348195E+00  0.18516349819E+01  0.45291444038E+01  0.10500000000E+00 0.  1.
         13    1    4    4    0    0 -0.96644736313E+01  0.82755519091E+00  0.42834534488E+01  0.10604050953E+02  0.10500000000E+00 0. -1.
    3000001    1    5    5    0    0  0.29040857748E+01  0.24050989111E+00 -0.62151641189E+01  0.69368454084E+01  0.10000000000E+01 0. -1.
        -13    1    6    6    0    0  0.15491389096E+02 -0.11666976609E+01 -0.11713596849E+02  0.19456713384E+02  0.10500000000E+00 0.  1.
         13    1    6    6    0    0  0.28661090041E+02 -0.22501740133E+01 -0.21843578634E+02  0.36106430424E+02  0.10500000000E+00 0. -1.
</event>
<event>
11    0  0.3439373E-009  0.9118800E+02  0.7816531E-02  0.1126479E+00
         25   -1    0    0    0    0  0.00000000000E+00  0.00000000000E+00  0.99999998245E-14  0.12500000000E+03  0.12500000000E+03 0.  0.
    3000001    1    3    3    0    0  0.47355105667E+02  0.17516720395E+02  0.10137263503E+02  0.51508306489E+02  0.10000000000E+01 0.  1.
    1000022    2    1    0    0    0  0.56049291146E+02  0.24146595136E+02  0.90370222961E+01  0.62499991052E+02  0.10000000746E+02 0.  0.
    3000022    2    3    3    0    0  0.86941854795E+01  0.66298747410E+01 -0.11002412064E+01  0.10991684563E+02  0.24999716584E+00 0.  0.
    1000022    2    1    0    0    0 -0.56049291146E+02 -0.24146595136E+02 -0.90370222961E+01  0.62500008948E+02  0.10000112593E+02 0.  0.
    3000022    2    5    5    0    0 -0.54636870289E+02 -0.24787460172E+02 -0.87227298527E+01  0.60627999222E+02  0.24999373859E+00 0.  0.
        -13    1    4    4    0    0  0.40805115963E+01  0.31946764225E+01 -0.53563336439E+00  0.52109941885E+01  0.10500000000E+00 0. -1.
         13    1    4    4    0    0  0.46136738832E+01  0.34351983185E+01 -0.56460784205E+00  0.57806903743E+01  0.10500000000E+00 0.  1.
    3000001    1    5    5    0    0 -0.14124208573E+01  0.64086503631E+00 -0.31429244344E+00  0.18720097256E+01  0.10000000000E+01 0. -1.
        -13    1    6    6    0    0 -0.21994561870E+02 -0.10007614091E+02 -0.35712417452E+01  0.24426990896E+02  0.10500000000E+00 0. -1.
         13    1    6    6    0    0 -0.32642308419E+02 -0.14779846081E+02 -0.51514881075E+01  0.36201008326E+02  0.10500000000E+00 0.  1.
</event>
<event>
11    0  0.3439373E-009  0.9118800E+02  0.7816531E-02  0.1126479E+00
         25   -1    0    0    0    0  0.00000000000E+00  0.00000000000E+00  0.99999998245E-14  0.12500000000E+03  0.12500000000E+03 0.  0.
    3000001    1    3    3    0    0 -0.37757879503E+02  0.59980637666E+01  0.46506092341E+02  0.60211716953E+02  0.10000000000E+01 0. -1.
    1000022    2    1    0    0    0 -0.39352933818E+02  0.45801565025E+01  0.47292904451E+02  0.62499998736E+02  0.99999898447E+01 0.  0.
    3000022    2    3    3    0    0 -0.15950543145E+01 -0.14179072641E+01  0.78681210944E+00  0.22882817828E+01  0.25000189217E+00 0.  0.
    1000022    2    1    0    0    0  0.39352933818E+02 -0.45801565025E+01 -0.47292904451E+02  0.62500001264E+02  0.10000005650E+02 0.  0.
    3000022    2    5    5    0    0  0.19459051022E+02 -0.46594166182E+01 -0.17064428044E+02  0.26298707907E+02  0.25000645348E+00 0.  0.
        -13    1    4    4    0    0 -0.96770237360E+00 -0.79031705284E+00  0.49952656310E+00  0.13496668904E+01  0.10500000000E+00 0.  1.
         13    1    4    4    0    0 -0.62735194091E+00 -0.62759021128E+00  0.28728554634E+00  0.93861489238E+00  0.10500000000E+00 0. -1.
    3000001    1    5    5    0    0  0.19893882796E+02  0.79260115747E-01 -0.30228476407E+02  0.36201293357E+02  0.10000000000E+01 0. -1.
        -13    1    6    6    0    0  0.81136777909E+01 -0.18850894912E+01 -0.70621409489E+01  0.10921089207E+02  0.10500000000E+00 0. -1.
         13    1    6    6    0    0  0.11345373231E+02 -0.27743271270E+01 -0.10002287095E+02  0.15377618700E+02  0.10500000000E+00 0.  1.
</event>
<event>
11    0  0.3439373E-009  0.9118800E+02  0.7816531E-02  0.1126479E+00
         25   -1    0    0    0    0  0.00000000000E+00  0.00000000000E+00  0.99999998245E-14  0.12500000000E+03  0.12500000000E+03 0.  0.
    3000001    1    3    3    0    0 -0.80510270443E+00  0.65497594803E+01  0.11078278783E+02  0.12933514620E+02  0.10000000000E+01 0. -1.
    1000022    2    1    0    0    0  0.15030496822E+02  0.29664526380E+02  0.51964892764E+02  0.62499998791E+02  0.99999904483E+01 0.  0.
    3000022    2    3    3    0    0  0.15835599526E+02  0.23114766899E+02  0.40886613980E+02  0.49566484172E+02  0.24997845220E+00 0.  0.
    1000022    2    1    0    0    0 -0.15030496822E+02 -0.29664526380E+02 -0.51964892764E+02  0.62500001209E+02  0.10000005555E+02 0.  0.
    3000022    2    5    5    0    0 -0.52259011083E+01 -0.16923600713E+02 -0.34230792010E+02  0.38542546972E+02  0.25000396535E+00 0.  0.
        -13    1    4    4    0    0  0.10394156752E+02  0.15173831379E+02  0.26740784288E+02  0.32455573060E+02  0.10500000000E+00 0.  1.
         13    1    4    4    0    0  0.54414427738E+01  0.79409355208E+01  0.14145829692E+02  0.17110911112E+02  0.10500000000E+00 0. -1.
    3000001    1    5    5    0    0 -0.98045957133E+01 -0.12740925667E+02 -0.17734100753E+02  0.23957454236E+02  0.10000000000E+01 0. -1.
        -13    1    6    6    0    0 -0.22268585589E+01 -0.73806251105E+01 -0.14992728062E+02  0.16858987093E+02  0.10500000000E+00 0. -1.
         13    1    6    6    0    0 -0.29990425494E+01 -0.95429756025E+01 -0.19238063948E+02  0.21683559879E+02  0.10500000000E+00 0.  1.
</event>
<event>
11    0  0.3439373E-009  0.9118800E+02  0.7816531E-02  0.1126479E+00
         25   -1    0    0    0    0  0.00000000000E+00  0.00000000000E+00  0.99999998245E-14  0.12500000000E+03  0.12500000000E+03 0.  0.
    3000001    1    3    3    0    0 -0.34498736907E+01 -0.16052125074E+02 -0.49353591836E+01  0.17173529578E+02  0.10000000000E+01 0. -1.
    1000022    2    1    0    0    0 -0.26195911070E+02 -0.51292837074E+02 -0.22114904656E+02  0.62500003962E+02  0.10000029772E+02 0.  0.
    3000022    2    3    3    0    0 -0.22746037380E+02 -0.35240712000E+02 -0.17179545472E+02  0.45326474384E+02  0.24999755586E+00 0.  0.
    1000022    2    1    0    0    0  0.26195911070E+02  0.51292837074E+02  0.22114904656E+02  0.62499996038E+02  0.99999802457E+01 0.  0.
    3000022    2    5    5    0    0 -0.53395657492E+00  0.44000990516E+01  0.22385490993E+01  0.49718793143E+01  0.25000111660E+00 0.  0.
        -13    1    4    4    0    0 -0.16679976012E+02 -0.25783992079E+02 -0.12561495533E+02  0.33178879461E+02  0.10500000000E+00 0. -1.
         13    1    4    4    0    0 -0.60660613674E+01 -0.94567199209E+01 -0.46180499394E+01  0.12147594923E+02  0.10500000000E+00 0.  1.
    3000001    1    5    5    0    0  0.26729867645E+02  0.46892738022E+02  0.19876355556E+02  0.57528116724E+02  0.10000000000E+01 0.  1.
        -13    1    6    6    0    0 -0.38814895608E+00  0.33165750842E+01  0.17069999432E+01  0.37516934452E+01  0.10500000000E+00 0.  1.
         13    1    6    6    0    0 -0.14580761884E+00  0.10835239675E+01  0.53154915613E+00  0.12201858691E+01  0.10500000000E+00 0. -1.
</event>
<event>
11    0  0.3439373E-009  0.9118800E+02  0.7816531E-02  0.1126479E+00
         25   -1    0    0    0    0  0.00000000000E+00  0.00000000000E+00  0.99999998245E-14  0.12500000000E+03  0.12500000000E+03 0.  0.
    3000001    1    3    3    0    0 -0.72411013500E+01  0.59617214317E+01 -0.41870051905E+01  0.10320207539E+02  0.10000000000E+01 0.  1.
    1000022    2    1    0    0    0 -0.25987243232E+02  0.48182319545E+02 -0.28449559205E+02  0.62500000294E+02  0.99999945134E+01 0.  0.
    3000022    2    3    3    0    0 -0.18746141882E+02  0.42220598113E+02 -0.24262554015E+02  0.52179792755E+02  0.25000823580E+00 0.  0.
    1000022    2    1    0    0    0  0.25987243232E+02 -0.48182319545E+02  0.28449559205E+02  0.62499999706E+02  0.99999908378E+01 0.  0.
    3000022    2    5    5    0    0  0.16768461050E+02 -0.39395249234E+02  0.23100543683E+02  0.48650432326E+02  0.24999764071E+00 0.  0.
        -13    1    4    4    0    0 -0.81966167318E+01  0.18501155702E+02 -0.10700359980E+02  0.22890740854E+02  0.10500000000E+00 0. -1.
         13    1    4    4    0    0 -0.10549525150E+02  0.23719442411E+02 -0.13562194035E+02  0.29289051901E+02  0.10500000000E+00 0.  1.
    3000001    1    5    5    0    0  0.92187821819E+01 -0.87870703102E+01  0.53490155229E+01  0.13849567380E+02  0.10000000000E+01 0. -1.
        -13    1    6    6    0    0  0.12422478201E+02 -0.29107197912E+02  0.17063398550E+02  0.35954381236E+02  0.10500000000E+00 0.  1.
         13    1    6    6    0    0  0.43459828488E+01 -0.10288051322E+02  0.60371451322E+01  0.12696051090E+02  0.10500000000E+00 0. -1.
</event>
<event>
11    0  0.3439373E-009  0.9118800E+02  0.7816531E-02  0.1126479E+00
         25   -1    0    0    0    0  0.00000000000E+00  0.00000000000E+00  0.99999998245E-14  0.12500000000E+03  0.12500000000E+03 0.  0.
    3000001    1    3    3    0    0  0.13898566589E+01  0.26573056527E+02 -0.30006493505E+02  0.40117934733E+02  0.10000000000E+01 0.  1.
    1000022    2    1    0    0    0 -0.48922933365E+01  0.42260644659E+02 -0.44680569247E+02  0.62499999838E+02  0.10000004522E+02 0.  0.
    3000022    2    3    3    0    0 -0.62821499954E+01  0.15687588132E+02 -0.14674075742E+02  0.22382065105E+02  0.25001910169E+00 0.  0.
    1000022    2    1    0    0    0  0.48922933365E+01 -0.42260644659E+02  0.44680569247E+02  0.62500000162E+02  0.10000006547E+02 0.  0.
    3000022    2    5    5    0    0 -0.81320616836E+00 -0.28267555773E+02  0.32365383894E+02  0.42980188395E+02  0.25001231863E+00 0.  0.
        -13    1    4    4    0    0 -0.21268990343E+01  0.53692323130E+01 -0.50825244221E+01  0.76938569414E+01  0.10500000000E+00 0.  1.
         13    1    4    4    0    0 -0.41552509611E+01  0.10318355819E+02 -0.95915513196E+01  0.14688208164E+02  0.10500000000E+00 0. -1.
    3000001    1    5    5    0    0  0.57054995049E+01 -0.13993088886E+02  0.12315185353E+02  0.19519811768E+02  0.10000000000E+01 0.  1.
        -13    1    6    6    0    0 -0.29921106885E+00 -0.98458612519E+01  0.11356054264E+02  0.15033346417E+02  0.10500000000E+00 0. -1.
         13    1    6    6    0    0 -0.51399509951E+00 -0.18421694521E+02  0.21009329630E+02  0.27946841978E+02  0.10500000000E+00 0.  1.
</event>
<event>
11    0  0.3439373E-009  0.9118800E+02  0.7816531E-02  0.1126479E+00
         25   -1    0    0    0    0  0.00000000000E+00  0.00000000000E+00  0.99999998245E-14  0.12500000000E+03  0.12500000000E+03 0.  0.
    3000001    1    3    3    0    0 -0.13338457348E+02  0.92302200557E+00  0.20481640034E+02  0.24479869128E+02  0.10000000000E+01 0.  1.
    1000022    2    1    0    0    0 -0.23093335518E+02 -0.26261085320E+00  0.57209077776E+02  0.62500002854E+02  0.10000033351E+02 0.  0.
    3000022    2    3    3    0    0 -0.97548781702E+01 -0.11856328588E+01  0.36727437742E+02  0.38020133726E+02  0.25002418724E+00 0.  0.
    1000022    2    1    0    0    0  0.23093335518E+02  0.26261085320E+00 -0.57209077776E+02  0.62499997146E+02  0.99999976698E+01 0.  0.
    3000022    2    5    5    0    0  0.72591452509E+01  0.15647737919E+01 -0.86755639450E+01  0.11422417186E+02  0.24999562568E+00 0.  0.
        -13    1    4    4    0    0 -0.48143848933E+01 -0.62086604141E+00  0.18366227808E+02  0.18997187304E+02  0.10500000000E+00 0.  1.
         13    1    4    4    0    0 -0.49404932769E+01 -0.56476681736E+00  0.18361209934E+02  0.19022946423E+02  0.10500000000E+00 0. -1.
    3000001    1    5    5    0    0  0.15834190267E+02 -0.13021629387E+01 -0.48533513831E+02  0.51077579960E+02  0.10000000000E+01 0.  1.
        -13    1    6    6    0    0  0.23651596850E+01  0.45694925502E+00 -0.28162507717E+01  0.37074352815E+01  0.10500000000E+00 0. -1.
         13    1    6    6    0    0  0.48939855659E+01  0.11078245369E+01 -0.58593131732E+01  0.77149819044E+01  0.10500000000E+00 0.  1.
</event>
<event>
11    0  0.3439373E-009  0.9118800E+02  0.7816531E-02  0.1126479E+00
         25   -1    0    0    0    0  0.00000000000E+00  0.00000000000E+00  0.99999998245E-14  0.12500000000E+03  0.12500000000E+03 0.  0.
    3000001    1    3    3    0    0 -0.29599512817E+01 -0.53025728487E+00 -0.20524721538E+01  0.37755961543E+01  0.10000000000E+01 0. -1.
    1000022    2    1    0    0    0 -0.23877442982E+02 -0.30372038691E+02 -0.48100488329E+02  0.62500000555E+02  0.10000003718E+02 0.  0.
    3000022    2    3    3    0    0 -0.20917491700E+02 -0.29841781406E+02 -0.46048016175E+02  0.58724404401E+02  0.25000420440E+00 0.  0.
    1000022    2    1    0    0    0  0.23877442982E+02  0.30372038691E+02  0.48100488329E+02  0.62499999445E+02  0.99999967745E+01 0.  0.
    3000022    2    5    5    0    0  0.46710565442E+01  0.21599414424E+01  0.31023556720E+01  0.60142520939E+01  0.25000251809E+00 0.  0.
        -13    1    4    4    0    0 -0.90236921357E+01 -0.12945156152E+02 -0.20021738694E+02  0.25492844739E+02  0.10500000000E+00 0.  1.
         13    1    4    4    0    0 -0.11893799565E+02 -0.16896625254E+02 -0.26026277481E+02  0.33231559662E+02  0.10500000000E+00 0. -1.
    3000001    1    5    5    0    0  0.19206386438E+02  0.28212097249E+02  0.44998132657E+02  0.56485747351E+02  0.10000000000E+01 0. -1.
        -13    1    6    6    0    0  0.18974734260E+01  0.81079921694E+00  0.12228658223E+01  0.24008803785E+01  0.10500000000E+00 0. -1.
         13    1    6    6    0    0  0.27735831183E+01  0.13491422254E+01  0.18794898497E+01  0.36133717154E+01  0.10500000000E+00 0.  1.
</event>
<event>
11    0  0.3439373E-009  0.9118800E+02  0.7816531E-02  0.1126479E+00
         25   -1    0    0    0    0  0.00000000000E+00  0.00000000000E+00  0.99999998245E-14  0.12500000000E+03  0.12500000000E+03 0.  0.
    3000001    1    3    3    0    0 -0.13051294517E+02 -0.25524274411E+02  0.20019380446E+02  0.34980000946E+02  0.10000000000E+01 0. -1.
    1000022    2    1    0    0    0 -0.29625030139E+02 -0.45262117143E+02  0.29663911732E+02  0.62500005163E+02  0.10000066358E+02 0.  0.
    3000022    2    3    3    0    0 -0.16573735623E+02 -0.19737842732E+02  0.96445312860E+01  0.27520004217E+02  0.25000034812E+00 0.  0.
    1000022    2    1    0    0    0  0.29625030139E+02  0.45262117143E+02 -0.29663911732E+02  0.62499994837E+02  0.10000001817E+02 0.  0.
    3000022    2    5    5    0    0  0.13164820085E+02  0.21377853582E+02 -0.19346697570E+02  0.31696724411E+02  0.25003973574E+00 0.  0.
        -13    1    4    4    0    0 -0.10268731453E+02 -0.12133969038E+02  0.59498190994E+01  0.16973256099E+02  0.10500000000E+00 0. -1.
         13    1    4    4    0    0 -0.63050041695E+01 -0.76038736938E+01  0.36947121866E+01  0.10546748118E+02  0.10500000000E+00 0.  1.
    3000001    1    5    5    0    0  0.16460210054E+02  0.23884263561E+02 -0.10317214162E+02  0.30803270426E+02  0.10000000000E+01 0. -1.
        -13    1    6    6    0    0  0.55381177662E+01  0.90998667318E+01 -0.81667064604E+01  0.13423279865E+02  0.10500000000E+00 0. -1.
         13    1    6    6    0    0  0.76267023189E+01  0.12277986851E+02 -0.11179991109E+02  0.18273444546E+02  0.10500000000E+00 0.  1.
</event>
<event>
11    0  0.3439373E-009  0.9118800E+02  0.7816531E-02  0.1126479E+00
         25   -1    0    0    0    0  0.00000000000E+00  0.00000000000E+00  0.99999998245E-14  0.12500000000E+03  0.12500000000E+03 0.  0.
    3000001    1    3    3    0    0  0.68845261865E+01 -0.13240838169E+02  0.39367428209E+02  0.42113072792E+02  0.10000000000E+01 0. -1.
    1000022    2    1    0    0    0  0.77789976539E+01 -0.25476512461E+02  0.55647862270E+02  0.62500000832E+02  0.10000001861E+02 0.  0.
    3000022    2    3    3    0    0  0.89447146745E+00 -0.12235674292E+02  0.16280434061E+02  0.20386928040E+02  0.24999424448E+00 0.  0.
    1000022    2    1    0    0    0 -0.77789976539E+01  0.25476512461E+02 -0.55647862270E+02  0.62499999168E+02  0.99999914550E+01 0.  0.
    3000022    2    5    5    0    0 -0.58716627047E+01  0.17741155309E+02 -0.47573047574E+02  0.51112448542E+02  0.25005179546E+00 0.  0.
        -13    1    4    4    0    0  0.63601125210E+00 -0.79255343624E+01  0.10560471702E+02  0.13219424829E+02  0.10500000000E+00 0.  1.
         13    1    4    4    0    0  0.25846021535E+00 -0.43101399295E+01  0.57199623589E+01  0.71675032112E+01  0.10500000000E+00 0. -1.
    3000001    1    5    5    0    0 -0.19073349492E+01  0.77353571516E+01 -0.80748146956E+01  0.11387550625E+02  0.10000000000E+01 0. -1.
        -13    1    6    6    0    0 -0.42862608250E+01  0.12914877295E+02 -0.34543248543E+02  0.37126986577E+02  0.10500000000E+00 0.  1.
         13    1    6    6    0    0 -0.15854018797E+01  0.48262780136E+01 -0.13029799031E+02  0.13985461965E+02  0.10500000000E+00 0. -1.
</event>
<event>
11    0  0.3439373E-009  0.9118800E+02  0.7816531E-02  0.1126479E+00
         25   -1    0    0    0    0  0.00000000000E+00  0.00000000000E+00  0.99999998245E-14  0.12500000000E+03  0.12500000000E+03 0.  0.
    3000001    1    3    3    0    0  0.10086450637E+02  0.28017824625E+02 -0.36892765629E+02  0.47421631551E+02  0.10000000000E+01 0. -1.
    1000022    2    1    0    0    0  0.14940446144E+02  0.40172771299E+02 -0.44375459386E+02  0.62500000269E+02  0.10000007657E+02 0.  0.
    3000022    2    3    3    0    0  0.48539955068E+01  0.12154946675E+02 -0.74826937566E+01  0.15078368719E+02  0.24999264841E+00 0.  0.
    1000022    2    1    0    0    0 -0.14940446144E+02 -0.40172771299E+02  0.44375459386E+02  0.62499999731E+02  0.10000004289E+02 0.  0.
    3000022    2    5    5    0    0 -0.70004454766E+01 -0.19605414051E+02  0.14560727815E+02  0.25405822109E+02  0.25001112005E+00 0.  0.
        -13    1    4    4    0    0  0.20385517455E+01  0.49568001732E+01 -0.30264420190E+01  0.61559676307E+01  0.10500000000E+00 0. -1.
         13    1    4    4    0    0  0.28154437613E+01  0.71981465014E+01 -0.44562517375E+01  0.89224010881E+01  0.10500000000E+00 0.  1.
    3000001    1    5    5    0    0 -0.79400006673E+01 -0.20567357249E+02  0.29814731571E+02  0.37094177622E+02  0.10000000000E+01 0. -1.
        -13    1    6    6    0    0 -0.23581972498E+01 -0.67683973997E+01  0.50053542376E+01  0.87428195494E+01  0.10500000000E+00 0.  1.
         13    1    6    6    0    0 -0.46422482268E+01 -0.12837016651E+02  0.95553735773E+01  0.16663002560E+02  0.10500000000E+00 0. -1.
</event>
<event>
11    0  0.3439373E-009  0.9118800E+02  0.7816531E-02  0.1126479E+00
         25   -1    0    0    0    0  0.00000000000E+00  0.00000000000E+00  0.99999998245E-14  0.12500000000E+03  0.12500000000E+03 0.  0.
    3000001    1    3    3    0    0  0.89424645644E+00  0.73043445815E+00 -0.26757749702E+00  0.15507446403E+01  0.10000000000E+01 0.  1.
    1000022    2    1    0    0    0  0.22237247879E+02  0.16136090637E+02 -0.55239307685E+02  0.62499998706E+02  0.10000005522E+02 0.  0.
    3000022    2    3    3    0    0  0.21343001422E+02  0.15405656179E+02 -0.54971730188E+02  0.60949254065E+02  0.24999851433E+00 0.  0.
    1000022    2    1    0    0    0 -0.22237247879E+02 -0.16136090637E+02  0.55239307685E+02  0.62500001294E+02  0.10000021702E+02 0.  0.
    3000022    2    5    5    0    0 -0.17631912171E+02 -0.13780616479E+02  0.34662646782E+02  0.41259559929E+02  0.24997246799E+00 0.  0.
        -13    1    4    4    0    0  0.85098017664E+01  0.60878016644E+01 -0.21954747996E+02  0.24320773831E+02  0.10500000000E+00 0. -1.
         13    1    4    4    0    0  0.12833199656E+02  0.93178545143E+01 -0.33016982192E+02  0.36628480234E+02  0.10500000000E+00 0.  1.
    3000001    1    5    5    0    0 -0.46053357075E+01 -0.23554741574E+01  0.20576660903E+02  0.21240441365E+02  0.10000000000E+01 0.  1.
        -13    1    6    6    0    0 -0.10074317912E+02 -0.78480880782E+01  0.19665554746E+02  0.23448442087E+02  0.10500000000E+00 0. -1.
         13    1    6    6    0    0 -0.75575942596E+01 -0.59325284012E+01  0.14997092037E+02  0.17811117842E+02  0.10500000000E+00 0.  1.
</event>
<event>
11    0  0.3439373E-009  0.9118800E+02  0.7816531E-02  0.1126479E+00
         25   -1    0    0    0    0  0.00000000000E+00  0.00000000000E+00  0.99999998245E-14  0.12500000000E+03  0.12500000000E+03 0.  0.
    3000001    1    3    3    0    0 -0.75463054540E+00 -0.28556482184E+01  0.10738410717E+01  0.32980795404E+01  0.10000000000E+01 0.  1.
    1000022    2    1    0    0    0 -0.46433282957E+02 -0.33722455865E+02  0.22649422935E+02  0.62499999573E+02  0.99999895796E+01 0.  0.
    3000022    2    3    3    0    0 -0.45678652412E+02 -0.30866807646E+02  0.21575581864E+02  0.59201920033E+02  0.25000472769E+00 0.  0.
    1000022    2    1    0    0    0  0.46433282957E+02  0.33722455865E+02 -0.22649422935E+02  0.62500000427E+02  0.99999949179E+01 0.  0.
    3000022    2    5    5    0    0  0.24813974059E+02  0.12472629232E+02 -0.86080579657E+01  0.29076811181E+02  0.24999595172E+00 0.  0.
        -13    1    4    4    0    0 -0.17893313071E+02 -0.12166278231E+02  0.84651299236E+01  0.23234853740E+02  0.10500000000E+00 0. -1.
         13    1    4    4    0    0 -0.27785339340E+02 -0.18700529415E+02  0.13110451940E+02  0.35967066293E+02  0.10500000000E+00 0.  1.
    3000001    1    5    5    0    0  0.21619308898E+02  0.21249826632E+02 -0.14041364970E+02  0.33423189246E+02  0.10000000000E+01 0. -1.
        -13    1    6    6    0    0  0.16816311362E+02  0.83996192771E+01 -0.58470991775E+01  0.19686074408E+02  0.10500000000E+00 0. -1.
         13    1    6    6    0    0  0.79976626972E+01  0.40730099552E+01 -0.27609587882E+01  0.93907367732E+01  0.10500000000E+00 0.  1.
</event>
<event>
11    0  0.3439373E-009  0.9118800E+02  0.7816531E-02  0.1126479E+00
         25   -1    0    0    0    0  0.00000000000E+00  0.00000000000E+00  0.99999998245E-14  0.12500000000E+03  0.12500000000E+03 0.  0.
    3000001    1    3    3    0    0 -0.41824461544E+02  0.41679936576E+02 -0.18585598765E+02  0.61910638649E+02  0.10000000000E+01 0. -1.
    1000022    2    1    0    0    0 -0.41572634289E+02  0.41440541032E+02 -0.18990724293E+02  0.62499999206E+02  0.99999964430E+01 0.  0.
    3000022    2    3    3    0    0  0.25182725494E+00 -0.23939554400E+00 -0.40512552850E+00  0.58936055787E+00  0.24998396051E+00 0.  0.
    1000022    2    1    0    0    0  0.41572634289E+02 -0.41440541032E+02  0.18990724293E+02  0.62500000794E+02  0.10000006362E+02 0.  0.
    3000022    2    5    5    0    0  0.36851538696E+02 -0.33123648746E+02  0.18433083145E+02  0.52868261358E+02  0.24998861132E+00 0.  0.
        -13    1    4    4    0    0  0.19308205476E+00 -0.17460071452E+00 -0.33065372055E+00  0.43373145181E+00  0.10500000000E+00 0.  1.
         13    1    4    4    0    0  0.58745200181E-01 -0.64794829482E-01 -0.74471807954E-01  0.15562910606E+00  0.10500000000E+00 0. -1.
    3000001    1    5    5    0    0  0.47210955929E+01 -0.83168922866E+01  0.55764114841E+00  0.96317394356E+01  0.10000000000E+01 0. -1.
        -13    1    6    6    0    0  0.10549170804E+02 -0.94730844273E+01  0.52306141028E+01  0.15112732450E+02  0.10500000000E+00 0. -1.
         13    1    6    6    0    0  0.26302367891E+02 -0.23650564319E+02  0.13202469042E+02  0.37755528907E+02  0.10500000000E+00 0.  1.
</event>
<event>
11    0  0.3439373E-009  0.9118800E+02  0.7816531E-02  0.1126479E+00
         25   -1    0    0    0    0  0.00000000000E+00  0.00000000000E+00  0.99999998245E-14  0.12500000000E+03  0.12500000000E+03 0.  0.
    3000001    1    3    3    0    0 -0.26887693883E+02  0.15462126318E+02 -0.49288101593E+02  0.58243818481E+02  0.10000000000E+01 0.  1.
    1000022    2    1    0    0    0 -0.26290350359E+02  0.17348520674E+02 -0.53048057377E+02  0.62499998767E+02  0.99999881415E+01 0.  0.
    3000022    2    3    3    0    0  0.59734352403E+00  0.18863943558E+01 -0.37599557841E+01  0.42561802860E+01  0.25000035347E+00 0.  0.
    1000022    2    1    0    0    0  0.26290350359E+02 -0.17348520674E+02  0.53048057377E+02  0.62500001233E+02  0.10000003555E+02 0.  0.
    3000022    2    5    5    0    0  0.24020039965E+02 -0.14555035313E+02  0.51042123188E+02  0.58259524642E+02  0.24999825598E+00 0.  0.
        -13    1    4    4    0    0  0.46641602600E+00  0.13554116854E+01 -0.27433974734E+01  0.30970856371E+01  0.10500000000E+00 0.  1.
         13    1    4    4    0    0  0.13092749803E+00  0.53098267043E+00 -0.10165583107E+01  0.11590946489E+01  0.10500000000E+00 0. -1.
    3000001    1    5    5    0    0  0.22703103940E+01 -0.27934853611E+01  0.20059341893E+01  0.42404765911E+01  0.10000000000E+01 0. -1.
        -13    1    6    6    0    0  0.17719833561E+02 -0.10766810606E+02  0.37723535212E+02  0.43046403403E+02  0.10500000000E+00 0.  1.
         13    1    6    6    0    0  0.63002064033E+01 -0.37882247073E+01  0.13318587976E+02  0.15213121239E+02  0.10500000000E+00 0. -1.
</event>
<event>
11    0  0.3439373E-009  0.9118800E+02  0.7816531E-02  0.1126479E+00
         25   -1    0    0    0    0  0.00000000000E+00  0.00000000000E+00  0.99999998245E-14  0.12500000000E+03  0.12500000000E+03 0.  0.
    3000001    1    3    3    0    0  0.41005023138E+02  0.34865443050E+02 -0.15668662145E+02  0.56067084952E+02  0.10000000000E+01 0. -1.
    1000022    2    1    0    0    0  0.42856251455E+02  0.40491530074E+02 -0.18166661378E+02  0.62500000353E+02  0.10000008101E+02 0.  0.
    3000022    2    3    3    0    0  0.18512283169E+01  0.56260870241E+01 -0.24979992336E+01  0.64329154011E+01  0.24999780517E+00 0.  0.
    1000022    2    1    0    0    0 -0.42856251455E+02 -0.40491530074E+02  0.18166661378E+02  0.62499999647E+02  0.10000003686E+02 0.  0.
    3000022    2    5    5    0    0 -0.33990528536E+02 -0.34888005486E+02  0.18101892044E+02  0.51964121623E+02  0.24996692429E+00 0.  0.
        -13    1    4    4    0    0  0.59471869738E+00  0.18154451324E+01 -0.86214097025E+00  0.20985336334E+01  0.10500000000E+00 0. -1.
         13    1    4    4    0    0  0.12565096195E+01  0.38106418917E+01 -0.16358582633E+01  0.43343817677E+01  0.10500000000E+00 0. -1.
    3000001    1    5    5    0    0 -0.88657229188E+01 -0.56035245875E+01  0.64769334664E-01  0.10535878024E+02  0.10000000000E+01 0.  1.
        -13    1    6    6    0    0 -0.25189987989E+02 -0.25810208636E+02  0.13401258174E+02  0.38474759393E+02  0.10500000000E+00 0.  1.
         13    1    6    6    0    0 -0.88005405472E+01 -0.90777968504E+01  0.47006338700E+01  0.13489362230E+02  0.10500000000E+00 0. -1.
</event>
<event>
11    0  0.3439373E-009  0.9118800E+02  0.7816531E-02  0.1126479E+00
         25   -1    0    0    0    0  0.00000000000E+00  0.00000000000E+00  0.99999998245E-14  0.12500000000E+03  0.12500000000E+03 0.  0.
    3000001    1    3    3    0    0 -0.93789625933E+01  0.25885586873E+02 -0.56471379826E+01  0.28123277094E+02  0.10000000000E+01 0.  1.
    1000022    2    1    0    0    0 -0.11443841136E+02  0.60141899895E+02 -0.76315374691E+01  0.62499999530E+02  0.99999977144E+01 0.  0.
    3000022    2    3    3    0    0 -0.20648785425E+01  0.34256313021E+02 -0.19843994865E+01  0.34376722437E+02  0.24999790317E+00 0.  0.
    1000022    2    1    0    0    0  0.11443841136E+02 -0.60141899895E+02  0.76315374691E+01  0.62500000470E+02  0.10000003585E+02 0.  0.
    3000022    2    5    5    0    0  0.62296791392E+01 -0.37612290040E+02 -0.67966667157E-02  0.38125527062E+02  0.25000667643E+00 0.  0.
        -13    1    4    4    0    0 -0.98930709452E+00  0.15613121846E+02 -0.95120662546E+00  0.15673676064E+02  0.10500000000E+00 0.  1.
         13    1    4    4    0    0 -0.10755714480E+01  0.18643191175E+02 -0.10331928610E+01  0.18703046373E+02  0.10500000000E+00 0. -1.
    3000001    1    5    5    0    0  0.52141619966E+01 -0.22529609854E+02  0.76383341358E+01  0.24374473407E+02  0.10000000000E+01 0. -1.
        -13    1    6    6    0    0  0.44676630152E+01 -0.27205770796E+02  0.23946864048E-02  0.27570364672E+02  0.10500000000E+00 0.  1.
         13    1    6    6    0    0  0.17620161240E+01 -0.10406519244E+02 -0.91913531205E-02  0.10555162390E+02  0.10500000000E+00 0. -1.
</event>
<event>
11    0  0.3439373E-009  0.9118800E+02  0.7816531E-02  0.1126479E+00
         25   -1    0    0    0    0  0.00000000000E+00  0.00000000000E+00  0.99999998245E-14  0.12500000000E+03  0.12500000000E+03 0.  0.
    3000001    1    3    3    0    0 -0.26789920999E+01  0.12735260084E+02 -0.20375622276E+02  0.24197723678E+02  0.10000000000E+01 0.  1.
    1000022    2    1    0    0    0 -0.18405017472E+02  0.28294612172E+02 -0.51642230231E+02  0.62500002875E+02  0.10000033507E+02 0.  0.
    3000022    2    3    3    0    0 -0.15726025372E+02  0.15559352088E+02 -0.31266607955E+02  0.38302279197E+02  0.25001463753E+00 0.  0.
    1000022    2    1    0    0    0  0.18405017472E+02 -0.28294612172E+02  0.51642230231E+02  0.62499997125E+02  0.99999975653E+01 0.  0.
    3000022    2    5    5    0    0  0.15147517468E+02 -0.15941412834E+02  0.27953781153E+02  0.35567573174E+02  0.24990427397E+00 0.  0.
        -13    1    4    4    0    0 -0.60260355505E+01  0.59782641196E+01 -0.12101720317E+02  0.14782266605E+02  0.10500000000E+00 0.  1.
         13    1    4    4    0    0 -0.96999898212E+01  0.95810879684E+01 -0.19164887638E+02  0.23520012592E+02  0.10500000000E+00 0. -1.
    3000001    1    5    5    0    0  0.32575000033E+01 -0.12353199338E+02  0.23688449078E+02  0.26932423951E+02  0.10000000000E+01 0. -1.
        -13    1    6    6    0    0  0.41533447356E+01 -0.43454646200E+01  0.76949079550E+01  0.97650380794E+01  0.10500000000E+00 0.  1.
         13    1    6    6    0    0  0.10994172733E+02 -0.11595948214E+02  0.20258873198E+02  0.25802535095E+02  0.10500000000E+00 0. -1.
</event>
<event>
11    0  0.3439373E-009  0.9118800E+02  0.7816531E-02  0.1126479E+00
         25   -1    0    0    0    0  0.00000000000E+00  0.00000000000E+00  0.99999998245E-14  0.12500000000E+03  0.12500000000E+03 0.  0.
    3000001    1    3    3    0    0 -0.27068298643E+02 -0.46206066928E+00 -0.20644362169E+01  0.27169250788E+02  0.10000000000E+01 0.  1.
    1000022    2    1    0    0    0 -0.60176607482E+02  0.81429774201E+01 -0.10895772239E+02  0.62499999741E+02  0.99999972810E+01 0.  0.
    3000022    2    3    3    0    0 -0.33108308839E+02  0.86050380894E+01 -0.88313360224E+01  0.35330748953E+02  0.25006186707E+00 0.  0.
    1000022    2    1    0    0    0  0.60176607482E+02 -0.81429774201E+01  0.10895772239E+02  0.62500000259E+02  0.10000000521E+02 0.  0.
    3000022    2    5    5    0    0  0.50652166280E+02 -0.96224466539E+01  0.69008535586E+01  0.52018436221E+02  0.24999715789E+00 0.  0.
        -13    1    4    4    0    0 -0.11171529023E+02  0.28986022272E+01 -0.29237402027E+01  0.11906478798E+02  0.10500000000E+00 0.  1.
         13    1    4    4    0    0 -0.21936779816E+02  0.57064358622E+01 -0.59075958196E+01  0.23424270156E+02  0.10500000000E+00 0. -1.
    3000001    1    5    5    0    0  0.95244412020E+01  0.14794692337E+01  0.39949186807E+01  0.10481564038E+02  0.10000000000E+01 0. -1.
        -13    1    6    6    0    0  0.17134002924E+02 -0.33103506171E+01  0.23328534625E+01  0.17606410982E+02  0.10500000000E+00 0. -1.
         13    1    6    6    0    0  0.33518163356E+02 -0.63120960368E+01  0.45680000961E+01  0.34412025239E+02  0.10500000000E+00 0.  1.
</event>
<event>
11    0  0.3439373E-009  0.9118800E+02  0.7816531E-02  0.1126479E+00
         25   -1    0    0    0    0  0.00000000000E+00  0.00000000000E+00  0.99999998245E-14  0.12500000000E+03  0.12500000000E+03 0.  0.
    3000001    1    3    3    0    0  0.20089059006E+02 -0.20317768238E+02 -0.17066682162E+02  0.33296450831E+02  0.10000000000E+01 0. -1.
    1000022    2    1    0    0    0  0.42368024000E+02 -0.37867981456E+02 -0.24025324200E+02  0.62500003059E+02  0.10000035112E+02 0.  0.
    3000022    2    3    3    0    0  0.22278964995E+02 -0.17550213218E+02 -0.69586420379E+01  0.29203552228E+02  0.24999704129E+00 0.  0.
    1000022    2    1    0    0    0 -0.42368024000E+02  0.37867981456E+02  0.24025324200E+02  0.62499996941E+02  0.99999968719E+01 0.  0.
    3000022    2    5    5    0    0 -0.24888915054E+02  0.24362770731E+02  0.19548383318E+02  0.39940010993E+02  0.24999507157E+00 0.  0.
        -13    1    4    4    0    0  0.66588577254E+01 -0.51924417043E+01 -0.20538958804E+01  0.86908774210E+01  0.10500000000E+00 0.  1.
         13    1    4    4    0    0  0.15620107269E+02 -0.12357771513E+02 -0.49047461574E+01  0.20512674807E+02  0.10500000000E+00 0. -1.
    3000001    1    5    5    0    0 -0.17479108947E+02  0.13505210725E+02  0.44769408816E+01  0.22559985947E+02  0.10000000000E+01 0. -1.
        -13    1    6    6    0    0 -0.68351499514E+01  0.66497636580E+01  0.53795144510E+01  0.10949375886E+02  0.10500000000E+00 0. -1.
         13    1    6    6    0    0 -0.18053765102E+02  0.17713007073E+02  0.14168868867E+02  0.28990635107E+02  0.10500000000E+00 0.  1.
</event>
<event>
11    0  0.3439373E-009  0.9118800E+02  0.7816531E-02  0.1126479E+00
         25   -1    0    0    0    0  0.00000000000E+00  0.00000000000E+00  0.99999998245E-14  0.12500000000E+03  0.12500000000E+03 0.  0.
    3000001    1    3    3    0    0  0.12255279512E+02  0.11422425580E+02  0.15601492777E+02  0.22914411599E+02  0.10000000000E+01 0.  1.
    1000022    2    1    0    0    0  0.43111239714E+02  0.26078367351E+02  0.35603223657E+02  0.62499997906E+02  0.99999985026E+01 0.  0.
    3000022    2    3    3    0    0  0.30855960202E+02  0.14655941771E+02  0.20001730881E+02  0.39585586307E+02  0.24999177508E+00 0.  0.
    1000022    2    1    0    0    0 -0.43111239714E+02 -0.26078367351E+02 -0.35603223657E+02  0.62500002094E+02  0.10000024680E+02 0.  0.
    3000022    2    5    5    0    0 -0.21959856600E+02 -0.83707882760E+01 -0.19530725066E+02  0.30558421431E+02  0.25000090361E+00 0.  0.
        -13    1    4    4    0    0  0.21612032346E+02  0.10239225279E+02  0.14048320307E+02  0.27736041622E+02  0.10500000000E+00 0.  1.
         13    1    4    4    0    0  0.92439278556E+01  0.44167164926E+01  0.59534105738E+01  0.11849544685E+02  0.10500000000E+00 0. -1.
    3000001    1    5    5    0    0 -0.21151383114E+02 -0.17707579075E+02 -0.16072498591E+02  0.31941580664E+02  0.10000000000E+01 0.  1.
        -13    1    6    6    0    0 -0.16467039692E+02 -0.62987654509E+01 -0.14629851757E+02  0.22910290916E+02  0.10500000000E+00 0.  1.
         13    1    6    6    0    0 -0.54928169081E+01 -0.20720228250E+01 -0.49008733094E+01  0.76481305146E+01  0.10500000000E+00 0. -1.
</event>
<event>
11    0  0.3439373E-009  0.9118800E+02  0.7816531E-02  0.1126479E+00
         25   -1    0    0    0    0  0.00000000000E+00  0.00000000000E+00  0.99999998245E-14  0.12500000000E+03  0.12500000000E+03 0.  0.
    3000001    1    3    3    0    0 -0.47061264702E+01  0.16199102098E+01  0.49990334078E+01  0.71247505538E+01  0.10000000000E+01 0.  1.
    1000022    2    1    0    0    0 -0.52508415318E+02  0.23973284254E+02  0.21780676089E+02  0.62499999393E+02  0.10000001804E+02 0.  0.
    3000022    2    3    3    0    0 -0.47802288847E+02  0.22353374045E+02  0.16781642682E+02  0.55375248839E+02  0.25000533394E+00 0.  0.
    1000022    2    1    0    0    0  0.52508415318E+02 -0.23973284254E+02 -0.21780676089E+02  0.62500000607E+02  0.10000009394E+02 0.  0.
    3000022    2    5    5    0    0  0.10382217056E+01  0.40993793321E+00 -0.18041942188E+01  0.21362516958E+01  0.25000221942E+00 0.  0.
        -13    1    4    4    0    0 -0.35077418397E+02  0.16439623306E+02  0.12328162702E+02  0.40653180890E+02  0.10500000000E+00 0. -1.
         13    1    4    4    0    0 -0.12724870450E+02  0.59137507384E+01  0.44534799795E+01  0.14722067949E+02  0.10500000000E+00 0.  1.
    3000001    1    5    5    0    0  0.51470193612E+02 -0.24383222188E+02 -0.19976481871E+02  0.60363748911E+02  0.10000000000E+01 0.  1.
        -13    1    6    6    0    0  0.78957605129E+00  0.30195652371E+00 -0.12992307532E+01  0.15535873433E+01  0.10500000000E+00 0.  1.
         13    1    6    6    0    0  0.24864565435E+00  0.10798140949E+00 -0.50496346551E+00  0.58266435254E+00  0.10500000000E+00 0.  1.
</event>
<event>
11    0  0.3439373E-009  0.9118800E+02  0.7816531E-02  0.1126479E+00
         25   -1    0    0    0    0  0.00000000000E+00  0.00000000000E+00  0.99999998245E-14  0.12500000000E+03  0.12500000000E+03 0.  0.
    3000001    1    3    3    0    0 -0.18251290486E+02  0.23898625725E+02 -0.28878605705E+01  0.30225711813E+02  0.10000000000E+01 0. -1.
    1000022    2    1    0    0    0 -0.37959156327E+02  0.48453171877E+02  0.42002704543E+01  0.62500002276E+02  0.10000029933E+02 0.  0.
    3000022    2    3    3    0    0 -0.19707865841E+02  0.24554546152E+02  0.70881310248E+01  0.32274290463E+02  0.25002146648E+00 0.  0.
    1000022    2    1    0    0    0  0.37959156327E+02 -0.48453171877E+02 -0.42002704543E+01  0.62499997724E+02  0.10000001477E+02 0.  0.
    3000022    2    5    5    0    0  0.17410318348E+02 -0.30050564789E+02 -0.32246774326E+01  0.34880032631E+02  0.25000547554E+00 0.  0.
        -13    1    4    4    0    0 -0.13558495075E+02  0.16950637918E+02  0.48532340048E+01  0.22242342949E+02  0.10500000000E+00 0. -1.
         13    1    4    4    0    0 -0.61493707661E+01  0.76039082338E+01  0.22348970200E+01  0.10031947515E+02  0.10500000000E+00 0.  1.
    3000001    1    5    5    0    0  0.20548837979E+02 -0.18402607089E+02 -0.97559302175E+00  0.27619965092E+02  0.10000000000E+01 0.  1.
        -13    1    6    6    0    0  0.79719455336E+01 -0.13649878097E+02 -0.15058495754E+01  0.15879222135E+02  0.10500000000E+00 0. -1.
         13    1    6    6    0    0  0.94383728144E+01 -0.16400686691E+02 -0.17188278571E+01  0.19000810497E+02  0.10500000000E+00 0.  1.
</event>
<event>
11    0  0.3439373E-009  0.9118800E+02  0.7816531E-02  0.1126479E+00
         25   -1    0    0    0    0  0.00000000000E+00  0.00000000000E+00  0.99999998245E-14  0.12500000000E+03  0.12500000000E+03 0.  0.
    3000001    1    3    3    0    0 -0.83453622731E+01  0.18313914851E+01  0.18835381583E+02  0.20706778253E+02  0.10000000000E+01 0. -1.
    1000022    2    1    0    0    0 -0.30174763128E+02 -0.70585479196E+01  0.53347076468E+02  0.62499999550E+02  0.99999973739E+01 0.  0.
    3000022    2    3    3    0    0 -0.21829400855E+02 -0.88899394047E+01  0.34511694885E+02  0.41793221297E+02  0.24999645060E+00 0.  0.
    1000022    2    1    0    0    0  0.30174763128E+02  0.70585479196E+01 -0.53347076468E+02  0.62500000450E+02  0.10000003005E+02 0.  0.
    3000022    2    5    5    0    0  0.14931474158E+02 -0.12404126403E+01 -0.28108222828E+02  0.31853135390E+02  0.24999913394E+00 0.  0.
        -13    1    4    4    0    0 -0.81841745724E+01 -0.32777637824E+01  0.12853074555E+02  0.15586436390E+02  0.10500000000E+00 0. -1.
         13    1    4    4    0    0 -0.13645226283E+02 -0.56121756222E+01  0.21658620330E+02  0.26206784906E+02  0.10500000000E+00 0.  1.
    3000001    1    5    5    0    0  0.15243288970E+02  0.82989605599E+01 -0.25238853640E+02  0.30646865061E+02  0.10000000000E+01 0. -1.
        -13    1    6    6    0    0  0.95912894774E+01 -0.83904811370E+00 -0.18144709765E+02  0.20541138065E+02  0.10500000000E+00 0.  1.
         13    1    6    6    0    0  0.53401846809E+01 -0.40136452659E+00 -0.99635130632E+01  0.11311997325E+02  0.10500000000E+00 0. -1.
</event>
<event>
11    0  0.3439373E-009  0.9118800E+02  0.7816531E-02  0.1126479E+00
         25   -1    0    0    0    0  0.00000000000E+00  0.00000000000E+00  0.99999998245E-14  0.12500000000E+03  0.12500000000E+03 0.  0.
    3000001    1    3    3    0    0 -0.15669064204E+02  0.17045546549E+02 -0.54722027879E+02  0.59427018817E+02  0.10000000000E+01 0. -1.
    1000022    2    1    0    0    0 -0.16741360647E+02  0.19584878581E+02 -0.56057198476E+02  0.62500000167E+02  0.99999947252E+01 0.  0.
    3000022    2    3    3    0    0 -0.10722964424E+01  0.25393320315E+01 -0.13351705970E+01  0.30729813502E+01  0.25001405748E+00 0.  0.
    1000022    2    1    0    0    0  0.16741360647E+02 -0.19584878581E+02  0.56057198476E+02  0.62499999833E+02  0.99999926408E+01 0.  0.
    3000022    2    5    5    0    0  0.11288051884E+02 -0.18914321453E+02  0.45757399810E+02  0.50783597830E+02  0.24999981423E+00 0.  0.
        -13    1    4    4    0    0 -0.59949651576E+00  0.13088839721E+01 -0.63894287746E+00  0.15785583060E+01  0.10500000000E+00 0. -1.
         13    1    4    4    0    0 -0.47279992668E+00  0.12304480594E+01 -0.69622771955E+00  0.14944230442E+01  0.10500000000E+00 0.  1.
    3000001    1    5    5    0    0  0.54533087622E+01 -0.67055712834E+00  0.10299798667E+02  0.11716402003E+02  0.10000000000E+01 0.  1.
        -13    1    6    6    0    0  0.63109391045E+01 -0.10582625914E+02  0.25443720687E+02  0.28270370904E+02  0.10500000000E+00 0.  1.
         13    1    6    6    0    0  0.49771127800E+01 -0.83316955384E+01  0.20313679122E+02  0.22513226927E+02  0.10500000000E+00 0. -1.
</event>
<event>
11    0  0.3439373E-009  0.9118800E+02  0.7816531E-02  0.1126479E+00
         25   -1    0    0    0    0  0.00000000000E+00  0.00000000000E+00  0.99999998245E-14  0.12500000000E+03  0.12500000000E+03 0.  0.
    3000001    1    3    3    0    0  0.26006327194E+02  0.31072358754E+01  0.31403832753E+02  0.40904580190E+02  0.10000000000E+01 0. -1.
    1000022    2    1    0    0    0  0.36552828488E+02 -0.14881509758E+01  0.49678225769E+02  0.62500001243E+02  0.10000008801E+02 0.  0.
    3000022    2    3    3    0    0  0.10546501293E+02 -0.45953868512E+01  0.18274393016E+02  0.21595421053E+02  0.25000102632E+00 0.  0.
    1000022    2    1    0    0    0 -0.36552828488E+02  0.14881509758E+01 -0.49678225769E+02  0.62499998757E+02  0.99999932675E+01 0.  0.
    3000022    2    5    5    0    0 -0.12085596340E+02 -0.38083638922E+01 -0.13763022742E+02  0.18709585112E+02  0.25001132187E+00 0.  0.
        -13    1    4    4    0    0  0.68305003872E+01 -0.29823638433E+01  0.11944337012E+02  0.14079362247E+02  0.10500000000E+00 0. -1.
         13    1    4    4    0    0  0.37160009063E+01 -0.16130230079E+01  0.63300560038E+01  0.75160588057E+01  0.10500000000E+00 0.  1.
    3000001    1    5    5    0    0 -0.24467232148E+02  0.52965148680E+01 -0.35915203027E+02  0.43790413645E+02  0.10000000000E+01 0. -1.
        -13    1    6    6    0    0 -0.58730987707E+01 -0.17930619285E+01 -0.66111463246E+01  0.90236711473E+01  0.10500000000E+00 0. -1.
         13    1    6    6    0    0 -0.62124975689E+01 -0.20153019637E+01 -0.71518764169E+01  0.96859139647E+01  0.10500000000E+00 0.  1.
</event>
<event>
11    0  0.3439373E-009  0.9118800E+02  0.7816531E-02  0.1126479E+00
         25   -1    0    0    0    0  0.00000000000E+00  0.00000000000E+00  0.99999998245E-14  0.12500000000E+03  0.12500000000E+03 0.  0.
    3000001    1    3    3    0    0 -0.60505768465E+01 -0.38268778294E+01  0.24010294233E+02  0.25074861979E+02  0.10000000000E+01 0.  1.
    1000022    2    1    0    0    0 -0.38560265632E+01 -0.53974786304E+01  0.61337169010E+02  0.62499999429E+02  0.99999955006E+01 0.  0.
    3000022    2    3    3    0    0  0.21945502833E+01 -0.15706008010E+01  0.37326874777E+02  0.37425137450E+02  0.24998942607E+00 0.  0.
    1000022    2    1    0    0    0  0.38560265632E+01  0.53974786304E+01 -0.61337169010E+02  0.62500000571E+02  0.10000002635E+02 0.  0.
    3000022    2    5    5    0    0  0.26649671286E+01  0.52014736694E+01 -0.60381392187E+02  0.60664094839E+02  0.25000396457E+00 0.  0.
        -13    1    4    4    0    0  0.69780726092E+00 -0.45026602365E+00  0.11168493926E+02  0.11199819464E+02  0.10500000000E+00 0. -1.
         13    1    4    4    0    0  0.14967430224E+01 -0.11203347773E+01  0.26158380852E+02  0.26225317986E+02  0.10500000000E+00 0.  1.
    3000001    1    5    5    0    0  0.11910594346E+01  0.19600496096E+00 -0.95577682321E+00  0.18359057322E+01  0.10000000000E+01 0. -1.
        -13    1    6    6    0    0  0.11232625342E+01  0.21231453427E+01 -0.25401739357E+02  0.25515267042E+02  0.10500000000E+00 0.  1.
         13    1    6    6    0    0  0.15417045944E+01  0.30783283267E+01 -0.34979652830E+02  0.35148827797E+02  0.10500000000E+00 0. -1.
</event>
<event>
11    0  0.3439373E-009  0.9118800E+02  0.7816531E-02  0.1126479E+00
         25   -1    0    0    0    0  0.00000000000E+00  0.00000000000E+00  0.99999998245E-14  0.12500000000E+03  0.12500000000E+03 0.  0.
    3000001    1    3    3    0    0  0.34397864650E+02  0.28607221090E+02  0.23711342750E+02  0.50643992398E+02  0.10000000000E+01 0. -1.
    1000022    2    1    0    0    0  0.43752312932E+02  0.35823583532E+02  0.24670954623E+02  0.62500001174E+02  0.10000006040E+02 0.  0.
    3000022    2    3    3    0    0  0.93544482814E+01  0.72163624420E+01  0.95961187291E+00  0.11856008776E+02  0.24999921838E+00 0.  0.
    1000022    2    1    0    0    0 -0.43752312932E+02 -0.35823583532E+02 -0.24670954623E+02  0.62499998826E+02  0.99999913612E+01 0.  0.
    3000022    2    5    5    0    0 -0.13048455890E+02 -0.12897024120E+02 -0.12799906285E+02  0.22371757494E+02  0.25000039950E+00 0.  0.
        -13    1    4    4    0    0  0.43813340188E+01  0.33409998148E+01  0.38751000226E+00  0.55244507916E+01  0.10500000000E+00 0.  1.
         13    1    4    4    0    0  0.49731142626E+01  0.38753626272E+01  0.57210187065E+00  0.63315579845E+01  0.10500000000E+00 0. -1.
    3000001    1    5    5    0    0 -0.30703857042E+02 -0.22926559412E+02 -0.11871048338E+02  0.40128241332E+02  0.10000000000E+01 0. -1.
        -13    1    6    6    0    0 -0.88779742547E+01 -0.88415375081E+01 -0.87609575260E+01  0.15289101156E+02  0.10500000000E+00 0. -1.
         13    1    6    6    0    0 -0.41704816350E+01 -0.40554866123E+01 -0.40389487591E+01  0.70826563385E+01  0.10500000000E+00 0.  1.
</event>
<event>
11    0  0.3439373E-009  0.9118800E+02  0.7816531E-02  0.1126479E+00
         25   -1    0    0    0    0  0.00000000000E+00  0.00000000000E+00  0.99999998245E-14  0.12500000000E+03  0.12500000000E+03 0.  0.
    3000001    1    3    3    0    0  0.30990075813E+02  0.32676432216E+02 -0.15773703775E+02  0.47727809001E+02  0.10000000000E+01 0. -1.
    1000022    2    1    0    0    0  0.38985791738E+02  0.40500640589E+02 -0.25417636312E+02  0.62500000494E+02  0.99999990250E+01 0.  0.
    3000022    2    3    3    0    0  0.79957159249E+01  0.78242083731E+01 -0.96439325369E+01  0.14772191493E+02  0.24999381401E+00 0.  0.
    1000022    2    1    0    0    0 -0.38985791738E+02 -0.40500640589E+02  0.25417636312E+02  0.62499999506E+02  0.99999928470E+01 0.  0.
    3000022    2    5    5    0    0 -0.27299161355E+02 -0.21951291028E+02  0.13639591303E+02  0.37592610179E+02  0.25000128972E+00 0.  0.
        -13    1    4    4    0    0  0.34473148867E+01  0.34653567536E+01 -0.42206859201E+01  0.64589389217E+01  0.10500000000E+00 0. -1.
         13    1    4    4    0    0  0.45484010382E+01  0.43588516194E+01 -0.54232466168E+01  0.83132525711E+01  0.10500000000E+00 0.  1.
    3000001    1    5    5    0    0 -0.11686630383E+02 -0.18549349561E+02  0.11778045009E+02  0.24907389327E+02  0.10000000000E+01 0.  1.
        -13    1    6    6    0    0 -0.97260512752E+01 -0.77497409907E+01  0.48261250106E+01  0.13340054964E+02  0.10500000000E+00 0.  1.
         13    1    6    6    0    0 -0.17573110080E+02 -0.14201550037E+02  0.88134662919E+01  0.24252555214E+02  0.10500000000E+00 0. -1.
</event>
<event>
11    0  0.3439373E-009  0.9118800E+02  0.7816531E-02  0.1126479E+00
         25   -1    0    0    0    0  0.00000000000E+00  0.00000000000E+00  0.99999998245E-14  0.12500000000E+03  0.12500000000E+03 0.  0.
    3000001    1    3    3    0    0 -0.80286345329E+01  0.15916939627E+01  0.17733714650E+02  0.19557021691E+02  0.10000000000E+01 0. -1.
    1000022    2    1    0    0    0 -0.17923871647E+02 -0.71125094120E+01  0.58603729365E+02  0.62500001064E+02  0.10000003627E+02 0.  0.
    3000022    2    3    3    0    0 -0.98952371145E+01 -0.87042033747E+01  0.40870014715E+02  0.42942979373E+02  0.25000136818E+00 0.  0.
    1000022    2    1    0    0    0  0.17923871647E+02  0.71125094120E+01 -0.58603729365E+02  0.62499998936E+02  0.99999903299E+01 0.  0.
    3000022    2    5    5    0    0  0.43386867431E+01  0.68282492802E+01 -0.21312342369E+02  0.22797535577E+02  0.25000050232E+00 0.  0.
        -13    1    4    4    0    0 -0.36540104588E+01 -0.31643877964E+01  0.14842960248E+02  0.15610561697E+02  0.10500000000E+00 0.  1.
         13    1    4    4    0    0 -0.62412266558E+01 -0.55398155783E+01  0.26027054466E+02  0.27332417676E+02  0.10500000000E+00 0. -1.
    3000001    1    5    5    0    0  0.13585184904E+02  0.28426013173E+00 -0.37291386996E+02  0.39702463359E+02  0.10000000000E+01 0.  1.
        -13    1    6    6    0    0  0.30185864448E+01  0.48317497433E+01 -0.15032879754E+02  0.16076572035E+02  0.10500000000E+00 0. -1.
         13    1    6    6    0    0  0.13201002983E+01  0.19964995370E+01 -0.62794626148E+01  0.67209635418E+01  0.10500000000E+00 0.  1.
</event>
<event>
11    0  0.3439373E-009  0.9118800E+02  0.7816531E-02  0.1126479E+00
         25   -1    0    0    0    0  0.00000000000E+00  0.00000000000E+00  0.99999998245E-14  0.12500000000E+03  0.12500000000E+03 0.  0.
    3000001    1    3    3    0    0 -0.95422632281E+01 -0.21947220547E+02  0.21384410026E+01  0.24048039571E+02  0.10000000000E+01 0.  1.
    1000022    2    1    0    0    0 -0.12714637182E+02 -0.60045057442E+02  0.62593065308E+01  0.62499998758E+02  0.10000000229E+02 0.  0.
    3000022    2    3    3    0    0 -0.31723739535E+01 -0.38097836895E+02  0.41208655282E+01  0.38451959187E+02  0.25000012436E+00 0.  0.
    1000022    2    1    0    0    0  0.12714637182E+02  0.60045057442E+02 -0.62593065308E+01  0.62500001242E+02  0.10000015757E+02 0.  0.
    3000022    2    5    5    0    0  0.84335667503E+01  0.52913219048E+02 -0.72247751031E+01  0.54066567038E+02  0.24999561679E+00 0.  0.
        -13    1    4    4    0    0 -0.21350321008E+01 -0.25973634463E+02  0.28514910513E+01  0.26216980671E+02  0.10500000000E+00 0. -1.
         13    1    4    4    0    0 -0.10373418527E+01 -0.12124202432E+02  0.12693744769E+01  0.12234978516E+02  0.10500000000E+00 0.  1.
    3000001    1    5    5    0    0  0.42810704313E+01  0.71318383943E+01  0.96546857233E+00  0.84334342046E+01  0.10000000000E+01 0. -1.
        -13    1    6    6    0    0  0.27554336729E+01  0.17627443633E+02 -0.24062512063E+01  0.18003340069E+02  0.10500000000E+00 0.  1.
         13    1    6    6    0    0  0.56781330774E+01  0.35285775415E+02 -0.48185238968E+01  0.36063226969E+02  0.10500000000E+00 0. -1.
</event>
<event>
11    0  0.3439373E-009  0.9118800E+02  0.7816531E-02  0.1126479E+00
         25   -1    0    0    0    0  0.00000000000E+00  0.00000000000E+00  0.99999998245E-14  0.12500000000E+03  0.12500000000E+03 0.  0.
    3000001    1    3    3    0    0 -0.69313168680E+01 -0.30060517977E+01 -0.46651743407E+00  0.76352563448E+01  0.10000000000E+01 0.  1.
    1000022    2    1    0    0    0 -0.53175668888E+02 -0.22689040088E+02  0.21536155239E+02  0.62500001155E+02  0.99999930049E+01 0.  0.
    3000022    2    3    3    0    0 -0.46244352020E+02 -0.19682988290E+02  0.22002672673E+02  0.54864744811E+02  0.24999308237E+00 0.  0.
    1000022    2    1    0    0    0  0.53175668888E+02  0.22689040088E+02 -0.21536155239E+02  0.62499998845E+02  0.99999785616E+01 0.  0.
    3000022    2    5    5    0    0  0.27032682542E+02  0.81624406751E+01 -0.63574637864E+01  0.28946005046E+02  0.24999828047E+00 0.  0.
        -13    1    4    4    0    0 -0.23512539195E+02 -0.10078764879E+02  0.11218531047E+02  0.27933626058E+02  0.10500000000E+00 0. -1.
         13    1    4    4    0    0 -0.22731812825E+02 -0.96042234112E+01  0.10784141626E+02  0.26931118753E+02  0.10500000000E+00 0.  1.
    3000001    1    5    5    0    0  0.26142986347E+02  0.14526599413E+02 -0.15178691453E+02  0.33553993799E+02  0.10000000000E+01 0.  1.
        -13    1    6    6    0    0  0.97528660376E+01  0.29155106743E+01 -0.23440197719E+01  0.10446245839E+02  0.10500000000E+00 0. -1.
         13    1    6    6    0    0  0.17279816504E+02  0.52469300008E+01 -0.40134440145E+01  0.18499759207E+02  0.10500000000E+00 0.  1.
</event>
<event>
11    0  0.3439373E-009  0.9118800E+02  0.7816531E-02  0.1126479E+00
         25   -1    0    0    0    0  0.00000000000E+00  0.00000000000E+00  0.99999998245E-14  0.12500000000E+03  0.12500000000E+03 0.  0.
    3000001    1    3    3    0    0  0.18226944527E+02 -0.46336045352E+01  0.41863737217E+01  0.19292939712E+02  0.10000000000E+01 0. -1.
    1000022    2    1    0    0    0  0.60942890990E+02 -0.96028126277E+01  0.99135131040E-02  0.62500004114E+02  0.10000022170E+02 0.  0.
    3000022    2    3    3    0    0  0.42715946463E+02 -0.49692080925E+01 -0.41764602086E+01  0.43207064403E+02  0.24996620563E+00 0.  0.
    1000022    2    1    0    0    0 -0.60942890990E+02  0.96028126277E+01 -0.99135131040E-02  0.62499995886E+02  0.99999707403E+01 0.  0.
    3000022    2    5    5    0    0 -0.16078097987E+02  0.67541115423E+01 -0.15311953557E+01  0.17508007182E+02  0.24999729398E+00 0.  0.
        -13    1    4    4    0    0  0.17397944983E+02 -0.19599426231E+01 -0.17045214705E+01  0.17591085332E+02  0.10500000000E+00 0.  1.
         13    1    4    4    0    0  0.25318001480E+02 -0.30092654694E+01 -0.24719387381E+01  0.25615979071E+02  0.10500000000E+00 0. -1.
    3000001    1    5    5    0    0 -0.44864793003E+02  0.28487010854E+01  0.15212818426E+01  0.44991988704E+02  0.10000000000E+01 0. -1.
        -13    1    6    6    0    0 -0.49804434260E+01  0.20578227118E+01 -0.43678547451E+00  0.54075186161E+01  0.10500000000E+00 0. -1.
         13    1    6    6    0    0 -0.11097654561E+02  0.46962888305E+01 -0.10944098812E+01  0.12100488566E+02  0.10500000000E+00 0.  1.
</event>
<event>
11    0  0.3439373E-009  0.9118800E+02  0.7816531E-02  0.1126479E+00
         25   -1    0    0    0    0  0.00000000000E+00  0.00000000000E+00  0.99999998245E-14  0.12500000000E+03  0.12500000000E+03 0.  0.
    3000001    1    3    3    0    0 -0.39023166380E+01  0.44549238672E+01  0.16276348689E+00  0.60084035948E+01  0.10000000000E+01 0.  1.
    1000022    2    1    0    0    0 -0.51647760392E+02  0.28390910953E+02 -0.18240470632E+02  0.62499999440E+02  0.10000009148E+02 0.  0.
    3000022    2    3    3    0    0 -0.47745443754E+02  0.23935987086E+02 -0.18403234119E+02  0.56491595846E+02  0.24999630353E+00 0.  0.
    1000022    2    1    0    0    0  0.51647760392E+02 -0.28390910953E+02  0.18240470632E+02  0.62500000560E+02  0.10000016144E+02 0.  0.
    3000022    2    5    5    0    0 -0.33553504333E+00 -0.66652155279E+00 -0.89071868701E-01  0.79200350772E+00  0.25000202562E+00 0.  0.
        -13    1    4    4    0    0 -0.25530592426E+02  0.12842241093E+02 -0.97889896139E+01  0.30208767743E+02  0.10500000000E+00 0.  1.
         13    1    4    4    0    0 -0.22214851327E+02  0.11093745993E+02 -0.86142445047E+01  0.26282828102E+02  0.10500000000E+00 0. -1.
    3000001    1    5    5    0    0  0.51983295435E+02 -0.27724389400E+02  0.18329542500E+02  0.61707997052E+02  0.10000000000E+01 0. -1.
        -13    1    6    6    0    0 -0.22116960438E+00 -0.41298394202E+00 -0.11467318842E+00  0.49360578442E+00  0.10500000000E+00 0.  1.
         13    1    6    6    0    0 -0.11436543895E+00 -0.25353761077E+00  0.25601319720E-01  0.29839772331E+00  0.10500000000E+00 0.  1.
</event>
<event>
11    0  0.3439373E-009  0.9118800E+02  0.7816531E-02  0.1126479E+00
         25   -1    0    0    0    0  0.00000000000E+00  0.00000000000E+00  0.99999998245E-14  0.12500000000E+03  0.12500000000E+03 0.  0.
    3000001    1    3    3    0    0  0.47181583769E+02 -0.98575853331E+01 -0.20402679966E+02  0.52350197567E+02  0.10000000000E+01 0. -1.
    1000022    2    1    0    0    0  0.56454054939E+02 -0.13973693289E+02 -0.20589449566E+02  0.62499998275E+02  0.99999963848E+01 0.  0.
    3000022    2    3    3    0    0  0.92724711709E+01 -0.41161079556E+01 -0.18676960015E+00  0.10149800708E+02  0.25001041933E+00 0.  0.
    1000022    2    1    0    0    0 -0.56454054939E+02  0.13973693289E+02  0.20589449566E+02  0.62500001725E+02  0.10000017949E+02 0.  0.
    3000022    2    5    5    0    0 -0.71903113683E+01  0.51442918599E+00 -0.51807090499E+00  0.72316053193E+01  0.25000614333E+00 0.  0.
        -13    1    4    4    0    0  0.23159732116E+01 -0.10473302209E+01 -0.26713734450E-01  0.25440855198E+01  0.10500000000E+00 0.  1.
         13    1    4    4    0    0  0.69564979592E+01 -0.30687777348E+01 -0.16005586570E+00  0.76057151881E+01  0.10500000000E+00 0. -1.
    3000001    1    5    5    0    0 -0.49263743571E+02  0.13459264103E+02  0.21107520471E+02  0.55268396406E+02  0.10000000000E+01 0.  1.
        -13    1    6    6    0    0 -0.53719620008E+01  0.39249189739E+00 -0.41384638832E+00  0.54031767934E+01  0.10500000000E+00 0.  1.
         13    1    6    6    0    0 -0.18183493675E+01  0.12193728860E+00 -0.10422451666E+00  0.18284285260E+01  0.10500000000E+00 0.  1.
</event>
<event>
11    0  0.3439373E-009  0.9118800E+02  0.7816531E-02  0.1126479E+00
         25   -1    0    0    0    0  0.00000000000E+00  0.00000000000E+00  0.99999998245E-14  0.12500000000E+03  0.12500000000E+03 0.  0.
    3000001    1    3    3    0    0 -0.32415603750E+02  0.12306217226E+02 -0.64163738782E+01  0.35275830290E+02  0.10000000000E+01 0. -1.
    1000022    2    1    0    0    0 -0.52888623653E+02  0.29092676449E+02 -0.12753813056E+02  0.62500000408E+02  0.99999984360E+01 0.  0.
    3000022    2    3    3    0    0 -0.20473019903E+02  0.16786459223E+02 -0.63374391774E+01  0.27224170119E+02  0.25009222578E+00 0.  0.
    1000022    2    1    0    0    0  0.52888623653E+02 -0.29092676449E+02  0.12753813056E+02  0.62499999592E+02  0.99999933299E+01 0.  0.
    3000022    2    5    5    0    0  0.36914224989E+02 -0.25223476111E+02  0.88549869023E+01  0.45578032528E+02  0.25000477936E+00 0.  0.
        -13    1    4    4    0    0 -0.12296905886E+02  0.10157983805E+02 -0.37936079380E+01  0.16395152196E+02  0.10500000000E+00 0.  1.
         13    1    4    4    0    0 -0.81761140170E+01  0.66284754184E+01 -0.25438312395E+01  0.10829017923E+02  0.10500000000E+00 0. -1.
    3000001    1    5    5    0    0  0.15974398664E+02 -0.38692003376E+01  0.38988261532E+01  0.16921967063E+02  0.10000000000E+01 0.  1.
        -13    1    6    6    0    0  0.15077029984E+02 -0.10224993420E+02  0.36049812521E+01  0.18570789924E+02  0.10500000000E+00 0.  1.
         13    1    6    6    0    0  0.21837195006E+02 -0.14998482691E+02  0.52500056502E+01  0.27007242604E+02  0.10500000000E+00 0. -1.
</event>
<event>
11    0  0.3439373E-009  0.9118800E+02  0.7816531E-02  0.1126479E+00
         25   -1    0    0    0    0  0.00000000000E+00  0.00000000000E+00  0.99999998245E-14  0.12500000000E+03  0.12500000000E+03 0.  0.
    3000001    1    3    3    0    0  0.34399602389E+02 -0.42417855472E+02  0.26329152630E+02  0.60636881397E+02  0.10000000000E+01 0. -1.
    1000022    2    1    0    0    0  0.35633870863E+02 -0.42086890954E+02  0.27661727654E+02  0.62499999860E+02  0.99999831428E+01 0.  0.
    3000022    2    3    3    0    0  0.12342684743E+01  0.33096451799E+00  0.13325750235E+01  0.18631184629E+01  0.24999606921E+00 0.  0.
    1000022    2    1    0    0    0 -0.35633870863E+02  0.42086890954E+02 -0.27661727654E+02  0.62500000140E+02  0.99999848920E+01 0.  0.
    3000022    2    5    5    0    0 -0.34540692160E+02  0.37363430645E+02 -0.23570221899E+02  0.56077653504E+02  0.24999549440E+00 0.  0.
        -13    1    4    4    0    0  0.29476371064E+00  0.70218883649E-01  0.35608473549E+00  0.47920525413E+00  0.10500000000E+00 0. -1.
         13    1    4    4    0    0  0.93950476370E+00  0.26074563434E+00  0.97649028799E+00  0.13839132088E+01  0.10500000000E+00 0.  1.
    3000001    1    5    5    0    0 -0.10931787036E+01  0.47234603086E+01 -0.40915057549E+01  0.64223466355E+01  0.10000000000E+01 0.  1.
        -13    1    6    6    0    0 -0.10500058191E+02  0.11289516955E+02 -0.71440306741E+01  0.16992722394E+02  0.10500000000E+00 0. -1.
         13    1    6    6    0    0 -0.24040633968E+02  0.26073913691E+02 -0.16426191225E+02  0.39084931110E+02  0.10500000000E+00 0.  1.
</event>
<event>
11    0  0.3439373E-009  0.9118800E+02  0.7816531E-02  0.1126479E+00
         25   -1    0    0    0    0  0.00000000000E+00  0.00000000000E+00  0.99999998245E-14  0.12500000000E+03  0.12500000000E+03 0.  0.
    3000001    1    3    3    0    0 -0.35546975926E+02 -0.35365809723E+02  0.35520686735E+01  0.50278675268E+02  0.10000000000E+01 0.  1.
    1000022    2    1    0    0    0 -0.40937739503E+02 -0.45503695820E+02  0.77307467294E+01  0.62500005728E+02  0.10000071108E+02 0.  0.
    3000022    2    3    3    0    0 -0.53907635764E+01 -0.10137886096E+02  0.41786780558E+01  0.12221330459E+02  0.25000293389E+00 0.  0.
    1000022    2    1    0    0    0  0.40937739503E+02  0.45503695820E+02 -0.77307467294E+01  0.62499994272E+02  0.99999995099E+01 0.  0.
    3000022    2    5    5    0    0  0.28684805866E+02  0.36490661839E+02 -0.87048554339E+01  0.47225242162E+02  0.25000034887E+00 0.  0.
        -13    1    4    4    0    0 -0.25150884801E+01 -0.48576599966E+01  0.19576043361E+01  0.58108321643E+01  0.10500000000E+00 0.  1.
         13    1    4    4    0    0 -0.28756750963E+01 -0.52802260997E+01  0.22210737197E+01  0.64104982951E+01  0.10500000000E+00 0. -1.
    3000001    1    5    5    0    0  0.12252933637E+02  0.90130339806E+01  0.97410870451E+00  0.15274752110E+02  0.10000000000E+01 0. -1.
        -13    1    6    6    0    0  0.14493835861E+02  0.18328394033E+02 -0.43785086594E+01  0.23773591837E+02  0.10500000000E+00 0.  1.
         13    1    6    6    0    0  0.14190970005E+02  0.18162267806E+02 -0.43263467745E+01  0.23451650325E+02  0.10500000000E+00 0. -1.
</event>
<event>
11    0  0.3439373E-009  0.9118800E+02  0.7816531E-02  0.1126479E+00
         25   -1    0    0    0    0  0.00000000000E+00  0.00000000000E+00  0.99999998245E-14  0.12500000000E+03  0.12500000000E+03 0.  0.
    3000001    1    3    3    0    0  0.79818572604E+01 -0.40680523974E+00  0.56179928299E+00  0.80741039294E+01  0.10000000000E+01 0.  1.
    1000022    2    1    0    0    0  0.56214117141E+02  0.14948409585E+02  0.20561340558E+02  0.62499995570E+02  0.99999402782E+01 0.  0.
    3000022    2    3    3    0    0  0.48232259881E+02  0.15355214825E+02  0.19999541275E+02  0.54425891640E+02  0.25002817929E+00 0.  0.
    1000022    2    1    0    0    0 -0.56214117141E+02 -0.14948409585E+02 -0.20561340558E+02  0.62500004430E+02  0.99999956586E+01 0.  0.
    3000022    2    5    5    0    0 -0.10495519111E+02 -0.69677864063E+01 -0.43836872481E+01  0.13341108808E+02  0.25000306825E+00 0.  0.
        -13    1    4    4    0    0  0.31278476116E+02  0.99224458446E+01  0.13014526709E+02  0.35301372921E+02  0.10500000000E+00 0. -1.
         13    1    4    4    0    0  0.16953783765E+02  0.54327689802E+01  0.69850145666E+01  0.19124518719E+02  0.10500000000E+00 0.  1.
    3000001    1    5    5    0    0 -0.45718598030E+02 -0.79806231788E+01 -0.16177653310E+02  0.49158895622E+02  0.10000000000E+01 0. -1.
        -13    1    6    6    0    0 -0.70911398635E+01 -0.46711672149E+01 -0.29097395684E+01  0.89767297536E+01  0.10500000000E+00 0. -1.
         13    1    6    6    0    0 -0.34043792477E+01 -0.22966191914E+01 -0.14739476798E+01  0.43643790549E+01  0.10500000000E+00 0.  1.
</event>
<event>
11    0  0.3439373E-009  0.9118800E+02  0.7816531E-02  0.1126479E+00
         25   -1    0    0    0    0  0.00000000000E+00  0.00000000000E+00  0.99999998245E-14  0.12500000000E+03  0.12500000000E+03 0.  0.
    3000001    1    3    3    0    0  0.41192690680E+02  0.14241601810E+02  0.10416469742E+02  0.44823697186E+02  0.10000000000E+01 0. -1.
    1000022    2    1    0    0    0  0.54894304108E+02  0.25197107241E+02  0.12568672732E+02  0.62500003012E+02  0.10000000270E+02 0.  0.
    3000022    2    3    3    0    0  0.13701613428E+02  0.10955505431E+02  0.21522029898E+01  0.17676305826E+02  0.25000028832E+00 0.  0.
    1000022    2    1    0    0    0 -0.54894304108E+02 -0.25197107241E+02 -0.12568672732E+02  0.62499996988E+02  0.99999626205E+01 0.  0.
    3000022    2    5    5    0    0 -0.48179936180E+02 -0.19414099269E+02 -0.13083942464E+02  0.53567392621E+02  0.25000213812E+00 0.  0.
        -13    1    4    4    0    0  0.67256943738E+01  0.54596863086E+01  0.10852349233E+01  0.87310880901E+01  0.10500000000E+00 0.  1.
         13    1    4    4    0    0  0.69759190547E+01  0.54958191221E+01  0.10669680665E+01  0.89452177355E+01  0.10500000000E+00 0. -1.
    3000001    1    5    5    0    0 -0.67143679279E+01 -0.57830079722E+01  0.51526973192E+00  0.89326043668E+01  0.10000000000E+01 0. -1.
        -13    1    6    6    0    0 -0.18409708502E+02 -0.73796623642E+01 -0.50468733747E+01  0.20466038688E+02  0.10500000000E+00 0.  1.
         13    1    6    6    0    0 -0.29770227679E+02 -0.12034436905E+02 -0.80370690895E+01  0.33101353933E+02  0.10500000000E+00 0. -1.
</event>
<event>
11    0  0.3439373E-009  0.9118800E+02  0.7816531E-02  0.1126479E+00
         25   -1    0    0    0    0  0.00000000000E+00  0.00000000000E+00  0.99999998245E-14  0.12500000000E+03  0.12500000000E+03 0.  0.
    3000001    1    3    3    0    0  0.29099009033E+02  0.24001737994E+01 -0.24102246536E+02  0.37873888750E+02  0.10000000000E+01 0. -1.
    1000022    2    1    0    0    0  0.44219016105E+02  0.10730818861E+02 -0.41662671773E+02  0.62499998810E+02  0.99999886624E+01 0.  0.
    3000022    2    3    3    0    0  0.15120007072E+02  0.83306450620E+01 -0.17560425237E+02  0.24626110059E+02  0.25000233524E+00 0.  0.
    1000022    2    1    0    0    0 -0.44219016105E+02 -0.10730818861E+02  0.41662671773E+02  0.62500001190E+02  0.10000003541E+02 0.  0.
    3000022    2    5    5    0    0 -0.16028320241E+02  0.52208081444E+00  0.17055281893E+02  0.23412065441E+02  0.25009930324E+00 0.  0.
        -13    1    4    4    0    0  0.72057613060E+01  0.39175066067E+01 -0.82726483399E+01  0.11649789250E+02  0.10500000000E+00 0.  1.
         13    1    4    4    0    0  0.79142457657E+01  0.44131384553E+01 -0.92877768969E+01  0.12976320810E+02  0.10500000000E+00 0. -1.
    3000001    1    5    5    0    0 -0.28190695864E+02 -0.11252899676E+02  0.24607389880E+02  0.39087935749E+02  0.10000000000E+01 0. -1.
        -13    1    6    6    0    0 -0.80519096410E+01  0.19701389601E+00  0.85379113983E+01  0.11737930797E+02  0.10500000000E+00 0.  1.
         13    1    6    6    0    0 -0.79764105999E+01  0.32506691843E+00  0.85173704947E+01  0.11674134645E+02  0.10500000000E+00 0. -1.
</event>
<event>
11    0  0.3439373E-009  0.9118800E+02  0.7816531E-02  0.1126479E+00
         25   -1    0    0    0    0  0.00000000000E+00  0.00000000000E+00  0.99999998245E-14  0.12500000000E+03  0.12500000000E+03 0.  0.
    3000001    1    3    3    0    0 -0.64404212884E+01 -0.84301616047E+01 -0.21370238513E+00  0.10657969777E+02  0.10000000000E+01 0. -1.
    1000022    2    1    0    0    0 -0.36429629883E+02 -0.45699730353E+02  0.19765289586E+02  0.62499999143E+02  0.99999966348E+01 0.  0.
    3000022    2    3    3    0    0 -0.29989208594E+02 -0.37269568748E+02  0.19978991971E+02  0.51842029366E+02  0.25000359568E+00 0.  0.
    1000022    2    1    0    0    0  0.36429629883E+02  0.45699730353E+02 -0.19765289586E+02  0.62500000857E+02  0.10000007351E+02 0.  0.
    3000022    2    5    5    0    0  0.11934580612E+02  0.18920089438E+02 -0.11946909992E+02  0.25361292401E+02  0.24999035628E+00 0.  0.
        -13    1    4    4    0    0 -0.15751040176E+02 -0.19616834850E+02  0.10439701358E+02  0.27238095851E+02  0.10500000000E+00 0.  1.
         13    1    4    4    0    0 -0.14238168418E+02 -0.17652733898E+02  0.95392906136E+01  0.24603933515E+02  0.10500000000E+00 0. -1.
    3000001    1    5    5    0    0  0.24495049271E+02  0.26779640915E+02 -0.78183795944E+01  0.37138708456E+02  0.10000000000E+01 0.  1.
        -13    1    6    6    0    0  0.85076112497E+01  0.13538489495E+02 -0.85745083511E+01  0.18143962231E+02  0.10500000000E+00 0.  1.
         13    1    6    6    0    0  0.34269693622E+01  0.53815999426E+01 -0.33724016408E+01  0.72173301698E+01  0.10500000000E+00 0. -1.
</event>
<event>
11    0  0.3439373E-009  0.9118800E+02  0.7816531E-02  0.1126479E+00
         25   -1    0    0    0    0  0.00000000000E+00  0.00000000000E+00  0.99999998245E-14  0.12500000000E+03  0.12500000000E+03 0.  0.
    3000001    1    3    3    0    0  0.92887333808E+01  0.32408742799E+02  0.31744321068E+02  0.46317481556E+02  0.10000000000E+01 0.  1.
    1000022    2    1    0    0    0  0.76018059331E+01  0.45898058960E+02  0.40519512113E+02  0.62499999089E+02  0.99999877279E+01 0.  0.
    3000022    2    3    3    0    0 -0.16869274477E+01  0.13489316161E+02  0.87751910453E+01  0.16182517534E+02  0.25004226393E+00 0.  0.
    1000022    2    1    0    0    0 -0.76018059331E+01 -0.45898058960E+02 -0.40519512113E+02  0.62500000911E+02  0.99999991117E+01 0.  0.
    3000022    2    5    5    0    0 -0.76886159625E+01 -0.17527318467E+02 -0.14837204194E+02  0.24218316097E+02  0.24999647360E+00 0.  0.
        -13    1    4    4    0    0 -0.89030667003E+00  0.65984018025E+01  0.42732582919E+01  0.79122255872E+01  0.10500000000E+00 0.  1.
         13    1    4    4    0    0 -0.79662077765E+00  0.68909143588E+01  0.45019327534E+01  0.82702919465E+01  0.10500000000E+00 0. -1.
    3000001    1    5    5    0    0  0.86810029446E-01 -0.28370740493E+02 -0.25682307919E+02  0.38281684814E+02  0.10000000000E+01 0.  1.
        -13    1    6    6    0    0 -0.23307874537E+01 -0.52070783657E+01 -0.44420350913E+01  0.72311089062E+01  0.10500000000E+00 0.  1.
         13    1    6    6    0    0 -0.53578285088E+01 -0.12320240101E+02 -0.10395169102E+02  0.16987207191E+02  0.10500000000E+00 0. -1.
</event>
<event>
11    0  0.3439373E-009  0.9118800E+02  0.7816531E-02  0.1126479E+00
         25   -1    0    0    0    0  0.00000000000E+00  0.00000000000E+00  0.99999998245E-14  0.12500000000E+03  0.12500000000E+03 0.  0.
    3000001    1    3    3    0    0  0.65007150448E+00 -0.10288025021E+01 -0.43133777405E+02  0.43162527507E+02  0.10000000000E+01 0.  1.
    1000022    2    1    0    0    0  0.66074862850E+01 -0.46945819855E+01 -0.61160052587E+02  0.62499999436E+02  0.99999960994E+01 0.  0.
    3000022    2    3    3    0    0  0.59574147805E+01 -0.36657794834E+01 -0.18026275181E+02  0.19337471928E+02  0.24998714705E+00 0.  0.
    1000022    2    1    0    0    0 -0.66074862850E+01  0.46945819855E+01  0.61160052587E+02  0.62500000564E+02  0.10000003155E+02 0.  0.
    3000022    2    5    5    0    0 -0.63986586198E+01  0.35287378344E+01  0.60271380205E+02  0.60713232482E+02  0.25000752699E+00 0.  0.
        -13    1    4    4    0    0  0.39292516881E+01 -0.23837161706E+01 -0.11709613548E+02  0.12579634178E+02  0.10500000000E+00 0.  1.
         13    1    4    4    0    0  0.20281630924E+01 -0.12820633128E+01 -0.63166616334E+01  0.67578377503E+01  0.10500000000E+00 0. -1.
    3000001    1    5    5    0    0 -0.20882766520E+00  0.11658441511E+01  0.88867238201E+00  0.17867680826E+01  0.10000000000E+01 0.  1.
        -13    1    6    6    0    0 -0.39255925122E+01  0.21211348539E+01  0.37198740335E+02  0.37465541463E+02  0.10500000000E+00 0. -1.
         13    1    6    6    0    0 -0.24730661076E+01  0.14076029805E+01  0.23072639870E+02  0.23247691019E+02  0.10500000000E+00 0.  1.
</event>
<event>
11    0  0.3439373E-009  0.9118800E+02  0.7816531E-02  0.1126479E+00
         25   -1    0    0    0    0  0.00000000000E+00  0.00000000000E+00  0.99999998245E-14  0.12500000000E+03  0.12500000000E+03 0.  0.
    3000001    1    3    3    0    0  0.77143730504E+01  0.89991515927E+01 -0.55975768948E+01  0.13146450017E+02  0.10000000000E+01 0.  1.
    1000022    2    1    0    0    0  0.38175685695E+02  0.47726373352E+02 -0.84297263045E+01  0.62499999460E+02  0.99999977639E+01 0.  0.
    3000022    2    3    3    0    0  0.30461312645E+02  0.38727221759E+02 -0.28321494097E+01  0.49353549443E+02  0.24999823619E+00 0.  0.
    1000022    2    1    0    0    0 -0.38175685695E+02 -0.47726373352E+02  0.84297263045E+01  0.62500000540E+02  0.10000004517E+02 0.  0.
    3000022    2    5    5    0    0 -0.13286083834E+02 -0.23148579834E+02  0.90780497562E+00  0.26706991230E+02  0.24999740037E+00 0.  0.
        -13    1    4    4    0    0  0.21859254398E+02  0.27854472508E+02 -0.20268781663E+01  0.35465728551E+02  0.10500000000E+00 0.  1.
         13    1    4    4    0    0  0.86020582464E+01  0.10872749252E+02 -0.80527124339E+00  0.13887820892E+02  0.10500000000E+00 0. -1.
    3000001    1    5    5    0    0 -0.24889601861E+02 -0.24577793518E+02  0.75219213289E+01  0.35793009311E+02  0.10000000000E+01 0. -1.
        -13    1    6    6    0    0 -0.85746558695E+01 -0.14827862137E+02  0.59809065336E+00  0.17139397780E+02  0.10500000000E+00 0.  1.
         13    1    6    6    0    0 -0.47114279644E+01 -0.83207176971E+01  0.30971432226E+00  0.95675934497E+01  0.10500000000E+00 0. -1.
</event>
<event>
11    0  0.3439373E-009  0.9118800E+02  0.7816531E-02  0.1126479E+00
         25   -1    0    0    0    0  0.00000000000E+00  0.00000000000E+00  0.99999998245E-14  0.12500000000E+03  0.12500000000E+03 0.  0.
    3000001    1    3    3    0    0  0.98967413685E+01  0.96853223902E+01 -0.45051381604E+02  0.47142103729E+02  0.10000000000E+01 0.  1.
    1000022    2    1    0    0    0  0.74669671203E+01  0.13137969224E+02 -0.59815453307E+02  0.62499997010E+02  0.99999669340E+01 0.  0.
    3000022    2    3    3    0    0 -0.24297742481E+01  0.34526468337E+01 -0.14764071702E+02  0.15357893281E+02  0.24999950930E+00 0.  0.
    1000022    2    1    0    0    0 -0.74669671203E+01 -0.13137969224E+02  0.59815453307E+02  0.62500002990E+02  0.10000004305E+02 0.  0.
    3000022    2    5    5    0    0 -0.34642653660E+01 -0.58292612948E+01  0.10682764893E+02  0.12655646201E+02  0.24998646616E+00 0.  0.
        -13    1    4    4    0    0 -0.11101581015E+01  0.16545374844E+01 -0.67827901251E+01  0.70701635185E+01  0.10500000000E+00 0. -1.
         13    1    4    4    0    0 -0.13196161466E+01  0.17981093493E+01 -0.79812815774E+01  0.82877297630E+01  0.10500000000E+00 0.  1.
    3000001    1    5    5    0    0 -0.40027017543E+01 -0.73087079290E+01  0.49132688413E+02  0.49844356789E+02  0.10000000000E+01 0.  1.
        -13    1    6    6    0    0 -0.16544366423E+01 -0.26801063321E+01  0.48846713695E+01  0.58130172839E+01  0.10500000000E+00 0. -1.
         13    1    6    6    0    0 -0.18098287237E+01 -0.31491549627E+01  0.57980935238E+01  0.68426289173E+01  0.10500000000E+00 0.  1.
</event>
<event>
11    0  0.3439373E-009  0.9118800E+02  0.7816531E-02  0.1126479E+00
         25   -1    0    0    0    0  0.00000000000E+00  0.00000000000E+00  0.99999998245E-14  0.12500000000E+03  0.12500000000E+03 0.  0.
    3000001    1    3    3    0    0 -0.52247870836E+01  0.71682975841E+01  0.47183472132E+02  0.48020442863E+02  0.10000000000E+01 0.  1.
    1000022    2    1    0    0    0 -0.39768078364E+01  0.13772204037E+02  0.60006344217E+02  0.62499999876E+02  0.10000001676E+02 0.  0.
    3000022    2    3    3    0    0  0.12479792472E+01  0.66039064526E+01  0.12822872085E+02  0.14479557013E+02  0.24998025687E+00 0.  0.
    1000022    2    1    0    0    0  0.39768078364E+01 -0.13772204037E+02 -0.60006344217E+02  0.62500000124E+02  0.10000003232E+02 0.  0.
    3000022    2    5    5    0    0  0.63628448522E+01 -0.11819363599E+02 -0.39026167830E+02  0.41270903119E+02  0.25003654314E+00 0.  0.
        -13    1    4    4    0    0  0.94295551438E+00  0.50489126500E+01  0.97712650514E+01  0.11039444268E+02  0.10500000000E+00 0.  1.
         13    1    4    4    0    0  0.30502373286E+00  0.15549938025E+01  0.30516070339E+01  0.34401127442E+01  0.10500000000E+00 0. -1.
    3000001    1    5    5    0    0 -0.23860370158E+01 -0.19528404372E+01 -0.20980176387E+02  0.21229097005E+02  0.10000000000E+01 0. -1.
        -13    1    6    6    0    0  0.44724738296E+01 -0.83729796572E+01 -0.27499765048E+02  0.29092231148E+02  0.10500000000E+00 0.  1.
         13    1    6    6    0    0  0.18903710226E+01 -0.34463839422E+01 -0.11526402782E+02  0.12178671971E+02  0.10500000000E+00 0. -1.
</event>
<event>
11    0  0.3439373E-009  0.9118800E+02  0.7816531E-02  0.1126479E+00
         25   -1    0    0    0    0  0.00000000000E+00  0.00000000000E+00  0.99999998245E-14  0.12500000000E+03  0.12500000000E+03 0.  0.
    3000001    1    3    3    0    0  0.35520438356E+01  0.36808677300E+01  0.59883095257E+01  0.79388697956E+01  0.10000000000E+01 0. -1.
    1000022    2    1    0    0    0  0.37396148412E+01  0.29861104042E+02  0.53857031449E+02  0.62500000602E+02  0.99999992468E+01 0.  0.
    3000022    2    3    3    0    0  0.18757100554E+00  0.26180236312E+02  0.47868721924E+02  0.54561130806E+02  0.25000004715E+00 0.  0.
    1000022    2    1    0    0    0 -0.37396148412E+01 -0.29861104042E+02 -0.53857031449E+02  0.62499999398E+02  0.99999917272E+01 0.  0.
    3000022    2    5    5    0    0 -0.40337197083E+01 -0.23898838231E+02 -0.49257447111E+02  0.54897941298E+02  0.24999894482E+00 0.  0.
        -13    1    4    4    0    0  0.82765918259E-01  0.83779125285E+01  0.15224961845E+02  0.17378341599E+02  0.10500000000E+00 0.  1.
         13    1    4    4    0    0  0.10480508728E+00  0.17802323783E+02  0.32643760078E+02  0.37182789207E+02  0.10500000000E+00 0. -1.
    3000001    1    5    5    0    0  0.29410486714E+00 -0.59622658105E+01 -0.45995843385E+01  0.76020580999E+01  0.10000000000E+01 0.  1.
        -13    1    6    6    0    0 -0.20220214718E+01 -0.11630324234E+02 -0.24069617826E+02  0.26808777292E+02  0.10500000000E+00 0.  1.
         13    1    6    6    0    0 -0.20116982365E+01 -0.12268513997E+02 -0.25187829284E+02  0.28089164006E+02  0.10500000000E+00 0. -1.
</event>
<event>
11    0  0.3439373E-009  0.9118800E+02  0.7816531E-02  0.1126479E+00
         25   -1    0    0    0    0  0.00000000000E+00  0.00000000000E+00  0.99999998245E-14  0.12500000000E+03  0.12500000000E+03 0.  0.
    3000001    1    3    3    0    0 -0.16416411688E+02  0.23378819973E+02 -0.66442015268E+01  0.29346434365E+02  0.10000000000E+01 0.  1.
    1000022    2    1    0    0    0 -0.32980867777E+02  0.46349294199E+02 -0.23880004268E+02  0.62500005661E+02  0.10000069588E+02 0.  0.
    3000022    2    3    3    0    0 -0.16564456088E+02  0.22970474226E+02 -0.17235802741E+02  0.33153571296E+02  0.25000369541E+00 0.  0.
    1000022    2    1    0    0    0  0.32980867777E+02 -0.46349294199E+02  0.23880004268E+02  0.62499994339E+02  0.99999988262E+01 0.  0.
    3000022    2    5    5    0    0  0.65257271782E+01 -0.14766745435E+02  0.10105973962E+02  0.19048230722E+02  0.24999600499E+00 0.  0.
        -13    1    4    4    0    0 -0.84640401242E+01  0.11631261425E+02 -0.87866535255E+01  0.16856527600E+02  0.10500000000E+00 0. -1.
         13    1    4    4    0    0 -0.81004159641E+01  0.11339212801E+02 -0.84491492159E+01  0.16297043695E+02  0.10500000000E+00 0.  1.
    3000001    1    5    5    0    0  0.26455140598E+02 -0.31582548764E+02  0.13774030306E+02  0.43451763617E+02  0.10000000000E+01 0. -1.
        -13    1    6    6    0    0  0.37487502971E+01 -0.84265878392E+01  0.58454406254E+01  0.10919739581E+02  0.10500000000E+00 0. -1.
         13    1    6    6    0    0  0.27769768811E+01 -0.63401575954E+01  0.42605333366E+01  0.81284911419E+01  0.10500000000E+00 0.  1.
</event>
<event>
11    0  0.3439373E-009  0.9118800E+02  0.7816531E-02  0.1126479E+00
         25   -1    0    0    0    0  0.00000000000E+00  0.00000000000E+00  0.99999998245E-14  0.12500000000E+03  0.12500000000E+03 0.  0.
    3000001    1    3    3    0    0 -0.54794227301E+01 -0.47459958681E+01 -0.14637682833E+02  0.16364910906E+02  0.10000000000E+01 0.  1.
    1000022    2    1    0    0    0 -0.10573932122E+02 -0.30483547405E+02 -0.52585125035E+02  0.62500000091E+02  0.99999966720E+01 0.  0.
    3000022    2    3    3    0    0 -0.50945093921E+01 -0.25737551537E+02 -0.37947442203E+02  0.46135089185E+02  0.24999868254E+00 0.  0.
    1000022    2    1    0    0    0  0.10573932122E+02  0.30483547405E+02  0.52585125035E+02  0.62499999909E+02  0.99999955359E+01 0.  0.
    3000022    2    5    5    0    0  0.12381991167E+02  0.27190957009E+02  0.47085718240E+02  0.55765484029E+02  0.24999717668E+00 0.  0.
        -13    1    4    4    0    0 -0.34382597306E+01 -0.17464915955E+02 -0.25660586099E+02  0.31230139661E+02  0.10500000000E+00 0. -1.
         13    1    4    4    0    0 -0.16562496615E+01 -0.82726355818E+01 -0.12286856104E+02  0.14904949524E+02  0.10500000000E+00 0.  1.
    3000001    1    5    5    0    0 -0.18080590447E+01  0.32925903967E+01  0.54994067958E+01  0.67345158798E+01  0.10000000000E+01 0.  1.
        -13    1    6    6    0    0  0.89548749861E+01  0.19569480476E+02  0.33915239308E+02  0.40167260728E+02  0.10500000000E+00 0. -1.
         13    1    6    6    0    0  0.34271161808E+01  0.76214765329E+01  0.13170478932E+02  0.15598223301E+02  0.10500000000E+00 0.  1.
</event>
<event>
11    0  0.3439373E-009  0.9118800E+02  0.7816531E-02  0.1126479E+00
         25   -1    0    0    0    0  0.00000000000E+00  0.00000000000E+00  0.99999998245E-14  0.12500000000E+03  0.12500000000E+03 0.  0.
    3000001    1    3    3    0    0  0.18419848159E+01  0.35239616736E+02  0.91863785246E+01  0.36477569083E+02  0.10000000000E+01 0. -1.
    1000022    2    1    0    0    0 -0.48900622222E+01  0.60006415342E+02  0.13474694490E+02  0.62500000359E+02  0.10000003130E+02 0.  0.
    3000022    2    3    3    0    0 -0.67320470381E+01  0.24766798605E+02  0.42883159654E+01  0.26022431276E+02  0.25001047110E+00 0.  0.
    1000022    2    1    0    0    0  0.48900622222E+01 -0.60006415342E+02 -0.13474694490E+02  0.62499999641E+02  0.99999986418E+01 0.  0.
    3000022    2    5    5    0    0  0.19134810284E+01 -0.29385185427E+02 -0.15503989843E+01  0.29489265320E+02  0.24999978772E+00 0.  0.
        -13    1    4    4    0    0 -0.47670466887E+01  0.17696556556E+02  0.30624859684E+01  0.18581783913E+02  0.10500000000E+00 0.  1.
         13    1    4    4    0    0 -0.19650003494E+01  0.70702420495E+01  0.12258299970E+01  0.74406473638E+01  0.10500000000E+00 0. -1.
    3000001    1    5    5    0    0  0.29765811939E+01 -0.30621229915E+02 -0.11924295506E+02  0.33010734321E+02  0.10000000000E+01 0. -1.
        -13    1    6    6    0    0  0.60612403057E+00 -0.99039997510E+01 -0.48443578486E+00  0.99349031418E+01  0.10500000000E+00 0.  1.
         13    1    6    6    0    0  0.13073569978E+01 -0.19481185676E+02 -0.10659631995E+01  0.19554362178E+02  0.10500000000E+00 0. -1.
</event>
<event>
11    0  0.3439373E-009  0.9118800E+02  0.7816531E-02  0.1126479E+00
         25   -1    0    0    0    0  0.00000000000E+00  0.00000000000E+00  0.99999998245E-14  0.12500000000E+03  0.12500000000E+03 0.  0.
    3000001    1    3    3    0    0 -0.17833372964E+02 -0.17517549136E+02  0.93374207051E+01  0.26703579244E+02  0.10000000000E+01 0. -1.
    1000022    2    1    0    0    0 -0.47789813008E+02 -0.31387260148E+02  0.23178087757E+02  0.62500000134E+02  0.99999968882E+01 0.  0.
    3000022    2    3    3    0    0 -0.29956440045E+02 -0.13869711012E+02  0.13840667052E+02  0.35796420891E+02  0.25000089073E+00 0.  0.
    1000022    2    1    0    0    0  0.47789813008E+02  0.31387260148E+02 -0.23178087757E+02  0.62499999866E+02  0.99999952076E+01 0.  0.
    3000022    2    5    5    0    0  0.13096745659E+01 -0.48194291351E-02  0.73081935071E+00  0.15204806079E+01  0.24998732019E+00 0.  0.
        -13    1    4    4    0    0 -0.14139477799E+02 -0.64783442743E+01  0.64917210951E+01  0.16853701218E+02  0.10500000000E+00 0.  1.
         13    1    4    4    0    0 -0.15816962245E+02 -0.73913667376E+01  0.73489459565E+01  0.18942719673E+02  0.10500000000E+00 0. -1.
    3000001    1    5    5    0    0  0.46480138442E+02  0.31392079577E+02 -0.23908907107E+02  0.60979519258E+02  0.10000000000E+01 0.  1.
        -13    1    6    6    0    0  0.75576641987E+00  0.36044067007E-01  0.47929954520E+00  0.90179549245E+00  0.10500000000E+00 0. -1.
         13    1    6    6    0    0  0.55390814604E+00 -0.40863496142E-01  0.25151980551E+00  0.61868511550E+00  0.10500000000E+00 0.  1.
</event>
<event>
11    0  0.3439373E-009  0.9118800E+02  0.7816531E-02  0.1126479E+00
         25   -1    0    0    0    0  0.00000000000E+00  0.00000000000E+00  0.99999998245E-14  0.12500000000E+03  0.12500000000E+03 0.  0.
    3000001    1    3    3    0    0 -0.16748563514E+01 -0.52184336020E+01 -0.49803581262E+01  0.74726943013E+01  0.10000000000E+01 0.  1.
    1000022    2    1    0    0    0  0.10757836099E+02 -0.38194932865E+02 -0.47240512671E+02  0.62500001209E+02  0.10000008978E+02 0.  0.
    3000022    2    3    3    0    0  0.12432692451E+02 -0.32976499263E+02 -0.42260154545E+02  0.55027306908E+02  0.24999620677E+00 0.  0.
    1000022    2    1    0    0    0 -0.10757836099E+02  0.38194932865E+02  0.47240512671E+02  0.62499998791E+02  0.99999938623E+01 0.  0.
    3000022    2    5    5    0    0 -0.87385705706E+01  0.31027153819E+02  0.43400093677E+02  0.54061793544E+02  0.25000056800E+00 0.  0.
        -13    1    4    4    0    0  0.94958901138E+01 -0.25197929827E+02 -0.32312904816E+02  0.42062363691E+02  0.10500000000E+00 0. -1.
         13    1    4    4    0    0  0.29368023370E+01 -0.77785694364E+01 -0.99472497292E+01  0.12964943217E+02  0.10500000000E+00 0.  1.
    3000001    1    5    5    0    0 -0.20192655288E+01  0.71677790468E+01  0.38404189945E+01  0.84382052471E+01  0.10000000000E+01 0. -1.
        -13    1    6    6    0    0 -0.28805711679E+01  0.10071215538E+02  0.14054063190E+02  0.17528684772E+02  0.10500000000E+00 0. -1.
         13    1    6    6    0    0 -0.58579994027E+01  0.20955938280E+02  0.29346030487E+02  0.36533108772E+02  0.10500000000E+00 0.  1.
</event>
<event>
11    0  0.3439373E-009  0.9118800E+02  0.7816531E-02  0.1126479E+00
         25   -1    0    0    0    0  0.00000000000E+00  0.00000000000E+00  0.99999998245E-14  0.12500000000E+03  0.12500000000E+03 0.  0.
    3000001    1    3    3    0    0 -0.14773696821E+02 -0.20828848335E+02  0.21529827411E+02  0.33416111519E+02  0.10000000000E+01 0. -1.
    1000022    2    1    0    0    0 -0.29362695483E+02 -0.30963472188E+02  0.44557215205E+02  0.62500000057E+02  0.10000004213E+02 0.  0.
    3000022    2    3    3    0    0 -0.14588998662E+02 -0.10134623853E+02  0.23027387794E+02  0.29083888537E+02  0.25000243850E+00 0.  0.
    1000022    2    1    0    0    0  0.29362695483E+02  0.30963472188E+02 -0.44557215205E+02  0.62499999943E+02  0.10000003505E+02 0.  0.
    3000022    2    5    5    0    0  0.16886746789E+01  0.11366915903E+01  0.13165454888E+00  0.20551213497E+01  0.25000179839E+00 0.  0.
        -13    1    4    4    0    0 -0.58655658072E+01 -0.40049818246E+01  0.92504183027E+01  0.11663018710E+02  0.10500000000E+00 0. -1.
         13    1    4    4    0    0 -0.87234328550E+01 -0.61296420285E+01  0.13776969492E+02  0.17420869827E+02  0.10500000000E+00 0.  1.
    3000001    1    5    5    0    0  0.27674020804E+02  0.29826780598E+02 -0.44688869754E+02  0.60444878594E+02  0.10000000000E+01 0.  1.
        -13    1    6    6    0    0  0.99755741220E+00  0.74610931214E+00  0.77765304747E-01  0.12525463420E+01  0.10500000000E+00 0.  1.
         13    1    6    6    0    0  0.69111726667E+00  0.39058227820E+00  0.53889244129E-01  0.80257500769E+00  0.10500000000E+00 0.  1.
</event>
<event>
11    0  0.3439373E-009  0.9118800E+02  0.7816531E-02  0.1126479E+00
         25   -1    0    0    0    0  0.00000000000E+00  0.00000000000E+00  0.99999998245E-14  0.12500000000E+03  0.12500000000E+03 0.  0.
    3000001    1    3    3    0    0  0.16685667623E+02  0.47644767410E+02 -0.16819749869E+02  0.53219727088E+02  0.10000000000E+01 0.  1.
    1000022    2    1    0    0    0  0.22283415522E+02  0.53349666466E+02 -0.21529344645E+02  0.62499998628E+02  0.99999814156E+01 0.  0.
    3000022    2    3    3    0    0  0.55977478989E+01  0.57048990555E+01 -0.47095947756E+01  0.92802715404E+01  0.25000427871E+00 0.  0.
    1000022    2    1    0    0    0 -0.22283415522E+02 -0.53349666466E+02  0.21529344645E+02  0.62500001372E+02  0.99999985633E+01 0.  0.
    3000022    2    5    5    0    0 -0.17151905987E+01 -0.53533563257E+01  0.54992504323E+01  0.78679449941E+01  0.25000074712E+00 0.  0.
        -13    1    4    4    0    0  0.33163451178E+01  0.33411889140E+01 -0.27060955923E+01  0.54309913141E+01  0.10500000000E+00 0. -1.
         13    1    4    4    0    0  0.22814027812E+01  0.23637101416E+01 -0.20034991833E+01  0.38492802263E+01  0.10500000000E+00 0.  1.
    3000001    1    5    5    0    0 -0.20568224924E+02 -0.47996310140E+02  0.16030094213E+02  0.54632056378E+02  0.10000000000E+01 0.  1.
        -13    1    6    6    0    0 -0.13238683252E+01 -0.40825819656E+01  0.41865851018E+01  0.59965508972E+01  0.10500000000E+00 0. -1.
         13    1    6    6    0    0 -0.39132227356E+00 -0.12707743601E+01  0.13126653305E+01  0.18713940969E+01  0.10500000000E+00 0.  1.
</event>
<event>
11    0  0.3439373E-009  0.9118800E+02  0.7816531E-02  0.1126479E+00
         25   -1    0    0    0    0  0.00000000000E+00  0.00000000000E+00  0.99999998245E-14  0.12500000000E+03  0.12500000000E+03 0.  0.
    3000001    1    3    3    0    0 -0.19688610918E+02  0.45785623723E+02  0.15272930549E+02  0.52136620020E+02  0.10000000000E+01 0. -1.
    1000022    2    1    0    0    0 -0.25130678633E+02  0.54532722777E+02  0.14173255254E+02  0.62500000112E+02  0.99999993732E+01 0.  0.
    3000022    2    3    3    0    0 -0.54420677154E+01  0.87470990539E+01 -0.10996752957E+01  0.10363380092E+02  0.25003657187E+00 0.  0.
    1000022    2    1    0    0    0  0.25130678633E+02 -0.54532722777E+02 -0.14173255254E+02  0.62499999888E+02  0.99999979738E+01 0.  0.
    3000022    2    5    5    0    0  0.16223245534E+02 -0.43727480408E+02 -0.87755331253E+01  0.47459021488E+02  0.25000084508E+00 0.  0.
        -13    1    4    4    0    0 -0.40533645038E+01  0.65528299155E+01 -0.84153349333E+00  0.77516802903E+01  0.10500000000E+00 0. -1.
         13    1    4    4    0    0 -0.13887032116E+01  0.21942691384E+01 -0.25814180234E+00  0.26116998012E+01  0.10500000000E+00 0.  1.
    3000001    1    5    5    0    0  0.89074330990E+01 -0.10805242368E+02 -0.53977221285E+01  0.15040978400E+02  0.10000000000E+01 0.  1.
        -13    1    6    6    0    0  0.67987385555E+01 -0.18297990855E+02 -0.37379735122E+01  0.19875180157E+02  0.10500000000E+00 0.  1.
         13    1    6    6    0    0  0.94245069788E+01 -0.25429489553E+02 -0.50375596131E+01  0.27583841331E+02  0.10500000000E+00 0. -1.
</event>
<event>
11    0  0.3439373E-009  0.9118800E+02  0.7816531E-02  0.1126479E+00
         25   -1    0    0    0    0  0.00000000000E+00  0.00000000000E+00  0.99999998245E-14  0.12500000000E+03  0.12500000000E+03 0.  0.
    3000001    1    3    3    0    0  0.30197609077E+01 -0.20259011721E+02  0.69642674650E+01  0.21657505239E+02  0.10000000000E+01 0.  1.
    1000022    2    1    0    0    0  0.83636434724E+01 -0.60749161672E+02  0.67704311751E+01  0.62500000359E+02  0.10000006526E+02 0.  0.
    3000022    2    3    3    0    0  0.53438825647E+01 -0.40490149951E+02 -0.19383628993E+00  0.40842495119E+02  0.25002231850E+00 0.  0.
    1000022    2    1    0    0    0 -0.83636434724E+01  0.60749161672E+02 -0.67704311751E+01  0.62499999641E+02  0.10000002041E+02 0.  0.
    3000022    2    5    5    0    0 -0.50781090854E+01  0.28206293890E+02  0.16568214824E+01  0.28708705392E+02  0.25000189534E+00 0.  0.
        -13    1    4    4    0    0  0.36837430545E+01 -0.27564466805E+02 -0.15425680834E+00  0.27810153061E+02  0.10500000000E+00 0.  1.
         13    1    4    4    0    0  0.16601395102E+01 -0.12925683146E+02 -0.39579481591E-01  0.13032342058E+02  0.10500000000E+00 0. -1.
    3000001    1    5    5    0    0 -0.32855343870E+01  0.32542867782E+02 -0.84272526575E+01  0.33791294250E+02  0.10000000000E+01 0. -1.
        -13    1    6    6    0    0 -0.38741693595E+01  0.21554243118E+02  0.12517691398E+01  0.21935645320E+02  0.10500000000E+00 0.  1.
         13    1    6    6    0    0 -0.12039397259E+01  0.66520507721E+01  0.40505234261E+00  0.67730600720E+01  0.10500000000E+00 0. -1.
</event>
<event>
11    0  0.3439373E-009  0.9118800E+02  0.7816531E-02  0.1126479E+00
         25   -1    0    0    0    0  0.00000000000E+00  0.00000000000E+00  0.99999998245E-14  0.12500000000E+03  0.12500000000E+03 0.  0.
    3000001    1    3    3    0    0  0.64295895105E+00  0.14522002875E+02  0.22193357762E+02  0.26548956523E+02  0.10000000000E+01 0. -1.
    1000022    2    1    0    0    0  0.14632547983E+01  0.42690484886E+02  0.44515518755E+02  0.62500001534E+02  0.10000008363E+02 0.  0.
    3000022    2    3    3    0    0  0.82029584721E+00  0.28168482011E+02  0.22322160993E+02  0.35951045010E+02  0.25000371810E+00 0.  0.
    1000022    2    1    0    0    0 -0.14632547983E+01 -0.42690484886E+02 -0.44515518755E+02  0.62499998466E+02  0.99999891932E+01 0.  0.
    3000022    2    5    5    0    0  0.75157217188E+00 -0.18215072798E+01 -0.58828848070E+01  0.62091537859E+01  0.25001516773E+00 0.  0.
        -13    1    4    4    0    0  0.52841158592E+00  0.15907415648E+02  0.12594848524E+02  0.20296953607E+02  0.10500000000E+00 0. -1.
         13    1    4    4    0    0  0.29188426129E+00  0.12261066364E+02  0.97273124685E+01  0.15654091403E+02  0.10500000000E+00 0.  1.
    3000001    1    5    5    0    0 -0.22148269701E+01 -0.40868977606E+02 -0.38632633948E+02  0.56290844681E+02  0.10000000000E+01 0. -1.
        -13    1    6    6    0    0  0.50956928112E+00 -0.13129769530E+01 -0.42768102625E+01  0.45039649591E+01  0.10500000000E+00 0.  1.
         13    1    6    6    0    0  0.24200289077E+00 -0.50853032679E+00 -0.16060745445E+01  0.17051888267E+01  0.10500000000E+00 0. -1.
</event>
<event>
11    0  0.3439373E-009  0.9118800E+02  0.7816531E-02  0.1126479E+00
         25   -1    0    0    0    0  0.00000000000E+00  0.00000000000E+00  0.99999998245E-14  0.12500000000E+03  0.12500000000E+03 0.  0.
    3000001    1    3    3    0    0  0.71278184232E+01 -0.46531489744E+02 -0.13413442480E+01  0.47103975815E+02  0.10000000000E+01 0.  1.
    1000022    2    1    0    0    0  0.11403083009E+02 -0.60238919102E+02 -0.68914280527E+01  0.62499996059E+02  0.10000002508E+02 0.  0.
    3000022    2    3    3    0    0  0.42752645861E+01 -0.13707429358E+02 -0.55500838047E+01  0.15396020244E+02  0.25000444831E+00 0.  0.
    1000022    2    1    0    0    0 -0.11403083009E+02  0.60238919102E+02  0.68914280527E+01  0.62500003941E+02  0.10000051764E+02 0.  0.
    3000022    2    5    5    0    0  0.52552489951E+00  0.91581660560E+01  0.38371207111E+01  0.99465662631E+01  0.25000629402E+00 0.  0.
        -13    1    4    4    0    0  0.10768931632E+01 -0.35528682258E+01 -0.14442727702E+01  0.39849115862E+01  0.10500000000E+00 0.  1.
         13    1    4    4    0    0  0.31983714229E+01 -0.10154561132E+02 -0.41058110344E+01  0.11411108658E+02  0.10500000000E+00 0. -1.
    3000001    1    5    5    0    0 -0.11928607909E+02  0.51080753046E+02  0.30543073416E+01  0.52553437677E+02  0.10000000000E+01 0.  1.
        -13    1    6    6    0    0  0.14758122563E+00  0.31875036130E+01  0.13824758680E+01  0.34791125344E+01  0.10500000000E+00 0.  1.
         13    1    6    6    0    0  0.37794367388E+00  0.59706624430E+01  0.24546448431E+01  0.64674537288E+01  0.10500000000E+00 0. -1.
</event>
<event>
11    0  0.3439373E-009  0.9118800E+02  0.7816531E-02  0.1126479E+00
         25   -1    0    0    0    0  0.00000000000E+00  0.00000000000E+00  0.99999998245E-14  0.12500000000E+03  0.12500000000E+03 0.  0.
    3000001    1    3    3    0    0 -0.56094251214E+01 -0.13318049667E+01  0.14946234489E+01  0.60393090594E+01  0.10000000000E+01 0.  1.
    1000022    2    1    0    0    0 -0.47388925064E+02 -0.39021862148E+02  0.61508832743E+01  0.62500005669E+02  0.10000069968E+02 0.  0.
    3000022    2    3    3    0    0 -0.41779499943E+02 -0.37690057181E+02  0.46562598255E+01  0.56460696610E+02  0.24996061305E+00 0.  0.
    1000022    2    1    0    0    0  0.47388925064E+02  0.39021862148E+02 -0.61508832743E+01  0.62499994331E+02  0.99999991026E+01 0.  0.
    3000022    2    5    5    0    0  0.14847371130E+00  0.14769933867E+01  0.87492078226E+00  0.17411321214E+01  0.25000156362E+00 0.  0.
        -13    1    4    4    0    0 -0.25320287431E+02 -0.22925683612E+02  0.28295312813E+01  0.34274206000E+02  0.10500000000E+00 0. -1.
         13    1    4    4    0    0 -0.16459212512E+02 -0.14764373570E+02  0.18267285442E+01  0.22186490610E+02  0.10500000000E+00 0.  1.
    3000001    1    5    5    0    0  0.47240451353E+02  0.37544868761E+02 -0.70258040566E+01  0.60758862209E+02  0.10000000000E+01 0. -1.
        -13    1    6    6    0    0  0.35771176511E-01  0.33335548018E+00  0.19817584259E+00  0.40336598496E+00  0.10500000000E+00 0.  1.
         13    1    6    6    0    0  0.11270253479E+00  0.11436379065E+01  0.67674493967E+00  0.13377661365E+01  0.10500000000E+00 0. -1.
</event>
<event>
11    0  0.3439373E-009  0.9118800E+02  0.7816531E-02  0.1126479E+00
         25   -1    0    0    0    0  0.00000000000E+00  0.00000000000E+00  0.99999998245E-14  0.12500000000E+03  0.12500000000E+03 0.  0.
    3000001    1    3    3    0    0 -0.49857666512E+01  0.63201433534E+01 -0.84438927944E+01  0.11709030986E+02  0.10000000000E+01 0. -1.
    1000022    2    1    0    0    0 -0.15319982471E+02  0.20934744973E+02 -0.55975749524E+02  0.62499999694E+02  0.10000000852E+02 0.  0.
    3000022    2    3    3    0    0 -0.10334215819E+02  0.14614601620E+02 -0.47531856729E+02  0.50790968708E+02  0.25000215218E+00 0.  0.
    1000022    2    1    0    0    0  0.15319982471E+02 -0.20934744973E+02  0.55975749524E+02  0.62500000306E+02  0.10000004675E+02 0.  0.
    3000022    2    5    5    0    0  0.43225572788E+01 -0.16345793905E+01  0.17090040213E+02  0.17705601761E+02  0.25001607703E+00 0.  0.
        -13    1    4    4    0    0 -0.71591435087E+01  0.10141380417E+02 -0.32831199174E+02  0.35099851805E+02  0.10500000000E+00 0.  1.
         13    1    4    4    0    0 -0.31750723107E+01  0.44732212031E+01 -0.14700657555E+02  0.15691116903E+02  0.10500000000E+00 0. -1.
    3000001    1    5    5    0    0  0.10997425192E+02 -0.19300165583E+02  0.38885709311E+02  0.44794398544E+02  0.10000000000E+01 0.  1.
        -13    1    6    6    0    0  0.11349472619E+01 -0.40782720901E+00  0.45680661654E+01  0.47257466935E+01  0.10500000000E+00 0. -1.
         13    1    6    6    0    0  0.31876100169E+01 -0.12267521815E+01  0.12521974048E+02  0.12979855068E+02  0.10500000000E+00 0.  1.
</event>
<event>
11    0  0.3439373E-009  0.9118800E+02  0.7816531E-02  0.1126479E+00
         25   -1    0    0    0    0  0.00000000000E+00  0.00000000000E+00  0.99999998245E-14  0.12500000000E+03  0.12500000000E+03 0.  0.
    3000001    1    3    3    0    0  0.20916684962E+00  0.18206573728E+00 -0.23474116883E+00  0.10639558826E+01  0.10000000000E+01 0. -1.
    1000022    2    1    0    0    0 -0.98621695542E+01  0.37907903564E+02 -0.47665269213E+02  0.62500005124E+02  0.10000060523E+02 0.  0.
    3000022    2    3    3    0    0 -0.10071336404E+02  0.37725837826E+02 -0.47430528044E+02  0.61436049242E+02  0.24999841544E+00 0.  0.
    1000022    2    1    0    0    0  0.98621695542E+01 -0.37907903564E+02  0.47665269213E+02  0.62499994876E+02  0.99999964696E+01 0.  0.
    3000022    2    5    5    0    0  0.63637042526E+01 -0.89253468880E+01  0.16249055631E+02  0.19602368755E+02  0.25000606923E+00 0.  0.
        -13    1    4    4    0    0 -0.71175993948E+01  0.26809397882E+02 -0.33723790491E+02  0.43665880342E+02  0.10500000000E+00 0.  1.
         13    1    4    4    0    0 -0.29537370090E+01  0.10916439944E+02 -0.13706737553E+02  0.17770168900E+02  0.10500000000E+00 0. -1.
    3000001    1    5    5    0    0  0.34984653016E+01 -0.28982556676E+02  0.31416213582E+02  0.42897626120E+02  0.10000000000E+01 0. -1.
        -13    1    6    6    0    0  0.36723399406E+01 -0.50757339342E+01  0.93734096614E+01  0.11274794423E+02  0.10500000000E+00 0.  1.
         13    1    6    6    0    0  0.26913643120E+01 -0.38496129538E+01  0.68756459696E+01  0.83275743319E+01  0.10500000000E+00 0. -1.
</event>
<event>
11    0  0.3439373E-009  0.9118800E+02  0.7816531E-02  0.1126479E+00
         25   -1    0    0    0    0  0.00000000000E+00  0.00000000000E+00  0.99999998245E-14  0.12500000000E+03  0.12500000000E+03 0.  0.
    3000001    1    3    3    0    0 -0.43694561422E+02  0.55072260199E+01 -0.28601580244E+02  0.52522325050E+02  0.10000000000E+01 0. -1.
    1000022    2    1    0    0    0 -0.53383043479E+02  0.42782733946E+01 -0.30630002074E+02  0.62500000199E+02  0.10000002174E+02 0.  0.
    3000022    2    3    3    0    0 -0.96884820576E+01 -0.12289526252E+01 -0.20284218309E+01  0.99776751490E+01  0.24999423779E+00 0.  0.
    1000022    2    1    0    0    0  0.53383043479E+02 -0.42782733946E+01  0.30630002074E+02  0.62499999801E+02  0.99999996834E+01 0.  0.
    3000022    2    5    5    0    0  0.14803593200E+02 -0.54029165814E+01  0.71006058847E+01  0.17286381375E+02  0.24999575232E+00 0.  0.
        -13    1    4    4    0    0 -0.57733714103E+01 -0.71024234236E+00 -0.11471978040E+01  0.59298692589E+01  0.10500000000E+00 0. -1.
         13    1    4    4    0    0 -0.39151106473E+01 -0.51871028289E+00 -0.88122402685E+00  0.40478058901E+01  0.10500000000E+00 0.  1.
    3000001    1    5    5    0    0  0.38579450279E+02  0.11246431868E+01  0.23529396190E+02  0.45213618426E+02  0.10000000000E+01 0. -1.
        -13    1    6    6    0    0  0.56643490405E+01 -0.20764349804E+01  0.27849761952E+01  0.66455661676E+01  0.10500000000E+00 0. -1.
         13    1    6    6    0    0  0.91392441599E+01 -0.33264816009E+01  0.43156296895E+01  0.10640815207E+02  0.10500000000E+00 0.  1.
</event>
<event>
11    0  0.3439373E-009  0.9118800E+02  0.7816531E-02  0.1126479E+00
         25   -1    0    0    0    0  0.00000000000E+00  0.00000000000E+00  0.99999998245E-14  0.12500000000E+03  0.12500000000E+03 0.  0.
    3000001    1    3    3    0    0 -0.11235176652E+01 -0.77486722130E+00 -0.68613373457E+00  0.18257849425E+01  0.10000000000E+01 0.  1.
    1000022    2    1    0    0    0 -0.28248378549E+02 -0.53153445655E+02  0.13527382599E+02  0.62499997766E+02  0.99999982519E+01 0.  0.
    3000022    2    3    3    0    0 -0.27124860884E+02 -0.52378578434E+02  0.14213516333E+02  0.60674212823E+02  0.24999680035E+00 0.  0.
    1000022    2    1    0    0    0  0.28248378549E+02  0.53153445655E+02 -0.13527382599E+02  0.62500002234E+02  0.10000026181E+02 0.  0.
    3000022    2    5    5    0    0  0.11892521508E+02  0.17918026789E+02 -0.49214614044E+00  0.21512611591E+02  0.24999561027E+00 0.  0.
        -13    1    4    4    0    0 -0.10011214904E+02 -0.19333176629E+02  0.53073309291E+01  0.22409259894E+02  0.10500000000E+00 0. -1.
         13    1    4    4    0    0 -0.17113645981E+02 -0.33045401805E+02  0.89061854040E+01  0.38264952929E+02  0.10500000000E+00 0.  1.
    3000001    1    5    5    0    0  0.16355857041E+02  0.35235418867E+02 -0.13035236458E+02  0.40987390644E+02  0.10000000000E+01 0.  1.
        -13    1    6    6    0    0  0.43450086985E+01  0.66075688974E+01 -0.22961945201E+00  0.79121942227E+01  0.10500000000E+00 0. -1.
         13    1    6    6    0    0  0.75475128096E+01  0.11310457891E+02 -0.26252668842E+00  0.13600417368E+02  0.10500000000E+00 0.  1.
</event>
<event>
11    0  0.3439373E-009  0.9118800E+02  0.7816531E-02  0.1126479E+00
         25   -1    0    0    0    0  0.00000000000E+00  0.00000000000E+00  0.99999998245E-14  0.12500000000E+03  0.12500000000E+03 0.  0.
    3000001    1    3    3    0    0 -0.50940702852E+02 -0.18381674354E+01 -0.54775449090E+01  0.51277066656E+02  0.10000000000E+01 0.  1.
    1000022    2    1    0    0    0 -0.61530870911E+02  0.16363409198E+01 -0.41861315599E+01  0.62499994819E+02  0.99999984123E+01 0.  0.
    3000022    2    3    3    0    0 -0.10590168059E+02  0.34745083552E+01  0.12914133491E+01  0.11222928163E+02  0.25000058025E+00 0.  0.
    1000022    2    1    0    0    0  0.61530870911E+02 -0.16363409198E+01  0.41861315599E+01  0.62500005181E+02  0.10000063174E+02 0.  0.
    3000022    2    5    5    0    0  0.32399530461E+01  0.90684856509E+00 -0.18259583000E+01  0.38361820631E+01  0.24999809561E+00 0.  0.
        -13    1    4    4    0    0 -0.34033611390E+01  0.10694528725E+01  0.43747364267E+00  0.35956925170E+01  0.10500000000E+00 0. -1.
         13    1    4    4    0    0 -0.71868069198E+01  0.24050554827E+01  0.85393970640E+00  0.76272356460E+01  0.10500000000E+00 0.  1.
    3000001    1    5    5    0    0  0.58290917865E+02 -0.25431894849E+01  0.60120898599E+01  0.58663823118E+02  0.10000000000E+01 0.  1.
        -13    1    6    6    0    0  0.17599353002E+01  0.42294754534E+00 -0.98539695891E+00  0.20635622243E+01  0.10500000000E+00 0. -1.
         13    1    6    6    0    0  0.14800177458E+01  0.48390101976E+00 -0.84056134104E+00  0.17726198388E+01  0.10500000000E+00 0.  1.
</event>
<event>
11    0  0.3439373E-009  0.9118800E+02  0.7816531E-02  0.1126479E+00
         25   -1    0    0    0    0  0.00000000000E+00  0.00000000000E+00  0.99999998245E-14  0.12500000000E+03  0.12500000000E+03 0.  0.
    3000001    1    3    3    0    0 -0.39559560175E+02  0.25036249659E+02 -0.10210508969E+02  0.47927310499E+02  0.10000000000E+01 0.  1.
    1000022    2    1    0    0    0 -0.53181437401E+02  0.30010441198E+02 -0.87953486570E+01  0.62500000308E+02  0.10000000783E+02 0.  0.
    3000022    2    3    3    0    0 -0.13621877225E+02  0.49741915387E+01  0.14151603115E+01  0.14572689809E+02  0.24997793765E+00 0.  0.
    1000022    2    1    0    0    0  0.53181437401E+02 -0.30010441198E+02  0.87953486570E+01  0.62499999692E+02  0.99999969277E+01 0.  0.
    3000022    2    5    5    0    0  0.13168485837E+02 -0.11633736161E+02  0.51231494821E+01  0.18304698724E+02  0.24999690532E+00 0.  0.
        -13    1    4    4    0    0 -0.80140006954E+01  0.28682784245E+01  0.79660619912E+00  0.85496686896E+01  0.10500000000E+00 0. -1.
         13    1    4    4    0    0 -0.56078765298E+01  0.21059131141E+01  0.61855411243E+00  0.60230211196E+01  0.10500000000E+00 0.  1.
    3000001    1    5    5    0    0  0.40012951564E+02 -0.18376705037E+02  0.36721991749E+01  0.44195300968E+02  0.10000000000E+01 0.  1.
        -13    1    6    6    0    0  0.56536725993E+01 -0.49608826026E+01  0.21303022885E+01  0.78181572571E+01  0.10500000000E+00 0. -1.
         13    1    6    6    0    0  0.75148132376E+01 -0.66728535582E+01  0.29928471936E+01  0.10486541467E+02  0.10500000000E+00 0.  1.
</event>
<event>
11    0  0.3439373E-009  0.9118800E+02  0.7816531E-02  0.1126479E+00
         25   -1    0    0    0    0  0.00000000000E+00  0.00000000000E+00  0.99999998245E-14  0.12500000000E+03  0.12500000000E+03 0.  0.
    3000001    1    3    3    0    0 -0.13940843245E+02 -0.22410547794E+02 -0.48955745743E+02  0.55625936434E+02  0.10000000000E+01 0.  1.
    1000022    2    1    0    0    0 -0.13118543881E+02 -0.27225425605E+02 -0.53785964703E+02  0.62499999013E+02  0.99999942345E+01 0.  0.
    3000022    2    3    3    0    0  0.82229936396E+00 -0.48148778105E+01 -0.48302189595E+01  0.68740625795E+01  0.24999315194E+00 0.  0.
    1000022    2    1    0    0    0  0.13118543881E+02  0.27225425605E+02  0.53785964703E+02  0.62500000987E+02  0.10000006572E+02 0.  0.
    3000022    2    5    5    0    0  0.49007301609E+01  0.29626263762E+01  0.14473286895E+02  0.15567043215E+02  0.24997955448E+00 0.  0.
        -13    1    4    4    0    0  0.39438576206E+00 -0.21780539483E+01 -0.21007142648E+01  0.30534381528E+01  0.10500000000E+00 0.  1.
         13    1    4    4    0    0  0.42791360190E+00 -0.26368238622E+01 -0.27295046947E+01  0.38206244267E+01  0.10500000000E+00 0. -1.
    3000001    1    5    5    0    0  0.82178137200E+01  0.24262799229E+02  0.39312677808E+02  0.46932957772E+02  0.10000000000E+01 0.  1.
        -13    1    6    6    0    0  0.28691873937E+01  0.16670002024E+01  0.83031125058E+01  0.89422496195E+01  0.10500000000E+00 0.  1.
         13    1    6    6    0    0  0.20315427672E+01  0.12956261738E+01  0.61701743888E+01  0.66247935957E+01  0.10500000000E+00 0. -1.
</event>
<event>
11    0  0.3439373E-009  0.9118800E+02  0.7816531E-02  0.1126479E+00
         25   -1    0    0    0    0  0.00000000000E+00  0.00000000000E+00  0.99999998245E-14  0.12500000000E+03  0.12500000000E+03 0.  0.
    3000001    1    3    3    0    0  0.51887503643E+01  0.97913605408E+01 -0.27395268299E+01  0.11458572286E+02  0.10000000000E+01 0.  1.
    1000022    2    1    0    0    0  0.29397768053E+02  0.43250765181E+02 -0.32732134688E+02  0.62499999958E+02  0.99999949139E+01 0.  0.
    3000022    2    3    3    0    0  0.24209017689E+02  0.33459404640E+02 -0.29992607859E+02  0.51041427672E+02  0.25003265562E+00 0.  0.
    1000022    2    1    0    0    0 -0.29397768053E+02 -0.43250765181E+02  0.32732134688E+02  0.62500000042E+02  0.99999954375E+01 0.  0.
    3000022    2    5    5    0    0 -0.23156778316E+02 -0.38508223668E+02  0.30430302128E+02  0.54269563477E+02  0.25012086133E+00 0.  0.
        -13    1    4    4    0    0  0.14045408946E+02  0.19316979224E+02 -0.17303710835E+02  0.29493196376E+02  0.10500000000E+00 0. -1.
         13    1    4    4    0    0  0.10163608743E+02  0.14142425416E+02 -0.12688897023E+02  0.21548231296E+02  0.10500000000E+00 0.  1.
    3000001    1    5    5    0    0 -0.62409897373E+01 -0.47425415133E+01  0.23018325609E+01  0.82304365646E+01  0.10000000000E+01 0.  1.
        -13    1    6    6    0    0 -0.77031806749E+01 -0.12803400649E+02  0.10054666165E+02  0.18010369163E+02  0.10500000000E+00 0. -1.
         13    1    6    6    0    0 -0.15453597641E+02 -0.25704823019E+02  0.20375635962E+02  0.36259194314E+02  0.10500000000E+00 0.  1.
</event>
<event>
11    0  0.3439373E-009  0.9118800E+02  0.7816531E-02  0.1126479E+00
         25   -1    0    0    0    0  0.00000000000E+00  0.00000000000E+00  0.99999998245E-14  0.12500000000E+03  0.12500000000E+03 0.  0.
    3000001    1    3    3    0    0 -0.46293228686E+01  0.23376089025E+01  0.49409994540E+00  0.53046376275E+01  0.10000000000E+01 0.  1.
    1000022    2    1    0    0    0 -0.34238978527E+02  0.50503940136E+02  0.91265752837E+01  0.62499998406E+02  0.99999902298E+01 0.  0.
    3000022    2    3    3    0    0 -0.29609655658E+02  0.48166331233E+02  0.86324753383E+01  0.57195360779E+02  0.24998299943E+00 0.  0.
    1000022    2    1    0    0    0  0.34238978527E+02 -0.50503940136E+02 -0.91265752837E+01  0.62500001594E+02  0.10000010151E+02 0.  0.
    3000022    2    5    5    0    0  0.19175811466E+02 -0.22176931668E+02 -0.75851202571E+00  0.29328584782E+02  0.25000243033E+00 0.  0.
        -13    1    4    4    0    0 -0.17364080068E+02  0.28313857753E+02  0.51253237117E+01  0.33607525729E+02  0.10500000000E+00 0. -1.
         13    1    4    4    0    0 -0.12245575590E+02  0.19852473480E+02  0.35071516267E+01  0.23587835050E+02  0.10500000000E+00 0.  1.
    3000001    1    5    5    0    0  0.15063167060E+02 -0.28327008467E+02 -0.83680632580E+01  0.33171416812E+02  0.10000000000E+01 0.  1.
        -13    1    6    6    0    0  0.81411734847E+01 -0.94492293250E+01 -0.38404196090E+00  0.12478988492E+02  0.10500000000E+00 0. -1.
         13    1    6    6    0    0  0.11034637982E+02 -0.12727702343E+02 -0.37447006481E+00  0.16849596291E+02  0.10500000000E+00 0.  1.
</event>
<event>
11    0  0.3439373E-009  0.9118800E+02  0.7816531E-02  0.1126479E+00
         25   -1    0    0    0    0  0.00000000000E+00  0.00000000000E+00  0.99999998245E-14  0.12500000000E+03  0.12500000000E+03 0.  0.
    3000001    1    3    3    0    0  0.21789610790E+02 -0.28886402566E+02  0.11514643963E+02  0.37984186409E+02  0.10000000000E+01 0. -1.
    1000022    2    1    0    0    0  0.41187763064E+02 -0.41638021484E+02  0.19393135450E+02  0.62500002097E+02  0.99999950128E+01 0.  0.
    3000022    2    3    3    0    0  0.19398152274E+02 -0.12751618918E+02  0.78784914873E+01  0.24515815688E+02  0.24998811017E+00 0.  0.
    1000022    2    1    0    0    0 -0.41187763064E+02  0.41638021484E+02 -0.19393135450E+02  0.62499997903E+02  0.99999687952E+01 0.  0.
    3000022    2    5    5    0    0 -0.31899844232E+02  0.31445876092E+02 -0.10333309972E+02  0.45970457630E+02  0.24998902316E+00 0.  0.
        -13    1    4    4    0    0  0.58896032686E+01 -0.38208911466E+01  0.24028945482E+01  0.74210216969E+01  0.10500000000E+00 0.  1.
         13    1    4    4    0    0  0.13508549005E+02 -0.89307277715E+01  0.54755969391E+01  0.17094793991E+02  0.10500000000E+00 0. -1.
    3000001    1    5    5    0    0 -0.92879188318E+01  0.10192145393E+02 -0.90598254788E+01  0.16529540273E+02  0.10000000000E+01 0. -1.
        -13    1    6    6    0    0 -0.12904709670E+02  0.12645137013E+02 -0.41340538097E+01  0.18534628338E+02  0.10500000000E+00 0. -1.
         13    1    6    6    0    0 -0.18995134562E+02  0.18800739078E+02 -0.61992561621E+01  0.27435829291E+02  0.10500000000E+00 0.  1.
</event>
<event>
11    0  0.3439373E-009  0.9118800E+02  0.7816531E-02  0.1126479E+00
         25   -1    0    0    0    0  0.00000000000E+00  0.00000000000E+00  0.99999998245E-14  0.12500000000E+03  0.12500000000E+03 0.  0.
    3000001    1    3    3    0    0  0.18189381801E+02 -0.22686598881E+02  0.82767992948E+01  0.30249641083E+02  0.10000000000E+01 0.  1.
    1000022    2    1    0    0    0  0.31984814372E+02 -0.46123537196E+02  0.25609399738E+02  0.62499998833E+02  0.99999732702E+01 0.  0.
    3000022    2    3    3    0    0  0.13795432570E+02 -0.23436938315E+02  0.17332600443E+02  0.32250357751E+02  0.24999903678E+00 0.  0.
    1000022    2    1    0    0    0 -0.31984814372E+02  0.46123537196E+02 -0.25609399738E+02  0.62500001167E+02  0.99999878515E+01 0.  0.
    3000022    2    5    5    0    0 -0.30762630321E+02  0.40996417495E+02 -0.25211966081E+02  0.57120498978E+02  0.24999634595E+00 0.  0.
        -13    1    4    4    0    0  0.98734814344E+01 -0.16777449717E+02  0.12455340943E+02  0.23110928100E+02  0.10500000000E+00 0.  1.
         13    1    4    4    0    0  0.39219511360E+01 -0.66594885981E+01  0.48772595006E+01  0.91394296506E+01  0.10500000000E+00 0. -1.
    3000001    1    5    5    0    0 -0.12221840503E+01  0.51271197009E+01 -0.39743365717E+00  0.53795021882E+01  0.10000000000E+01 0. -1.
        -13    1    6    6    0    0 -0.16644168434E+02  0.22087348771E+02 -0.13563385533E+02  0.30803502572E+02  0.10500000000E+00 0. -1.
         13    1    6    6    0    0 -0.14118461888E+02  0.18909068724E+02 -0.11648580548E+02  0.26316996406E+02  0.10500000000E+00 0.  1.
</event>
<event>
11    0  0.3439373E-009  0.9118800E+02  0.7816531E-02  0.1126479E+00
         25   -1    0    0    0    0  0.00000000000E+00  0.00000000000E+00  0.99999998245E-14  0.12500000000E+03  0.12500000000E+03 0.  0.
    3000001    1    3    3    0    0 -0.52393269461E+01 -0.34655475106E+02 -0.24003063881E+02  0.42492347280E+02  0.10000000000E+01 0. -1.
    1000022    2    1    0    0    0 -0.92723977956E+00 -0.50991071405E+02 -0.34717439229E+02  0.62499999030E+02  0.10000007773E+02 0.  0.
    3000022    2    3    3    0    0  0.43120871665E+01 -0.16335596299E+02 -0.10714375348E+02  0.20007651750E+02  0.24997454730E+00 0.  0.
    1000022    2    1    0    0    0  0.92723977956E+00  0.50991071405E+02  0.34717439229E+02  0.62500000970E+02  0.10000019901E+02 0.  0.
    3000022    2    5    5    0    0 -0.44876059614E+01  0.22680997506E+02  0.14903682380E+02  0.27509062157E+02  0.24999427178E+00 0.  0.
        -13    1    4    4    0    0  0.12980443283E+01 -0.47499892683E+01 -0.31317763989E+01  0.58366399186E+01  0.10500000000E+00 0.  1.
         13    1    4    4    0    0  0.30140428383E+01 -0.11585607031E+02 -0.75825989491E+01  0.14171011832E+02  0.10500000000E+00 0. -1.
    3000001    1    5    5    0    0  0.54148457409E+01  0.28310073899E+02  0.19813756849E+02  0.34990938813E+02  0.10000000000E+01 0.  1.
        -13    1    6    6    0    0 -0.27684413514E+01  0.14298824232E+02  0.93883412813E+01  0.17328376120E+02  0.10500000000E+00 0. -1.
         13    1    6    6    0    0 -0.17191646100E+01  0.83821732744E+01  0.55153410988E+01  0.10180686037E+02  0.10500000000E+00 0.  1.
</event>
<event>
11    0  0.3439373E-009  0.9118800E+02  0.7816531E-02  0.1126479E+00
         25   -1    0    0    0    0  0.00000000000E+00  0.00000000000E+00  0.99999998245E-14  0.12500000000E+03  0.12500000000E+03 0.  0.
    3000001    1    3    3    0    0 -0.48115126441E+01  0.15470996519E+02 -0.71487517568E+01  0.17737165469E+02  0.10000000000E+01 0.  1.
    1000022    2    1    0    0    0 -0.16967860495E+02  0.58449770101E+02 -0.10097828317E+02  0.62499999651E+02  0.99999952513E+01 0.  0.
    3000022    2    3    3    0    0 -0.12156347851E+02  0.42978773583E+02 -0.29490765607E+01  0.44762834182E+02  0.24999943452E+00 0.  0.
    1000022    2    1    0    0    0  0.16967860495E+02 -0.58449770101E+02  0.10097828317E+02  0.62500000349E+02  0.99999996098E+01 0.  0.
    3000022    2    5    5    0    0  0.80139545221E+01 -0.30436170766E+02  0.10158182807E+02  0.33073178867E+02  0.25004881648E+00 0.  0.
        -13    1    4    4    0    0 -0.65623630147E+01  0.23212021461E+02 -0.16598427527E+01  0.24179095343E+02  0.10500000000E+00 0. -1.
         13    1    4    4    0    0 -0.55939848359E+01  0.19766752121E+02 -0.12892338080E+01  0.20583738839E+02  0.10500000000E+00 0.  1.
    3000001    1    5    5    0    0  0.89539059727E+01 -0.28013599335E+02 -0.60354489631E-01  0.29426821482E+02  0.10000000000E+01 0.  1.
        -13    1    6    6    0    0  0.41172847769E+01 -0.15409796563E+02  0.51852247976E+01  0.16772341674E+02  0.10500000000E+00 0. -1.
         13    1    6    6    0    0  0.38966697452E+01 -0.15026374204E+02  0.49729580094E+01  0.16300837193E+02  0.10500000000E+00 0.  1.
</event>
<event>
11    0  0.3439373E-009  0.9118800E+02  0.7816531E-02  0.1126479E+00
         25   -1    0    0    0    0  0.00000000000E+00  0.00000000000E+00  0.99999998245E-14  0.12500000000E+03  0.12500000000E+03 0.  0.
    3000001    1    3    3    0    0 -0.23176484086E+02 -0.20886970824E+02 -0.59411009676E+01  0.31775960183E+02  0.10000000000E+01 0.  1.
    1000022    2    1    0    0    0 -0.50345077252E+02 -0.32870661432E+02 -0.13825437918E+02  0.62499999048E+02  0.99999980489E+01 0.  0.
    3000022    2    3    3    0    0 -0.27168593165E+02 -0.11983690607E+02 -0.78843369508E+01  0.30724038865E+02  0.24999982296E+00 0.  0.
    1000022    2    1    0    0    0  0.50345077252E+02  0.32870661432E+02  0.13825437918E+02  0.62500000952E+02  0.10000009946E+02 0.  0.
    3000022    2    5    5    0    0  0.31334570375E+02  0.25942782519E+02  0.98235623191E+01  0.41850306372E+02  0.25000271654E+00 0.  0.
        -13    1    4    4    0    0 -0.83537743896E+01 -0.37178763294E+01 -0.24662925771E+01  0.94711021022E+01  0.10500000000E+00 0. -1.
         13    1    4    4    0    0 -0.18814818776E+02 -0.82658142777E+01 -0.54180443737E+01  0.21252936763E+02  0.10500000000E+00 0.  1.
    3000001    1    5    5    0    0  0.19010506877E+02  0.69278789123E+01  0.40018755993E+01  0.20649694580E+02  0.10000000000E+01 0.  1.
        -13    1    6    6    0    0  0.11396859196E+02  0.94151659277E+01  0.36278828949E+01  0.15221902255E+02  0.10500000000E+00 0. -1.
         13    1    6    6    0    0  0.19937711179E+02  0.16527616592E+02  0.61956794242E+01  0.26628404117E+02  0.10500000000E+00 0.  1.
</event>
<event>
11    0  0.3439373E-009  0.9118800E+02  0.7816531E-02  0.1126479E+00
         25   -1    0    0    0    0  0.00000000000E+00  0.00000000000E+00  0.99999998245E-14  0.12500000000E+03  0.12500000000E+03 0.  0.
    3000001    1    3    3    0    0 -0.23358398814E+02 -0.12609704522E+02 -0.55341671991E+01  0.27133861684E+02  0.10000000000E+01 0.  1.
    1000022    2    1    0    0    0 -0.54895502867E+02 -0.28112206386E+02 -0.15611871110E+01  0.62499996573E+02  0.99999941719E+01 0.  0.
    3000022    2    3    3    0    0 -0.31537104053E+02 -0.15502501865E+02  0.39729800881E+01  0.35366134889E+02  0.24986013194E+00 0.  0.
    1000022    2    1    0    0    0  0.54895502867E+02  0.28112206386E+02  0.15611871110E+01  0.62500003427E+02  0.10000037015E+02 0.  0.
    3000022    2    5    5    0    0  0.22205596480E+02  0.16592519999E+02 -0.92235233186E+00  0.27736500695E+02  0.25000407036E+00 0.  0.
        -13    1    4    4    0    0 -0.14148860783E+02 -0.68818128464E+01  0.17883378003E+01  0.15835365060E+02  0.10500000000E+00 0.  1.
         13    1    4    4    0    0 -0.17388243270E+02 -0.86206890184E+01  0.21846422878E+01  0.19530769829E+02  0.10500000000E+00 0. -1.
    3000001    1    5    5    0    0  0.32689906387E+02  0.11519686387E+02  0.24835394428E+01  0.34763502732E+02  0.10000000000E+01 0. -1.
        -13    1    6    6    0    0  0.13590782520E+02  0.10078262228E+02 -0.56816847389E+00  0.16929695197E+02  0.10500000000E+00 0. -1.
         13    1    6    6    0    0  0.86148139597E+01  0.65142577711E+01 -0.35418385798E+00  0.10806805498E+02  0.10500000000E+00 0.  1.
</event>
<event>
11    0  0.3439373E-009  0.9118800E+02  0.7816531E-02  0.1126479E+00
         25   -1    0    0    0    0  0.00000000000E+00  0.00000000000E+00  0.99999998245E-14  0.12500000000E+03  0.12500000000E+03 0.  0.
    3000001    1    3    3    0    0  0.19306949087E+02 -0.10580045479E+02  0.10831098394E+02  0.24556228086E+02  0.10000000000E+01 0.  1.
    1000022    2    1    0    0    0  0.54973452898E+02 -0.18097338474E+02  0.21369503270E+02  0.62499997895E+02  0.99999941778E+01 0.  0.
    3000022    2    3    3    0    0  0.35666503811E+02 -0.75172929949E+01  0.10538404876E+02  0.37943769809E+02  0.25000391626E+00 0.  0.
    1000022    2    1    0    0    0 -0.54973452898E+02  0.18097338474E+02 -0.21369503270E+02  0.62500002105E+02  0.10000020487E+02 0.  0.
    3000022    2    5    5    0    0 -0.23545140892E+02  0.12731196448E+02 -0.11233965558E+02  0.29029665977E+02  0.25000394734E+00 0.  0.
        -13    1    4    4    0    0  0.24518694830E+02 -0.51673312313E+01  0.71933950165E+01  0.26069592729E+02  0.10500000000E+00 0.  1.
         13    1    4    4    0    0  0.11147808981E+02 -0.23499617636E+01  0.33450098594E+01  0.11874177080E+02  0.10500000000E+00 0. -1.
    3000001    1    5    5    0    0 -0.31428312006E+02  0.53661420265E+01 -0.10135537711E+02  0.33470336127E+02  0.10000000000E+01 0.  1.
        -13    1    6    6    0    0 -0.74960659358E+01  0.40324151645E+01 -0.35217697618E+01  0.92122344644E+01  0.10500000000E+00 0.  1.
         13    1    6    6    0    0 -0.16049074956E+02  0.86987812832E+01 -0.77121957965E+01  0.19817431513E+02  0.10500000000E+00 0. -1.
</event>
<event>
11    0  0.3439373E-009  0.9118800E+02  0.7816531E-02  0.1126479E+00
         25   -1    0    0    0    0  0.00000000000E+00  0.00000000000E+00  0.99999998245E-14  0.12500000000E+03  0.12500000000E+03 0.  0.
    3000001    1    3    3    0    0 -0.82557775150E+01 -0.30252700663E+02  0.48462101280E+01  0.31746960680E+02  0.10000000000E+01 0.  1.
    1000022    2    1    0    0    0 -0.65872508189E+01 -0.60662810867E+02  0.91039506477E+01  0.62500003416E+02  0.10000000694E+02 0.  0.
    3000022    2    3    3    0    0  0.16685266961E+01 -0.30410110204E+02  0.42577405198E+01  0.30753042736E+02  0.24999845162E+00 0.  0.
    1000022    2    1    0    0    0  0.65872508189E+01  0.60662810867E+02 -0.91039506477E+01  0.62499996584E+02  0.99999579980E+01 0.  0.
    3000022    2    5    5    0    0 -0.64105225852E+00  0.29517341697E+01  0.14823924862E+01  0.33739667841E+01  0.24996353825E+00 0.  0.
        -13    1    4    4    0    0  0.84929873832E+00 -0.16260020946E+02  0.22238253899E+01  0.16433685341E+02  0.10500000000E+00 0.  1.
         13    1    4    4    0    0  0.81922795773E+00 -0.14150089258E+02  0.20339151299E+01  0.14319357395E+02  0.10500000000E+00 0. -1.
    3000001    1    5    5    0    0  0.72283030774E+01  0.57711076698E+02 -0.10586343134E+02  0.59126029800E+02  0.10000000000E+01 0.  1.
        -13    1    6    6    0    0 -0.25890379298E+00  0.13337122389E+01  0.73329897794E+00  0.15474404354E+01  0.10500000000E+00 0.  1.
         13    1    6    6    0    0 -0.38214846554E+00  0.16180219309E+01  0.74909350827E+00  0.18265263487E+01  0.10500000000E+00 0. -1.
</event>
<event>
11    0  0.3439373E-009  0.9118800E+02  0.7816531E-02  0.1126479E+00
         25   -1    0    0    0    0  0.00000000000E+00  0.00000000000E+00  0.99999998245E-14  0.12500000000E+03  0.12500000000E+03 0.  0.
    3000001    1    3    3    0    0 -0.17307922957E+02  0.30613039416E+02 -0.17587025513E+02  0.39332249437E+02  0.10000000000E+01 0.  1.
    1000022    2    1    0    0    0 -0.31445855339E+02  0.48555857767E+02 -0.21441454958E+02  0.62500007010E+02  0.10000087206E+02 0.  0.
    3000022    2    3    3    0    0 -0.14137932382E+02  0.17942818350E+02 -0.38544294446E+01  0.23167757573E+02  0.25000446034E+00 0.  0.
    1000022    2    1    0    0    0  0.31445855339E+02 -0.48555857767E+02  0.21441454958E+02  0.62499992990E+02  0.99999995802E+01 0.  0.
    3000022    2    5    5    0    0  0.20943384185E+02 -0.25659021223E+02  0.15648089846E+02  0.36632443757E+02  0.25001696253E+00 0.  0.
        -13    1    4    4    0    0 -0.69301752424E+01  0.87993729887E+01 -0.19586188381E+01  0.11371169977E+02  0.10500000000E+00 0.  1.
         13    1    4    4    0    0 -0.72077571395E+01  0.91434453616E+01 -0.18958106065E+01  0.11796587596E+02  0.10500000000E+00 0. -1.
    3000001    1    5    5    0    0  0.10502471153E+02 -0.22896836543E+02  0.57933651115E+01  0.25867549233E+02  0.10000000000E+01 0. -1.
        -13    1    6    6    0    0  0.10934084404E+02 -0.13312084604E+02  0.80923879854E+01  0.19033222706E+02  0.10500000000E+00 0.  1.
         13    1    6    6    0    0  0.10009299781E+02 -0.12346936620E+02  0.75557018609E+01  0.17599221051E+02  0.10500000000E+00 0. -1.
</event>
<event>
11    0  0.3439373E-009  0.9118800E+02  0.7816531E-02  0.1126479E+00
         25   -1    0    0    0    0  0.00000000000E+00  0.00000000000E+00  0.99999998245E-14  0.12500000000E+03  0.12500000000E+03 0.  0.
    3000001    1    3    3    0    0 -0.22398417377E+02 -0.22884536700E+02  0.63593632417E+01  0.32662403798E+02  0.10000000000E+01 0.  1.
    1000022    2    1    0    0    0 -0.38225600344E+02 -0.48149161002E+02  0.51683273708E+01  0.62499997989E+02  0.99999956959E+01 0.  0.
    3000022    2    3    3    0    0 -0.15827182967E+02 -0.25264624302E+02 -0.11910358709E+01  0.29837594192E+02  0.24999780242E+00 0.  0.
    1000022    2    1    0    0    0  0.38225600344E+02  0.48149161002E+02 -0.51683273708E+01  0.62500002011E+02  0.10000020831E+02 0.  0.
    3000022    2    5    5    0    0  0.31647297535E+02  0.42107053346E+02 -0.75222302365E+01  0.53209039117E+02  0.25002665746E+00 0.  0.
        -13    1    4    4    0    0 -0.82162741114E+01 -0.13161786011E+02 -0.55680947016E+00  0.15526133873E+02  0.10500000000E+00 0. -1.
         13    1    4    4    0    0 -0.76109088557E+01 -0.12102838291E+02 -0.63422640070E+00  0.14311460318E+02  0.10500000000E+00 0.  1.
    3000001    1    5    5    0    0  0.65783028097E+01  0.60421076563E+01  0.23539028656E+01  0.92909628934E+01  0.10000000000E+01 0.  1.
        -13    1    6    6    0    0  0.12134733122E+02  0.16088226443E+02 -0.29289216742E+01  0.20363506211E+02  0.10500000000E+00 0.  1.
         13    1    6    6    0    0  0.19512564412E+02  0.26018826903E+02 -0.45933085623E+01  0.32845532906E+02  0.10500000000E+00 0. -1.
</event>
<event>
11    0  0.3439373E-009  0.9118800E+02  0.7816531E-02  0.1126479E+00
         25   -1    0    0    0    0  0.00000000000E+00  0.00000000000E+00  0.99999998245E-14  0.12500000000E+03  0.12500000000E+03 0.  0.
    3000001    1    3    3    0    0 -0.28246499753E+02  0.19574568334E+02  0.23528467123E+02  0.41660739779E+02  0.10000000000E+01 0.  1.
    1000022    2    1    0    0    0 -0.42106452154E+02  0.33787561051E+02  0.29861304247E+02  0.62500000157E+02  0.99999966735E+01 0.  0.
    3000022    2    3    3    0    0 -0.13859952401E+02  0.14212992718E+02  0.63328371233E+01  0.20839260378E+02  0.25000902686E+00 0.  0.
    1000022    2    1    0    0    0  0.42106452154E+02 -0.33787561051E+02 -0.29861304247E+02  0.62499999843E+02  0.99999947139E+01 0.  0.
    3000022    2    5    5    0    0  0.34951073568E+02 -0.32043369573E+02 -0.24834934298E+02  0.53527483949E+02  0.24999823525E+00 0.  0.
        -13    1    4    4    0    0 -0.89417680449E+01  0.90894202097E+01  0.40823389703E+01  0.13388401398E+02  0.10500000000E+00 0. -1.
         13    1    4    4    0    0 -0.49181843564E+01  0.51235725079E+01  0.22504981530E+01  0.74508589802E+01  0.10500000000E+00 0.  1.
    3000001    1    5    5    0    0  0.71553785862E+01 -0.17441914787E+01 -0.50263699480E+01  0.89725158947E+01  0.10000000000E+01 0. -1.
        -13    1    6    6    0    0  0.24146934495E+02 -0.22186849969E+02 -0.17139120125E+02  0.37001232692E+02  0.10500000000E+00 0.  1.
         13    1    6    6    0    0  0.10804139073E+02 -0.98565196034E+01 -0.76958141735E+01  0.16526251257E+02  0.10500000000E+00 0. -1.
</event>
<event>
11    0  0.3439373E-009  0.9118800E+02  0.7816531E-02  0.1126479E+00
         25   -1    0    0    0    0  0.00000000000E+00  0.00000000000E+00  0.99999998245E-14  0.12500000000E+03  0.12500000000E+03 0.  0.
    3000001    1    3    3    0    0 -0.21356113414E+01  0.12838706930E+02  0.85489276185E+01  0.15603762202E+02  0.10000000000E+01 0. -1.
    1000022    2    1    0    0    0  0.55085124444E+01  0.45298641430E+02  0.41520349355E+02  0.62500000102E+02  0.99999988706E+01 0.  0.
    3000022    2    3    3    0    0  0.76441237858E+01  0.32459934499E+02  0.32971421737E+02  0.46896237899E+02  0.25000321973E+00 0.  0.
    1000022    2    1    0    0    0 -0.55085124444E+01 -0.45298641430E+02 -0.41520349355E+02  0.62499999898E+02  0.99999975987E+01 0.  0.
    3000022    2    5    5    0    0 -0.41136407209E+00  0.44861420392E+00 -0.40497277235E+00  0.77264363629E+00  0.25000027719E+00 0.  0.
        -13    1    4    4    0    0  0.45690922714E+01  0.19132135459E+02  0.19424959412E+02  0.27645167472E+02  0.10500000000E+00 0.  1.
         13    1    4    4    0    0  0.30750315144E+01  0.13327799041E+02  0.13546462325E+02  0.19251070427E+02  0.10500000000E+00 0. -1.
    3000001    1    5    5    0    0 -0.50971483723E+01 -0.45747255634E+02 -0.41115376583E+02  0.61727356262E+02  0.10000000000E+01 0.  1.
        -13    1    6    6    0    0 -0.13144377998E+00  0.18007030015E+00 -0.21962049242E+00  0.33009232191E+00  0.10500000000E+00 0.  1.
         13    1    6    6    0    0 -0.27992029211E+00  0.26854390377E+00 -0.18535227992E+00  0.44255131439E+00  0.10500000000E+00 0. -1.
</event>
<event>
11    0  0.3439373E-009  0.9118800E+02  0.7816531E-02  0.1126479E+00
         25   -1    0    0    0    0  0.00000000000E+00  0.00000000000E+00  0.99999998245E-14  0.12500000000E+03  0.12500000000E+03 0.  0.
    3000001    1    3    3    0    0 -0.59158106746E+00  0.58512232921E-01  0.33579403718E-01  0.11638382264E+01  0.10000000000E+01 0.  1.
    1000022    2    1    0    0    0 -0.40280989213E+02  0.18444296160E+00 -0.46729624905E+02  0.62500000371E+02  0.10000004570E+02 0.  0.
    3000022    2    3    3    0    0 -0.39689408146E+02  0.12593072868E+00 -0.46763204308E+02  0.61336162144E+02  0.25006379379E+00 0.  0.
    1000022    2    1    0    0    0  0.40280989213E+02 -0.18444296160E+00  0.46729624905E+02  0.62499999629E+02  0.99999999378E+01 0.  0.
    3000022    2    5    5    0    0  0.11951449588E+02  0.16450005899E+01  0.20758876885E+02  0.24011177462E+02  0.24999883841E+00 0.  0.
        -13    1    4    4    0    0 -0.16917755794E+02  0.89803332583E-01 -0.19849140591E+02  0.26080987959E+02  0.10500000000E+00 0. -1.
         13    1    4    4    0    0 -0.22771652351E+02  0.36127396100E-01 -0.26914063718E+02  0.35255174185E+02  0.10500000000E+00 0.  1.
    3000001    1    5    5    0    0  0.28329539625E+02 -0.18294435515E+01  0.25970748020E+02  0.38488822167E+02  0.10000000000E+01 0. -1.
        -13    1    6    6    0    0  0.48382224905E+01  0.60364677661E+00  0.83605357567E+01  0.96789653082E+01  0.10500000000E+00 0.  1.
         13    1    6    6    0    0  0.71132270970E+01  0.10413538133E+01  0.12398341128E+02  0.14332212154E+02  0.10500000000E+00 0. -1.
</event>
<event>
11    0  0.3439373E-009  0.9118800E+02  0.7816531E-02  0.1126479E+00
         25   -1    0    0    0    0  0.00000000000E+00  0.00000000000E+00  0.99999998245E-14  0.12500000000E+03  0.12500000000E+03 0.  0.
    3000001    1    3    3    0    0 -0.25627608799E+02 -0.34234060257E+02  0.21470413942E+02  0.47861507387E+02  0.10000000000E+01 0. -1.
    1000022    2    1    0    0    0 -0.31410293440E+02 -0.42075810782E+02  0.32392433093E+02  0.62500000958E+02  0.10000000553E+02 0.  0.
    3000022    2    3    3    0    0 -0.57826846408E+01 -0.78417505248E+01  0.10922019151E+02  0.14638493571E+02  0.24999750110E+00 0.  0.
    1000022    2    1    0    0    0  0.31410293440E+02  0.42075810782E+02 -0.32392433093E+02  0.62499999042E+02  0.99999885838E+01 0.  0.
    3000022    2    5    5    0    0  0.10969369021E+02  0.98090871062E+01 -0.13066687778E+02  0.19681109754E+02  0.25001021793E+00 0.  0.
        -13    1    4    4    0    0 -0.35115175876E+01 -0.47855438034E+01  0.67437616104E+01  0.89845161762E+01  0.10500000000E+00 0.  1.
         13    1    4    4    0    0 -0.22711670532E+01 -0.30562067214E+01  0.41782575402E+01  0.56539773948E+01  0.10500000000E+00 0. -1.
    3000001    1    5    5    0    0  0.20440924420E+02  0.32266723676E+02 -0.19325745315E+02  0.42818889288E+02  0.10000000000E+01 0.  1.
        -13    1    6    6    0    0  0.57428279598E+01  0.50483026883E+01 -0.68147337655E+01  0.10242902631E+02  0.10500000000E+00 0. -1.
         13    1    6    6    0    0  0.52265410609E+01  0.47607844179E+01 -0.62519540123E+01  0.94382071235E+01  0.10500000000E+00 0.  1.
</event>
<event>
11    0  0.3439373E-009  0.9118800E+02  0.7816531E-02  0.1126479E+00
         25   -1    0    0    0    0  0.00000000000E+00  0.00000000000E+00  0.99999998245E-14  0.12500000000E+03  0.12500000000E+03 0.  0.
    3000001    1    3    3    0    0 -0.28027153006E+01 -0.36931710053E+02 -0.92858639144E+01  0.38197299500E+02  0.10000000000E+01 0.  1.
    1000022    2    1    0    0    0  0.20569644991E+01 -0.60686276038E+02 -0.10917615885E+02  0.62499995846E+02  0.99999970882E+01 0.  0.
    3000022    2    3    3    0    0  0.48596797997E+01 -0.23754565986E+02 -0.16317519710E+01  0.24302696346E+02  0.25008449233E+00 0.  0.
    1000022    2    1    0    0    0 -0.20569644991E+01  0.60686276038E+02  0.10917615885E+02  0.62500004154E+02  0.10000049014E+02 0.  0.
    3000022    2    5    5    0    0  0.25608588341E+01  0.78916180690E+01 -0.35841333176E+00  0.83082239901E+01  0.24998407524E+00 0.  0.
        -13    1    4    4    0    0  0.14515393624E+01 -0.69465865396E+01 -0.50986377831E+00  0.71156881007E+01  0.10500000000E+00 0. -1.
         13    1    4    4    0    0  0.34081404373E+01 -0.16807979446E+02 -0.11218881927E+01  0.17187008245E+02  0.10500000000E+00 0.  1.
    3000001    1    5    5    0    0 -0.46178233332E+01  0.52794657969E+02  0.11276029217E+02  0.54191780164E+02  0.10000000000E+01 0.  1.
        -13    1    6    6    0    0  0.15328507269E+01  0.48295207097E+01 -0.27148586695E+00  0.50752961699E+01  0.10500000000E+00 0. -1.
         13    1    6    6    0    0  0.10280081072E+01  0.30620973593E+01 -0.86927464804E-01  0.32329278202E+01  0.10500000000E+00 0.  1.
</event>
<event>
11    0  0.3439373E-009  0.9118800E+02  0.7816531E-02  0.1126479E+00
         25   -1    0    0    0    0  0.00000000000E+00  0.00000000000E+00  0.99999998245E-14  0.12500000000E+03  0.12500000000E+03 0.  0.
    3000001    1    3    3    0    0  0.89019533154E+01 -0.24705171431E+02  0.66128061597E+01  0.27098329719E+02  0.10000000000E+01 0. -1.
    1000022    2    1    0    0    0  0.14026653368E+02 -0.59732653382E+02  0.64430572841E+01  0.62500001409E+02  0.10000015209E+02 0.  0.
    3000022    2    3    3    0    0  0.51247000523E+01 -0.35027481951E+02 -0.16974887557E+00  0.35401671690E+02  0.25000256816E+00 0.  0.
    1000022    2    1    0    0    0 -0.14026653368E+02  0.59732653382E+02 -0.64430572841E+01  0.62499998591E+02  0.99999975940E+01 0.  0.
    3000022    2    5    5    0    0 -0.21030327006E+01  0.15602913987E+02 -0.57760909824E+01  0.16771982310E+02  0.24998429338E+00 0.  0.
        -13    1    4    4    0    0  0.19660891107E+01 -0.13070919311E+02 -0.35629897538E-01  0.13218423980E+02  0.10500000000E+00 0. -1.
         13    1    4    4    0    0  0.31586109416E+01 -0.21956562640E+02 -0.13411897803E+00  0.22183247710E+02  0.10500000000E+00 0.  1.
    3000001    1    5    5    0    0 -0.11923620667E+02  0.44129739396E+02 -0.66696630174E+00  0.45728016281E+02  0.10000000000E+01 0.  1.
        -13    1    6    6    0    0 -0.16031861290E+01  0.11818843638E+02 -0.43554089285E+01  0.12697869216E+02  0.10500000000E+00 0. -1.
         13    1    6    6    0    0 -0.49984657164E+00  0.37840703486E+01 -0.14206820540E+01  0.40741130933E+01  0.10500000000E+00 0.  1.
</event>
<event>
11    0  0.3439373E-009  0.9118800E+02  0.7816531E-02  0.1126479E+00
         25   -1    0    0    0    0  0.00000000000E+00  0.00000000000E+00  0.99999998245E-14  0.12500000000E+03  0.12500000000E+03 0.  0.
    3000001    1    3    3    0    0 -0.11808997593E+02 -0.25076527157E+01 -0.12279803195E+02  0.17249182960E+02  0.10000000000E+01 0.  1.
    1000022    2    1    0    0    0 -0.50186637779E+02  0.19931147224E+01 -0.35827070412E+02  0.62500000252E+02  0.99999969675E+01 0.  0.
    3000022    2    3    3    0    0 -0.38377640186E+02  0.45007674381E+01 -0.23547267217E+02  0.45250817292E+02  0.24999679451E+00 0.  0.
    1000022    2    1    0    0    0  0.50186637779E+02 -0.19931147224E+01  0.35827070412E+02  0.62499999748E+02  0.99999938150E+01 0.  0.
    3000022    2    5    5    0    0  0.37846922309E+02 -0.22596786773E+01  0.31779742978E+02  0.49472317929E+02  0.25000295817E+00 0.  0.
        -13    1    4    4    0    0 -0.16872063591E+02  0.19231593762E+01 -0.10390963191E+02  0.19908495996E+02  0.10500000000E+00 0.  1.
         13    1    4    4    0    0 -0.21505576595E+02  0.25776080619E+01 -0.13156304026E+02  0.25342321295E+02  0.10500000000E+00 0. -1.
    3000001    1    5    5    0    0  0.12339715470E+02  0.26656395489E+00  0.40473274337E+01  0.13027681819E+02  0.10000000000E+01 0.  1.
        -13    1    6    6    0    0  0.11635407999E+02 -0.64866498717E+00  0.97850983051E+01  0.15217183031E+02  0.10500000000E+00 0. -1.
         13    1    6    6    0    0  0.26211514310E+02 -0.16110136901E+01  0.21994644673E+02  0.34255134897E+02  0.10500000000E+00 0.  1.
</event>
<event>
11    0  0.3439373E-009  0.9118800E+02  0.7816531E-02  0.1126479E+00
         25   -1    0    0    0    0  0.00000000000E+00  0.00000000000E+00  0.99999998245E-14  0.12500000000E+03  0.12500000000E+03 0.  0.
    3000001    1    3    3    0    0 -0.45702674940E+01  0.15187038555E+02  0.18129451173E+01  0.15994381984E+02  0.10000000000E+01 0. -1.
    1000022    2    1    0    0    0 -0.29509318495E+02  0.51675402087E+02  0.16281972946E+02  0.62499996766E+02  0.99999946895E+01 0.  0.
    3000022    2    3    3    0    0 -0.24939051001E+02  0.36488363532E+02  0.14469027829E+02  0.46505614782E+02  0.25000373037E+00 0.  0.
    1000022    2    1    0    0    0  0.29509318495E+02 -0.51675402087E+02 -0.16281972946E+02  0.62500003234E+02  0.10000035116E+02 0.  0.
    3000022    2    5    5    0    0  0.29401625301E+02 -0.51496481944E+02 -0.15786645295E+02  0.61364679613E+02  0.25002283379E+00 0.  0.
        -13    1    4    4    0    0 -0.16689221883E+02  0.24382398265E+02  0.97247450199E+01  0.31106481044E+02  0.10500000000E+00 0. -1.
         13    1    4    4    0    0 -0.82498291189E+01  0.12105965266E+02  0.47442828091E+01  0.15399133738E+02  0.10500000000E+00 0.  1.
    3000001    1    5    5    0    0  0.10769319405E+00 -0.17892014309E+00 -0.49532765127E+00  0.11353236207E+01  0.10000000000E+01 0. -1.
        -13    1    6    6    0    0  0.20903437019E+02 -0.36528381813E+02 -0.11192391430E+02  0.43549477701E+02  0.10500000000E+00 0. -1.
         13    1    6    6    0    0  0.84981882824E+01 -0.14968100131E+02 -0.45942538652E+01  0.17815201912E+02  0.10500000000E+00 0.  1.
</event>
<event>
11    0  0.3439373E-009  0.9118800E+02  0.7816531E-02  0.1126479E+00
         25   -1    0    0    0    0  0.00000000000E+00  0.00000000000E+00  0.99999998245E-14  0.12500000000E+03  0.12500000000E+03 0.  0.
    3000001    1    3    3    0    0 -0.21963500024E+01  0.29110777089E+02  0.28357759167E+02  0.40711470141E+02  0.10000000000E+01 0. -1.
    1000022    2    1    0    0    0 -0.53920517338E+01  0.38976639642E+02  0.47518388543E+02  0.62499998634E+02  0.99999959905E+01 0.  0.
    3000022    2    3    3    0    0 -0.31957017314E+01  0.98658625530E+01  0.19160629376E+02  0.21788528493E+02  0.25000465869E+00 0.  0.
    1000022    2    1    0    0    0  0.53920517338E+01 -0.38976639642E+02 -0.47518388543E+02  0.62500001366E+02  0.10000013065E+02 0.  0.
    3000022    2    5    5    0    0  0.43827340810E+01 -0.22051728422E+02 -0.19634849808E+02  0.29850911419E+02  0.25000232012E+00 0.  0.
        -13    1    4    4    0    0 -0.24630202902E+01  0.75760325833E+01  0.14728008089E+02  0.16744789814E+02  0.10500000000E+00 0. -1.
         13    1    4    4    0    0 -0.73268144119E+00  0.22898299696E+01  0.44326212872E+01  0.50437386788E+01  0.10500000000E+00 0.  1.
    3000001    1    5    5    0    0  0.10093176529E+01 -0.16924911220E+02 -0.27883538736E+02  0.32649089947E+02  0.10000000000E+01 0. -1.
        -13    1    6    6    0    0  0.11007869744E+01 -0.56669982039E+01 -0.50642200947E+01  0.76801009612E+01  0.10500000000E+00 0.  1.
         13    1    6    6    0    0  0.32819471066E+01 -0.16384730218E+02 -0.14570629713E+02  0.22170810458E+02  0.10500000000E+00 0. -1.
</event>
<event>
11    0  0.3439373E-009  0.9118800E+02  0.7816531E-02  0.1126479E+00
         25   -1    0    0    0    0  0.00000000000E+00  0.00000000000E+00  0.99999998245E-14  0.12500000000E+03  0.12500000000E+03 0.  0.
    3000001    1    3    3    0    0 -0.33758178241E+01 -0.37622276687E+01 -0.86008165080E-02  0.51527252000E+01  0.10000000000E+01 0. -1.
    1000022    2    1    0    0    0 -0.43971756979E+02 -0.32664633231E+02 -0.28385846576E+02  0.62499999849E+02  0.10000000968E+02 0.  0.
    3000022    2    3    3    0    0 -0.40595939155E+02 -0.28902405562E+02 -0.28377245759E+02  0.57347274649E+02  0.25001923908E+00 0.  0.
    1000022    2    1    0    0    0  0.43971756979E+02  0.32664633231E+02  0.28385846576E+02  0.62500000151E+02  0.10000002853E+02 0.  0.
    3000022    2    5    5    0    0  0.19171623604E+02  0.16860006971E+02  0.81986072006E+01  0.26815865578E+02  0.24999992750E+00 0.  0.
        -13    1    4    4    0    0 -0.19838395067E+02 -0.14124513830E+02 -0.13945547507E+02  0.28063377025E+02  0.10500000000E+00 0.  1.
         13    1    4    4    0    0 -0.20757544088E+02 -0.14777891733E+02 -0.14431698252E+02  0.29283897624E+02  0.10500000000E+00 0. -1.
    3000001    1    5    5    0    0  0.24800133375E+02  0.15804626260E+02  0.20187239375E+02  0.35684134573E+02  0.10000000000E+01 0. -1.
        -13    1    6    6    0    0  0.66070362144E+01  0.57461277723E+01  0.27835701423E+01  0.91885907326E+01  0.10500000000E+00 0. -1.
         13    1    6    6    0    0  0.12564587390E+02  0.11113879199E+02  0.54150370583E+01  0.17627274845E+02  0.10500000000E+00 0.  1.
</event>
<event>
11    0  0.3439373E-009  0.9118800E+02  0.7816531E-02  0.1126479E+00
         25   -1    0    0    0    0  0.00000000000E+00  0.00000000000E+00  0.99999998245E-14  0.12500000000E+03  0.12500000000E+03 0.  0.
    3000001    1    3    3    0    0  0.17709215071E+02  0.27559177337E+02  0.49464776817E+02  0.59337076938E+02  0.10000000000E+01 0. -1.
    1000022    2    1    0    0    0  0.17981728608E+02  0.26890324556E+02  0.52533968742E+02  0.62499999964E+02  0.10000000265E+02 0.  0.
    3000022    2    3    3    0    0  0.27251353650E+00 -0.66885278139E+00  0.30691919247E+01  0.31629230264E+01  0.25003065749E+00 0.  0.
    1000022    2    1    0    0    0 -0.17981728608E+02 -0.26890324556E+02 -0.52533968742E+02  0.62500000036E+02  0.10000000714E+02 0.  0.
    3000022    2    5    5    0    0 -0.40981897427E+01 -0.14199709743E+02 -0.19445864818E+02  0.24426032854E+02  0.25001295619E+00 0.  0.
        -13    1    4    4    0    0  0.13299258446E+00 -0.19022052209E+00  0.10051074142E+01  0.10368880309E+01  0.10500000000E+00 0. -1.
         13    1    4    4    0    0  0.13952095204E+00 -0.47863225930E+00  0.20640845105E+01  0.21260349955E+01  0.10500000000E+00 0.  1.
    3000001    1    5    5    0    0 -0.13883538865E+02 -0.12690614812E+02 -0.33088103924E+02  0.38073967182E+02  0.10000000000E+01 0. -1.
        -13    1    6    6    0    0 -0.16448347258E+01 -0.58871715256E+01 -0.81050922273E+01  0.10152232014E+02  0.10500000000E+00 0. -1.
         13    1    6    6    0    0 -0.24533550169E+01 -0.83125382176E+01 -0.11340772591E+02  0.14273800840E+02  0.10500000000E+00 0.  1.
</event>
<event>
11    0  0.3439373E-009  0.9118800E+02  0.7816531E-02  0.1126479E+00
         25   -1    0    0    0    0  0.00000000000E+00  0.00000000000E+00  0.99999998245E-14  0.12500000000E+03  0.12500000000E+03 0.  0.
    3000001    1    3    3    0    0  0.14412197283E+02  0.13744759898E+00  0.75923939734E+00  0.14467438157E+02  0.10000000000E+01 0.  1.
    1000022    2    1    0    0    0  0.59353843779E+02  0.16040078883E+02 -0.51075526742E+01  0.62500000245E+02  0.10000001721E+02 0.  0.
    3000022    2    3    3    0    0  0.44941646496E+02  0.15902631284E+02 -0.58667920715E+01  0.48032562088E+02  0.25000002507E+00 0.  0.
    1000022    2    1    0    0    0 -0.59353843779E+02 -0.16040078883E+02  0.51075526742E+01  0.62499999755E+02  0.99999986582E+01 0.  0.
    3000022    2    5    5    0    0 -0.46115136127E+02 -0.16075439169E+02  0.59410150774E+01  0.49197395114E+02  0.25000280202E+00 0.  0.
        -13    1    4    4    0    0  0.25284376268E+02  0.90132465664E+01 -0.33244978779E+01  0.27048135020E+02  0.10500000000E+00 0.  1.
         13    1    4    4    0    0  0.19657270228E+02  0.68893847172E+01 -0.25422941936E+01  0.20984427068E+02  0.10500000000E+00 0. -1.
    3000001    1    5    5    0    0 -0.13238707652E+02  0.35360286898E-01 -0.83346240330E+00  0.13302604641E+02  0.10000000000E+01 0. -1.
        -13    1    6    6    0    0 -0.23449169785E+02 -0.82214404145E+01  0.30742929893E+01  0.25038329586E+02  0.10500000000E+00 0.  1.
         13    1    6    6    0    0 -0.22665966342E+02 -0.78539987549E+01  0.28667220882E+01  0.24159065528E+02  0.10500000000E+00 0. -1.
</event>
<event>
11    0  0.3439373E-009  0.9118800E+02  0.7816531E-02  0.1126479E+00
         25   -1    0    0    0    0  0.00000000000E+00  0.00000000000E+00  0.99999998245E-14  0.12500000000E+03  0.12500000000E+03 0.  0.
    3000001    1    3    3    0    0 -0.19156618310E+02 -0.32858842450E+02 -0.94635281907E+01  0.39207625764E+02  0.10000000000E+01 0. -1.
    1000022    2    1    0    0    0 -0.34204192918E+02 -0.47447445738E+02 -0.19623024305E+02  0.62500000332E+02  0.10000001920E+02 0.  0.
    3000022    2    3    3    0    0 -0.15047574608E+02 -0.14588603287E+02 -0.10159496114E+02  0.23292374568E+02  0.25000849222E+00 0.  0.
    1000022    2    1    0    0    0  0.34204192918E+02  0.47447445738E+02  0.19623024305E+02  0.62499999668E+02  0.99999977709E+01 0.  0.
    3000022    2    5    5    0    0  0.14433851394E+02  0.25958637346E+02  0.13602021926E+02  0.32669013098E+02  0.24999480965E+00 0.  0.
        -13    1    4    4    0    0 -0.71580538491E+01 -0.69885050345E+01 -0.47850670984E+01  0.11089852554E+02  0.10500000000E+00 0.  1.
         13    1    4    4    0    0 -0.78895207589E+01 -0.76000982530E+01 -0.53744290157E+01  0.12202522014E+02  0.10500000000E+00 0. -1.
    3000001    1    5    5    0    0  0.19770341524E+02  0.21488808392E+02  0.60210023784E+01  0.29830986570E+02  0.10000000000E+01 0. -1.
        -13    1    6    6    0    0  0.40183073721E+01  0.72984381945E+01  0.37943443548E+01  0.91554392739E+01  0.10500000000E+00 0.  1.
         13    1    6    6    0    0  0.10415544022E+02  0.18660199151E+02  0.98076775717E+01  0.23513573824E+02  0.10500000000E+00 0. -1.
</event>
<event>
11    0  0.3439373E-009  0.9118800E+02  0.7816531E-02  0.1126479E+00
         25   -1    0    0    0    0  0.00000000000E+00  0.00000000000E+00  0.99999998245E-14  0.12500000000E+03  0.12500000000E+03 0.  0.
    3000001    1    3    3    0    0  0.27447233980E+02 -0.21911575106E+02 -0.82568260572E+01  0.36092145313E+02  0.10000000000E+01 0. -1.
    1000022    2    1    0    0    0  0.45741378912E+02 -0.40878242259E+02 -0.65532922074E+01  0.62499999449E+02  0.99999928724E+01 0.  0.
    3000022    2    3    3    0    0  0.18294144933E+02 -0.18966667152E+02  0.17035338498E+01  0.26407854136E+02  0.25006161141E+00 0.  0.
    1000022    2    1    0    0    0 -0.45741378912E+02  0.40878242259E+02  0.65532922074E+01  0.62500000551E+02  0.99999997568E+01 0.  0.
    3000022    2    5    5    0    0 -0.29188241454E+02  0.20050881320E+02  0.18189708453E+01  0.35459306733E+02  0.24999631820E+00 0.  0.
        -13    1    4    4    0    0  0.76348316195E+01 -0.79337561694E+01  0.64823537543E+00  0.11030248180E+02  0.10500000000E+00 0.  1.
         13    1    4    4    0    0  0.10659313313E+02 -0.11032910983E+02  0.10552984744E+01  0.15377605956E+02  0.10500000000E+00 0. -1.
    3000001    1    5    5    0    0 -0.16553137458E+02  0.20827360939E+02  0.47343213621E+01  0.27040693818E+02  0.10000000000E+01 0.  1.
        -13    1    6    6    0    0 -0.19729454413E+02  0.13576130570E+02  0.12781705516E+01  0.23983482601E+02  0.10500000000E+00 0. -1.
         13    1    6    6    0    0 -0.94587870410E+01  0.64747507491E+01  0.54080029367E+00  0.11475824132E+02  0.10500000000E+00 0.  1.
</event>
<event>
11    0  0.3439373E-009  0.9118800E+02  0.7816531E-02  0.1126479E+00
         25   -1    0    0    0    0  0.00000000000E+00  0.00000000000E+00  0.99999998245E-14  0.12500000000E+03  0.12500000000E+03 0.  0.
    3000001    1    3    3    0    0 -0.32302565643E+01 -0.13067528895E+02 -0.17477303008E+02  0.22082821137E+02  0.10000000000E+01 0.  1.
    1000022    2    1    0    0    0 -0.20674966037E+02 -0.30302340672E+02 -0.49604069689E+02  0.62499998878E+02  0.10000002964E+02 0.  0.
    3000022    2    3    3    0    0 -0.17444709473E+02 -0.17234811777E+02 -0.32126766680E+02  0.40417177742E+02  0.24998742917E+00 0.  0.
    1000022    2    1    0    0    0  0.20674966037E+02  0.30302340672E+02  0.49604069689E+02  0.62500001122E+02  0.10000016983E+02 0.  0.
    3000022    2    5    5    0    0  0.61597431436E+01  0.61879698714E+01  0.60206516608E+01  0.10608682948E+02  0.25000149903E+00 0.  0.
        -13    1    4    4    0    0 -0.10156563243E+02 -0.99499721215E+01 -0.18666973594E+02  0.23465392608E+02  0.10500000000E+00 0. -1.
         13    1    4    4    0    0 -0.72881462299E+01 -0.72848396551E+01 -0.13459793087E+02  0.16951785133E+02  0.10500000000E+00 0.  1.
    3000001    1    5    5    0    0  0.14515222894E+02  0.24114370801E+02  0.43583418028E+02  0.51891318173E+02  0.10000000000E+01 0. -1.
        -13    1    6    6    0    0  0.34361719678E+01  0.34777751561E+01  0.32936953539E+01  0.58959012808E+01  0.10500000000E+00 0.  1.
         13    1    6    6    0    0  0.27235711759E+01  0.27101947153E+01  0.27269563069E+01  0.47127816674E+01  0.10500000000E+00 0. -1.
</event>
<event>
11    0  0.3439373E-009  0.9118800E+02  0.7816531E-02  0.1126479E+00
         25   -1    0    0    0    0  0.00000000000E+00  0.00000000000E+00  0.99999998245E-14  0.12500000000E+03  0.12500000000E+03 0.  0.
    3000001    1    3    3    0    0  0.27237513907E+02 -0.96147729865E+01 -0.13108171014E+02  0.31735629358E+02  0.10000000000E+01 0. -1.
    1000022    2    1    0    0    0  0.48465095231E+02 -0.27121014662E+02 -0.26866993667E+02  0.62499998502E+02  0.99999785982E+01 0.  0.
    3000022    2    3    3    0    0  0.21227581324E+02 -0.17506241675E+02 -0.13758822654E+02  0.30764369144E+02  0.25000310103E+00 0.  0.
    1000022    2    1    0    0    0 -0.48465095231E+02  0.27121014662E+02  0.26866993667E+02  0.62500001498E+02  0.99999973240E+01 0.  0.
    3000022    2    5    5    0    0 -0.12750235914E+02  0.23954842266E+01  0.58333370534E+01  0.14226636773E+02  0.25002428584E+00 0.  0.
        -13    1    4    4    0    0  0.11474113849E+02 -0.94715419040E+01 -0.73652501830E+01  0.16601907418E+02  0.10500000000E+00 0. -1.
         13    1    4    4    0    0  0.97534674757E+01 -0.80346997710E+01 -0.63935724707E+01  0.14162461726E+02  0.10500000000E+00 0.  1.
    3000001    1    5    5    0    0 -0.35714859318E+02  0.24725530435E+02  0.21033656614E+02  0.48273364726E+02  0.10000000000E+01 0. -1.
        -13    1    6    6    0    0 -0.81185894831E+01  0.14923723403E+01  0.36576323283E+01  0.90292840052E+01  0.10500000000E+00 0. -1.
         13    1    6    6    0    0 -0.46316464307E+01  0.90311188622E+00  0.21757047251E+01  0.51973527674E+01  0.10500000000E+00 0.  1.
</event>
<event>
11    0  0.3439373E-009  0.9118800E+02  0.7816531E-02  0.1126479E+00
         25   -1    0    0    0    0  0.00000000000E+00  0.00000000000E+00  0.99999998245E-14  0.12500000000E+03  0.12500000000E+03 0.  0.
    3000001    1    3    3    0    0  0.51267658368E+02 -0.12262026331E+02 -0.28469138675E+02  0.59918460771E+02  0.10000000000E+01 0.  1.
    1000022    2    1    0    0    0  0.53503082920E+02 -0.13271848203E+02 -0.27704296885E+02  0.62500000219E+02  0.10000006242E+02 0.  0.
    3000022    2    3    3    0    0  0.22354245521E+01 -0.10098218723E+01  0.76484178964E+00  0.25815394484E+01  0.24999963781E+00 0.  0.
    1000022    2    1    0    0    0 -0.53503082920E+02  0.13271848203E+02  0.27704296885E+02  0.62499999781E+02  0.10000003503E+02 0.  0.
    3000022    2    5    5    0    0 -0.51205426003E+02  0.12444733082E+02  0.23882938159E+02  0.57856065108E+02  0.25000208987E+00 0.  0.
        -13    1    4    4    0    0  0.15531291885E+01 -0.74099368735E+00  0.50520852990E+00  0.17965362728E+01  0.10500000000E+00 0.  1.
         13    1    4    4    0    0  0.68229536356E+00 -0.26882818491E+00  0.25963325975E+00  0.78500317560E+00  0.10500000000E+00 0. -1.
    3000001    1    5    5    0    0 -0.22976569168E+01  0.82711512137E+00  0.38213587265E+01  0.46439346731E+01  0.10000000000E+01 0. -1.
        -13    1    6    6    0    0 -0.15494291913E+02  0.37478020879E+01  0.72723213846E+01  0.17521894466E+02  0.10500000000E+00 0. -1.
         13    1    6    6    0    0 -0.35711134090E+02  0.86969309938E+01  0.16610616774E+02  0.40334170642E+02  0.10500000000E+00 0.  1.
</event>
<event>
11    0  0.3439373E-009  0.9118800E+02  0.7816531E-02  0.1126479E+00
         25   -1    0    0    0    0  0.00000000000E+00  0.00000000000E+00  0.99999998245E-14  0.12500000000E+03  0.12500000000E+03 0.  0.
    3000001    1    3    3    0    0 -0.33745063010E+02 -0.17257428816E+02 -0.48091615192E+02  0.61240114130E+02  0.10000000000E+01 0. -1.
    1000022    2    1    0    0    0 -0.33061727874E+02 -0.17341207719E+02 -0.49116746382E+02  0.62499995645E+02  0.99999672628E+01 0.  0.
    3000022    2    3    3    0    0  0.68333513585E+00 -0.83778903323E-01 -0.10251311897E+01  0.12598815145E+01  0.24988329673E+00 0.  0.
    1000022    2    1    0    0    0  0.33061727874E+02  0.17341207719E+02  0.49116746382E+02  0.62500004355E+02  0.10000021704E+02 0.  0.
    3000022    2    5    5    0    0  0.17527443150E+02  0.10406431212E+02  0.18846567365E+02  0.27762576920E+02  0.25000371944E+00 0.  0.
        -13    1    4    4    0    0  0.44571800132E+00 -0.75191831532E-01 -0.56229130124E+00  0.72905065371E+00  0.10500000000E+00 0.  1.
         13    1    4    4    0    0  0.23761713452E+00 -0.85870717910E-02 -0.46283988847E+00  0.53083086080E+00  0.10500000000E+00 0.  1.
    3000001    1    5    5    0    0  0.15534284724E+02  0.69347765077E+01  0.30270179017E+02  0.34737427435E+02  0.10000000000E+01 0. -1.
        -13    1    6    6    0    0  0.81381131462E+01  0.47985275412E+01  0.88178364102E+01  0.12923622406E+02  0.10500000000E+00 0. -1.
         13    1    6    6    0    0  0.93893300037E+01  0.56079036703E+01  0.10028730955E+02  0.14838954514E+02  0.10500000000E+00 0.  1.
</event>
<event>
11    0  0.3439373E-009  0.9118800E+02  0.7816531E-02  0.1126479E+00
         25   -1    0    0    0    0  0.00000000000E+00  0.00000000000E+00  0.99999998245E-14  0.12500000000E+03  0.12500000000E+03 0.  0.
    3000001    1    3    3    0    0 -0.28476662922E+02 -0.13653442656E+01  0.31765204218E+02  0.42694410585E+02  0.10000000000E+01 0.  1.
    1000022    2    1    0    0    0 -0.39510558610E+02  0.43588541031E+01  0.47182262759E+02  0.62500003100E+02  0.10000030881E+02 0.  0.
    3000022    2    3    3    0    0 -0.11033895687E+02  0.57241983687E+01  0.15417058541E+02  0.19805592515E+02  0.24999960485E+00 0.  0.
    1000022    2    1    0    0    0  0.39510558610E+02 -0.43588541031E+01 -0.47182262759E+02  0.62499996900E+02  0.99999921363E+01 0.  0.
    3000022    2    5    5    0    0  0.24060976648E+02 -0.70285008510E+01 -0.25868443549E+02  0.36021789146E+02  0.25000034290E+00 0.  0.
        -13    1    4    4    0    0 -0.36881478038E+01  0.19496303828E+01  0.51060293344E+01  0.65943956065E+01  0.10500000000E+00 0.  1.
         13    1    4    4    0    0 -0.73457478837E+01  0.37745679860E+01  0.10311029206E+02  0.13211196908E+02  0.10500000000E+00 0. -1.
    3000001    1    5    5    0    0  0.15449581961E+02  0.26696467479E+01 -0.21313819210E+02  0.26478207754E+02  0.10000000000E+01 0. -1.
        -13    1    6    6    0    0  0.94084539065E+01 -0.28057170633E+01 -0.10090670254E+02  0.14079194023E+02  0.10500000000E+00 0.  1.
         13    1    6    6    0    0  0.14652522742E+02 -0.42227837877E+01 -0.15777773294E+02  0.21942595123E+02  0.10500000000E+00 0. -1.
</event>
<event>
11    0  0.3439373E-009  0.9118800E+02  0.7816531E-02  0.1126479E+00
         25   -1    0    0    0    0  0.00000000000E+00  0.00000000000E+00  0.99999998245E-14  0.12500000000E+03  0.12500000000E+03 0.  0.
    3000001    1    3    3    0    0 -0.54911016449E+00  0.11954881724E+02 -0.37724186629E+01  0.12587766345E+02  0.10000000000E+01 0. -1.
    1000022    2    1    0    0    0  0.14865832926E+02  0.54322336062E+02 -0.25186126172E+02  0.62499999577E+02  0.99999905864E+01 0.  0.
    3000022    2    3    3    0    0  0.15414943090E+02  0.42367454339E+02 -0.21413707509E+02  0.49912233232E+02  0.24999852329E+00 0.  0.
    1000022    2    1    0    0    0 -0.14865832926E+02 -0.54322336062E+02  0.25186126172E+02  0.62500000423E+02  0.99999958723E+01 0.  0.
    3000022    2    5    5    0    0 -0.74917666949E+00 -0.21821897063E+01 -0.92026474084E+00  0.24965130876E+01  0.24994560798E+00 0.  0.
        -13    1    4    4    0    0  0.65855773243E+01  0.18010094243E+02 -0.90445751395E+01  0.21202563236E+02  0.10500000000E+00 0. -1.
         13    1    4    4    0    0  0.88293657661E+01  0.24357360096E+02 -0.12369132369E+02  0.28709669995E+02  0.10500000000E+00 0.  1.
    3000001    1    5    5    0    0 -0.14116656256E+02 -0.52140146356E+02  0.26106390913E+02  0.60003487335E+02  0.10000000000E+01 0.  1.
        -13    1    6    6    0    0 -0.49925506039E+00 -0.15206339386E+01 -0.59045013020E+00  0.17091634055E+01  0.10500000000E+00 0. -1.
         13    1    6    6    0    0 -0.24992160910E+00 -0.66155576774E+00 -0.32981461064E+00  0.78734968211E+00  0.10500000000E+00 0.  1.
</event>
<event>
11    0  0.3439373E-009  0.9118800E+02  0.7816531E-02  0.1126479E+00
         25   -1    0    0    0    0  0.00000000000E+00  0.00000000000E+00  0.99999998245E-14  0.12500000000E+03  0.12500000000E+03 0.  0.
    3000001    1    3    3    0    0 -0.10793368302E+01 -0.40428689701E+00 -0.11216353869E+02  0.11319673582E+02  0.10000000000E+01 0. -1.
    1000022    2    1    0    0    0 -0.25124581787E+02  0.30078261190E+01 -0.56266849279E+02  0.62500001521E+02  0.10000011723E+02 0.  0.
    3000022    2    3    3    0    0 -0.24045244956E+02  0.34121130160E+01 -0.45050495410E+02  0.51180327939E+02  0.25002207527E+00 0.  0.
    1000022    2    1    0    0    0  0.25124581787E+02 -0.30078261190E+01  0.56266849279E+02  0.62499998479E+02  0.99999927119E+01 0.  0.
    3000022    2    5    5    0    0  0.22866459528E+02 -0.26133988664E+01  0.40905688507E+02  0.46936581462E+02  0.25000426276E+00 0.  0.
        -13    1    4    4    0    0 -0.91245183699E+01  0.13399004032E+01 -0.17194786035E+02  0.19512146483E+02  0.10500000000E+00 0. -1.
         13    1    4    4    0    0 -0.14920726587E+02  0.20722126128E+01 -0.27855709375E+02  0.31668181456E+02  0.10500000000E+00 0.  1.
    3000001    1    5    5    0    0  0.22581222582E+01 -0.39442725253E+00  0.15361160772E+02  0.15563417017E+02  0.10000000000E+01 0.  1.
        -13    1    6    6    0    0  0.71718674210E+01 -0.86608204225E+00  0.12804125795E+02  0.14701783660E+02  0.10500000000E+00 0. -1.
         13    1    6    6    0    0  0.15694592108E+02 -0.17473168242E+01  0.28101562712E+02  0.32234797802E+02  0.10500000000E+00 0.  1.
</event>
<event>
11    0  0.3439373E-009  0.9118800E+02  0.7816531E-02  0.1126479E+00
         25   -1    0    0    0    0  0.00000000000E+00  0.00000000000E+00  0.99999998245E-14  0.12500000000E+03  0.12500000000E+03 0.  0.
    3000001    1    3    3    0    0 -0.13550656903E+02 -0.82051416164E+01 -0.18651118336E+02  0.24490995623E+02  0.10000000000E+01 0.  1.
    1000022    2    1    0    0    0 -0.23531283503E+02 -0.21115760516E+02 -0.52977856475E+02  0.62500000425E+02  0.10000006554E+02 0.  0.
    3000022    2    3    3    0    0 -0.99806265996E+01 -0.12910618900E+02 -0.34326738139E+02  0.38009004802E+02  0.25001417909E+00 0.  0.
    1000022    2    1    0    0    0  0.23531283503E+02  0.21115760516E+02  0.52977856475E+02  0.62499999575E+02  0.10000001235E+02 0.  0.
    3000022    2    5    5    0    0  0.49270985678E+01  0.62549430026E+01  0.65523034121E+01  0.10314833373E+02  0.24999051405E+00 0.  0.
        -13    1    4    4    0    0 -0.30342544438E+01 -0.38700921359E+01 -0.10272102165E+02  0.11389092197E+02  0.10500000000E+00 0. -1.
         13    1    4    4    0    0 -0.69463721558E+01 -0.90405267638E+01 -0.24054635974E+02  0.26619912605E+02  0.10500000000E+00 0.  1.
    3000001    1    5    5    0    0  0.18604184935E+02  0.14860817514E+02  0.46425553063E+02  0.52185166201E+02  0.10000000000E+01 0.  1.
        -13    1    6    6    0    0  0.23229284735E+01  0.28406035309E+01  0.30229154165E+01  0.47554250839E+01  0.10500000000E+00 0.  1.
         13    1    6    6    0    0  0.26041700943E+01  0.34143394716E+01  0.35293879955E+01  0.55594082896E+01  0.10500000000E+00 0. -1.
</event>
<event>
11    0  0.3439373E-009  0.9118800E+02  0.7816531E-02  0.1126479E+00
         25   -1    0    0    0    0  0.00000000000E+00  0.00000000000E+00  0.99999998245E-14  0.12500000000E+03  0.12500000000E+03 0.  0.
    3000001    1    3    3    0    0  0.22212739845E+01  0.14980158819E+02 -0.56582626623E+01  0.16197381045E+02  0.10000000000E+01 0. -1.
    1000022    2    1    0    0    0  0.17451495971E+02  0.58649660303E+02 -0.78684400665E+01  0.62499998770E+02  0.10000006595E+02 0.  0.
    3000022    2    3    3    0    0  0.15230221987E+02  0.43669501483E+02 -0.22101774042E+01  0.46302617725E+02  0.25000486790E+00 0.  0.
    1000022    2    1    0    0    0 -0.17451495971E+02 -0.58649660303E+02  0.78684400665E+01  0.62500001230E+02  0.10000021974E+02 0.  0.
    3000022    2    5    5    0    0 -0.10549678507E+02 -0.45810414794E+02  0.30258666245E+01  0.47107411225E+02  0.25000655747E+00 0.  0.
        -13    1    4    4    0    0  0.54718747952E+01  0.15866418165E+02 -0.79657337812E+00  0.16802684110E+02  0.10500000000E+00 0. -1.
         13    1    4    4    0    0  0.97583471913E+01  0.27803083319E+02 -0.14136040261E+01  0.29499933615E+02  0.10500000000E+00 0.  1.
    3000001    1    5    5    0    0 -0.69018174638E+01 -0.12839245508E+02  0.48425734420E+01  0.15392590005E+02  0.10000000000E+01 0.  1.
        -13    1    6    6    0    0 -0.51060971591E+01 -0.22272684851E+02  0.15348517520E+01  0.22902216346E+02  0.10500000000E+00 0.  1.
         13    1    6    6    0    0 -0.54435813481E+01 -0.23537729943E+02  0.14910148725E+01  0.24205194879E+02  0.10500000000E+00 0. -1.
</event>
<event>
11    0  0.3439373E-009  0.9118800E+02  0.7816531E-02  0.1126479E+00
         25   -1    0    0    0    0  0.00000000000E+00  0.00000000000E+00  0.99999998245E-14  0.12500000000E+03  0.12500000000E+03 0.  0.
    3000001    1    3    3    0    0 -0.19788530340E+02  0.15399275953E+02  0.14374434053E+02  0.28919681658E+02  0.10000000000E+01 0. -1.
    1000022    2    1    0    0    0 -0.34747891715E+02  0.33928861260E+02  0.38048205994E+02  0.62500003177E+02  0.10000040633E+02 0.  0.
    3000022    2    3    3    0    0 -0.14959361375E+02  0.18529585307E+02  0.23673771941E+02  0.33580321518E+02  0.24998185573E+00 0.  0.
    1000022    2    1    0    0    0  0.34747891715E+02 -0.33928861260E+02 -0.38048205994E+02  0.62499996823E+02  0.10000000927E+02 0.  0.
    3000022    2    5    5    0    0  0.26102460406E+02 -0.27634254125E+02 -0.24559462879E+02  0.45257266404E+02  0.25001028676E+00 0.  0.
        -13    1    4    4    0    0 -0.63149995964E+01  0.78434119338E+01  0.10100084086E+02  0.14262575300E+02  0.10500000000E+00 0. -1.
         13    1    4    4    0    0 -0.86443617788E+01  0.10686173373E+02  0.13573687856E+02  0.19317746218E+02  0.10500000000E+00 0.  1.
    3000001    1    5    5    0    0  0.86454313091E+01 -0.62946071350E+01 -0.13488743115E+02  0.17242730420E+02  0.10000000000E+01 0. -1.
        -13    1    6    6    0    0  0.64369429768E+01 -0.68425040878E+01 -0.60513249072E+01  0.11175135579E+02  0.10500000000E+00 0.  1.
         13    1    6    6    0    0  0.19665517429E+02 -0.20791750037E+02 -0.18508137972E+02  0.34082130824E+02  0.10500000000E+00 0. -1.
</event>
<event>
11    0  0.3439373E-009  0.9118800E+02  0.7816531E-02  0.1126479E+00
         25   -1    0    0    0    0  0.00000000000E+00  0.00000000000E+00  0.99999998245E-14  0.12500000000E+03  0.12500000000E+03 0.  0.
    3000001    1    3    3    0    0 -0.22453816032E+02 -0.21100207771E+01 -0.14956070840E+02  0.27079698983E+02  0.10000000000E+01 0. -1.
    1000022    2    1    0    0    0 -0.52400755221E+02  0.61243211374E+01 -0.31982863935E+02  0.62500000170E+02  0.99999989310E+01 0.  0.
    3000022    2    3    3    0    0 -0.29946939190E+02  0.82343419145E+01 -0.17026793095E+02  0.35420301187E+02  0.24999892111E+00 0.  0.
    1000022    2    1    0    0    0  0.52400755221E+02 -0.61243211374E+01  0.31982863935E+02  0.62499999830E+02  0.99999968050E+01 0.  0.
    3000022    2    5    5    0    0  0.25135630829E+02 -0.12102326527E+01  0.20637334784E+02  0.32545762977E+02  0.25000098794E+00 0.  0.
        -13    1    4    4    0    0 -0.74778916738E+01  0.20346508131E+01 -0.42668180948E+01  0.88473402484E+01  0.10500000000E+00 0.  1.
         13    1    4    4    0    0 -0.22469047516E+02  0.61996911014E+01 -0.12759975000E+02  0.26572960938E+02  0.10500000000E+00 0. -1.
    3000001    1    5    5    0    0  0.27265124392E+02 -0.49140884847E+01  0.11345529151E+02  0.29954236853E+02  0.10000000000E+01 0.  1.
        -13    1    6    6    0    0  0.13890439868E+02 -0.73196849440E+00  0.11379695738E+02  0.17971883532E+02  0.10500000000E+00 0.  1.
         13    1    6    6    0    0  0.11245190962E+02 -0.47826415834E+00  0.92576390456E+01  0.14573879445E+02  0.10500000000E+00 0. -1.
</event>
<event>
11    0  0.3439373E-009  0.9118800E+02  0.7816531E-02  0.1126479E+00
         25   -1    0    0    0    0  0.00000000000E+00  0.00000000000E+00  0.99999998245E-14  0.12500000000E+03  0.12500000000E+03 0.  0.
    3000001    1    3    3    0    0  0.40446749178E+02  0.15690861129E+02  0.10993299220E+01  0.43409113885E+02  0.10000000000E+01 0. -1.
    1000022    2    1    0    0    0  0.55779244151E+02  0.25417816505E+02  0.69900323838E+01  0.62500000108E+02  0.99999993400E+01 0.  0.
    3000022    2    3    3    0    0  0.15332494973E+02  0.97269553760E+01  0.58907024618E+01  0.19090886223E+02  0.24999655519E+00 0.  0.
    1000022    2    1    0    0    0 -0.55779244151E+02 -0.25417816505E+02 -0.69900323838E+01  0.62499999892E+02  0.99999979904E+01 0.  0.
    3000022    2    5    5    0    0 -0.50980740289E+02 -0.25564036103E+02 -0.51554053763E+01  0.57264269213E+02  0.25000320383E+00 0.  0.
        -13    1    4    4    0    0  0.41383410276E+01  0.25835597048E+01  0.15797096821E+01  0.51290500961E+01  0.10500000000E+00 0.  1.
         13    1    4    4    0    0  0.11194153946E+02  0.71433956712E+01  0.43109927797E+01  0.13961836126E+02  0.10500000000E+00 0. -1.
    3000001    1    5    5    0    0 -0.47985038620E+01  0.14621959818E+00 -0.18346270075E+01  0.52357306788E+01  0.10000000000E+01 0. -1.
        -13    1    6    6    0    0 -0.24715544419E+02 -0.12450454493E+02 -0.25464885861E+01  0.27791501977E+02  0.10500000000E+00 0.  1.
         13    1    6    6    0    0 -0.26265195871E+02 -0.13113581610E+02 -0.26089167902E+01  0.29472767237E+02  0.10500000000E+00 0. -1.
</event>
<event>
11    0  0.3439373E-009  0.9118800E+02  0.7816531E-02  0.1126479E+00
         25   -1    0    0    0    0  0.00000000000E+00  0.00000000000E+00  0.99999998245E-14  0.12500000000E+03  0.12500000000E+03 0.  0.
    3000001    1    3    3    0    0  0.91436291307E-01 -0.19532057652E+01  0.38701077411E+01  0.44498435123E+01  0.10000000000E+01 0. -1.
    1000022    2    1    0    0    0  0.23304693261E+02 -0.44506842945E+02  0.35808969102E+02  0.62500000308E+02  0.99999986767E+01 0.  0.
    3000022    2    3    3    0    0  0.23213256970E+02 -0.42553637179E+02  0.31938861361E+02  0.58050156796E+02  0.25000539083E+00 0.  0.
    1000022    2    1    0    0    0 -0.23304693261E+02  0.44506842945E+02 -0.35808969102E+02  0.62499999692E+02  0.99999948215E+01 0.  0.
    3000022    2    5    5    0    0 -0.11832725563E+02  0.23538266493E+02 -0.24737977443E+02  0.36139914381E+02  0.24999950349E+00 0.  0.
        -13    1    4    4    0    0  0.15534848847E+02 -0.28441084071E+02  0.21412849252E+02  0.38842604571E+02  0.10500000000E+00 0. -1.
         13    1    4    4    0    0  0.76784081229E+01 -0.14112553109E+02  0.10526012109E+02  0.19207552225E+02  0.10500000000E+00 0.  1.
    3000001    1    5    5    0    0 -0.11471967698E+02  0.20968576451E+02 -0.11070991659E+02  0.26360085311E+02  0.10000000000E+01 0. -1.
        -13    1    6    6    0    0 -0.58741846612E+01  0.11597343455E+02 -0.12131470327E+02  0.17781676466E+02  0.10500000000E+00 0.  1.
         13    1    6    6    0    0 -0.59585409014E+01  0.11940923038E+02 -0.12606507116E+02  0.18358237915E+02  0.10500000000E+00 0. -1.
</event>
<event>
11    0  0.3439373E-009  0.9118800E+02  0.7816531E-02  0.1126479E+00
         25   -1    0    0    0    0  0.00000000000E+00  0.00000000000E+00  0.99999998245E-14  0.12500000000E+03  0.12500000000E+03 0.  0.
    3000001    1    3    3    0    0 -0.35393358481E+01  0.63189410779E+01  0.62228226485E+01  0.96010122543E+01  0.10000000000E+01 0.  1.
    1000022    2    1    0    0    0 -0.68148936593E+01  0.53291716242E+02  0.30328206899E+02  0.62500000320E+02  0.10000005529E+02 0.  0.
    3000022    2    3    3    0    0 -0.32755578112E+01  0.46972775164E+02  0.24105384251E+02  0.52898988065E+02  0.25000566681E+00 0.  0.
    1000022    2    1    0    0    0  0.68148936593E+01 -0.53291716242E+02 -0.30328206899E+02  0.62499999680E+02  0.10000001535E+02 0.  0.
    3000022    2    5    5    0    0  0.39857249153E+01 -0.46081976314E+02 -0.22478587458E+02  0.51427462889E+02  0.25000208471E+00 0.  0.
        -13    1    4    4    0    0 -0.12163341827E+01  0.16997652527E+02  0.87796267714E+01  0.19170094719E+02  0.10500000000E+00 0. -1.
         13    1    4    4    0    0 -0.20592236285E+01  0.29975122637E+02  0.15325757479E+02  0.33728893347E+02  0.10500000000E+00 0.  1.
    3000001    1    5    5    0    0  0.28291687440E+01 -0.72097399285E+01 -0.78496194412E+01  0.11072536791E+02  0.10000000000E+01 0. -1.
        -13    1    6    6    0    0  0.13080914534E+01 -0.15533543417E+02 -0.76215745291E+01  0.17352276440E+02  0.10500000000E+00 0.  1.
         13    1    6    6    0    0  0.26776334620E+01 -0.30548432897E+02 -0.14857012929E+02  0.34075186450E+02  0.10500000000E+00 0. -1.
</event>
<event>
11    0  0.3439373E-009  0.9118800E+02  0.7816531E-02  0.1126479E+00
         25   -1    0    0    0    0  0.00000000000E+00  0.00000000000E+00  0.99999998245E-14  0.12500000000E+03  0.12500000000E+03 0.  0.
    3000001    1    3    3    0    0  0.94260671147E+01  0.19159686790E+02  0.46109235987E+02  0.50823281894E+02  0.10000000000E+01 0. -1.
    1000022    2    1    0    0    0  0.13136119015E+02  0.27053805603E+02  0.53868210224E+02  0.62500001375E+02  0.10000003936E+02 0.  0.
    3000022    2    3    3    0    0  0.37100519001E+01  0.78941188137E+01  0.77589742373E+01  0.11676719481E+02  0.24999937668E+00 0.  0.
    1000022    2    1    0    0    0 -0.13136119015E+02 -0.27053805603E+02 -0.53868210224E+02  0.62499998625E+02  0.99999867459E+01 0.  0.
    3000022    2    5    5    0    0 -0.94683280753E+00 -0.26717364150E+01 -0.10118588228E+01  0.30201038733E+01  0.25000258349E+00 0.  0.
        -13    1    4    4    0    0  0.19195214778E+01  0.40448239132E+01  0.38946910236E+01  0.59350489772E+01  0.10500000000E+00 0.  1.
         13    1    4    4    0    0  0.17905304223E+01  0.38492949005E+01  0.38642832137E+01  0.57416705043E+01  0.10500000000E+00 0. -1.
    3000001    1    5    5    0    0 -0.12189286207E+02 -0.24382069188E+02 -0.52856351402E+02  0.59479894751E+02  0.10000000000E+01 0. -1.
        -13    1    6    6    0    0 -0.49471364890E+00 -0.15603156354E+01 -0.62041681301E+00  0.17536443477E+01  0.10500000000E+00 0.  1.
         13    1    6    6    0    0 -0.45211915863E+00 -0.11114207796E+01 -0.39144200976E+00  0.12664595256E+01  0.10500000000E+00 0. -1.
</event>
<event>
11    0  0.3439373E-009  0.9118800E+02  0.7816531E-02  0.1126479E+00
         25   -1    0    0    0    0  0.00000000000E+00  0.00000000000E+00  0.99999998245E-14  0.12500000000E+03  0.12500000000E+03 0.  0.
    3000001    1    3    3    0    0  0.16353382098E+02 -0.18148756389E+02  0.29925763184E+02  0.38644039212E+02  0.10000000000E+01 0. -1.
    1000022    2    1    0    0    0  0.30296081343E+02 -0.22592428089E+02  0.48764533804E+02  0.62499999947E+02  0.99999942261E+01 0.  0.
    3000022    2    3    3    0    0  0.13942699246E+02 -0.44436717003E+01  0.18838770620E+02  0.23855960735E+02  0.25000733302E+00 0.  0.
    1000022    2    1    0    0    0 -0.30296081343E+02  0.22592428089E+02 -0.48764533804E+02  0.62500000053E+02  0.99999948837E+01 0.  0.
    3000022    2    5    5    0    0 -0.75767425090E+01  0.94177431395E+00 -0.10894967966E+02  0.13306268920E+02  0.24999936043E+00 0.  0.
        -13    1    4    4    0    0  0.50489784905E+01 -0.15761978465E+01  0.67297355553E+01  0.85601956224E+01  0.10500000000E+00 0. -1.
         13    1    4    4    0    0  0.88937207551E+01 -0.28674738538E+01  0.12109035065E+02  0.15295765113E+02  0.10500000000E+00 0.  1.
    3000001    1    5    5    0    0 -0.22719338834E+02  0.21650653775E+02 -0.37869565839E+02  0.49193731133E+02  0.10000000000E+01 0. -1.
        -13    1    6    6    0    0 -0.31827740032E+01  0.34285303609E+00 -0.46346796547E+01  0.56337269247E+01  0.10500000000E+00 0.  1.
         13    1    6    6    0    0 -0.43939685058E+01  0.59892127787E+00 -0.62602883110E+01  0.76725419949E+01  0.10500000000E+00 0. -1.
</event>
<event>
11    0  0.3439373E-009  0.9118800E+02  0.7816531E-02  0.1126479E+00
         25   -1    0    0    0    0  0.00000000000E+00  0.00000000000E+00  0.99999998245E-14  0.12500000000E+03  0.12500000000E+03 0.  0.
    3000001    1    3    3    0    0 -0.44938855209E+00 -0.46547831781E+00 -0.78393867655E-01  0.11936355112E+01  0.10000000000E+01 0.  1.
    1000022    2    1    0    0    0 -0.61218684140E+02  0.75053143877E+01 -0.14808731819E+01  0.62499999535E+02  0.99999962281E+01 0.  0.
    3000022    2    3    3    0    0 -0.60769295588E+02  0.79707927055E+01 -0.14024793143E+01  0.61306364023E+02  0.24999789642E+00 0.  0.
    1000022    2    1    0    0    0  0.61218684140E+02 -0.75053143877E+01  0.14808731819E+01  0.62500000465E+02  0.10000002045E+02 0.  0.
    3000022    2    5    5    0    0  0.28369528842E+02  0.14814153489E+01  0.40969304299E+00  0.28412235181E+02  0.25000294602E+00 0.  0.
        -13    1    4    4    0    0 -0.16112164446E+02  0.21310275533E+01 -0.40100301275E+00  0.16257765836E+02  0.10500000000E+00 0. -1.
         13    1    4    4    0    0 -0.44657131142E+02  0.58397651522E+01 -0.10014763015E+01  0.45048598187E+02  0.10500000000E+00 0.  1.
    3000001    1    5    5    0    0  0.32849155298E+02 -0.89867297366E+01  0.10711801389E+01  0.34087765284E+02  0.10000000000E+01 0.  1.
        -13    1    6    6    0    0  0.19529933637E+02  0.97330247835E+00  0.26698270990E+00  0.19556275984E+02  0.10500000000E+00 0. -1.
         13    1    6    6    0    0  0.88395952043E+01  0.50811287054E+00  0.14271033309E+00  0.88559591973E+01  0.10500000000E+00 0.  1.
</event>
<event>
11    0  0.3439373E-009  0.9118800E+02  0.7816531E-02  0.1126479E+00
         25   -1    0    0    0    0  0.00000000000E+00  0.00000000000E+00  0.99999998245E-14  0.12500000000E+03  0.12500000000E+03 0.  0.
    3000001    1    3    3    0    0 -0.68373921742E+01 -0.47353368208E+01  0.33570112368E+02  0.34599505646E+02  0.10000000000E+01 0.  1.
    1000022    2    1    0    0    0 -0.15288276381E+02 -0.16335048806E+02  0.57495084094E+02  0.62499999095E+02  0.99999988815E+01 0.  0.
    3000022    2    3    3    0    0 -0.84508842072E+01 -0.11599711985E+02  0.23924971726E+02  0.27900493448E+02  0.25000111527E+00 0.  0.
    1000022    2    1    0    0    0  0.15288276381E+02  0.16335048806E+02 -0.57495084094E+02  0.62500000905E+02  0.10000010198E+02 0.  0.
    3000022    2    5    5    0    0 -0.42196080457E+00  0.30689668316E+01 -0.14515870921E+02  0.14844851673E+02  0.25000851532E+00 0.  0.
        -13    1    4    4    0    0 -0.27642368740E+01 -0.37883252304E+01  0.79203093146E+01  0.92051473744E+01  0.10500000000E+00 0. -1.
         13    1    4    4    0    0 -0.56866473332E+01 -0.78113867545E+01  0.16004662411E+02  0.18695346074E+02  0.10500000000E+00 0.  1.
    3000001    1    5    5    0    0  0.15710237186E+02  0.13266081974E+02 -0.42979213173E+02  0.47655149233E+02  0.10000000000E+01 0. -1.
        -13    1    6    6    0    0 -0.25887762584E+00  0.21673954083E+01 -0.10100388128E+02  0.10334093371E+02  0.10500000000E+00 0.  1.
         13    1    6    6    0    0 -0.16308317873E+00  0.90157142331E+00 -0.44154827934E+01  0.45107583014E+01  0.10500000000E+00 0. -1.
</event>
<event>
11    0  0.3439373E-009  0.9118800E+02  0.7816531E-02  0.1126479E+00
         25   -1    0    0    0    0  0.00000000000E+00  0.00000000000E+00  0.99999998245E-14  0.12500000000E+03  0.12500000000E+03 0.  0.
    3000001    1    3    3    0    0 -0.22249084409E+00 -0.28187851280E+02  0.83917689647E+01  0.29428323913E+02  0.10000000000E+01 0.  1.
    1000022    2    1    0    0    0 -0.36654876590E+01 -0.55458329560E+02  0.26780355463E+02  0.62500000988E+02  0.10000028373E+02 0.  0.
    3000022    2    3    3    0    0 -0.34429968149E+01 -0.27270478280E+02  0.18388586498E+02  0.33071677076E+02  0.24999700084E+00 0.  0.
    1000022    2    1    0    0    0  0.36654876590E+01  0.55458329560E+02 -0.26780355463E+02  0.62499999012E+02  0.10000016022E+02 0.  0.
    3000022    2    5    5    0    0  0.40980107880E+01  0.16113472805E+02 -0.11781898392E+02  0.20379237577E+02  0.24999252059E+00 0.  0.
        -13    1    4    4    0    0 -0.18766927294E+01 -0.15315620860E+02  0.10281347116E+02  0.18542042537E+02  0.10500000000E+00 0. -1.
         13    1    4    4    0    0 -0.15663040855E+01 -0.11954857420E+02  0.81072393818E+01  0.14529634538E+02  0.10500000000E+00 0.  1.
    3000001    1    5    5    0    0 -0.43252312901E+00  0.39344856755E+02 -0.14998457071E+02  0.42120761435E+02  0.10000000000E+01 0.  1.
        -13    1    6    6    0    0  0.25878852930E+01  0.10051865629E+02 -0.74186438793E+01  0.12758701146E+02  0.10500000000E+00 0.  1.
         13    1    6    6    0    0  0.15101254950E+01  0.60616071752E+01 -0.43632545132E+01  0.76205364316E+01  0.10500000000E+00 0. -1.
</event>
<event>
11    0  0.3439373E-009  0.9118800E+02  0.7816531E-02  0.1126479E+00
         25   -1    0    0    0    0  0.00000000000E+00  0.00000000000E+00  0.99999998245E-14  0.12500000000E+03  0.12500000000E+03 0.  0.
    3000001    1    3    3    0    0 -0.13806201033E+02  0.60228723045E+01 -0.95931483279E+00  0.15126349947E+02  0.10000000000E+01 0. -1.
    1000022    2    1    0    0    0 -0.58603237193E+02  0.15973436349E+02  0.10805549833E+02  0.62499999939E+02  0.10000000345E+02 0.  0.
    3000022    2    3    3    0    0 -0.44797036160E+02  0.99505640441E+01  0.11764864666E+02  0.47373649992E+02  0.24999897176E+00 0.  0.
    1000022    2    1    0    0    0  0.58603237193E+02 -0.15973436349E+02 -0.10805549833E+02  0.62500000061E+02  0.10000001109E+02 0.  0.
    3000022    2    5    5    0    0  0.45741553980E+02 -0.82671713324E+01 -0.70945941414E+01  0.47021608422E+02  0.25002055515E+00 0.  0.
        -13    1    4    4    0    0 -0.25688409271E+02  0.56895851916E+01  0.66801692674E+01  0.27145928553E+02  0.10500000000E+00 0. -1.
         13    1    4    4    0    0 -0.19108626888E+02  0.42609788525E+01  0.50846953982E+01  0.20227721439E+02  0.10500000000E+00 0.  1.
    3000001    1    5    5    0    0  0.12861683213E+02 -0.77062650162E+01 -0.37109556913E+01  0.15478391639E+02  0.10000000000E+01 0.  1.
        -13    1    6    6    0    0  0.29748068248E+02 -0.53214442890E+01 -0.45964087073E+01  0.30568011578E+02  0.10500000000E+00 0.  1.
         13    1    6    6    0    0  0.15993485732E+02 -0.29457270434E+01 -0.24981854341E+01  0.16453596845E+02  0.10500000000E+00 0. -1.
</event>
<event>
11    0  0.3439373E-009  0.9118800E+02  0.7816531E-02  0.1126479E+00
         25   -1    0    0    0    0  0.00000000000E+00  0.00000000000E+00  0.99999998245E-14  0.12500000000E+03  0.12500000000E+03 0.  0.
    3000001    1    3    3    0    0 -0.51062329125E+01  0.11425926020E+02 -0.70132209585E+01  0.14380913330E+02  0.10000000000E+01 0.  1.
    1000022    2    1    0    0    0 -0.29942801212E+02  0.51948270408E+02 -0.14527765981E+02  0.62499999003E+02  0.99999874128E+01 0.  0.
    3000022    2    3    3    0    0 -0.24836568300E+02  0.40522344387E+02 -0.75145450223E+01  0.48119085674E+02  0.24999929918E+00 0.  0.
    1000022    2    1    0    0    0  0.29942801212E+02 -0.51948270408E+02  0.14527765981E+02  0.62500000997E+02  0.99999998691E+01 0.  0.
    3000022    2    5    5    0    0  0.18814531580E+02 -0.39447855974E+02  0.76114583902E+01  0.44363461726E+02  0.24999592987E+00 0.  0.
        -13    1    4    4    0    0 -0.81920938044E+01  0.13267074865E+02 -0.24747003934E+01  0.15787996814E+02  0.10500000000E+00 0.  1.
         13    1    4    4    0    0 -0.16644474495E+02  0.27255269522E+02 -0.50398446289E+01  0.32331088860E+02  0.10500000000E+00 0. -1.
    3000001    1    5    5    0    0  0.11128269632E+02 -0.12500414433E+02  0.69163075906E+01  0.18136539270E+02  0.10000000000E+01 0. -1.
        -13    1    6    6    0    0  0.86225707398E+01 -0.17998353439E+02  0.35338507388E+01  0.20267919941E+02  0.10500000000E+00 0. -1.
         13    1    6    6    0    0  0.10191960840E+02 -0.21449502535E+02  0.40776076513E+01  0.24095541786E+02  0.10500000000E+00 0.  1.
</event>
<event>
11    0  0.3439373E-009  0.9118800E+02  0.7816531E-02  0.1126479E+00
         25   -1    0    0    0    0  0.00000000000E+00  0.00000000000E+00  0.99999998245E-14  0.12500000000E+03  0.12500000000E+03 0.  0.
    3000001    1    3    3    0    0 -0.61619696036E+01  0.43363647204E+01 -0.59632075124E+02  0.60114543265E+02  0.10000000000E+01 0.  1.
    1000022    2    1    0    0    0 -0.71982952000E+01  0.28942498827E+01 -0.61205048298E+02  0.62500001430E+02  0.10000005274E+02 0.  0.
    3000022    2    3    3    0    0 -0.10363255964E+01 -0.14421148377E+01 -0.15729731737E+01  0.23854581651E+01  0.25000021054E+00 0.  0.
    1000022    2    1    0    0    0  0.71982952000E+01 -0.28942498827E+01  0.61205048298E+02  0.62499998570E+02  0.99999873942E+01 0.  0.
    3000022    2    5    5    0    0  0.85660250223E+01 -0.21133718042E+01  0.30853916674E+02  0.32091584499E+02  0.24999292794E+00 0.  0.
        -13    1    4    4    0    0 -0.47426615755E+00 -0.55350643904E+00 -0.66631946462E+00  0.99312858945E+00  0.10500000000E+00 0.  1.
         13    1    4    4    0    0 -0.56205943890E+00 -0.88860839864E+00 -0.90665370907E+00  0.13923295756E+01  0.10500000000E+00 0. -1.
    3000001    1    5    5    0    0 -0.13677298223E+01 -0.78087807857E+00  0.30351131623E+02  0.30408414070E+02  0.10000000000E+01 0.  1.
        -13    1    6    6    0    0  0.39097759078E+01 -0.90390934317E+00  0.14147803203E+02  0.14706283019E+02  0.10500000000E+00 0.  1.
         13    1    6    6    0    0  0.46562491145E+01 -0.12094624610E+01  0.16706113471E+02  0.17385301481E+02  0.10500000000E+00 0. -1.
</event>
<event>
11    0  0.3439373E-009  0.9118800E+02  0.7816531E-02  0.1126479E+00
         25   -1    0    0    0    0  0.00000000000E+00  0.00000000000E+00  0.99999998245E-14  0.12500000000E+03  0.12500000000E+03 0.  0.
    3000001    1    3    3    0    0 -0.17787716750E+02 -0.14595066605E+02 -0.10221427326E+02  0.25197150890E+02  0.10000000000E+01 0.  1.
    1000022    2    1    0    0    0 -0.34512080899E+02 -0.43039675630E+02 -0.27617976488E+02  0.62500000047E+02  0.99999987098E+01 0.  0.
    3000022    2    3    3    0    0 -0.16724364149E+02 -0.28444609025E+02 -0.17396549162E+02  0.37302849157E+02  0.24998734900E+00 0.  0.
    1000022    2    1    0    0    0  0.34512080899E+02  0.43039675630E+02  0.27617976488E+02  0.62499999953E+02  0.99999981252E+01 0.  0.
    3000022    2    5    5    0    0  0.31489642429E+02  0.41759600626E+02  0.27441846449E+02  0.59064196101E+02  0.24999959218E+00 0.  0.
        -13    1    4    4    0    0 -0.84212451873E+01 -0.14358884435E+02 -0.87023255445E+01  0.18783940683E+02  0.10500000000E+00 0.  1.
         13    1    4    4    0    0 -0.83031189613E+01 -0.14085724590E+02 -0.86942236179E+01  0.18518908473E+02  0.10500000000E+00 0. -1.
    3000001    1    5    5    0    0  0.30224384697E+01  0.12800750046E+01  0.17613003968E+00  0.34358038523E+01  0.10000000000E+01 0. -1.
        -13    1    6    6    0    0  0.20979582831E+02  0.27732359259E+02  0.18245786109E+02  0.39270171652E+02  0.10500000000E+00 0.  1.
         13    1    6    6    0    0  0.10510059599E+02  0.14027241367E+02  0.91960603394E+01  0.19794024449E+02  0.10500000000E+00 0. -1.
</event>
<event>
11    0  0.3439373E-009  0.9118800E+02  0.7816531E-02  0.1126479E+00
         25   -1    0    0    0    0  0.00000000000E+00  0.00000000000E+00  0.99999998245E-14  0.12500000000E+03  0.12500000000E+03 0.  0.
    3000001    1    3    3    0    0  0.28052240974E+02  0.31653248852E+02  0.20198716727E+02  0.46881174728E+02  0.10000000000E+01 0. -1.
    1000022    2    1    0    0    0  0.39470364459E+02  0.42216184086E+02  0.21590140043E+02  0.62499999999E+02  0.99999991766E+01 0.  0.
    3000022    2    3    3    0    0  0.11418123485E+02  0.10562935235E+02  0.13914233157E+01  0.15618825271E+02  0.24999860603E+00 0.  0.
    1000022    2    1    0    0    0 -0.39470364459E+02 -0.42216184086E+02 -0.21590140043E+02  0.62500000001E+02  0.99999991874E+01 0.  0.
    3000022    2    5    5    0    0 -0.21012701737E+01  0.15753516739E+00 -0.11249619227E+01  0.24017071254E+01  0.25000823391E+00 0.  0.
        -13    1    4    4    0    0  0.45171499013E+01  0.41135434882E+01  0.58650474683E+00  0.61384766903E+01  0.10500000000E+00 0. -1.
         13    1    4    4    0    0  0.69009735839E+01  0.64493917464E+01  0.80491856891E+00  0.94803485804E+01  0.10500000000E+00 0.  1.
    3000001    1    5    5    0    0 -0.37369094285E+02 -0.42373719253E+02 -0.20465178120E+02  0.60098292875E+02  0.10000000000E+01 0. -1.
        -13    1    6    6    0    0 -0.88997222500E+00  0.55596374082E-02 -0.44994523994E+00  0.10027747453E+01  0.10500000000E+00 0. -1.
         13    1    6    6    0    0 -0.12112979487E+01  0.15197552998E+00 -0.67501668280E+00  0.13989323802E+01  0.10500000000E+00 0.  1.
</event>
<event>
11    0  0.3439373E-009  0.9118800E+02  0.7816531E-02  0.1126479E+00
         25   -1    0    0    0    0  0.00000000000E+00  0.00000000000E+00  0.99999998245E-14  0.12500000000E+03  0.12500000000E+03 0.  0.
    3000001    1    3    3    0    0  0.24866276361E+02 -0.21410851744E+02  0.52119465199E+02  0.61597036658E+02  0.10000000000E+01 0. -1.
    1000022    2    1    0    0    0  0.25665676620E+02 -0.21534081917E+02  0.51805465872E+02  0.62499999919E+02  0.10000002768E+02 0.  0.
    3000022    2    3    3    0    0  0.79940025877E+00 -0.12323017333E+00 -0.31399932700E+00  0.90296326115E+00  0.25004124518E+00 0.  0.
    1000022    2    1    0    0    0 -0.25665676620E+02  0.21534081917E+02 -0.51805465872E+02  0.62500000081E+02  0.10000003775E+02 0.  0.
    3000022    2    5    5    0    0 -0.16308741967E+02  0.18802885071E+02 -0.40515305665E+02  0.47550773351E+02  0.25000327974E+00 0.  0.
        -13    1    4    4    0    0  0.24561714386E+00 -0.12669736029E-01 -0.14513304768E+00  0.30426453145E+00  0.10500000000E+00 0. -1.
         13    1    4    4    0    0  0.55378311491E+00 -0.11056043730E+00 -0.16886627932E+00  0.59869872970E+00  0.10500000000E+00 0.  1.
    3000001    1    5    5    0    0 -0.93569346524E+01  0.27311968458E+01 -0.11290160207E+02  0.14949226729E+02  0.10000000000E+01 0. -1.
        -13    1    6    6    0    0 -0.10759687494E+02  0.12487742039E+02 -0.26820353701E+02  0.31481057381E+02  0.10500000000E+00 0.  1.
         13    1    6    6    0    0 -0.55490544736E+01  0.63151430328E+01 -0.13694951963E+02  0.16069715970E+02  0.10500000000E+00 0. -1.
</event>
<event>
11    0  0.3439373E-009  0.9118800E+02  0.7816531E-02  0.1126479E+00
         25   -1    0    0    0    0  0.00000000000E+00  0.00000000000E+00  0.99999998245E-14  0.12500000000E+03  0.12500000000E+03 0.  0.
    3000001    1    3    3    0    0 -0.29138931129E+00  0.21070150327E+02 -0.24866386842E+02  0.32609405654E+02  0.10000000000E+01 0. -1.
    1000022    2    1    0    0    0 -0.83071723085E+01  0.43363036295E+02 -0.43091627734E+02  0.62499996992E+02  0.99999607363E+01 0.  0.
    3000022    2    3    3    0    0 -0.80157829972E+01  0.22292885969E+02 -0.18225240892E+02  0.29890591338E+02  0.25000620597E+00 0.  0.
    1000022    2    1    0    0    0  0.83071723085E+01 -0.43363036295E+02  0.43091627734E+02  0.62500003008E+02  0.99999983363E+01 0.  0.
    3000022    2    5    5    0    0  0.88587431555E+01 -0.20053290642E+02  0.21456324042E+02  0.30676507935E+02  0.25000363900E+00 0.  0.
        -13    1    4    4    0    0 -0.60464969576E+01  0.16826309579E+02 -0.13725499201E+02  0.22540744726E+02  0.10500000000E+00 0. -1.
         13    1    4    4    0    0 -0.19692860397E+01  0.54665763902E+01 -0.44997416905E+01  0.73498466118E+01  0.10500000000E+00 0.  1.
    3000001    1    5    5    0    0 -0.55157084697E+00 -0.23309745653E+02  0.21635303692E+02  0.31823495073E+02  0.10000000000E+01 0.  1.
        -13    1    6    6    0    0  0.50507828583E+01 -0.11418212514E+02  0.12310872414E+02  0.17534383054E+02  0.10500000000E+00 0. -1.
         13    1    6    6    0    0  0.38079602972E+01 -0.86350781280E+01  0.91454516281E+01  0.13142124881E+02  0.10500000000E+00 0.  1.
</event>
<event>
11    0  0.3439373E-009  0.9118800E+02  0.7816531E-02  0.1126479E+00
         25   -1    0    0    0    0  0.00000000000E+00  0.00000000000E+00  0.99999998245E-14  0.12500000000E+03  0.12500000000E+03 0.  0.
    3000001    1    3    3    0    0  0.30516344100E+02 -0.45101978128E+01 -0.96724304528E+01  0.32344165662E+02  0.10000000000E+01 0. -1.
    1000022    2    1    0    0    0  0.55679947594E+02 -0.39277639481E+01 -0.26278625027E+02  0.62500000375E+02  0.10000000992E+02 0.  0.
    3000022    2    3    3    0    0  0.25163603495E+02  0.58243386466E+00 -0.16606194574E+02  0.30155834713E+02  0.24999790313E+00 0.  0.
    1000022    2    1    0    0    0 -0.55679947594E+02  0.39277639481E+01  0.26278625027E+02  0.62499999625E+02  0.99999963046E+01 0.  0.
    3000022    2    5    5    0    0 -0.33303446464E+02  0.59869008301E+01  0.12232880476E+02  0.35981500657E+02  0.24999369344E+00 0.  0.
        -13    1    4    4    0    0  0.11904512470E+02  0.30547841264E+00 -0.79291003522E+01  0.14307074879E+02  0.10500000000E+00 0.  1.
         13    1    4    4    0    0  0.13259091025E+02  0.27695545202E+00 -0.86770942221E+01  0.15848759834E+02  0.10500000000E+00 0. -1.
    3000001    1    5    5    0    0 -0.22376501130E+02 -0.20591368819E+01  0.14045744551E+02  0.26518498968E+02  0.10000000000E+01 0. -1.
        -13    1    6    6    0    0 -0.10663474286E+02  0.18770169837E+01  0.39485379418E+01  0.11525400361E+02  0.10500000000E+00 0. -1.
         13    1    6    6    0    0 -0.22639972179E+02  0.41098838464E+01  0.82843425339E+01  0.24456100296E+02  0.10500000000E+00 0.  1.
</event>
<event>
11    0  0.3439373E-009  0.9118800E+02  0.7816531E-02  0.1126479E+00
         25   -1    0    0    0    0  0.00000000000E+00  0.00000000000E+00  0.99999998245E-14  0.12500000000E+03  0.12500000000E+03 0.  0.
    3000001    1    3    3    0    0  0.30423242722E+01 -0.18127311589E+02 -0.22899561593E+02  0.29381032718E+02  0.10000000000E+01 0. -1.
    1000022    2    1    0    0    0 -0.21063164494E+01 -0.42794419522E+02 -0.44389762453E+02  0.62499999272E+02  0.99999993570E+01 0.  0.
    3000022    2    3    3    0    0 -0.51486407216E+01 -0.24667107932E+02 -0.21490200860E+02  0.33118966553E+02  0.24999507698E+00 0.  0.
    1000022    2    1    0    0    0  0.21063164494E+01  0.42794419522E+02  0.44389762453E+02  0.62500000728E+02  0.10000008463E+02 0.  0.
    3000022    2    5    5    0    0 -0.37857649663E+00  0.38516240076E+02  0.41747114394E+02  0.56802536285E+02  0.24999686425E+00 0.  0.
        -13    1    4    4    0    0 -0.25567717816E+01 -0.12472632170E+02 -0.10792180937E+02  0.16690890616E+02  0.10500000000E+00 0.  1.
         13    1    4    4    0    0 -0.25918689401E+01 -0.12194475762E+02 -0.10698019923E+02  0.16428075937E+02  0.10500000000E+00 0. -1.
    3000001    1    5    5    0    0  0.24848929461E+01  0.42781794458E+01  0.26426480593E+01  0.56974644439E+01  0.10000000000E+01 0.  1.
        -13    1    6    6    0    0 -0.27107228716E+00  0.22543708515E+02  0.24495854122E+02  0.33291893427E+02  0.10500000000E+00 0. -1.
         13    1    6    6    0    0 -0.10750420948E+00  0.15972531561E+02  0.17251260272E+02  0.23510642858E+02  0.10500000000E+00 0.  1.
</event>
<event>
11    0  0.3439373E-009  0.9118800E+02  0.7816531E-02  0.1126479E+00
         25   -1    0    0    0    0  0.00000000000E+00  0.00000000000E+00  0.99999998245E-14  0.12500000000E+03  0.12500000000E+03 0.  0.
    3000001    1    3    3    0    0 -0.14418864344E+01  0.16782387172E+02 -0.30880622832E+02  0.35190061412E+02  0.10000000000E+01 0. -1.
    1000022    2    1    0    0    0  0.55018369642E+01  0.26524971991E+02 -0.55429286863E+02  0.62499998438E+02  0.99999806750E+01 0.  0.
    3000022    2    3    3    0    0  0.69437233985E+01  0.97425848189E+01 -0.24548664032E+02  0.27309937027E+02  0.25000214009E+00 0.  0.
    1000022    2    1    0    0    0 -0.55018369642E+01 -0.26524971991E+02  0.55429286863E+02  0.62500001562E+02  0.10000000198E+02 0.  0.
    3000022    2    5    5    0    0  0.28314036790E+00 -0.12862384627E+02  0.17203111811E+02  0.21483264547E+02  0.24998571031E+00 0.  0.
        -13    1    4    4    0    0  0.17773352093E+01  0.25059493875E+01 -0.63732774053E+01  0.70759022508E+01  0.10500000000E+00 0.  1.
         13    1    4    4    0    0  0.51663881892E+01  0.72366354314E+01 -0.18175386626E+02  0.20234034776E+02  0.10500000000E+00 0. -1.
    3000001    1    5    5    0    0 -0.57849773321E+01 -0.13662587363E+02  0.38226175052E+02  0.41016737015E+02  0.10000000000E+01 0. -1.
        -13    1    6    6    0    0  0.11730344266E+00 -0.41183140581E+01  0.55822803321E+01  0.69388147032E+01  0.10500000000E+00 0. -1.
         13    1    6    6    0    0  0.16583692524E+00 -0.87440705692E+01  0.11620831479E+02  0.14544449844E+02  0.10500000000E+00 0.  1.
</event>
<event>
11    0  0.3439373E-009  0.9118800E+02  0.7816531E-02  0.1126479E+00
         25   -1    0    0    0    0  0.00000000000E+00  0.00000000000E+00  0.99999998245E-14  0.12500000000E+03  0.12500000000E+03 0.  0.
    3000001    1    3    3    0    0 -0.86367676491E+00 -0.40664238487E+02  0.28175525439E+02  0.49489256036E+02  0.10000000000E+01 0. -1.
    1000022    2    1    0    0    0 -0.12324861601E+01 -0.47695361673E+02  0.39113727136E+02  0.62500000400E+02  0.99999926141E+01 0.  0.
    3000022    2    3    3    0    0 -0.36880939524E+00 -0.70311231858E+01  0.10938201697E+02  0.13010744363E+02  0.24999780403E+00 0.  0.
    1000022    2    1    0    0    0  0.12324861601E+01  0.47695361673E+02 -0.39113727136E+02  0.62499999600E+02  0.99999876157E+01 0.  0.
    3000022    2    5    5    0    0  0.24540353054E+01  0.28722565098E+02 -0.17618519140E+02  0.33785836562E+02  0.25000082315E+00 0.  0.
        -13    1    4    4    0    0 -0.74241564347E-01 -0.25041982634E+01  0.38803344903E+01  0.46200153147E+01  0.10500000000E+00 0.  1.
         13    1    4    4    0    0 -0.29456783090E+00 -0.45269249225E+01  0.70578672068E+01  0.83907290487E+01  0.10500000000E+00 0. -1.
    3000001    1    5    5    0    0 -0.12215491452E+01  0.18972796574E+02 -0.21495207997E+02  0.28714163038E+02  0.10000000000E+01 0. -1.
        -13    1    6    6    0    0  0.16336800880E+01  0.18445906153E+02 -0.11311081804E+02  0.21699584351E+02  0.10500000000E+00 0. -1.
         13    1    6    6    0    0  0.82035521736E+00  0.10276658946E+02 -0.63074373356E+01  0.12086252211E+02  0.10500000000E+00 0.  1.
</event>
<event>
11    0  0.3439373E-009  0.9118800E+02  0.7816531E-02  0.1126479E+00
         25   -1    0    0    0    0  0.00000000000E+00  0.00000000000E+00  0.99999998245E-14  0.12500000000E+03  0.12500000000E+03 0.  0.
    3000001    1    3    3    0    0  0.12367511325E+02  0.23787596760E+02  0.11438763087E+02  0.29165911557E+02  0.10000000000E+01 0.  1.
    1000022    2    1    0    0    0  0.35171436979E+02  0.45077353025E+02  0.23178702543E+02  0.62499999630E+02  0.99999983652E+01 0.  0.
    3000022    2    3    3    0    0  0.22803925654E+02  0.21289756265E+02  0.11739939456E+02  0.33334088074E+02  0.25000438395E+00 0.  0.
    1000022    2    1    0    0    0 -0.35171436979E+02 -0.45077353025E+02 -0.23178702543E+02  0.62500000370E+02  0.10000002984E+02 0.  0.
    3000022    2    5    5    0    0 -0.25274520337E+02 -0.36814494789E+02 -0.21145827873E+02  0.49409684687E+02  0.24999911987E+00 0.  0.
        -13    1    4    4    0    0  0.57891708104E+01  0.54084797268E+01  0.29511250296E+01  0.84549580465E+01  0.10500000000E+00 0. -1.
         13    1    4    4    0    0  0.17014754844E+02  0.15881276539E+02  0.87888144259E+01  0.24879130027E+02  0.10500000000E+00 0.  1.
    3000001    1    5    5    0    0 -0.98969166423E+01 -0.82628582360E+01 -0.20328746697E+01  0.13090315683E+02  0.10000000000E+01 0.  1.
        -13    1    6    6    0    0 -0.13603949290E+02 -0.19747514307E+02 -0.11294174627E+02  0.26506624890E+02  0.10500000000E+00 0.  1.
         13    1    6    6    0    0 -0.11670571047E+02 -0.17066980483E+02 -0.98516532459E+01  0.22903059796E+02  0.10500000000E+00 0. -1.
</event>
<event>
11    0  0.3439373E-009  0.9118800E+02  0.7816531E-02  0.1126479E+00
         25   -1    0    0    0    0  0.00000000000E+00  0.00000000000E+00  0.99999998245E-14  0.12500000000E+03  0.12500000000E+03 0.  0.
    3000001    1    3    3    0    0  0.16707195063E+02 -0.81447529240E+01  0.15097954394E+02  0.23966968810E+02  0.10000000000E+01 0. -1.
    1000022    2    1    0    0    0  0.36447690362E+02 -0.14926173683E+02  0.47487106255E+02  0.62499999840E+02  0.99999963019E+01 0.  0.
    3000022    2    3    3    0    0  0.19740495300E+02 -0.67814207594E+01  0.32389151861E+02  0.38533031031E+02  0.24999989058E+00 0.  0.
    1000022    2    1    0    0    0 -0.36447690362E+02  0.14926173683E+02 -0.47487106255E+02  0.62500000160E+02  0.99999982958E+01 0.  0.
    3000022    2    5    5    0    0 -0.20904421154E+02  0.82577767468E+01 -0.19368070500E+02  0.29671035705E+02  0.25000863995E+00 0.  0.
        -13    1    4    4    0    0  0.13827446627E+02 -0.47766334791E+01  0.22770055359E+02  0.27064754824E+02  0.10500000000E+00 0. -1.
         13    1    4    4    0    0  0.59130486729E+01 -0.20047872803E+01  0.96190965016E+01  0.11468276207E+02  0.10500000000E+00 0.  1.
    3000001    1    5    5    0    0 -0.15543269208E+02  0.66683969365E+01 -0.28119035755E+02  0.32828964455E+02  0.10000000000E+01 0. -1.
        -13    1    6    6    0    0 -0.10250369580E+02  0.40955636732E+01 -0.95807521968E+01  0.14616619171E+02  0.10500000000E+00 0. -1.
         13    1    6    6    0    0 -0.10654051574E+02  0.41622130737E+01 -0.97873183032E+01  0.15054416534E+02  0.10500000000E+00 0.  1.
</event>
<event>
11    0  0.3439373E-009  0.9118800E+02  0.7816531E-02  0.1126479E+00
         25   -1    0    0    0    0  0.00000000000E+00  0.00000000000E+00  0.99999998245E-14  0.12500000000E+03  0.12500000000E+03 0.  0.
    3000001    1    3    3    0    0  0.13837322079E+02  0.31048058908E+02 -0.26711671112E+02  0.43243112953E+02  0.10000000000E+01 0.  1.
    1000022    2    1    0    0    0  0.14769739777E+02  0.47925139417E+02 -0.35934465271E+02  0.62499999557E+02  0.99999974596E+01 0.  0.
    3000022    2    3    3    0    0  0.93241769780E+00  0.16877080508E+02 -0.92227941590E+01  0.19256886604E+02  0.25000068121E+00 0.  0.
    1000022    2    1    0    0    0 -0.14769739777E+02 -0.47925139417E+02  0.35934465271E+02  0.62500000443E+02  0.10000002995E+02 0.  0.
    3000022    2    5    5    0    0 -0.90504352450E+01 -0.39052301453E+02  0.31597562217E+02  0.51043717191E+02  0.24999936871E+00 0.  0.
        -13    1    4    4    0    0  0.25351523294E+00  0.55232058779E+01 -0.30072190971E+01  0.62947966481E+01  0.10500000000E+00 0.  1.
         13    1    4    4    0    0  0.67890246485E+00  0.11353874630E+02 -0.62155750619E+01  0.12962089956E+02  0.10500000000E+00 0. -1.
    3000001    1    5    5    0    0 -0.57193045319E+01 -0.88728379640E+01  0.43369030532E+01  0.11456283252E+02  0.10000000000E+01 0. -1.
        -13    1    6    6    0    0 -0.22142048341E+01 -0.95352001943E+01  0.76878777605E+01  0.12447378650E+02  0.10500000000E+00 0. -1.
         13    1    6    6    0    0 -0.68362304109E+01 -0.29517101258E+02  0.23909684457E+02  0.38596338541E+02  0.10500000000E+00 0.  1.
</event>
<event>
11    0  0.3439373E-009  0.9118800E+02  0.7816531E-02  0.1126479E+00
         25   -1    0    0    0    0  0.00000000000E+00  0.00000000000E+00  0.99999998245E-14  0.12500000000E+03  0.12500000000E+03 0.  0.
    3000001    1    3    3    0    0  0.69696570534E+00 -0.27012846531E+00  0.10260481369E+01  0.16160152726E+01  0.10000000000E+01 0.  1.
    1000022    2    1    0    0    0  0.18791560775E+02  0.36461018108E+02  0.46083845493E+02  0.62499995943E+02  0.10000003977E+02 0.  0.
    3000022    2    3    3    0    0  0.18094595070E+02  0.36731146573E+02  0.45057797356E+02  0.60883980670E+02  0.25000057973E+00 0.  0.
    1000022    2    1    0    0    0 -0.18791560775E+02 -0.36461018108E+02 -0.46083845493E+02  0.62500004057E+02  0.10000054696E+02 0.  0.
    3000022    2    5    5    0    0 -0.92894686234E+01 -0.26428733759E+02 -0.26917779033E+02  0.38851017016E+02  0.24999944686E+00 0.  0.
        -13    1    4    4    0    0  0.54296697615E+01  0.10929730067E+02  0.13400487706E+02  0.18125242311E+02  0.10500000000E+00 0.  1.
         13    1    4    4    0    0  0.12664925308E+02  0.25801416506E+02  0.31657309650E+02  0.42758738359E+02  0.10500000000E+00 0. -1.
    3000001    1    5    5    0    0 -0.95020921518E+01 -0.10032284349E+02 -0.19166066461E+02  0.23648987042E+02  0.10000000000E+01 0. -1.
        -13    1    6    6    0    0 -0.46251714683E+01 -0.12957428360E+02 -0.13236167237E+02  0.19091734047E+02  0.10500000000E+00 0. -1.
         13    1    6    6    0    0 -0.46642971551E+01 -0.13471305399E+02 -0.13681611796E+02  0.19759282968E+02  0.10500000000E+00 0.  1.
</event>
<event>
11    0  0.3439373E-009  0.9118800E+02  0.7816531E-02  0.1126479E+00
         25   -1    0    0    0    0  0.00000000000E+00  0.00000000000E+00  0.99999998245E-14  0.12500000000E+03  0.12500000000E+03 0.  0.
    3000001    1    3    3    0    0 -0.10263766716E+02 -0.32081643134E+02  0.18183301941E+02  0.38291111278E+02  0.10000000000E+01 0.  1.
    1000022    2    1    0    0    0 -0.21720236770E+02 -0.47305082779E+02  0.33116622206E+02  0.62500001722E+02  0.10000000342E+02 0.  0.
    3000022    2    3    3    0    0 -0.11456470054E+02 -0.15223439645E+02  0.14933320264E+02  0.24208890444E+02  0.25000341187E+00 0.  0.
    1000022    2    1    0    0    0  0.21720236770E+02  0.47305082779E+02 -0.33116622206E+02  0.62499998278E+02  0.99999788209E+01 0.  0.
    3000022    2    5    5    0    0  0.16342513851E+02  0.33274011737E+02 -0.18180269542E+02  0.41289494058E+02  0.25000583711E+00 0.  0.
        -13    1    4    4    0    0 -0.57598778142E+01 -0.75562520325E+01  0.74901508094E+01  0.12099029769E+02  0.10500000000E+00 0.  1.
         13    1    4    4    0    0 -0.56965922396E+01 -0.76671876121E+01  0.74431694548E+01  0.12109860675E+02  0.10500000000E+00 0. -1.
    3000001    1    5    5    0    0  0.53777229190E+01  0.14031071041E+02 -0.14936352664E+02  0.21210504220E+02  0.10000000000E+01 0. -1.
        -13    1    6    6    0    0  0.65141116754E+01  0.13232231410E+02 -0.73015219101E+01  0.16457486024E+02  0.10500000000E+00 0.  1.
         13    1    6    6    0    0  0.98284021755E+01  0.20041780327E+02 -0.10878747632E+02  0.24832008035E+02  0.10500000000E+00 0. -1.
</event>
<event>
11    0  0.3439373E-009  0.9118800E+02  0.7816531E-02  0.1126479E+00
         25   -1    0    0    0    0  0.00000000000E+00  0.00000000000E+00  0.99999998245E-14  0.12500000000E+03  0.12500000000E+03 0.  0.
    3000001    1    3    3    0    0  0.11808324061E+01  0.59739361606E+02 -0.78423080971E+01  0.60271780184E+02  0.10000000000E+01 0. -1.
    1000022    2    1    0    0    0  0.23329230114E+01  0.60945425760E+02 -0.92985228991E+01  0.62499999890E+02  0.10000000362E+02 0.  0.
    3000022    2    3    3    0    0  0.11520906053E+01  0.12060641543E+01 -0.14562148019E+01  0.22282197058E+01  0.24999600101E+00 0.  0.
    1000022    2    1    0    0    0 -0.23329230114E+01 -0.60945425760E+02  0.92985228991E+01  0.62500000110E+02  0.10000001743E+02 0.  0.
    3000022    2    5    5    0    0 -0.50666971247E+01 -0.44926390790E+02  0.40470109382E+01  0.45392651393E+02  0.24998752620E+00 0.  0.
        -13    1    4    4    0    0  0.45159298350E+00  0.56647534167E+00 -0.61703249997E+00  0.95738427055E+00  0.10500000000E+00 0. -1.
         13    1    4    4    0    0  0.70049762184E+00  0.63958881265E+00 -0.83918230195E+00  0.12708354352E+01  0.10500000000E+00 0.  1.
    3000001    1    5    5    0    0  0.27337741133E+01 -0.16019034970E+02  0.52515119609E+01  0.17107348717E+02  0.10000000000E+01 0. -1.
        -13    1    6    6    0    0 -0.20165315412E+01 -0.18001288811E+02  0.16833279718E+01  0.18192235057E+02  0.10500000000E+00 0. -1.
         13    1    6    6    0    0 -0.30501655835E+01 -0.26925101980E+02  0.23636829664E+01  0.27200416336E+02  0.10500000000E+00 0.  1.
</event>
<event>
11    0  0.3439373E-009  0.9118800E+02  0.7816531E-02  0.1126479E+00
         25   -1    0    0    0    0  0.00000000000E+00  0.00000000000E+00  0.99999998245E-14  0.12500000000E+03  0.12500000000E+03 0.  0.
    3000001    1    3    3    0    0 -0.49535630795E+01  0.19733755444E+02 -0.63124919111E+01  0.21326191532E+02  0.10000000000E+01 0. -1.
    1000022    2    1    0    0    0 -0.26101679978E+02  0.54604023664E+02 -0.11973008125E+02  0.62499998686E+02  0.99999907106E+01 0.  0.
    3000022    2    3    3    0    0 -0.21148116899E+02  0.34870268220E+02 -0.56605162138E+01  0.41173807154E+02  0.24999540392E+00 0.  0.
    1000022    2    1    0    0    0  0.26101679978E+02 -0.54604023664E+02  0.11973008125E+02  0.62500001314E+02  0.10000007137E+02 0.  0.
    3000022    2    5    5    0    0  0.25276191184E+02 -0.54452259105E+02  0.11619578176E+02  0.61147456690E+02  0.25000059125E+00 0.  0.
        -13    1    4    4    0    0 -0.10187171836E+02  0.16686847255E+02 -0.27499755791E+01  0.19743422500E+02  0.10500000000E+00 0.  1.
         13    1    4    4    0    0 -0.10960945062E+02  0.18183420965E+02 -0.29105406347E+01  0.21430384654E+02  0.10500000000E+00 0. -1.
    3000001    1    5    5    0    0  0.82548879465E+00 -0.15176455887E+00  0.35342994864E+00  0.13525446240E+01  0.10000000000E+01 0. -1.
        -13    1    6    6    0    0  0.93449998737E+01 -0.20273567416E+02  0.43245422419E+01  0.22738936848E+02  0.10500000000E+00 0. -1.
         13    1    6    6    0    0  0.15931191310E+02 -0.34178691689E+02  0.72950359344E+01  0.38408519842E+02  0.10500000000E+00 0.  1.
</event>
<event>
11    0  0.3439373E-009  0.9118800E+02  0.7816531E-02  0.1126479E+00
         25   -1    0    0    0    0  0.00000000000E+00  0.00000000000E+00  0.99999998245E-14  0.12500000000E+03  0.12500000000E+03 0.  0.
    3000001    1    3    3    0    0  0.24463354496E+01  0.50338521668E+02 -0.10660129611E+01  0.50419120425E+02  0.10000000000E+01 0. -1.
    1000022    2    1    0    0    0 -0.17587122820E+01  0.61649472486E+02 -0.15809402346E+01  0.62500001461E+02  0.10000014193E+02 0.  0.
    3000022    2    3    3    0    0 -0.42050477316E+01  0.11310950818E+02 -0.51492727345E+00  0.12080881035E+02  0.25000330972E+00 0.  0.
    1000022    2    1    0    0    0  0.17587122820E+01 -0.61649472486E+02  0.15809402346E+01  0.62499998539E+02  0.99999959354E+01 0.  0.
    3000022    2    5    5    0    0  0.57952600276E+01 -0.40077658189E+02  0.35493010818E+00  0.40496817165E+02  0.25000081802E+00 0.  0.
        -13    1    4    4    0    0 -0.30245029711E+01  0.82380108270E+01 -0.36451224432E+00  0.87838678716E+01  0.10500000000E+00 0. -1.
         13    1    4    4    0    0 -0.11805447605E+01  0.30729399913E+01 -0.15041502913E+00  0.32970131638E+01  0.10500000000E+00 0.  1.
    3000001    1    5    5    0    0 -0.40365477456E+01 -0.21571814297E+02  0.12260101264E+01  0.22003181375E+02  0.10000000000E+01 0.  1.
        -13    1    6    6    0    0  0.34488166478E+01 -0.24020269918E+02  0.27096041154E+00  0.24268336320E+02  0.10500000000E+00 0.  1.
         13    1    6    6    0    0  0.23464433798E+01 -0.16057388271E+02  0.83969696642E-01  0.16228480845E+02  0.10500000000E+00 0. -1.
</event>
<event>
11    0  0.3439373E-009  0.9118800E+02  0.7816531E-02  0.1126479E+00
         25   -1    0    0    0    0  0.00000000000E+00  0.00000000000E+00  0.99999998245E-14  0.12500000000E+03  0.12500000000E+03 0.  0.
    3000001    1    3    3    0    0  0.23513357028E+02 -0.14857902972E+02 -0.25403908163E+02  0.37682804957E+02  0.10000000000E+01 0. -1.
    1000022    2    1    0    0    0  0.32377740249E+02 -0.28861729178E+02 -0.43874051482E+02  0.62499998799E+02  0.99999990778E+01 0.  0.
    3000022    2    3    3    0    0  0.88643832213E+01 -0.14003826206E+02 -0.18470143320E+02  0.24817193842E+02  0.24995528044E+00 0.  0.
    1000022    2    1    0    0    0 -0.32377740249E+02  0.28861729178E+02  0.43874051482E+02  0.62500001201E+02  0.10000014094E+02 0.  0.
    3000022    2    5    5    0    0 -0.27005992773E+02  0.28072022939E+02  0.37558769605E+02  0.54111789706E+02  0.24998689845E+00 0.  0.
        -13    1    4    4    0    0  0.53654834911E+01 -0.84868391232E+01 -0.11096118048E+02  0.14964949453E+02  0.10500000000E+00 0.  1.
         13    1    4    4    0    0  0.34988997301E+01 -0.55169870833E+01 -0.73740252711E+01  0.98522443888E+01  0.10500000000E+00 0. -1.
    3000001    1    5    5    0    0 -0.53717474765E+01  0.78970623958E+00  0.63152818773E+01  0.83882114950E+01  0.10000000000E+01 0.  1.
        -13    1    6    6    0    0 -0.13935625801E+02  0.14473993256E+02  0.19466252562E+02  0.27975778113E+02  0.10500000000E+00 0. -1.
         13    1    6    6    0    0 -0.13070366972E+02  0.13598029682E+02  0.18092517043E+02  0.26136011593E+02  0.10500000000E+00 0.  1.
</event>
<event>
11    0  0.3439373E-009  0.9118800E+02  0.7816531E-02  0.1126479E+00
         25   -1    0    0    0    0  0.00000000000E+00  0.00000000000E+00  0.99999998245E-14  0.12500000000E+03  0.12500000000E+03 0.  0.
    3000001    1    3    3    0    0  0.29870228857E+01 -0.41011162457E+01  0.25354775318E+02  0.25876748088E+02  0.10000000000E+01 0.  1.
    1000022    2    1    0    0    0  0.38660554089E+01 -0.20685983790E+02  0.57994773600E+02  0.62499999124E+02  0.99999907918E+01 0.  0.
    3000022    2    3    3    0    0  0.87903252319E+00 -0.16584867545E+02  0.32639998282E+02  0.36623251037E+02  0.24999796661E+00 0.  0.
    1000022    2    1    0    0    0 -0.38660554089E+01  0.20685983790E+02 -0.57994773600E+02  0.62500000876E+02  0.10000001740E+02 0.  0.
    3000022    2    5    5    0    0  0.10830792528E+01  0.14443331272E+02 -0.29038383477E+02  0.32451087862E+02  0.25001914597E+00 0.  0.
        -13    1    4    4    0    0  0.28451422868E+00 -0.48264393583E+01  0.95747476675E+01  0.10726708867E+02  0.10500000000E+00 0.  1.
         13    1    4    4    0    0  0.59451829450E+00 -0.11758428186E+02  0.23065250615E+02  0.25896542169E+02  0.10500000000E+00 0. -1.
    3000001    1    5    5    0    0 -0.49491346617E+01  0.62426525180E+01 -0.28956390123E+02  0.30048913014E+02  0.10000000000E+01 0. -1.
        -13    1    6    6    0    0  0.37892777569E+00  0.59071693836E+01 -0.11863825985E+02  0.13258945222E+02  0.10500000000E+00 0.  1.
         13    1    6    6    0    0  0.70415147713E+00  0.85361618887E+01 -0.17174557491E+02  0.19192142640E+02  0.10500000000E+00 0. -1.
</event>
<event>
11    0  0.3439373E-009  0.9118800E+02  0.7816531E-02  0.1126479E+00
         25   -1    0    0    0    0  0.00000000000E+00  0.00000000000E+00  0.99999998245E-14  0.12500000000E+03  0.12500000000E+03 0.  0.
    3000001    1    3    3    0    0  0.41674627958E+01  0.28685494927E+01 -0.10401496655E+01  0.52610107083E+01  0.10000000000E+01 0.  1.
    1000022    2    1    0    0    0  0.45466426949E+02  0.17204595407E+02 -0.37987574966E+02  0.62499995588E+02  0.99999757081E+01 0.  0.
    3000022    2    3    3    0    0  0.41298964153E+02  0.14336045915E+02 -0.36947425300E+02  0.57238984880E+02  0.25000244318E+00 0.  0.
    1000022    2    1    0    0    0 -0.45466426949E+02 -0.17204595407E+02  0.37987574966E+02  0.62500004412E+02  0.10000030852E+02 0.  0.
    3000022    2    5    5    0    0 -0.31263899430E+02 -0.16500100813E+02  0.27937931438E+02  0.45058575697E+02  0.24999289729E+00 0.  0.
        -13    1    4    4    0    0  0.12848436694E+02  0.44329638526E+01 -0.11541505773E+02  0.17831177036E+02  0.10500000000E+00 0.  1.
         13    1    4    4    0    0  0.28450527459E+02  0.99030820622E+01 -0.25405919527E+02  0.39407807844E+02  0.10500000000E+00 0. -1.
    3000001    1    5    5    0    0 -0.14202527519E+02 -0.70449459493E+00  0.10049643528E+02  0.17441428714E+02  0.10000000000E+01 0. -1.
        -13    1    6    6    0    0 -0.11221761588E+02 -0.59751058408E+01  0.10091755063E+02  0.16232201583E+02  0.10500000000E+00 0.  1.
         13    1    6    6    0    0 -0.20042137841E+02 -0.10524994972E+02  0.17846176375E+02  0.28826374115E+02  0.10500000000E+00 0. -1.
</event>
<event>
11    0  0.3439373E-009  0.9118800E+02  0.7816531E-02  0.1126479E+00
         25   -1    0    0    0    0  0.00000000000E+00  0.00000000000E+00  0.99999998245E-14  0.12500000000E+03  0.12500000000E+03 0.  0.
    3000001    1    3    3    0    0 -0.13958000473E+02  0.22280398328E+02  0.36140681425E+02  0.44703364310E+02  0.10000000000E+01 0. -1.
    1000022    2    1    0    0    0 -0.24941803620E+02  0.28726887217E+02  0.48568738665E+02  0.62500000520E+02  0.10000003622E+02 0.  0.
    3000022    2    3    3    0    0 -0.10983803148E+02  0.64464888898E+01  0.12428057241E+02  0.17796636210E+02  0.25000602786E+00 0.  0.
    1000022    2    1    0    0    0  0.24941803620E+02 -0.28726887217E+02 -0.48568738665E+02  0.62499999480E+02  0.99999971213E+01 0.  0.
    3000022    2    5    5    0    0  0.21667211211E+02 -0.26434515523E+02 -0.46947233398E+02  0.58071997361E+02  0.25000231337E+00 0.  0.
        -13    1    4    4    0    0 -0.74366643852E+01  0.43315629720E+01  0.83371188971E+01  0.11982695501E+02  0.10500000000E+00 0. -1.
         13    1    4    4    0    0 -0.35471387624E+01  0.21149259178E+01  0.40909383435E+01  0.58139407090E+01  0.10500000000E+00 0.  1.
    3000001    1    5    5    0    0  0.32745924094E+01 -0.22923716940E+01 -0.16215052666E+01  0.44280021184E+01  0.10000000000E+01 0. -1.
        -13    1    6    6    0    0  0.83332732901E+01 -0.10259111275E+02 -0.18187210693E+02  0.22482848255E+02  0.10500000000E+00 0.  1.
         13    1    6    6    0    0  0.13333937921E+02 -0.16175404248E+02 -0.28760022706E+02  0.35589149106E+02  0.10500000000E+00 0. -1.
</event>
<event>
11    0  0.3439373E-009  0.9118800E+02  0.7816531E-02  0.1126479E+00
         25   -1    0    0    0    0  0.00000000000E+00  0.00000000000E+00  0.99999998245E-14  0.12500000000E+03  0.12500000000E+03 0.  0.
    3000001    1    3    3    0    0 -0.37833621289E+02  0.25057688973E+02 -0.74758515130E+01  0.46001728580E+02  0.10000000000E+01 0. -1.
    1000022    2    1    0    0    0 -0.48843748896E+02  0.37233695487E+02 -0.58472175378E+01  0.62500001055E+02  0.10000014654E+02 0.  0.
    3000022    2    3    3    0    0 -0.11010127607E+02  0.12176006514E+02  0.16286339752E+01  0.16498272475E+02  0.25000295126E+00 0.  0.
    1000022    2    1    0    0    0  0.48843748896E+02 -0.37233695487E+02  0.58472175378E+01  0.62499998945E+02  0.10000001465E+02 0.  0.
    3000022    2    5    5    0    0  0.41329129235E+02 -0.35399653588E+02  0.54563666529E+01  0.54690646683E+02  0.25000014639E+00 0.  0.
        -13    1    4    4    0    0 -0.50425862988E+01  0.54876451555E+01  0.76973172703E+00  0.74930259485E+01  0.10500000000E+00 0. -1.
         13    1    4    4    0    0 -0.59675413084E+01  0.66883613588E+01  0.85890224820E+00  0.90052465266E+01  0.10500000000E+00 0.  1.
    3000001    1    5    5    0    0  0.75146196608E+01 -0.18340418996E+01  0.39085088482E+00  0.78093522618E+01  0.10000000000E+01 0.  1.
        -13    1    6    6    0    0  0.19768234728E+02 -0.16855397279E+02  0.25703962191E+01  0.26105659988E+02  0.10500000000E+00 0. -1.
         13    1    6    6    0    0  0.21560894507E+02 -0.18544256309E+02  0.28859704339E+01  0.28584986695E+02  0.10500000000E+00 0.  1.
</event>
<event>
11    0  0.3439373E-009  0.9118800E+02  0.7816531E-02  0.1126479E+00
         25   -1    0    0    0    0  0.00000000000E+00  0.00000000000E+00  0.99999998245E-14  0.12500000000E+03  0.12500000000E+03 0.  0.
    3000001    1    3    3    0    0  0.10371877787E+01 -0.25283662130E+01 -0.21514019953E+01  0.36189673583E+01  0.10000000000E+01 0. -1.
    1000022    2    1    0    0    0  0.48732902897E+02 -0.26692948535E+02 -0.26811198540E+02  0.62500002858E+02  0.10000033197E+02 0.  0.
    3000022    2    3    3    0    0  0.47695715118E+02 -0.24164582322E+02 -0.24659796545E+02  0.58881035500E+02  0.24999307469E+00 0.  0.
    1000022    2    1    0    0    0 -0.48732902897E+02  0.26692948535E+02  0.26811198540E+02  0.62499997142E+02  0.99999974672E+01 0.  0.
    3000022    2    5    5    0    0 -0.36964198498E+02  0.24720759680E+02  0.21669586140E+02  0.49468185672E+02  0.25000099567E+00 0.  0.
        -13    1    4    4    0    0  0.17766389227E+02 -0.90214344580E+01 -0.91270612178E+01  0.21916777530E+02  0.10500000000E+00 0.  1.
         13    1    4    4    0    0  0.29929325891E+02 -0.15143147864E+02 -0.15532735327E+02  0.36964257970E+02  0.10500000000E+00 0. -1.
    3000001    1    5    5    0    0 -0.11768704398E+02  0.19721888555E+01  0.51416123998E+01  0.13031811469E+02  0.10000000000E+01 0. -1.
        -13    1    6    6    0    0 -0.16648732414E+02  0.11213754658E+02  0.97919545422E+01  0.22334322987E+02  0.10500000000E+00 0. -1.
         13    1    6    6    0    0 -0.20315466084E+02  0.13507005021E+02  0.11877631598E+02  0.27133862685E+02  0.10500000000E+00 0.  1.
</event>
<event>
11    0  0.3439373E-009  0.9118800E+02  0.7816531E-02  0.1126479E+00
         25   -1    0    0    0    0  0.00000000000E+00  0.00000000000E+00  0.99999998245E-14  0.12500000000E+03  0.12500000000E+03 0.  0.
    3000001    1    3    3    0    0 -0.43825344209E+01 -0.21536957093E+00  0.89182597955E+00  0.45878475978E+01  0.10000000000E+01 0.  1.
    1000022    2    1    0    0    0 -0.53599501664E+02  0.29310943226E+02  0.86146257342E+01  0.62499997837E+02  0.99999990830E+01 0.  0.
    3000022    2    3    3    0    0 -0.49216967243E+02  0.29526312797E+02  0.77227997546E+01  0.57912150239E+02  0.24999458967E+00 0.  0.
    1000022    2    1    0    0    0  0.53599501664E+02 -0.29310943226E+02 -0.86146257342E+01  0.62500002163E+02  0.10000026126E+02 0.  0.
    3000022    2    5    5    0    0  0.27083475771E+02 -0.11525454436E+02 -0.81902263824E+01  0.30553118818E+02  0.25000311734E+00 0.  0.
        -13    1    4    4    0    0 -0.31649038368E+02  0.18995343532E+02  0.49090443827E+01  0.37237003737E+02  0.10500000000E+00 0. -1.
         13    1    4    4    0    0 -0.17567928875E+02  0.10530969264E+02  0.28137553719E+01  0.20675146502E+02  0.10500000000E+00 0.  1.
    3000001    1    5    5    0    0  0.26516025893E+02 -0.17785488790E+02 -0.42439935176E+00  0.31946883345E+02  0.10000000000E+01 0.  1.
        -13    1    6    6    0    0  0.64361449557E+01 -0.27300330120E+01 -0.19611875477E+01  0.72618402443E+01  0.10500000000E+00 0. -1.
         13    1    6    6    0    0  0.20647330815E+02 -0.87954214237E+01 -0.62290388347E+01  0.23291278574E+02  0.10500000000E+00 0.  1.
</event>
<event>
11    0  0.3439373E-009  0.9118800E+02  0.7816531E-02  0.1126479E+00
         25   -1    0    0    0    0  0.00000000000E+00  0.00000000000E+00  0.99999998245E-14  0.12500000000E+03  0.12500000000E+03 0.  0.
    3000001    1    3    3    0    0  0.25024244492E+02  0.30961434606E+02  0.40715683739E+02  0.56952525384E+02  0.10000000000E+01 0. -1.
    1000022    2    1    0    0    0  0.27623241453E+02  0.35658838991E+02  0.42091012786E+02  0.62499997212E+02  0.10000001382E+02 0.  0.
    3000022    2    3    3    0    0  0.25989969605E+01  0.46974043846E+01  0.13753290463E+01  0.55474718277E+01  0.25004107752E+00 0.  0.
    1000022    2    1    0    0    0 -0.27623241453E+02 -0.35658838991E+02 -0.42091012786E+02  0.62500002788E+02  0.10000036233E+02 0.  0.
    3000022    2    5    5    0    0 -0.77267991592E+01 -0.97046411396E+01 -0.18031102674E+02  0.21887589949E+02  0.24989045280E+00 0.  0.
        -13    1    4    4    0    0  0.62025376532E+00  0.11548073398E+01  0.32009161061E+00  0.13534320687E+01  0.10500000000E+00 0. -1.
         13    1    4    4    0    0  0.19787431952E+01  0.35425970448E+01  0.10552374357E+01  0.41940397590E+01  0.10500000000E+00 0.  1.
    3000001    1    5    5    0    0 -0.19896442293E+02 -0.25954197851E+02 -0.24059910112E+02  0.40612412839E+02  0.10000000000E+01 0. -1.
        -13    1    6    6    0    0 -0.21538124734E+01 -0.27556232227E+01 -0.51293401496E+01  0.62091483221E+01  0.10500000000E+00 0.  1.
         13    1    6    6    0    0 -0.55729866858E+01 -0.69490179169E+01 -0.12901762525E+02  0.15678441627E+02  0.10500000000E+00 0. -1.
</event>
<event>
11    0  0.3439373E-009  0.9118800E+02  0.7816531E-02  0.1126479E+00
         25   -1    0    0    0    0  0.00000000000E+00  0.00000000000E+00  0.99999998245E-14  0.12500000000E+03  0.12500000000E+03 0.  0.
    3000001    1    3    3    0    0  0.39407142106E+02  0.12028819330E+02 -0.45029312669E+02  0.61043053191E+02  0.10000000000E+01 0. -1.
    1000022    2    1    0    0    0  0.38921728826E+02  0.12830496327E+02 -0.46116454258E+02  0.62499999555E+02  0.99999990129E+01 0.  0.
    3000022    2    3    3    0    0 -0.48541327929E+00  0.80167699663E+00 -0.10871415883E+01  0.14569463640E+01  0.25000763160E+00 0.  0.
    1000022    2    1    0    0    0 -0.38921728826E+02 -0.12830496327E+02  0.46116454258E+02  0.62500000445E+02  0.10000004576E+02 0.  0.
    3000022    2    5    5    0    0 -0.77628867573E+01 -0.12265716680E+01  0.39720800961E+01  0.88094726023E+01  0.24999675735E+00 0.  0.
        -13    1    4    4    0    0 -0.22068812374E+00  0.49004113151E+00 -0.62820429710E+00  0.83337218422E+00  0.10500000000E+00 0.  1.
         13    1    4    4    0    0 -0.26472515555E+00  0.31163586512E+00 -0.45893729117E+00  0.62357417974E+00  0.10500000000E+00 0. -1.
    3000001    1    5    5    0    0 -0.31158842069E+02 -0.11603924659E+02  0.42144374162E+02  0.53690527843E+02  0.10000000000E+01 0. -1.
        -13    1    6    6    0    0 -0.47839129585E+01 -0.71177607605E+00  0.24923258304E+01  0.54419813875E+01  0.10500000000E+00 0. -1.
         13    1    6    6    0    0 -0.29789737987E+01 -0.51479559195E+00  0.14797542657E+01  0.33674912148E+01  0.10500000000E+00 0.  1.
</event>
<event>
11    0  0.3439373E-009  0.9118800E+02  0.7816531E-02  0.1126479E+00
         25   -1    0    0    0    0  0.00000000000E+00  0.00000000000E+00  0.99999998245E-14  0.12500000000E+03  0.12500000000E+03 0.  0.
    3000001    1    3    3    0    0  0.40468473379E+01 -0.47331132085E+02  0.14512525817E+02  0.49681248409E+02  0.10000000000E+01 0. -1.
    1000022    2    1    0    0    0  0.85978664895E-01 -0.59007517455E+02  0.18009870976E+02  0.62499999453E+02  0.99999985230E+01 0.  0.
    3000022    2    3    3    0    0 -0.39608686730E+01 -0.11676385370E+02  0.34973451588E+01  0.12818751044E+02  0.24999843502E+00 0.  0.
    1000022    2    1    0    0    0 -0.85978664895E-01  0.59007517455E+02 -0.18009870976E+02  0.62500000547E+02  0.10000005362E+02 0.  0.
    3000022    2    5    5    0    0  0.14880039306E+01  0.41395905559E+02 -0.16953536612E+02  0.44758463491E+02  0.24999545238E+00 0.  0.
        -13    1    4    4    0    0 -0.25067652021E+01 -0.75620900633E+01  0.22742603415E+01  0.82856721517E+01  0.10500000000E+00 0. -1.
         13    1    4    4    0    0 -0.14541034709E+01 -0.41142953067E+01  0.12230848173E+01  0.45330788925E+01  0.10500000000E+00 0.  1.
    3000001    1    5    5    0    0 -0.15739825955E+01  0.17611611897E+02 -0.10563343638E+01  0.17741537056E+02  0.10000000000E+01 0.  1.
        -13    1    6    6    0    0  0.80492029293E+00  0.21276381906E+02 -0.86552672576E+01  0.22983842150E+02  0.10500000000E+00 0. -1.
         13    1    6    6    0    0  0.68308363771E+00  0.20119523653E+02 -0.82982693545E+01  0.21774621341E+02  0.10500000000E+00 0.  1.
</event>
<event>
11    0  0.3439373E-009  0.9118800E+02  0.7816531E-02  0.1126479E+00
         25   -1    0    0    0    0  0.00000000000E+00  0.00000000000E+00  0.99999998245E-14  0.12500000000E+03  0.12500000000E+03 0.  0.
    3000001    1    3    3    0    0  0.73068700918E+01 -0.11094136435E+02 -0.71309352338E+01  0.15110276340E+02  0.10000000000E+01 0. -1.
    1000022    2    1    0    0    0  0.34172590035E+02 -0.49680512202E+02 -0.13051081323E+02  0.62500000203E+02  0.10000004962E+02 0.  0.
    3000022    2    3    3    0    0  0.26865719943E+02 -0.38586375768E+02 -0.59201460891E+01  0.47389723862E+02  0.24999016860E+00 0.  0.
    1000022    2    1    0    0    0 -0.34172590035E+02  0.49680512202E+02  0.13051081323E+02  0.62499999797E+02  0.10000002430E+02 0.  0.
    3000022    2    5    5    0    0 -0.23000677971E+02  0.36363831011E+02  0.50003729284E+01  0.43317728744E+02  0.25000238235E+00 0.  0.
        -13    1    4    4    0    0  0.11625772355E+02 -0.16810260695E+02 -0.25593350082E+01  0.20598656951E+02  0.10500000000E+00 0. -1.
         13    1    4    4    0    0  0.15239947588E+02 -0.21776115073E+02 -0.33608110808E+01  0.26791066911E+02  0.10500000000E+00 0.  1.
    3000001    1    5    5    0    0 -0.11171912064E+02  0.13316681191E+02  0.80507083945E+01  0.19182271053E+02  0.10000000000E+01 0.  1.
        -13    1    6    6    0    0 -0.95652119815E+01  0.15169300711E+02  0.21440104204E+01  0.18061250511E+02  0.10500000000E+00 0. -1.
         13    1    6    6    0    0 -0.13435465990E+02  0.21194530300E+02  0.28563625080E+01  0.25256478234E+02  0.10500000000E+00 0.  1.
</event>
<event>
11    0  0.3439373E-009  0.9118800E+02  0.7816531E-02  0.1126479E+00
         25   -1    0    0    0    0  0.00000000000E+00  0.00000000000E+00  0.99999998245E-14  0.12500000000E+03  0.12500000000E+03 0.  0.
    3000001    1    3    3    0    0 -0.13261601154E+01  0.20477436709E+01 -0.25684391140E+00  0.26491363853E+01  0.10000000000E+01 0. -1.
    1000022    2    1    0    0    0 -0.52318254986E+01  0.48004873323E+02 -0.38398048247E+02  0.62500000649E+02  0.10000005555E+02 0.  0.
    3000022    2    3    3    0    0 -0.39056653832E+01  0.45957129652E+02 -0.38141204336E+02  0.59850864263E+02  0.24999390402E+00 0.  0.
    1000022    2    1    0    0    0  0.52318254986E+01 -0.48004873323E+02  0.38398048247E+02  0.62499999351E+02  0.99999974478E+01 0.  0.
    3000022    2    5    5    0    0  0.55912338226E+00 -0.35788398439E+02  0.31492505563E+02  0.47675596381E+02  0.25000383401E+00 0.  0.
        -13    1    4    4    0    0 -0.25980763101E+01  0.30246319310E+02 -0.25166037047E+02  0.39432604250E+02  0.10500000000E+00 0. -1.
         13    1    4    4    0    0 -0.13075890731E+01  0.15710810342E+02 -0.12975167289E+02  0.20418260013E+02  0.10500000000E+00 0.  1.
    3000001    1    5    5    0    0  0.46727021164E+01 -0.12216474884E+02  0.69055426848E+01  0.14824402970E+02  0.10000000000E+01 0. -1.
        -13    1    6    6    0    0  0.21558120263E+00 -0.14168021474E+02  0.12384360125E+02  0.18819211154E+02  0.10500000000E+00 0.  1.
         13    1    6    6    0    0  0.34354217963E+00 -0.21620376964E+02  0.19108145437E+02  0.28856385227E+02  0.10500000000E+00 0. -1.
</event>
<event>
11    0  0.3439373E-009  0.9118800E+02  0.7816531E-02  0.1126479E+00
         25   -1    0    0    0    0  0.00000000000E+00  0.00000000000E+00  0.99999998245E-14  0.12500000000E+03  0.12500000000E+03 0.  0.
    3000001    1    3    3    0    0 -0.86988687920E+01 -0.12707466536E+00 -0.19023344452E+02  0.20942160833E+02  0.10000000000E+01 0.  1.
    1000022    2    1    0    0    0 -0.19010269723E+02 -0.12364874191E+02 -0.57375691727E+02  0.62499997263E+02  0.99999594006E+01 0.  0.
    3000022    2    3    3    0    0 -0.10311400931E+02 -0.12237799526E+02 -0.38352347275E+02  0.41557836430E+02  0.25000162972E+00 0.  0.
    1000022    2    1    0    0    0  0.19010269723E+02  0.12364874191E+02  0.57375691727E+02  0.62500002737E+02  0.99999936115E+01 0.  0.
    3000022    2    5    5    0    0  0.15321996856E+02  0.58140444586E+01  0.45957555034E+02  0.48792684528E+02  0.24999633150E+00 0.  0.
        -13    1    4    4    0    0 -0.32220231739E+01 -0.37683601771E+01 -0.11968281053E+02  0.12955027909E+02  0.10500000000E+00 0. -1.
         13    1    4    4    0    0 -0.70893777572E+01 -0.84694393484E+01 -0.26384066222E+02  0.28602808521E+02  0.10500000000E+00 0.  1.
    3000001    1    5    5    0    0  0.36882728675E+01  0.65508297323E+01  0.11418136694E+02  0.13707318209E+02  0.10000000000E+01 0.  1.
        -13    1    6    6    0    0  0.70255264562E+01  0.26859891363E+01  0.21284722972E+02  0.22574831486E+02  0.10500000000E+00 0. -1.
         13    1    6    6    0    0  0.82964703994E+01  0.31280553222E+01  0.24672832062E+02  0.26217853042E+02  0.10500000000E+00 0.  1.
</event>
<event>
11    0  0.3439373E-009  0.9118800E+02  0.7816531E-02  0.1126479E+00
         25   -1    0    0    0    0  0.00000000000E+00  0.00000000000E+00  0.99999998245E-14  0.12500000000E+03  0.12500000000E+03 0.  0.
    3000001    1    3    3    0    0 -0.89192274013E+01 -0.45115580779E+02 -0.24545265779E+02  0.52138645155E+02  0.10000000000E+01 0.  1.
    1000022    2    1    0    0    0 -0.94508813099E+01 -0.55425188573E+02 -0.25396443716E+02  0.62500000002E+02  0.99999980462E+01 0.  0.
    3000022    2    3    3    0    0 -0.53165390857E+00 -0.10309607794E+02 -0.85117793770E+00  0.10361354847E+02  0.25000327589E+00 0.  0.
    1000022    2    1    0    0    0  0.94508813099E+01  0.55425188573E+02  0.25396443716E+02  0.62499999998E+02  0.99999980196E+01 0.  0.
    3000022    2    5    5    0    0  0.42139143185E+01  0.45630492195E+02  0.18713236901E+02  0.49498955665E+02  0.24996953444E+00 0.  0.
        -13    1    4    4    0    0 -0.32848653403E+00 -0.66547805516E+01 -0.60483724526E+00  0.66911030994E+01  0.10500000000E+00 0. -1.
         13    1    4    4    0    0 -0.20316737454E+00 -0.36548272421E+01 -0.24634069244E+00  0.36702517473E+01  0.10500000000E+00 0.  1.
    3000001    1    5    5    0    0  0.52369669913E+01  0.97946963782E+01  0.66832068155E+01  0.13001044333E+02  0.10000000000E+01 0.  1.
        -13    1    6    6    0    0  0.30592172208E+01  0.33207629153E+02  0.13579215203E+02  0.36007104223E+02  0.10500000000E+00 0.  1.
         13    1    6    6    0    0  0.11546970977E+01  0.12422863042E+02  0.51340216973E+01  0.13491851442E+02  0.10500000000E+00 0. -1.
</event>
<event>
11    0  0.3439373E-009  0.9118800E+02  0.7816531E-02  0.1126479E+00
         25   -1    0    0    0    0  0.00000000000E+00  0.00000000000E+00  0.99999998245E-14  0.12500000000E+03  0.12500000000E+03 0.  0.
    3000001    1    3    3    0    0 -0.23224746466E+02 -0.50051278679E+00 -0.55971358581E+01  0.23915837666E+02  0.10000000000E+01 0.  1.
    1000022    2    1    0    0    0 -0.58424547213E+02  0.10856823209E+02 -0.16581666240E+02  0.62499998408E+02  0.99999909225E+01 0.  0.
    3000022    2    3    3    0    0 -0.35199800748E+02  0.11357335996E+02 -0.10984530382E+02  0.38584160743E+02  0.24999776713E+00 0.  0.
    1000022    2    1    0    0    0  0.58424547213E+02 -0.10856823209E+02  0.16581666240E+02  0.62500001592E+02  0.10000010820E+02 0.  0.
    3000022    2    5    5    0    0  0.12745282854E+02 -0.47290087131E+01  0.74537687569E+01  0.15505706030E+02  0.24998472689E+00 0.  0.
        -13    1    4    4    0    0 -0.20454697864E+02  0.66483895535E+01 -0.63403664758E+01  0.22423358812E+02  0.10500000000E+00 0. -1.
         13    1    4    4    0    0 -0.14745102884E+02  0.47089464421E+01 -0.46441639064E+01  0.16160801931E+02  0.10500000000E+00 0.  1.
    3000001    1    5    5    0    0  0.45679264359E+02 -0.61278144957E+01  0.91278974834E+01  0.46994295562E+02  0.10000000000E+01 0.  1.
        -13    1    6    6    0    0  0.69856806053E+01 -0.25360489837E+01  0.40274138031E+01  0.84535415601E+01  0.10500000000E+00 0. -1.
         13    1    6    6    0    0  0.57596022490E+01 -0.21929597294E+01  0.34263549539E+01  0.70521644699E+01  0.10500000000E+00 0.  1.
</event>
<event>
11    0  0.3439373E-009  0.9118800E+02  0.7816531E-02  0.1126479E+00
         25   -1    0    0    0    0  0.00000000000E+00  0.00000000000E+00  0.99999998245E-14  0.12500000000E+03  0.12500000000E+03 0.  0.
    3000001    1    3    3    0    0  0.39134482969E+02 -0.13920285846E+02  0.26911536269E+01  0.41635614841E+02  0.10000000000E+01 0.  1.
    1000022    2    1    0    0    0  0.55412918323E+02 -0.26105472701E+02  0.73595349468E+01  0.62499998893E+02  0.99999942478E+01 0.  0.
    3000022    2    3    3    0    0  0.16278435354E+02 -0.12185186855E+02  0.46683813199E+01  0.20864384052E+02  0.25000295020E+00 0.  0.
    1000022    2    1    0    0    0 -0.55412918323E+02  0.26105472701E+02 -0.73595349468E+01  0.62500001107E+02  0.10000008084E+02 0.  0.
    3000022    2    5    5    0    0 -0.87690301212E+01  0.78158318301E+01  0.57923653701E+00  0.11763551069E+02  0.25000464091E+00 0.  0.
        -13    1    4    4    0    0  0.42414020349E+01 -0.31401131768E+01  0.12266674602E+01  0.54189980663E+01  0.10500000000E+00 0. -1.
         13    1    4    4    0    0  0.12037033319E+02 -0.90450736784E+01  0.34417138597E+01  0.15445385986E+02  0.10500000000E+00 0.  1.
    3000001    1    5    5    0    0 -0.46643888202E+02  0.18289640871E+02 -0.79387714838E+01  0.50736450038E+02  0.10000000000E+01 0.  1.
        -13    1    6    6    0    0 -0.62638223661E+01  0.55432280549E+01  0.44263574439E+00  0.83767415684E+01  0.10500000000E+00 0. -1.
         13    1    6    6    0    0 -0.25052077551E+01  0.22726037752E+01  0.13660079262E+00  0.33868095004E+01  0.10500000000E+00 0.  1.
</event>
<event>
11    0  0.3439373E-009  0.9118800E+02  0.7816531E-02  0.1126479E+00
         25   -1    0    0    0    0  0.00000000000E+00  0.00000000000E+00  0.99999998245E-14  0.12500000000E+03  0.12500000000E+03 0.  0.
    3000001    1    3    3    0    0  0.27994492216E-01  0.10060924568E+01 -0.92909868134E+00  0.16959451886E+01  0.10000000000E+01 0. -1.
    1000022    2    1    0    0    0 -0.26000379661E+02  0.55948447098E+02  0.36164184821E-01  0.62499997984E+02  0.99999982514E+01 0.  0.
    3000022    2    3    3    0    0 -0.26028374153E+02  0.54942354641E+02  0.96526286616E+00  0.60804052796E+02  0.25001885302E+00 0.  0.
    1000022    2    1    0    0    0  0.26000379661E+02 -0.55948447098E+02 -0.36164184821E-01  0.62500002016E+02  0.10000023449E+02 0.  0.
    3000022    2    5    5    0    0  0.12731434061E+02 -0.16731114638E+02 -0.13160612365E+01  0.21066896665E+02  0.25001524569E+00 0.  0.
        -13    1    4    4    0    0 -0.78825061105E+01  0.16564915575E+02  0.25746397879E+00  0.18346870122E+02  0.10500000000E+00 0. -1.
         13    1    4    4    0    0 -0.18145868042E+02  0.38377439066E+02  0.70779888737E+00  0.42457182674E+02  0.10500000000E+00 0.  1.
    3000001    1    5    5    0    0  0.13268945600E+02 -0.39217332460E+02  0.12798970516E+01  0.41433105351E+02  0.10000000000E+01 0.  1.
        -13    1    6    6    0    0  0.41725769452E+01 -0.54367655566E+01 -0.38523401929E+00  0.68650016993E+01  0.10500000000E+00 0.  1.
         13    1    6    6    0    0  0.85588571155E+01 -0.11294349081E+02 -0.93082721717E+00  0.14201894965E+02  0.10500000000E+00 0. -1.
</event>
<event>
11    0  0.3439373E-009  0.9118800E+02  0.7816531E-02  0.1126479E+00
         25   -1    0    0    0    0  0.00000000000E+00  0.00000000000E+00  0.99999998245E-14  0.12500000000E+03  0.12500000000E+03 0.  0.
    3000001    1    3    3    0    0 -0.33869002848E+01 -0.21412478886E+00 -0.90299089183E+01  0.96982574742E+01  0.10000000000E+01 0.  1.
    1000022    2    1    0    0    0 -0.97405292291E+01  0.17669176449E+02 -0.58302420059E+02  0.62499999334E+02  0.10000001296E+02 0.  0.
    3000022    2    3    3    0    0 -0.63536289443E+01  0.17883301238E+02 -0.49272511141E+02  0.52801741860E+02  0.25005069566E+00 0.  0.
    1000022    2    1    0    0    0  0.97405292291E+01 -0.17669176449E+02  0.58302420059E+02  0.62500000666E+02  0.10000009621E+02 0.  0.
    3000022    2    5    5    0    0  0.81905631969E+01 -0.58352435406E+01  0.33129247803E+02  0.34622896006E+02  0.24995035540E+00 0.  0.
        -13    1    4    4    0    0 -0.26952269498E+01  0.75381732926E+01 -0.20609638988E+02  0.22110100613E+02  0.10500000000E+00 0.  1.
         13    1    4    4    0    0 -0.36584019945E+01  0.10345127945E+02 -0.28662872153E+02  0.30691641247E+02  0.10500000000E+00 0. -1.
    3000001    1    5    5    0    0  0.15499660322E+01 -0.11833932908E+02  0.25173172256E+02  0.27877104660E+02  0.10000000000E+01 0.  1.
        -13    1    6    6    0    0  0.46699343498E+01 -0.34065799051E+01  0.19015998943E+02  0.19875419852E+02  0.10500000000E+00 0. -1.
         13    1    6    6    0    0  0.35206288471E+01 -0.24286636355E+01  0.14113248860E+02  0.14747476155E+02  0.10500000000E+00 0.  1.
</event>
<event>
11    0  0.3439373E-009  0.9118800E+02  0.7816531E-02  0.1126479E+00
         25   -1    0    0    0    0  0.00000000000E+00  0.00000000000E+00  0.99999998245E-14  0.12500000000E+03  0.12500000000E+03 0.  0.
    3000001    1    3    3    0    0 -0.29034406183E+02 -0.12700250207E+02  0.25299304218E+02  0.40562888108E+02  0.10000000000E+01 0.  1.
    1000022    2    1    0    0    0 -0.46206061907E+02 -0.12427834718E+02  0.38946089286E+02  0.62500007586E+02  0.10000092247E+02 0.  0.
    3000022    2    3    3    0    0 -0.17171655724E+02  0.27241548838E+00  0.13646785067E+02  0.21937119479E+02  0.24999570690E+00 0.  0.
    1000022    2    1    0    0    0  0.46206061907E+02  0.12427834718E+02 -0.38946089286E+02  0.62499992414E+02  0.99999974174E+01 0.  0.
    3000022    2    5    5    0    0  0.40171398131E+02  0.73249637950E+01 -0.33880364021E+02  0.53059757723E+02  0.25000219153E+00 0.  0.
        -13    1    4    4    0    0 -0.58971609163E+01  0.38226138569E-01  0.46895665016E+01  0.75353186451E+01  0.10500000000E+00 0.  1.
         13    1    4    4    0    0 -0.11274494807E+02  0.23418934981E+00  0.89572185658E+01  0.14401800834E+02  0.10500000000E+00 0. -1.
    3000001    1    5    5    0    0  0.60346637761E+01  0.51028709235E+01 -0.50657252647E+01  0.94402346904E+01  0.10000000000E+01 0. -1.
        -13    1    6    6    0    0  0.26861935497E+02  0.49299290328E+01 -0.22604057718E+02  0.35451688665E+02  0.10500000000E+00 0. -1.
         13    1    6    6    0    0  0.13309462634E+02  0.23950347621E+01 -0.11276306303E+02  0.17608069058E+02  0.10500000000E+00 0.  1.
</event>
<event>
11    0  0.3439373E-009  0.9118800E+02  0.7816531E-02  0.1126479E+00
         25   -1    0    0    0    0  0.00000000000E+00  0.00000000000E+00  0.99999998245E-14  0.12500000000E+03  0.12500000000E+03 0.  0.
    3000001    1    3    3    0    0  0.14478203238E+02  0.42051667254E+02 -0.28938041214E+02  0.53069495166E+02  0.10000000000E+01 0.  1.
    1000022    2    1    0    0    0  0.13588248398E+02  0.48208859084E+02 -0.36021046060E+02  0.62500004119E+02  0.10000008350E+02 0.  0.
    3000022    2    3    3    0    0 -0.88995483961E+00  0.61571918298E+01 -0.70830048459E+01  0.94305089539E+01  0.25002127024E+00 0.  0.
    1000022    2    1    0    0    0 -0.13588248398E+02 -0.48208859084E+02  0.36021046060E+02  0.62499995881E+02  0.99999568568E+01 0.  0.
    3000022    2    5    5    0    0 -0.75856861230E+01 -0.19503948546E+02  0.96418905251E+01  0.23042899059E+02  0.25000261858E+00 0.  0.
        -13    1    4    4    0    0 -0.38398169915E+00  0.24072787027E+01 -0.28535811157E+01  0.37545149995E+01  0.10500000000E+00 0. -1.
         13    1    4    4    0    0 -0.50597314046E+00  0.37499131271E+01 -0.42294237302E+01  0.56759939543E+01  0.10500000000E+00 0.  1.
    3000001    1    5    5    0    0 -0.60025622752E+01 -0.28704910537E+02  0.26379155535E+02  0.39457096821E+02  0.10000000000E+01 0.  1.
        -13    1    6    6    0    0 -0.43540401273E+01 -0.11326279127E+02  0.56389890133E+01  0.13381012159E+02  0.10500000000E+00 0.  1.
         13    1    6    6    0    0 -0.32316459957E+01 -0.81776694191E+01  0.40029015118E+01  0.96618869008E+01  0.10500000000E+00 0. -1.
</event>
<event>
11    0  0.3439373E-009  0.9118800E+02  0.7816531E-02  0.1126479E+00
         25   -1    0    0    0    0  0.00000000000E+00  0.00000000000E+00  0.99999998245E-14  0.12500000000E+03  0.12500000000E+03 0.  0.
    3000001    1    3    3    0    0  0.16050680658E+02 -0.11821011251E+02  0.38905498640E+02  0.43726404849E+02  0.10000000000E+01 0.  1.
    1000022    2    1    0    0    0  0.27459084335E+02 -0.12591858442E+02  0.53793062003E+02  0.62500001201E+02  0.10000020946E+02 0.  0.
    3000022    2    3    3    0    0  0.11408403677E+02 -0.77084719107E+00  0.14887563363E+02  0.18773596352E+02  0.24999452186E+00 0.  0.
    1000022    2    1    0    0    0 -0.27459084335E+02  0.12591858442E+02 -0.53793062003E+02  0.62499998799E+02  0.10000005931E+02 0.  0.
    3000022    2    5    5    0    0 -0.10631381323E+02  0.22791563711E+01 -0.27771577535E+02  0.29825221575E+02  0.25000129885E+00 0.  0.
        -13    1    4    4    0    0  0.60077647379E+01 -0.46724599744E+00  0.78918817585E+01  0.99299737492E+01  0.10500000000E+00 0. -1.
         13    1    4    4    0    0  0.54006389386E+01 -0.30360119363E+00  0.69956816049E+01  0.88436226032E+01  0.10500000000E+00 0.  1.
    3000001    1    5    5    0    0 -0.16827703011E+02  0.10312702071E+02 -0.26021484469E+02  0.32674777223E+02  0.10000000000E+01 0. -1.
        -13    1    6    6    0    0 -0.35380365796E+01  0.75733781497E+00 -0.93904443022E+01  0.10063932263E+02  0.10500000000E+00 0.  1.
         13    1    6    6    0    0 -0.70933447437E+01  0.15218185562E+01 -0.18381133232E+02  0.19761289312E+02  0.10500000000E+00 0. -1.
</event>
<event>
11    0  0.3439373E-009  0.9118800E+02  0.7816531E-02  0.1126479E+00
         25   -1    0    0    0    0  0.00000000000E+00  0.00000000000E+00  0.99999998245E-14  0.12500000000E+03  0.12500000000E+03 0.  0.
    3000001    1    3    3    0    0 -0.30434903960E+01 -0.72824543014E+01  0.10294715173E+02  0.13010693100E+02  0.10000000000E+01 0.  1.
    1000022    2    1    0    0    0  0.40123324019E+01 -0.38528642875E+02  0.48017652934E+02  0.62499999702E+02  0.99999918143E+01 0.  0.
    3000022    2    3    3    0    0  0.70558227979E+01 -0.31246188574E+02  0.37722937761E+02  0.49489306602E+02  0.24999770612E+00 0.  0.
    1000022    2    1    0    0    0 -0.40123324019E+01  0.38528642875E+02 -0.48017652934E+02  0.62500000298E+02  0.99999955451E+01 0.  0.
    3000022    2    5    5    0    0 -0.50647558980E+01  0.38117675321E+02 -0.45588953652E+02  0.59640792411E+02  0.25000015009E+00 0.  0.
        -13    1    4    4    0    0  0.34611199743E+01 -0.15476481435E+02  0.18584099213E+02  0.24431139917E+02  0.10500000000E+00 0. -1.
         13    1    4    4    0    0  0.35947028236E+01 -0.15769707139E+02  0.19138838547E+02  0.25058166684E+02  0.10500000000E+00 0.  1.
    3000001    1    5    5    0    0  0.10524234961E+01  0.41096755467E+00 -0.24286992815E+01  0.28592078879E+01  0.10000000000E+01 0. -1.
        -13    1    6    6    0    0 -0.14453894650E+01  0.11206179700E+02 -0.13409794608E+02  0.17535713005E+02  0.10500000000E+00 0.  1.
         13    1    6    6    0    0 -0.36193664331E+01  0.26911495621E+02 -0.32179159045E+02  0.42105079406E+02  0.10500000000E+00 0. -1.
</event>
<event>
11    0  0.3439373E-009  0.9118800E+02  0.7816531E-02  0.1126479E+00
         25   -1    0    0    0    0  0.00000000000E+00  0.00000000000E+00  0.99999998245E-14  0.12500000000E+03  0.12500000000E+03 0.  0.
    3000001    1    3    3    0    0  0.46511149733E+02 -0.81775428701E+00 -0.10446191341E+02  0.47687301088E+02  0.10000000000E+01 0.  1.
    1000022    2    1    0    0    0  0.61121336339E+02  0.45758986685E+00 -0.83799089836E+01  0.62500000979E+02  0.10000005173E+02 0.  0.
    3000022    2    3    3    0    0  0.14610186607E+02  0.12753441539E+01  0.20662823572E+01  0.14812699891E+02  0.24999979939E+00 0.  0.
    1000022    2    1    0    0    0 -0.61121336339E+02 -0.45758986685E+00  0.83799089836E+01  0.62499999021E+02  0.99999929335E+01 0.  0.
    3000022    2    5    5    0    0 -0.54840019435E+02 -0.33614510011E+01  0.74849544760E+01  0.55451006532E+02  0.24999489336E+00 0.  0.
        -13    1    4    4    0    0  0.88344865629E+01  0.83041598905E+00  0.12709885673E+01  0.89646071014E+01  0.10500000000E+00 0.  1.
         13    1    4    4    0    0  0.57757000436E+01  0.44492816481E+00  0.79529378990E+00  0.58480927898E+01  0.10500000000E+00 0. -1.
    3000001    1    5    5    0    0 -0.62813169043E+01  0.29038611343E+01  0.89495450764E+00  0.70489924890E+01  0.10000000000E+01 0. -1.
        -13    1    6    6    0    0 -0.18546151609E+02 -0.10853235232E+01  0.25490221497E+01  0.18752232016E+02  0.10500000000E+00 0.  1.
         13    1    6    6    0    0 -0.36293867825E+02 -0.22761274779E+01  0.49359323263E+01  0.36698774516E+02  0.10500000000E+00 0. -1.
</event>
<event>
11    0  0.3439373E-009  0.9118800E+02  0.7816531E-02  0.1126479E+00
         25   -1    0    0    0    0  0.00000000000E+00  0.00000000000E+00  0.99999998245E-14  0.12500000000E+03  0.12500000000E+03 0.  0.
    3000001    1    3    3    0    0  0.30707537079E+02 -0.27741589235E+01  0.16410351732E+01  0.30892422819E+02  0.10000000000E+01 0.  1.
    1000022    2    1    0    0    0  0.60202783667E+02 -0.37356731520E+01  0.12958383999E+02  0.62500000470E+02  0.99999963891E+01 0.  0.
    3000022    2    3    3    0    0  0.29495246588E+02 -0.96151422850E+00  0.11317348825E+02  0.31607577651E+02  0.24999929419E+00 0.  0.
    1000022    2    1    0    0    0 -0.60202783667E+02  0.37356731520E+01 -0.12958383999E+02  0.62499999530E+02  0.99999905137E+01 0.  0.
    3000022    2    5    5    0    0 -0.13099938659E+02 -0.28605193634E+00 -0.69521415927E+01  0.14835261743E+02  0.24999933291E+00 0.  0.
        -13    1    4    4    0    0  0.13806416696E+02 -0.43434585349E+00  0.52272207048E+01  0.14769585627E+02  0.10500000000E+00 0.  1.
         13    1    4    4    0    0  0.15688829891E+02 -0.52716837501E+00  0.60901281206E+01  0.16837992024E+02  0.10500000000E+00 0. -1.
    3000001    1    5    5    0    0 -0.47102845007E+02  0.40217250883E+01 -0.60062424058E+01  0.47664737787E+02  0.10000000000E+01 0.  1.
        -13    1    6    6    0    0 -0.69382698776E+01 -0.21893206805E+00 -0.36835241654E+01  0.78591917792E+01  0.10500000000E+00 0.  1.
         13    1    6    6    0    0 -0.61616687818E+01 -0.67119868294E-01 -0.32686174273E+01  0.69760699637E+01  0.10500000000E+00 0. -1.
</event>
<event>
11    0  0.3439373E-009  0.9118800E+02  0.7816531E-02  0.1126479E+00
         25   -1    0    0    0    0  0.00000000000E+00  0.00000000000E+00  0.99999998245E-14  0.12500000000E+03  0.12500000000E+03 0.  0.
    3000001    1    3    3    0    0 -0.17016377009E+02  0.17561409222E+02  0.35886569473E+02  0.43437380779E+02  0.10000000000E+01 0. -1.
    1000022    2    1    0    0    0 -0.18891506034E+02  0.22857837607E+02  0.54100649207E+02  0.62500000327E+02  0.10000002802E+02 0.  0.
    3000022    2    3    3    0    0 -0.18751290247E+01  0.52964283846E+01  0.18214079734E+02  0.19062619548E+02  0.25000202023E+00 0.  0.
    1000022    2    1    0    0    0  0.18891506034E+02 -0.22857837607E+02 -0.54100649207E+02  0.62499999673E+02  0.99999987105E+01 0.  0.
    3000022    2    5    5    0    0  0.18385842621E+02 -0.22199288582E+02 -0.53980358225E+02  0.61194682767E+02  0.25000466841E+00 0.  0.
        -13    1    4    4    0    0 -0.44512445342E+00  0.12257742265E+01  0.42249927937E+01  0.44229229408E+01  0.10500000000E+00 0.  1.
         13    1    4    4    0    0 -0.14300045713E+01  0.40706541581E+01  0.13989086940E+02  0.14639696608E+02  0.10500000000E+00 0. -1.
    3000001    1    5    5    0    0  0.50566341289E+00 -0.65854902480E+00 -0.12029098139E+00  0.13053169061E+01  0.10000000000E+01 0.  1.
        -13    1    6    6    0    0  0.12867266636E+02 -0.15478963622E+02 -0.37755349764E+02  0.42786006197E+02  0.10500000000E+00 0. -1.
         13    1    6    6    0    0  0.55185759850E+01 -0.67203249601E+01 -0.16225008461E+02  0.18408676570E+02  0.10500000000E+00 0.  1.
</event>
<event>
11    0  0.3439373E-009  0.9118800E+02  0.7816531E-02  0.1126479E+00
         25   -1    0    0    0    0  0.00000000000E+00  0.00000000000E+00  0.99999998245E-14  0.12500000000E+03  0.12500000000E+03 0.  0.
    3000001    1    3    3    0    0 -0.69208338230E+01  0.12636243643E+02 -0.12411411439E+02  0.19042471692E+02  0.10000000000E+01 0. -1.
    1000022    2    1    0    0    0 -0.10423381369E+02  0.48643003533E+02 -0.36489194680E+02  0.62499999714E+02  0.99999981989E+01 0.  0.
    3000022    2    3    3    0    0 -0.35025475455E+01  0.36006759890E+02 -0.24077783241E+02  0.43457528022E+02  0.24999787222E+00 0.  0.
    1000022    2    1    0    0    0  0.10423381369E+02 -0.48643003533E+02  0.36489194680E+02  0.62500000286E+02  0.10000001774E+02 0.  0.
    3000022    2    5    5    0    0  0.36724024437E+01 -0.24043799403E+02  0.11993221573E+02  0.27119931621E+02  0.24999598045E+00 0.  0.
        -13    1    4    4    0    0 -0.25962584741E+01  0.26453887843E+02 -0.17660743119E+02  0.31913345369E+02  0.10500000000E+00 0.  1.
         13    1    4    4    0    0 -0.90628907142E+00  0.95528720470E+01 -0.64170401213E+01  0.11544182654E+02  0.10500000000E+00 0. -1.
    3000001    1    5    5    0    0  0.67509789248E+01 -0.24599204130E+02  0.24495973107E+02  0.35380068665E+02  0.10000000000E+01 0. -1.
        -13    1    6    6    0    0  0.17276613377E+01 -0.11759278870E+02  0.58649717062E+01  0.13254220888E+02  0.10500000000E+00 0.  1.
         13    1    6    6    0    0  0.19447411060E+01 -0.12284520534E+02  0.61282498669E+01  0.13865710733E+02  0.10500000000E+00 0. -1.
</event>
<event>
11    0  0.3439373E-009  0.9118800E+02  0.7816531E-02  0.1126479E+00
         25   -1    0    0    0    0  0.00000000000E+00  0.00000000000E+00  0.99999998245E-14  0.12500000000E+03  0.12500000000E+03 0.  0.
    3000001    1    3    3    0    0  0.65755558647E+01  0.88173986025E+01  0.80957043101E+01  0.13693972445E+02  0.10000000000E+01 0.  1.
    1000022    2    1    0    0    0  0.29610176174E+02  0.25357519723E+02  0.47817190475E+02  0.62499999764E+02  0.99999963013E+01 0.  0.
    3000022    2    3    3    0    0  0.23034620310E+02  0.16540121121E+02  0.39721486165E+02  0.48806027319E+02  0.25000010506E+00 0.  0.
    1000022    2    1    0    0    0 -0.29610176174E+02 -0.25357519723E+02 -0.47817190475E+02  0.62500000236E+02  0.99999992474E+01 0.  0.
    3000022    2    5    5    0    0 -0.21972714885E+02 -0.15304704017E+02 -0.37943221339E+02  0.46441196262E+02  0.25000036727E+00 0.  0.
        -13    1    4    4    0    0  0.94630683603E+01  0.67250135101E+01  0.16211138657E+02  0.19939596562E+02  0.10500000000E+00 0. -1.
         13    1    4    4    0    0  0.13571551949E+02  0.98151076104E+01  0.23510347508E+02  0.28866430757E+02  0.10500000000E+00 0.  1.
    3000001    1    5    5    0    0 -0.76374612893E+01 -0.10052815706E+02 -0.98739691357E+01  0.16058803974E+02  0.10000000000E+01 0. -1.
        -13    1    6    6    0    0 -0.16294255334E+02 -0.11354311270E+02 -0.28193595128E+02  0.34486417218E+02  0.10500000000E+00 0. -1.
         13    1    6    6    0    0 -0.56784595513E+01 -0.39503927469E+01 -0.97496262116E+01  0.11954779044E+02  0.10500000000E+00 0.  1.
</event>
<event>
11    0  0.3439373E-009  0.9118800E+02  0.7816531E-02  0.1126479E+00
         25   -1    0    0    0    0  0.00000000000E+00  0.00000000000E+00  0.99999998245E-14  0.12500000000E+03  0.12500000000E+03 0.  0.
    3000001    1    3    3    0    0 -0.15747738859E+02 -0.37793215459E+01  0.26926525879E+02  0.31437435430E+02  0.10000000000E+01 0. -1.
    1000022    2    1    0    0    0 -0.38920080032E+02 -0.60022423582E+01  0.47491583869E+02  0.62499999524E+02  0.99999929582E+01 0.  0.
    3000022    2    3    3    0    0 -0.23172341173E+02 -0.22229208124E+01  0.20565057990E+02  0.31062564094E+02  0.25001122316E+00 0.  0.
    1000022    2    1    0    0    0  0.38920080032E+02  0.60022423582E+01 -0.47491583869E+02  0.62500000476E+02  0.99999989030E+01 0.  0.
    3000022    2    5    5    0    0  0.36574292663E+02  0.50111030251E+01 -0.46925080984E+02  0.59706078309E+02  0.25004856353E+00 0.  0.
        -13    1    4    4    0    0 -0.15050145997E+02 -0.14979336156E+01  0.13338142014E+02  0.20166004984E+02  0.10500000000E+00 0.  1.
         13    1    4    4    0    0 -0.81221951754E+01 -0.72498719675E+00  0.72269159765E+01  0.10896559110E+02  0.10500000000E+00 0. -1.
    3000001    1    5    5    0    0  0.23457873688E+01  0.99113933319E+00 -0.56650288480E+00  0.27939221671E+01  0.10000000000E+01 0. -1.
        -13    1    6    6    0    0  0.11513051357E+02  0.15925441474E+01 -0.14697822624E+02  0.18738291365E+02  0.10500000000E+00 0.  1.
         13    1    6    6    0    0  0.25061241306E+02  0.34185588776E+01 -0.32227258361E+02  0.40967786943E+02  0.10500000000E+00 0. -1.
</event>
<event>
11    0  0.3439373E-009  0.9118800E+02  0.7816531E-02  0.1126479E+00
         25   -1    0    0    0    0  0.00000000000E+00  0.00000000000E+00  0.99999998245E-14  0.12500000000E+03  0.12500000000E+03 0.  0.
    3000001    1    3    3    0    0  0.28206309390E+01 -0.14654190417E+02  0.88954908735E+00  0.14983075561E+02  0.10000000000E+01 0. -1.
    1000022    2    1    0    0    0 -0.41493211894E+01 -0.60602554988E+02  0.10787179922E+02  0.62499999241E+02  0.10000005851E+02 0.  0.
    3000022    2    3    3    0    0 -0.69699521284E+01 -0.45948364571E+02  0.98976308350E+01  0.47516923680E+02  0.25000094156E+00 0.  0.
    1000022    2    1    0    0    0  0.41493211894E+01  0.60602554988E+02 -0.10787179922E+02  0.62500000759E+02  0.10000015338E+02 0.  0.
    3000022    2    5    5    0    0  0.37078122248E+01  0.56137776544E+02 -0.73041689717E+01  0.56732805426E+02  0.25000076683E+00 0.  0.
        -13    1    4    4    0    0 -0.50045016850E+01 -0.33169399161E+02  0.71148627337E+01  0.34291199666E+02  0.10500000000E+00 0.  1.
         13    1    4    4    0    0 -0.19654504434E+01 -0.12778965410E+02  0.27827681014E+01  0.13225724014E+02  0.10500000000E+00 0. -1.
    3000001    1    5    5    0    0  0.44150896465E+00  0.44647784443E+01 -0.34830109507E+01  0.57671953327E+01  0.10000000000E+01 0.  1.
        -13    1    6    6    0    0  0.13811075814E+01  0.21839448788E+02 -0.28319468513E+01  0.22065809060E+02  0.10500000000E+00 0.  1.
         13    1    6    6    0    0  0.23267046433E+01  0.34298327756E+02 -0.44722221203E+01  0.34666996366E+02  0.10500000000E+00 0. -1.
</event>
<event>
11    0  0.3439373E-009  0.9118800E+02  0.7816531E-02  0.1126479E+00
         25   -1    0    0    0    0  0.00000000000E+00  0.00000000000E+00  0.99999998245E-14  0.12500000000E+03  0.12500000000E+03 0.  0.
    3000001    1    3    3    0    0  0.74834238193E+00 -0.75508553295E+01  0.10530226456E+02  0.13017722602E+02  0.10000000000E+01 0.  1.
    1000022    2    1    0    0    0  0.39751771149E+01 -0.49364493987E+02  0.36791232204E+02  0.62499999908E+02  0.99999960840E+01 0.  0.
    3000022    2    3    3    0    0  0.32268347330E+01 -0.41813638658E+02  0.26261005748E+02  0.49482277306E+02  0.25000858595E+00 0.  0.
    1000022    2    1    0    0    0 -0.39751771149E+01  0.49364493987E+02 -0.36791232204E+02  0.62500000092E+02  0.99999972394E+01 0.  0.
    3000022    2    5    5    0    0 -0.32342181865E+01  0.32834569724E+02 -0.29972718418E+02  0.44575727541E+02  0.25000026805E+00 0.  0.
        -13    1    4    4    0    0  0.10685867893E+01 -0.13448006676E+02  0.84958950156E+01  0.15943086853E+02  0.10500000000E+00 0.  1.
         13    1    4    4    0    0  0.21582479437E+01 -0.28365631981E+02  0.17765110732E+02  0.33539190453E+02  0.10500000000E+00 0. -1.
    3000001    1    5    5    0    0 -0.74095892840E+00  0.16529924263E+02 -0.68185137853E+01  0.17924272552E+02  0.10000000000E+01 0.  1.
        -13    1    6    6    0    0 -0.17486661756E+01  0.18100331602E+02 -0.16442244046E+02  0.24516081493E+02  0.10500000000E+00 0. -1.
         13    1    6    6    0    0 -0.14855520109E+01  0.14734238122E+02 -0.13530474372E+02  0.20059646047E+02  0.10500000000E+00 0.  1.
</event>
<event>
11    0  0.3439373E-009  0.9118800E+02  0.7816531E-02  0.1126479E+00
         25   -1    0    0    0    0  0.00000000000E+00  0.00000000000E+00  0.99999998245E-14  0.12500000000E+03  0.12500000000E+03 0.  0.
    3000001    1    3    3    0    0 -0.30479469969E+02 -0.55983272308E+01 -0.38487670140E+00  0.31007861704E+02  0.10000000000E+01 0.  1.
    1000022    2    1    0    0    0 -0.61036049382E+02 -0.43118774904E+01 -0.78903949671E+01  0.62500000422E+02  0.10000005416E+02 0.  0.
    3000022    2    3    3    0    0 -0.30556579413E+02  0.12864497404E+01 -0.75055182657E+01  0.31492138718E+02  0.24999645315E+00 0.  0.
    1000022    2    1    0    0    0  0.61036049382E+02  0.43118774904E+01  0.78903949671E+01  0.62499999578E+02  0.10000000143E+02 0.  0.
    3000022    2    5    5    0    0  0.36699944113E+02  0.26354790334E+01  0.95966846436E+01  0.38026181815E+02  0.24999925247E+00 0.  0.
        -13    1    4    4    0    0 -0.16049810678E+02  0.68271809989E+00 -0.38731713830E+01  0.16524981342E+02  0.10500000000E+00 0.  1.
         13    1    4    4    0    0 -0.14506768735E+02  0.60373164054E+00 -0.36323468828E+01  0.14967157376E+02  0.10500000000E+00 0. -1.
    3000001    1    5    5    0    0  0.24336105269E+02  0.16763984570E+01 -0.17062896765E+01  0.24473817763E+02  0.10000000000E+01 0.  1.
        -13    1    6    6    0    0  0.11413702794E+02  0.78190843386E+00  0.29521048126E+01  0.11815665029E+02  0.10500000000E+00 0.  1.
         13    1    6    6    0    0  0.25286241320E+02  0.18535705996E+01  0.66445798310E+01  0.26210516786E+02  0.10500000000E+00 0. -1.
</event>
<event>
11    0  0.3439373E-009  0.9118800E+02  0.7816531E-02  0.1126479E+00
         25   -1    0    0    0    0  0.00000000000E+00  0.00000000000E+00  0.99999998245E-14  0.12500000000E+03  0.12500000000E+03 0.  0.
    3000001    1    3    3    0    0 -0.14074683240E+02 -0.21271738062E+01  0.59460823387E+01  0.15458896205E+02  0.10000000000E+01 0. -1.
    1000022    2    1    0    0    0 -0.47332804542E+02 -0.15354481064E+02  0.36470475035E+02  0.62499998767E+02  0.99999911047E+01 0.  0.
    3000022    2    3    3    0    0 -0.33258121302E+02 -0.13227307257E+02  0.30524392696E+02  0.47041102562E+02  0.24998191051E+00 0.  0.
    1000022    2    1    0    0    0  0.47332804542E+02  0.15354481064E+02 -0.36470475035E+02  0.62500001233E+02  0.10000006516E+02 0.  0.
    3000022    2    5    5    0    0  0.41398775091E+02  0.16502524646E+02 -0.33039038462E+02  0.55478216094E+02  0.24999941417E+00 0.  0.
        -13    1    4    4    0    0 -0.24247963221E+02 -0.96279076866E+01  0.22205811119E+02  0.34260318143E+02  0.10500000000E+00 0. -1.
         13    1    4    4    0    0 -0.90101580805E+01 -0.35993995708E+01  0.83185815776E+01  0.12780784419E+02  0.10500000000E+00 0.  1.
    3000001    1    5    5    0    0  0.59340294506E+01 -0.11480435824E+01 -0.34314365730E+01  0.70217851393E+01  0.10000000000E+01 0.  1.
        -13    1    6    6    0    0  0.22894584328E+02  0.91640407707E+01 -0.18352089784E+02  0.30740069278E+02  0.10500000000E+00 0. -1.
         13    1    6    6    0    0  0.18504190763E+02  0.73384838753E+01 -0.14686948678E+02  0.24738146815E+02  0.10500000000E+00 0.  1.
</event>
<event>
11    0  0.3439373E-009  0.9118800E+02  0.7816531E-02  0.1126479E+00
         25   -1    0    0    0    0  0.00000000000E+00  0.00000000000E+00  0.99999998245E-14  0.12500000000E+03  0.12500000000E+03 0.  0.
    3000001    1    3    3    0    0 -0.21246137210E+02  0.21951769238E+02  0.51503509780E+02  0.59890650678E+02  0.10000000000E+01 0. -1.
    1000022    2    1    0    0    0 -0.23556631265E+02  0.21815646403E+02  0.52682185045E+02  0.62500000113E+02  0.10000004426E+02 0.  0.
    3000022    2    3    3    0    0 -0.23104940551E+01 -0.13612283515E+00  0.11786752651E+01  0.26093494351E+01  0.25003377510E+00 0.  0.
    1000022    2    1    0    0    0  0.23556631265E+02 -0.21815646403E+02 -0.52682185045E+02  0.62499999887E+02  0.10000003011E+02 0.  0.
    3000022    2    5    5    0    0  0.23288812512E+02 -0.19372517651E+02 -0.51116656717E+02  0.59419174684E+02  0.24999584366E+00 0.  0.
        -13    1    4    4    0    0 -0.11147771844E+01 -0.56583161987E-02  0.60245694595E+00  0.12715107389E+01  0.10500000000E+00 0. -1.
         13    1    4    4    0    0 -0.11957168707E+01 -0.13046451896E+00  0.57621831913E+00  0.13378386962E+01  0.10500000000E+00 0.  1.
    3000001    1    5    5    0    0  0.26781875312E+00 -0.24431287517E+01 -0.15655283283E+01  0.30808252025E+01  0.10000000000E+01 0.  1.
        -13    1    6    6    0    0  0.15833150871E+02 -0.13213847909E+02 -0.34723479640E+02  0.40385956797E+02  0.10500000000E+00 0.  1.
         13    1    6    6    0    0  0.74556616411E+01 -0.61586697422E+01 -0.16393177076E+02  0.19033217887E+02  0.10500000000E+00 0. -1.
</event>
<event>
11    0  0.3439373E-009  0.9118800E+02  0.7816531E-02  0.1126479E+00
         25   -1    0    0    0    0  0.00000000000E+00  0.00000000000E+00  0.99999998245E-14  0.12500000000E+03  0.12500000000E+03 0.  0.
    3000001    1    3    3    0    0 -0.38225436461E+01 -0.32375059915E+01 -0.12475160636E+01  0.52582869169E+01  0.10000000000E+01 0.  1.
    1000022    2    1    0    0    0 -0.25232853109E+02 -0.56297110697E+02  0.43423045841E+00  0.62500000508E+02  0.99999979317E+01 0.  0.
    3000022    2    3    3    0    0 -0.21410309463E+02 -0.53059604705E+02  0.16817465220E+01  0.57241713591E+02  0.25000150245E+00 0.  0.
    1000022    2    1    0    0    0  0.25232853109E+02  0.56297110697E+02 -0.43423045841E+00  0.62499999492E+02  0.99999915770E+01 0.  0.
    3000022    2    5    5    0    0  0.18214148926E+02  0.42031958204E+02  0.39458422212E+01  0.45979048528E+02  0.25000237026E+00 0.  0.
        -13    1    4    4    0    0 -0.59861394254E+01 -0.14740350960E+02  0.48397103380E+00  0.15917193993E+02  0.10500000000E+00 0. -1.
         13    1    4    4    0    0 -0.15424170037E+02 -0.38319253745E+02  0.11977754882E+01  0.41324519598E+02  0.10500000000E+00 0.  1.
    3000001    1    5    5    0    0  0.70187041832E+01  0.14265152493E+02 -0.43800726796E+01  0.16520950964E+02  0.10000000000E+01 0.  1.
        -13    1    6    6    0    0  0.13385136753E+02  0.30802382812E+02  0.28868171906E+01  0.33708951501E+02  0.10500000000E+00 0. -1.
         13    1    6    6    0    0  0.48290121729E+01  0.11229575392E+02  0.10590250306E+01  0.12270097027E+02  0.10500000000E+00 0.  1.
</event>
<event>
11    0  0.3439373E-009  0.9118800E+02  0.7816531E-02  0.1126479E+00
         25   -1    0    0    0    0  0.00000000000E+00  0.00000000000E+00  0.99999998245E-14  0.12500000000E+03  0.12500000000E+03 0.  0.
    3000001    1    3    3    0    0 -0.95215656249E+01 -0.78258350442E+01  0.28936202646E+02  0.31467566313E+02  0.10000000000E+01 0. -1.
    1000022    2    1    0    0    0 -0.23094138608E+02 -0.22871581928E+02  0.52438548164E+02  0.62500000884E+02  0.10000013956E+02 0.  0.
    3000022    2    3    3    0    0 -0.13572572983E+02 -0.15045746883E+02  0.23502345517E+02  0.31032434571E+02  0.25002786653E+00 0.  0.
    1000022    2    1    0    0    0  0.23094138608E+02  0.22871581928E+02 -0.52438548164E+02  0.62499999116E+02  0.10000002903E+02 0.  0.
    3000022    2    5    5    0    0  0.14647861351E+02  0.12665956378E+02 -0.22127382155E+02  0.29405268762E+02  0.24999364660E+00 0.  0.
        -13    1    4    4    0    0 -0.83590797827E+01 -0.93160428259E+01  0.14438433757E+02  0.19108696007E+02  0.10500000000E+00 0. -1.
         13    1    4    4    0    0 -0.52134932000E+01 -0.57297040576E+01  0.90639117606E+01  0.11923738564E+02  0.10500000000E+00 0.  1.
    3000001    1    5    5    0    0  0.84462772562E+01  0.10205625550E+02 -0.30311166009E+02  0.33094730353E+02  0.10000000000E+01 0.  1.
        -13    1    6    6    0    0  0.34957007533E+01  0.30225412568E+01 -0.52538916551E+01  0.69978626686E+01  0.10500000000E+00 0. -1.
         13    1    6    6    0    0  0.11152160598E+02  0.96434151214E+01 -0.16873490500E+02  0.22407406094E+02  0.10500000000E+00 0.  1.
</event>
<event>
11    0  0.3439373E-009  0.9118800E+02  0.7816531E-02  0.1126479E+00
         25   -1    0    0    0    0  0.00000000000E+00  0.00000000000E+00  0.99999998245E-14  0.12500000000E+03  0.12500000000E+03 0.  0.
    3000001    1    3    3    0    0 -0.54190294943E+01 -0.17485005724E+02 -0.26413194523E+02  0.32151954073E+02  0.10000000000E+01 0.  1.
    1000022    2    1    0    0    0 -0.31043340280E+01 -0.28761609196E+02 -0.54492044330E+02  0.62500000309E+02  0.10000004503E+02 0.  0.
    3000022    2    3    3    0    0  0.23146954663E+01 -0.11276603472E+02 -0.28078849807E+02  0.30348046236E+02  0.25000571645E+00 0.  0.
    1000022    2    1    0    0    0  0.31043340280E+01  0.28761609196E+02  0.54492044330E+02  0.62499999691E+02  0.10000000640E+02 0.  0.
    3000022    2    5    5    0    0 -0.89909111075E+00  0.21369139250E+02  0.44710125262E+02  0.49563154426E+02  0.24999729230E+00 0.  0.
        -13    1    4    4    0    0  0.14192879664E+01 -0.70163829057E+01 -0.17308660212E+02  0.18730850241E+02  0.10500000000E+00 0.  1.
         13    1    4    4    0    0  0.89540749994E+00 -0.42602205661E+01 -0.10770189595E+02  0.11617195995E+02  0.10500000000E+00 0. -1.
    3000001    1    5    5    0    0  0.40034251388E+01  0.73924699462E+01  0.97819190685E+01  0.12936845265E+02  0.10000000000E+01 0. -1.
        -13    1    6    6    0    0 -0.53549983517E+00  0.13902280059E+02  0.29018858213E+02  0.32181754270E+02  0.10500000000E+00 0. -1.
         13    1    6    6    0    0 -0.36359127557E+00  0.74668591908E+01  0.15691267048E+02  0.17381400156E+02  0.10500000000E+00 0.  1.
</event>
<event>
11    0  0.3439373E-009  0.9118800E+02  0.7816531E-02  0.1126479E+00
         25   -1    0    0    0    0  0.00000000000E+00  0.00000000000E+00  0.99999998245E-14  0.12500000000E+03  0.12500000000E+03 0.  0.
    3000001    1    3    3    0    0  0.23458455392E+02 -0.39373574309E+02  0.24984825954E+01  0.45910999755E+02  0.10000000000E+01 0.  1.
    1000022    2    1    0    0    0  0.28610786513E+02 -0.54020538918E+02  0.83339204380E+01  0.62499999858E+02  0.10000001122E+02 0.  0.
    3000022    2    3    3    0    0  0.51523311207E+01 -0.14646964610E+02  0.58354378427E+01  0.16589000103E+02  0.25000267993E+00 0.  0.
    1000022    2    1    0    0    0 -0.28610786513E+02  0.54020538918E+02 -0.83339204380E+01  0.62500000142E+02  0.10000002898E+02 0.  0.
    3000022    2    5    5    0    0 -0.14624209968E+02  0.31998017320E+02 -0.92433212417E+01  0.36376394134E+02  0.24986610253E+00 0.  0.
        -13    1    4    4    0    0  0.16094000235E+01 -0.47216982318E+01  0.18915506599E+01  0.53360651726E+01  0.10500000000E+00 0.  1.
         13    1    4    4    0    0  0.35429310972E+01 -0.99252663780E+01  0.39438871828E+01  0.11252934930E+02  0.10500000000E+00 0. -1.
    3000001    1    5    5    0    0 -0.13986576545E+02  0.22022521599E+02  0.90940080366E+00  0.26123606008E+02  0.10000000000E+01 0. -1.
        -13    1    6    6    0    0 -0.33999778663E+01  0.74403623473E+01 -0.21605339725E+01  0.84615467497E+01  0.10500000000E+00 0.  1.
         13    1    6    6    0    0 -0.11224232102E+02  0.24557654972E+02 -0.70827872692E+01  0.27914847385E+02  0.10500000000E+00 0. -1.
</event>
<event>
11    0  0.3439373E-009  0.9118800E+02  0.7816531E-02  0.1126479E+00
         25   -1    0    0    0    0  0.00000000000E+00  0.00000000000E+00  0.99999998245E-14  0.12500000000E+03  0.12500000000E+03 0.  0.
    3000001    1    3    3    0    0  0.68216661324E+01 -0.29801158587E+01 -0.13812611757E+02  0.15722737132E+02  0.10000000000E+01 0. -1.
    1000022    2    1    0    0    0  0.16977851704E+02  0.93211808916E+00 -0.59305425491E+02  0.62499999586E+02  0.10000008149E+02 0.  0.
    3000022    2    3    3    0    0  0.10156185572E+02  0.39122339478E+01 -0.45492813734E+02  0.46777262454E+02  0.25000299873E+00 0.  0.
    1000022    2    1    0    0    0 -0.16977851704E+02 -0.93211808916E+00  0.59305425491E+02  0.62500000414E+02  0.10000013323E+02 0.  0.
    3000022    2    5    5    0    0 -0.54342501290E+00 -0.19095351208E+01  0.18542430642E+01  0.27280664737E+01  0.24998844292E+00 0.  0.
        -13    1    4    4    0    0  0.73555999607E+01  0.28689798731E+01 -0.33073614710E+02  0.34003101495E+02  0.10500000000E+00 0. -1.
         13    1    4    4    0    0  0.28005856113E+01  0.10432540747E+01 -0.12419199024E+02  0.12774160960E+02  0.10500000000E+00 0.  1.
    3000001    1    5    5    0    0 -0.16434426692E+02  0.97741703165E+00  0.57451182427E+02  0.59771933940E+02  0.10000000000E+01 0.  1.
        -13    1    6    6    0    0 -0.35205891667E+00 -0.10108954909E+01  0.96155246285E+00  0.14427277335E+01  0.10500000000E+00 0.  1.
         13    1    6    6    0    0 -0.19136609623E+00 -0.89863962993E+00  0.89269060131E+00  0.12853387402E+01  0.10500000000E+00 0. -1.
</event>
<event>
11    0  0.3439373E-009  0.9118800E+02  0.7816531E-02  0.1126479E+00
         25   -1    0    0    0    0  0.00000000000E+00  0.00000000000E+00  0.99999998245E-14  0.12500000000E+03  0.12500000000E+03 0.  0.
    3000001    1    3    3    0    0  0.19527632684E+02 -0.50882530706E+02 -0.14028585945E+02  0.56286424588E+02  0.10000000000E+01 0.  1.
    1000022    2    1    0    0    0  0.20709613481E+02 -0.56767500661E+02 -0.12442350346E+02  0.62500005487E+02  0.10000069093E+02 0.  0.
    3000022    2    3    3    0    0  0.11819807973E+01 -0.58849699548E+01  0.15862355985E+01  0.62135808987E+01  0.24998847177E+00 0.  0.
    1000022    2    1    0    0    0 -0.20709613481E+02  0.56767500661E+02  0.12442350346E+02  0.62499994513E+02  0.10000000507E+02 0.  0.
    3000022    2    5    5    0    0 -0.14250089099E+02  0.45043697354E+02  0.60426084008E+01  0.47629563578E+02  0.24999939798E+00 0.  0.
        -13    1    4    4    0    0  0.66419415094E+00 -0.29934095740E+01  0.78122024224E+00  0.31659097926E+01  0.10500000000E+00 0. -1.
         13    1    4    4    0    0  0.51778664636E+00 -0.28915603808E+01  0.80501535630E+00  0.30476711061E+01  0.10500000000E+00 0.  1.
    3000001    1    5    5    0    0 -0.64595243816E+01  0.11723803308E+02  0.63997419456E+01  0.14870430935E+02  0.10000000000E+01 0. -1.
        -13    1    6    6    0    0 -0.39813365277E+01  0.12456966129E+02  0.16719037319E+01  0.13184586940E+02  0.10500000000E+00 0. -1.
         13    1    6    6    0    0 -0.10268752572E+02  0.32586731225E+02  0.43707046688E+01  0.34444976638E+02  0.10500000000E+00 0.  1.
</event>
<event>
11    0  0.3439373E-009  0.9118800E+02  0.7816531E-02  0.1126479E+00
         25   -1    0    0    0    0  0.00000000000E+00  0.00000000000E+00  0.99999998245E-14  0.12500000000E+03  0.12500000000E+03 0.  0.
    3000001    1    3    3    0    0  0.12573126461E+02  0.73412653435E+01 -0.72359667464E+01  0.16289165129E+02  0.10000000000E+01 0.  1.
    1000022    2    1    0    0    0  0.35736867704E+02  0.36536756403E+02 -0.34557078485E+02  0.62499999957E+02  0.10000001968E+02 0.  0.
    3000022    2    3    3    0    0  0.23163741243E+02  0.29195491060E+02 -0.27321111739E+02  0.46210834827E+02  0.25000440298E+00 0.  0.
    1000022    2    1    0    0    0 -0.35736867704E+02 -0.36536756403E+02  0.34557078485E+02  0.62500000043E+02  0.10000002510E+02 0.  0.
    3000022    2    5    5    0    0 -0.23931094885E+02 -0.30504609203E+02  0.25198377415E+02  0.46241206810E+02  0.24999566253E+00 0.  0.
        -13    1    4    4    0    0  0.63020066567E+01  0.79346118917E+01 -0.74735894809E+01  0.12591223868E+02  0.10500000000E+00 0. -1.
         13    1    4    4    0    0  0.16861734586E+02  0.21260879168E+02 -0.19847522258E+02  0.33619610959E+02  0.10500000000E+00 0.  1.
    3000001    1    5    5    0    0 -0.11805772819E+02 -0.60321472005E+01  0.93587010702E+01  0.16258793234E+02  0.10000000000E+01 0. -1.
        -13    1    6    6    0    0 -0.61933163252E+01 -0.79125013619E+01  0.64959277673E+01  0.11965489855E+02  0.10500000000E+00 0.  1.
         13    1    6    6    0    0 -0.17737778560E+02 -0.22592107841E+02  0.18702449648E+02  0.34275716955E+02  0.10500000000E+00 0. -1.
</event>
<event>
11    0  0.3439373E-009  0.9118800E+02  0.7816531E-02  0.1126479E+00
         25   -1    0    0    0    0  0.00000000000E+00  0.00000000000E+00  0.99999998245E-14  0.12500000000E+03  0.12500000000E+03 0.  0.
    3000001    1    3    3    0    0  0.28247058719E+00 -0.33459106796E+02 -0.30909022894E+02  0.45562696512E+02  0.10000000000E+01 0. -1.
    1000022    2    1    0    0    0 -0.77429868236E+00 -0.49072059428E+02 -0.37384268111E+02  0.62500003069E+02  0.10000016326E+02 0.  0.
    3000022    2    3    3    0    0 -0.10567692696E+01 -0.15612952632E+02 -0.64752452170E+01  0.16937306557E+02  0.25000320318E+00 0.  0.
    1000022    2    1    0    0    0  0.77429868236E+00  0.49072059428E+02  0.37384268111E+02  0.62499996931E+02  0.99999779569E+01 0.  0.
    3000022    2    5    5    0    0 -0.33882854189E+01  0.24882863446E+02  0.14916101911E+02  0.29209415664E+02  0.24999170896E+00 0.  0.
        -13    1    4    4    0    0 -0.56403298178E+00 -0.73439049599E+01 -0.30576000672E+01  0.79756514740E+01  0.10500000000E+00 0.  1.
         13    1    4    4    0    0 -0.49273628778E+00 -0.82690476724E+01 -0.34176451498E+01  0.89616550830E+01  0.10500000000E+00 0. -1.
    3000001    1    5    5    0    0  0.41625841012E+01  0.24189195982E+02  0.22468166201E+02  0.33290581266E+02  0.10000000000E+01 0. -1.
        -13    1    6    6    0    0 -0.10317088134E+01  0.78618869003E+01  0.47467038303E+01  0.92420728715E+01  0.10500000000E+00 0. -1.
         13    1    6    6    0    0 -0.23565766054E+01  0.17020976546E+02  0.10169398080E+02  0.19967342793E+02  0.10500000000E+00 0.  1.
</event>
<event>
11    0  0.3439373E-009  0.9118800E+02  0.7816531E-02  0.1126479E+00
         25   -1    0    0    0    0  0.00000000000E+00  0.00000000000E+00  0.99999998245E-14  0.12500000000E+03  0.12500000000E+03 0.  0.
    3000001    1    3    3    0    0 -0.39002792972E+01 -0.28589441121E-01  0.50348916857E+01  0.64469473582E+01  0.10000000000E+01 0.  1.
    1000022    2    1    0    0    0 -0.35697610457E+02 -0.27412551000E+02  0.42195766034E+02  0.62499999868E+02  0.99999983807E+01 0.  0.
    3000022    2    3    3    0    0 -0.31797331160E+02 -0.27383961558E+02  0.37160874349E+02  0.56053052510E+02  0.24998755363E+00 0.  0.
    1000022    2    1    0    0    0  0.35697610457E+02  0.27412551000E+02 -0.42195766034E+02  0.62500000132E+02  0.10000000034E+02 0.  0.
    3000022    2    5    5    0    0  0.29141311205E+02  0.25667466869E+02 -0.38608720741E+02  0.54760667316E+02  0.24998683988E+00 0.  0.
        -13    1    4    4    0    0 -0.12640937117E+02 -0.10943346354E+02  0.14867337389E+02  0.22374066833E+02  0.10500000000E+00 0.  1.
         13    1    4    4    0    0 -0.19156394042E+02 -0.16440615204E+02  0.22293536960E+02  0.33678985676E+02  0.10500000000E+00 0. -1.
    3000001    1    5    5    0    0  0.65562992521E+01  0.17450841308E+01 -0.35870452930E+01  0.77393328162E+01  0.10000000000E+01 0.  1.
        -13    1    6    6    0    0  0.21572866302E+02  0.18959101196E+02 -0.28548437371E+02  0.40495189591E+02  0.10500000000E+00 0. -1.
         13    1    6    6    0    0  0.75684449025E+01  0.67083656726E+01 -0.10060283370E+02  0.14265477725E+02  0.10500000000E+00 0.  1.
</event>
<event>
11    0  0.3439373E-009  0.9118800E+02  0.7816531E-02  0.1126479E+00
         25   -1    0    0    0    0  0.00000000000E+00  0.00000000000E+00  0.99999998245E-14  0.12500000000E+03  0.12500000000E+03 0.  0.
    3000001    1    3    3    0    0 -0.54643262401E+01 -0.10692875470E+02  0.66182051500E+01  0.13747621121E+02  0.10000000000E+01 0.  1.
    1000022    2    1    0    0    0 -0.39805955524E+02 -0.38217234214E+02  0.27589472145E+02  0.62499999271E+02  0.99999924724E+01 0.  0.
    3000022    2    3    3    0    0 -0.34341629283E+02 -0.27524358744E+02  0.20971266995E+02  0.48752378150E+02  0.25001948409E+00 0.  0.
    1000022    2    1    0    0    0  0.39805955524E+02  0.38217234214E+02 -0.27589472145E+02  0.62500000729E+02  0.10000001588E+02 0.  0.
    3000022    2    5    5    0    0  0.99573865798E+01  0.11101076703E+02 -0.12400374005E+02  0.19396268077E+02  0.24997682755E+00 0.  0.
        -13    1    4    4    0    0 -0.14420649264E+02 -0.11516982828E+02  0.88564458520E+01  0.20470556338E+02  0.10500000000E+00 0. -1.
         13    1    4    4    0    0 -0.19920980019E+02 -0.16007375916E+02  0.12114821143E+02  0.28281821811E+02  0.10500000000E+00 0.  1.
    3000001    1    5    5    0    0  0.29848568944E+02  0.27116157512E+02 -0.15189098140E+02  0.43103732652E+02  0.10000000000E+01 0.  1.
        -13    1    6    6    0    0  0.64545124915E+01  0.71401532082E+01 -0.80596604288E+01  0.12554348672E+02  0.10500000000E+00 0.  1.
         13    1    6    6    0    0  0.35028740883E+01  0.39609234944E+01 -0.43407135761E+01  0.68419194059E+01  0.10500000000E+00 0. -1.
</event>
<event>
11    0  0.3439373E-009  0.9118800E+02  0.7816531E-02  0.1126479E+00
         25   -1    0    0    0    0  0.00000000000E+00  0.00000000000E+00  0.99999998245E-14  0.12500000000E+03  0.12500000000E+03 0.  0.
    3000001    1    3    3    0    0  0.43193338373E+02  0.22136929776E+02 -0.30029339973E+02  0.57083004466E+02  0.10000000000E+01 0. -1.
    1000022    2    1    0    0    0  0.47633197895E+02  0.25230258583E+02 -0.30012710722E+02  0.62499997449E+02  0.99999693147E+01 0.  0.
    3000022    2    3    3    0    0  0.44398595228E+01  0.30933288077E+01  0.16629251277E-01  0.54169929826E+01  0.25000149304E+00 0.  0.
    1000022    2    1    0    0    0 -0.47633197895E+02 -0.25230258583E+02  0.30012710722E+02  0.62500002551E+02  0.10000001205E+02 0.  0.
    3000022    2    5    5    0    0 -0.21709153117E+02 -0.94907131162E+01  0.18437365802E+02  0.30022656613E+02  0.24997572221E+00 0.  0.
        -13    1    4    4    0    0  0.23560300886E+01  0.16773437274E+01  0.69390109002E-01  0.28948574655E+01  0.10500000000E+00 0.  1.
         13    1    4    4    0    0  0.20838294341E+01  0.14159850803E+01 -0.52760857726E-01  0.25221355170E+01  0.10500000000E+00 0. -1.
    3000001    1    5    5    0    0 -0.25924044778E+02 -0.15739545467E+02  0.11575344920E+02  0.32477345938E+02  0.10000000000E+01 0. -1.
        -13    1    6    6    0    0 -0.13900088815E+02 -0.60277129455E+01  0.11836361198E+02  0.19226446989E+02  0.10500000000E+00 0. -1.
         13    1    6    6    0    0 -0.78090643027E+01 -0.34630001707E+01  0.66010046044E+01  0.10796209624E+02  0.10500000000E+00 0.  1.
</event>
<event>
11    0  0.3439373E-009  0.9118800E+02  0.7816531E-02  0.1126479E+00
         25   -1    0    0    0    0  0.00000000000E+00  0.00000000000E+00  0.99999998245E-14  0.12500000000E+03  0.12500000000E+03 0.  0.
    3000001    1    3    3    0    0 -0.26069863947E+02 -0.16685017879E+01  0.52084248435E+02  0.58276844797E+02  0.10000000000E+01 0. -1.
    1000022    2    1    0    0    0 -0.28692089519E+02 -0.39453837200E+01  0.54474286893E+02  0.62500000673E+02  0.10000004893E+02 0.  0.
    3000022    2    3    3    0    0 -0.26222255723E+01 -0.22768819321E+01  0.23900384580E+01  0.42231558754E+01  0.25000686585E+00 0.  0.
    1000022    2    1    0    0    0  0.28692089519E+02  0.39453837200E+01 -0.54474286893E+02  0.62499999327E+02  0.99999964844E+01 0.  0.
    3000022    2    5    5    0    0  0.27860536599E+01  0.11454931764E+01 -0.14220828887E+02  0.14538525596E+02  0.25000532376E+00 0.  0.
        -13    1    4    4    0    0 -0.17529820756E+01 -0.15496412005E+01  0.16661195191E+01  0.28742500343E+01  0.10500000000E+00 0. -1.
         13    1    4    4    0    0 -0.86924349671E+00 -0.72724073166E+00  0.72391893884E+00  0.13489058412E+01  0.10500000000E+00 0.  1.
    3000001    1    5    5    0    0  0.25906035859E+02  0.27998905436E+01 -0.40253458007E+02  0.47961473732E+02  0.10000000000E+01 0. -1.
        -13    1    6    6    0    0  0.13433966038E+01  0.62472294225E+00 -0.69364170872E+01  0.70936521057E+01  0.10500000000E+00 0. -1.
         13    1    6    6    0    0  0.14426570562E+01  0.52077023413E+00 -0.72844117993E+01  0.74448734899E+01  0.10500000000E+00 0.  1.
</event>
<event>
11    0  0.3439373E-009  0.9118800E+02  0.7816531E-02  0.1126479E+00
         25   -1    0    0    0    0  0.00000000000E+00  0.00000000000E+00  0.99999998245E-14  0.12500000000E+03  0.12500000000E+03 0.  0.
    3000001    1    3    3    0    0  0.53279058210E+01 -0.10601418175E+02  0.14936844734E+00  0.11907936794E+02  0.10000000000E+01 0. -1.
    1000022    2    1    0    0    0  0.17164853625E+02 -0.56566639295E+02  0.17658787706E+02  0.62500002864E+02  0.10000034685E+02 0.  0.
    3000022    2    3    3    0    0  0.11836947804E+02 -0.45965221120E+02  0.17509419259E+02  0.50592066070E+02  0.25000111100E+00 0.  0.
    1000022    2    1    0    0    0 -0.17164853625E+02  0.56566639295E+02 -0.17658787706E+02  0.62499997136E+02  0.99999988850E+01 0.  0.
    3000022    2    5    5    0    0 -0.11905060931E+02  0.29363568279E+02 -0.52227533448E+01  0.32113693601E+02  0.25009272443E+00 0.  0.
        -13    1    4    4    0    0  0.38072196513E+01 -0.14887904600E+02  0.56212962138E+01  0.16363209373E+02  0.10500000000E+00 0. -1.
         13    1    4    4    0    0  0.80297281523E+01 -0.31077316520E+02  0.11888123045E+02  0.34228856697E+02  0.10500000000E+00 0.  1.
    3000001    1    5    5    0    0 -0.52597926931E+01  0.27203071016E+02 -0.12436034361E+02  0.30386303535E+02  0.10000000000E+01 0. -1.
        -13    1    6    6    0    0 -0.29539343540E+01  0.73562715640E+01 -0.13039344533E+01  0.80344090977E+01  0.10500000000E+00 0.  1.
         13    1    6    6    0    0 -0.89511265774E+01  0.22007296715E+02 -0.39188188915E+01  0.24079284503E+02  0.10500000000E+00 0. -1.
</event>
<event>
11    0  0.3439373E-009  0.9118800E+02  0.7816531E-02  0.1126479E+00
         25   -1    0    0    0    0  0.00000000000E+00  0.00000000000E+00  0.99999998245E-14  0.12500000000E+03  0.12500000000E+03 0.  0.
    3000001    1    3    3    0    0 -0.34315804918E+01 -0.14819576858E+02 -0.93340138033E+01  0.17875106058E+02  0.10000000000E+01 0. -1.
    1000022    2    1    0    0    0 -0.25401383799E+02 -0.50381290253E+02 -0.24954864711E+02  0.62500000467E+02  0.10000003962E+02 0.  0.
    3000022    2    3    3    0    0 -0.21969803307E+02 -0.35561713395E+02 -0.15620850908E+02  0.44624894409E+02  0.25000199068E+00 0.  0.
    1000022    2    1    0    0    0  0.25401383799E+02  0.50381290253E+02  0.24954864711E+02  0.62499999533E+02  0.99999981194E+01 0.  0.
    3000022    2    5    5    0    0  0.22887135716E+02  0.43016929104E+02  0.24747774735E+02  0.54651550972E+02  0.24999700459E+00 0.  0.
        -13    1    4    4    0    0 -0.11171438770E+02 -0.18129192345E+02 -0.78902826648E+01  0.22709827054E+02  0.10500000000E+00 0.  1.
         13    1    4    4    0    0 -0.10798364537E+02 -0.17432521050E+02 -0.77305682431E+01  0.21915067356E+02  0.10500000000E+00 0. -1.
    3000001    1    5    5    0    0  0.25142480834E+01  0.73643611489E+01  0.20708997664E+00  0.78484485610E+01  0.10000000000E+01 0.  1.
        -13    1    6    6    0    0  0.11219908985E+02  0.20975028311E+02  0.12034164180E+02  0.26658400230E+02  0.10500000000E+00 0.  1.
         13    1    6    6    0    0  0.11667226731E+02  0.22041900793E+02  0.12713610554E+02  0.27993150742E+02  0.10500000000E+00 0.  1.
</event>
<event>
11    0  0.3439373E-009  0.9118800E+02  0.7816531E-02  0.1126479E+00
         25   -1    0    0    0    0  0.00000000000E+00  0.00000000000E+00  0.99999998245E-14  0.12500000000E+03  0.12500000000E+03 0.  0.
    3000001    1    3    3    0    0  0.30194161959E+02  0.50597979445E+01 -0.30745763069E+02  0.43400356200E+02  0.10000000000E+01 0. -1.
    1000022    2    1    0    0    0  0.43097131865E+02  0.13463028177E+02 -0.42043240570E+02  0.62500000416E+02  0.10000003580E+02 0.  0.
    3000022    2    3    3    0    0  0.12902969907E+02  0.84032302325E+01 -0.11297477501E+02  0.19099644215E+02  0.25000101876E+00 0.  0.
    1000022    2    1    0    0    0 -0.43097131865E+02 -0.13463028177E+02  0.42043240570E+02  0.62499999584E+02  0.99999983833E+01 0.  0.
    3000022    2    5    5    0    0 -0.11384826687E+02 -0.51573386062E+01  0.17637953101E+02  0.21618795646E+02  0.25003080840E+00 0.  0.
        -13    1    4    4    0    0  0.53274081613E+01  0.34461578589E+01 -0.47311997234E+01  0.79153368550E+01  0.10500000000E+00 0.  1.
         13    1    4    4    0    0  0.75755617453E+01  0.49570723736E+01 -0.65662777779E+01  0.11184307360E+02  0.10500000000E+00 0. -1.
    3000001    1    5    5    0    0 -0.31712305179E+02 -0.83056895707E+01  0.24405287470E+02  0.40881203939E+02  0.10000000000E+01 0.  1.
        -13    1    6    6    0    0 -0.43450444969E+01 -0.20055419101E+01  0.66659502505E+01  0.82065539525E+01  0.10500000000E+00 0. -1.
         13    1    6    6    0    0 -0.70397821897E+01 -0.31517966962E+01  0.10972002850E+02  0.13412241693E+02  0.10500000000E+00 0.  1.
</event>
<event>
11    0  0.3439373E-009  0.9118800E+02  0.7816531E-02  0.1126479E+00
         25   -1    0    0    0    0  0.00000000000E+00  0.00000000000E+00  0.99999998245E-14  0.12500000000E+03  0.12500000000E+03 0.  0.
    3000001    1    3    3    0    0 -0.13613250287E+02 -0.96699055542E+00 -0.43190134350E+02  0.45306107306E+02  0.10000000000E+01 0. -1.
    1000022    2    1    0    0    0 -0.15096878391E+02  0.35405500611E+01 -0.59714312799E+02  0.62500002954E+02  0.99999992196E+01 0.  0.
    3000022    2    3    3    0    0 -0.14836281042E+01  0.45075406165E+01 -0.16524178449E+02  0.17193895648E+02  0.24999876491E+00 0.  0.
    1000022    2    1    0    0    0  0.15096878391E+02 -0.35405500611E+01  0.59714312799E+02  0.62499997046E+02  0.99999622898E+01 0.  0.
    3000022    2    5    5    0    0  0.13720718714E+02 -0.61514445028E+01  0.44581364505E+02  0.47049537205E+02  0.24999704953E+00 0.  0.
        -13    1    4    4    0    0 -0.60853654328E+00  0.19762062517E+01 -0.73918371497E+01  0.76763265513E+01  0.10500000000E+00 0. -1.
         13    1    4    4    0    0 -0.87509156096E+00  0.25313343648E+01 -0.91323412991E+01  0.95175690967E+01  0.10500000000E+00 0.  1.
    3000001    1    5    5    0    0  0.13761596766E+01  0.26108944417E+01  0.15132948294E+02  0.15450459841E+02  0.10000000000E+01 0.  1.
        -13    1    6    6    0    0  0.37688108836E+01 -0.16622763239E+01  0.12127724629E+02  0.12808584142E+02  0.10500000000E+00 0. -1.
         13    1    6    6    0    0  0.99519078308E+01 -0.44891681789E+01  0.32453639876E+02  0.34240953063E+02  0.10500000000E+00 0.  1.
</event>
<event>
11    0  0.3439373E-009  0.9118800E+02  0.7816531E-02  0.1126479E+00
         25   -1    0    0    0    0  0.00000000000E+00  0.00000000000E+00  0.99999998245E-14  0.12500000000E+03  0.12500000000E+03 0.  0.
    3000001    1    3    3    0    0 -0.27312224307E+02 -0.36730505459E+02 -0.24396417275E+02  0.51877478772E+02  0.10000000000E+01 0.  1.
    1000022    2    1    0    0    0 -0.32192917868E+02 -0.41264401461E+02 -0.32666731300E+02  0.62500000710E+02  0.99999983064E+01 0.  0.
    3000022    2    3    3    0    0 -0.48806935608E+01 -0.45338960020E+01 -0.82703140243E+01  0.10622521938E+02  0.24999132731E+00 0.  0.
    1000022    2    1    0    0    0  0.32192917868E+02  0.41264401461E+02  0.32666731300E+02  0.62499999290E+02  0.99999894375E+01 0.  0.
    3000022    2    5    5    0    0  0.15206363060E+02  0.14415366540E+02  0.86941922770E+01  0.22686730803E+02  0.25001042666E+00 0.  0.
        -13    1    4    4    0    0 -0.11289124265E+01 -0.10385926541E+01 -0.19044929381E+01  0.24477002102E+01  0.10500000000E+00 0. -1.
         13    1    4    4    0    0 -0.37517811343E+01 -0.34953033479E+01 -0.63658210862E+01  0.81748217274E+01  0.10500000000E+00 0.  1.
    3000001    1    5    5    0    0  0.16986554808E+02  0.26849034921E+02  0.23972539023E+02  0.39813268487E+02  0.10000000000E+01 0.  1.
        -13    1    6    6    0    0  0.10673785598E+02  0.10177194143E+02  0.61041258456E+01  0.15961715351E+02  0.10500000000E+00 0. -1.
         13    1    6    6    0    0  0.45325774620E+01  0.42381723967E+01  0.25900664314E+01  0.67250154522E+01  0.10500000000E+00 0.  1.
</event>
<event>
11    0  0.3439373E-009  0.9118800E+02  0.7816531E-02  0.1126479E+00
         25   -1    0    0    0    0  0.00000000000E+00  0.00000000000E+00  0.99999998245E-14  0.12500000000E+03  0.12500000000E+03 0.  0.
    3000001    1    3    3    0    0 -0.85481985138E+00 -0.14647635488E+02 -0.25717873996E+02  0.29625883704E+02  0.10000000000E+01 0.  1.
    1000022    2    1    0    0    0 -0.27181919667E+01 -0.21179846006E+02 -0.57881565950E+02  0.62499999802E+02  0.99999926987E+01 0.  0.
    3000022    2    3    3    0    0 -0.18633721153E+01 -0.65322105174E+01 -0.32163691954E+02  0.32874116098E+02  0.24999837302E+00 0.  0.
    1000022    2    1    0    0    0  0.27181919667E+01  0.21179846006E+02  0.57881565950E+02  0.62500000198E+02  0.99999951744E+01 0.  0.
    3000022    2    5    5    0    0  0.53866944707E+00  0.15084607114E+02  0.50119150644E+02  0.52343359664E+02  0.25000602891E+00 0.  0.
        -13    1    4    4    0    0 -0.89901827807E+00 -0.32952333970E+01 -0.16438864712E+02  0.16790297645E+02  0.10500000000E+00 0. -1.
         13    1    4    4    0    0 -0.96435383726E+00 -0.32369771204E+01 -0.15724827243E+02  0.16083818453E+02  0.10500000000E+00 0.  1.
    3000001    1    5    5    0    0  0.21795225196E+01  0.60952388917E+01  0.77624153062E+01  0.10156640534E+02  0.10000000000E+01 0. -1.
        -13    1    6    6    0    0  0.26277994572E+00  0.65214910126E+01  0.21469518819E+02  0.22439923388E+02  0.10500000000E+00 0.  1.
         13    1    6    6    0    0  0.27588950134E+00  0.85631161015E+01  0.28649631825E+02  0.29903436276E+02  0.10500000000E+00 0. -1.
</event>
<event>
11    0  0.3439373E-009  0.9118800E+02  0.7816531E-02  0.1126479E+00
         25   -1    0    0    0    0  0.00000000000E+00  0.00000000000E+00  0.99999998245E-14  0.12500000000E+03  0.12500000000E+03 0.  0.
    3000001    1    3    3    0    0  0.20694139804E+02  0.20815869282E+02  0.40211939391E+02  0.49795059050E+02  0.10000000000E+01 0.  1.
    1000022    2    1    0    0    0  0.24829752038E+02  0.21563720210E+02  0.52199035142E+02  0.62500000386E+02  0.10000008150E+02 0.  0.
    3000022    2    3    3    0    0  0.41356122347E+01  0.74785092755E+00  0.11987095750E+02  0.12704941336E+02  0.25000052650E+00 0.  0.
    1000022    2    1    0    0    0 -0.24829752038E+02 -0.21563720210E+02 -0.52199035142E+02  0.62499999614E+02  0.10000003320E+02 0.  0.
    3000022    2    5    5    0    0 -0.20207053071E+02 -0.11785944273E+02 -0.33182758787E+02  0.40600387415E+02  0.25000276405E+00 0.  0.
        -13    1    4    4    0    0  0.22001055565E+01  0.45808429257E+00  0.65021495389E+01  0.68803545916E+01  0.10500000000E+00 0.  1.
         13    1    4    4    0    0  0.19355066781E+01  0.28976663499E+00  0.54849462113E+01  0.58245867445E+01  0.10500000000E+00 0. -1.
    3000001    1    5    5    0    0 -0.46226989677E+01 -0.97777759371E+01 -0.19016276355E+02  0.21899612198E+02  0.10000000000E+01 0.  1.
        -13    1    6    6    0    0 -0.12980336445E+02 -0.76344984414E+01 -0.21390005313E+02  0.26159473484E+02  0.10500000000E+00 0. -1.
         13    1    6    6    0    0 -0.72267166253E+01 -0.41514458315E+01 -0.11792753474E+02  0.14440913931E+02  0.10500000000E+00 0.  1.
</event>
<event>
11    0  0.3439373E-009  0.9118800E+02  0.7816531E-02  0.1126479E+00
         25   -1    0    0    0    0  0.00000000000E+00  0.00000000000E+00  0.99999998245E-14  0.12500000000E+03  0.12500000000E+03 0.  0.
    3000001    1    3    3    0    0 -0.37796582687E+02 -0.34194525382E+02 -0.79598084617E+01  0.51596567518E+02  0.10000000000E+01 0.  1.
    1000022    2    1    0    0    0 -0.47390854012E+02 -0.37711883330E+02 -0.11754606301E+02  0.62499999538E+02  0.99999992373E+01 0.  0.
    3000022    2    3    3    0    0 -0.95942713247E+01 -0.35173579477E+01 -0.37947978392E+01  0.10903432020E+02  0.24997997626E+00 0.  0.
    1000022    2    1    0    0    0  0.47390854012E+02  0.37711883330E+02  0.11754606301E+02  0.62500000462E+02  0.10000005011E+02 0.  0.
    3000022    2    5    5    0    0  0.69991791048E+00  0.32770493402E+01  0.68558883230E+00  0.34294963706E+01  0.24995169356E+00 0.  0.
        -13    1    4    4    0    0 -0.73709059903E+01 -0.27121069624E+01 -0.29133552140E+01  0.83776155854E+01  0.10500000000E+00 0. -1.
         13    1    4    4    0    0 -0.22233653343E+01 -0.80525098530E+00 -0.88144262520E+00  0.25258164345E+01  0.10500000000E+00 0.  1.
    3000001    1    5    5    0    0  0.46690936101E+02  0.34434833989E+02  0.11069017469E+02  0.59070504091E+02  0.10000000000E+01 0.  1.
        -13    1    6    6    0    0  0.44706433348E+00  0.21831972570E+01  0.40377235956E+00  0.22672172149E+01  0.10500000000E+00 0.  1.
         13    1    6    6    0    0  0.25285357700E+00  0.10938520832E+01  0.28181647274E+00  0.11622791557E+01  0.10500000000E+00 0. -1.
</event>
<event>
11    0  0.3439373E-009  0.9118800E+02  0.7816531E-02  0.1126479E+00
         25   -1    0    0    0    0  0.00000000000E+00  0.00000000000E+00  0.99999998245E-14  0.12500000000E+03  0.12500000000E+03 0.  0.
    3000001    1    3    3    0    0 -0.19547018457E+02 -0.30866350560E+02 -0.36437589474E+02  0.51609257446E+02  0.10000000000E+01 0. -1.
    1000022    2    1    0    0    0 -0.23700887607E+02 -0.40090573083E+02 -0.40463117278E+02  0.62500000538E+02  0.10000004196E+02 0.  0.
    3000022    2    3    3    0    0 -0.41538691494E+01 -0.92242225232E+01 -0.40255278044E+01  0.10890743092E+02  0.25000185774E+00 0.  0.
    1000022    2    1    0    0    0  0.23700887607E+02  0.40090573083E+02  0.40463117278E+02  0.62499999462E+02  0.99999974696E+01 0.  0.
    3000022    2    5    5    0    0  0.11405737572E+02  0.16081321968E+02  0.23254504248E+02  0.30488263865E+02  0.24999979827E+00 0.  0.
        -13    1    4    4    0    0 -0.14169707754E+01 -0.31530961882E+01 -0.13167253417E+01  0.37006232415E+01  0.10500000000E+00 0. -1.
         13    1    4    4    0    0 -0.27368983740E+01 -0.60711263350E+01 -0.27088024627E+01  0.71901198507E+01  0.10500000000E+00 0.  1.
    3000001    1    5    5    0    0  0.12295150035E+02  0.24009251115E+02  0.17208613030E+02  0.32011735597E+02  0.10000000000E+01 0. -1.
        -13    1    6    6    0    0  0.30604129071E+01  0.42835354162E+01  0.61645240765E+01  0.81072304096E+01  0.10500000000E+00 0.  1.
         13    1    6    6    0    0  0.83453246645E+01  0.11797786552E+02  0.17089980171E+02  0.22381033455E+02  0.10500000000E+00 0. -1.
</event>
<event>
11    0  0.3439373E-009  0.9118800E+02  0.7816531E-02  0.1126479E+00
         25   -1    0    0    0    0  0.00000000000E+00  0.00000000000E+00  0.99999998245E-14  0.12500000000E+03  0.12500000000E+03 0.  0.
    3000001    1    3    3    0    0 -0.81628796724E+01 -0.19680906126E+02  0.50824460186E+02  0.55118929812E+02  0.10000000000E+01 0.  1.
    1000022    2    1    0    0    0 -0.11663006764E+02 -0.24099884968E+02  0.55582546879E+02  0.62499998559E+02  0.10000006002E+02 0.  0.
    3000022    2    3    3    0    0 -0.35001270919E+01 -0.44189788428E+01  0.47580866936E+01  0.73810687471E+01  0.25004638167E+00 0.  0.
    1000022    2    1    0    0    0  0.11663006764E+02  0.24099884968E+02 -0.55582546879E+02  0.62500001441E+02  0.10000024012E+02 0.  0.
    3000022    2    5    5    0    0  0.78947736443E+01  0.22695053740E+02 -0.50623205409E+02  0.56037169288E+02  0.25000134557E+00 0.  0.
        -13    1    4    4    0    0 -0.22567082048E+01 -0.28218591703E+01  0.31209958058E+01  0.47756948100E+01  0.10500000000E+00 0.  1.
         13    1    4    4    0    0 -0.12434188871E+01 -0.15971196725E+01  0.16370908878E+01  0.26053739371E+01  0.10500000000E+00 0. -1.
    3000001    1    5    5    0    0  0.37682331199E+01  0.14048312281E+01 -0.49593414698E+01  0.64628321532E+01  0.10000000000E+01 0.  1.
        -13    1    6    6    0    0  0.41354419987E+01  0.11880526028E+02 -0.26659662606E+02  0.29478762092E+02  0.10500000000E+00 0.  1.
         13    1    6    6    0    0  0.37593316456E+01  0.10814527713E+02 -0.23963542803E+02  0.26558407195E+02  0.10500000000E+00 0. -1.
</event>
<event>
11    0  0.3439373E-009  0.9118800E+02  0.7816531E-02  0.1126479E+00
         25   -1    0    0    0    0  0.00000000000E+00  0.00000000000E+00  0.99999998245E-14  0.12500000000E+03  0.12500000000E+03 0.  0.
    3000001    1    3    3    0    0 -0.12162110711E+02  0.52949660406E+00  0.85566676024E+01  0.14913546327E+02  0.10000000000E+01 0. -1.
    1000022    2    1    0    0    0 -0.41441066120E+02 -0.94522954041E+01  0.44716239763E+02  0.62499999865E+02  0.10000001748E+02 0.  0.
    3000022    2    3    3    0    0 -0.29278955409E+02 -0.99817920081E+01  0.36159572161E+02  0.47586453537E+02  0.24999973678E+00 0.  0.
    1000022    2    1    0    0    0  0.41441066120E+02  0.94522954041E+01 -0.44716239763E+02  0.62500000135E+02  0.10000003440E+02 0.  0.
    3000022    2    5    5    0    0  0.29861443448E+02  0.22966040961E+01 -0.29095114565E+02  0.41756058085E+02  0.25000018830E+00 0.  0.
        -13    1    4    4    0    0 -0.10900838618E+02 -0.36637279721E+01  0.13493916358E+02  0.17729861503E+02  0.10500000000E+00 0. -1.
         13    1    4    4    0    0 -0.18378116791E+02 -0.63180640360E+01  0.22665655803E+02  0.29856592034E+02  0.10500000000E+00 0.  1.
    3000001    1    5    5    0    0  0.11579622672E+02  0.71556913080E+01 -0.15621125199E+02  0.20743942050E+02  0.10000000000E+01 0. -1.
        -13    1    6    6    0    0  0.19736856920E+02  0.14691852231E+01 -0.19261138490E+02  0.27617105337E+02  0.10500000000E+00 0. -1.
         13    1    6    6    0    0  0.10124586528E+02  0.82741887301E+00 -0.98339760753E+01  0.14138952748E+02  0.10500000000E+00 0.  1.
</event>
<event>
11    0  0.3439373E-009  0.9118800E+02  0.7816531E-02  0.1126479E+00
         25   -1    0    0    0    0  0.00000000000E+00  0.00000000000E+00  0.99999998245E-14  0.12500000000E+03  0.12500000000E+03 0.  0.
    3000001    1    3    3    0    0 -0.20538999908E+01  0.32699157519E-01  0.42099270868E+01  0.47898914897E+01  0.10000000000E+01 0. -1.
    1000022    2    1    0    0    0  0.46478959218E+01 -0.35466344586E+01  0.61417168345E+02  0.62500000203E+02  0.99999952654E+01 0.  0.
    3000022    2    3    3    0    0  0.67017959126E+01 -0.35793336161E+01  0.57207241258E+02  0.57710108713E+02  0.24999534428E+00 0.  0.
    1000022    2    1    0    0    0 -0.46478959218E+01  0.35466344586E+01 -0.61417168345E+02  0.62499999797E+02  0.99999927340E+01 0.  0.
    3000022    2    5    5    0    0 -0.35434110784E+01 -0.31092422530E+01 -0.27786252280E+02  0.28184418833E+02  0.24999943514E+00 0.  0.
        -13    1    4    4    0    0  0.24700463799E+01 -0.13248840254E+01  0.21562024506E+02  0.21743697307E+02  0.10500000000E+00 0. -1.
         13    1    4    4    0    0  0.42317495328E+01 -0.22544495907E+01  0.35645216752E+02  0.35966411405E+02  0.10500000000E+00 0.  1.
    3000001    1    5    5    0    0 -0.11044848434E+01  0.66558767116E+01 -0.33630916065E+02  0.34315580964E+02  0.10000000000E+01 0.  1.
        -13    1    6    6    0    0 -0.14957011417E+01 -0.13362360965E+01 -0.11452692323E+02  0.11627460396E+02  0.10500000000E+00 0. -1.
         13    1    6    6    0    0 -0.20477099367E+01 -0.17730061565E+01 -0.16333559957E+02  0.16556958437E+02  0.10500000000E+00 0.  1.
</event>
<event>
11    0  0.3439373E-009  0.9118800E+02  0.7816531E-02  0.1126479E+00
         25   -1    0    0    0    0  0.00000000000E+00  0.00000000000E+00  0.99999998245E-14  0.12500000000E+03  0.12500000000E+03 0.  0.
    3000001    1    3    3    0    0  0.21883599626E+02  0.77065007319E+01  0.22036124873E+02  0.32013635931E+02  0.10000000000E+01 0.  1.
    1000022    2    1    0    0    0  0.38045690378E+02  0.23478219045E+02  0.42515274558E+02  0.62499999219E+02  0.10000000284E+02 0.  0.
    3000022    2    3    3    0    0  0.16162090752E+02  0.15771718313E+02  0.20479149685E+02  0.30486363288E+02  0.24999725592E+00 0.  0.
    1000022    2    1    0    0    0 -0.38045690378E+02 -0.23478219045E+02 -0.42515274558E+02  0.62500000781E+02  0.10000010051E+02 0.  0.
    3000022    2    5    5    0    0 -0.19661768017E+02 -0.85784197839E+01 -0.14904455478E+02  0.26122398474E+02  0.25000271921E+00 0.  0.
        -13    1    4    4    0    0  0.98026096672E+01  0.96522871255E+01  0.12468473106E+02  0.18566950467E+02  0.10500000000E+00 0. -1.
         13    1    4    4    0    0  0.63594810852E+01  0.61194311877E+01  0.80106765789E+01  0.11919412821E+02  0.10500000000E+00 0.  1.
    3000001    1    5    5    0    0 -0.18383922361E+02 -0.14899799261E+02 -0.27610819080E+02  0.36377602308E+02  0.10000000000E+01 0.  1.
        -13    1    6    6    0    0 -0.56918380824E+01 -0.24393701248E+01 -0.43194125203E+01  0.75508871586E+01  0.10500000000E+00 0.  1.
         13    1    6    6    0    0 -0.13969929935E+02 -0.61390496590E+01 -0.10585042958E+02  0.18571511315E+02  0.10500000000E+00 0. -1.
</event>
<event>
11    0  0.3439373E-009  0.9118800E+02  0.7816531E-02  0.1126479E+00
         25   -1    0    0    0    0  0.00000000000E+00  0.00000000000E+00  0.99999998245E-14  0.12500000000E+03  0.12500000000E+03 0.  0.
    3000001    1    3    3    0    0  0.25748615230E+02 -0.12684917197E+01  0.53765249783E+02  0.59634741064E+02  0.10000000000E+01 0.  1.
    1000022    2    1    0    0    0  0.24824589121E+02 -0.12629656631E+01  0.56465872394E+02  0.62500000858E+02  0.10000002735E+02 0.  0.
    3000022    2    3    3    0    0 -0.92402610908E+00  0.55260566352E-02  0.27006226105E+01  0.28652597935E+01  0.24999282415E+00 0.  0.
    1000022    2    1    0    0    0 -0.24824589121E+02  0.12629656631E+01 -0.56465872394E+02  0.62499999142E+02  0.99999920152E+01 0.  0.
    3000022    2    5    5    0    0 -0.16875566628E+02 -0.40474485851E+00 -0.47248856700E+02  0.50174351278E+02  0.24999859482E+00 0.  0.
        -13    1    4    4    0    0 -0.37004642375E+00 -0.58002443966E-01  0.10396165194E+01  0.11100117778E+01  0.10500000000E+00 0.  1.
         13    1    4    4    0    0 -0.55397968533E+00  0.63528500601E-01  0.16610060911E+01  0.17552480157E+01  0.10500000000E+00 0. -1.
    3000001    1    5    5    0    0 -0.79490224928E+01  0.16677105216E+01 -0.92170156941E+01  0.12325647864E+02  0.10000000000E+01 0. -1.
        -13    1    6    6    0    0 -0.93579411495E+01 -0.28781137311E+00 -0.26263849613E+02  0.27882875021E+02  0.10500000000E+00 0. -1.
         13    1    6    6    0    0 -0.75176254789E+01 -0.11693348540E+00 -0.20985007087E+02  0.22291476257E+02  0.10500000000E+00 0.  1.
</event>
<event>
11    0  0.3439373E-009  0.9118800E+02  0.7816531E-02  0.1126479E+00
         25   -1    0    0    0    0  0.00000000000E+00  0.00000000000E+00  0.99999998245E-14  0.12500000000E+03  0.12500000000E+03 0.  0.
    3000001    1    3    3    0    0  0.28268781651E+02  0.91448969035E+01 -0.46580684186E+02  0.55258603807E+02  0.10000000000E+01 0.  1.
    1000022    2    1    0    0    0  0.31841664823E+02  0.67667715511E+01 -0.52407719711E+02  0.62499999756E+02  0.10000003410E+02 0.  0.
    3000022    2    3    3    0    0  0.35728831726E+01 -0.23781253525E+01 -0.58270355250E+01  0.72413959493E+01  0.24999585580E+00 0.  0.
    1000022    2    1    0    0    0 -0.31841664823E+02 -0.67667715511E+01  0.52407719711E+02  0.62500000244E+02  0.10000006460E+02 0.  0.
    3000022    2    5    5    0    0 -0.16895585093E+02 -0.82479110126E+01  0.32422312570E+02  0.37480096727E+02  0.24993306469E+00 0.  0.
        -13    1    4    4    0    0  0.20571693165E+01 -0.14450609672E+01 -0.33889615946E+01  0.42209279176E+01  0.10500000000E+00 0. -1.
         13    1    4    4    0    0  0.15157138561E+01 -0.93306438528E+00 -0.24380739304E+01  0.30204680317E+01  0.10500000000E+00 0.  1.
    3000001    1    5    5    0    0 -0.14946079730E+02  0.14811394615E+01  0.19985407141E+02  0.25019903517E+02  0.10000000000E+01 0.  1.
        -13    1    6    6    0    0 -0.54883896777E+01 -0.26508040120E+01  0.10600888005E+02  0.12228615402E+02  0.10500000000E+00 0. -1.
         13    1    6    6    0    0 -0.11407195415E+02 -0.55971070005E+01  0.21821424566E+02  0.25251481325E+02  0.10500000000E+00 0.  1.
</event>
<event>
11    0  0.3439373E-009  0.9118800E+02  0.7816531E-02  0.1126479E+00
         25   -1    0    0    0    0  0.00000000000E+00  0.00000000000E+00  0.99999998245E-14  0.12500000000E+03  0.12500000000E+03 0.  0.
    3000001    1    3    3    0    0 -0.18444300311E+01 -0.25889198444E+01 -0.34691005806E+01  0.48103104826E+01  0.10000000000E+01 0. -1.
    1000022    2    1    0    0    0 -0.22197142752E+02 -0.53960939504E+02 -0.20043812003E+02  0.62500005227E+02  0.10000005762E+02 0.  0.
    3000022    2    3    3    0    0 -0.20352712721E+02 -0.51372019660E+02 -0.16574711422E+02  0.57689694744E+02  0.25000388739E+00 0.  0.
    1000022    2    1    0    0    0  0.22197142752E+02  0.53960939504E+02  0.20043812003E+02  0.62499994773E+02  0.99999404279E+01 0.  0.
    3000022    2    5    5    0    0  0.17131111964E+02  0.29147752470E+02  0.10264650680E+02  0.35334006573E+02  0.24999150109E+00 0.  0.
        -13    1    4    4    0    0 -0.90154527320E+01 -0.22631753586E+02 -0.72573641914E+01  0.25419579429E+02  0.10500000000E+00 0. -1.
         13    1    4    4    0    0 -0.11337259989E+02 -0.28740266073E+02 -0.93173472306E+01  0.32270115315E+02  0.10500000000E+00 0.  1.
    3000001    1    5    5    0    0  0.50660307885E+01  0.24813187034E+02  0.97791613225E+01  0.27165988200E+02  0.10000000000E+01 0.  1.
        -13    1    6    6    0    0  0.66315522079E+01  0.11318859356E+02  0.40446233604E+01  0.13728221477E+02  0.10500000000E+00 0.  1.
         13    1    6    6    0    0  0.10499559756E+02  0.17828893114E+02  0.62200273197E+01  0.21605785096E+02  0.10500000000E+00 0. -1.
</event>
<event>
11    0  0.3439373E-009  0.9118800E+02  0.7816531E-02  0.1126479E+00
         25   -1    0    0    0    0  0.00000000000E+00  0.00000000000E+00  0.99999998245E-14  0.12500000000E+03  0.12500000000E+03 0.  0.
    3000001    1    3    3    0    0  0.18746733616E+02 -0.31123004413E+02  0.20409392722E+02  0.41684826211E+02  0.10000000000E+01 0.  1.
    1000022    2    1    0    0    0  0.28963576890E+02 -0.41512260646E+02  0.35271708229E+02  0.62499999884E+02  0.10000000695E+02 0.  0.
    3000022    2    3    3    0    0  0.10216843274E+02 -0.10389256234E+02  0.14862315506E+02  0.20815173673E+02  0.25000251428E+00 0.  0.
    1000022    2    1    0    0    0 -0.28963576890E+02  0.41512260646E+02 -0.35271708229E+02  0.62500000116E+02  0.10000002146E+02 0.  0.
    3000022    2    5    5    0    0 -0.10920792027E+02  0.10381076506E+02 -0.64701793920E+01  0.16399883252E+02  0.25000276333E+00 0.  0.
        -13    1    4    4    0    0  0.33152680637E+01 -0.33562405369E+01  0.48846761946E+01  0.67916448230E+01  0.10500000000E+00 0.  1.
         13    1    4    4    0    0  0.69015752101E+01 -0.70330156969E+01  0.99776393116E+01  0.14023528850E+02  0.10500000000E+00 0. -1.
    3000001    1    5    5    0    0 -0.18042784863E+02  0.31131184140E+02 -0.28801528837E+02  0.46100116864E+02  0.10000000000E+01 0. -1.
        -13    1    6    6    0    0 -0.57095122125E+01  0.54679685842E+01 -0.33285021741E+01  0.85782959768E+01  0.10500000000E+00 0. -1.
         13    1    6    6    0    0 -0.52112798146E+01  0.49131079221E+01 -0.31416772179E+01  0.78215872751E+01  0.10500000000E+00 0.  1.
</event>
<event>
11    0  0.3439373E-009  0.9118800E+02  0.7816531E-02  0.1126479E+00
         25   -1    0    0    0    0  0.00000000000E+00  0.00000000000E+00  0.99999998245E-14  0.12500000000E+03  0.12500000000E+03 0.  0.
    3000001    1    3    3    0    0  0.10097900603E+02 -0.16541754730E+02 -0.29726853735E+02  0.35500465900E+02  0.10000000000E+01 0. -1.
    1000022    2    1    0    0    0  0.18309589305E+02 -0.20945395797E+02 -0.55066318607E+02  0.62500000489E+02  0.99999975315E+01 0.  0.
    3000022    2    3    3    0    0  0.82116887026E+01 -0.44036410675E+01 -0.25339464872E+02  0.26999534589E+02  0.25000412424E+00 0.  0.
    1000022    2    1    0    0    0 -0.18309589305E+02  0.20945395797E+02  0.55066318607E+02  0.62499999511E+02  0.99999914159E+01 0.  0.
    3000022    2    5    5    0    0 -0.17188245971E+02  0.21160885265E+02  0.47368521362E+02  0.54653985937E+02  0.24999601202E+00 0.  0.
        -13    1    4    4    0    0  0.58378539866E+01 -0.31755403956E+01 -0.18108672044E+02  0.19289883985E+02  0.10500000000E+00 0. -1.
         13    1    4    4    0    0  0.23738347160E+01 -0.12281006720E+01 -0.72307928280E+01  0.77096506043E+01  0.10500000000E+00 0.  1.
    3000001    1    5    5    0    0 -0.11213433342E+01 -0.21548946719E+00  0.76977972449E+01  0.78460135742E+01  0.10000000000E+01 0.  1.
        -13    1    6    6    0    0 -0.12075506946E+02  0.14885743225E+02  0.33216902112E+02  0.38350708342E+02  0.10500000000E+00 0.  1.
         13    1    6    6    0    0 -0.51127390254E+01  0.62751420396E+01  0.14151619249E+02  0.16303277595E+02  0.10500000000E+00 0. -1.
</event>
<event>
11    0  0.3439373E-009  0.9118800E+02  0.7816531E-02  0.1126479E+00
         25   -1    0    0    0    0  0.00000000000E+00  0.00000000000E+00  0.99999998245E-14  0.12500000000E+03  0.12500000000E+03 0.  0.
    3000001    1    3    3    0    0  0.42004192330E+02  0.11892707017E+02 -0.20188568330E+02  0.48107867804E+02  0.10000000000E+01 0. -1.
    1000022    2    1    0    0    0  0.52731555180E+02  0.11782413188E+02 -0.29779319349E+02  0.62500000155E+02  0.99999993094E+01 0.  0.
    3000022    2    3    3    0    0  0.10727362850E+02 -0.11029382943E+00 -0.95907510188E+01  0.14392132350E+02  0.24998004957E+00 0.  0.
    1000022    2    1    0    0    0 -0.52731555180E+02 -0.11782413188E+02  0.29779319349E+02  0.62499999845E+02  0.99999973775E+01 0.  0.
    3000022    2    5    5    0    0 -0.15644411205E+02 -0.76843419639E+01  0.70869682609E+01  0.18817128672E+02  0.24999796885E+00 0.  0.
        -13    1    4    4    0    0  0.52756931277E+01  0.47138881157E-02 -0.47610516032E+01  0.71071511569E+01  0.10500000000E+00 0. -1.
         13    1    4    4    0    0  0.54516697227E+01 -0.11500771755E+00 -0.48296994156E+01  0.72849811932E+01  0.10500000000E+00 0.  1.
    3000001    1    5    5    0    0 -0.37087143976E+02 -0.40980712237E+01  0.22692351088E+02  0.43682871173E+02  0.10000000000E+01 0. -1.
        -13    1    6    6    0    0 -0.38142848989E+01 -0.18515473761E+01  0.17139912455E+01  0.45744713318E+01  0.10500000000E+00 0.  1.
         13    1    6    6    0    0 -0.11830126306E+02 -0.58327945879E+01  0.53729770154E+01  0.14242657341E+02  0.10500000000E+00 0. -1.
</event>
<event>
11    0  0.3439373E-009  0.9118800E+02  0.7816531E-02  0.1126479E+00
         25   -1    0    0    0    0  0.00000000000E+00  0.00000000000E+00  0.99999998245E-14  0.12500000000E+03  0.12500000000E+03 0.  0.
    3000001    1    3    3    0    0 -0.12673978585E+02  0.28412348983E+02  0.49749847677E+02  0.58685080317E+02  0.10000000000E+01 0.  1.
    1000022    2    1    0    0    0 -0.12027565678E+02  0.31711095594E+02  0.51536337389E+02  0.62500001825E+02  0.10000011838E+02 0.  0.
    3000022    2    3    3    0    0  0.64641290671E+00  0.32987466111E+01  0.17864897113E+01  0.38149215079E+01  0.25000354474E+00 0.  0.
    1000022    2    1    0    0    0  0.12027565678E+02 -0.31711095594E+02 -0.51536337389E+02  0.62499998175E+02  0.99999890268E+01 0.  0.
    3000022    2    5    5    0    0  0.12374703460E+02 -0.30877793431E+02 -0.51285492038E+02  0.61129662258E+02  0.25000267792E+00 0.  0.
        -13    1    4    4    0    0  0.21292804301E+00  0.10519781280E+01  0.51530022161E+00  0.11952220094E+01  0.10500000000E+00 0. -1.
         13    1    4    4    0    0  0.43348486370E+00  0.22467684831E+01  0.12711894897E+01  0.26196994985E+01  0.10500000000E+00 0.  1.
    3000001    1    5    5    0    0 -0.34713778174E+00 -0.83330216335E+00 -0.25084535029E+00  0.13703359167E+01  0.10000000000E+01 0.  1.
        -13    1    6    6    0    0  0.87938425277E+01 -0.21988692490E+02 -0.36581431871E+02  0.43578050055E+02  0.10500000000E+00 0.  1.
         13    1    6    6    0    0  0.35808609318E+01 -0.88891009408E+01 -0.14704060167E+02  0.17551612204E+02  0.10500000000E+00 0. -1.
</event>
<event>
11    0  0.3439373E-009  0.9118800E+02  0.7816531E-02  0.1126479E+00
         25   -1    0    0    0    0  0.00000000000E+00  0.00000000000E+00  0.99999998245E-14  0.12500000000E+03  0.12500000000E+03 0.  0.
    3000001    1    3    3    0    0 -0.20536055954E+02  0.33248299085E+02 -0.17313012836E+02  0.42754174061E+02  0.10000000000E+01 0. -1.
    1000022    2    1    0    0    0 -0.34804653411E+02  0.46350274273E+02 -0.21131453322E+02  0.62499999426E+02  0.99999892210E+01 0.  0.
    3000022    2    3    3    0    0 -0.14268597457E+02  0.13101975188E+02 -0.38184404863E+01  0.19745825364E+02  0.25000870057E+00 0.  0.
    1000022    2    1    0    0    0  0.34804653411E+02 -0.46350274273E+02  0.21131453322E+02  0.62500000574E+02  0.99999963995E+01 0.  0.
    3000022    2    5    5    0    0  0.19315028882E+02 -0.20290772025E+02  0.14101792655E+02  0.31364132921E+02  0.25001530892E+00 0.  0.
        -13    1    4    4    0    0 -0.34077935907E+01  0.31541439704E+01 -0.92089218803E+00  0.47350553074E+01  0.10500000000E+00 0.  1.
         13    1    4    4    0    0 -0.10860803866E+02  0.99478312176E+01 -0.28975482983E+01  0.15010770057E+02  0.10500000000E+00 0. -1.
    3000001    1    5    5    0    0  0.15489624529E+02 -0.26059502248E+02  0.70296606669E+01  0.31135867654E+02  0.10000000000E+01 0. -1.
        -13    1    6    6    0    0  0.12225291848E+02 -0.12793652916E+02  0.89619792435E+01  0.19835912197E+02  0.10500000000E+00 0.  1.
         13    1    6    6    0    0  0.70897370348E+01 -0.74971191089E+01  0.51398134118E+01  0.11528220724E+02  0.10500000000E+00 0. -1.
</event>
<event>
11    0  0.3439373E-009  0.9118800E+02  0.7816531E-02  0.1126479E+00
         25   -1    0    0    0    0  0.00000000000E+00  0.00000000000E+00  0.99999998245E-14  0.12500000000E+03  0.12500000000E+03 0.  0.
    3000001    1    3    3    0    0  0.22776644611E+02  0.45989087889E+01  0.31444853372E+01  0.23469411792E+02  0.10000000000E+01 0.  1.
    1000022    2    1    0    0    0  0.55698990642E+02  0.21420405911E+02  0.15653710119E+02  0.62500000362E+02  0.10000002844E+02 0.  0.
    3000022    2    3    3    0    0  0.32922346030E+02  0.16821497122E+02  0.12509224782E+02  0.39030588571E+02  0.25001190972E+00 0.  0.
    1000022    2    1    0    0    0 -0.55698990642E+02 -0.21420405911E+02 -0.15653710119E+02  0.62499999638E+02  0.99999983144E+01 0.  0.
    3000022    2    5    5    0    0 -0.39287501374E+02 -0.11176064906E+02 -0.77406479006E+01  0.41573937985E+02  0.24999733064E+00 0.  0.
        -13    1    4    4    0    0  0.95239222059E+01  0.48896542169E+01  0.35829896822E+01  0.11289935899E+02  0.10500000000E+00 0. -1.
         13    1    4    4    0    0  0.23398423825E+02  0.11931842905E+02  0.89262350999E+01  0.27740652672E+02  0.10500000000E+00 0.  1.
    3000001    1    5    5    0    0 -0.16411489268E+02 -0.10244341005E+02 -0.79130622187E+01  0.20926061653E+02  0.10000000000E+01 0.  1.
        -13    1    6    6    0    0 -0.20157985062E+02 -0.58047216005E+01 -0.39768413748E+01  0.21351005759E+02  0.10500000000E+00 0.  1.
         13    1    6    6    0    0 -0.19129516312E+02 -0.53713433059E+01 -0.37638065259E+01  0.20222932226E+02  0.10500000000E+00 0. -1.
</event>
<event>
11    0  0.3439373E-009  0.9118800E+02  0.7816531E-02  0.1126479E+00
         25   -1    0    0    0    0  0.00000000000E+00  0.00000000000E+00  0.99999998245E-14  0.12500000000E+03  0.12500000000E+03 0.  0.
    3000001    1    3    3    0    0 -0.21249537667E+02 -0.14075234389E+02 -0.13675551215E+02  0.28942629031E+02  0.10000000000E+01 0. -1.
    1000022    2    1    0    0    0 -0.40559327549E+02 -0.38760514954E+02 -0.25667363099E+02  0.62499999514E+02  0.99999920047E+01 0.  0.
    3000022    2    3    3    0    0 -0.19309789882E+02 -0.24685280565E+02 -0.11991811883E+02  0.33557370483E+02  0.24999930681E+00 0.  0.
    1000022    2    1    0    0    0  0.40559327549E+02  0.38760514954E+02  0.25667363099E+02  0.62500000486E+02  0.99999980739E+01 0.  0.
    3000022    2    5    5    0    0  0.23183529577E+02  0.21275334418E+02  0.90076818347E+01  0.32730975083E+02  0.24999929960E+00 0.  0.
        -13    1    4    4    0    0 -0.11216492394E+02 -0.14403689826E+02 -0.69307127866E+01  0.19527462379E+02  0.10500000000E+00 0. -1.
         13    1    4    4    0    0 -0.80932974876E+01 -0.10281590739E+02 -0.50610990968E+01  0.14029908104E+02  0.10500000000E+00 0.  1.
    3000001    1    5    5    0    0  0.17375797973E+02  0.17485180537E+02  0.16659681264E+02  0.29769025402E+02  0.10000000000E+01 0. -1.
        -13    1    6    6    0    0  0.11235988153E+02  0.10403074653E+02  0.43813135999E+01  0.15927282438E+02  0.10500000000E+00 0. -1.
         13    1    6    6    0    0  0.11947541423E+02  0.10872259765E+02  0.46263682348E+01  0.16803692645E+02  0.10500000000E+00 0.  1.
</event>
<event>
11    0  0.3439373E-009  0.9118800E+02  0.7816531E-02  0.1126479E+00
         25   -1    0    0    0    0  0.00000000000E+00  0.00000000000E+00  0.99999998245E-14  0.12500000000E+03  0.12500000000E+03 0.  0.
    3000001    1    3    3    0    0  0.10257991449E+02 -0.43412920393E+01 -0.15000212301E+02  0.18710413524E+02  0.10000000000E+01 0. -1.
    1000022    2    1    0    0    0  0.38810542739E+02 -0.25331684833E+02 -0.40722199681E+02  0.62500000171E+02  0.99999995165E+01 0.  0.
    3000022    2    3    3    0    0  0.28552551290E+02 -0.20990392794E+02 -0.25721987380E+02  0.43789586647E+02  0.24997836987E+00 0.  0.
    1000022    2    1    0    0    0 -0.38810542739E+02  0.25331684833E+02  0.40722199681E+02  0.62499999829E+02  0.99999973823E+01 0.  0.
    3000022    2    5    5    0    0 -0.17025569192E+01  0.40203406671E+00 -0.32995979158E+00  0.17976943025E+01  0.24999977405E+00 0.  0.
        -13    1    4    4    0    0  0.70435466490E+01 -0.51843028314E+01 -0.63189014851E+01  0.10790184717E+02  0.10500000000E+00 0.  1.
         13    1    4    4    0    0  0.21509004641E+02 -0.15806089962E+02 -0.19403085894E+02  0.32999401930E+02  0.10500000000E+00 0. -1.
    3000001    1    5    5    0    0 -0.37107985820E+02  0.24929650766E+02  0.41052159473E+02  0.60702305527E+02  0.10000000000E+01 0.  1.
        -13    1    6    6    0    0 -0.72912355308E+00  0.18170741456E+00 -0.76183136117E-01  0.76254023526E+00  0.10500000000E+00 0. -1.
         13    1    6    6    0    0 -0.97343336614E+00  0.22032665215E+00 -0.25377665546E+00  0.10351540672E+01  0.10500000000E+00 0.  1.
</event>
<event>
11    0  0.3439373E-009  0.9118800E+02  0.7816531E-02  0.1126479E+00
         25   -1    0    0    0    0  0.00000000000E+00  0.00000000000E+00  0.99999998245E-14  0.12500000000E+03  0.12500000000E+03 0.  0.
    3000001    1    3    3    0    0  0.36612425508E+02  0.69354563341E+01 -0.28827637973E+02  0.47123274156E+02  0.10000000000E+01 0. -1.
    1000022    2    1    0    0    0  0.47860973080E+02  0.14425494900E+02 -0.36159125008E+02  0.62500000414E+02  0.10000004152E+02 0.  0.
    3000022    2    3    3    0    0  0.11248547572E+02  0.74900385663E+01 -0.73314870358E+01  0.15376726257E+02  0.25001605379E+00 0.  0.
    1000022    2    1    0    0    0 -0.47860973080E+02 -0.14425494900E+02  0.36159125008E+02  0.62499999586E+02  0.99999989824E+01 0.  0.
    3000022    2    5    5    0    0 -0.21526749856E+02 -0.26317726994E+01  0.19505684301E+02  0.29169528789E+02  0.25000568248E+00 0.  0.
        -13    1    4    4    0    0  0.53492987615E+01  0.36252152563E+01 -0.34573858788E+01  0.73295105573E+01  0.10500000000E+00 0. -1.
         13    1    4    4    0    0  0.58992488107E+01  0.38648233100E+01 -0.38741011570E+01  0.80472157000E+01  0.10500000000E+00 0.  1.
    3000001    1    5    5    0    0 -0.26334223224E+02 -0.11793722201E+02  0.16653440708E+02  0.33330470797E+02  0.10000000000E+01 0. -1.
        -13    1    6    6    0    0 -0.96148863467E+01 -0.11291439077E+01  0.86426783914E+01  0.12977978279E+02  0.10500000000E+00 0. -1.
         13    1    6    6    0    0 -0.11911863510E+02 -0.15026287917E+01  0.10863005909E+02  0.16191550511E+02  0.10500000000E+00 0.  1.
</event>
<event>
11    0  0.3439373E-009  0.9118800E+02  0.7816531E-02  0.1126479E+00
         25   -1    0    0    0    0  0.00000000000E+00  0.00000000000E+00  0.99999998245E-14  0.12500000000E+03  0.12500000000E+03 0.  0.
    3000001    1    3    3    0    0 -0.41149737769E+02  0.28838477219E+02  0.26373866500E+01  0.50328068660E+02  0.10000000000E+01 0.  1.
    1000022    2    1    0    0    0 -0.51671385648E+02  0.32936811840E+02  0.71752306189E+01  0.62500001413E+02  0.10000028657E+02 0.  0.
    3000022    2    3    3    0    0 -0.10521647880E+02  0.40983346212E+01  0.45378439690E+01  0.12171932752E+02  0.24999654056E+00 0.  0.
    1000022    2    1    0    0    0  0.51671385648E+02 -0.32936811840E+02 -0.71752306189E+01  0.62499998587E+02  0.10000010999E+02 0.  0.
    3000022    2    5    5    0    0  0.46323416085E+02 -0.28145285696E+02 -0.33612147218E+01  0.54308160057E+02  0.24999941413E+00 0.  0.
        -13    1    4    4    0    0 -0.60453905502E+01  0.22921261030E+01  0.25663240772E+01  0.69568407518E+01  0.10500000000E+00 0.  1.
         13    1    4    4    0    0 -0.44762573295E+01  0.18062085182E+01  0.19715198918E+01  0.52150920006E+01  0.10500000000E+00 0. -1.
    3000001    1    5    5    0    0  0.53479695630E+01 -0.47915261443E+01 -0.38140158971E+01  0.81918385300E+01  0.10000000000E+01 0.  1.
        -13    1    6    6    0    0  0.32719268970E+02 -0.19884565063E+02 -0.23303366880E+01  0.38358675469E+02  0.10500000000E+00 0. -1.
         13    1    6    6    0    0  0.13604147116E+02 -0.82607206326E+01 -0.10308780338E+01  0.15949484588E+02  0.10500000000E+00 0.  1.
</event>
<event>
11    0  0.3439373E-009  0.9118800E+02  0.7816531E-02  0.1126479E+00
         25   -1    0    0    0    0  0.00000000000E+00  0.00000000000E+00  0.99999998245E-14  0.12500000000E+03  0.12500000000E+03 0.  0.
    3000001    1    3    3    0    0  0.17573406209E+02 -0.32723705822E+01  0.23085736516E+02  0.29214452682E+02  0.10000000000E+01 0. -1.
    1000022    2    1    0    0    0  0.44905339291E+02 -0.52744818982E+01  0.41975473882E+02  0.62500000524E+02  0.10000000091E+02 0.  0.
    3000022    2    3    3    0    0  0.27331933082E+02 -0.20021113160E+01  0.18889737366E+02  0.33285547843E+02  0.25000341667E+00 0.  0.
    1000022    2    1    0    0    0 -0.44905339291E+02  0.52744818982E+01 -0.41975473882E+02  0.62499999476E+02  0.99999935357E+01 0.  0.
    3000022    2    5    5    0    0 -0.31553726386E+02  0.50362427328E+01 -0.23422708167E+02  0.39619277443E+02  0.24999505184E+00 0.  0.
        -13    1    4    4    0    0  0.17804510190E+02 -0.13087988740E+01  0.12373231526E+02  0.21721450711E+02  0.10500000000E+00 0.  1.
         13    1    4    4    0    0  0.95274228924E+01 -0.69331244200E+00  0.65165058391E+01  0.11564097131E+02  0.10500000000E+00 0. -1.
    3000001    1    5    5    0    0 -0.13351612905E+02  0.23823916534E+00 -0.18552765715E+02  0.22880722033E+02  0.10000000000E+01 0.  1.
        -13    1    6    6    0    0 -0.22175340760E+02  0.35232418971E+01 -0.16511146273E+02  0.27870915800E+02  0.10500000000E+00 0. -1.
         13    1    6    6    0    0 -0.93783856261E+01  0.15130008357E+01 -0.69115618936E+01  0.11748361643E+02  0.10500000000E+00 0.  1.
</event>
<event>
11    0  0.3439373E-009  0.9118800E+02  0.7816531E-02  0.1126479E+00
         25   -1    0    0    0    0  0.00000000000E+00  0.00000000000E+00  0.99999998245E-14  0.12500000000E+03  0.12500000000E+03 0.  0.
    3000001    1    3    3    0    0 -0.53170580255E+02  0.18892919046E+02  0.62983933780E+01  0.56786642389E+02  0.10000000000E+01 0. -1.
    1000022    2    1    0    0    0 -0.56684473966E+02  0.22837245166E+02  0.84605154717E+01  0.62499997972E+02  0.10000003445E+02 0.  0.
    3000022    2    3    3    0    0 -0.35138937107E+01  0.39443261203E+01  0.21621220937E+01  0.57133555825E+01  0.25000502070E+00 0.  0.
    1000022    2    1    0    0    0  0.56684473966E+02 -0.22837245166E+02 -0.84605154717E+01  0.62500002028E+02  0.10000028797E+02 0.  0.
    3000022    2    5    5    0    0  0.51495643658E+02 -0.23124492776E+02 -0.63635592824E+01  0.56807577552E+02  0.24999753542E+00 0.  0.
        -13    1    4    4    0    0 -0.14818902972E+01  0.17086678268E+01  0.86325760756E+00  0.24231762817E+01  0.10500000000E+00 0. -1.
         13    1    4    4    0    0 -0.20320034136E+01  0.22356582935E+01  0.12988644862E+01  0.32901793008E+01  0.10500000000E+00 0.  1.
    3000001    1    5    5    0    0  0.51888303077E+01  0.28724760968E+00 -0.20969561893E+01  0.56924244757E+01  0.10000000000E+01 0. -1.
        -13    1    6    6    0    0  0.21816410690E+02 -0.97375665326E+01 -0.26568102762E+01  0.24038420148E+02  0.10500000000E+00 0.  1.
         13    1    6    6    0    0  0.29679232968E+02 -0.13386926243E+02 -0.37067490062E+01  0.32769157404E+02  0.10500000000E+00 0. -1.
</event>
<event>
11    0  0.3439373E-009  0.9118800E+02  0.7816531E-02  0.1126479E+00
         25   -1    0    0    0    0  0.00000000000E+00  0.00000000000E+00  0.99999998245E-14  0.12500000000E+03  0.12500000000E+03 0.  0.
    3000001    1    3    3    0    0 -0.80192333840E+01 -0.50231082012E+00 -0.20835732834E+01  0.83607235246E+01  0.10000000000E+01 0.  1.
    1000022    2    1    0    0    0 -0.58882171191E+02  0.17915170114E+02 -0.42645915865E+01  0.62500001165E+02  0.99999999930E+01 0.  0.
    3000022    2    3    3    0    0 -0.50862937807E+02  0.18417480934E+02 -0.21810183030E+01  0.54139277640E+02  0.24999257234E+00 0.  0.
    1000022    2    1    0    0    0  0.58882171191E+02 -0.17915170114E+02  0.42645915865E+01  0.62499998835E+02  0.99999854328E+01 0.  0.
    3000022    2    5    5    0    0  0.42722538065E+01 -0.56836113049E+00  0.28537424012E+01  0.51750884206E+01  0.25001501319E+00 0.  0.
        -13    1    4    4    0    0 -0.28225250734E+02  0.10192743241E+02 -0.12711060466E+01  0.30036370110E+02  0.10500000000E+00 0. -1.
         13    1    4    4    0    0 -0.22637687072E+02  0.82247376932E+01 -0.90991225644E+00  0.24102907531E+02  0.10500000000E+00 0.  1.
    3000001    1    5    5    0    0  0.54609917384E+02 -0.17346808983E+02  0.14108491853E+01  0.57324910415E+02  0.10000000000E+01 0.  1.
        -13    1    6    6    0    0  0.29500536492E+01 -0.34414385540E+00  0.19753557820E+01  0.35685160770E+01  0.10500000000E+00 0.  1.
         13    1    6    6    0    0  0.13222001573E+01 -0.22421727509E+00  0.87838661915E+00  0.16065723436E+01  0.10500000000E+00 0. -1.
</event>
<event>
11    0  0.3439373E-009  0.9118800E+02  0.7816531E-02  0.1126479E+00
         25   -1    0    0    0    0  0.00000000000E+00  0.00000000000E+00  0.99999998245E-14  0.12500000000E+03  0.12500000000E+03 0.  0.
    3000001    1    3    3    0    0  0.22480007811E+02 -0.64533189764E+01  0.10199035463E+02  0.25534611831E+02  0.10000000000E+01 0.  1.
    1000022    2    1    0    0    0  0.58889638166E+02 -0.89204415061E+01  0.16083726824E+02  0.62500000520E+02  0.10000001822E+02 0.  0.
    3000022    2    3    3    0    0  0.36409630356E+02 -0.24671225297E+01  0.58846913602E+01  0.36965388689E+02  0.24998462849E+00 0.  0.
    1000022    2    1    0    0    0 -0.58889638166E+02  0.89204415061E+01 -0.16083726824E+02  0.62499999480E+02  0.99999953213E+01 0.  0.
    3000022    2    5    5    0    0 -0.21671568803E+02  0.12268981401E+01 -0.10361084122E+02  0.24053622067E+02  0.24999390347E+00 0.  0.
        -13    1    4    4    0    0  0.25106691453E+02 -0.16901368343E+01  0.41055236818E+01  0.25496448143E+02  0.10500000000E+00 0.  1.
         13    1    4    4    0    0  0.11302938903E+02 -0.77698569536E+00  0.17791676785E+01  0.11468940546E+02  0.10500000000E+00 0. -1.
    3000001    1    5    5    0    0 -0.37218069363E+02  0.76935433660E+01 -0.57226427020E+01  0.38446377413E+02  0.10000000000E+01 0.  1.
        -13    1    6    6    0    0 -0.89136782054E+01  0.53387784388E+00 -0.41992746669E+01  0.98683138088E+01  0.10500000000E+00 0.  1.
         13    1    6    6    0    0 -0.12757890598E+02  0.69302029624E+00 -0.61618094546E+01  0.14185308258E+02  0.10500000000E+00 0. -1.
</event>
<event>
11    0  0.3439373E-009  0.9118800E+02  0.7816531E-02  0.1126479E+00
         25   -1    0    0    0    0  0.00000000000E+00  0.00000000000E+00  0.99999998245E-14  0.12500000000E+03  0.12500000000E+03 0.  0.
    3000001    1    3    3    0    0 -0.12880230506E+02  0.24451644135E+02 -0.17623790318E+02  0.32793005717E+02  0.10000000000E+01 0. -1.
    1000022    2    1    0    0    0 -0.21061397295E+02  0.41387553824E+02 -0.40616970470E+02  0.62499997445E+02  0.99999661395E+01 0.  0.
    3000022    2    3    3    0    0 -0.81811667891E+01  0.16935909690E+02 -0.22993180152E+02  0.29706991728E+02  0.24999389024E+00 0.  0.
    1000022    2    1    0    0    0  0.21061397295E+02 -0.41387553824E+02  0.40616970470E+02  0.62500002555E+02  0.99999980822E+01 0.  0.
    3000022    2    5    5    0    0  0.61915807416E+01 -0.17610816512E+02  0.10857698799E+02  0.21596959490E+02  0.25001143497E+00 0.  0.
        -13    1    4    4    0    0 -0.60952111068E+01  0.12662775165E+02 -0.17147654460E+02  0.22170939353E+02  0.10500000000E+00 0.  1.
         13    1    4    4    0    0 -0.20859556823E+01  0.42731345251E+01 -0.58455256915E+01  0.75360523743E+01  0.10500000000E+00 0. -1.
    3000001    1    5    5    0    0  0.14869816554E+02 -0.23776737312E+02  0.29759271672E+02  0.40903043065E+02  0.10000000000E+01 0.  1.
        -13    1    6    6    0    0  0.44945895568E+01 -0.12776608911E+02  0.79208362172E+01  0.15690562193E+02  0.10500000000E+00 0. -1.
         13    1    6    6    0    0  0.16969911848E+01 -0.48342076014E+01  0.29368625814E+01  0.59063972975E+01  0.10500000000E+00 0.  1.
</event>
<event>
11    0  0.3439373E-009  0.9118800E+02  0.7816531E-02  0.1126479E+00
         25   -1    0    0    0    0  0.00000000000E+00  0.00000000000E+00  0.99999998245E-14  0.12500000000E+03  0.12500000000E+03 0.  0.
    3000001    1    3    3    0    0  0.33927042678E+02  0.90749698426E+01  0.20628605309E+02  0.40742344797E+02  0.10000000000E+01 0. -1.
    1000022    2    1    0    0    0  0.47422046382E+02  0.13230386908E+02  0.37180053642E+02  0.62499999952E+02  0.99999992233E+01 0.  0.
    3000022    2    3    3    0    0  0.13495003704E+02  0.41554170649E+01  0.16551448332E+02  0.21757655155E+02  0.25000003802E+00 0.  0.
    1000022    2    1    0    0    0 -0.47422046382E+02 -0.13230386908E+02 -0.37180053642E+02  0.62500000048E+02  0.99999998230E+01 0.  0.
    3000022    2    5    5    0    0 -0.18746234183E+02 -0.76440737289E+01 -0.20643110469E+02  0.28914592656E+02  0.24999884644E+00 0.  0.
        -13    1    4    4    0    0  0.83844740110E+01  0.25246305085E+01  0.10304355898E+02  0.13522719369E+02  0.10500000000E+00 0.  1.
         13    1    4    4    0    0  0.51105296927E+01  0.16307865564E+01  0.62470924341E+01  0.82349357868E+01  0.10500000000E+00 0. -1.
    3000001    1    5    5    0    0 -0.28675812198E+02 -0.55863131786E+01 -0.16536943173E+02  0.33585407392E+02  0.10000000000E+01 0.  1.
        -13    1    6    6    0    0 -0.45858073496E+01 -0.18607549975E+01 -0.50169148471E+01  0.70478718626E+01  0.10500000000E+00 0.  1.
         13    1    6    6    0    0 -0.14160426834E+02 -0.57833187315E+01 -0.15626195622E+02  0.21866720794E+02  0.10500000000E+00 0. -1.
</event>
<event>
11    0  0.3439373E-009  0.9118800E+02  0.7816531E-02  0.1126479E+00
         25   -1    0    0    0    0  0.00000000000E+00  0.00000000000E+00  0.99999998245E-14  0.12500000000E+03  0.12500000000E+03 0.  0.
    3000001    1    3    3    0    0  0.20104798526E+02 -0.90109547611E+01  0.19876912821E+02  0.29689929147E+02  0.10000000000E+01 0.  1.
    1000022    2    1    0    0    0  0.48563653629E+02 -0.17844276481E+02  0.33606595767E+02  0.62499999570E+02  0.10000000513E+02 0.  0.
    3000022    2    3    3    0    0  0.28458855103E+02 -0.88333217199E+01  0.13729682947E+02  0.32810070423E+02  0.25004192201E+00 0.  0.
    1000022    2    1    0    0    0 -0.48563653629E+02  0.17844276481E+02 -0.33606595767E+02  0.62500000430E+02  0.10000005892E+02 0.  0.
    3000022    2    5    5    0    0 -0.96212928003E+01 -0.27285867620E+00 -0.77248918133E+01  0.12344236527E+02  0.24998979140E+00 0.  0.
        -13    1    4    4    0    0  0.18519610441E+02 -0.58035629308E+01  0.89203334102E+01  0.21359791355E+02  0.10500000000E+00 0. -1.
         13    1    4    4    0    0  0.99392446627E+01 -0.30297587891E+01  0.48093495363E+01  0.11450279069E+02  0.10500000000E+00 0.  1.
    3000001    1    5    5    0    0 -0.38942360828E+02  0.18117135157E+02 -0.25881703954E+02  0.50155763903E+02  0.10000000000E+01 0.  1.
        -13    1    6    6    0    0 -0.35385345797E+01 -0.84655491979E-01 -0.29146058949E+01  0.45863216248E+01  0.10500000000E+00 0. -1.
         13    1    6    6    0    0 -0.60827582207E+01 -0.18820318422E+00 -0.48102859185E+01  0.77579149020E+01  0.10500000000E+00 0.  1.
</event>
<event>
11    0  0.3439373E-009  0.9118800E+02  0.7816531E-02  0.1126479E+00
         25   -1    0    0    0    0  0.00000000000E+00  0.00000000000E+00  0.99999998245E-14  0.12500000000E+03  0.12500000000E+03 0.  0.
    3000001    1    3    3    0    0  0.53565551960E+01 -0.73731048111E+01 -0.73476992198E+01  0.11749214525E+02  0.10000000000E+01 0.  1.
    1000022    2    1    0    0    0  0.28674592517E+02 -0.50005089014E+02 -0.21988829238E+02  0.62499999096E+02  0.10000004622E+02 0.  0.
    3000022    2    3    3    0    0  0.23318037321E+02 -0.42631984203E+02 -0.14641130018E+02  0.50750784572E+02  0.25000964180E+00 0.  0.
    1000022    2    1    0    0    0 -0.28674592517E+02  0.50005089014E+02  0.21988829238E+02  0.62500000904E+02  0.10000015919E+02 0.  0.
    3000022    2    5    5    0    0 -0.11688136628E+02  0.26975564181E+02  0.15091707776E+02  0.33047174517E+02  0.24999850430E+00 0.  0.
        -13    1    4    4    0    0  0.10209502770E+02 -0.18528638036E+02 -0.63761613802E+01  0.22095493505E+02  0.10500000000E+00 0. -1.
         13    1    4    4    0    0  0.13108534551E+02 -0.24103346168E+02 -0.82649686380E+01  0.28655291067E+02  0.10500000000E+00 0.  1.
    3000001    1    5    5    0    0 -0.16986455889E+02  0.23029524833E+02  0.68971214624E+01  0.29452826387E+02  0.10000000000E+01 0.  1.
        -13    1    6    6    0    0 -0.86228561489E+01  0.19967973944E+02  0.11145682749E+02  0.24439944774E+02  0.10500000000E+00 0. -1.
         13    1    6    6    0    0 -0.30652804792E+01  0.70075902371E+01  0.39460250262E+01  0.86072297434E+01  0.10500000000E+00 0.  1.
</event>
<event>
11    0  0.3439373E-009  0.9118800E+02  0.7816531E-02  0.1126479E+00
         25   -1    0    0    0    0  0.00000000000E+00  0.00000000000E+00  0.99999998245E-14  0.12500000000E+03  0.12500000000E+03 0.  0.
    3000001    1    3    3    0    0 -0.13209332850E+02  0.20472026257E+02  0.28357485182E+02  0.37399696513E+02  0.10000000000E+01 0.  1.
    1000022    2    1    0    0    0 -0.23903247860E+02  0.39175702335E+02  0.41232865488E+02  0.62499999990E+02  0.99999945344E+01 0.  0.
    3000022    2    3    3    0    0 -0.10693915010E+02  0.18703676078E+02  0.12875380305E+02  0.25100303477E+02  0.24999906307E+00 0.  0.
    1000022    2    1    0    0    0  0.23903247860E+02 -0.39175702335E+02 -0.41232865488E+02  0.62500000010E+02  0.99999946605E+01 0.  0.
    3000022    2    5    5    0    0  0.23671030519E+02 -0.36085255286E+02 -0.35394483349E+02  0.55814830315E+02  0.24999326123E+00 0.  0.
        -13    1    4    4    0    0 -0.65290450962E+01  0.11321668521E+02  0.77643443392E+01  0.15202127351E+02  0.10500000000E+00 0. -1.
         13    1    4    4    0    0 -0.41648699138E+01  0.73820075575E+01  0.51110359662E+01  0.98981761263E+01  0.10500000000E+00 0.  1.
    3000001    1    5    5    0    0  0.23221734087E+00 -0.30904470493E+01 -0.58383821386E+01  0.66851696952E+01  0.10000000000E+01 0. -1.
        -13    1    6    6    0    0  0.69301385657E+01 -0.10556576566E+02 -0.10413370027E+02  0.16368183456E+02  0.10500000000E+00 0.  1.
         13    1    6    6    0    0  0.16740891953E+02 -0.25528678720E+02 -0.24981113322E+02  0.39446646859E+02  0.10500000000E+00 0. -1.
</event>
<event>
11    0  0.3439373E-009  0.9118800E+02  0.7816531E-02  0.1126479E+00
         25   -1    0    0    0    0  0.00000000000E+00  0.00000000000E+00  0.99999998245E-14  0.12500000000E+03  0.12500000000E+03 0.  0.
    3000001    1    3    3    0    0  0.63769351524E+01  0.94754767653E+01  0.86273474948E+01  0.14348556954E+02  0.10000000000E+01 0.  1.
    1000022    2    1    0    0    0  0.42109449518E+02  0.33102008493E+02  0.30615385715E+02  0.62500004558E+02  0.10000001115E+02 0.  0.
    3000022    2    3    3    0    0  0.35732514366E+02  0.23626531727E+02  0.21988038220E+02  0.48151447604E+02  0.24999444223E+00 0.  0.
    1000022    2    1    0    0    0 -0.42109449518E+02 -0.33102008493E+02 -0.30615385715E+02  0.62499995442E+02  0.99999441413E+01 0.  0.
    3000022    2    5    5    0    0  0.22584974528E+00 -0.17907823533E+01 -0.99334438010E+00  0.20753665321E+01  0.25000728176E+00 0.  0.
        -13    1    4    4    0    0  0.10122494630E+02  0.67212770545E+01  0.61994303646E+01  0.13641276503E+02  0.10500000000E+00 0. -1.
         13    1    4    4    0    0  0.25610019736E+02  0.16905254673E+02  0.15788607856E+02  0.34510171101E+02  0.10500000000E+00 0.  1.
    3000001    1    5    5    0    0 -0.42335299263E+02 -0.31311226139E+02 -0.29622041335E+02  0.60424628910E+02  0.10000000000E+01 0.  1.
        -13    1    6    6    0    0  0.15170484096E+00 -0.73069824113E+00 -0.43980524027E+00  0.87257545675E+00  0.10500000000E+00 0. -1.
         13    1    6    6    0    0  0.74144904315E-01 -0.10600841122E+01 -0.55353913983E+00  0.12027910754E+01  0.10500000000E+00 0.  1.
</event>
<event>
11    0  0.3439373E-009  0.9118800E+02  0.7816531E-02  0.1126479E+00
         25   -1    0    0    0    0  0.00000000000E+00  0.00000000000E+00  0.99999998245E-14  0.12500000000E+03  0.12500000000E+03 0.  0.
    3000001    1    3    3    0    0 -0.17136756705E+02  0.49892123469E+02  0.19865687312E+01  0.52799989299E+02  0.10000000000E+01 0.  1.
    1000022    2    1    0    0    0 -0.20511049438E+02  0.57830598103E+02  0.64162933854E+01  0.62499999630E+02  0.99999953439E+01 0.  0.
    3000022    2    3    3    0    0 -0.33742927333E+01  0.79384746338E+01  0.44297246542E+01  0.97000103307E+01  0.25001788605E+00 0.  0.
    1000022    2    1    0    0    0  0.20511049438E+02 -0.57830598103E+02 -0.64162933854E+01  0.62500000370E+02  0.99999999730E+01 0.  0.
    3000022    2    5    5    0    0 -0.77133637653E+00 -0.54127116559E+01 -0.16535831435E+01  0.57174486981E+01  0.24995024911E+00 0.  0.
        -13    1    4    4    0    0 -0.22543267168E+01  0.52756630016E+01  0.30048975079E+01  0.64772712685E+01  0.10500000000E+00 0.  1.
         13    1    4    4    0    0 -0.11199660165E+01  0.26628116322E+01  0.14248271463E+01  0.32227390623E+01  0.10500000000E+00 0. -1.
    3000001    1    5    5    0    0  0.21282385815E+02 -0.52417886447E+02 -0.47627102418E+01  0.56782551672E+02  0.10000000000E+01 0.  1.
        -13    1    6    6    0    0 -0.47597531094E+00 -0.30195935624E+01 -0.97467980939E+00  0.32102217228E+01  0.10500000000E+00 0.  1.
         13    1    6    6    0    0 -0.29536106560E+00 -0.23931180935E+01 -0.67890333415E+00  0.25072269753E+01  0.10500000000E+00 0. -1.
</event>
<event>
11    0  0.3439373E-009  0.9118800E+02  0.7816531E-02  0.1126479E+00
         25   -1    0    0    0    0  0.00000000000E+00  0.00000000000E+00  0.99999998245E-14  0.12500000000E+03  0.12500000000E+03 0.  0.
    3000001    1    3    3    0    0 -0.10006142952E+02  0.16594280809E+02  0.38127161459E+01  0.19774474879E+02  0.10000000000E+01 0.  1.
    1000022    2    1    0    0    0 -0.21070303805E+02  0.57861602938E+02  0.37851404516E+01  0.62500003440E+02  0.10000017241E+02 0.  0.
    3000022    2    3    3    0    0 -0.11064160853E+02  0.41267322129E+02 -0.27575694257E-01  0.42725528561E+02  0.24999866420E+00 0.  0.
    1000022    2    1    0    0    0  0.21070303805E+02 -0.57861602938E+02 -0.37851404516E+01  0.62499996560E+02  0.99999742392E+01 0.  0.
    3000022    2    5    5    0    0  0.48734710771E+01 -0.91876176917E+01  0.27946389328E+01  0.10771979713E+02  0.25000197425E+00 0.  0.
        -13    1    4    4    0    0 -0.43350367732E+01  0.15955754939E+02 -0.38146291189E-01  0.16534543830E+02  0.10500000000E+00 0. -1.
         13    1    4    4    0    0 -0.67291240797E+01  0.25311567189E+02  0.10570596932E-01  0.26190984731E+02  0.10500000000E+00 0.  1.
    3000001    1    5    5    0    0  0.16196832728E+02 -0.48673985246E+02 -0.65797793844E+01  0.51728016847E+02  0.10000000000E+01 0.  1.
        -13    1    6    6    0    0  0.20365460989E+01 -0.37041769038E+01  0.11424687916E+01  0.43800349870E+01  0.10500000000E+00 0.  1.
         13    1    6    6    0    0  0.28369249781E+01 -0.54834407879E+01  0.16521701413E+01  0.63919447261E+01  0.10500000000E+00 0. -1.
</event>
<event>
11    0  0.3439373E-009  0.9118800E+02  0.7816531E-02  0.1126479E+00
         25   -1    0    0    0    0  0.00000000000E+00  0.00000000000E+00  0.99999998245E-14  0.12500000000E+03  0.12500000000E+03 0.  0.
    3000001    1    3    3    0    0  0.36336656818E+02 -0.44381087914E+02 -0.50206615140E+01  0.57586809559E+02  0.10000000000E+01 0.  1.
    1000022    2    1    0    0    0  0.37730566703E+02 -0.48187535901E+02 -0.77856025961E+01  0.62499999065E+02  0.99999997690E+01 0.  0.
    3000022    2    3    3    0    0  0.13939098849E+01 -0.38064479867E+01 -0.27649410820E+01  0.49131895056E+01  0.25000177633E+00 0.  0.
    1000022    2    1    0    0    0 -0.37730566703E+02  0.48187535901E+02  0.77856025961E+01  0.62500000935E+02  0.10000011457E+02 0.  0.
    3000022    2    5    5    0    0 -0.17764714315E+02  0.30040285290E+02  0.25163626015E+01  0.34991404889E+02  0.25004064669E+00 0.  0.
        -13    1    4    4    0    0  0.73919960696E+00 -0.19290377688E+01 -0.13357615576E+01  0.24622929783E+01  0.10500000000E+00 0.  1.
         13    1    4    4    0    0  0.65471027793E+00 -0.18774102179E+01 -0.14291795244E+01  0.24508965273E+01  0.10500000000E+00 0. -1.
    3000001    1    5    5    0    0 -0.19965852388E+02  0.18147250611E+02  0.52692399945E+01  0.27508596046E+02  0.10000000000E+01 0. -1.
        -13    1    6    6    0    0 -0.61340262835E+01  0.10388608788E+02  0.92526609118E+00  0.12100273276E+02  0.10500000000E+00 0. -1.
         13    1    6    6    0    0 -0.11630688031E+02  0.19651676502E+02  0.15910965104E+01  0.22891131613E+02  0.10500000000E+00 0.  1.
</event>
<event>
11    0  0.3439373E-009  0.9118800E+02  0.7816531E-02  0.1126479E+00
         25   -1    0    0    0    0  0.00000000000E+00  0.00000000000E+00  0.99999998245E-14  0.12500000000E+03  0.12500000000E+03 0.  0.
    3000001    1    3    3    0    0 -0.10444106882E+02  0.15569170771E+01  0.11177788392E+02  0.15409293062E+02  0.10000000000E+01 0. -1.
    1000022    2    1    0    0    0 -0.52235889699E+02  0.89004368259E+01  0.31598166307E+02  0.62500000433E+02  0.99999995899E+01 0.  0.
    3000022    2    3    3    0    0 -0.41791782817E+02  0.73435197488E+01  0.20420377915E+02  0.47090707370E+02  0.24998627103E+00 0.  0.
    1000022    2    1    0    0    0  0.52235889699E+02 -0.89004368259E+01 -0.31598166307E+02  0.62499999567E+02  0.99999941833E+01 0.  0.
    3000022    2    5    5    0    0  0.31924170224E+02 -0.62342048620E+00 -0.17587826938E+02  0.36454567017E+02  0.25000481622E+00 0.  0.
        -13    1    4    4    0    0 -0.26603370449E+02  0.46607164353E+01  0.13060949007E+02  0.30001016831E+02  0.10500000000E+00 0.  1.
         13    1    4    4    0    0 -0.15188412368E+02  0.26828033135E+01  0.73594289084E+01  0.17089690540E+02  0.10500000000E+00 0. -1.
    3000001    1    5    5    0    0  0.20311719475E+02 -0.82770163397E+01 -0.14010339369E+02  0.26045432550E+02  0.10000000000E+01 0.  1.
        -13    1    6    6    0    0  0.96136183668E+01 -0.16452895103E+00 -0.53418766593E+01  0.10999790867E+02  0.10500000000E+00 0.  1.
         13    1    6    6    0    0  0.22310551857E+02 -0.45889153517E+00 -0.12245950279E+02  0.25454776150E+02  0.10500000000E+00 0. -1.
</event>
<event>
11    0  0.3439373E-009  0.9118800E+02  0.7816531E-02  0.1126479E+00
         25   -1    0    0    0    0  0.00000000000E+00  0.00000000000E+00  0.99999998245E-14  0.12500000000E+03  0.12500000000E+03 0.  0.
    3000001    1    3    3    0    0 -0.37421593544E+02 -0.35173677653E+02 -0.35558739841E+01  0.51489877673E+02  0.10000000000E+01 0. -1.
    1000022    2    1    0    0    0 -0.46859204998E+02 -0.39470765360E+02 -0.72473161679E+01  0.62499999789E+02  0.99999985426E+01 0.  0.
    3000022    2    3    3    0    0 -0.94376114537E+01 -0.42970877069E+01 -0.36914421838E+01  0.11010122116E+02  0.25014174562E+00 0.  0.
    1000022    2    1    0    0    0  0.46859204998E+02  0.39470765360E+02  0.72473161679E+01  0.62500000211E+02  0.10000001181E+02 0.  0.
    3000022    2    5    5    0    0  0.19361301413E+02  0.18117585653E+02 -0.15961583746E+01  0.26565336902E+02  0.25000171079E+00 0.  0.
        -13    1    4    4    0    0 -0.33540120025E+01 -0.15900604573E+01 -0.13306793721E+01  0.39445432387E+01  0.10500000000E+00 0. -1.
         13    1    4    4    0    0 -0.60835994513E+01 -0.27070272496E+01 -0.23607628117E+01  0.70655788770E+01  0.10500000000E+00 0.  1.
    3000001    1    5    5    0    0  0.27497903585E+02  0.21353179707E+02  0.88434745426E+01  0.35934663309E+02  0.10000000000E+01 0.  1.
        -13    1    6    6    0    0  0.13856602334E+02  0.13005547944E+02 -0.11731737605E+01  0.19040406173E+02  0.10500000000E+00 0.  1.
         13    1    6    6    0    0  0.55046990786E+01  0.51120377088E+01 -0.42298461414E+00  0.75249307283E+01  0.10500000000E+00 0. -1.
</event>
<event>
11    0  0.3439373E-009  0.9118800E+02  0.7816531E-02  0.1126479E+00
         25   -1    0    0    0    0  0.00000000000E+00  0.00000000000E+00  0.99999998245E-14  0.12500000000E+03  0.12500000000E+03 0.  0.
    3000001    1    3    3    0    0  0.15077141055E+02  0.34437994653E+02  0.51686449289E+01  0.37960644732E+02  0.10000000000E+01 0.  1.
    1000022    2    1    0    0    0  0.20977875564E+02  0.55925422240E+02  0.15444273686E+02  0.62499985551E+02  0.99999244156E+01 0.  0.
    3000022    2    3    3    0    0  0.59007345094E+01  0.21487427587E+02  0.10275628757E+02  0.24539340819E+02  0.24997881835E+00 0.  0.
    1000022    2    1    0    0    0 -0.20977875564E+02 -0.55925422240E+02 -0.15444273686E+02  0.62500014449E+02  0.10000105024E+02 0.  0.
    3000022    2    5    5    0    0 -0.17760965696E+02 -0.47810426080E+02 -0.16602356402E+02  0.53637575317E+02  0.25000686580E+00 0.  0.
        -13    1    4    4    0    0  0.19166033198E+01  0.68589091294E+01  0.33276333361E+01  0.78614357055E+01  0.10500000000E+00 0. -1.
         13    1    4    4    0    0  0.39841311895E+01  0.14628518458E+02  0.69479954212E+01  0.16677905113E+02  0.10500000000E+00 0.  1.
    3000001    1    5    5    0    0 -0.32169098680E+01 -0.81149961603E+01  0.11580827161E+01  0.88624391314E+01  0.10000000000E+01 0. -1.
        -13    1    6    6    0    0 -0.89527429385E+01 -0.24294425864E+02 -0.84275411862E+01  0.27228757034E+02  0.10500000000E+00 0. -1.
         13    1    6    6    0    0 -0.88082227576E+01 -0.23516000216E+02 -0.81748152161E+01  0.26408818283E+02  0.10500000000E+00 0.  1.
</event>
<event>
11    0  0.3439373E-009  0.9118800E+02  0.7816531E-02  0.1126479E+00
         25   -1    0    0    0    0  0.00000000000E+00  0.00000000000E+00  0.99999998245E-14  0.12500000000E+03  0.12500000000E+03 0.  0.
    3000001    1    3    3    0    0  0.14241704551E+02 -0.23665270398E+00 -0.38681281504E+02  0.41232556213E+02  0.10000000000E+01 0.  1.
    1000022    2    1    0    0    0  0.14593403186E+02 -0.63306753574E+00 -0.59940654025E+02  0.62500002202E+02  0.10000003962E+02 0.  0.
    3000022    2    3    3    0    0  0.35169863483E+00 -0.39641483176E+00 -0.21259372521E+02  0.21267445990E+02  0.25000455905E+00 0.  0.
    1000022    2    1    0    0    0 -0.14593403186E+02  0.63306753574E+00  0.59940654025E+02  0.62499997798E+02  0.99999764346E+01 0.  0.
    3000022    2    5    5    0    0 -0.72649498177E+01  0.51770601036E+01  0.27111007084E+02  0.28542085384E+02  0.24997155202E+00 0.  0.
        -13    1    4    4    0    0  0.23076789700E+00 -0.31794547373E+00 -0.15322799465E+02  0.15328194662E+02  0.10500000000E+00 0. -1.
         13    1    4    4    0    0  0.12093073784E+00 -0.78469358034E-01 -0.59365730562E+01  0.59392513279E+01  0.10500000000E+00 0.  1.
    3000001    1    5    5    0    0 -0.73284533679E+01 -0.45439925678E+01  0.32829646941E+02  0.33957912414E+02  0.10000000000E+01 0. -1.
        -13    1    6    6    0    0 -0.52646366766E+01  0.37923460887E+01  0.19765906561E+02  0.20803854820E+02  0.10500000000E+00 0.  1.
         13    1    6    6    0    0 -0.20003131411E+01  0.13847140148E+01  0.73451005230E+01  0.77382305638E+01  0.10500000000E+00 0. -1.
</event>
<event>
11    0  0.3439373E-009  0.9118800E+02  0.7816531E-02  0.1126479E+00
         25   -1    0    0    0    0  0.00000000000E+00  0.00000000000E+00  0.99999998245E-14  0.12500000000E+03  0.12500000000E+03 0.  0.
    3000001    1    3    3    0    0  0.64020339903E+01 -0.67745842763E+01  0.90003381157E+01  0.12995657641E+02  0.10000000000E+01 0.  1.
    1000022    2    1    0    0    0  0.22824951778E+02 -0.46672837055E+02  0.33270374141E+02  0.62500000411E+02  0.10000005674E+02 0.  0.
    3000022    2    3    3    0    0  0.16422917787E+02 -0.39898252779E+02  0.24270036025E+02  0.49504342770E+02  0.25000190442E+00 0.  0.
    1000022    2    1    0    0    0 -0.22824951778E+02  0.46672837055E+02 -0.33270374141E+02  0.62499999589E+02  0.10000000537E+02 0.  0.
    3000022    2    5    5    0    0 -0.73566558981E+01  0.82783813465E+01 -0.10418301084E+02  0.15207086277E+02  0.24998365101E+00 0.  0.
        -13    1    4    4    0    0  0.10355324214E+02 -0.25309911508E+02  0.15394742051E+02  0.31382056464E+02  0.10500000000E+00 0. -1.
         13    1    4    4    0    0  0.60675935728E+01 -0.14588341271E+02  0.88752939737E+01  0.18122286305E+02  0.10500000000E+00 0.  1.
    3000001    1    5    5    0    0 -0.15468295880E+02  0.38394455709E+02 -0.22852073056E+02  0.47292913312E+02  0.10000000000E+01 0.  1.
        -13    1    6    6    0    0 -0.46447758643E+01  0.51474280199E+01 -0.64817969177E+01  0.94918214444E+01  0.10500000000E+00 0. -1.
         13    1    6    6    0    0 -0.27118800338E+01  0.31309533266E+01 -0.39365041666E+01  0.57152648324E+01  0.10500000000E+00 0.  1.
</event>
<event>
11    0  0.3439373E-009  0.9118800E+02  0.7816531E-02  0.1126479E+00
         25   -1    0    0    0    0  0.00000000000E+00  0.00000000000E+00  0.99999998245E-14  0.12500000000E+03  0.12500000000E+03 0.  0.
    3000001    1    3    3    0    0  0.31491249786E+02  0.12214001687E+02  0.10961138084E+02  0.35525022145E+02  0.10000000000E+01 0. -1.
    1000022    2    1    0    0    0  0.52107304597E+02  0.19153672467E+02  0.26911254228E+02  0.62500000299E+02  0.10000003592E+02 0.  0.
    3000022    2    3    3    0    0  0.20616054811E+02  0.69396707800E+01  0.15950116144E+02  0.26974978153E+02  0.24998972604E+00 0.  0.
    1000022    2    1    0    0    0 -0.52107304597E+02 -0.19153672467E+02 -0.26911254228E+02  0.62499999701E+02  0.99999998594E+01 0.  0.
    3000022    2    5    5    0    0 -0.35115704069E+01 -0.29757724235E+01 -0.49483530908E+01  0.67627692564E+01  0.25000293161E+00 0.  0.
        -13    1    4    4    0    0  0.52231340996E+01  0.17661253278E+01  0.40772118787E+01  0.68582075063E+01  0.10500000000E+00 0. -1.
         13    1    4    4    0    0  0.15392920711E+02  0.51735454522E+01  0.11872904266E+02  0.20116770647E+02  0.10500000000E+00 0.  1.
    3000001    1    5    5    0    0 -0.48595734190E+02 -0.16177900044E+02 -0.21962901138E+02  0.55737230445E+02  0.10000000000E+01 0.  1.
        -13    1    6    6    0    0 -0.87569833356E+00 -0.72536552921E+00 -0.11949489795E+01  0.16528553433E+01  0.10500000000E+00 0. -1.
         13    1    6    6    0    0 -0.26358720734E+01 -0.22504068943E+01 -0.37534041113E+01  0.51099139131E+01  0.10500000000E+00 0.  1.
</event>
<event>
11    0  0.3439373E-009  0.9118800E+02  0.7816531E-02  0.1126479E+00
         25   -1    0    0    0    0  0.00000000000E+00  0.00000000000E+00  0.99999998245E-14  0.12500000000E+03  0.12500000000E+03 0.  0.
    3000001    1    3    3    0    0  0.37926789046E+01 -0.24527525148E+02 -0.71116702374E+01  0.25837177802E+02  0.10000000000E+01 0. -1.
    1000022    2    1    0    0    0  0.10565629339E+02 -0.54126737761E+02 -0.27657076389E+02  0.62499998783E+02  0.99999854755E+01 0.  0.
    3000022    2    3    3    0    0  0.67729504342E+01 -0.29599212613E+02 -0.20545406152E+02  0.36662820982E+02  0.24996702911E+00 0.  0.
    1000022    2    1    0    0    0 -0.10565629339E+02  0.54126737761E+02  0.27657076389E+02  0.62500001217E+02  0.10000000682E+02 0.  0.
    3000022    2    5    5    0    0 -0.63711768991E+01  0.17883446151E+02  0.13746616410E+02  0.23440168717E+02  0.25001091565E+00 0.  0.
        -13    1    4    4    0    0  0.50672293455E+01 -0.22130890594E+02 -0.15328511236E+02  0.27393930230E+02  0.10500000000E+00 0.  1.
         13    1    4    4    0    0  0.17057210887E+01 -0.74683220185E+01 -0.52168949156E+01  0.92688907516E+01  0.10500000000E+00 0. -1.
    3000001    1    5    5    0    0 -0.41944524397E+01  0.36243291611E+02  0.13910459979E+02  0.39059832499E+02  0.10000000000E+01 0.  1.
        -13    1    6    6    0    0 -0.32703732888E+01  0.93251853233E+01  0.72132187335E+01  0.12235030538E+02  0.10500000000E+00 0.  1.
         13    1    6    6    0    0 -0.31008036102E+01  0.85582608276E+01  0.65333976768E+01  0.11205138180E+02  0.10500000000E+00 0. -1.
</event>
<event>
11    0  0.3439373E-009  0.9118800E+02  0.7816531E-02  0.1126479E+00
         25   -1    0    0    0    0  0.00000000000E+00  0.00000000000E+00  0.99999998245E-14  0.12500000000E+03  0.12500000000E+03 0.  0.
    3000001    1    3    3    0    0  0.17555563658E+02  0.33590714781E+02  0.42187774100E+02  0.56721620378E+02  0.10000000000E+01 0. -1.
    1000022    2    1    0    0    0  0.21785666084E+02  0.36775003967E+02  0.44488582249E+02  0.62500000998E+02  0.10000000538E+02 0.  0.
    3000022    2    3    3    0    0  0.42301024253E+01  0.31842891862E+01  0.23008081499E+01  0.57783806203E+01  0.25000060033E+00 0.  0.
    1000022    2    1    0    0    0 -0.21785666084E+02 -0.36775003967E+02 -0.44488582249E+02  0.62499999002E+02  0.99999880566E+01 0.  0.
    3000022    2    5    5    0    0 -0.58091467344E+01 -0.62232141966E+01 -0.43033012279E+01  0.95423004159E+01  0.25003010061E+00 0.  0.
        -13    1    4    4    0    0  0.20350671333E+01  0.16150902416E+01  0.11140227632E+01  0.28287959351E+01  0.10500000000E+00 0.  1.
         13    1    4    4    0    0  0.21950352919E+01  0.15691989446E+01  0.11867853868E+01  0.29495846852E+01  0.10500000000E+00 0. -1.
    3000001    1    5    5    0    0 -0.15976519349E+02 -0.30551789771E+02 -0.40185281022E+02  0.52957698586E+02  0.10000000000E+01 0. -1.
        -13    1    6    6    0    0 -0.20982197413E+01 -0.22930318599E+01 -0.16277093305E+01  0.35101259034E+01  0.10500000000E+00 0.  1.
         13    1    6    6    0    0 -0.37109269932E+01 -0.39301823366E+01 -0.26755918973E+01  0.60321745125E+01  0.10500000000E+00 0. -1.
</event>
<event>
11    0  0.3439373E-009  0.9118800E+02  0.7816531E-02  0.1126479E+00
         25   -1    0    0    0    0  0.00000000000E+00  0.00000000000E+00  0.99999998245E-14  0.12500000000E+03  0.12500000000E+03 0.  0.
    3000001    1    3    3    0    0  0.78513908660E+00  0.20284073329E+02 -0.14173179336E+02  0.24777794226E+02  0.10000000000E+01 0.  1.
    1000022    2    1    0    0    0 -0.89042287253E+01  0.46870794254E+02 -0.39116407458E+02  0.62499998698E+02  0.99999930775E+01 0.  0.
    3000022    2    3    3    0    0 -0.96893678119E+01  0.26586720925E+02 -0.24943228122E+02  0.37722204472E+02  0.25000582601E+00 0.  0.
    1000022    2    1    0    0    0  0.89042287253E+01 -0.46870794254E+02  0.39116407458E+02  0.62500001302E+02  0.10000009356E+02 0.  0.
    3000022    2    5    5    0    0  0.10082066065E+02 -0.41461754142E+02  0.37037447361E+02  0.56502744361E+02  0.25000120713E+00 0.  0.
        -13    1    4    4    0    0 -0.25619506518E+01  0.70581272460E+01 -0.66626612050E+01  0.10039065230E+02  0.10500000000E+00 0.  1.
         13    1    4    4    0    0 -0.71274171601E+01  0.19528593679E+02 -0.18280566917E+02  0.27683139242E+02  0.10500000000E+00 0. -1.
    3000001    1    5    5    0    0 -0.11778373396E+01 -0.54090401121E+01  0.20789600967E+01  0.59972569410E+01  0.10000000000E+01 0. -1.
        -13    1    6    6    0    0  0.46114232361E+01 -0.19149712623E+02  0.17029746365E+02  0.26038433211E+02  0.10500000000E+00 0. -1.
         13    1    6    6    0    0  0.54706428288E+01 -0.22312041519E+02  0.20007700996E+02  0.30464311151E+02  0.10500000000E+00 0.  1.
</event>
<event>
11    0  0.3439373E-009  0.9118800E+02  0.7816531E-02  0.1126479E+00
         25   -1    0    0    0    0  0.00000000000E+00  0.00000000000E+00  0.99999998245E-14  0.12500000000E+03  0.12500000000E+03 0.  0.
    3000001    1    3    3    0    0 -0.36142950204E+01  0.94215168480E+01 -0.37242262503E+01  0.10802683434E+02  0.10000000000E+01 0.  1.
    1000022    2    1    0    0    0 -0.19828362732E+02  0.58417277534E+02 -0.71265779494E+00  0.62500000672E+02  0.99999959872E+01 0.  0.
    3000022    2    3    3    0    0 -0.16214067712E+02  0.48995760686E+02  0.30115684554E+01  0.51697317238E+02  0.25001616278E+00 0.  0.
    1000022    2    1    0    0    0  0.19828362732E+02 -0.58417277534E+02  0.71265779494E+00  0.62499999328E+02  0.99999875845E+01 0.  0.
    3000022    2    5    5    0    0  0.11959219192E+02 -0.23193549307E+02  0.32859342175E+01  0.26302538066E+02  0.24998374590E+00 0.  0.
        -13    1    4    4    0    0 -0.96598467239E+01  0.29290450107E+02  0.18547421475E+01  0.30898126151E+02  0.10500000000E+00 0.  1.
         13    1    4    4    0    0 -0.65542209876E+01  0.19705310580E+02  0.11568263079E+01  0.20799191088E+02  0.10500000000E+00 0. -1.
    3000001    1    5    5    0    0  0.78691435400E+01 -0.35223728227E+02 -0.25732764225E+01  0.36197461262E+02  0.10000000000E+01 0.  1.
        -13    1    6    6    0    0  0.31037449483E+01 -0.60898319790E+01  0.86442668045E+00  0.68903951064E+01  0.10500000000E+00 0. -1.
         13    1    6    6    0    0  0.88554742436E+01 -0.17103717328E+02  0.24215075370E+01  0.19412142960E+02  0.10500000000E+00 0.  1.
</event>
<event>
11    0  0.3439373E-009  0.9118800E+02  0.7816531E-02  0.1126479E+00
         25   -1    0    0    0    0  0.00000000000E+00  0.00000000000E+00  0.99999998245E-14  0.12500000000E+03  0.12500000000E+03 0.  0.
    3000001    1    3    3    0    0 -0.36532054233E+02  0.31959703856E+02 -0.29594764584E+02  0.56858277742E+02  0.10000000000E+01 0. -1.
    1000022    2    1    0    0    0 -0.38700989648E+02  0.33320002328E+02 -0.34615904347E+02  0.62500000328E+02  0.10000002619E+02 0.  0.
    3000022    2    3    3    0    0 -0.21689354150E+01  0.13602984721E+01 -0.50211397636E+01  0.56417225862E+01  0.24999289226E+00 0.  0.
    1000022    2    1    0    0    0  0.38700989648E+02 -0.33320002328E+02  0.34615904347E+02  0.62499999672E+02  0.99999985142E+01 0.  0.
    3000022    2    5    5    0    0  0.24055789255E+02 -0.26609244873E+02  0.24779548519E+02  0.43598410951E+02  0.25000656388E+00 0.  0.
        -13    1    4    4    0    0 -0.56136408558E+00  0.39347844305E+00 -0.13440037838E+01  0.15123908531E+01  0.10500000000E+00 0.  1.
         13    1    4    4    0    0 -0.16075713295E+01  0.96682002904E+00 -0.36771359798E+01  0.41293317331E+01  0.10500000000E+00 0. -1.
    3000001    1    5    5    0    0  0.14645200393E+02 -0.67107574555E+01  0.98363558278E+01  0.18901588720E+02  0.10000000000E+01 0. -1.
        -13    1    6    6    0    0  0.15971247250E+02 -0.17586641637E+02  0.16399534068E+02  0.28867394157E+02  0.10500000000E+00 0.  1.
         13    1    6    6    0    0  0.80845420056E+01 -0.90226032357E+01  0.83800144511E+01  0.14731016794E+02  0.10500000000E+00 0. -1.
</event>
<event>
11    0  0.3439373E-009  0.9118800E+02  0.7816531E-02  0.1126479E+00
         25   -1    0    0    0    0  0.00000000000E+00  0.00000000000E+00  0.99999998245E-14  0.12500000000E+03  0.12500000000E+03 0.  0.
    3000001    1    3    3    0    0  0.55214879029E+02  0.26725469877E+02  0.17114170656E+01  0.61374771321E+02  0.10000000000E+01 0. -1.
    1000022    2    1    0    0    0  0.55893438176E+02  0.26024507060E+02  0.22132597926E+01  0.62499999922E+02  0.10000003620E+02 0.  0.
    3000022    2    3    3    0    0  0.67855914737E+00 -0.70096281638E+00  0.50184272701E+00  0.11252286008E+01  0.25000379003E+00 0.  0.
    1000022    2    1    0    0    0 -0.55893438176E+02 -0.26024507060E+02 -0.22132597926E+01  0.62500000078E+02  0.10000004599E+02 0.  0.
    3000022    2    5    5    0    0 -0.32449702589E+02 -0.17364586248E+02 -0.57094978640E+01  0.37244769978E+02  0.24994235866E+00 0.  0.
        -13    1    4    4    0    0  0.16028580457E+00 -0.21380397871E+00  0.12054759398E+00  0.31138465420E+00  0.10500000000E+00 0.  1.
         13    1    4    4    0    0  0.51827334280E+00 -0.48715883767E+00  0.38129513303E+00  0.81384394662E+00  0.10500000000E+00 0. -1.
    3000001    1    5    5    0    0 -0.23443735588E+02 -0.86599208126E+01  0.34962380714E+01  0.25255230101E+02  0.10000000000E+01 0. -1.
        -13    1    6    6    0    0 -0.98842156249E+01 -0.52364776578E+01 -0.17403011618E+01  0.11320692996E+02  0.10500000000E+00 0.  1.
         13    1    6    6    0    0 -0.22565486964E+02 -0.12128108590E+02 -0.39691967022E+01  0.25924076981E+02  0.10500000000E+00 0. -1.
</event>
<event>
11    0  0.3439373E-009  0.9118800E+02  0.7816531E-02  0.1126479E+00
         25   -1    0    0    0    0  0.00000000000E+00  0.00000000000E+00  0.99999998245E-14  0.12500000000E+03  0.12500000000E+03 0.  0.
    3000001    1    3    3    0    0 -0.74351746883E+01  0.20313084158E+01  0.13383150893E+00  0.77734128540E+01  0.10000000000E+01 0. -1.
    1000022    2    1    0    0    0 -0.54686837622E+02  0.15730446387E+02 -0.23835956837E+02  0.62499999508E+02  0.99999973798E+01 0.  0.
    3000022    2    3    3    0    0 -0.47251662933E+02  0.13699137971E+02 -0.23969788345E+02  0.54726586654E+02  0.25000470625E+00 0.  0.
    1000022    2    1    0    0    0  0.54686837622E+02 -0.15730446387E+02  0.23835956837E+02  0.62500000492E+02  0.10000003531E+02 0.  0.
    3000022    2    5    5    0    0  0.53572424135E+02 -0.15420621759E+02  0.24421448862E+02  0.60862713214E+02  0.24998417908E+00 0.  0.
        -13    1    4    4    0    0 -0.12794786370E+02  0.37433221630E+01 -0.64772062615E+01  0.14821749055E+02  0.10500000000E+00 0.  1.
         13    1    4    4    0    0 -0.34456876563E+02  0.99558158082E+01 -0.17492582084E+02  0.39904837599E+02  0.10500000000E+00 0. -1.
    3000001    1    5    5    0    0  0.11144134869E+01 -0.30982462806E+00 -0.58549202580E+00  0.16372872785E+01  0.10000000000E+01 0. -1.
        -13    1    6    6    0    0  0.22444069422E+02 -0.65011738253E+01  0.10292575885E+02  0.25533304853E+02  0.10500000000E+00 0.  1.
         13    1    6    6    0    0  0.31128354712E+02 -0.89194479336E+01  0.14128872977E+02  0.35329408361E+02  0.10500000000E+00 0. -1.
</event>
<event>
11    0  0.3439373E-009  0.9118800E+02  0.7816531E-02  0.1126479E+00
         25   -1    0    0    0    0  0.00000000000E+00  0.00000000000E+00  0.99999998245E-14  0.12500000000E+03  0.12500000000E+03 0.  0.
    3000001    1    3    3    0    0  0.25070215936E+02 -0.15804974102E+02  0.41790993877E+00  0.29656155890E+02  0.10000000000E+01 0.  1.
    1000022    2    1    0    0    0  0.56864645162E+02 -0.23907948308E+02 -0.10351491696E+01  0.62499995538E+02  0.10000002343E+02 0.  0.
    3000022    2    3    3    0    0  0.31794429226E+02 -0.81029742053E+01 -0.14530591083E+01  0.32843839649E+02  0.25000263616E+00 0.  0.
    1000022    2    1    0    0    0 -0.56864645162E+02  0.23907948308E+02  0.10351491696E+01  0.62500004462E+02  0.10000058112E+02 0.  0.
    3000022    2    5    5    0    0 -0.22135773300E+02  0.14606936570E+02  0.15148555668E+00  0.26522452828E+02  0.25000120938E+00 0.  0.
        -13    1    4    4    0    0  0.17017289026E+02 -0.44058144515E+01 -0.78663735570E+00  0.17596282281E+02  0.10500000000E+00 0. -1.
         13    1    4    4    0    0  0.14777140200E+02 -0.36971597538E+01 -0.66642175262E+00  0.15247557368E+02  0.10500000000E+00 0.  1.
    3000001    1    5    5    0    0 -0.34728871862E+02  0.93010117371E+01  0.88366361288E+00  0.35977551633E+02  0.10000000000E+01 0.  1.
        -13    1    6    6    0    0 -0.13539623318E+02  0.88673991757E+01  0.11894285119E+00  0.16185714075E+02  0.10500000000E+00 0. -1.
         13    1    6    6    0    0 -0.85961499822E+01  0.57395373948E+01  0.32542705493E-01  0.10336738753E+02  0.10500000000E+00 0.  1.
</event>
<event>
11    0  0.3439373E-009  0.9118800E+02  0.7816531E-02  0.1126479E+00
         25   -1    0    0    0    0  0.00000000000E+00  0.00000000000E+00  0.99999998245E-14  0.12500000000E+03  0.12500000000E+03 0.  0.
    3000001    1    3    3    0    0 -0.38079402882E+01 -0.13047741350E+01 -0.12376609715E+02  0.13053095909E+02  0.10000000000E+01 0.  1.
    1000022    2    1    0    0    0 -0.84398314959E+01  0.99822841590E+01 -0.60294056504E+02  0.62499999870E+02  0.99999990658E+01 0.  0.
    3000022    2    3    3    0    0 -0.46318912077E+01  0.11287058294E+02 -0.47917446790E+02  0.49446903961E+02  0.25000681510E+00 0.  0.
    1000022    2    1    0    0    0  0.84398314959E+01 -0.99822841590E+01  0.60294056504E+02  0.62500000130E+02  0.10000000687E+02 0.  0.
    3000022    2    5    5    0    0  0.76136719205E+01 -0.70268572909E+01  0.25060469162E+02  0.27118892677E+02  0.25000373087E+00 0.  0.
        -13    1    4    4    0    0 -0.23841072733E+01  0.57568498879E+01 -0.24734243873E+02  0.25507236877E+02  0.10500000000E+00 0. -1.
         13    1    4    4    0    0 -0.22477839343E+01  0.55302084061E+01 -0.23183202917E+02  0.23939667085E+02  0.10500000000E+00 0.  1.
    3000001    1    5    5    0    0  0.82615957535E+00 -0.29554268681E+01  0.35233587342E+02  0.35381107453E+02  0.10000000000E+01 0.  1.
        -13    1    6    6    0    0  0.53305451607E+01 -0.48749172678E+01  0.17382868624E+02  0.18824310789E+02  0.10500000000E+00 0.  1.
         13    1    6    6    0    0  0.22831267599E+01 -0.21519400231E+01  0.76776005383E+01  0.82945818876E+01  0.10500000000E+00 0. -1.
</event>
<event>
11    0  0.3439373E-009  0.9118800E+02  0.7816531E-02  0.1126479E+00
         25   -1    0    0    0    0  0.00000000000E+00  0.00000000000E+00  0.99999998245E-14  0.12500000000E+03  0.12500000000E+03 0.  0.
    3000001    1    3    3    0    0  0.20229019073E+01  0.16268785607E+01  0.34051104598E+00  0.28026440642E+01  0.10000000000E+01 0. -1.
    1000022    2    1    0    0    0  0.42449662833E+02  0.15038888887E+02  0.42167616414E+02  0.62499999642E+02  0.10000001380E+02 0.  0.
    3000022    2    3    3    0    0  0.40426760926E+02  0.13412010326E+02  0.41827105368E+02  0.59697355578E+02  0.24999911952E+00 0.  0.
    1000022    2    1    0    0    0 -0.42449662833E+02 -0.15038888887E+02 -0.42167616414E+02  0.62500000358E+02  0.10000005857E+02 0.  0.
    3000022    2    5    5    0    0  0.30996885616E+00  0.48650955682E+00 -0.52406766427E+00  0.81848569214E+00  0.24999934165E+00 0.  0.
        -13    1    4    4    0    0  0.13669483721E+02  0.45661077609E+01  0.14088683008E+02  0.20154556288E+02  0.10500000000E+00 0.  1.
         13    1    4    4    0    0  0.26757277205E+02  0.88459025655E+01  0.27738422360E+02  0.39542799289E+02  0.10500000000E+00 0. -1.
    3000001    1    5    5    0    0 -0.42759631689E+02 -0.15525398444E+02 -0.41643548750E+02  0.61681514666E+02  0.10000000000E+01 0.  1.
        -13    1    6    6    0    0  0.22728083340E+00  0.38174283571E+00 -0.41266528448E+00  0.61538752576E+00  0.10500000000E+00 0. -1.
         13    1    6    6    0    0  0.82688022769E-01  0.10476672111E+00 -0.11140237979E+00  0.20309816637E+00  0.10500000000E+00 0.  1.
</event>
<event>
11    0  0.3439373E-009  0.9118800E+02  0.7816531E-02  0.1126479E+00
         25   -1    0    0    0    0  0.00000000000E+00  0.00000000000E+00  0.99999998245E-14  0.12500000000E+03  0.12500000000E+03 0.  0.
    3000001    1    3    3    0    0 -0.97732860028E+01  0.52146818421E+01  0.72050494566E+00  0.11145813267E+02  0.10000000000E+01 0. -1.
    1000022    2    1    0    0    0 -0.46788536760E+02  0.33053885039E+02  0.22902478624E+02  0.62499999920E+02  0.99999987282E+01 0.  0.
    3000022    2    3    3    0    0 -0.37015250758E+02  0.27839203197E+02  0.22181973678E+02  0.51354186653E+02  0.25001453563E+00 0.  0.
    1000022    2    1    0    0    0  0.46788536760E+02 -0.33053885039E+02 -0.22902478624E+02  0.62500000080E+02  0.99999997286E+01 0.  0.
    3000022    2    5    5    0    0  0.45686665029E+02 -0.30281117825E+02 -0.20418634468E+02  0.58491029998E+02  0.24999686210E+00 0.  0.
        -13    1    4    4    0    0 -0.14373077488E+02  0.10813833952E+02  0.85459998034E+01  0.19914052798E+02  0.10500000000E+00 0. -1.
         13    1    4    4    0    0 -0.22642173270E+02  0.17025369244E+02  0.13635973874E+02  0.31440133854E+02  0.10500000000E+00 0.  1.
    3000001    1    5    5    0    0  0.11018717313E+01 -0.27727672135E+01 -0.24838441553E+01  0.40089700823E+01  0.10000000000E+01 0. -1.
        -13    1    6    6    0    0  0.25118149873E+02 -0.16707560162E+02 -0.11190426041E+02  0.32176088631E+02  0.10500000000E+00 0.  1.
         13    1    6    6    0    0  0.20568515156E+02 -0.13573557664E+02 -0.92282084268E+01  0.26314941367E+02  0.10500000000E+00 0. -1.
</event>
<event>
11    0  0.3439373E-009  0.9118800E+02  0.7816531E-02  0.1126479E+00
         25   -1    0    0    0    0  0.00000000000E+00  0.00000000000E+00  0.99999998245E-14  0.12500000000E+03  0.12500000000E+03 0.  0.
    3000001    1    3    3    0    0  0.79348260020E+01  0.94861030660E+01 -0.21356410995E+02  0.24699066898E+02  0.10000000000E+01 0.  1.
    1000022    2    1    0    0    0  0.30864464307E+02  0.21860178394E+02 -0.48741844898E+02  0.62500000023E+02  0.10000000121E+02 0.  0.
    3000022    2    3    3    0    0  0.22929638305E+02  0.12374075328E+02 -0.27385433904E+02  0.37800933125E+02  0.25000403815E+00 0.  0.
    1000022    2    1    0    0    0 -0.30864464307E+02 -0.21860178394E+02  0.48741844898E+02  0.62499999977E+02  0.99999998317E+01 0.  0.
    3000022    2    5    5    0    0 -0.28449287256E+02 -0.17499977067E+02  0.45596852737E+02  0.56522089681E+02  0.24999947328E+00 0.  0.
        -13    1    4    4    0    0  0.97674884128E+01  0.51994172588E+01 -0.11653823649E+02  0.16070482269E+02  0.10500000000E+00 0. -1.
         13    1    4    4    0    0  0.13162149892E+02  0.71746580696E+01 -0.15731610255E+02  0.21730450856E+02  0.10500000000E+00 0.  1.
    3000001    1    5    5    0    0 -0.24151770508E+01 -0.43602013277E+01  0.31449921614E+01  0.59779102954E+01  0.10000000000E+01 0. -1.
        -13    1    6    6    0    0 -0.20137589527E+02 -0.12351724584E+02  0.32302976670E+02  0.40019756857E+02  0.10500000000E+00 0. -1.
         13    1    6    6    0    0 -0.83116977286E+01 -0.51482524831E+01  0.13293876067E+02  0.16502332824E+02  0.10500000000E+00 0.  1.
</event>
<event>
11    0  0.3439373E-009  0.9118800E+02  0.7816531E-02  0.1126479E+00
         25   -1    0    0    0    0  0.00000000000E+00  0.00000000000E+00  0.99999998245E-14  0.12500000000E+03  0.12500000000E+03 0.  0.
    3000001    1    3    3    0    0 -0.24776702794E+02  0.33441099387E+02 -0.41255413919E+02  0.58610590402E+02  0.10000000000E+01 0.  1.
    1000022    2    1    0    0    0 -0.24205402965E+02  0.36701686574E+02 -0.43282037114E+02  0.62500000939E+02  0.10000002526E+02 0.  0.
    3000022    2    3    3    0    0  0.57129982913E+00  0.32605871866E+01 -0.20266231955E+01  0.38894105375E+01  0.25000091333E+00 0.  0.
    1000022    2    1    0    0    0  0.24205402965E+02 -0.36701686574E+02  0.43282037114E+02  0.62499999061E+02  0.99999907878E+01 0.  0.
    3000022    2    5    5    0    0  0.19939054794E+02 -0.23688253952E+02  0.26037676576E+02  0.40456425719E+02  0.24999815265E+00 0.  0.
        -13    1    4    4    0    0  0.26260104146E+00  0.18744052147E+01 -0.11468062341E+01  0.22155233590E+01  0.10500000000E+00 0. -1.
         13    1    4    4    0    0  0.30869878766E+00  0.13861819719E+01 -0.87981696145E+00  0.16738871785E+01  0.10500000000E+00 0.  1.
    3000001    1    5    5    0    0  0.42663481716E+01 -0.13013432622E+02  0.17244360538E+02  0.22043573342E+02  0.10000000000E+01 0.  1.
        -13    1    6    6    0    0  0.11016943410E+02 -0.13138669770E+02  0.14494715631E+02  0.22452293684E+02  0.10500000000E+00 0.  1.
         13    1    6    6    0    0  0.89221113842E+01 -0.10549584182E+02  0.11542960945E+02  0.18004132035E+02  0.10500000000E+00 0. -1.
</event>
<event>
11    0  0.3439373E-009  0.9118800E+02  0.7816531E-02  0.1126479E+00
         25   -1    0    0    0    0  0.00000000000E+00  0.00000000000E+00  0.99999998245E-14  0.12500000000E+03  0.12500000000E+03 0.  0.
    3000001    1    3    3    0    0  0.25084284193E+01 -0.36352166045E+02  0.18459484954E+02  0.40859818576E+02  0.10000000000E+01 0. -1.
    1000022    2    1    0    0    0 -0.32523419089E+01 -0.54424679176E+02  0.28872591587E+02  0.62500000974E+02  0.10000007277E+02 0.  0.
    3000022    2    3    3    0    0 -0.57607703282E+01 -0.18072513131E+02  0.10413106633E+02  0.21640182398E+02  0.24999767346E+00 0.  0.
    1000022    2    1    0    0    0  0.32523419089E+01  0.54424679176E+02 -0.28872591587E+02  0.62499999026E+02  0.99999951005E+01 0.  0.
    3000022    2    5    5    0    0 -0.26249684748E+01  0.29434323063E+02 -0.17999597532E+02  0.34602280917E+02  0.24999927783E+00 0.  0.
        -13    1    4    4    0    0 -0.31104048780E+01 -0.99226777272E+01  0.56580863721E+01  0.11838881627E+02  0.10500000000E+00 0. -1.
         13    1    4    4    0    0 -0.26503654502E+01 -0.81498354037E+01  0.47550202605E+01  0.98013007711E+01  0.10500000000E+00 0.  1.
    3000001    1    5    5    0    0  0.58773103837E+01  0.24990356113E+02 -0.10872994055E+02  0.27897718109E+02  0.10000000000E+01 0. -1.
        -13    1    6    6    0    0 -0.14406585245E+01  0.16824480197E+02 -0.10316952534E+02  0.19788612015E+02  0.10500000000E+00 0.  1.
         13    1    6    6    0    0 -0.11843099502E+01  0.12609842866E+02 -0.76826449980E+01  0.14813668902E+02  0.10500000000E+00 0. -1.
</event>
<event>
11    0  0.3439373E-009  0.9118800E+02  0.7816531E-02  0.1126479E+00
         25   -1    0    0    0    0  0.00000000000E+00  0.00000000000E+00  0.99999998245E-14  0.12500000000E+03  0.12500000000E+03 0.  0.
    3000001    1    3    3    0    0 -0.36342320517E+02  0.30178613568E+02 -0.15718326852E+02  0.49795369026E+02  0.10000000000E+01 0.  1.
    1000022    2    1    0    0    0 -0.48068987786E+02  0.35007387352E+02 -0.16434868188E+02  0.62500001882E+02  0.10000029343E+02 0.  0.
    3000022    2    3    3    0    0 -0.11726667270E+02  0.48287737839E+01 -0.71654133552E+00  0.12704632856E+02  0.24996599033E+00 0.  0.
    1000022    2    1    0    0    0  0.48068987786E+02 -0.35007387352E+02  0.16434868188E+02  0.62499998118E+02  0.10000005818E+02 0.  0.
    3000022    2    5    5    0    0  0.47463669184E+02 -0.32530227088E+02  0.16013732273E+02  0.59728700760E+02  0.25001288266E+00 0.  0.
        -13    1    4    4    0    0 -0.47502713120E+01  0.20210501065E+01 -0.31278341237E+00  0.51728695647E+01  0.10500000000E+00 0.  1.
         13    1    4    4    0    0 -0.69763959580E+01  0.28077236775E+01 -0.40375792315E+00  0.75317632910E+01  0.10500000000E+00 0. -1.
    3000001    1    5    5    0    0  0.60531860284E+00 -0.24771602644E+01  0.42113591498E+00  0.27712973578E+01  0.10000000000E+01 0. -1.
        -13    1    6    6    0    0  0.14105195319E+02 -0.96352255139E+01  0.47917085311E+01  0.17741634686E+02  0.10500000000E+00 0. -1.
         13    1    6    6    0    0  0.33358473864E+02 -0.22895001574E+02  0.11222023742E+02  0.41987066074E+02  0.10500000000E+00 0.  1.
</event>
<event>
11    0  0.3439373E-009  0.9118800E+02  0.7816531E-02  0.1126479E+00
         25   -1    0    0    0    0  0.00000000000E+00  0.00000000000E+00  0.99999998245E-14  0.12500000000E+03  0.12500000000E+03 0.  0.
    3000001    1    3    3    0    0 -0.42145608774E+01  0.70948846829E+01  0.65243097777E+01  0.10567238529E+02  0.10000000000E+01 0. -1.
    1000022    2    1    0    0    0 -0.67083781616E+01  0.51805261564E+02  0.32824728382E+02  0.62499997380E+02  0.99999707925E+01 0.  0.
    3000022    2    3    3    0    0 -0.24938172841E+01  0.44710376881E+02  0.26300418604E+02  0.51932758851E+02  0.24999519793E+00 0.  0.
    1000022    2    1    0    0    0  0.67083781616E+01 -0.51805261564E+02 -0.32824728382E+02  0.62500002620E+02  0.10000003546E+02 0.  0.
    3000022    2    5    5    0    0  0.69662517826E+01 -0.44616041088E+02 -0.24229253535E+02  0.51246844055E+02  0.25002488265E+00 0.  0.
        -13    1    4    4    0    0 -0.69995694863E+00  0.12850922271E+02  0.76038482044E+01  0.14948768360E+02  0.10500000000E+00 0. -1.
         13    1    4    4    0    0 -0.17938603355E+01  0.31859454610E+02  0.18696570400E+02  0.36983990491E+02  0.10500000000E+00 0.  1.
    3000001    1    5    5    0    0 -0.25787362101E+00 -0.71892204759E+01 -0.85954748473E+01  0.11253158566E+02  0.10000000000E+01 0. -1.
        -13    1    6    6    0    0  0.36594016958E+01 -0.23870235784E+02 -0.12948551968E+02  0.27401740825E+02  0.10500000000E+00 0. -1.
         13    1    6    6    0    0  0.33068500868E+01 -0.20745805304E+02 -0.11280701566E+02  0.23845103229E+02  0.10500000000E+00 0.  1.
</event>
<event>
11    0  0.3439373E-009  0.9118800E+02  0.7816531E-02  0.1126479E+00
         25   -1    0    0    0    0  0.00000000000E+00  0.00000000000E+00  0.99999998245E-14  0.12500000000E+03  0.12500000000E+03 0.  0.
    3000001    1    3    3    0    0  0.10057852849E+02  0.82761976947E+01  0.49476393170E+02  0.51171958467E+02  0.10000000000E+01 0. -1.
    1000022    2    1    0    0    0  0.15820864825E+02  0.12329386915E+02  0.58343264652E+02  0.62500000512E+02  0.99999994118E+01 0.  0.
    3000022    2    3    3    0    0  0.57630119764E+01  0.40531892206E+01  0.88668714814E+01  0.11328042045E+02  0.24995360194E+00 0.  0.
    1000022    2    1    0    0    0 -0.15820864825E+02 -0.12329386915E+02 -0.58343264652E+02  0.62499999488E+02  0.99999930132E+01 0.  0.
    3000022    2    5    5    0    0 -0.99160886571E+01 -0.78295110485E+01 -0.21808954941E+02  0.25205615857E+02  0.24999516218E+00 0.  0.
        -13    1    4    4    0    0  0.29608512875E+01  0.20017724991E+01  0.44720821124E+01  0.57257555750E+01  0.10500000000E+00 0.  1.
         13    1    4    4    0    0  0.28021606889E+01  0.20514167215E+01  0.43947893690E+01  0.56022864698E+01  0.10500000000E+00 0. -1.
    3000001    1    5    5    0    0 -0.59047761681E+01 -0.44998758668E+01 -0.36534309710E+02  0.37294383631E+02  0.10000000000E+01 0.  1.
        -13    1    6    6    0    0 -0.72349023954E+01 -0.57463614459E+01 -0.15993185666E+02  0.18470449244E+02  0.10500000000E+00 0.  1.
         13    1    6    6    0    0 -0.26811862617E+01 -0.20831496026E+01 -0.58157692757E+01  0.67351666130E+01  0.10500000000E+00 0. -1.
</event>
<event>
11    0  0.3439373E-009  0.9118800E+02  0.7816531E-02  0.1126479E+00
         25   -1    0    0    0    0  0.00000000000E+00  0.00000000000E+00  0.99999998245E-14  0.12500000000E+03  0.12500000000E+03 0.  0.
    3000001    1    3    3    0    0 -0.40362072294E+01  0.84407260915E+01  0.92755534503E+01  0.13212596927E+02  0.10000000000E+01 0. -1.
    1000022    2    1    0    0    0 -0.61440125578E+01  0.30159465662E+02  0.53468755249E+02  0.62499999740E+02  0.99999960134E+01 0.  0.
    3000022    2    3    3    0    0 -0.21078053283E+01  0.21718739571E+02  0.44193201799E+02  0.49287402813E+02  0.24999791226E+00 0.  0.
    1000022    2    1    0    0    0  0.61440125578E+01 -0.30159465662E+02 -0.53468755249E+02  0.62500000260E+02  0.99999992611E+01 0.  0.
    3000022    2    5    5    0    0 -0.61613100198E+00 -0.19996351185E+02 -0.35603470675E+02  0.40839971873E+02  0.25000059676E+00 0.  0.
        -13    1    4    4    0    0 -0.13828171627E+01  0.14686800886E+02  0.29941939833E+02  0.33378811984E+02  0.10500000000E+00 0.  1.
         13    1    4    4    0    0 -0.72498816566E+00  0.70319386851E+01  0.14251261967E+02  0.15908590829E+02  0.10500000000E+00 0. -1.
    3000001    1    5    5    0    0  0.67601435598E+01 -0.10163114477E+02 -0.17865284574E+02  0.21660028387E+02  0.10000000000E+01 0. -1.
        -13    1    6    6    0    0 -0.28885454881E+00 -0.10956118659E+02 -0.19597622002E+02  0.22454348937E+02  0.10500000000E+00 0.  1.
         13    1    6    6    0    0 -0.32727645317E+00 -0.90402325259E+01 -0.16005848673E+02  0.18385622936E+02  0.10500000000E+00 0. -1.
</event>
<event>
11    0  0.3439373E-009  0.9118800E+02  0.7816531E-02  0.1126479E+00
         25   -1    0    0    0    0  0.00000000000E+00  0.00000000000E+00  0.99999998245E-14  0.12500000000E+03  0.12500000000E+03 0.  0.
    3000001    1    3    3    0    0 -0.17376407531E+02 -0.20369085770E+02  0.10329512417E+01  0.26812425889E+02  0.10000000000E+01 0. -1.
    1000022    2    1    0    0    0 -0.39088372360E+02 -0.46897995159E+02 -0.88841022795E+01  0.62499999338E+02  0.99999920081E+01 0.  0.
    3000022    2    3    3    0    0 -0.21711964829E+02 -0.26528909389E+02 -0.99170535212E+01  0.35687573449E+02  0.24999595047E+00 0.  0.
    1000022    2    1    0    0    0  0.39088372360E+02  0.46897995159E+02  0.88841022795E+01  0.62500000662E+02  0.10000000289E+02 0.  0.
    3000022    2    5    5    0    0  0.37598519123E+02  0.40741697227E+02  0.75728912583E+01  0.55954854275E+02  0.25000344475E+00 0.  0.
        -13    1    4    4    0    0 -0.15390414960E+02 -0.18743805177E+02 -0.69947084509E+01  0.25241475322E+02  0.10500000000E+00 0.  1.
         13    1    4    4    0    0 -0.63215498691E+01 -0.77851042128E+01 -0.29223450703E+01  0.10446098126E+02  0.10500000000E+00 0. -1.
    3000001    1    5    5    0    0  0.14898532377E+01  0.61562979316E+01  0.13112110212E+01  0.65451463876E+01  0.10000000000E+01 0.  1.
        -13    1    6    6    0    0  0.25940507759E+02  0.28090728008E+02  0.51756240266E+01  0.38584932965E+02  0.10500000000E+00 0.  1.
         13    1    6    6    0    0  0.11658011363E+02  0.12650969219E+02  0.23972672317E+01  0.17369921310E+02  0.10500000000E+00 0. -1.
</event>
<event>
11    0  0.3439373E-009  0.9118800E+02  0.7816531E-02  0.1126479E+00
         25   -1    0    0    0    0  0.00000000000E+00  0.00000000000E+00  0.99999998245E-14  0.12500000000E+03  0.12500000000E+03 0.  0.
    3000001    1    3    3    0    0 -0.27817027865E+02 -0.35482486017E+02 -0.73645590805E+01  0.45694973286E+02  0.10000000000E+01 0.  1.
    1000022    2    1    0    0    0 -0.39356083691E+02 -0.47313919243E+02 -0.43291243559E+01  0.62500001849E+02  0.10000031787E+02 0.  0.
    3000022    2    3    3    0    0 -0.11539055826E+02 -0.11831433226E+02  0.30354347246E+01  0.16805028563E+02  0.24999893933E+00 0.  0.
    1000022    2    1    0    0    0  0.39356083691E+02  0.47313919243E+02  0.43291243559E+01  0.62499998151E+02  0.10000008679E+02 0.  0.
    3000022    2    5    5    0    0  0.16186032755E+00  0.17802422013E+01  0.14984242764E+01  0.23458981002E+01  0.25000304759E+00 0.  0.
        -13    1    4    4    0    0 -0.79158726918E+01 -0.81777347181E+01  0.20665296491E+01  0.11567971101E+02  0.10500000000E+00 0.  1.
         13    1    4    4    0    0 -0.36231831345E+01 -0.36536985083E+01  0.96890507549E+00  0.52370574621E+01  0.10500000000E+00 0. -1.
    3000001    1    5    5    0    0  0.39194223364E+02  0.45533677042E+02  0.28307000795E+01  0.60154100051E+02  0.10000000000E+01 0.  1.
        -13    1    6    6    0    0  0.11467003128E-01  0.84388722769E+00  0.68279334019E+00  0.10906460886E+01  0.10500000000E+00 0. -1.
         13    1    6    6    0    0  0.15039332442E+00  0.93635497358E+00  0.81563093616E+00  0.12552520116E+01  0.10500000000E+00 0.  1.
</event>
<event>
11    0  0.3439373E-009  0.9118800E+02  0.7816531E-02  0.1126479E+00
         25   -1    0    0    0    0  0.00000000000E+00  0.00000000000E+00  0.99999998245E-14  0.12500000000E+03  0.12500000000E+03 0.  0.
    3000001    1    3    3    0    0 -0.16967829369E+02  0.19040979108E+02 -0.28639318946E+02  0.38362438773E+02  0.10000000000E+01 0.  1.
    1000022    2    1    0    0    0 -0.31843885391E+02  0.33795619201E+02 -0.40621090981E+02  0.62499998901E+02  0.99999958063E+01 0.  0.
    3000022    2    3    3    0    0 -0.14876056023E+02  0.14754640093E+02 -0.11981772035E+02  0.24137560128E+02  0.25000157816E+00 0.  0.
    1000022    2    1    0    0    0  0.31843885391E+02 -0.33795619201E+02  0.40621090981E+02  0.62500001099E+02  0.10000009545E+02 0.  0.
    3000022    2    5    5    0    0 -0.11512897540E+00 -0.30413469329E+01  0.17759016760E+01  0.35326152474E+01  0.24999575250E+00 0.  0.
        -13    1    4    4    0    0 -0.77888417938E+01  0.76436694189E+01 -0.62807249845E+01  0.12591674631E+02  0.10500000000E+00 0.  1.
         13    1    4    4    0    0 -0.70872142291E+01  0.71109706741E+01 -0.57010470501E+01  0.11545885498E+02  0.10500000000E+00 0. -1.
    3000001    1    5    5    0    0  0.31959014367E+02 -0.30754272268E+02  0.38845189305E+02  0.58967385852E+02  0.10000000000E+01 0.  1.
        -13    1    6    6    0    0  0.12689737467E-01 -0.10531916993E+01  0.59364979529E+00  0.12135974886E+01  0.10500000000E+00 0. -1.
         13    1    6    6    0    0 -0.12781871287E+00 -0.19881552336E+01  0.11822518807E+01  0.23190177588E+01  0.10500000000E+00 0.  1.
</event>
<event>
11    0  0.3439373E-009  0.9118800E+02  0.7816531E-02  0.1126479E+00
         25   -1    0    0    0    0  0.00000000000E+00  0.00000000000E+00  0.99999998245E-14  0.12500000000E+03  0.12500000000E+03 0.  0.
    3000001    1    3    3    0    0 -0.13132406203E+02  0.15880708651E+01 -0.73825042769E+01  0.15181680775E+02  0.10000000000E+01 0. -1.
    1000022    2    1    0    0    0 -0.58064263954E+02 -0.65203497723E+01 -0.19805954858E+02  0.62499996292E+02  0.99999989473E+01 0.  0.
    3000022    2    3    3    0    0 -0.44931857751E+02 -0.81084206374E+01 -0.12423450581E+02  0.47318315517E+02  0.25006561069E+00 0.  0.
    1000022    2    1    0    0    0  0.58064263954E+02  0.65203497723E+01  0.19805954858E+02  0.62500003708E+02  0.10000045300E+02 0.  0.
    3000022    2    5    5    0    0  0.53756915144E+01  0.25940920304E+01  0.45141511020E+01  0.74878193515E+01  0.25001149492E+00 0.  0.
        -13    1    4    4    0    0 -0.20487111042E+02 -0.37651895283E+01 -0.56679529190E+01  0.21587845801E+02  0.10500000000E+00 0.  1.
         13    1    4    4    0    0 -0.24444746710E+02 -0.43432311090E+01 -0.67554976622E+01  0.25730469716E+02  0.10500000000E+00 0. -1.
    3000001    1    5    5    0    0  0.52688572440E+02  0.39262577418E+01  0.15291803756E+02  0.55012184357E+02  0.10000000000E+01 0.  1.
        -13    1    6    6    0    0  0.33998622096E+01  0.16584696104E+01  0.27885805881E+01  0.47007224114E+01  0.10500000000E+00 0.  1.
         13    1    6    6    0    0  0.19758293048E+01  0.93562242008E+00  0.17255705139E+01  0.27870969401E+01  0.10500000000E+00 0. -1.
</event>
<event>
11    0  0.3439373E-009  0.9118800E+02  0.7816531E-02  0.1126479E+00
         25   -1    0    0    0    0  0.00000000000E+00  0.00000000000E+00  0.99999998245E-14  0.12500000000E+03  0.12500000000E+03 0.  0.
    3000001    1    3    3    0    0  0.38812319313E+02 -0.81028034811E+01 -0.41048764732E+02  0.57079353892E+02  0.10000000000E+01 0. -1.
    1000022    2    1    0    0    0  0.40624166953E+02 -0.66795116427E+01 -0.45949011227E+02  0.62500003972E+02  0.10000002369E+02 0.  0.
    3000022    2    3    3    0    0  0.18118476392E+01  0.14232918385E+01 -0.49002464952E+01  0.54206500799E+01  0.24996009591E+00 0.  0.
    1000022    2    1    0    0    0 -0.40624166953E+02  0.66795116427E+01  0.45949011227E+02  0.62499996028E+02  0.99999527189E+01 0.  0.
    3000022    2    5    5    0    0 -0.40696671983E+01  0.26188675534E+01  0.21598055319E+01  0.53054611656E+01  0.24999975537E+00 0.  0.
        -13    1    4    4    0    0  0.78721968753E+00  0.57731114915E+00 -0.19473710040E+01  0.21808901454E+01  0.10500000000E+00 0. -1.
         13    1    4    4    0    0  0.10246279517E+01  0.84598068930E+00 -0.29528754912E+01  0.32397599344E+01  0.10500000000E+00 0.  1.
    3000001    1    5    5    0    0 -0.36554499754E+02  0.40606440893E+01  0.43789205695E+02  0.57194534862E+02  0.10000000000E+01 0. -1.
        -13    1    6    6    0    0 -0.22006895576E+01  0.14777974706E+01  0.11364463063E+01  0.28860795381E+01  0.10500000000E+00 0. -1.
         13    1    6    6    0    0 -0.18689776407E+01  0.11410700827E+01  0.10233592256E+01  0.24193816275E+01  0.10500000000E+00 0.  1.
</event>
<event>
11    0  0.3439373E-009  0.9118800E+02  0.7816531E-02  0.1126479E+00
         25   -1    0    0    0    0  0.00000000000E+00  0.00000000000E+00  0.99999998245E-14  0.12500000000E+03  0.12500000000E+03 0.  0.
    3000001    1    3    3    0    0 -0.22674074043E+01 -0.12565533594E+01  0.26992200251E+00  0.27915802997E+01  0.10000000000E+01 0. -1.
    1000022    2    1    0    0    0 -0.33155324472E+02 -0.29679447803E+02  0.42732947330E+02  0.62499999864E+02  0.10000001636E+02 0.  0.
    3000022    2    3    3    0    0 -0.30887917068E+02 -0.28422894444E+02  0.42463025328E+02  0.59708419564E+02  0.24999507161E+00 0.  0.
    1000022    2    1    0    0    0  0.33155324472E+02  0.29679447803E+02 -0.42732947330E+02  0.62500000136E+02  0.10000003337E+02 0.  0.
    3000022    2    5    5    0    0  0.28150882570E+02  0.20237614151E+02 -0.30014203653E+02  0.45857911860E+02  0.24988647056E+00 0.  0.
        -13    1    4    4    0    0 -0.17571848283E+02 -0.16229945699E+02  0.24266578659E+02  0.34074313702E+02  0.10500000000E+00 0. -1.
         13    1    4    4    0    0 -0.13316068785E+02 -0.12192948745E+02  0.18196446669E+02  0.25634105862E+02  0.10500000000E+00 0.  1.
    3000001    1    5    5    0    0  0.50044419026E+01  0.94418336523E+01 -0.12718743677E+02  0.16642088276E+02  0.10000000000E+01 0. -1.
        -13    1    6    6    0    0  0.88777159414E+01  0.64273092726E+01 -0.95329223993E+01  0.14526244501E+02  0.10500000000E+00 0. -1.
         13    1    6    6    0    0  0.19273166628E+02  0.13810304878E+02 -0.20481281254E+02  0.31331667359E+02  0.10500000000E+00 0.  1.
</event>
<event>
11    0  0.3439373E-009  0.9118800E+02  0.7816531E-02  0.1126479E+00
         25   -1    0    0    0    0  0.00000000000E+00  0.00000000000E+00  0.99999998245E-14  0.12500000000E+03  0.12500000000E+03 0.  0.
    3000001    1    3    3    0    0  0.29930868504E+02  0.14445292677E+02  0.44684984332E+01  0.33548335998E+02  0.10000000000E+01 0. -1.
    1000022    2    1    0    0    0  0.56767618782E+02  0.24156455476E+02 -0.39138792720E+00  0.62499999954E+02  0.99999963160E+01 0.  0.
    3000022    2    3    3    0    0  0.26836750278E+02  0.97111627983E+01 -0.48598863604E+01  0.28951663956E+02  0.25000400959E+00 0.  0.
    1000022    2    1    0    0    0 -0.56767618782E+02 -0.24156455476E+02  0.39138792720E+00  0.62500000046E+02  0.99999968952E+01 0.  0.
    3000022    2    5    5    0    0 -0.39112283991E+02 -0.17389158882E+02 -0.42210390440E+01  0.43012013174E+02  0.25000204406E+00 0.  0.
        -13    1    4    4    0    0  0.10517044312E+02  0.37423712103E+01 -0.19188611448E+01  0.11327251054E+02  0.10500000000E+00 0. -1.
         13    1    4    4    0    0  0.16319705966E+02  0.59687915879E+01 -0.29410252156E+01  0.17624412902E+02  0.10500000000E+00 0.  1.
    3000001    1    5    5    0    0 -0.17655334792E+02 -0.67672965932E+01  0.46124269712E+01  0.19487986873E+02  0.10000000000E+01 0. -1.
        -13    1    6    6    0    0 -0.24999136508E+02 -0.11051070271E+02 -0.26890382104E+01  0.27464976456E+02  0.10500000000E+00 0.  1.
         13    1    6    6    0    0 -0.14113147483E+02 -0.63380886119E+01 -0.15320008336E+01  0.15547036717E+02  0.10500000000E+00 0. -1.
</event>
<event>
11    0  0.3439373E-009  0.9118800E+02  0.7816531E-02  0.1126479E+00
         25   -1    0    0    0    0  0.00000000000E+00  0.00000000000E+00  0.99999998245E-14  0.12500000000E+03  0.12500000000E+03 0.  0.
    3000001    1    3    3    0    0 -0.15165041921E+02 -0.30961811646E+02  0.24030359199E+02  0.42036536966E+02  0.10000000000E+01 0.  1.
    1000022    2    1    0    0    0 -0.20635518418E+02 -0.49695822838E+02  0.30178650541E+02  0.62499998951E+02  0.99999746279E+01 0.  0.
    3000022    2    3    3    0    0 -0.54704764965E+01 -0.18734011192E+02  0.61482913419E+01  0.20463461985E+02  0.25000311988E+00 0.  0.
    1000022    2    1    0    0    0  0.20635518418E+02  0.49695822838E+02 -0.30178650541E+02  0.62500001049E+02  0.99999877381E+01 0.  0.
    3000022    2    5    5    0    0  0.17347707659E+01  0.14573961366E+02 -0.10242375529E+02  0.17899121278E+02  0.25001303887E+00 0.  0.
        -13    1    4    4    0    0 -0.20023865602E+01 -0.69986047185E+01  0.23405111155E+01  0.76471587681E+01  0.10500000000E+00 0.  1.
         13    1    4    4    0    0 -0.34680899362E+01 -0.11735406474E+02  0.38077802263E+01  0.12816303217E+02  0.10500000000E+00 0. -1.
    3000001    1    5    5    0    0  0.18900747652E+02  0.35121861471E+02 -0.19936275011E+02  0.44600879771E+02  0.10000000000E+01 0.  1.
        -13    1    6    6    0    0  0.41943233847E+00  0.37906982432E+01 -0.26605962780E+01  0.46513561691E+01  0.10500000000E+00 0.  1.
         13    1    6    6    0    0  0.13153384275E+01  0.10783263123E+02 -0.75817792514E+01  0.13247765109E+02  0.10500000000E+00 0. -1.
</event>
<event>
11    0  0.3439373E-009  0.9118800E+02  0.7816531E-02  0.1126479E+00
         25   -1    0    0    0    0  0.00000000000E+00  0.00000000000E+00  0.99999998245E-14  0.12500000000E+03  0.12500000000E+03 0.  0.
    3000001    1    3    3    0    0 -0.11937700603E+02 -0.13249520458E+02  0.14098089313E+02  0.22755540212E+02  0.10000000000E+01 0.  1.
    1000022    2    1    0    0    0 -0.22929221895E+02 -0.44484589328E+02  0.36078000286E+02  0.62499999663E+02  0.99999974426E+01 0.  0.
    3000022    2    3    3    0    0 -0.10991521292E+02 -0.31235068870E+02  0.21979910973E+02  0.39744459451E+02  0.25000611579E+00 0.  0.
    1000022    2    1    0    0    0  0.22929221895E+02  0.44484589328E+02 -0.36078000286E+02  0.62500000337E+02  0.10000001657E+02 0.  0.
    3000022    2    5    5    0    0  0.15129643543E+02  0.24087344122E+02 -0.15113767419E+02  0.32211717220E+02  0.25000022339E+00 0.  0.
        -13    1    4    4    0    0 -0.70130751227E+01 -0.19859417426E+02  0.14044883548E+02  0.25315004682E+02  0.10500000000E+00 0. -1.
         13    1    4    4    0    0 -0.39784461691E+01 -0.11375651445E+02  0.79350274244E+01  0.14429454769E+02  0.10500000000E+00 0.  1.
    3000001    1    5    5    0    0  0.77995783519E+01  0.20397245206E+02 -0.20964232866E+02  0.30288283117E+02  0.10000000000E+01 0.  1.
        -13    1    6    6    0    0  0.57419698713E+01  0.92102942211E+01 -0.57116711255E+01  0.12265151841E+02  0.10500000000E+00 0. -1.
         13    1    6    6    0    0  0.93876736717E+01  0.14877049901E+02 -0.94020962937E+01  0.19946565379E+02  0.10500000000E+00 0.  1.
</event>
<event>
11    0  0.3439373E-009  0.9118800E+02  0.7816531E-02  0.1126479E+00
         25   -1    0    0    0    0  0.00000000000E+00  0.00000000000E+00  0.99999998245E-14  0.12500000000E+03  0.12500000000E+03 0.  0.
    3000001    1    3    3    0    0  0.13732036489E+02  0.23557227032E+01 -0.41086202390E+02  0.43395786459E+02  0.10000000000E+01 0. -1.
    1000022    2    1    0    0    0  0.23419941579E+02  0.81701250844E+01 -0.56488982971E+02  0.62499998812E+02  0.10000002348E+02 0.  0.
    3000022    2    3    3    0    0  0.96879050898E+01  0.58144023811E+01 -0.15402780581E+02  0.19104212353E+02  0.24999982833E+00 0.  0.
    1000022    2    1    0    0    0 -0.23419941579E+02 -0.81701250844E+01  0.56488982971E+02  0.62500001188E+02  0.10000017193E+02 0.  0.
    3000022    2    5    5    0    0 -0.17746369461E+02 -0.60101180501E+01  0.30529277263E+02  0.35821144925E+02  0.25001117448E+00 0.  0.
        -13    1    4    4    0    0  0.45864916852E+01  0.27440290270E+01 -0.73995774954E+01  0.91285471676E+01  0.10500000000E+00 0. -1.
         13    1    4    4    0    0  0.51014134046E+01  0.30703733542E+01 -0.80032030858E+01  0.99756651854E+01  0.10500000000E+00 0.  1.
    3000001    1    5    5    0    0 -0.56735721184E+01 -0.21600070342E+01  0.25959705709E+02  0.26678856262E+02  0.10000000000E+01 0.  1.
        -13    1    6    6    0    0 -0.12480224759E+02 -0.41917706375E+01  0.21391817903E+02  0.25118675310E+02  0.10500000000E+00 0.  1.
         13    1    6    6    0    0 -0.52661447013E+01 -0.18183474126E+01  0.91374593595E+01  0.10702469616E+02  0.10500000000E+00 0. -1.
</event>
<event>
11    0  0.3439373E-009  0.9118800E+02  0.7816531E-02  0.1126479E+00
         25   -1    0    0    0    0  0.00000000000E+00  0.00000000000E+00  0.99999998245E-14  0.12500000000E+03  0.12500000000E+03 0.  0.
    3000001    1    3    3    0    0 -0.24346747344E+02  0.27046057161E+02 -0.10349168618E+02  0.37846513780E+02  0.10000000000E+01 0. -1.
    1000022    2    1    0    0    0 -0.39202597551E+02  0.46697383874E+02 -0.94212945286E+01  0.62499999364E+02  0.99999907256E+01 0.  0.
    3000022    2    3    3    0    0 -0.14855850207E+02  0.19651326713E+02  0.92787408986E+00  0.24653485585E+02  0.24994835612E+00 0.  0.
    1000022    2    1    0    0    0  0.39202597551E+02 -0.46697383874E+02  0.94212945286E+01  0.62500000636E+02  0.99999986739E+01 0.  0.
    3000022    2    5    5    0    0  0.48529827882E+01 -0.27581463169E+01 -0.12037868708E+01  0.57158040122E+01  0.24999925636E+00 0.  0.
        -13    1    4    4    0    0 -0.74582125901E+01  0.99015520492E+01  0.40262388478E+00  0.12403176973E+02  0.10500000000E+00 0.  1.
         13    1    4    4    0    0 -0.73976376166E+01  0.97497746642E+01  0.52525020508E+00  0.12250308612E+02  0.10500000000E+00 0. -1.
    3000001    1    5    5    0    0  0.34349614762E+02 -0.43939237557E+02  0.10625081399E+02  0.56784196624E+02  0.10000000000E+01 0. -1.
        -13    1    6    6    0    0  0.28864495411E+01 -0.16552103156E+01 -0.78088003464E+00  0.34193728622E+01  0.10500000000E+00 0.  1.
         13    1    6    6    0    0  0.19665332470E+01 -0.11029360013E+01 -0.42290683619E+00  0.22964311500E+01  0.10500000000E+00 0. -1.
</event>
<event>
11    0  0.3439373E-009  0.9118800E+02  0.7816531E-02  0.1126479E+00
         25   -1    0    0    0    0  0.00000000000E+00  0.00000000000E+00  0.99999998245E-14  0.12500000000E+03  0.12500000000E+03 0.  0.
    3000001    1    3    3    0    0  0.66302293441E+01  0.20477247693E+01  0.25734040914E+00  0.70156497897E+01  0.10000000000E+01 0. -1.
    1000022    2    1    0    0    0  0.57078815640E+02  0.74596436916E+01 -0.22194873568E+02  0.62500000246E+02  0.10000006960E+02 0.  0.
    3000022    2    3    3    0    0  0.50448586296E+02  0.54119189223E+01 -0.22452213977E+02  0.55484350457E+02  0.25001484108E+00 0.  0.
    1000022    2    1    0    0    0 -0.57078815640E+02 -0.74596436916E+01  0.22194873568E+02  0.62499999754E+02  0.10000003881E+02 0.  0.
    3000022    2    5    5    0    0 -0.13255311241E+02  0.10593441881E+01  0.85326942739E+01  0.15801736024E+02  0.25000718084E+00 0.  0.
        -13    1    4    4    0    0  0.27283584870E+02  0.29099183201E+01 -0.12212759963E+02  0.30033717034E+02  0.10500000000E+00 0. -1.
         13    1    4    4    0    0  0.23165001426E+02  0.25020006022E+01 -0.10239454014E+02  0.25450633422E+02  0.10500000000E+00 0.  1.
    3000001    1    5    5    0    0 -0.43823504399E+02 -0.85189878797E+01  0.13662179294E+02  0.46698263730E+02  0.10000000000E+01 0. -1.
        -13    1    6    6    0    0 -0.79661221677E+01  0.61742630576E+00  0.50553860093E+01  0.94555946580E+01  0.10500000000E+00 0.  1.
         13    1    6    6    0    0 -0.52891890735E+01  0.44191788236E+00  0.34773082647E+01  0.63461413660E+01  0.10500000000E+00 0. -1.
</event>
<event>
11    0  0.3439373E-009  0.9118800E+02  0.7816531E-02  0.1126479E+00
         25   -1    0    0    0    0  0.00000000000E+00  0.00000000000E+00  0.99999998245E-14  0.12500000000E+03  0.12500000000E+03 0.  0.
    3000001    1    3    3    0    0  0.81020071978E+01  0.16737914362E+02 -0.16246645499E+02  0.24713433346E+02  0.10000000000E+01 0.  1.
    1000022    2    1    0    0    0  0.30077321638E+02  0.34783234964E+02 -0.41130660088E+02  0.62500001346E+02  0.10000012878E+02 0.  0.
    3000022    2    3    3    0    0  0.21975314440E+02  0.18045320602E+02 -0.24884014590E+02  0.37786568000E+02  0.24999750145E+00 0.  0.
    1000022    2    1    0    0    0 -0.30077321638E+02 -0.34783234964E+02  0.41130660088E+02  0.62499998654E+02  0.99999960475E+01 0.  0.
    3000022    2    5    5    0    0 -0.24092006064E+01 -0.78392055735E+01  0.50234464094E+01  0.96205459253E+01  0.24999697406E+00 0.  0.
        -13    1    4    4    0    0  0.96185357357E+01  0.78245919074E+01 -0.10894706721E+02  0.16505942195E+02  0.10500000000E+00 0.  1.
         13    1    4    4    0    0  0.12356778704E+02  0.10220728695E+02 -0.13989307869E+02  0.21280625805E+02  0.10500000000E+00 0. -1.
    3000001    1    5    5    0    0 -0.27668121031E+02 -0.26944029390E+02  0.36107213679E+02  0.52879452728E+02  0.10000000000E+01 0.  1.
        -13    1    6    6    0    0 -0.97284550443E+00 -0.31374947067E+01  0.20859114881E+01  0.38926023617E+01  0.10500000000E+00 0. -1.
         13    1    6    6    0    0 -0.14363551020E+01 -0.47017108667E+01  0.29375349214E+01  0.57279435636E+01  0.10500000000E+00 0.  1.
</event>
<event>
11    0  0.3439373E-009  0.9118800E+02  0.7816531E-02  0.1126479E+00
         25   -1    0    0    0    0  0.00000000000E+00  0.00000000000E+00  0.99999998245E-14  0.12500000000E+03  0.12500000000E+03 0.  0.
    3000001    1    3    3    0    0 -0.82775977346E-01  0.22430344749E+02  0.11213430870E+02  0.25097176122E+02  0.10000000000E+01 0.  1.
    1000022    2    1    0    0    0 -0.11952051456E+02  0.54935845007E+02  0.25405734588E+02  0.62499999974E+02  0.10000002306E+02 0.  0.
    3000022    2    3    3    0    0 -0.11869275478E+02  0.32505500258E+02  0.14192303718E+02  0.37402823852E+02  0.24999971541E+00 0.  0.
    1000022    2    1    0    0    0  0.11952051456E+02 -0.54935845007E+02 -0.25405734588E+02  0.62500000026E+02  0.10000002634E+02 0.  0.
    3000022    2    5    5    0    0  0.60312255517E+01 -0.95212937352E+01 -0.56821474953E+01  0.12624579883E+02  0.25000205740E+00 0.  0.
        -13    1    4    4    0    0 -0.69414089241E+01  0.19185528475E+02  0.83909924520E+01  0.22060993632E+02  0.10500000000E+00 0.  1.
         13    1    4    4    0    0 -0.49278665542E+01  0.13319971784E+02  0.58013112663E+01  0.15341830220E+02  0.10500000000E+00 0. -1.
    3000001    1    5    5    0    0  0.59208259040E+01 -0.45414551272E+02 -0.19723587093E+02  0.49875420143E+02  0.10000000000E+01 0.  1.
        -13    1    6    6    0    0  0.36792708004E+01 -0.56912930322E+01 -0.34094199761E+01  0.75870296938E+01  0.10500000000E+00 0. -1.
         13    1    6    6    0    0  0.23519547513E+01 -0.38300007030E+01 -0.22727275192E+01  0.50375501897E+01  0.10500000000E+00 0.  1.
</event>
<event>
11    0  0.3439373E-009  0.9118800E+02  0.7816531E-02  0.1126479E+00
         25   -1    0    0    0    0  0.00000000000E+00  0.00000000000E+00  0.99999998245E-14  0.12500000000E+03  0.12500000000E+03 0.  0.
    3000001    1    3    3    0    0  0.48693016752E+02  0.37063101170E+02  0.68523284946E+01  0.61584395382E+02  0.10000000000E+01 0.  1.
    1000022    2    1    0    0    0  0.48330730290E+02  0.37789103312E+02  0.65095427123E+01  0.62500000343E+02  0.10000003854E+02 0.  0.
    3000022    2    3    3    0    0 -0.36228646248E+00  0.72600214233E+00 -0.34278578230E+00  0.91560496111E+00  0.24999952137E+00 0.  0.
    1000022    2    1    0    0    0 -0.48330730290E+02 -0.37789103312E+02 -0.65095427123E+01  0.62499999657E+02  0.99999995679E+01 0.  0.
    3000022    2    5    5    0    0 -0.24362553604E+02 -0.25245791609E+02 -0.40596944461E+01  0.35318941572E+02  0.25000536910E+00 0.  0.
        -13    1    4    4    0    0 -0.18053983897E+00  0.26814663120E+00 -0.87694158847E-01  0.35101640243E+00  0.10500000000E+00 0.  1.
         13    1    4    4    0    0 -0.18174662351E+00  0.45785551114E+00 -0.25509162345E+00  0.56458855868E+00  0.10500000000E+00 0. -1.
    3000001    1    5    5    0    0 -0.23968176686E+02 -0.12543311703E+02 -0.24498482663E+01  0.27181058085E+02  0.10000000000E+01 0.  1.
        -13    1    6    6    0    0 -0.11444305847E+02 -0.11794692170E+02 -0.18510269914E+01  0.16538567823E+02  0.10500000000E+00 0.  1.
         13    1    6    6    0    0 -0.12918247757E+02 -0.13451099438E+02 -0.22086674547E+01  0.18780373748E+02  0.10500000000E+00 0. -1.
</event>
<event>
11    0  0.3439373E-009  0.9118800E+02  0.7816531E-02  0.1126479E+00
         25   -1    0    0    0    0  0.00000000000E+00  0.00000000000E+00  0.99999998245E-14  0.12500000000E+03  0.12500000000E+03 0.  0.
    3000001    1    3    3    0    0 -0.25849222499E+02 -0.37543058695E+01 -0.20829191728E+02  0.33423529801E+02  0.10000000000E+01 0. -1.
    1000022    2    1    0    0    0 -0.50844515467E+02 -0.13045142200E+02 -0.32417728841E+02  0.62499997871E+02  0.10000005131E+02 0.  0.
    3000022    2    3    3    0    0 -0.24995292968E+02 -0.92908363303E+01 -0.11588537113E+02  0.29076468070E+02  0.24998541771E+00 0.  0.
    1000022    2    1    0    0    0  0.50844515467E+02  0.13045142200E+02  0.32417728841E+02  0.62500002129E+02  0.10000031742E+02 0.  0.
    3000022    2    5    5    0    0  0.75120019174E+01  0.30588618416E+01  0.93982588118E+01  0.12416786115E+02  0.25000030711E+00 0.  0.
        -13    1    4    4    0    0 -0.10703972120E+02 -0.40479618461E+01 -0.49641064940E+01  0.12474549793E+02  0.10500000000E+00 0.  1.
         13    1    4    4    0    0 -0.14291320848E+02 -0.52428744842E+01 -0.66244306190E+01  0.16601918276E+02  0.10500000000E+00 0. -1.
    3000001    1    5    5    0    0  0.43332513549E+02  0.99862803582E+01  0.23019470029E+02  0.50083216014E+02  0.10000000000E+01 0. -1.
        -13    1    6    6    0    0  0.39439658776E+01  0.16235667877E+01  0.50420050414E+01  0.66048221622E+01  0.10500000000E+00 0.  1.
         13    1    6    6    0    0  0.35680360398E+01  0.14352950539E+01  0.43562537705E+01  0.58119639526E+01  0.10500000000E+00 0. -1.
</event>
<event>
11    0  0.3439373E-009  0.9118800E+02  0.7816531E-02  0.1126479E+00
         25   -1    0    0    0    0  0.00000000000E+00  0.00000000000E+00  0.99999998245E-14  0.12500000000E+03  0.12500000000E+03 0.  0.
    3000001    1    3    3    0    0  0.26697317784E+02  0.32645739135E+02  0.51375860291E+01  0.42495715675E+02  0.10000000000E+01 0.  1.
    1000022    2    1    0    0    0  0.35481627225E+02  0.48723261418E+02  0.13166160314E+02  0.62499998489E+02  0.99999979975E+01 0.  0.
    3000022    2    3    3    0    0  0.87843094407E+01  0.16077522283E+02  0.80285742854E+01  0.20004282814E+02  0.25002144565E+00 0.  0.
    1000022    2    1    0    0    0 -0.35481627225E+02 -0.48723261418E+02 -0.13166160314E+02  0.62500001511E+02  0.10000016884E+02 0.  0.
    3000022    2    5    5    0    0 -0.16149620752E+02 -0.17401310635E+02 -0.92151061461E+01  0.25467557571E+02  0.24989015104E+00 0.  0.
        -13    1    4    4    0    0  0.23786676032E+01  0.42842153715E+01  0.21358700785E+01  0.53465434542E+01  0.10500000000E+00 0. -1.
         13    1    4    4    0    0  0.64056418375E+01  0.11793306911E+02  0.58927042069E+01  0.14657739359E+02  0.10500000000E+00 0.  1.
    3000001    1    5    5    0    0 -0.19332006473E+02 -0.31321950783E+02 -0.39510541683E+01  0.37032443940E+02  0.10000000000E+01 0. -1.
        -13    1    6    6    0    0 -0.55249912757E+01 -0.60189908531E+01 -0.32065229287E+01  0.87776189128E+01  0.10500000000E+00 0.  1.
         13    1    6    6    0    0 -0.10624629477E+02 -0.11382319782E+02 -0.60085832175E+01  0.16689938658E+02  0.10500000000E+00 0. -1.
</event>
<event>
11    0  0.3439373E-009  0.9118800E+02  0.7816531E-02  0.1126479E+00
         25   -1    0    0    0    0  0.00000000000E+00  0.00000000000E+00  0.99999998245E-14  0.12500000000E+03  0.12500000000E+03 0.  0.
    3000001    1    3    3    0    0  0.19811986841E+01  0.26317374464E+02  0.46340056143E+02  0.53337886631E+02  0.10000000000E+01 0.  1.
    1000022    2    1    0    0    0  0.91803560925E+00  0.27133568535E+02  0.55400151102E+02  0.62499999531E+02  0.99999934201E+01 0.  0.
    3000022    2    3    3    0    0 -0.10631630748E+01  0.81619407075E+00  0.90600949591E+01  0.91621129000E+01  0.25000727859E+00 0.  0.
    1000022    2    1    0    0    0 -0.91803560925E+00 -0.27133568535E+02 -0.55400151102E+02  0.62500000469E+02  0.99999992819E+01 0.  0.
    3000022    2    5    5    0    0  0.66512474266E+00 -0.18564445393E+02 -0.46166604655E+02  0.49764434203E+02  0.25000499261E+00 0.  0.
        -13    1    4    4    0    0 -0.57381855750E+00  0.42101132412E+00  0.52411141820E+01  0.52902571904E+01  0.10500000000E+00 0.  1.
         13    1    4    4    0    0 -0.48934451731E+00  0.39518274663E+00  0.38189807771E+01  0.38718557096E+01  0.10500000000E+00 0. -1.
    3000001    1    5    5    0    0 -0.15831603519E+01 -0.85691231420E+01 -0.92335464477E+01  0.12735566266E+02  0.10000000000E+01 0.  1.
        -13    1    6    6    0    0  0.48329141412E+00 -0.11865936568E+02 -0.29504106984E+02  0.31804675366E+02  0.10500000000E+00 0.  1.
         13    1    6    6    0    0  0.18183332855E+00 -0.66985088250E+01 -0.16662497670E+02  0.17959758836E+02  0.10500000000E+00 0. -1.
</event>
<event>
11    0  0.3439373E-009  0.9118800E+02  0.7816531E-02  0.1126479E+00
         25   -1    0    0    0    0  0.00000000000E+00  0.00000000000E+00  0.99999998245E-14  0.12500000000E+03  0.12500000000E+03 0.  0.
    3000001    1    3    3    0    0 -0.42015811135E+00  0.17203228667E+02  0.55159207954E+01  0.18098425115E+02  0.10000000000E+01 0. -1.
    1000022    2    1    0    0    0  0.13766807370E+02  0.57237026193E+02  0.18456648172E+02  0.62500000101E+02  0.99999999143E+01 0.  0.
    3000022    2    3    3    0    0  0.14186965482E+02  0.40033797525E+02  0.12940727377E+02  0.44401574986E+02  0.25000460654E+00 0.  0.
    1000022    2    1    0    0    0 -0.13766807370E+02 -0.57237026193E+02 -0.18456648172E+02  0.62499999899E+02  0.99999986564E+01 0.  0.
    3000022    2    5    5    0    0 -0.10524555917E+02 -0.38902739524E+02 -0.17179204287E+02  0.43810694802E+02  0.24999878539E+00 0.  0.
        -13    1    4    4    0    0  0.50329466468E+01  0.14144213441E+02  0.46303272637E+01  0.15711151497E+02  0.10500000000E+00 0. -1.
         13    1    4    4    0    0  0.91540188347E+01  0.25889584085E+02  0.83104001129E+01  0.28690423488E+02  0.10500000000E+00 0.  1.
    3000001    1    5    5    0    0 -0.32422514530E+01 -0.18334286669E+02 -0.12774438850E+01  0.18689305097E+02  0.10000000000E+01 0.  1.
        -13    1    6    6    0    0 -0.26259711042E+01 -0.96330068617E+01 -0.42735782294E+01  0.10861171268E+02  0.10500000000E+00 0.  1.
         13    1    6    6    0    0 -0.78985848130E+01 -0.29269732662E+02 -0.12905626058E+02  0.32949523534E+02  0.10500000000E+00 0. -1.
</event>
<event>
11    0  0.3439373E-009  0.9118800E+02  0.7816531E-02  0.1126479E+00
         25   -1    0    0    0    0  0.00000000000E+00  0.00000000000E+00  0.99999998245E-14  0.12500000000E+03  0.12500000000E+03 0.  0.
    3000001    1    3    3    0    0  0.30381963071E+02 -0.30292118241E+02 -0.21548225726E+02  0.48020851091E+02  0.10000000000E+01 0. -1.
    1000022    2    1    0    0    0  0.41776799730E+02 -0.34632143793E+02 -0.29352401776E+02  0.62500001224E+02  0.10000014175E+02 0.  0.
    3000022    2    3    3    0    0  0.11394836659E+02 -0.43400255524E+01 -0.78041760505E+01  0.14479150132E+02  0.25000090498E+00 0.  0.
    1000022    2    1    0    0    0 -0.41776799730E+02  0.34632143793E+02  0.29352401776E+02  0.62499998776E+02  0.99999988779E+01 0.  0.
    3000022    2    5    5    0    0 -0.24623318652E+02  0.25521818330E+02  0.21847008100E+02  0.41653635127E+02  0.25004814374E+00 0.  0.
        -13    1    4    4    0    0  0.73000311883E+01 -0.28147554735E+01 -0.49499158669E+01  0.92588333939E+01  0.10500000000E+00 0. -1.
         13    1    4    4    0    0  0.40948054705E+01 -0.15252700789E+01 -0.28542601836E+01  0.52203167386E+01  0.10500000000E+00 0.  1.
    3000001    1    5    5    0    0 -0.17153481078E+02  0.91103254633E+01  0.75053936762E+01  0.20846363649E+02  0.10000000000E+01 0. -1.
        -13    1    6    6    0    0 -0.14561979786E+02  0.15137649787E+02  0.12873960672E+02  0.24636346822E+02  0.10500000000E+00 0.  1.
         13    1    6    6    0    0 -0.10061338866E+02  0.10384168543E+02  0.89730474286E+01  0.17017288305E+02  0.10500000000E+00 0. -1.
</event>
<event>
11    0  0.3439373E-009  0.9118800E+02  0.7816531E-02  0.1126479E+00
         25   -1    0    0    0    0  0.00000000000E+00  0.00000000000E+00  0.99999998245E-14  0.12500000000E+03  0.12500000000E+03 0.  0.
    3000001    1    3    3    0    0  0.23228921015E+02 -0.17155283805E+02  0.13167017763E+02  0.31753061124E+02  0.10000000000E+01 0.  1.
    1000022    2    1    0    0    0  0.38802297117E+02 -0.35161757492E+02  0.32623341531E+02  0.62499998693E+02  0.99999986277E+01 0.  0.
    3000022    2    3    3    0    0  0.15573376103E+02 -0.18006473686E+02  0.19456323767E+02  0.30746937570E+02  0.24999503158E+00 0.  0.
    1000022    2    1    0    0    0 -0.38802297117E+02  0.35161757492E+02 -0.32623341531E+02  0.62500001307E+02  0.10000014961E+02 0.  0.
    3000022    2    5    5    0    0 -0.24224673757E+02  0.18649781970E+02 -0.23826857281E+02  0.38761202398E+02  0.24999458760E+00 0.  0.
        -13    1    4    4    0    0  0.11263277570E+02 -0.13007251912E+02  0.14109573815E+02  0.22251766720E+02  0.10500000000E+00 0. -1.
         13    1    4    4    0    0  0.43100985327E+01 -0.49992217742E+01  0.53467499521E+01  0.84951708493E+01  0.10500000000E+00 0.  1.
    3000001    1    5    5    0    0 -0.14577623360E+02  0.16511975522E+02 -0.87964842495E+01  0.23738798909E+02  0.10000000000E+01 0. -1.
        -13    1    6    6    0    0 -0.80739030166E+01  0.62355635520E+01 -0.80159322146E+01  0.12974450162E+02  0.10500000000E+00 0.  1.
         13    1    6    6    0    0 -0.16150770740E+02  0.12414218418E+02 -0.15810925067E+02  0.25786752236E+02  0.10500000000E+00 0. -1.
</event>
<event>
11    0  0.3439373E-009  0.9118800E+02  0.7816531E-02  0.1126479E+00
         25   -1    0    0    0    0  0.00000000000E+00  0.00000000000E+00  0.99999998245E-14  0.12500000000E+03  0.12500000000E+03 0.  0.
    3000001    1    3    3    0    0  0.28107482182E+02  0.73357171428E+01 -0.38406479505E+02  0.48165350291E+02  0.10000000000E+01 0. -1.
    1000022    2    1    0    0    0  0.37453863965E+02  0.42909600972E+01 -0.48836929152E+02  0.62499999879E+02  0.10000003569E+02 0.  0.
    3000022    2    3    3    0    0  0.93463817830E+01 -0.30447570457E+01 -0.10430449647E+02  0.14334649588E+02  0.25000217125E+00 0.  0.
    1000022    2    1    0    0    0 -0.37453863965E+02 -0.42909600972E+01  0.48836929152E+02  0.62500000121E+02  0.10000005084E+02 0.  0.
    3000022    2    5    5    0    0 -0.16278955521E+01  0.20003244785E+01  0.27295135012E+01  0.37635203805E+01  0.24999950603E+00 0.  0.
        -13    1    4    4    0    0  0.32005315886E+01 -0.10153236373E+01 -0.34930513905E+01  0.48463096842E+01  0.10500000000E+00 0. -1.
         13    1    4    4    0    0  0.61458501944E+01 -0.20294334083E+01 -0.69373982561E+01  0.94883399041E+01  0.10500000000E+00 0.  1.
    3000001    1    5    5    0    0 -0.35825968413E+02 -0.62912845757E+01  0.46107415651E+02  0.58736479741E+02  0.10000000000E+01 0.  1.
        -13    1    6    6    0    0 -0.10007221798E+01  0.12738874924E+01  0.16340321531E+01  0.23033280925E+01  0.10500000000E+00 0.  1.
         13    1    6    6    0    0 -0.62717337236E+00  0.72643698616E+00  0.10954813482E+01  0.14601922880E+01  0.10500000000E+00 0. -1.
</event>
<event>
11    0  0.3439373E-009  0.9118800E+02  0.7816531E-02  0.1126479E+00
         25   -1    0    0    0    0  0.00000000000E+00  0.00000000000E+00  0.99999998245E-14  0.12500000000E+03  0.12500000000E+03 0.  0.
    3000001    1    3    3    0    0  0.11678910524E+02  0.37951870358E+02 -0.30660722940E+02  0.50177896986E+02  0.10000000000E+01 0.  1.
    1000022    2    1    0    0    0  0.10193425439E+02  0.48733193939E+02 -0.36433773107E+02  0.62499999124E+02  0.99999976962E+01 0.  0.
    3000022    2    3    3    0    0 -0.14854850844E+01  0.10781323581E+02 -0.57730501677E+01  0.12322102138E+02  0.24997754286E+00 0.  0.
    1000022    2    1    0    0    0 -0.10193425439E+02 -0.48733193939E+02  0.36433773107E+02  0.62500000876E+02  0.10000008649E+02 0.  0.
    3000022    2    5    5    0    0 -0.45366416534E+01 -0.15056468416E+02  0.62860960479E+01  0.16936819722E+02  0.25000026647E+00 0.  0.
        -13    1    4    4    0    0 -0.92521408379E+00  0.65544562674E+01 -0.35768322679E+01  0.75247373466E+01  0.10500000000E+00 0. -1.
         13    1    4    4    0    0 -0.56027100064E+00  0.42268673133E+01 -0.21962178998E+01  0.47973647914E+01  0.10500000000E+00 0.  1.
    3000001    1    5    5    0    0 -0.56567837858E+01 -0.33676725523E+02  0.30147677060E+02  0.45563181154E+02  0.10000000000E+01 0.  1.
        -13    1    6    6    0    0 -0.21688276778E+01 -0.69796698914E+01  0.28963189523E+01  0.78625246430E+01  0.10500000000E+00 0.  1.
         13    1    6    6    0    0 -0.23678139757E+01 -0.80767985245E+01  0.33897770956E+01  0.90742950793E+01  0.10500000000E+00 0. -1.
</event>
<event>
11    0  0.3439373E-009  0.9118800E+02  0.7816531E-02  0.1126479E+00
         25   -1    0    0    0    0  0.00000000000E+00  0.00000000000E+00  0.99999998245E-14  0.12500000000E+03  0.12500000000E+03 0.  0.
    3000001    1    3    3    0    0  0.38849593784E+01  0.54711228474E+01 -0.21061955421E+02  0.22127631160E+02  0.10000000000E+01 0.  1.
    1000022    2    1    0    0    0  0.23410756194E+02  0.12673511463E+02 -0.55655806063E+02  0.62499999770E+02  0.99999912160E+01 0.  0.
    3000022    2    3    3    0    0  0.19525796816E+02  0.72023886154E+01 -0.34593850642E+02  0.40372368610E+02  0.25000377178E+00 0.  0.
    1000022    2    1    0    0    0 -0.23410756194E+02 -0.12673511463E+02  0.55655806063E+02  0.62500000230E+02  0.99999940896E+01 0.  0.
    3000022    2    5    5    0    0 -0.22297635609E+02 -0.13787503553E+02  0.48819866188E+02  0.55414092399E+02  0.24998758541E+00 0.  0.
        -13    1    4    4    0    0  0.73192847597E+01  0.26874565649E+01 -0.12846594026E+02  0.15027985735E+02  0.10500000000E+00 0.  1.
         13    1    4    4    0    0  0.12206512056E+02  0.45149320506E+01 -0.21747256616E+02  0.25344382875E+02  0.10500000000E+00 0. -1.
    3000001    1    5    5    0    0 -0.11131205852E+01  0.11139920897E+01  0.68359398753E+01  0.70859078311E+01  0.10000000000E+01 0. -1.
        -13    1    6    6    0    0 -0.10380139501E+02 -0.64877972487E+01  0.22726485043E+02  0.25813619595E+02  0.10500000000E+00 0. -1.
         13    1    6    6    0    0 -0.11917496108E+02 -0.72997063038E+01  0.26093381145E+02  0.29600472804E+02  0.10500000000E+00 0.  1.
</event>
<event>
11    0  0.3439373E-009  0.9118800E+02  0.7816531E-02  0.1126479E+00
         25   -1    0    0    0    0  0.00000000000E+00  0.00000000000E+00  0.99999998245E-14  0.12500000000E+03  0.12500000000E+03 0.  0.
    3000001    1    3    3    0    0 -0.94484377500E+01  0.15474991665E+02  0.11714257174E+02  0.21609538729E+02  0.10000000000E+01 0.  1.
    1000022    2    1    0    0    0 -0.28626589697E+02  0.50222679930E+02  0.21551122618E+02  0.62499999406E+02  0.99999911316E+01 0.  0.
    3000022    2    3    3    0    0 -0.19178151947E+02  0.34747688265E+02  0.98368654435E+01  0.40890460677E+02  0.25000147233E+00 0.  0.
    1000022    2    1    0    0    0  0.28626589697E+02 -0.50222679930E+02 -0.21551122618E+02  0.62500000594E+02  0.99999985584E+01 0.  0.
    3000022    2    5    5    0    0  0.27155064193E+01 -0.10665448408E+02 -0.14361399322E+01  0.11101835931E+02  0.24999655587E+00 0.  0.
        -13    1    4    4    0    0 -0.97000937565E+01  0.17532753859E+02  0.50328354730E+01  0.20659858050E+02  0.10500000000E+00 0. -1.
         13    1    4    4    0    0 -0.94780581905E+01  0.17214934406E+02  0.48040299705E+01  0.20230602627E+02  0.10500000000E+00 0.  1.
    3000001    1    5    5    0    0  0.25911083278E+02 -0.39557231522E+02 -0.20114982685E+02  0.51398164663E+02  0.10000000000E+01 0. -1.
        -13    1    6    6    0    0  0.16996404105E+01 -0.65689223182E+01 -0.82953241995E+00  0.68365683631E+01  0.10500000000E+00 0. -1.
         13    1    6    6    0    0  0.10158660088E+01 -0.40965260898E+01 -0.60660751222E+00  0.42652675680E+01  0.10500000000E+00 0.  1.
</event>
<event>
11    0  0.3439373E-009  0.9118800E+02  0.7816531E-02  0.1126479E+00
         25   -1    0    0    0    0  0.00000000000E+00  0.00000000000E+00  0.99999998245E-14  0.12500000000E+03  0.12500000000E+03 0.  0.
    3000001    1    3    3    0    0  0.19531398618E+02  0.18461762963E+01  0.80186484560E+01  0.21217507440E+02  0.10000000000E+01 0.  1.
    1000022    2    1    0    0    0  0.52145290675E+02 -0.32288020929E+01  0.32813009124E+02  0.62499999904E+02  0.99999958860E+01 0.  0.
    3000022    2    3    3    0    0  0.32613892056E+02 -0.50749783892E+01  0.24794360668E+02  0.41282492464E+02  0.25000477445E+00 0.  0.
    1000022    2    1    0    0    0 -0.52145290675E+02  0.32288020929E+01 -0.32813009124E+02  0.62500000096E+02  0.99999970855E+01 0.  0.
    3000022    2    5    5    0    0 -0.48165308718E+02  0.28284146899E+01 -0.32861245425E+02  0.58376543634E+02  0.25000457846E+00 0.  0.
        -13    1    4    4    0    0  0.16870581710E+02 -0.25879532099E+01  0.12892413209E+02  0.21390169995E+02  0.10500000000E+00 0. -1.
         13    1    4    4    0    0  0.15743310347E+02 -0.24870251793E+01  0.11901947459E+02  0.19892322470E+02  0.10500000000E+00 0.  1.
    3000001    1    5    5    0    0 -0.39799819569E+01  0.40038740304E+00  0.48236300647E-01  0.41234564615E+01  0.10000000000E+01 0. -1.
        -13    1    6    6    0    0 -0.23500640337E+02  0.14300892545E+01 -0.15980179375E+02  0.28455270327E+02  0.10500000000E+00 0. -1.
         13    1    6    6    0    0 -0.24664668381E+02  0.13983254354E+01 -0.16881066050E+02  0.29921273308E+02  0.10500000000E+00 0.  1.
</event>
<event>
11    0  0.3439373E-009  0.9118800E+02  0.7816531E-02  0.1126479E+00
         25   -1    0    0    0    0  0.00000000000E+00  0.00000000000E+00  0.99999998245E-14  0.12500000000E+03  0.12500000000E+03 0.  0.
    3000001    1    3    3    0    0  0.17144218271E+02  0.38124137494E+02  0.31246647159E+02  0.52198917982E+02  0.10000000000E+01 0.  1.
    1000022    2    1    0    0    0  0.22273351474E+02  0.42050695389E+02  0.39266869101E+02  0.62500001798E+02  0.10000002359E+02 0.  0.
    3000022    2    3    3    0    0  0.51291332028E+01  0.39265578944E+01  0.80202219421E+01  0.10301083816E+02  0.25000694301E+00 0.  0.
    1000022    2    1    0    0    0 -0.22273351474E+02 -0.42050695389E+02 -0.39266869101E+02  0.62499998202E+02  0.99999798893E+01 0.  0.
    3000022    2    5    5    0    0 -0.12173377772E+02 -0.16599712192E+02 -0.21914960784E+02  0.30067749797E+02  0.25000080965E+00 0.  0.
        -13    1    4    4    0    0  0.13939185392E+01  0.10436520283E+01  0.22135384450E+01  0.28183321127E+01  0.10500000000E+00 0. -1.
         13    1    4    4    0    0  0.37352146636E+01  0.28829058661E+01  0.58066834971E+01  0.74827517032E+01  0.10500000000E+00 0.  1.
    3000001    1    5    5    0    0 -0.10099973702E+02 -0.25450983196E+02 -0.17351908316E+02  0.32432248406E+02  0.10000000000E+01 0. -1.
        -13    1    6    6    0    0 -0.55675836251E+01 -0.74812921817E+01 -0.99087053540E+01  0.13607394568E+02  0.10500000000E+00 0. -1.
         13    1    6    6    0    0 -0.66057941471E+01 -0.91184200106E+01 -0.12006255430E+02  0.16460355229E+02  0.10500000000E+00 0.  1.
</event>
<event>
11    0  0.3439373E-009  0.9118800E+02  0.7816531E-02  0.1126479E+00
         25   -1    0    0    0    0  0.00000000000E+00  0.00000000000E+00  0.99999998245E-14  0.12500000000E+03  0.12500000000E+03 0.  0.
    3000001    1    3    3    0    0 -0.76178556485E+00 -0.15099337768E+01 -0.10554983484E+01  0.22303125387E+01  0.10000000000E+01 0.  1.
    1000022    2    1    0    0    0 -0.56339807045E+02 -0.22131339576E+02 -0.11928077070E+02  0.62499992454E+02  0.99999992442E+01 0.  0.
    3000022    2    3    3    0    0 -0.55578021480E+02 -0.20621405799E+02 -0.10872578722E+02  0.60269679916E+02  0.25000052780E+00 0.  0.
    1000022    2    1    0    0    0  0.56339807045E+02  0.22131339576E+02  0.11928077070E+02  0.62500007546E+02  0.10000093565E+02 0.  0.
    3000022    2    5    5    0    0  0.51199436563E+02  0.22832135888E+02  0.11174703872E+02  0.57163145608E+02  0.24995122931E+00 0.  0.
        -13    1    4    4    0    0 -0.22115611783E+02 -0.82131377416E+01 -0.42634189999E+01  0.23973812435E+02  0.10500000000E+00 0. -1.
         13    1    4    4    0    0 -0.33462409697E+02 -0.12408268057E+02 -0.66091597218E+01  0.36295867480E+02  0.10500000000E+00 0.  1.
    3000001    1    5    5    0    0  0.51403704821E+01 -0.70079631203E+00  0.75337319855E+00  0.53368619376E+01  0.10000000000E+01 0.  1.
        -13    1    6    6    0    0  0.19603905730E+02  0.88067714117E+01  0.43008303961E+01  0.21917584485E+02  0.10500000000E+00 0. -1.
         13    1    6    6    0    0  0.31595530833E+02  0.14025364476E+02  0.68738734754E+01  0.35245561123E+02  0.10500000000E+00 0.  1.
</event>
<event>
11    0  0.3439373E-009  0.9118800E+02  0.7816531E-02  0.1126479E+00
         25   -1    0    0    0    0  0.00000000000E+00  0.00000000000E+00  0.99999998245E-14  0.12500000000E+03  0.12500000000E+03 0.  0.
    3000001    1    3    3    0    0 -0.16622914460E+02 -0.83280058980E+01 -0.18178649048E+01  0.18707795172E+02  0.10000000000E+01 0. -1.
    1000022    2    1    0    0    0 -0.46894005037E+02 -0.37856182967E+02 -0.13195145916E+02  0.62499999830E+02  0.99999902879E+01 0.  0.
    3000022    2    3    3    0    0 -0.30271090577E+02 -0.29528177069E+02 -0.11377281011E+02  0.43792204658E+02  0.24999971789E+00 0.  0.
    1000022    2    1    0    0    0  0.46894005037E+02  0.37856182967E+02  0.13195145916E+02  0.62500000170E+02  0.99999924071E+01 0.  0.
    3000022    2    5    5    0    0  0.39537838154E+02  0.34931481966E+02  0.13687725875E+02  0.54505645775E+02  0.25000705426E+00 0.  0.
        -13    1    4    4    0    0 -0.15261746130E+02 -0.14822621408E+02 -0.57753329461E+01  0.22045328213E+02  0.10500000000E+00 0. -1.
         13    1    4    4    0    0 -0.15009344447E+02 -0.14705555661E+02 -0.56019480650E+01  0.21746876446E+02  0.10500000000E+00 0.  1.
    3000001    1    5    5    0    0  0.73561668837E+01  0.29247010012E+01 -0.49257995867E+00  0.79943543944E+01  0.10000000000E+01 0.  1.
        -13    1    6    6    0    0  0.20207178660E+02  0.17930008480E+02  0.69722047777E+01  0.27900500676E+02  0.10500000000E+00 0.  1.
         13    1    6    6    0    0  0.19330659494E+02  0.17001473486E+02  0.67155210969E+01  0.26605145099E+02  0.10500000000E+00 0. -1.
</event>
<event>
11    0  0.3439373E-009  0.9118800E+02  0.7816531E-02  0.1126479E+00
         25   -1    0    0    0    0  0.00000000000E+00  0.00000000000E+00  0.99999998245E-14  0.12500000000E+03  0.12500000000E+03 0.  0.
    3000001    1    3    3    0    0  0.23390142224E+01 -0.39766376019E+01  0.25647413887E+01  0.53723861124E+01  0.10000000000E+01 0.  1.
    1000022    2    1    0    0    0 -0.20659754303E+01 -0.55061840043E+02  0.27752037655E+02  0.62499999951E+02  0.99999958259E+01 0.  0.
    3000022    2    3    3    0    0 -0.44049896528E+01 -0.51085202441E+02  0.25187296266E+02  0.57127613839E+02  0.25005487941E+00 0.  0.
    1000022    2    1    0    0    0  0.20659754303E+01  0.55061840043E+02 -0.27752037655E+02  0.62500000049E+02  0.99999964355E+01 0.  0.
    3000022    2    5    5    0    0  0.66271330337E+00  0.51951111421E+02 -0.27836087684E+02  0.58942916755E+02  0.24998233322E+00 0.  0.
        -13    1    4    4    0    0 -0.32824605962E+01 -0.38356466381E+02  0.18901902568E+02  0.42886897842E+02  0.10500000000E+00 0. -1.
         13    1    4    4    0    0 -0.11225290565E+01 -0.12728736061E+02  0.62853936977E+01  0.14240715997E+02  0.10500000000E+00 0.  1.
    3000001    1    5    5    0    0  0.14032621270E+01  0.31107286216E+01  0.84050028959E-01  0.35570832942E+01  0.10000000000E+01 0.  1.
        -13    1    6    6    0    0  0.29478021369E+00  0.28347766446E+02 -0.15187447473E+02  0.32161348597E+02  0.10500000000E+00 0.  1.
         13    1    6    6    0    0  0.36793308967E+00  0.23603344976E+02 -0.12648640211E+02  0.26781568158E+02  0.10500000000E+00 0. -1.
</event>
<event>
11    0  0.3439373E-009  0.9118800E+02  0.7816531E-02  0.1126479E+00
         25   -1    0    0    0    0  0.00000000000E+00  0.00000000000E+00  0.99999998245E-14  0.12500000000E+03  0.12500000000E+03 0.  0.
    3000001    1    3    3    0    0 -0.25189110917E+01  0.47827922432E+02  0.41132053438E+01  0.48080906142E+02  0.10000000000E+01 0. -1.
    1000022    2    1    0    0    0 -0.31171980813E+01  0.60701759708E+02  0.10574946777E+02  0.62499999038E+02  0.99999912422E+01 0.  0.
    3000022    2    3    3    0    0 -0.59828698960E+00  0.12873837276E+02  0.64617414337E+01  0.14419092895E+02  0.25000808781E+00 0.  0.
    1000022    2    1    0    0    0  0.31171980813E+01 -0.60701759708E+02 -0.10574946777E+02  0.62500000962E+02  0.10000003272E+02 0.  0.
    3000022    2    5    5    0    0  0.57969406708E+00 -0.56346853737E+02 -0.10712787728E+02  0.57359657319E+02  0.24999130420E+00 0.  0.
        -13    1    4    4    0    0 -0.23820329844E+00  0.46352557226E+01  0.23872636798E+01  0.52203821031E+01  0.10500000000E+00 0. -1.
         13    1    4    4    0    0 -0.36008369116E+00  0.82385815529E+01  0.40744777538E+01  0.91987107920E+01  0.10500000000E+00 0.  1.
    3000001    1    5    5    0    0  0.25375040142E+01 -0.43549059711E+01  0.13784095107E+00  0.51403436429E+01  0.10000000000E+01 0.  1.
        -13    1    6    6    0    0  0.22280572271E+00 -0.18788710293E+02 -0.36177068506E+01  0.19135414935E+02  0.10500000000E+00 0.  1.
         13    1    6    6    0    0  0.35688834437E+00 -0.37558143443E+02 -0.70950808779E+01  0.38224242384E+02  0.10500000000E+00 0. -1.
</event>
<event>
11    0  0.3439373E-009  0.9118800E+02  0.7816531E-02  0.1126479E+00
         25   -1    0    0    0    0  0.00000000000E+00  0.00000000000E+00  0.99999998245E-14  0.12500000000E+03  0.12500000000E+03 0.  0.
    3000001    1    3    3    0    0  0.10021058787E+02  0.24514185311E+00 -0.11414645970E+02  0.15224186559E+02  0.10000000000E+01 0.  1.
    1000022    2    1    0    0    0  0.51647930324E+02  0.39812584116E+01 -0.33509560864E+02  0.62500002451E+02  0.10000025587E+02 0.  0.
    3000022    2    3    3    0    0  0.41626871537E+02  0.37361165585E+01 -0.22094914893E+02  0.47275815892E+02  0.25000643979E+00 0.  0.
    1000022    2    1    0    0    0 -0.51647930324E+02 -0.39812584116E+01  0.33509560864E+02  0.62499997549E+02  0.99999949503E+01 0.  0.
    3000022    2    5    5    0    0 -0.46222644053E+02 -0.43993963689E+01  0.26139231818E+02  0.53284232756E+02  0.25001740999E+00 0.  0.
        -13    1    4    4    0    0  0.20055513941E+02  0.18615148360E+01 -0.10680682560E+02  0.22798615789E+02  0.10500000000E+00 0.  1.
         13    1    4    4    0    0  0.21571357596E+02  0.18746017224E+01 -0.11414232333E+02  0.24477200103E+02  0.10500000000E+00 0. -1.
    3000001    1    5    5    0    0 -0.54252862717E+01  0.41813795731E+00  0.73703290455E+01  0.92157647930E+01  0.10000000000E+01 0. -1.
        -13    1    6    6    0    0 -0.26280595558E+02 -0.24809705615E+01  0.14932364764E+02  0.30328393631E+02  0.10500000000E+00 0.  1.
         13    1    6    6    0    0 -0.19942048495E+02 -0.19184258074E+01  0.11206867054E+02  0.22955839125E+02  0.10500000000E+00 0. -1.
</event>
<event>
11    0  0.3439373E-009  0.9118800E+02  0.7816531E-02  0.1126479E+00
         25   -1    0    0    0    0  0.00000000000E+00  0.00000000000E+00  0.99999998245E-14  0.12500000000E+03  0.12500000000E+03 0.  0.
    3000001    1    3    3    0    0 -0.17162541157E+02  0.20937290366E+02 -0.47231418491E+02  0.54449332774E+02  0.10000000000E+01 0. -1.
    1000022    2    1    0    0    0 -0.19338833847E+02  0.27080637934E+02 -0.51950926797E+02  0.62499998949E+02  0.99999814062E+01 0.  0.
    3000022    2    3    3    0    0 -0.21762926895E+01  0.61433475676E+01 -0.47195083063E+01  0.80506661755E+01  0.24999601880E+00 0.  0.
    1000022    2    1    0    0    0  0.19338833847E+02 -0.27080637934E+02  0.51950926797E+02  0.62500001051E+02  0.99999945425E+01 0.  0.
    3000022    2    5    5    0    0  0.21063578240E+01 -0.53947992312E+01  0.16572483267E+02  0.17557058371E+02  0.24998997587E+00 0.  0.
        -13    1    4    4    0    0 -0.10635165337E+01  0.30989130075E+01 -0.24459690334E+01  0.40900022931E+01  0.10500000000E+00 0.  1.
         13    1    4    4    0    0 -0.11127761558E+01  0.30444345601E+01 -0.22735392729E+01  0.39606638824E+01  0.10500000000E+00 0. -1.
    3000001    1    5    5    0    0  0.17232476023E+02 -0.21685838703E+02  0.35378443530E+02  0.44942942680E+02  0.10000000000E+01 0. -1.
        -13    1    6    6    0    0  0.83603964643E+00 -0.19779022653E+01  0.61614242870E+01  0.65257362731E+01  0.10500000000E+00 0. -1.
         13    1    6    6    0    0  0.12703181776E+01 -0.34168969659E+01  0.10411058980E+02  0.11031322098E+02  0.10500000000E+00 0.  1.
</event>
<event>
11    0  0.3439373E-009  0.9118800E+02  0.7816531E-02  0.1126479E+00
         25   -1    0    0    0    0  0.00000000000E+00  0.00000000000E+00  0.99999998245E-14  0.12500000000E+03  0.12500000000E+03 0.  0.
    3000001    1    3    3    0    0  0.14470849055E+02  0.29064219490E+02 -0.35931145481E+01  0.32680954684E+02  0.10000000000E+01 0.  1.
    1000022    2    1    0    0    0  0.30791694245E+02  0.53431411332E+02  0.17904614794E+01  0.62499999204E+02  0.99999998409E+01 0.  0.
    3000022    2    3    3    0    0  0.16320845189E+02  0.24367191842E+02  0.53835760275E+01  0.29819044520E+02  0.24999849764E+00 0.  0.
    1000022    2    1    0    0    0 -0.30791694245E+02 -0.53431411332E+02 -0.17904614794E+01  0.62500000796E+02  0.10000009792E+02 0.  0.
    3000022    2    5    5    0    0 -0.17088403028E+02 -0.20052769805E+02  0.21623925265E+00  0.26348365312E+02  0.25000061547E+00 0.  0.
        -13    1    4    4    0    0  0.47940991628E+01  0.72054375818E+01  0.16249557937E+01  0.88064308241E+01  0.10500000000E+00 0. -1.
         13    1    4    4    0    0  0.11526746027E+02  0.17161754260E+02  0.37586202338E+01  0.21012613695E+02  0.10500000000E+00 0.  1.
    3000001    1    5    5    0    0 -0.13703291217E+02 -0.33378641526E+02 -0.20067007321E+01  0.36151635484E+02  0.10000000000E+01 0.  1.
        -13    1    6    6    0    0 -0.93949025061E+01 -0.10925517859E+02  0.10016570551E+00  0.14410141975E+02  0.10500000000E+00 0.  1.
         13    1    6    6    0    0 -0.76935005218E+01 -0.91272519465E+01  0.11607354715E+00  0.11938223337E+02  0.10500000000E+00 0. -1.
</event>
<event>
11    0  0.3439373E-009  0.9118800E+02  0.7816531E-02  0.1126479E+00
         25   -1    0    0    0    0  0.00000000000E+00  0.00000000000E+00  0.99999998245E-14  0.12500000000E+03  0.12500000000E+03 0.  0.
    3000001    1    3    3    0    0  0.24862534700E+02  0.18080048864E+01 -0.15443425266E+02  0.29341334280E+02  0.10000000000E+01 0.  1.
    1000022    2    1    0    0    0  0.52970527607E+02  0.13454443963E+02 -0.28624315402E+02  0.62500000732E+02  0.99999901025E+01 0.  0.
    3000022    2    3    3    0    0  0.28107992907E+02  0.11646439077E+02 -0.13180890135E+02  0.33158666453E+02  0.24997545336E+00 0.  0.
    1000022    2    1    0    0    0 -0.52970527607E+02 -0.13454443963E+02  0.28624315402E+02  0.62499999268E+02  0.99999809468E+01 0.  0.
    3000022    2    5    5    0    0 -0.40838276533E+02 -0.60225946982E+01  0.20605387023E+02  0.46137630492E+02  0.24999187465E+00 0.  0.
        -13    1    4    4    0    0  0.75881422065E+01  0.31087672510E+01 -0.35685436607E+01  0.89437053186E+01  0.10500000000E+00 0.  1.
         13    1    4    4    0    0  0.20519850700E+02  0.85376718259E+01 -0.96123464747E+01  0.24214961134E+02  0.10500000000E+00 0. -1.
    3000001    1    5    5    0    0 -0.12132251074E+02 -0.74318492651E+01  0.80189283788E+01  0.16362368776E+02  0.10000000000E+01 0.  1.
        -13    1    6    6    0    0 -0.17287897668E+02 -0.25949778495E+01  0.86736111656E+01  0.19515324016E+02  0.10500000000E+00 0. -1.
         13    1    6    6    0    0 -0.23550378865E+02 -0.34276168487E+01  0.11931775857E+02  0.26622306475E+02  0.10500000000E+00 0.  1.
</event>
<event>
11    0  0.3439373E-009  0.9118800E+02  0.7816531E-02  0.1126479E+00
         25   -1    0    0    0    0  0.00000000000E+00  0.00000000000E+00  0.99999998245E-14  0.12500000000E+03  0.12500000000E+03 0.  0.
    3000001    1    3    3    0    0  0.11663199113E+02 -0.56099509919E-02  0.59178954568E+01  0.13116849151E+02  0.10000000000E+01 0. -1.
    1000022    2    1    0    0    0  0.56114087714E+02 -0.16773191423E+02  0.19393759685E+02  0.62499990993E+02  0.10000008447E+02 0.  0.
    3000022    2    3    3    0    0  0.44450888601E+02 -0.16767581472E+02  0.13475864228E+02  0.49383141842E+02  0.24999127867E+00 0.  0.
    1000022    2    1    0    0    0 -0.56114087714E+02  0.16773191423E+02 -0.19393759685E+02  0.62500009007E+02  0.10000121029E+02 0.  0.
    3000022    2    5    5    0    0 -0.36330601833E+02  0.85716339404E+01 -0.16691957282E+02  0.40890946209E+02  0.25001204982E+00 0.  0.
        -13    1    4    4    0    0  0.11324398545E+02 -0.42891135449E+01  0.34099307429E+01  0.12580824698E+02  0.10500000000E+00 0.  1.
         13    1    4    4    0    0  0.33126490057E+02 -0.12478467927E+02  0.10065933486E+02  0.36802317145E+02  0.10500000000E+00 0. -1.
    3000001    1    5    5    0    0 -0.19783485881E+02  0.82015574828E+01 -0.27018024029E+01  0.21609062797E+02  0.10000000000E+01 0.  1.
        -13    1    6    6    0    0 -0.16773006807E+02  0.38908182459E+01 -0.77190147798E+01  0.18869722789E+02  0.10500000000E+00 0.  1.
         13    1    6    6    0    0 -0.19557595026E+02  0.46808156945E+01 -0.89729425025E+01  0.22021223420E+02  0.10500000000E+00 0. -1.
</event>
<event>
11    0  0.3439373E-009  0.9118800E+02  0.7816531E-02  0.1126479E+00
         25   -1    0    0    0    0  0.00000000000E+00  0.00000000000E+00  0.99999998245E-14  0.12500000000E+03  0.12500000000E+03 0.  0.
    3000001    1    3    3    0    0 -0.43607962368E+00  0.13918887248E+01 -0.23615171204E+01  0.29503021489E+01  0.10000000000E+01 0. -1.
    1000022    2    1    0    0    0  0.28230056255E+02  0.16077597264E+02 -0.52448307485E+02  0.62499999414E+02  0.99999879372E+01 0.  0.
    3000022    2    3    3    0    0  0.28666135879E+02  0.14685708539E+02 -0.50086790365E+02  0.59549697265E+02  0.24998758471E+00 0.  0.
    1000022    2    1    0    0    0 -0.28230056255E+02 -0.16077597264E+02  0.52448307485E+02  0.62500000586E+02  0.99999952577E+01 0.  0.
    3000022    2    5    5    0    0 -0.10731385401E+02 -0.11699508720E+02  0.26195724711E+02  0.30632003421E+02  0.25000703972E+00 0.  0.
        -13    1    4    4    0    0  0.20230291530E+02  0.10324127744E+02 -0.35367600333E+02  0.42032493233E+02  0.10500000000E+00 0.  1.
         13    1    4    4    0    0  0.84358443493E+01  0.43615807952E+01 -0.14719190032E+02  0.17517204033E+02  0.10500000000E+00 0. -1.
    3000001    1    5    5    0    0 -0.17498670855E+02 -0.43780885439E+01  0.26252582774E+02  0.31867997165E+02  0.10000000000E+01 0. -1.
        -13    1    6    6    0    0 -0.63200037260E+01 -0.69677997029E+01  0.15591046942E+02  0.18209460440E+02  0.10500000000E+00 0.  1.
         13    1    6    6    0    0 -0.44113816748E+01 -0.47317090171E+01  0.10604677770E+02  0.12422542980E+02  0.10500000000E+00 0. -1.
</event>
<event>
11    0  0.3439373E-009  0.9118800E+02  0.7816531E-02  0.1126479E+00
         25   -1    0    0    0    0  0.00000000000E+00  0.00000000000E+00  0.99999998245E-14  0.12500000000E+03  0.12500000000E+03 0.  0.
    3000001    1    3    3    0    0 -0.21693654958E+02 -0.40673449491E+02 -0.30615299599E+01  0.46209491716E+02  0.10000000000E+01 0.  1.
    1000022    2    1    0    0    0 -0.24369667675E+02 -0.56237391757E+02 -0.70516347790E+01  0.62500003571E+02  0.99999979535E+01 0.  0.
    3000022    2    3    3    0    0 -0.26760127165E+01 -0.15563942266E+02 -0.39901048191E+01  0.16290511855E+02  0.24999421112E+00 0.  0.
    1000022    2    1    0    0    0  0.24369667675E+02  0.56237391757E+02  0.70516347790E+01  0.62499996429E+02  0.99999533174E+01 0.  0.
    3000022    2    5    5    0    0  0.20473474810E+02  0.53123622981E+02  0.55857855929E+01  0.57206170906E+02  0.24999924713E+00 0.  0.
        -13    1    4    4    0    0 -0.20056293352E+01 -0.11768833027E+02 -0.30017157136E+01  0.12310536222E+02  0.10500000000E+00 0.  1.
         13    1    4    4    0    0 -0.67038338130E+00 -0.37951092388E+01 -0.98838910550E+00  0.39799756327E+01  0.10500000000E+00 0. -1.
    3000001    1    5    5    0    0  0.38961928653E+01  0.31137687766E+01  0.14658491861E+01  0.52938255236E+01  0.10000000000E+01 0.  1.
        -13    1    6    6    0    0  0.14021107274E+02  0.36242879138E+02  0.38064843742E+01  0.39046614267E+02  0.10500000000E+00 0.  1.
         13    1    6    6    0    0  0.64523675357E+01  0.16880743843E+02  0.17793012186E+01  0.18159556639E+02  0.10500000000E+00 0. -1.
</event>
<event>
11    0  0.3439373E-009  0.9118800E+02  0.7816531E-02  0.1126479E+00
         25   -1    0    0    0    0  0.00000000000E+00  0.00000000000E+00  0.99999998245E-14  0.12500000000E+03  0.12500000000E+03 0.  0.
    3000001    1    3    3    0    0  0.27654324947E+02  0.11269901549E+02 -0.26957033019E+02  0.40242440264E+02  0.10000000000E+01 0. -1.
    1000022    2    1    0    0    0  0.38943914508E+02  0.23685638308E+02 -0.41576568297E+02  0.62499993181E+02  0.10000008851E+02 0.  0.
    3000022    2    3    3    0    0  0.11289589561E+02  0.12415736759E+02 -0.14619535279E+02  0.22257552918E+02  0.24999679662E+00 0.  0.
    1000022    2    1    0    0    0 -0.38943914508E+02 -0.23685638308E+02  0.41576568297E+02  0.62500006819E+02  0.10000094083E+02 0.  0.
    3000022    2    5    5    0    0 -0.18710411885E+02 -0.68866652505E+01  0.13883325824E+02  0.24296397004E+02  0.25000050372E+00 0.  0.
        -13    1    4    4    0    0  0.69238089426E+01  0.76755639159E+01 -0.89447114053E+01  0.13670124316E+02  0.10500000000E+00 0. -1.
         13    1    4    4    0    0  0.43657806184E+01  0.47401728429E+01 -0.56748238732E+01  0.85874286012E+01  0.10500000000E+00 0.  1.
    3000001    1    5    5    0    0 -0.20233502623E+02 -0.16798973057E+02  0.27693242474E+02  0.38203609815E+02  0.10000000000E+01 0. -1.
        -13    1    6    6    0    0 -0.83127875743E+01 -0.30331165677E+01  0.62368607714E+01  0.10826434808E+02  0.10500000000E+00 0. -1.
         13    1    6    6    0    0 -0.10397624311E+02 -0.38535486828E+01  0.76464650524E+01  0.13469962196E+02  0.10500000000E+00 0.  1.
</event>
<event>
11    0  0.3439373E-009  0.9118800E+02  0.7816531E-02  0.1126479E+00
         25   -1    0    0    0    0  0.00000000000E+00  0.00000000000E+00  0.99999998245E-14  0.12500000000E+03  0.12500000000E+03 0.  0.
    3000001    1    3    3    0    0  0.58433606996E+01  0.75346768058E+01 -0.48860950020E+01  0.10760582847E+02  0.10000000000E+01 0.  1.
    1000022    2    1    0    0    0  0.48697889581E+02  0.28966271713E+02 -0.24407387360E+02  0.62499999811E+02  0.10000003603E+02 0.  0.
    3000022    2    3    3    0    0  0.42854528881E+02  0.21431594907E+02 -0.19521292358E+02  0.51739416964E+02  0.25001316272E+00 0.  0.
    1000022    2    1    0    0    0 -0.48697889581E+02 -0.28966271713E+02  0.24407387360E+02  0.62500000189E+02  0.10000005963E+02 0.  0.
    3000022    2    5    5    0    0 -0.24629035032E+02 -0.99927860409E+01  0.82020590653E+01  0.27816926752E+02  0.25000313952E+00 0.  0.
        -13    1    4    4    0    0  0.28225468325E+02  0.14099869587E+02 -0.12911931179E+02  0.34091236063E+02  0.10500000000E+00 0.  1.
         13    1    4    4    0    0  0.14629060556E+02  0.73317253207E+01 -0.66093611791E+01  0.17648180902E+02  0.10500000000E+00 0. -1.
    3000001    1    5    5    0    0 -0.24068854549E+02 -0.18973485672E+02  0.16205328295E+02  0.34683073436E+02  0.10000000000E+01 0. -1.
        -13    1    6    6    0    0 -0.12076018136E+02 -0.48275245494E+01  0.40251512740E+01  0.13614259990E+02  0.10500000000E+00 0.  1.
         13    1    6    6    0    0 -0.12553016896E+02 -0.51652614915E+01  0.41769077913E+01  0.14202666763E+02  0.10500000000E+00 0. -1.
</event>
<event>
11    0  0.3439373E-009  0.9118800E+02  0.7816531E-02  0.1126479E+00
         25   -1    0    0    0    0  0.00000000000E+00  0.00000000000E+00  0.99999998245E-14  0.12500000000E+03  0.12500000000E+03 0.  0.
    3000001    1    3    3    0    0  0.71581926468E+01  0.20313699089E+01  0.36027716980E+01  0.83274335532E+01  0.10000000000E+01 0. -1.
    1000022    2    1    0    0    0  0.42781724559E+02  0.18429160616E+01  0.44413712085E+02  0.62499999478E+02  0.99999908893E+01 0.  0.
    3000022    2    3    3    0    0  0.35623531912E+02 -0.18845384737E+00  0.40810940386E+02  0.54172565925E+02  0.25000580153E+00 0.  0.
    1000022    2    1    0    0    0 -0.42781724559E+02 -0.18429160616E+01 -0.44413712085E+02  0.62500000522E+02  0.99999974155E+01 0.  0.
    3000022    2    5    5    0    0 -0.33136932888E+02 -0.54906272622E+01 -0.33055832741E+02  0.47126997349E+02  0.24998396595E+00 0.  0.
        -13    1    4    4    0    0  0.17785713541E+02 -0.10673887981E+00  0.20274369342E+02  0.26970429670E+02  0.10500000000E+00 0. -1.
         13    1    4    4    0    0  0.17837818371E+02 -0.81714967560E-01  0.20536571045E+02  0.27202136255E+02  0.10500000000E+00 0.  1.
    3000001    1    5    5    0    0 -0.96447916702E+01  0.36477112006E+01 -0.11357879344E+02  0.15373003173E+02  0.10000000000E+01 0. -1.
        -13    1    6    6    0    0 -0.18718589351E+02 -0.31625064601E+01 -0.18720092469E+02  0.26661581376E+02  0.10500000000E+00 0.  1.
         13    1    6    6    0    0 -0.14418343537E+02 -0.23281208022E+01 -0.14335740271E+02  0.20465415973E+02  0.10500000000E+00 0. -1.
</event>
<event>
11    0  0.3439373E-009  0.9118800E+02  0.7816531E-02  0.1126479E+00
         25   -1    0    0    0    0  0.00000000000E+00  0.00000000000E+00  0.99999998245E-14  0.12500000000E+03  0.12500000000E+03 0.  0.
    3000001    1    3    3    0    0  0.33346450975E+01 -0.12432240814E+01  0.13849120688E+01  0.39475872988E+01  0.10000000000E+01 0. -1.
    1000022    2    1    0    0    0  0.53521252406E+02 -0.28083479544E+02 -0.12371087314E+02  0.62499998872E+02  0.99999887646E+01 0.  0.
    3000022    2    3    3    0    0  0.50186607308E+02 -0.26840255463E+02 -0.13755999383E+02  0.58552411573E+02  0.25003122795E+00 0.  0.
    1000022    2    1    0    0    0 -0.53521252406E+02  0.28083479544E+02  0.12371087314E+02  0.62500001128E+02  0.10000002862E+02 0.  0.
    3000022    2    5    5    0    0 -0.19530898689E+02  0.60814683390E+01  0.71090156526E+01  0.21657351348E+02  0.25000619137E+00 0.  0.
        -13    1    4    4    0    0  0.24319902231E+02 -0.12963997354E+02 -0.67192168346E+01  0.28366913328E+02  0.10500000000E+00 0. -1.
         13    1    4    4    0    0  0.25866705078E+02 -0.13876258109E+02 -0.70367825480E+01  0.30185498245E+02  0.10500000000E+00 0.  1.
    3000001    1    5    5    0    0 -0.33990353717E+02  0.22002011205E+02  0.52620716611E+01  0.40842649780E+02  0.10000000000E+01 0.  1.
        -13    1    6    6    0    0 -0.56360543427E+01  0.17975777818E+01  0.20424487225E+01  0.62593143570E+01  0.10500000000E+00 0.  1.
         13    1    6    6    0    0 -0.13894844346E+02  0.42838905572E+01  0.50665669301E+01  0.15398036991E+02  0.10500000000E+00 0. -1.
</event>
<event>
11    0  0.3439373E-009  0.9118800E+02  0.7816531E-02  0.1126479E+00
         25   -1    0    0    0    0  0.00000000000E+00  0.00000000000E+00  0.99999998245E-14  0.12500000000E+03  0.12500000000E+03 0.  0.
    3000001    1    3    3    0    0 -0.31371498829E+02  0.36376427706E+01  0.17815858756E+02  0.36274070724E+02  0.10000000000E+01 0.  1.
    1000022    2    1    0    0    0 -0.54868633871E+02 -0.17212545154E+01  0.28155280452E+02  0.62499998303E+02  0.10000013528E+02 0.  0.
    3000022    2    3    3    0    0 -0.23497135042E+02 -0.53588972860E+01  0.10339421697E+02  0.26225927579E+02  0.25000209562E+00 0.  0.
    1000022    2    1    0    0    0  0.54868633871E+02  0.17212545154E+01 -0.28155280452E+02  0.62500001697E+02  0.10000034740E+02 0.  0.
    3000022    2    5    5    0    0  0.46449633964E+02 -0.86130629451E+00 -0.20465562960E+02  0.50766249745E+02  0.25000386934E+00 0.  0.
        -13    1    4    4    0    0 -0.11483582526E+02 -0.26612681265E+01  0.51157075184E+01  0.12850544895E+02  0.10500000000E+00 0.  1.
         13    1    4    4    0    0 -0.12013552515E+02 -0.26976291595E+01  0.52237141783E+01  0.13375382684E+02  0.10500000000E+00 0. -1.
    3000001    1    5    5    0    0  0.84189999065E+01  0.25825608099E+01 -0.76897174920E+01  0.11733751952E+02  0.10000000000E+01 0.  1.
        -13    1    6    6    0    0  0.15718322932E+02 -0.28159861430E+00 -0.69840080871E+01  0.17202684893E+02  0.10500000000E+00 0. -1.
         13    1    6    6    0    0  0.30731311033E+02 -0.57970768021E+00 -0.13481554873E+02  0.33563564852E+02  0.10500000000E+00 0.  1.
</event>
<event>
11    0  0.3439373E-009  0.9118800E+02  0.7816531E-02  0.1126479E+00
         25   -1    0    0    0    0  0.00000000000E+00  0.00000000000E+00  0.99999998245E-14  0.12500000000E+03  0.12500000000E+03 0.  0.
    3000001    1    3    3    0    0 -0.20276029430E+01  0.26194173829E+02 -0.15944544329E+02  0.30748567611E+02  0.10000000000E+01 0. -1.
    1000022    2    1    0    0    0 -0.13203788312E+02  0.49449517779E+02 -0.34447862710E+02  0.62499999634E+02  0.99999937351E+01 0.  0.
    3000022    2    3    3    0    0 -0.11176185369E+02  0.23255343950E+02 -0.18503318381E+02  0.31751432024E+02  0.25000561588E+00 0.  0.
    1000022    2    1    0    0    0  0.13203788312E+02 -0.49449517779E+02  0.34447862710E+02  0.62500000366E+02  0.99999983043E+01 0.  0.
    3000022    2    5    5    0    0  0.92481885737E+01 -0.19787101538E+02  0.18213570901E+02  0.28440377099E+02  0.25001080993E+00 0.  0.
        -13    1    4    4    0    0 -0.39420831117E+01  0.82905403523E+01 -0.66365309042E+01  0.11328179290E+02  0.10500000000E+00 0. -1.
         13    1    4    4    0    0 -0.72341022575E+01  0.14964803598E+02 -0.11866787477E+02  0.20423252733E+02  0.10500000000E+00 0.  1.
    3000001    1    5    5    0    0  0.39555997385E+01 -0.29662416240E+02  0.16234291809E+02  0.34059623266E+02  0.10000000000E+01 0.  1.
        -13    1    6    6    0    0  0.56875818001E+01 -0.12291339753E+02  0.11251932498E+02  0.17608027419E+02  0.10500000000E+00 0. -1.
         13    1    6    6    0    0  0.35606067736E+01 -0.74957617851E+01  0.69616384028E+01  0.10832349680E+02  0.10500000000E+00 0.  1.
</event>
<event>
11    0  0.3439373E-009  0.9118800E+02  0.7816531E-02  0.1126479E+00
         25   -1    0    0    0    0  0.00000000000E+00  0.00000000000E+00  0.99999998245E-14  0.12500000000E+03  0.12500000000E+03 0.  0.
    3000001    1    3    3    0    0  0.18578466731E+02  0.46977595802E+02  0.13649070902E+02  0.52338810360E+02  0.10000000000E+01 0.  1.
    1000022    2    1    0    0    0  0.19193599045E+02  0.55333271998E+02  0.19392900208E+02  0.62500000755E+02  0.10000014083E+02 0.  0.
    3000022    2    3    3    0    0  0.61513231411E+00  0.83556761953E+01  0.57438293060E+01  0.10161190395E+02  0.25000540414E+00 0.  0.
    1000022    2    1    0    0    0 -0.19193599045E+02 -0.55333271998E+02 -0.19392900208E+02  0.62499999245E+02  0.10000004645E+02 0.  0.
    3000022    2    5    5    0    0 -0.16641075789E+02 -0.50901915381E+02 -0.14817976730E+02  0.55565864745E+02  0.24999529331E+00 0.  0.
        -13    1    4    4    0    0  0.39043424145E+00  0.56596527733E+01  0.38346725901E+01  0.68483463175E+01  0.10500000000E+00 0.  1.
         13    1    4    4    0    0  0.22469807266E+00  0.26960234220E+01  0.19091567159E+01  0.33128440775E+01  0.10500000000E+00 0. -1.
    3000001    1    5    5    0    0 -0.25525232561E+01 -0.44313566170E+01 -0.45749234776E+01  0.69341345001E+01  0.10000000000E+01 0. -1.
        -13    1    6    6    0    0 -0.10661036670E+02 -0.32622444327E+02 -0.95562816411E+01  0.35626045536E+02  0.10500000000E+00 0.  1.
         13    1    6    6    0    0 -0.59800391192E+01 -0.18279471053E+02 -0.52616950889E+01  0.19939819209E+02  0.10500000000E+00 0. -1.
</event>
<event>
11    0  0.3439373E-009  0.9118800E+02  0.7816531E-02  0.1126479E+00
         25   -1    0    0    0    0  0.00000000000E+00  0.00000000000E+00  0.99999998245E-14  0.12500000000E+03  0.12500000000E+03 0.  0.
    3000001    1    3    3    0    0  0.19192585322E+02  0.16294198161E+02 -0.12254971089E+02  0.28018574936E+02  0.10000000000E+01 0.  1.
    1000022    2    1    0    0    0  0.34669189942E+02  0.37529718416E+02 -0.34580596445E+02  0.62499999794E+02  0.99999914065E+01 0.  0.
    3000022    2    3    3    0    0  0.15476604619E+02  0.21235520255E+02 -0.22325625357E+02  0.34481424857E+02  0.25000322882E+00 0.  0.
    1000022    2    1    0    0    0 -0.34669189942E+02 -0.37529718416E+02  0.34580596445E+02  0.62500000206E+02  0.99999939846E+01 0.  0.
    3000022    2    5    5    0    0 -0.32098002976E+02 -0.29710407650E+02  0.29853180299E+02  0.52955311280E+02  0.25000218960E+00 0.  0.
        -13    1    4    4    0    0  0.88854530910E+01  0.12266119440E+02 -0.12805343769E+02  0.19834233456E+02  0.10500000000E+00 0. -1.
         13    1    4    4    0    0  0.65911515282E+01  0.89694008140E+01 -0.95202815880E+01  0.14647191401E+02  0.10500000000E+00 0.  1.
    3000001    1    5    5    0    0 -0.25711869659E+01 -0.78193107663E+01  0.47274161461E+01  0.95446889259E+01  0.10000000000E+01 0.  1.
        -13    1    6    6    0    0 -0.20730582855E+02 -0.19173586173E+02  0.19341678356E+02  0.34227109415E+02  0.10500000000E+00 0. -1.
         13    1    6    6    0    0 -0.11367420121E+02 -0.10536821477E+02  0.10511501943E+02  0.18728201866E+02  0.10500000000E+00 0.  1.
</event>
<event>
11    0  0.3439373E-009  0.9118800E+02  0.7816531E-02  0.1126479E+00
         25   -1    0    0    0    0  0.00000000000E+00  0.00000000000E+00  0.99999998245E-14  0.12500000000E+03  0.12500000000E+03 0.  0.
    3000001    1    3    3    0    0  0.94918923127E+01 -0.12972271880E+02  0.96111166596E+01  0.18754983894E+02  0.10000000000E+01 0.  1.
    1000022    2    1    0    0    0  0.26340500419E+02 -0.51743382168E+02  0.20857865903E+02  0.62500000254E+02  0.99999950600E+01 0.  0.
    3000022    2    3    3    0    0  0.16848608106E+02 -0.38771110288E+02  0.11246749244E+02  0.43745016360E+02  0.24999948502E+00 0.  0.
    1000022    2    1    0    0    0 -0.26340500419E+02  0.51743382168E+02 -0.20857865903E+02  0.62499999746E+02  0.99999918852E+01 0.  0.
    3000022    2    5    5    0    0 -0.24948451083E+02  0.44869933665E+02 -0.20860053828E+02  0.55416067189E+02  0.24999697713E+00 0.  0.
        -13    1    4    4    0    0  0.68315601596E+01 -0.15863315452E+02  0.46249730792E+01  0.17880614988E+02  0.10500000000E+00 0.  1.
         13    1    4    4    0    0  0.10017047946E+02 -0.22907794835E+02  0.66217761647E+01  0.25864401372E+02  0.10500000000E+00 0. -1.
    3000001    1    5    5    0    0 -0.13920493358E+01  0.68734485033E+01  0.21879249157E-02  0.70839325567E+01  0.10000000000E+01 0.  1.
        -13    1    6    6    0    0 -0.86498882530E+01  0.15611370238E+02 -0.71984262109E+01  0.19244838591E+02  0.10500000000E+00 0.  1.
         13    1    6    6    0    0 -0.16298562830E+02  0.29258563427E+02 -0.13661627617E+02  0.36171228598E+02  0.10500000000E+00 0. -1.
</event>
<event>
11    0  0.3439373E-009  0.9118800E+02  0.7816531E-02  0.1126479E+00
         25   -1    0    0    0    0  0.00000000000E+00  0.00000000000E+00  0.99999998245E-14  0.12500000000E+03  0.12500000000E+03 0.  0.
    3000001    1    3    3    0    0  0.24919332877E+02 -0.22301356858E+02  0.28446071286E+02  0.43914720087E+02  0.10000000000E+01 0. -1.
    1000022    2    1    0    0    0  0.37123580841E+02 -0.34692660974E+02  0.34992983562E+02  0.62500000448E+02  0.10000008882E+02 0.  0.
    3000022    2    3    3    0    0  0.12204247964E+02 -0.12391304115E+02  0.65469122757E+01  0.18585280361E+02  0.24999942289E+00 0.  0.
    1000022    2    1    0    0    0 -0.37123580841E+02  0.34692660974E+02 -0.34992983562E+02  0.62499999552E+02  0.10000003277E+02 0.  0.
    3000022    2    5    5    0    0 -0.31878581334E+02  0.24691920669E+02 -0.25468337235E+02  0.47693118917E+02  0.24999271690E+00 0.  0.
        -13    1    4    4    0    0  0.84135509916E+01 -0.85131975364E+01  0.45526458255E+01  0.12806247756E+02  0.10500000000E+00 0. -1.
         13    1    4    4    0    0  0.37906969722E+01 -0.38781065789E+01  0.19942664502E+01  0.57790326048E+01  0.10500000000E+00 0.  1.
    3000001    1    5    5    0    0 -0.52449995063E+01  0.10000740305E+02 -0.95246463271E+01  0.14806880634E+02  0.10000000000E+01 0.  1.
        -13    1    6    6    0    0 -0.23275921464E+02  0.18064417787E+02 -0.18583419449E+02  0.34834554876E+02  0.10500000000E+00 0. -1.
         13    1    6    6    0    0 -0.86026598703E+01  0.66275028818E+01 -0.68849177860E+01  0.12858564042E+02  0.10500000000E+00 0.  1.
</event>
<event>
11    0  0.3439373E-009  0.9118800E+02  0.7816531E-02  0.1126479E+00
         25   -1    0    0    0    0  0.00000000000E+00  0.00000000000E+00  0.99999998245E-14  0.12500000000E+03  0.12500000000E+03 0.  0.
    3000001    1    3    3    0    0 -0.67930584602E+00  0.16075656171E+01  0.75483846855E+00  0.21483725839E+01  0.10000000000E+01 0. -1.
    1000022    2    1    0    0    0 -0.32994459992E+02  0.14704630459E+02  0.50013891665E+02  0.62500001492E+02  0.10000013998E+02 0.  0.
    3000022    2    3    3    0    0 -0.32315154146E+02  0.13097064842E+02  0.49259053196E+02  0.60351628908E+02  0.24999025215E+00 0.  0.
    1000022    2    1    0    0    0  0.32994459992E+02 -0.14704630459E+02 -0.50013891665E+02  0.62499998508E+02  0.99999953455E+01 0.  0.
    3000022    2    5    5    0    0  0.20930648809E+02 -0.12172757292E+02 -0.39179599773E+02  0.46058350087E+02  0.24998938901E+00 0.  0.
        -13    1    4    4    0    0 -0.21280068583E+02  0.86777795808E+01  0.32507795632E+02  0.39810965565E+02  0.10500000000E+00 0. -1.
         13    1    4    4    0    0 -0.11035085564E+02  0.44192852607E+01  0.16751257564E+02  0.20540663344E+02  0.10500000000E+00 0.  1.
    3000001    1    5    5    0    0  0.12063811184E+02 -0.25318731666E+01 -0.10834291892E+02  0.16441648421E+02  0.10000000000E+01 0.  1.
        -13    1    6    6    0    0  0.78661498804E+01 -0.45471327970E+01 -0.14807656020E+02  0.17373267753E+02  0.10500000000E+00 0.  1.
         13    1    6    6    0    0  0.13064498928E+02 -0.76256244951E+01 -0.24371943752E+02  0.28685082333E+02  0.10500000000E+00 0. -1.
</event>
<event>
11    0  0.3439373E-009  0.9118800E+02  0.7816531E-02  0.1126479E+00
         25   -1    0    0    0    0  0.00000000000E+00  0.00000000000E+00  0.99999998245E-14  0.12500000000E+03  0.12500000000E+03 0.  0.
    3000001    1    3    3    0    0 -0.78320420755E+01 -0.38973826811E+01  0.25170904982E+01  0.91578501522E+01  0.10000000000E+01 0. -1.
    1000022    2    1    0    0    0 -0.46008424744E+02 -0.41099587385E+02  0.54674495450E+00  0.62500000360E+02  0.99999942182E+01 0.  0.
    3000022    2    3    3    0    0 -0.38176382669E+02 -0.37202204704E+02 -0.19703455437E+01  0.53342150208E+02  0.24999757292E+00 0.  0.
    1000022    2    1    0    0    0  0.46008424744E+02  0.41099587385E+02 -0.54674495450E+00  0.62499999640E+02  0.99999897136E+01 0.  0.
    3000022    2    5    5    0    0  0.12565616871E+02  0.15561708484E+02 -0.34962505994E+01  0.20306347976E+02  0.25000314225E+00 0.  0.
        -13    1    4    4    0    0 -0.15902868454E+02 -0.15462802654E+02 -0.76020402458E+00  0.22194333199E+02  0.10500000000E+00 0.  1.
         13    1    4    4    0    0 -0.22273514214E+02 -0.21739402050E+02 -0.12101415191E+01  0.31147817009E+02  0.10500000000E+00 0. -1.
    3000001    1    5    5    0    0  0.33442807873E+02  0.25537878901E+02  0.29495056449E+01  0.42193651664E+02  0.10000000000E+01 0.  1.
        -13    1    6    6    0    0  0.85475976678E+01  0.10523601231E+02 -0.23360009462E+01  0.13757744516E+02  0.10500000000E+00 0.  1.
         13    1    6    6    0    0  0.40180192036E+01  0.50381072530E+01 -0.11602496532E+01  0.65486034596E+01  0.10500000000E+00 0. -1.
</event>
<event>
11    0  0.3439373E-009  0.9118800E+02  0.7816531E-02  0.1126479E+00
         25   -1    0    0    0    0  0.00000000000E+00  0.00000000000E+00  0.99999998245E-14  0.12500000000E+03  0.12500000000E+03 0.  0.
    3000001    1    3    3    0    0  0.24151709877E+02 -0.35844671665E+02  0.12129311971E+01  0.43250627497E+02  0.10000000000E+01 0. -1.
    1000022    2    1    0    0    0  0.33992100994E+02 -0.50823221990E+02  0.82332977980E+01  0.62499999336E+02  0.99999950471E+01 0.  0.
    3000022    2    3    3    0    0  0.98403911173E+01 -0.14978550325E+02  0.70203666009E+01  0.19249371839E+02  0.25000365938E+00 0.  0.
    1000022    2    1    0    0    0 -0.33992100994E+02  0.50823221990E+02 -0.82332977980E+01  0.62500000664E+02  0.10000003346E+02 0.  0.
    3000022    2    5    5    0    0 -0.59332954106E+01  0.64786313249E+01 -0.45210535423E+01  0.98832728157E+01  0.24999628950E+00 0.  0.
        -13    1    4    4    0    0  0.24069187889E+01 -0.36330041331E+01  0.16924800829E+01  0.46762689100E+01  0.10500000000E+00 0.  1.
         13    1    4    4    0    0  0.74334723283E+01 -0.11345546192E+02  0.53278865181E+01  0.14573102929E+02  0.10500000000E+00 0. -1.
    3000001    1    5    5    0    0 -0.28058805583E+02  0.44344590665E+02 -0.37122442558E+01  0.52616727848E+02  0.10000000000E+01 0.  1.
        -13    1    6    6    0    0 -0.19867787059E+01  0.21832706394E+01 -0.15796045707E+01  0.33496471323E+01  0.10500000000E+00 0.  1.
         13    1    6    6    0    0 -0.39465167047E+01  0.42953606854E+01 -0.29414489715E+01  0.65336256834E+01  0.10500000000E+00 0. -1.
</event>
<event>
11    0  0.3439373E-009  0.9118800E+02  0.7816531E-02  0.1126479E+00
         25   -1    0    0    0    0  0.00000000000E+00  0.00000000000E+00  0.99999998245E-14  0.12500000000E+03  0.12500000000E+03 0.  0.
    3000001    1    3    3    0    0 -0.12295957408E+02 -0.34110750700E+00  0.24348727242E+01  0.12579170406E+02  0.10000000000E+01 0.  1.
    1000022    2    1    0    0    0 -0.55283899126E+02 -0.18238260910E+02  0.20428074898E+02  0.62499998292E+02  0.99999939420E+01 0.  0.
    3000022    2    3    3    0    0 -0.42987941718E+02 -0.17897153403E+02  0.17993202174E+02  0.49920827886E+02  0.24999858502E+00 0.  0.
    1000022    2    1    0    0    0  0.55283899126E+02  0.18238260910E+02 -0.20428074898E+02  0.62500001708E+02  0.10000015292E+02 0.  0.
    3000022    2    5    5    0    0  0.11914245411E+02  0.51826487812E+01 -0.89078383766E+01  0.15755037049E+02  0.25003154943E+00 0.  0.
        -13    1    4    4    0    0 -0.21722337912E+02 -0.90246707473E+01  0.91595920980E+01  0.25243094082E+02  0.10500000000E+00 0. -1.
         13    1    4    4    0    0 -0.21265603806E+02 -0.88724826555E+01  0.88336100760E+01  0.24677733804E+02  0.10500000000E+00 0.  1.
    3000001    1    5    5    0    0  0.43369653716E+02  0.13055612129E+02 -0.11520236522E+02  0.46744964659E+02  0.10000000000E+01 0. -1.
        -13    1    6    6    0    0  0.89984783373E+01  0.39226799944E+01 -0.67554059945E+01  0.11916650783E+02  0.10500000000E+00 0. -1.
         13    1    6    6    0    0  0.29157670734E+01  0.12599687868E+01 -0.21524323821E+01  0.38383862663E+01  0.10500000000E+00 0.  1.
</event>
<event>
11    0  0.3439373E-009  0.9118800E+02  0.7816531E-02  0.1126479E+00
         25   -1    0    0    0    0  0.00000000000E+00  0.00000000000E+00  0.99999998245E-14  0.12500000000E+03  0.12500000000E+03 0.  0.
    3000001    1    3    3    0    0  0.11495126641E+02 -0.26271946156E+02 -0.16723678872E+02  0.33211963603E+02  0.10000000000E+01 0. -1.
    1000022    2    1    0    0    0  0.20507645132E+02 -0.43557243332E+02 -0.38580475376E+02  0.62499999417E+02  0.99999945696E+01 0.  0.
    3000022    2    3    3    0    0  0.90125184908E+01 -0.17285297176E+02 -0.21856796504E+02  0.29288035815E+02  0.25000094367E+00 0.  0.
    1000022    2    1    0    0    0 -0.20507645132E+02  0.43557243332E+02  0.38580475376E+02  0.62500000583E+02  0.10000001851E+02 0.  0.
    3000022    2    5    5    0    0 -0.16961308047E+02  0.32847316667E+02  0.24159532413E+02  0.44163080671E+02  0.25001013651E+00 0.  0.
        -13    1    4    4    0    0  0.52127116380E+01 -0.99235487143E+01 -0.12651137030E+02  0.16903001948E+02  0.10500000000E+00 0.  1.
         13    1    4    4    0    0  0.37998068528E+01 -0.73617484618E+01 -0.92056594743E+01  0.12385033867E+02  0.10500000000E+00 0. -1.
    3000001    1    5    5    0    0 -0.35463370851E+01  0.10709926666E+02  0.14420942963E+02  0.18336919912E+02  0.10000000000E+01 0. -1.
        -13    1    6    6    0    0 -0.59831272317E+01  0.11533095875E+02  0.84301576456E+01  0.15488340610E+02  0.10500000000E+00 0. -1.
         13    1    6    6    0    0 -0.10978180815E+02  0.21314220792E+02  0.15729374767E+02  0.28674740060E+02  0.10500000000E+00 0.  1.
</event>
<event>
11    0  0.3439373E-009  0.9118800E+02  0.7816531E-02  0.1126479E+00
         25   -1    0    0    0    0  0.00000000000E+00  0.00000000000E+00  0.99999998245E-14  0.12500000000E+03  0.12500000000E+03 0.  0.
    3000001    1    3    3    0    0  0.26173643116E+02  0.16356241975E+01 -0.32753993951E+01  0.26447364740E+02  0.10000000000E+01 0.  1.
    1000022    2    1    0    0    0  0.61515914190E+02  0.28390344670E+01  0.37392798815E+01  0.62500000461E+02  0.10000001413E+02 0.  0.
    3000022    2    3    3    0    0  0.35342271074E+02  0.12034102695E+01  0.70146792766E+01  0.36052635721E+02  0.24999231207E+00 0.  0.
    1000022    2    1    0    0    0 -0.61515914190E+02 -0.28390344670E+01 -0.37392798815E+01  0.62499999539E+02  0.99999956496E+01 0.  0.
    3000022    2    5    5    0    0 -0.65640047715E+01  0.23507026198E+01  0.11799110267E+01  0.70757795717E+01  0.25001014058E+00 0.  0.
        -13    1    4    4    0    0  0.27013349352E+02  0.90730043807E+00  0.53703111811E+01  0.27557131645E+02  0.10500000000E+00 0. -1.
         13    1    4    4    0    0  0.83289217219E+01  0.29610983147E+00  0.16443680955E+01  0.84955040766E+01  0.10500000000E+00 0.  1.
    3000001    1    5    5    0    0 -0.54951909419E+02 -0.51897370868E+01 -0.49191909082E+01  0.55424219967E+02  0.10000000000E+01 0.  1.
        -13    1    6    6    0    0 -0.15387036382E+01  0.56507383611E+00  0.28467397890E+00  0.16670277744E+01  0.10500000000E+00 0. -1.
         13    1    6    6    0    0 -0.50253011333E+01  0.17856287837E+01  0.89523704782E+00  0.54087517973E+01  0.10500000000E+00 0.  1.
</event>
<event>
11    0  0.3439373E-009  0.9118800E+02  0.7816531E-02  0.1126479E+00
         25   -1    0    0    0    0  0.00000000000E+00  0.00000000000E+00  0.99999998245E-14  0.12500000000E+03  0.12500000000E+03 0.  0.
    3000001    1    3    3    0    0 -0.58337746543E+01 -0.20836787096E+01 -0.57074068070E+02  0.57417975319E+02  0.10000000000E+01 0. -1.
    1000022    2    1    0    0    0 -0.63164464443E+01 -0.50532812283E+01 -0.61162217028E+02  0.62499999830E+02  0.10000002004E+02 0.  0.
    3000022    2    3    3    0    0 -0.48267179000E+00 -0.29696025187E+01 -0.40881489587E+01  0.50820245113E+01  0.25000009808E+00 0.  0.
    1000022    2    1    0    0    0  0.63164464443E+01  0.50532812283E+01  0.61162217028E+02  0.62500000170E+02  0.10000004129E+02 0.  0.
    3000022    2    5    5    0    0 -0.17963649512E+01  0.42835446093E+01  0.22181940660E+02  0.22664436298E+02  0.24999966752E+00 0.  0.
        -13    1    4    4    0    0 -0.27600474659E+00 -0.17225013882E+01 -0.22592516493E+01  0.28562970201E+01  0.10500000000E+00 0. -1.
         13    1    4    4    0    0 -0.20666704341E+00 -0.12471011305E+01 -0.18288973094E+01  0.22257274912E+01  0.10500000000E+00 0.  1.
    3000001    1    5    5    0    0  0.81128113954E+01  0.76973661898E+00  0.38980276369E+02  0.39835563872E+02  0.10000000000E+01 0.  1.
        -13    1    6    6    0    0 -0.98660199204E+00  0.22926166139E+01  0.11609000818E+02  0.11874737867E+02  0.10500000000E+00 0.  1.
         13    1    6    6    0    0 -0.80976295912E+00  0.19909279954E+01  0.10572939842E+02  0.10789698431E+02  0.10500000000E+00 0. -1.
</event>
<event>
11    0  0.3439373E-009  0.9118800E+02  0.7816531E-02  0.1126479E+00
         25   -1    0    0    0    0  0.00000000000E+00  0.00000000000E+00  0.99999998245E-14  0.12500000000E+03  0.12500000000E+03 0.  0.
    3000001    1    3    3    0    0 -0.28415928040E+00 -0.60060512042E+01 -0.69840446033E+01  0.92698584987E+01  0.10000000000E+01 0. -1.
    1000022    2    1    0    0    0 -0.21089375485E+02 -0.28075634038E+02 -0.50727181255E+02  0.62500000448E+02  0.10000007648E+02 0.  0.
    3000022    2    3    3    0    0 -0.20805216205E+02 -0.22069582834E+02 -0.43743136652E+02  0.53230141950E+02  0.25000011024E+00 0.  0.
    1000022    2    1    0    0    0  0.21089375485E+02  0.28075634038E+02  0.50727181255E+02  0.62499999552E+02  0.10000002044E+02 0.  0.
    3000022    2    5    5    0    0  0.97243610854E+01  0.54512553942E+01  0.16494780698E+02  0.19910290592E+02  0.24999462234E+00 0.  0.
        -13    1    4    4    0    0 -0.68700382908E+01 -0.72146162540E+01 -0.14340069357E+02  0.17461292277E+02  0.10500000000E+00 0. -1.
         13    1    4    4    0    0 -0.13935177914E+02 -0.14854966580E+02 -0.29403067294E+02  0.35768849673E+02  0.10500000000E+00 0.  1.
    3000001    1    5    5    0    0  0.11365014400E+02  0.22624378644E+02  0.34232400557E+02  0.42589708960E+02  0.10000000000E+01 0.  1.
        -13    1    6    6    0    0  0.40217580545E+01  0.22334935726E+01  0.69172362227E+01  0.83079608417E+01  0.10500000000E+00 0. -1.
         13    1    6    6    0    0  0.57026030309E+01  0.32177618216E+01  0.95775444749E+01  0.11602329750E+02  0.10500000000E+00 0.  1.
</event>
<event>
11    0  0.3439373E-009  0.9118800E+02  0.7816531E-02  0.1126479E+00
         25   -1    0    0    0    0  0.00000000000E+00  0.00000000000E+00  0.99999998245E-14  0.12500000000E+03  0.12500000000E+03 0.  0.
    3000001    1    3    3    0    0  0.73918714708E+01 -0.12023948733E+02 -0.17042232348E+00  0.14150765024E+02  0.10000000000E+01 0. -1.
    1000022    2    1    0    0    0  0.35971073898E+02 -0.46997122197E+02 -0.17424174708E+02  0.62499996079E+02  0.99999996674E+01 0.  0.
    3000022    2    3    3    0    0  0.28579202427E+02 -0.34973173464E+02 -0.17253752385E+02  0.48349231055E+02  0.24999747102E+00 0.  0.
    1000022    2    1    0    0    0 -0.35971073898E+02  0.46997122197E+02  0.17424174708E+02  0.62500003921E+02  0.10000048682E+02 0.  0.
    3000022    2    5    5    0    0 -0.79471773092E+01  0.56012017835E+01  0.59490466128E+00  0.97441005807E+01  0.24999193417E+00 0.  0.
        -13    1    4    4    0    0  0.12300041225E+02 -0.14949350934E+02 -0.73864844016E+01  0.20720648742E+02  0.10500000000E+00 0. -1.
         13    1    4    4    0    0  0.16279161203E+02 -0.20023822530E+02 -0.98672679834E+01  0.27628582313E+02  0.10500000000E+00 0.  1.
    3000001    1    5    5    0    0 -0.28023896589E+02  0.41395920414E+02  0.16829270047E+02  0.52755903340E+02  0.10000000000E+01 0.  1.
        -13    1    6    6    0    0 -0.19185886744E+01  0.13572415944E+01  0.16432721446E+00  0.23582017896E+01  0.10500000000E+00 0. -1.
         13    1    6    6    0    0 -0.60285886348E+01  0.42439601892E+01  0.43057744681E+00  0.73858987911E+01  0.10500000000E+00 0.  1.
</event>
<event>
11    0  0.3439373E-009  0.9118800E+02  0.7816531E-02  0.1126479E+00
         25   -1    0    0    0    0  0.00000000000E+00  0.00000000000E+00  0.99999998245E-14  0.12500000000E+03  0.12500000000E+03 0.  0.
    3000001    1    3    3    0    0 -0.51837524062E+01 -0.19523125757E+02 -0.73935650293E+01  0.21533428250E+02  0.10000000000E+01 0.  1.
    1000022    2    1    0    0    0 -0.15182258249E+02 -0.59243348657E+02 -0.81224787534E+01  0.62500000440E+02  0.10000003411E+02 0.  0.
    3000022    2    3    3    0    0 -0.99985058433E+01 -0.39720222899E+02 -0.72891372411E+00  0.40966572190E+02  0.24999097320E+00 0.  0.
    1000022    2    1    0    0    0  0.15182258249E+02  0.59243348657E+02  0.81224787534E+01  0.62499999560E+02  0.99999979155E+01 0.  0.
    3000022    2    5    5    0    0  0.13586177446E+01  0.26277809759E+01  0.26093378156E+01  0.39524952272E+01  0.24999930252E+00 0.  0.
        -13    1    4    4    0    0 -0.73080117928E+01 -0.28894695825E+02 -0.51497540895E+00  0.29809171539E+02  0.10500000000E+00 0.  1.
         13    1    4    4    0    0 -0.26904940505E+01 -0.10825527075E+02 -0.21393831516E+00  0.11157400651E+02  0.10500000000E+00 0. -1.
    3000001    1    5    5    0    0  0.13823640505E+02  0.56615567681E+02  0.55131409378E+01  0.58547504333E+02  0.10000000000E+01 0.  1.
        -13    1    6    6    0    0  0.80394287658E+00  0.16599525238E+01  0.15754479699E+01  0.24279266538E+01  0.10500000000E+00 0.  1.
         13    1    6    6    0    0  0.55467486805E+00  0.96782845212E+00  0.10338898457E+01  0.15245685734E+01  0.10500000000E+00 0. -1.
</event>
<event>
11    0  0.3439373E-009  0.9118800E+02  0.7816531E-02  0.1126479E+00
         25   -1    0    0    0    0  0.00000000000E+00  0.00000000000E+00  0.99999998245E-14  0.12500000000E+03  0.12500000000E+03 0.  0.
    3000001    1    3    3    0    0 -0.16112642456E+01  0.18368934620E+00  0.63195760922E+01  0.66005269661E+01  0.10000000000E+01 0. -1.
    1000022    2    1    0    0    0 -0.17136931236E+02  0.28247875420E+02  0.52102143554E+02  0.62499997998E+02  0.99999754402E+01 0.  0.
    3000022    2    3    3    0    0 -0.15525666991E+02  0.28064186074E+02  0.45782567462E+02  0.55899471032E+02  0.25000537590E+00 0.  0.
    1000022    2    1    0    0    0  0.17136931236E+02 -0.28247875420E+02 -0.52102143554E+02  0.62500002002E+02  0.10000000468E+02 0.  0.
    3000022    2    5    5    0    0 -0.90766586453E+00 -0.39627035741E-01 -0.22257341901E+01  0.24169846634E+01  0.24998910942E+00 0.  0.
        -13    1    4    4    0    0 -0.76454830658E+01  0.13884553826E+02  0.22730800815E+02  0.27711632520E+02  0.10500000000E+00 0. -1.
         13    1    4    4    0    0 -0.78801839251E+01  0.14179632248E+02  0.23051766648E+02  0.28187838511E+02  0.10500000000E+00 0.  1.
    3000001    1    5    5    0    0  0.18044597101E+02 -0.28208248384E+02 -0.49876409364E+02  0.60083017339E+02  0.10000000000E+01 0.  1.
        -13    1    6    6    0    0 -0.20729399812E+00 -0.16644851988E-01 -0.59348892925E+00  0.63757506374E+00  0.10500000000E+00 0. -1.
         13    1    6    6    0    0 -0.70037186640E+00 -0.22982183753E-01 -0.16322452608E+01  0.17794095997E+01  0.10500000000E+00 0.  1.
</event>
<event>
11    0  0.3439373E-009  0.9118800E+02  0.7816531E-02  0.1126479E+00
         25   -1    0    0    0    0  0.00000000000E+00  0.00000000000E+00  0.99999998245E-14  0.12500000000E+03  0.12500000000E+03 0.  0.
    3000001    1    3    3    0    0 -0.74276595065E+01  0.12420189869E+02  0.29426152528E+01  0.14801696750E+02  0.10000000000E+01 0.  1.
    1000022    2    1    0    0    0 -0.16672506689E+02  0.59142350099E+02  0.55190613485E+01  0.62499998923E+02  0.99999886321E+01 0.  0.
    3000022    2    3    3    0    0 -0.92448471827E+01  0.46722160230E+02  0.25764460957E+01  0.47698302174E+02  0.24999956271E+00 0.  0.
    1000022    2    1    0    0    0  0.16672506689E+02 -0.59142350099E+02 -0.55190613485E+01  0.62500001077E+02  0.10000002095E+02 0.  0.
    3000022    2    5    5    0    0  0.16203115129E+02 -0.51237967166E+02 -0.19980113098E+01  0.53776619200E+02  0.25000843864E+00 0.  0.
        -13    1    4    4    0    0 -0.43237289564E+01  0.21519658762E+02  0.12062349844E+01  0.21983092893E+02  0.10500000000E+00 0. -1.
         13    1    4    4    0    0 -0.49211182263E+01  0.25202501468E+02  0.13702111113E+01  0.25715209280E+02  0.10500000000E+00 0.  1.
    3000001    1    5    5    0    0  0.46939155995E+00 -0.79043829331E+01 -0.35210500387E+01  0.87233818766E+01  0.10000000000E+01 0. -1.
        -13    1    6    6    0    0  0.78768513737E+01 -0.24685725859E+02 -0.95485261222E+00  0.25929763154E+02  0.10500000000E+00 0. -1.
         13    1    6    6    0    0  0.83262637555E+01 -0.26552241307E+02 -0.10431586976E+01  0.27846856046E+02  0.10500000000E+00 0.  1.
</event>
<event>
11    0  0.3439373E-009  0.9118800E+02  0.7816531E-02  0.1126479E+00
         25   -1    0    0    0    0  0.00000000000E+00  0.00000000000E+00  0.99999998245E-14  0.12500000000E+03  0.12500000000E+03 0.  0.
    3000001    1    3    3    0    0  0.29209880474E+02  0.12467980225E+02 -0.15648141039E+02  0.35419372752E+02  0.10000000000E+01 0.  1.
    1000022    2    1    0    0    0  0.53731520793E+02  0.23346490643E+02 -0.19342054406E+02  0.62499999312E+02  0.99999946647E+01 0.  0.
    3000022    2    3    3    0    0  0.24521640319E+02  0.10878510418E+02 -0.36939133665E+01  0.27080626559E+02  0.25001209251E+00 0.  0.
    1000022    2    1    0    0    0 -0.53731520793E+02 -0.23346490643E+02  0.19342054406E+02  0.62500000688E+02  0.10000003270E+02 0.  0.
    3000022    2    5    5    0    0 -0.93428698663E+01 -0.72260649703E+01  0.67848787631E+01  0.13623594161E+02  0.25001148013E+00 0.  0.
        -13    1    4    4    0    0  0.70042230657E+01  0.30620235519E+01 -0.10527809074E+01  0.77171563173E+01  0.10500000000E+00 0.  1.
         13    1    4    4    0    0  0.17517417253E+02  0.78164868660E+01 -0.26411324591E+01  0.19363470242E+02  0.10500000000E+00 0. -1.
    3000001    1    5    5    0    0 -0.44388650926E+02 -0.16120425672E+02  0.12557175643E+02  0.48876406527E+02  0.10000000000E+01 0.  1.
        -13    1    6    6    0    0 -0.36786796085E+01 -0.27842662412E+01  0.26053014656E+01  0.52993813686E+01  0.10500000000E+00 0.  1.
         13    1    6    6    0    0 -0.56641902578E+01 -0.44417987292E+01  0.41795772975E+01  0.83242127924E+01  0.10500000000E+00 0. -1.
</event>
<event>
11    0  0.3439373E-009  0.9118800E+02  0.7816531E-02  0.1126479E+00
         25   -1    0    0    0    0  0.00000000000E+00  0.00000000000E+00  0.99999998245E-14  0.12500000000E+03  0.12500000000E+03 0.  0.
    3000001    1    3    3    0    0 -0.75882670965E-01 -0.54559019985E+00 -0.18318920751E+01  0.21585308478E+01  0.10000000000E+01 0. -1.
    1000022    2    1    0    0    0  0.40409722728E+02 -0.21500653478E+02 -0.41364553313E+02  0.62499998540E+02  0.99999877889E+01 0.  0.
    3000022    2    3    3    0    0  0.40485605399E+02 -0.20955063278E+02 -0.39532661237E+02  0.60341467692E+02  0.24999437505E+00 0.  0.
    1000022    2    1    0    0    0 -0.40409722728E+02  0.21500653478E+02  0.41364553313E+02  0.62500001460E+02  0.10000006042E+02 0.  0.
    3000022    2    5    5    0    0 -0.76836305281E+01  0.88981728900E+01  0.10976250471E+02  0.16085902555E+02  0.25005541987E+00 0.  0.
        -13    1    4    4    0    0  0.16681474525E+02 -0.86278677563E+01 -0.16370983879E+02  0.24914490412E+02  0.10500000000E+00 0.  1.
         13    1    4    4    0    0  0.23804130875E+02 -0.12327195522E+02 -0.23161677359E+02  0.35426977280E+02  0.10500000000E+00 0. -1.
    3000001    1    5    5    0    0 -0.32726092200E+02  0.12602480588E+02  0.30388302841E+02  0.46414098906E+02  0.10000000000E+01 0.  1.
        -13    1    6    6    0    0 -0.54372745506E+01  0.62284726675E+01  0.77099949477E+01  0.11305435569E+02  0.10500000000E+00 0. -1.
         13    1    6    6    0    0 -0.22463559775E+01  0.26697002225E+01  0.32662555236E+01  0.47804669857E+01  0.10500000000E+00 0.  1.
</event>
<event>
11    0  0.3439373E-009  0.9118800E+02  0.7816531E-02  0.1126479E+00
         25   -1    0    0    0    0  0.00000000000E+00  0.00000000000E+00  0.99999998245E-14  0.12500000000E+03  0.12500000000E+03 0.  0.
    3000001    1    3    3    0    0  0.43631198836E+01  0.21300341783E+01 -0.22233590778E+01  0.54329721432E+01  0.10000000000E+01 0.  1.
    1000022    2    1    0    0    0  0.61051736023E+02  0.15291804391E+01 -0.87519442468E+01  0.62499995474E+02  0.10000002099E+02 0.  0.
    3000022    2    3    3    0    0  0.56688616139E+02 -0.60085373928E+00 -0.65285851690E+01  0.57067023331E+02  0.25000516070E+00 0.  0.
    1000022    2    1    0    0    0 -0.61051736023E+02 -0.15291804391E+01  0.87519442468E+01  0.62500004526E+02  0.10000058668E+02 0.  0.
    3000022    2    5    5    0    0 -0.49877151558E+01 -0.24969266788E+01  0.23379071225E+01  0.60531193962E+01  0.24999879357E+00 0.  0.
        -13    1    4    4    0    0  0.38026666934E+02 -0.41216766442E+00 -0.44316067088E+01  0.38286387180E+02  0.10500000000E+00 0.  1.
         13    1    4    4    0    0  0.18661949205E+02 -0.18868607486E+00 -0.20969784603E+01  0.18780636151E+02  0.10500000000E+00 0. -1.
    3000001    1    5    5    0    0 -0.56064020867E+02  0.96774623969E+00  0.64140371244E+01  0.56446885129E+02  0.10000000000E+01 0.  1.
        -13    1    6    6    0    0 -0.23941039556E+01 -0.11233016292E+01  0.11144247677E+01  0.28716733560E+01  0.10500000000E+00 0.  1.
         13    1    6    6    0    0 -0.25936112001E+01 -0.13736250495E+01  0.12234823548E+01  0.31814460402E+01  0.10500000000E+00 0. -1.
</event>
<event>
11    0  0.3439373E-009  0.9118800E+02  0.7816531E-02  0.1126479E+00
         25   -1    0    0    0    0  0.00000000000E+00  0.00000000000E+00  0.99999998245E-14  0.12500000000E+03  0.12500000000E+03 0.  0.
    3000001    1    3    3    0    0  0.81103763278E+01  0.12857586752E+02 -0.81254419419E+01  0.17266109811E+02  0.10000000000E+01 0.  1.
    1000022    2    1    0    0    0  0.18866953599E+02  0.42439684643E+02 -0.40609867165E+02  0.62500000338E+02  0.99999980211E+01 0.  0.
    3000022    2    3    3    0    0  0.10756577271E+02  0.29582097891E+02 -0.32484425223E+02  0.45233890527E+02  0.24999981568E+00 0.  0.
    1000022    2    1    0    0    0 -0.18866953599E+02 -0.42439684643E+02  0.40609867165E+02  0.62499999662E+02  0.99999937950E+01 0.  0.
    3000022    2    5    5    0    0 -0.13460529043E+02 -0.37793435933E+02  0.32302094492E+02  0.51507450352E+02  0.24998288257E+00 0.  0.
        -13    1    4    4    0    0  0.59426508037E+01  0.16257928771E+02 -0.17950011479E+02  0.24936906055E+02  0.10500000000E+00 0.  1.
         13    1    4    4    0    0  0.48139264671E+01  0.13324169120E+02 -0.14534413744E+02  0.20296984472E+02  0.10500000000E+00 0. -1.
    3000001    1    5    5    0    0 -0.54064245557E+01 -0.46462487102E+01  0.83077726729E+01  0.10992549310E+02  0.10000000000E+01 0. -1.
        -13    1    6    6    0    0 -0.58559253638E+01 -0.16459250035E+02  0.13981924489E+02  0.22376416402E+02  0.10500000000E+00 0. -1.
         13    1    6    6    0    0 -0.76046036791E+01 -0.21334185898E+02  0.18320170003E+02  0.29131033949E+02  0.10500000000E+00 0.  1.
</event>
<event>
11    0  0.3439373E-009  0.9118800E+02  0.7816531E-02  0.1126479E+00
         25   -1    0    0    0    0  0.00000000000E+00  0.00000000000E+00  0.99999998245E-14  0.12500000000E+03  0.12500000000E+03 0.  0.
    3000001    1    3    3    0    0  0.31070469060E+02  0.18611041766E+02  0.49169309914E+02  0.61076721921E+02  0.10000000000E+01 0. -1.
    1000022    2    1    0    0    0  0.31421541244E+02  0.19967231218E+02  0.49195999980E+02  0.62499999674E+02  0.99999984306E+01 0.  0.
    3000022    2    3    3    0    0  0.35107218417E+00  0.13561894522E+01  0.26690065808E-01  0.14232777532E+01  0.25001138856E+00 0.  0.
    1000022    2    1    0    0    0 -0.31421541244E+02 -0.19967231218E+02 -0.49195999980E+02  0.62500000326E+02  0.10000002503E+02 0.  0.
    3000022    2    5    5    0    0 -0.92557773857E+01 -0.68434032257E+01 -0.23142467034E+02  0.25848362879E+02  0.25000074171E+00 0.  0.
        -13    1    4    4    0    0  0.19087600147E+00  0.85690058239E+00  0.68941869063E-01  0.88684284817E+00  0.10500000000E+00 0.  1.
         13    1    4    4    0    0  0.16019618270E+00  0.49928886982E+00 -0.42251803255E-01  0.53643490505E+00  0.10500000000E+00 0. -1.
    3000001    1    5    5    0    0 -0.22165763858E+02 -0.13123827992E+02 -0.26053532946E+02  0.36651637447E+02  0.10000000000E+01 0.  1.
        -13    1    6    6    0    0 -0.35928620712E+01 -0.25802353101E+01 -0.88869821593E+01  0.99275248183E+01  0.10500000000E+00 0.  1.
         13    1    6    6    0    0 -0.56629153145E+01 -0.42631679157E+01 -0.14255484875E+02  0.15920838060E+02  0.10500000000E+00 0. -1.
</event>
<event>
11    0  0.3439373E-009  0.9118800E+02  0.7816531E-02  0.1126479E+00
         25   -1    0    0    0    0  0.00000000000E+00  0.00000000000E+00  0.99999998245E-14  0.12500000000E+03  0.12500000000E+03 0.  0.
    3000001    1    3    3    0    0 -0.12688897158E+02 -0.54390912494E+01  0.17172433195E+02  0.22056388792E+02  0.10000000000E+01 0.  1.
    1000022    2    1    0    0    0 -0.28425727306E+02 -0.60273731621E+01  0.54423330257E+02  0.62500000559E+02  0.99999996789E+01 0.  0.
    3000022    2    3    3    0    0 -0.15736830147E+02 -0.58828191272E+00  0.37250897062E+02  0.40443611767E+02  0.25000432980E+00 0.  0.
    1000022    2    1    0    0    0  0.28425727306E+02  0.60273731621E+01 -0.54423330257E+02  0.62499999441E+02  0.99999926875E+01 0.  0.
    3000022    2    5    5    0    0  0.12189701436E+02  0.87020745001E+00 -0.32468928402E+02  0.34693513596E+02  0.24998393405E+00 0.  0.
        -13    1    4    4    0    0 -0.42030986202E+01 -0.17103084281E+00  0.10034587557E+02  0.10881142495E+02  0.10500000000E+00 0.  1.
         13    1    4    4    0    0 -0.11533731527E+02 -0.41725106991E+00  0.27216309505E+02  0.29562469272E+02  0.10500000000E+00 0. -1.
    3000001    1    5    5    0    0  0.16236025870E+02  0.51571657121E+01 -0.21954401855E+02  0.27806485845E+02  0.10000000000E+01 0. -1.
        -13    1    6    6    0    0  0.73752658887E+01  0.50051728185E+00 -0.19800204665E+02  0.21135377789E+02  0.10500000000E+00 0. -1.
         13    1    6    6    0    0  0.48144355476E+01  0.36969016815E+00 -0.12668723736E+02  0.13558135807E+02  0.10500000000E+00 0.  1.
</event>
<event>
11    0  0.3439373E-009  0.9118800E+02  0.7816531E-02  0.1126479E+00
         25   -1    0    0    0    0  0.00000000000E+00  0.00000000000E+00  0.99999998245E-14  0.12500000000E+03  0.12500000000E+03 0.  0.
    3000001    1    3    3    0    0  0.15037885074E+02  0.51506753999E+01  0.20276580709E+01  0.16055492575E+02  0.10000000000E+01 0. -1.
    1000022    2    1    0    0    0  0.60755014447E+02  0.36768864863E+01  0.10077613881E+02  0.62499999913E+02  0.10000020644E+02 0.  0.
    3000022    2    3    3    0    0  0.45717129374E+02 -0.14737889136E+01  0.80499558098E+01  0.46444507338E+02  0.25000288163E+00 0.  0.
    1000022    2    1    0    0    0 -0.60755014447E+02 -0.36768864863E+01 -0.10077613881E+02  0.62500000087E+02  0.10000021729E+02 0.  0.
    3000022    2    5    5    0    0 -0.57393417051E+02 -0.21493804847E+01 -0.75818816470E+01  0.57932474386E+02  0.25000395241E+00 0.  0.
        -13    1    4    4    0    0  0.23168179883E+02 -0.80183691709E+00  0.41201636398E+01  0.23545578671E+02  0.10500000000E+00 0.  1.
         13    1    4    4    0    0  0.22548949490E+02 -0.67195199654E+00  0.39297921700E+01  0.22898928667E+02  0.10500000000E+00 0. -1.
    3000001    1    5    5    0    0 -0.33615973964E+01 -0.15275060016E+01 -0.24957322337E+01  0.45675257003E+01  0.10000000000E+01 0.  1.
        -13    1    6    6    0    0 -0.42572150152E+02 -0.15973022340E+01 -0.56548190670E+01  0.42975892622E+02  0.10500000000E+00 0.  1.
         13    1    6    6    0    0 -0.14821266899E+02 -0.55207825068E+00 -0.19270625800E+01  0.14956581764E+02  0.10500000000E+00 0. -1.
</event>
<event>
11    0  0.3439373E-009  0.9118800E+02  0.7816531E-02  0.1126479E+00
         25   -1    0    0    0    0  0.00000000000E+00  0.00000000000E+00  0.99999998245E-14  0.12500000000E+03  0.12500000000E+03 0.  0.
    3000001    1    3    3    0    0 -0.19191455092E+02  0.17953704531E+01  0.16882807117E+02  0.25643020098E+02  0.10000000000E+01 0.  1.
    1000022    2    1    0    0    0 -0.39570476552E+02 -0.27587782730E+01  0.47252688379E+02  0.62500000142E+02  0.99999993276E+01 0.  0.
    3000022    2    3    3    0    0 -0.20379021460E+02 -0.45541487261E+01  0.30369881262E+02  0.36856980044E+02  0.25000751273E+00 0.  0.
    1000022    2    1    0    0    0  0.39570476552E+02  0.27587782730E+01 -0.47252688379E+02  0.62499999858E+02  0.99999975543E+01 0.  0.
    3000022    2    5    5    0    0  0.32765045588E+02  0.45969798558E+01 -0.33916224762E+02  0.47381992797E+02  0.25000639069E+00 0.  0.
        -13    1    4    4    0    0 -0.89090389313E+01 -0.20585811519E+01  0.13298456798E+02  0.16139043009E+02  0.10500000000E+00 0.  1.
         13    1    4    4    0    0 -0.11469982529E+02 -0.24955675742E+01  0.17071424464E+02  0.20717937034E+02  0.10500000000E+00 0. -1.
    3000001    1    5    5    0    0  0.68054309642E+01 -0.18382015828E+01 -0.13336463618E+02  0.15118007061E+02  0.10000000000E+01 0.  1.
        -13    1    6    6    0    0  0.20463132093E+02  0.29209802503E+01 -0.21238134980E+02  0.29636823432E+02  0.10500000000E+00 0.  1.
         13    1    6    6    0    0  0.12301913494E+02  0.16759996055E+01 -0.12678089782E+02  0.17745169365E+02  0.10500000000E+00 0. -1.
</event>
<event>
11    0  0.3439373E-009  0.9118800E+02  0.7816531E-02  0.1126479E+00
         25   -1    0    0    0    0  0.00000000000E+00  0.00000000000E+00  0.99999998245E-14  0.12500000000E+03  0.12500000000E+03 0.  0.
    3000001    1    3    3    0    0 -0.23908612777E+02  0.11498629915E+02  0.15555633582E+02  0.30770407715E+02  0.10000000000E+01 0. -1.
    1000022    2    1    0    0    0 -0.47155025423E+02  0.14927241673E+02  0.36875889125E+02  0.62499997598E+02  0.99999767169E+01 0.  0.
    3000022    2    3    3    0    0 -0.23246412646E+02  0.34286117576E+01  0.21320255544E+02  0.31729589882E+02  0.24999632149E+00 0.  0.
    1000022    2    1    0    0    0  0.47155025423E+02 -0.14927241673E+02 -0.36875889125E+02  0.62500002402E+02  0.10000006748E+02 0.  0.
    3000022    2    5    5    0    0  0.29038838689E+02 -0.11787576438E+02 -0.28136012035E+02  0.42117677434E+02  0.24993710777E+00 0.  0.
        -13    1    4    4    0    0 -0.10912876849E+02  0.15858245631E+01  0.10090881512E+02  0.14947997704E+02  0.10500000000E+00 0. -1.
         13    1    4    4    0    0 -0.12333535797E+02  0.18427871946E+01  0.11229374031E+02  0.16781592178E+02  0.10500000000E+00 0.  1.
    3000001    1    5    5    0    0  0.18116186733E+02 -0.31396652354E+01 -0.87398770908E+01  0.20382324968E+02  0.10000000000E+01 0.  1.
        -13    1    6    6    0    0  0.22281606466E+02 -0.90533062517E+01 -0.21580798140E+02  0.32313684627E+02  0.10500000000E+00 0. -1.
         13    1    6    6    0    0  0.67572322229E+01 -0.27342701860E+01 -0.65552138947E+01  0.98039928075E+01  0.10500000000E+00 0.  1.
</event>
<event>
11    0  0.3439373E-009  0.9118800E+02  0.7816531E-02  0.1126479E+00
         25   -1    0    0    0    0  0.00000000000E+00  0.00000000000E+00  0.99999998245E-14  0.12500000000E+03  0.12500000000E+03 0.  0.
    3000001    1    3    3    0    0 -0.76145956833E+01 -0.15530111963E+02  0.68402226212E+01  0.18626730538E+02  0.10000000000E+01 0.  1.
    1000022    2    1    0    0    0 -0.17607068706E+02 -0.57988088944E+02  0.11559512448E+02  0.62499997113E+02  0.99999991640E+01 0.  0.
    3000022    2    3    3    0    0 -0.99924730228E+01 -0.42457976981E+02  0.47192898264E+01  0.43873266575E+02  0.24999422219E+00 0.  0.
    1000022    2    1    0    0    0  0.17607068706E+02  0.57988088944E+02 -0.11559512448E+02  0.62500002887E+02  0.10000035252E+02 0.  0.
    3000022    2    5    5    0    0 -0.49148521308E+00  0.10237739894E+02 -0.65185257157E+00  0.10273280490E+02  0.25000879393E+00 0.  0.
        -13    1    4    4    0    0 -0.42633580799E+01 -0.18236459381E+02  0.19667039800E+01  0.18831453008E+02  0.10500000000E+00 0.  1.
         13    1    4    4    0    0 -0.57291149429E+01 -0.24221517600E+02  0.27525858464E+01  0.25041813567E+02  0.10500000000E+00 0. -1.
    3000001    1    5    5    0    0  0.18098553919E+02  0.47750349050E+02 -0.10907659876E+02  0.52226722397E+02  0.10000000000E+01 0.  1.
        -13    1    6    6    0    0 -0.31567478330E+00  0.73315630911E+01 -0.44725177367E+00  0.73527224262E+01  0.10500000000E+00 0. -1.
         13    1    6    6    0    0 -0.17581042979E+00  0.29061768032E+01 -0.20460079790E+00  0.29205580640E+01  0.10500000000E+00 0.  1.
</event>
<event>
11    0  0.3439373E-009  0.9118800E+02  0.7816531E-02  0.1126479E+00
         25   -1    0    0    0    0  0.00000000000E+00  0.00000000000E+00  0.99999998245E-14  0.12500000000E+03  0.12500000000E+03 0.  0.
    3000001    1    3    3    0    0 -0.91760343498E+00 -0.15813951732E+02  0.10717230301E+02  0.19151555832E+02  0.10000000000E+01 0. -1.
    1000022    2    1    0    0    0 -0.83129806215E+01 -0.41760980299E+02  0.44644875651E+02  0.62499998538E+02  0.99999886485E+01 0.  0.
    3000022    2    3    3    0    0 -0.73953771866E+01 -0.25947028567E+02  0.33927645350E+02  0.43348442706E+02  0.24994171435E+00 0.  0.
    1000022    2    1    0    0    0  0.83129806215E+01  0.41760980299E+02 -0.44644875651E+02  0.62500001462E+02  0.10000006928E+02 0.  0.
    3000022    2    5    5    0    0  0.49319082780E+01  0.16077182517E+02 -0.11296330093E+02  0.20260036861E+02  0.25000618136E+00 0.  0.
        -13    1    4    4    0    0 -0.27690773595E+01 -0.99355835531E+01  0.12955332415E+02  0.16560050512E+02  0.10500000000E+00 0. -1.
         13    1    4    4    0    0 -0.46262998270E+01 -0.16011445014E+02  0.20972312934E+02  0.26788392194E+02  0.10500000000E+00 0.  1.
    3000001    1    5    5    0    0  0.33810723436E+01  0.25683797782E+02 -0.33348545557E+02  0.42239964601E+02  0.10000000000E+01 0. -1.
        -13    1    6    6    0    0  0.21026644705E+01  0.67088672901E+01 -0.47813928457E+01  0.85031077105E+01  0.10500000000E+00 0. -1.
         13    1    6    6    0    0  0.28292438075E+01  0.93683152272E+01 -0.65149372476E+01  0.11756929151E+02  0.10500000000E+00 0.  1.
</event>
<event>
11    0  0.3439373E-009  0.9118800E+02  0.7816531E-02  0.1126479E+00
         25   -1    0    0    0    0  0.00000000000E+00  0.00000000000E+00  0.99999998245E-14  0.12500000000E+03  0.12500000000E+03 0.  0.
    3000001    1    3    3    0    0 -0.28529103417E+02  0.82886661098E+01  0.38438786859E+02  0.48591687179E+02  0.10000000000E+01 0.  1.
    1000022    2    1    0    0    0 -0.39990897098E+02  0.11859811524E+02  0.45456826301E+02  0.62500000075E+02  0.99999985944E+01 0.  0.
    3000022    2    3    3    0    0 -0.11461793680E+02  0.35711454145E+01  0.70180394416E+01  0.13908312896E+02  0.24999210862E+00 0.  0.
    1000022    2    1    0    0    0  0.39990897098E+02 -0.11859811524E+02 -0.45456826301E+02  0.62499999925E+02  0.99999976631E+01 0.  0.
    3000022    2    5    5    0    0  0.37158506915E+02 -0.81423326694E+01 -0.39163189173E+02  0.54597345215E+02  0.25000163347E+00 0.  0.
        -13    1    4    4    0    0 -0.45636707404E+01  0.13879084667E+01  0.28509669635E+01  0.55580948324E+01  0.10500000000E+00 0. -1.
         13    1    4    4    0    0 -0.68981229399E+01  0.21832369477E+01  0.41670724781E+01  0.83502180632E+01  0.10500000000E+00 0.  1.
    3000001    1    5    5    0    0  0.28323901826E+01 -0.37174788548E+01 -0.62936371276E+01  0.79026547107E+01  0.10000000000E+01 0. -1.
        -13    1    6    6    0    0  0.16513671579E+02 -0.36341066514E+01 -0.17315343640E+02  0.24202070790E+02  0.10500000000E+00 0.  1.
         13    1    6    6    0    0  0.20644835336E+02 -0.45082260180E+01 -0.21847845534E+02  0.30395274425E+02  0.10500000000E+00 0. -1.
</event>
<event>
11    0  0.3439373E-009  0.9118800E+02  0.7816531E-02  0.1126479E+00
         25   -1    0    0    0    0  0.00000000000E+00  0.00000000000E+00  0.99999998245E-14  0.12500000000E+03  0.12500000000E+03 0.  0.
    3000001    1    3    3    0    0 -0.17537736402E+02 -0.25041371631E+02 -0.34225551823E+02  0.45902406133E+02  0.10000000000E+01 0. -1.
    1000022    2    1    0    0    0 -0.21772272530E+02 -0.38424470851E+02 -0.43078743794E+02  0.62500000787E+02  0.10000006012E+02 0.  0.
    3000022    2    3    3    0    0 -0.42345361275E+01 -0.13383099220E+02 -0.88531919714E+01  0.16597594654E+02  0.24999851529E+00 0.  0.
    1000022    2    1    0    0    0  0.21772272530E+02  0.38424470851E+02  0.43078743794E+02  0.62499999213E+02  0.99999961756E+01 0.  0.
    3000022    2    5    5    0    0  0.40194967488E+01  0.11512759516E+02  0.17512881745E+02  0.21341591115E+02  0.24999700882E+00 0.  0.
        -13    1    4    4    0    0 -0.21335740982E+01 -0.65777269882E+01 -0.43069947596E+01  0.81473836060E+01  0.10500000000E+00 0. -1.
         13    1    4    4    0    0 -0.21009620293E+01 -0.68053722318E+01 -0.45461972118E+01  0.84502110477E+01  0.10500000000E+00 0.  1.
    3000001    1    5    5    0    0  0.17752775781E+02  0.26911711335E+02  0.25565862049E+02  0.41158408098E+02  0.10000000000E+01 0.  1.
        -13    1    6    6    0    0  0.10049148645E+01  0.29548591092E+01  0.45111900644E+01  0.54866116171E+01  0.10500000000E+00 0.  1.
         13    1    6    6    0    0  0.30145818843E+01  0.85579004069E+01  0.13001691681E+02  0.15854979498E+02  0.10500000000E+00 0. -1.
</event>
<event>
11    0  0.3439373E-009  0.9118800E+02  0.7816531E-02  0.1126479E+00
         25   -1    0    0    0    0  0.00000000000E+00  0.00000000000E+00  0.99999998245E-14  0.12500000000E+03  0.12500000000E+03 0.  0.
    3000001    1    3    3    0    0 -0.48477278786E+02 -0.13642180872E+02 -0.18935653662E+02  0.53811844766E+02  0.10000000000E+01 0. -1.
    1000022    2    1    0    0    0 -0.56797453313E+02 -0.12057032308E+02 -0.20854908708E+02  0.62499999967E+02  0.10000002387E+02 0.  0.
    3000022    2    3    3    0    0 -0.83201745269E+01  0.15851485647E+01 -0.19192550457E+01  0.86881552014E+01  0.25000148339E+00 0.  0.
    1000022    2    1    0    0    0  0.56797453313E+02  0.12057032308E+02  0.20854908708E+02  0.62500000033E+02  0.10000002798E+02 0.  0.
    3000022    2    5    5    0    0  0.41328196253E+02  0.46398280461E+01  0.12743830099E+02  0.43497304718E+02  0.25000451160E+00 0.  0.
        -13    1    4    4    0    0 -0.42174956294E+01  0.73783303856E+00 -0.94867253983E+00  0.43866469615E+01  0.10500000000E+00 0.  1.
         13    1    4    4    0    0 -0.41026788976E+01  0.84731552613E+00 -0.97058250588E+00  0.43015082399E+01  0.10500000000E+00 0. -1.
    3000001    1    5    5    0    0  0.15469257060E+02  0.74172042616E+01  0.81110786088E+01  0.19002695315E+02  0.10000000000E+01 0.  1.
        -13    1    6    6    0    0  0.13288535123E+02  0.14854538562E+01  0.41504831014E+01  0.14001045455E+02  0.10500000000E+00 0.  1.
         13    1    6    6    0    0  0.28039661131E+02  0.31543741899E+01  0.85933469977E+01  0.29496259262E+02  0.10500000000E+00 0. -1.
</event>
<event>
11    0  0.3439373E-009  0.9118800E+02  0.7816531E-02  0.1126479E+00
         25   -1    0    0    0    0  0.00000000000E+00  0.00000000000E+00  0.99999998245E-14  0.12500000000E+03  0.12500000000E+03 0.  0.
    3000001    1    3    3    0    0  0.10075487538E+01 -0.14156941417E+02  0.54965954502E+02  0.56777551013E+02  0.10000000000E+01 0. -1.
    1000022    2    1    0    0    0 -0.17962572268E+01 -0.16239642037E+02  0.59491989476E+02  0.62500006510E+02  0.10000074426E+02 0.  0.
    3000022    2    3    3    0    0 -0.28038059806E+01 -0.20827006204E+01  0.45260349739E+01  0.57224554973E+01  0.25006895716E+00 0.  0.
    1000022    2    1    0    0    0  0.17962572268E+01  0.16239642037E+02 -0.59491989476E+02  0.62499993490E+02  0.99999930461E+01 0.  0.
    3000022    2    5    5    0    0  0.35753572018E+01  0.96057165408E+01 -0.20790340214E+02  0.23180891010E+02  0.24998487116E+00 0.  0.
        -13    1    4    4    0    0 -0.16735291922E+01 -0.12456051664E+01  0.25976070636E+01  0.33332896130E+01  0.10500000000E+00 0. -1.
         13    1    4    4    0    0 -0.11302767885E+01 -0.83709545406E+00  0.19284279103E+01  0.23891658843E+01  0.10500000000E+00 0.  1.
    3000001    1    5    5    0    0 -0.17790999750E+01  0.66339254963E+01 -0.38701649261E+02  0.39319102479E+02  0.10000000000E+01 0.  1.
        -13    1    6    6    0    0  0.16979062062E+01  0.45433340730E+01 -0.99905036102E+01  0.11106122517E+02  0.10500000000E+00 0. -1.
         13    1    6    6    0    0  0.18774509956E+01  0.50623824678E+01 -0.10799836604E+02  0.12074768493E+02  0.10500000000E+00 0.  1.
</event>
<event>
11    0  0.3439373E-009  0.9118800E+02  0.7816531E-02  0.1126479E+00
         25   -1    0    0    0    0  0.00000000000E+00  0.00000000000E+00  0.99999998245E-14  0.12500000000E+03  0.12500000000E+03 0.  0.
    3000001    1    3    3    0    0  0.10918740148E+02 -0.12351102712E+02  0.13903518185E+02  0.21588803639E+02  0.10000000000E+01 0.  1.
    1000022    2    1    0    0    0  0.21494890895E+02 -0.31742779359E+02  0.48338550421E+02  0.62500001272E+02  0.10000016308E+02 0.  0.
    3000022    2    3    3    0    0  0.10576150747E+02 -0.19391676647E+02  0.34435032236E+02  0.40911197633E+02  0.25011776772E+00 0.  0.
    1000022    2    1    0    0    0 -0.21494890895E+02  0.31742779359E+02 -0.48338550421E+02  0.62499998728E+02  0.10000000412E+02 0.  0.
    3000022    2    5    5    0    0  0.10710580439E+01  0.16359478734E+01 -0.21256660694E+01  0.28990420776E+01  0.24999590174E+00 0.  0.
        -13    1    4    4    0    0  0.39067730192E+01 -0.70431476171E+01  0.12532626451E+02  0.14897870806E+02  0.10500000000E+00 0. -1.
         13    1    4    4    0    0  0.66693777281E+01 -0.12348529030E+02  0.21902405784E+02  0.26013326827E+02  0.10500000000E+00 0.  1.
    3000001    1    5    5    0    0 -0.22565948939E+02  0.30106831485E+02 -0.46212884351E+02  0.59600956651E+02  0.10000000000E+01 0.  1.
        -13    1    6    6    0    0  0.45526261059E+00  0.81739823262E+00 -0.10300184417E+01  0.13954808869E+01  0.10500000000E+00 0.  1.
         13    1    6    6    0    0  0.61579543333E+00  0.81854964081E+00 -0.10956476277E+01  0.15035611907E+01  0.10500000000E+00 0. -1.
</event>
<event>
11    0  0.3439373E-009  0.9118800E+02  0.7816531E-02  0.1126479E+00
         25   -1    0    0    0    0  0.00000000000E+00  0.00000000000E+00  0.99999998245E-14  0.12500000000E+03  0.12500000000E+03 0.  0.
    3000001    1    3    3    0    0 -0.31149533135E+02  0.28078944349E+02  0.29775755930E+02  0.51442357756E+02  0.10000000000E+01 0.  1.
    1000022    2    1    0    0    0 -0.34685896174E+02  0.37208497512E+02  0.34909406837E+02  0.62500000732E+02  0.99999862682E+01 0.  0.
    3000022    2    3    3    0    0 -0.35363630391E+01  0.91295531625E+01  0.51336509068E+01  0.11057642976E+02  0.24998413431E+00 0.  0.
    1000022    2    1    0    0    0  0.34685896174E+02 -0.37208497512E+02 -0.34909406837E+02  0.62499999268E+02  0.99999771144E+01 0.  0.
    3000022    2    5    5    0    0  0.85411482708E+01 -0.62084787298E+01 -0.32759003014E+01  0.11058501009E+02  0.24999970584E+00 0.  0.
        -13    1    4    4    0    0 -0.25451822022E+01  0.66705168334E+01  0.37474248702E+01  0.80639919038E+01  0.10500000000E+00 0. -1.
         13    1    4    4    0    0 -0.99118083693E+00  0.24590363291E+01  0.13862260366E+01  0.29936510725E+01  0.10500000000E+00 0.  1.
    3000001    1    5    5    0    0  0.26144747903E+02 -0.31000018782E+02 -0.31633506535E+02  0.51441498259E+02  0.10000000000E+01 0.  1.
        -13    1    6    6    0    0  0.55470861381E+01 -0.39628820691E+01 -0.21269864338E+01  0.71421071965E+01  0.10500000000E+00 0. -1.
         13    1    6    6    0    0  0.29940621327E+01 -0.22455966606E+01 -0.11489138676E+01  0.39163938122E+01  0.10500000000E+00 0.  1.
</event>
<event>
11    0  0.3439373E-009  0.9118800E+02  0.7816531E-02  0.1126479E+00
         25   -1    0    0    0    0  0.00000000000E+00  0.00000000000E+00  0.99999998245E-14  0.12500000000E+03  0.12500000000E+03 0.  0.
    3000001    1    3    3    0    0  0.48189659511E+02  0.52020053680E+01 -0.19559991933E+02  0.52277121459E+02  0.10000000000E+01 0.  1.
    1000022    2    1    0    0    0  0.57708060226E+02  0.89056123723E+01 -0.19917821705E+02  0.62499997901E+02  0.99999984720E+01 0.  0.
    3000022    2    3    3    0    0  0.95184007151E+01  0.37036070043E+01 -0.35782977205E+00  0.10222876442E+02  0.25000719346E+00 0.  0.
    1000022    2    1    0    0    0 -0.57708060226E+02 -0.89056123723E+01  0.19917821705E+02  0.62500002099E+02  0.10000024708E+02 0.  0.
    3000022    2    5    5    0    0 -0.18660547585E+02 -0.79923395609E+00  0.10806772538E+02  0.21580167894E+02  0.25000509901E+00 0.  0.
        -13    1    4    4    0    0  0.22517292373E+01  0.89298257539E+00 -0.78640497865E-01  0.24258837082E+01  0.10500000000E+00 0.  1.
         13    1    4    4    0    0  0.72666714778E+01  0.28106244289E+01 -0.27918927418E+00  0.77969927342E+01  0.10500000000E+00 0. -1.
    3000001    1    5    5    0    0 -0.39047512640E+02 -0.81063784162E+01  0.91110491667E+01  0.40919834205E+02  0.10000000000E+01 0.  1.
        -13    1    6    6    0    0 -0.78526850811E+01 -0.27144538559E+00  0.45487666332E+01  0.90796832799E+01  0.10500000000E+00 0. -1.
         13    1    6    6    0    0 -0.10807862504E+02 -0.52778857050E+00  0.62580059048E+01  0.12500484614E+02  0.10500000000E+00 0.  1.
</event>
<event>
11    0  0.3439373E-009  0.9118800E+02  0.7816531E-02  0.1126479E+00
         25   -1    0    0    0    0  0.00000000000E+00  0.00000000000E+00  0.99999998245E-14  0.12500000000E+03  0.12500000000E+03 0.  0.
    3000001    1    3    3    0    0  0.59139152586E+02  0.57272140284E+01 -0.96717086495E+01  0.60206164945E+02  0.10000000000E+01 0. -1.
    1000022    2    1    0    0    0  0.60281713201E+02  0.72137817415E+01 -0.10969342387E+02  0.62500001006E+02  0.10000002990E+02 0.  0.
    3000022    2    3    3    0    0  0.11425606153E+01  0.14865677131E+01 -0.12976337374E+01  0.22938360611E+01  0.25000446631E+00 0.  0.
    1000022    2    1    0    0    0 -0.60281713201E+02 -0.72137817415E+01  0.10969342387E+02  0.62499998994E+02  0.99999904192E+01 0.  0.
    3000022    2    5    5    0    0 -0.56452953634E+02 -0.90190000373E+01  0.10494434226E+02  0.58124641789E+02  0.24999519364E+00 0.  0.
        -13    1    4    4    0    0  0.74954204660E+00  0.98122461131E+00 -0.91787409901E+00  0.15421196060E+01  0.10500000000E+00 0. -1.
         13    1    4    4    0    0  0.39301856871E+00  0.50534310184E+00 -0.37975963843E+00  0.75171645512E+00  0.10500000000E+00 0.  1.
    3000001    1    5    5    0    0 -0.38287595670E+01  0.18052182958E+01  0.47490816049E+00  0.43753572058E+01  0.10000000000E+01 0.  1.
        -13    1    6    6    0    0 -0.37032859191E+02 -0.59076668009E+01  0.68282845232E+01  0.38117839411E+02  0.10500000000E+00 0. -1.
         13    1    6    6    0    0 -0.19420094444E+02 -0.31113332364E+01  0.36661497033E+01  0.20006802377E+02  0.10500000000E+00 0.  1.
</event>
<event>
11    0  0.3439373E-009  0.9118800E+02  0.7816531E-02  0.1126479E+00
         25   -1    0    0    0    0  0.00000000000E+00  0.00000000000E+00  0.99999998245E-14  0.12500000000E+03  0.12500000000E+03 0.  0.
    3000001    1    3    3    0    0  0.16582663273E-01 -0.82573909917E+00 -0.14001182953E+01  0.19085207060E+01  0.10000000000E+01 0.  1.
    1000022    2    1    0    0    0  0.38602828709E+02 -0.97629168030E+00 -0.48115679269E+02  0.62499998537E+02  0.99999847896E+01 0.  0.
    3000022    2    3    3    0    0  0.38586246046E+02 -0.15055258113E+00 -0.46715560973E+02  0.60591477831E+02  0.24999727125E+00 0.  0.
    1000022    2    1    0    0    0 -0.38602828709E+02  0.97629168030E+00  0.48115679269E+02  0.62500001463E+02  0.10000003082E+02 0.  0.
    3000022    2    5    5    0    0 -0.31042913395E+02 -0.86674512900E+00  0.43330510692E+02  0.53310499706E+02  0.25000584739E+00 0.  0.
        -13    1    4    4    0    0  0.10871169013E+02 -0.81599959499E-01 -0.13176772266E+02  0.17082954271E+02  0.10500000000E+00 0.  1.
         13    1    4    4    0    0  0.27715077033E+02 -0.68952621631E-01 -0.33538788707E+02  0.43508523560E+02  0.10500000000E+00 0. -1.
    3000001    1    5    5    0    0 -0.75599153146E+01  0.18430368093E+01  0.47851685769E+01  0.91895017576E+01  0.10000000000E+01 0. -1.
        -13    1    6    6    0    0 -0.20235081993E+02 -0.52415211932E+00  0.28176273884E+02  0.34693612002E+02  0.10500000000E+00 0.  1.
         13    1    6    6    0    0 -0.10807831402E+02 -0.34259300968E+00  0.15154236807E+02  0.18616887704E+02  0.10500000000E+00 0. -1.
</event>
<event>
11    0  0.3439373E-009  0.9118800E+02  0.7816531E-02  0.1126479E+00
         25   -1    0    0    0    0  0.00000000000E+00  0.00000000000E+00  0.99999998245E-14  0.12500000000E+03  0.12500000000E+03 0.  0.
    3000001    1    3    3    0    0 -0.13620567616E+02 -0.40584888494E+02  0.29268927500E+02  0.51868325144E+02  0.10000000000E+01 0. -1.
    1000022    2    1    0    0    0 -0.16821765631E+02 -0.50551496636E+02  0.31109874426E+02  0.62500000469E+02  0.10000008035E+02 0.  0.
    3000022    2    3    3    0    0 -0.32011980155E+01 -0.99666081423E+01  0.18409469268E+01  0.10631675325E+02  0.24997608378E+00 0.  0.
    1000022    2    1    0    0    0  0.16821765631E+02  0.50551496636E+02 -0.31109874426E+02  0.62499999531E+02  0.10000002173E+02 0.  0.
    3000022    2    5    5    0    0  0.13727951563E+02  0.27217091420E+02 -0.19938878878E+02  0.36425926320E+02  0.24999573060E+00 0.  0.
        -13    1    4    4    0    0 -0.14078824331E+01 -0.43666848083E+01  0.87376635615E+00  0.46716765519E+01  0.10500000000E+00 0. -1.
         13    1    4    4    0    0 -0.17933155825E+01 -0.55999233340E+01  0.96718057069E+00  0.59599987736E+01  0.10500000000E+00 0.  1.
    3000001    1    5    5    0    0  0.30938140683E+01  0.23334405216E+02 -0.11170995548E+02  0.26074073211E+02  0.10000000000E+01 0.  1.
        -13    1    6    6    0    0  0.34442220383E+01  0.68761768688E+01 -0.50098046772E+01  0.91789782484E+01  0.10500000000E+00 0. -1.
         13    1    6    6    0    0  0.10283729525E+02  0.20340914551E+02 -0.14929074201E+02  0.27246948071E+02  0.10500000000E+00 0.  1.
</event>
<event>
11    0  0.3439373E-009  0.9118800E+02  0.7816531E-02  0.1126479E+00
         25   -1    0    0    0    0  0.00000000000E+00  0.00000000000E+00  0.99999998245E-14  0.12500000000E+03  0.12500000000E+03 0.  0.
    3000001    1    3    3    0    0  0.98264946442E+01  0.19069108671E+02  0.51404427881E+02  0.55710018024E+02  0.10000000000E+01 0.  1.
    1000022    2    1    0    0    0  0.13949416986E+02  0.22005416197E+02  0.55923386777E+02  0.62500001580E+02  0.10000021630E+02 0.  0.
    3000022    2    3    3    0    0  0.41229223421E+01  0.29363075255E+01  0.45189588960E+01  0.67899835553E+01  0.24999330747E+00 0.  0.
    1000022    2    1    0    0    0 -0.13949416986E+02 -0.22005416197E+02 -0.55923386777E+02  0.62499998420E+02  0.10000001886E+02 0.  0.
    3000022    2    5    5    0    0 -0.24940093461E-01 -0.53998866471E+01 -0.60536570885E+01  0.81159510577E+01  0.24999923140E+00 0.  0.
        -13    1    4    4    0    0  0.30240364672E+01  0.21313972145E+01  0.32592419974E+01  0.49316664565E+01  0.10500000000E+00 0. -1.
         13    1    4    4    0    0  0.10988858749E+01  0.80491031104E+00  0.12597168986E+01  0.18583170988E+01  0.10500000000E+00 0.  1.
    3000001    1    5    5    0    0 -0.13924476893E+02 -0.16605529550E+02 -0.49869729688E+02  0.54384047363E+02  0.10000000000E+01 0.  1.
        -13    1    6    6    0    0  0.42084252061E-01 -0.34581742585E+01 -0.38735183752E+01  0.51938338335E+01  0.10500000000E+00 0. -1.
         13    1    6    6    0    0 -0.67024345522E-01 -0.19417123886E+01 -0.21801387132E+01  0.29221172242E+01  0.10500000000E+00 0.  1.
</event>
<event>
11    0  0.3439373E-009  0.9118800E+02  0.7816531E-02  0.1126479E+00
         25   -1    0    0    0    0  0.00000000000E+00  0.00000000000E+00  0.99999998245E-14  0.12500000000E+03  0.12500000000E+03 0.  0.
    3000001    1    3    3    0    0  0.15348773573E+02  0.16676291965E+02  0.13553039935E+02  0.26426661828E+02  0.10000000000E+01 0. -1.
    1000022    2    1    0    0    0  0.42866615826E+02  0.38151064270E+02  0.22653908530E+02  0.62500000949E+02  0.10000004481E+02 0.  0.
    3000022    2    3    3    0    0  0.27517842253E+02  0.21474772305E+02  0.91008685946E+01  0.36073339121E+02  0.24999665259E+00 0.  0.
    1000022    2    1    0    0    0 -0.42866615826E+02 -0.38151064270E+02 -0.22653908530E+02  0.62499999051E+02  0.99999926172E+01 0.  0.
    3000022    2    5    5    0    0 -0.69596258499E+01 -0.11696109348E+02 -0.60934580647E+01  0.14914023295E+02  0.24998756790E+00 0.  0.
        -13    1    4    4    0    0  0.72774726000E+01  0.56454571293E+01  0.23807824297E+01  0.95137765173E+01  0.10500000000E+00 0. -1.
         13    1    4    4    0    0  0.20240369653E+02  0.15829315176E+02  0.67200861648E+01  0.26559562603E+02  0.10500000000E+00 0.  1.
    3000001    1    5    5    0    0 -0.35906989977E+02 -0.26454954922E+02 -0.16560450465E+02  0.47585975756E+02  0.10000000000E+01 0. -1.
        -13    1    6    6    0    0 -0.49951829484E+01 -0.83219209159E+01 -0.43238585484E+01  0.10626052803E+02  0.10500000000E+00 0.  1.
         13    1    6    6    0    0 -0.19644429015E+01 -0.33741884324E+01 -0.17695995163E+01  0.42879704919E+01  0.10500000000E+00 0. -1.
</event>
<event>
11    0  0.3439373E-009  0.9118800E+02  0.7816531E-02  0.1126479E+00
         25   -1    0    0    0    0  0.00000000000E+00  0.00000000000E+00  0.99999998245E-14  0.12500000000E+03  0.12500000000E+03 0.  0.
    3000001    1    3    3    0    0 -0.97086263768E+01  0.18821052853E+01 -0.19641615836E+02  0.22013469038E+02  0.10000000000E+01 0.  1.
    1000022    2    1    0    0    0 -0.15325944396E+02  0.17410326083E+01 -0.59735537287E+02  0.62500000182E+02  0.99999920761E+01 0.  0.
    3000022    2    3    3    0    0 -0.56173180193E+01 -0.14107267700E+00 -0.40093921452E+02  0.40486531144E+02  0.25000696379E+00 0.  0.
    1000022    2    1    0    0    0  0.15325944396E+02 -0.17410326083E+01  0.59735537287E+02  0.62499999818E+02  0.99999898056E+01 0.  0.
    3000022    2    5    5    0    0  0.11500310193E+02  0.15365880568E+01  0.51522155898E+02  0.52813002961E+02  0.24999184174E+00 0.  0.
        -13    1    4    4    0    0 -0.36217913484E+01 -0.10801062416E+00 -0.25447951639E+02  0.25704830411E+02  0.10500000000E+00 0.  1.
         13    1    4    4    0    0 -0.19955266709E+01 -0.33062052837E-01 -0.14645969813E+02  0.14781700733E+02  0.10500000000E+00 0. -1.
    3000001    1    5    5    0    0  0.38256342027E+01 -0.32776206652E+01  0.82133813889E+01  0.96869968575E+01  0.10000000000E+01 0. -1.
        -13    1    6    6    0    0  0.66387833397E+01  0.94771430770E+00  0.29887567106E+02  0.30630855345E+02  0.10500000000E+00 0. -1.
         13    1    6    6    0    0  0.48615268536E+01  0.58887374914E+00  0.21634588792E+02  0.22182147616E+02  0.10500000000E+00 0.  1.
</event>
<event>
11    0  0.3439373E-009  0.9118800E+02  0.7816531E-02  0.1126479E+00
         25   -1    0    0    0    0  0.00000000000E+00  0.00000000000E+00  0.99999998245E-14  0.12500000000E+03  0.12500000000E+03 0.  0.
    3000001    1    3    3    0    0  0.10282989200E+02  0.52750695690E+02 -0.95019199563E+01  0.54586282576E+02  0.10000000000E+01 0. -1.
    1000022    2    1    0    0    0  0.10556771083E+02  0.60344344484E+02 -0.73051089659E+01  0.62499998381E+02  0.99999926847E+01 0.  0.
    3000022    2    3    3    0    0  0.27378188290E+00  0.75936487939E+01  0.21968109904E+01  0.79137158042E+01  0.24992154170E+00 0.  0.
    1000022    2    1    0    0    0 -0.10556771083E+02 -0.60344344484E+02  0.73051089659E+01  0.62500001619E+02  0.10000012928E+02 0.  0.
    3000022    2    5    5    0    0  0.71553567907E+00 -0.69525661322E+01 -0.16666696854E+01  0.71896074115E+01  0.24999952142E+00 0.  0.
        -13    1    4    4    0    0  0.12268615193E+00  0.22109469649E+01  0.64625845962E+00  0.23091152786E+01  0.10500000000E+00 0.  1.
         13    1    4    4    0    0  0.15109573097E+00  0.53827018290E+01  0.15505525308E+01  0.56046005256E+01  0.10500000000E+00 0. -1.
    3000001    1    5    5    0    0 -0.11272306762E+02 -0.53391778352E+02  0.89717786512E+01  0.55310394208E+02  0.10000000000E+01 0.  1.
        -13    1    6    6    0    0  0.33845351702E+00 -0.32916134174E+01 -0.85850160356E+00  0.34201344529E+01  0.10500000000E+00 0. -1.
         13    1    6    6    0    0  0.37708216205E+00 -0.36609527148E+01 -0.80816808179E+00  0.37694729586E+01  0.10500000000E+00 0.  1.
</event>
<event>
11    0  0.3439373E-009  0.9118800E+02  0.7816531E-02  0.1126479E+00
         25   -1    0    0    0    0  0.00000000000E+00  0.00000000000E+00  0.99999998245E-14  0.12500000000E+03  0.12500000000E+03 0.  0.
    3000001    1    3    3    0    0 -0.15706595858E+02 -0.19495878488E+02  0.14959316943E+02  0.29181631121E+02  0.10000000000E+01 0.  1.
    1000022    2    1    0    0    0 -0.24061641363E+02 -0.44073079408E+02  0.35844837346E+02  0.62499990262E+02  0.99998752430E+01 0.  0.
    3000022    2    3    3    0    0 -0.83550455047E+01 -0.24577200920E+02  0.20885520403E+02  0.33318359141E+02  0.25000589287E+00 0.  0.
    1000022    2    1    0    0    0  0.24061641363E+02  0.44073079408E+02 -0.35844837346E+02  0.62500009738E+02  0.99999969681E+01 0.  0.
    3000022    2    5    5    0    0  0.17093409915E+02  0.21024197449E+02 -0.19270435582E+02  0.33250770382E+02  0.25000519276E+00 0.  0.
        -13    1    4    4    0    0 -0.43340598248E+01 -0.12540359087E+02  0.10663546502E+02  0.17022541808E+02  0.10500000000E+00 0. -1.
         13    1    4    4    0    0 -0.40209856799E+01 -0.12036841833E+02  0.10221973901E+02  0.16295817334E+02  0.10500000000E+00 0.  1.
    3000001    1    5    5    0    0  0.69682314473E+01  0.23048881959E+02 -0.16574401764E+02  0.29249239356E+02  0.10000000000E+01 0.  1.
        -13    1    6    6    0    0  0.11048065233E+02  0.13663690465E+02 -0.12457834218E+02  0.21539843103E+02  0.10500000000E+00 0.  1.
         13    1    6    6    0    0  0.60453446819E+01  0.73605069837E+01 -0.68126013646E+01  0.11710927279E+02  0.10500000000E+00 0. -1.
</event>
<event>
11    0  0.3439373E-009  0.9118800E+02  0.7816531E-02  0.1126479E+00
         25   -1    0    0    0    0  0.00000000000E+00  0.00000000000E+00  0.99999998245E-14  0.12500000000E+03  0.12500000000E+03 0.  0.
    3000001    1    3    3    0    0  0.39953701294E+01  0.19001895878E+01 -0.10470540684E+02  0.11410781093E+02  0.10000000000E+01 0.  1.
    1000022    2    1    0    0    0  0.91872764115E+01  0.26411216541E+02 -0.54993561163E+02  0.62499999114E+02  0.99999856435E+01 0.  0.
    3000022    2    3    3    0    0  0.51919062822E+01  0.24511026954E+02 -0.44523020478E+02  0.51089218021E+02  0.25002459711E+00 0.  0.
    1000022    2    1    0    0    0 -0.91872764115E+01 -0.26411216541E+02  0.54993561163E+02  0.62500000886E+02  0.99999967169E+01 0.  0.
    3000022    2    5    5    0    0 -0.62456586297E+01 -0.10511934236E+02  0.32930137331E+02  0.35127844154E+02  0.24995429275E+00 0.  0.
        -13    1    4    4    0    0  0.15826884152E+01  0.76230634786E+01 -0.13760129794E+02  0.15810382550E+02  0.10500000000E+00 0.  1.
         13    1    4    4    0    0  0.36092178670E+01  0.16887963475E+02 -0.30762890684E+02  0.35278835471E+02  0.10500000000E+00 0. -1.
    3000001    1    5    5    0    0 -0.29416177819E+01 -0.15899282305E+02  0.22063423831E+02  0.27372156732E+02  0.10000000000E+01 0.  1.
        -13    1    6    6    0    0 -0.33276860559E+01 -0.55908551459E+01  0.17714576374E+02  0.18871894364E+02  0.10500000000E+00 0. -1.
         13    1    6    6    0    0 -0.29179725737E+01 -0.49210790903E+01  0.15215560957E+02  0.16255949790E+02  0.10500000000E+00 0.  1.
</event>
<event>
11    0  0.3439373E-009  0.9118800E+02  0.7816531E-02  0.1126479E+00
         25   -1    0    0    0    0  0.00000000000E+00  0.00000000000E+00  0.99999998245E-14  0.12500000000E+03  0.12500000000E+03 0.  0.
    3000001    1    3    3    0    0  0.22248206144E+01 -0.90281899960E+01  0.10048415708E+00  0.93524402397E+01  0.10000000000E+01 0. -1.
    1000022    2    1    0    0    0 -0.18315870493E+01 -0.59422413849E+02  0.16488539588E+02  0.62499999998E+02  0.10000004157E+02 0.  0.
    3000022    2    3    3    0    0 -0.40564076637E+01 -0.50394223853E+02  0.16388055431E+02  0.53147559758E+02  0.25001299128E+00 0.  0.
    1000022    2    1    0    0    0  0.18315870493E+01  0.59422413849E+02 -0.16488539588E+02  0.62500000002E+02  0.10000004187E+02 0.  0.
    3000022    2    5    5    0    0 -0.19552134166E+01  0.50508905793E+02 -0.13619484913E+02  0.52350026684E+02  0.25000116306E+00 0.  0.
        -13    1    4    4    0    0 -0.15095184930E+01 -0.18553113699E+02  0.60938898122E+01  0.19586811687E+02  0.10500000000E+00 0. -1.
         13    1    4    4    0    0 -0.25468891708E+01 -0.31841110154E+02  0.10294165619E+02  0.33560748071E+02  0.10500000000E+00 0.  1.
    3000001    1    5    5    0    0  0.37868004660E+01  0.89135080563E+01 -0.28690546753E+01  0.10149973319E+02  0.10000000000E+01 0. -1.
        -13    1    6    6    0    0 -0.11112671424E+01  0.28406855583E+02 -0.77271638994E+01  0.29460218019E+02  0.10500000000E+00 0. -1.
         13    1    6    6    0    0 -0.84394627427E+00  0.22102050210E+02 -0.58923210133E+01  0.22889808665E+02  0.10500000000E+00 0.  1.
</event>
<event>
11    0  0.3439373E-009  0.9118800E+02  0.7816531E-02  0.1126479E+00
         25   -1    0    0    0    0  0.00000000000E+00  0.00000000000E+00  0.99999998245E-14  0.12500000000E+03  0.12500000000E+03 0.  0.
    3000001    1    3    3    0    0  0.56525990451E+01  0.21486985079E+02  0.21954272897E+02  0.31251120015E+02  0.10000000000E+01 0. -1.
    1000022    2    1    0    0    0  0.18916957647E+02  0.36906640487E+02  0.45676015779E+02  0.62500001157E+02  0.10000016421E+02 0.  0.
    3000022    2    3    3    0    0  0.13264358602E+02  0.15419655408E+02  0.23721742882E+02  0.31248881142E+02  0.25001039763E+00 0.  0.
    1000022    2    1    0    0    0 -0.18916957647E+02 -0.36906640487E+02 -0.45676015779E+02  0.62499998843E+02  0.10000001962E+02 0.  0.
    3000022    2    5    5    0    0 -0.23285431721E+01 -0.13291823387E+02 -0.11278305941E+02  0.17588557944E+02  0.25000682170E+00 0.  0.
        -13    1    4    4    0    0  0.84593746645E+01  0.97834469660E+01  0.15158177382E+02  0.19926319801E+02  0.10500000000E+00 0.  1.
         13    1    4    4    0    0  0.48049839378E+01  0.56362084422E+01  0.85635655001E+01  0.11322561341E+02  0.10500000000E+00 0. -1.
    3000001    1    5    5    0    0 -0.16588414475E+02 -0.23614817101E+02 -0.34397709839E+02  0.44911440899E+02  0.10000000000E+01 0. -1.
        -13    1    6    6    0    0 -0.14901931638E+01 -0.86128049593E+01 -0.72346553583E+01  0.11346909186E+02  0.10500000000E+00 0. -1.
         13    1    6    6    0    0 -0.83835000826E+00 -0.46790184275E+01 -0.40436505822E+01  0.62416487575E+01  0.10500000000E+00 0.  1.
</event>
<event>
11    0  0.3439373E-009  0.9118800E+02  0.7816531E-02  0.1126479E+00
         25   -1    0    0    0    0  0.00000000000E+00  0.00000000000E+00  0.99999998245E-14  0.12500000000E+03  0.12500000000E+03 0.  0.
    3000001    1    3    3    0    0  0.17165590062E+02  0.41549498216E+02 -0.31422826849E+02  0.54858110899E+02  0.10000000000E+01 0. -1.
    1000022    2    1    0    0    0  0.20109583157E+02  0.44336950413E+02 -0.37895770470E+02  0.62500000626E+02  0.10000007604E+02 0.  0.
    3000022    2    3    3    0    0  0.29439930947E+01  0.27874521972E+01 -0.64729436208E+01  0.76418897275E+01  0.24998879033E+00 0.  0.
    1000022    2    1    0    0    0 -0.20109583157E+02 -0.44336950413E+02  0.37895770470E+02  0.62499999374E+02  0.99999997760E+01 0.  0.
    3000022    2    5    5    0    0 -0.13211097414E+01 -0.11446425013E+02  0.61267778936E+01  0.13052428314E+02  0.25000201715E+00 0.  0.
        -13    1    4    4    0    0  0.15056622788E+01  0.13328157121E+01 -0.31944353867E+01  0.37760904465E+01  0.10500000000E+00 0.  1.
         13    1    4    4    0    0  0.14383308160E+01  0.14546364851E+01 -0.32785082341E+01  0.38657992810E+01  0.10500000000E+00 0. -1.
    3000001    1    5    5    0    0 -0.18788473416E+02 -0.32890525400E+02  0.31768992576E+02  0.49447571060E+02  0.10000000000E+01 0. -1.
        -13    1    6    6    0    0 -0.37026908333E+00 -0.29750406030E+01  0.15753518088E+01  0.33883217240E+01  0.10500000000E+00 0. -1.
         13    1    6    6    0    0 -0.95084065811E+00 -0.84713844102E+01  0.45514260847E+01  0.96641065903E+01  0.10500000000E+00 0.  1.
</event>
<event>
11    0  0.3439373E-009  0.9118800E+02  0.7816531E-02  0.1126479E+00
         25   -1    0    0    0    0  0.00000000000E+00  0.00000000000E+00  0.99999998245E-14  0.12500000000E+03  0.12500000000E+03 0.  0.
    3000001    1    3    3    0    0 -0.66537440543E+01  0.11485213815E+02 -0.12953470736E+02  0.18573498605E+02  0.10000000000E+01 0. -1.
    1000022    2    1    0    0    0 -0.23716728880E+02  0.25504184007E+02 -0.50924487718E+02  0.62500000916E+02  0.10000001725E+02 0.  0.
    3000022    2    3    3    0    0 -0.17062984826E+02  0.14018970192E+02 -0.37971016982E+02  0.43926502311E+02  0.24999645568E+00 0.  0.
    1000022    2    1    0    0    0  0.23716728880E+02 -0.25504184007E+02  0.50924487718E+02  0.62499999084E+02  0.99999902745E+01 0.  0.
    3000022    2    5    5    0    0  0.22018171219E+02 -0.25966287996E+02  0.46470076466E+02  0.57607104457E+02  0.25000209811E+00 0.  0.
        -13    1    4    4    0    0 -0.10752880049E+02  0.87600783870E+01 -0.23814764717E+02  0.27559344082E+02  0.10500000000E+00 0. -1.
         13    1    4    4    0    0 -0.63101047772E+01  0.52588918053E+01 -0.14156252265E+02  0.16367158230E+02  0.10500000000E+00 0.  1.
    3000001    1    5    5    0    0  0.16985576615E+01  0.46210398928E+00  0.44544112518E+01  0.48928946265E+01  0.10000000000E+01 0. -1.
        -13    1    6    6    0    0  0.58526210827E+01 -0.69536536637E+01  0.12390116092E+02  0.15366602571E+02  0.10500000000E+00 0.  1.
         13    1    6    6    0    0  0.16165550136E+02 -0.19012634333E+02  0.34079960375E+02  0.42240501886E+02  0.10500000000E+00 0. -1.
</event>
<event>
11    0  0.3439373E-009  0.9118800E+02  0.7816531E-02  0.1126479E+00
         25   -1    0    0    0    0  0.00000000000E+00  0.00000000000E+00  0.99999998245E-14  0.12500000000E+03  0.12500000000E+03 0.  0.
    3000001    1    3    3    0    0  0.13365462228E+02  0.40430361257E+02  0.31174271685E+02  0.52783377185E+02  0.10000000000E+01 0. -1.
    1000022    2    1    0    0    0  0.12849906948E+02  0.45870783597E+02  0.39204602434E+02  0.62499997052E+02  0.99999941561E+01 0.  0.
    3000022    2    3    3    0    0 -0.51555528038E+00  0.54404223402E+01  0.80303307485E+01  0.97166198670E+01  0.24999444510E+00 0.  0.
    1000022    2    1    0    0    0 -0.12849906948E+02 -0.45870783597E+02 -0.39204602434E+02  0.62500002948E+02  0.10000031003E+02 0.  0.
    3000022    2    5    5    0    0 -0.17327743832E+01 -0.23971557910E+02 -0.20930913159E+02  0.31871675506E+02  0.24995637507E+00 0.  0.
        -13    1    4    4    0    0 -0.29941581310E+00  0.36576421323E+01  0.54313759341E+01  0.65558268231E+01  0.10500000000E+00 0.  1.
         13    1    4    4    0    0 -0.21613946727E+00  0.17827802079E+01  0.25989548144E+01  0.31607930439E+01  0.10500000000E+00 0. -1.
    3000001    1    5    5    0    0 -0.11117132565E+02 -0.21899225687E+02 -0.18273689275E+02  0.30628327442E+02  0.10000000000E+01 0.  1.
        -13    1    6    6    0    0 -0.11643314178E+01 -0.16451796704E+02 -0.14419451689E+02  0.21907735950E+02  0.10500000000E+00 0.  1.
         13    1    6    6    0    0 -0.56844296540E+00 -0.75197612063E+01 -0.65114614697E+01  0.99639395560E+01  0.10500000000E+00 0. -1.
</event>
<event>
11    0  0.3439373E-009  0.9118800E+02  0.7816531E-02  0.1126479E+00
         25   -1    0    0    0    0  0.00000000000E+00  0.00000000000E+00  0.99999998245E-14  0.12500000000E+03  0.12500000000E+03 0.  0.
    3000001    1    3    3    0    0  0.21161536144E+02  0.22457659681E+02 -0.18872691697E+02  0.36184742395E+02  0.10000000000E+01 0.  1.
    1000022    2    1    0    0    0  0.35814280166E+02  0.43289898137E+02 -0.25486704079E+02  0.62499998928E+02  0.99999918297E+01 0.  0.
    3000022    2    3    3    0    0  0.14652744021E+02  0.20832238456E+02 -0.66140123830E+01  0.26315256532E+02  0.25000022283E+00 0.  0.
    1000022    2    1    0    0    0 -0.35814280166E+02 -0.43289898137E+02  0.25486704079E+02  0.62500001072E+02  0.10000005235E+02 0.  0.
    3000022    2    5    5    0    0 -0.88980613826E+01 -0.13228577592E+02  0.27699182352E+01  0.16183500929E+02  0.24998757515E+00 0.  0.
        -13    1    4    4    0    0  0.51024417910E+01  0.72079092155E+01 -0.23442302468E+01  0.91375766995E+01  0.10500000000E+00 0. -1.
         13    1    4    4    0    0  0.95503022304E+01  0.13624329241E+02 -0.42697821362E+01  0.17177679833E+02  0.10500000000E+00 0.  1.
    3000001    1    5    5    0    0 -0.26916218783E+02 -0.30061320545E+02  0.22716785844E+02  0.46316500144E+02  0.10000000000E+01 0. -1.
        -13    1    6    6    0    0 -0.30851533112E+01 -0.45031369146E+01  0.97847036962E+00  0.55466063759E+01  0.10500000000E+00 0.  1.
         13    1    6    6    0    0 -0.58129080714E+01 -0.87254406779E+01  0.17914478656E+01  0.10636894553E+02  0.10500000000E+00 0. -1.
</event>
<event>
11    0  0.3439373E-009  0.9118800E+02  0.7816531E-02  0.1126479E+00
         25   -1    0    0    0    0  0.00000000000E+00  0.00000000000E+00  0.99999998245E-14  0.12500000000E+03  0.12500000000E+03 0.  0.
    3000001    1    3    3    0    0  0.31797919138E+02 -0.51475624172E+01 -0.73572483130E+01  0.33056529810E+02  0.10000000000E+01 0. -1.
    1000022    2    1    0    0    0  0.60215412680E+02 -0.40392726506E+00 -0.13423511201E+02  0.62500002131E+02  0.10000026600E+02 0.  0.
    3000022    2    3    3    0    0  0.28417493543E+02  0.47436351521E+01 -0.60662628878E+01  0.29443472322E+02  0.25000648369E+00 0.  0.
    1000022    2    1    0    0    0 -0.60215412680E+02  0.40392726506E+00  0.13423511201E+02  0.62499997869E+02  0.99999999565E+01 0.  0.
    3000022    2    5    5    0    0 -0.61277589698E+01  0.18346989400E+01  0.40592808991E+01  0.75799632671E+01  0.25006303254E+00 0.  0.
        -13    1    4    4    0    0  0.12197887990E+02  0.20005611858E+01 -0.25462013438E+01  0.12620811494E+02  0.10500000000E+00 0. -1.
         13    1    4    4    0    0  0.16219605552E+02  0.27430739663E+01 -0.35200615440E+01  0.16822660828E+02  0.10500000000E+00 0.  1.
    3000001    1    5    5    0    0 -0.54087653710E+02 -0.14307716750E+01  0.93642303017E+01  0.54920034601E+02  0.10000000000E+01 0.  1.
        -13    1    6    6    0    0 -0.26180506632E+01  0.74250747940E+00  0.17886601030E+01  0.32581952974E+01  0.10500000000E+00 0.  1.
         13    1    6    6    0    0 -0.35097083066E+01  0.10921914606E+01  0.22706207962E+01  0.43217679697E+01  0.10500000000E+00 0. -1.
</event>
<event>
11    0  0.3439373E-009  0.9118800E+02  0.7816531E-02  0.1126479E+00
         25   -1    0    0    0    0  0.00000000000E+00  0.00000000000E+00  0.99999998245E-14  0.12500000000E+03  0.12500000000E+03 0.  0.
    3000001    1    3    3    0    0  0.30707478847E+01  0.62739629177E+01 -0.27009818937E+00  0.70615194042E+01  0.10000000000E+01 0. -1.
    1000022    2    1    0    0    0  0.86084970248E+01  0.57159700032E+02 -0.21561827641E+02  0.62500000161E+02  0.10000004005E+02 0.  0.
    3000022    2    3    3    0    0  0.55377491401E+01  0.50885737114E+02 -0.21291729452E+02  0.55438480757E+02  0.24999669101E+00 0.  0.
    1000022    2    1    0    0    0 -0.86084970248E+01 -0.57159700032E+02  0.21561827641E+02  0.62499999839E+02  0.10000001992E+02 0.  0.
    3000022    2    5    5    0    0  0.90796953115E+00 -0.98670284176E+01  0.68767714963E+01  0.12063794608E+02  0.24999131722E+00 0.  0.
        -13    1    4    4    0    0  0.22096314813E+01  0.20174354913E+02 -0.85082631615E+01  0.22006558896E+02  0.10500000000E+00 0.  1.
         13    1    4    4    0    0  0.33281176589E+01  0.30711382202E+02 -0.12783466291E+02  0.33431921861E+02  0.10500000000E+00 0. -1.
    3000001    1    5    5    0    0 -0.95164665559E+01 -0.47292671615E+02  0.14685056145E+02  0.50436205231E+02  0.10000000000E+01 0.  1.
        -13    1    6    6    0    0  0.70735287495E+00 -0.74821249208E+01  0.52251880566E+01  0.91540240685E+01  0.10500000000E+00 0.  1.
         13    1    6    6    0    0  0.20061665620E+00 -0.23849034968E+01  0.16515834397E+01  0.29097705391E+01  0.10500000000E+00 0. -1.
</event>
<event>
11    0  0.3439373E-009  0.9118800E+02  0.7816531E-02  0.1126479E+00
         25   -1    0    0    0    0  0.00000000000E+00  0.00000000000E+00  0.99999998245E-14  0.12500000000E+03  0.12500000000E+03 0.  0.
    3000001    1    3    3    0    0  0.24821621677E+02 -0.32461562095E+01  0.11270850482E+02  0.27471485279E+02  0.10000000000E+01 0. -1.
    1000022    2    1    0    0    0  0.55652304985E+02  0.37173189278E+01  0.26367639462E+02  0.62499995895E+02  0.99999782925E+01 0.  0.
    3000022    2    3    3    0    0  0.30830683308E+02  0.69634751373E+01  0.15096788980E+02  0.35028510616E+02  0.24999849063E+00 0.  0.
    1000022    2    1    0    0    0 -0.55652304985E+02 -0.37173189278E+01 -0.26367639462E+02  0.62500004105E+02  0.10000029610E+02 0.  0.
    3000022    2    5    5    0    0 -0.25447360378E+02 -0.64860390699E+01 -0.10855137507E+02  0.28417131473E+02  0.24999570874E+00 0.  0.
        -13    1    4    4    0    0  0.13508908418E+02  0.30081011558E+01  0.65539458233E+01  0.15313540089E+02  0.10500000000E+00 0.  1.
         13    1    4    4    0    0  0.17321774890E+02  0.39553739816E+01  0.85428431565E+01  0.19714970527E+02  0.10500000000E+00 0. -1.
    3000001    1    5    5    0    0 -0.30204944607E+02  0.27687201421E+01 -0.15512501955E+02  0.34082872632E+02  0.10000000000E+01 0.  1.
        -13    1    6    6    0    0 -0.11194208847E+02 -0.28680549974E+01 -0.47068647403E+01  0.12478046797E+02  0.10500000000E+00 0. -1.
         13    1    6    6    0    0 -0.14253151530E+02 -0.36179840725E+01 -0.61482727664E+01  0.15939084676E+02  0.10500000000E+00 0.  1.
</event>
<event>
11    0  0.3439373E-009  0.9118800E+02  0.7816531E-02  0.1126479E+00
         25   -1    0    0    0    0  0.00000000000E+00  0.00000000000E+00  0.99999998245E-14  0.12500000000E+03  0.12500000000E+03 0.  0.
    3000001    1    3    3    0    0 -0.27478095416E+01 -0.95648056385E+01 -0.39379523212E+02  0.40629826637E+02  0.10000000000E+01 0.  1.
    1000022    2    1    0    0    0 -0.10280976073E+02 -0.17919590302E+02 -0.58132949095E+02  0.62500000388E+02  0.10000004618E+02 0.  0.
    3000022    2    3    3    0    0 -0.75331665314E+01 -0.83547846634E+01 -0.18753425883E+02  0.21870173751E+02  0.24998550577E+00 0.  0.
    1000022    2    1    0    0    0  0.10280976073E+02  0.17919590302E+02  0.58132949095E+02  0.62499999612E+02  0.99999997674E+01 0.  0.
    3000022    2    5    5    0    0  0.10698625457E+02  0.18358805149E+02  0.50663785729E+02  0.54939857941E+02  0.24998600543E+00 0.  0.
        -13    1    4    4    0    0 -0.43386632883E+01 -0.47149324881E+01 -0.10697879627E+02  0.12470374534E+02  0.10500000000E+00 0.  1.
         13    1    4    4    0    0 -0.31945032431E+01 -0.36398521754E+01 -0.80555462562E+01  0.93997992167E+01  0.10500000000E+00 0. -1.
    3000001    1    5    5    0    0 -0.41764938433E+00 -0.43921484698E+00  0.74691633666E+01  0.75601416711E+01  0.10000000000E+01 0. -1.
        -13    1    6    6    0    0  0.40791941979E+01  0.69228701434E+01  0.19039045314E+02  0.20665483972E+02  0.10500000000E+00 0.  1.
         13    1    6    6    0    0  0.66194312595E+01  0.11435935006E+02  0.31624740415E+02  0.34274373969E+02  0.10500000000E+00 0. -1.
</event>
<event>
11    0  0.3439373E-009  0.9118800E+02  0.7816531E-02  0.1126479E+00
         25   -1    0    0    0    0  0.00000000000E+00  0.00000000000E+00  0.99999998245E-14  0.12500000000E+03  0.12500000000E+03 0.  0.
    3000001    1    3    3    0    0  0.87531843701E+01 -0.14667920690E+02 -0.12427132328E+02  0.21147097954E+02  0.10000000000E+01 0. -1.
    1000022    2    1    0    0    0  0.34155800804E+02 -0.32735256660E+02 -0.39598413205E+02  0.62500000596E+02  0.99999994464E+01 0.  0.
    3000022    2    3    3    0    0  0.25402616434E+02 -0.18067335970E+02 -0.27171280877E+02  0.41352902642E+02  0.25000325012E+00 0.  0.
    1000022    2    1    0    0    0 -0.34155800804E+02  0.32735256660E+02  0.39598413205E+02  0.62499999404E+02  0.99999919955E+01 0.  0.
    3000022    2    5    5    0    0 -0.10544633620E+02  0.43830325051E+01  0.10191280766E+02  0.15307677267E+02  0.25001509108E+00 0.  0.
        -13    1    4    4    0    0  0.16902120500E+02 -0.11978877781E+02 -0.18002380722E+02  0.27445799806E+02  0.10500000000E+00 0. -1.
         13    1    4    4    0    0  0.85004959342E+01 -0.60884581890E+01 -0.91689001546E+01  0.13907102836E+02  0.10500000000E+00 0.  1.
    3000001    1    5    5    0    0 -0.23611167185E+02  0.28352224155E+02  0.29407132440E+02  0.47192322137E+02  0.10000000000E+01 0.  1.
        -13    1    6    6    0    0 -0.34538379508E+01  0.14619325719E+01  0.32854670469E+01  0.49871396763E+01  0.10500000000E+00 0.  1.
         13    1    6    6    0    0 -0.70907956690E+01  0.29210999332E+01  0.69058137187E+01  0.10320537591E+02  0.10500000000E+00 0. -1.
</event>
<event>
11    0  0.3439373E-009  0.9118800E+02  0.7816531E-02  0.1126479E+00
         25   -1    0    0    0    0  0.00000000000E+00  0.00000000000E+00  0.99999998245E-14  0.12500000000E+03  0.12500000000E+03 0.  0.
    3000001    1    3    3    0    0 -0.51904418844E+01 -0.98518027855E+01 -0.35958648974E+01  0.11744315622E+02  0.10000000000E+01 0.  1.
    1000022    2    1    0    0    0 -0.31454964892E+02 -0.53069159939E+02  0.70668422326E+00  0.62500000576E+02  0.10000005824E+02 0.  0.
    3000022    2    3    3    0    0 -0.26264523007E+02 -0.43217357153E+02  0.43025491207E+01  0.50755684953E+02  0.24999611478E+00 0.  0.
    1000022    2    1    0    0    0  0.31454964892E+02  0.53069159939E+02 -0.70668422326E+00  0.62499999424E+02  0.99999986242E+01 0.  0.
    3000022    2    5    5    0    0  0.18580043694E+02  0.39657650078E+02  0.97681326298E+00  0.43805980156E+02  0.24999990892E+00 0.  0.
        -13    1    4    4    0    0 -0.74102305193E+01 -0.12271797875E+02  0.12221483340E+01  0.14387953676E+02  0.10500000000E+00 0.  1.
         13    1    4    4    0    0 -0.18854292488E+02 -0.30945559278E+02  0.30804007867E+01  0.36367731277E+02  0.10500000000E+00 0. -1.
    3000001    1    5    5    0    0  0.12874921197E+02  0.13411509861E+02 -0.16834974862E+01  0.18694019268E+02  0.10000000000E+01 0. -1.
        -13    1    6    6    0    0  0.44195400275E+01  0.94352441701E+01  0.21490030288E+00  0.10421774021E+02  0.10500000000E+00 0.  1.
         13    1    6    6    0    0  0.14160503667E+02  0.30222405907E+02  0.76191296010E+00  0.33384206135E+02  0.10500000000E+00 0. -1.
</event>
<event>
11    0  0.3439373E-009  0.9118800E+02  0.7816531E-02  0.1126479E+00
         25   -1    0    0    0    0  0.00000000000E+00  0.00000000000E+00  0.99999998245E-14  0.12500000000E+03  0.12500000000E+03 0.  0.
    3000001    1    3    3    0    0 -0.70705640748E+00  0.62915984513E+00 -0.45325828903E+00  0.14495564669E+01  0.10000000000E+01 0. -1.
    1000022    2    1    0    0    0 -0.78851421120E+01  0.11643839266E+02 -0.60070755578E+02  0.62499999231E+02  0.99999884628E+01 0.  0.
    3000022    2    3    3    0    0 -0.71780857045E+01  0.11014679421E+02 -0.59617497289E+02  0.61050442765E+02  0.25000327930E+00 0.  0.
    1000022    2    1    0    0    0  0.78851421120E+01 -0.11643839266E+02  0.60070755578E+02  0.62500000769E+02  0.99999980696E+01 0.  0.
    3000022    2    5    5    0    0  0.73983123294E+01 -0.26064480671E+01  0.22079331342E+02  0.23432626165E+02  0.24999928853E+00 0.  0.
        -13    1    4    4    0    0 -0.31710477292E+01  0.48181737834E+01 -0.25875107552E+02  0.26510423575E+02  0.10500000000E+00 0.  1.
         13    1    4    4    0    0 -0.40070379754E+01  0.61965056372E+01 -0.33742389737E+02  0.34540019189E+02  0.10500000000E+00 0. -1.
    3000001    1    5    5    0    0  0.48682978262E+00 -0.90373911985E+01  0.37991424236E+02  0.39067374603E+02  0.10000000000E+01 0.  1.
        -13    1    6    6    0    0  0.40248703165E+01 -0.14785166010E+01  0.11963710155E+02  0.12709326421E+02  0.10500000000E+00 0.  1.
         13    1    6    6    0    0  0.33734420129E+01 -0.11279314661E+01  0.10115621187E+02  0.10723299744E+02  0.10500000000E+00 0. -1.
</event>
<event>
11    0  0.3439373E-009  0.9118800E+02  0.7816531E-02  0.1126479E+00
         25   -1    0    0    0    0  0.00000000000E+00  0.00000000000E+00  0.99999998245E-14  0.12500000000E+03  0.12500000000E+03 0.  0.
    3000001    1    3    3    0    0 -0.50805178034E+02  0.28416161019E+02  0.71554429609E+01  0.58658713642E+02  0.10000000000E+01 0. -1.
    1000022    2    1    0    0    0 -0.54010977668E+02  0.28344281697E+02  0.92556025425E+01  0.62500000928E+02  0.99999961993E+01 0.  0.
    3000022    2    3    3    0    0 -0.32057996341E+01 -0.71879322254E-01  0.21001595816E+01  0.38412872862E+01  0.24999963152E+00 0.  0.
    1000022    2    1    0    0    0  0.54010977668E+02 -0.28344281697E+02 -0.92556025425E+01  0.62499999072E+02  0.99999845954E+01 0.  0.
    3000022    2    5    5    0    0  0.27361251909E+01  0.62660615556E+00  0.27759935538E+00  0.28317095203E+01  0.25000214103E+00 0.  0.
        -13    1    4    4    0    0 -0.19563755948E+01 -0.99602836455E-01  0.13134221374E+01  0.23608110691E+01  0.10500000000E+00 0.  1.
         13    1    4    4    0    0 -0.12494240393E+01  0.27723514202E-01  0.78673744424E+00  0.14804762171E+01  0.10500000000E+00 0. -1.
    3000001    1    5    5    0    0  0.51274852478E+02 -0.28970887853E+02 -0.95332018979E+01  0.59668289551E+02  0.10000000000E+01 0. -1.
        -13    1    6    6    0    0  0.74724888905E+00  0.13450950292E+00  0.68310373611E-01  0.76952258947E+00  0.10500000000E+00 0.  1.
         13    1    6    6    0    0  0.19888763019E+01  0.49209665264E+00  0.20928898177E+00  0.20621869308E+01  0.10500000000E+00 0. -1.
</event>
<event>
11    0  0.3439373E-009  0.9118800E+02  0.7816531E-02  0.1126479E+00
         25   -1    0    0    0    0  0.00000000000E+00  0.00000000000E+00  0.99999998245E-14  0.12500000000E+03  0.12500000000E+03 0.  0.
    3000001    1    3    3    0    0  0.63892816499E+01  0.83709836956E+01 -0.76321695627E+01  0.13044013963E+02  0.10000000000E+01 0. -1.
    1000022    2    1    0    0    0  0.24774212631E+02  0.51729002707E+02 -0.22728813327E+02  0.62500001035E+02  0.99999920791E+01 0.  0.
    3000022    2    3    3    0    0  0.18384930981E+02  0.43358019011E+02 -0.15096643764E+02  0.49455987072E+02  0.25000910349E+00 0.  0.
    1000022    2    1    0    0    0 -0.24774212631E+02 -0.51729002707E+02  0.22728813327E+02  0.62499998965E+02  0.99999791424E+01 0.  0.
    3000022    2    5    5    0    0 -0.58597005819E+01 -0.56413886171E+01  0.12232351133E+01  0.82292256810E+01  0.24998945621E+00 0.  0.
        -13    1    4    4    0    0  0.95026940410E+01  0.22300583463E+02 -0.77155914595E+01  0.25439311967E+02  0.10500000000E+00 0. -1.
         13    1    4    4    0    0  0.88822369405E+01  0.21057435548E+02 -0.73810523049E+01  0.24016675104E+02  0.10500000000E+00 0.  1.
    3000001    1    5    5    0    0 -0.18914512049E+02 -0.46087614090E+02  0.21505578214E+02  0.54270773284E+02  0.10000000000E+01 0.  1.
        -13    1    6    6    0    0 -0.27654099309E+01 -0.26633820931E+01  0.50922061173E+00  0.38744582707E+01  0.10500000000E+00 0. -1.
         13    1    6    6    0    0 -0.30942906510E+01 -0.29780065240E+01  0.71401450154E+00  0.43547674103E+01  0.10500000000E+00 0.  1.
</event>
<event>
11    0  0.3439373E-009  0.9118800E+02  0.7816531E-02  0.1126479E+00
         25   -1    0    0    0    0  0.00000000000E+00  0.00000000000E+00  0.99999998245E-14  0.12500000000E+03  0.12500000000E+03 0.  0.
    3000001    1    3    3    0    0  0.21240506655E+02 -0.26187988403E+02  0.38737128878E+02  0.51366672203E+02  0.10000000000E+01 0. -1.
    1000022    2    1    0    0    0  0.24562008171E+02 -0.27944928249E+02  0.49214212327E+02  0.62500000318E+02  0.10000004225E+02 0.  0.
    3000022    2    3    3    0    0  0.33215015162E+01 -0.17569398459E+01  0.10477083450E+02  0.11133328115E+02  0.25001469843E+00 0.  0.
    1000022    2    1    0    0    0 -0.24562008171E+02  0.27944928249E+02 -0.49214212327E+02  0.62499999682E+02  0.10000000251E+02 0.  0.
    3000022    2    5    5    0    0 -0.54827383376E+01  0.11444773367E+02 -0.21856714671E+02  0.25274923100E+02  0.25000883465E+00 0.  0.
        -13    1    4    4    0    0  0.12677968274E+01 -0.60372144228E+00  0.39483560564E+01  0.41919361784E+01  0.10500000000E+00 0.  1.
         13    1    4    4    0    0  0.20537046888E+01 -0.11532184036E+01  0.65287273934E+01  0.69413919363E+01  0.10500000000E+00 0. -1.
    3000001    1    5    5    0    0 -0.19079269834E+02  0.16500154881E+02 -0.27357497657E+02  0.37225076582E+02  0.10000000000E+01 0.  1.
        -13    1    6    6    0    0 -0.21522477995E+01  0.46364177452E+01 -0.87794500629E+01  0.10159641160E+02  0.10500000000E+00 0. -1.
         13    1    6    6    0    0 -0.33304905381E+01  0.68083556222E+01 -0.13077264608E+02  0.15115281940E+02  0.10500000000E+00 0.  1.
</event>
<event>
11    0  0.3439373E-009  0.9118800E+02  0.7816531E-02  0.1126479E+00
         25   -1    0    0    0    0  0.00000000000E+00  0.00000000000E+00  0.99999998245E-14  0.12500000000E+03  0.12500000000E+03 0.  0.
    3000001    1    3    3    0    0  0.31527338474E+02 -0.27724269321E+02 -0.74411516236E+00  0.42001927194E+02  0.10000000000E+01 0.  1.
    1000022    2    1    0    0    0  0.43442258935E+02 -0.43583437444E+02  0.44163172006E+01  0.62500002671E+02  0.10000029773E+02 0.  0.
    3000022    2    3    3    0    0  0.11914920461E+02 -0.15859168124E+02  0.51604323630E+01  0.20498075477E+02  0.24998588445E+00 0.  0.
    1000022    2    1    0    0    0 -0.43442258935E+02  0.43583437444E+02 -0.44163172006E+01  0.62499997329E+02  0.99999963808E+01 0.  0.
    3000022    2    5    5    0    0 -0.15254251827E+02  0.19538944296E+02 -0.56132736879E+01  0.25417196729E+02  0.25001011923E+00 0.  0.
        -13    1    4    4    0    0  0.60711579327E+01 -0.81933409353E+01  0.26580916374E+01  0.10538798341E+02  0.10500000000E+00 0. -1.
         13    1    4    4    0    0  0.58437625279E+01 -0.76658271885E+01  0.25023407256E+01  0.99592771361E+01  0.10500000000E+00 0.  1.
    3000001    1    5    5    0    0 -0.28188007108E+02  0.24044493149E+02  0.11969564872E+01  0.37082800600E+02  0.10000000000E+01 0. -1.
        -13    1    6    6    0    0 -0.99890299884E+01  0.12845943642E+02 -0.37315818559E+01  0.16695350141E+02  0.10500000000E+00 0. -1.
         13    1    6    6    0    0 -0.52652218385E+01  0.66930006533E+01 -0.18816918319E+01  0.87218465880E+01  0.10500000000E+00 0.  1.
</event>
<event>
11    0  0.3439373E-009  0.9118800E+02  0.7816531E-02  0.1126479E+00
         25   -1    0    0    0    0  0.00000000000E+00  0.00000000000E+00  0.99999998245E-14  0.12500000000E+03  0.12500000000E+03 0.  0.
    3000001    1    3    3    0    0 -0.92692674324E+01  0.21262975600E+02  0.76056439135E+01  0.24431112735E+02  0.10000000000E+01 0.  1.
    1000022    2    1    0    0    0 -0.12229508597E+02  0.58054316162E+02  0.16922929362E+02  0.62499998645E+02  0.99999893449E+01 0.  0.
    3000022    2    3    3    0    0 -0.29602411642E+01  0.36791340561E+02  0.93172854480E+01  0.38068885910E+02  0.24999652401E+00 0.  0.
    1000022    2    1    0    0    0  0.12229508597E+02 -0.58054316162E+02 -0.16922929362E+02  0.62500001355E+02  0.10000006286E+02 0.  0.
    3000022    2    5    5    0    0  0.48437616761E+01 -0.76577404996E+01 -0.97182619898E+00  0.91164665516E+01  0.24999898187E+00 0.  0.
        -13    1    4    4    0    0 -0.93085407343E+00  0.12160126865E+02  0.30543141749E+01  0.12572789458E+02  0.10500000000E+00 0.  1.
         13    1    4    4    0    0 -0.20293870907E+01  0.24631213696E+02  0.62629712731E+01  0.25496096452E+02  0.10500000000E+00 0. -1.
    3000001    1    5    5    0    0  0.73857469205E+01 -0.50396575662E+02 -0.15951103163E+02  0.53383534804E+02  0.10000000000E+01 0.  1.
        -13    1    6    6    0    0  0.33950711284E+01 -0.53126427905E+01 -0.63913791742E+00  0.63379968180E+01  0.10500000000E+00 0.  1.
         13    1    6    6    0    0  0.14486905477E+01 -0.23450977091E+01 -0.33268828156E+00  0.27784697336E+01  0.10500000000E+00 0. -1.
</event>
<event>
11    0  0.3439373E-009  0.9118800E+02  0.7816531E-02  0.1126479E+00
         25   -1    0    0    0    0  0.00000000000E+00  0.00000000000E+00  0.99999998245E-14  0.12500000000E+03  0.12500000000E+03 0.  0.
    3000001    1    3    3    0    0 -0.61506898978E+01  0.37143583504E+01  0.39129981630E+01  0.82425116802E+01  0.10000000000E+01 0. -1.
    1000022    2    1    0    0    0 -0.45782844893E+02  0.40504045147E+02  0.83428720485E+01  0.62500000071E+02  0.99999967569E+01 0.  0.
    3000022    2    3    3    0    0 -0.39632154995E+02  0.36789686796E+02  0.44298738855E+01  0.54257488391E+02  0.24999945585E+00 0.  0.
    1000022    2    1    0    0    0  0.45782844893E+02 -0.40504045147E+02 -0.83428720485E+01  0.62499999929E+02  0.99999958658E+01 0.  0.
    3000022    2    5    5    0    0  0.16879371180E+02 -0.10101871545E+02 -0.55773463857E+01  0.20448233205E+02  0.24993669802E+00 0.  0.
        -13    1    4    4    0    0 -0.17044404884E+02  0.15911352089E+02  0.19135399225E+01  0.23395630429E+02  0.10500000000E+00 0. -1.
         13    1    4    4    0    0 -0.22587750111E+02  0.20878334707E+02  0.25163339631E+01  0.30861857962E+02  0.10500000000E+00 0.  1.
    3000001    1    5    5    0    0  0.28903473713E+02 -0.30402173602E+02 -0.27655256629E+01  0.42051766724E+02  0.10000000000E+01 0. -1.
        -13    1    6    6    0    0  0.49719409597E+01 -0.29955953405E+01 -0.16034152457E+01  0.60229356464E+01  0.10500000000E+00 0. -1.
         13    1    6    6    0    0  0.11907430221E+02 -0.71062762042E+01 -0.39739311399E+01  0.14425297559E+02  0.10500000000E+00 0.  1.
</event>
<event>
11    0  0.3439373E-009  0.9118800E+02  0.7816531E-02  0.1126479E+00
         25   -1    0    0    0    0  0.00000000000E+00  0.00000000000E+00  0.99999998245E-14  0.12500000000E+03  0.12500000000E+03 0.  0.
    3000001    1    3    3    0    0 -0.16469232148E+02 -0.11534882710E+02 -0.41892689184E+02  0.46478882664E+02  0.10000000000E+01 0. -1.
    1000022    2    1    0    0    0 -0.21254521868E+02 -0.20796751606E+02 -0.54055438294E+02  0.62499999404E+02  0.99999969574E+01 0.  0.
    3000022    2    3    3    0    0 -0.47852897204E+01 -0.92618688964E+01 -0.12162749111E+02  0.16021116740E+02  0.25000502990E+00 0.  0.
    1000022    2    1    0    0    0  0.21254521868E+02  0.20796751606E+02  0.54055438294E+02  0.62500000596E+02  0.10000004405E+02 0.  0.
    3000022    2    5    5    0    0 -0.10903511835E+01  0.10667417654E+01  0.28011524569E+01  0.31993390760E+01  0.25002347671E+00 0.  0.
        -13    1    4    4    0    0 -0.36074389825E+01 -0.69479295008E+01 -0.91002916677E+01  0.12004735474E+02  0.10500000000E+00 0. -1.
         13    1    4    4    0    0 -0.11778507379E+01 -0.23139393956E+01 -0.30624574428E+01  0.40163812663E+01  0.10500000000E+00 0.  1.
    3000001    1    5    5    0    0  0.22344873052E+02  0.19730009841E+02  0.51254285837E+02  0.59300661520E+02  0.10000000000E+01 0. -1.
        -13    1    6    6    0    0 -0.51952352180E+00  0.57789308480E+00  0.15188149054E+01  0.17092948324E+01  0.10500000000E+00 0.  1.
         13    1    6    6    0    0 -0.57082766166E+00  0.48884868061E+00  0.12823375515E+01  0.14900442436E+01  0.10500000000E+00 0. -1.
</event>
<event>
11    0  0.3439373E-009  0.9118800E+02  0.7816531E-02  0.1126479E+00
         25   -1    0    0    0    0  0.00000000000E+00  0.00000000000E+00  0.99999998245E-14  0.12500000000E+03  0.12500000000E+03 0.  0.
    3000001    1    3    3    0    0  0.41924743246E+02 -0.11059028335E+02 -0.27384332912E+02  0.51292181597E+02  0.10000000000E+01 0.  1.
    1000022    2    1    0    0    0  0.52912391896E+02 -0.11757897153E+02 -0.29466604742E+02  0.62500000535E+02  0.99999955073E+01 0.  0.
    3000022    2    3    3    0    0  0.10987648650E+02 -0.69886881810E+00 -0.20822718298E+01  0.11207818937E+02  0.25001774101E+00 0.  0.
    1000022    2    1    0    0    0 -0.52912391896E+02  0.11757897153E+02  0.29466604742E+02  0.62499999465E+02  0.99999888241E+01 0.  0.
    3000022    2    5    5    0    0 -0.22283116995E+01 -0.39922051818E+00 -0.55219543304E+00  0.23435379718E+01  0.25000075296E+00 0.  0.
        -13    1    4    4    0    0  0.35851923499E+01 -0.22680637614E+00 -0.62656970523E+00  0.36481036051E+01  0.10500000000E+00 0.  1.
         13    1    4    4    0    0  0.74024563005E+01 -0.47206244196E+00 -0.14557021246E+01  0.75597153323E+01  0.10500000000E+00 0. -1.
    3000001    1    5    5    0    0 -0.50684080197E+02  0.12157117671E+02  0.30018800175E+02  0.60156461494E+02  0.10000000000E+01 0.  1.
        -13    1    6    6    0    0 -0.10700755103E+01 -0.15221113724E+00 -0.20674471596E+00  0.11054402768E+01  0.10500000000E+00 0.  1.
         13    1    6    6    0    0 -0.11582361892E+01 -0.24700938094E+00 -0.34545071708E+00  0.12380976949E+01  0.10500000000E+00 0. -1.
</event>
<event>
11    0  0.3439373E-009  0.9118800E+02  0.7816531E-02  0.1126479E+00
         25   -1    0    0    0    0  0.00000000000E+00  0.00000000000E+00  0.99999998245E-14  0.12500000000E+03  0.12500000000E+03 0.  0.
    3000001    1    3    3    0    0 -0.28504121157E+02  0.48571422637E+02  0.97899379906E+01  0.57170892120E+02  0.10000000000E+01 0. -1.
    1000022    2    1    0    0    0 -0.30917616170E+02  0.52830611270E+02  0.76991874961E+01  0.62499999964E+02  0.10000001526E+02 0.  0.
    3000022    2    3    3    0    0 -0.24134950138E+01  0.42591886332E+01 -0.20907504945E+01  0.53291078441E+01  0.25001357730E+00 0.  0.
    1000022    2    1    0    0    0  0.30917616170E+02 -0.52830611270E+02 -0.76991874961E+01  0.62500000036E+02  0.10000001979E+02 0.  0.
    3000022    2    5    5    0    0  0.13950846843E+02 -0.14922994842E+02 -0.13544467948E+01  0.20474836393E+02  0.24999301985E+00 0.  0.
        -13    1    4    4    0    0 -0.10963024254E+01  0.19742512140E+01 -0.89476335545E+00  0.24312904652E+01  0.10500000000E+00 0.  1.
         13    1    4    4    0    0 -0.13171925884E+01  0.22849374192E+01 -0.11959871391E+01  0.28978173788E+01  0.10500000000E+00 0. -1.
    3000001    1    5    5    0    0  0.16966769327E+02 -0.37907616428E+02 -0.63447407013E+01  0.42025163643E+02  0.10000000000E+01 0. -1.
        -13    1    6    6    0    0  0.96228247110E+01 -0.10279267834E+02 -0.88580227381E+00  0.14108783551E+02  0.10500000000E+00 0. -1.
         13    1    6    6    0    0  0.43280221320E+01 -0.46437270083E+01 -0.46864452102E+00  0.63660528423E+01  0.10500000000E+00 0.  1.
</event>
<event>
11    0  0.3439373E-009  0.9118800E+02  0.7816531E-02  0.1126479E+00
         25   -1    0    0    0    0  0.00000000000E+00  0.00000000000E+00  0.99999998245E-14  0.12500000000E+03  0.12500000000E+03 0.  0.
    3000001    1    3    3    0    0 -0.46078709137E+02  0.33379209270E+02 -0.22622768048E+02  0.61238947422E+02  0.10000000000E+01 0.  1.
    1000022    2    1    0    0    0 -0.46962701516E+02  0.33562601716E+02 -0.21778567167E+02  0.62500003545E+02  0.10000044386E+02 0.  0.
    3000022    2    3    3    0    0 -0.88399237925E+00  0.18339244576E+00  0.84420088137E+00  0.12610561232E+01  0.25002420308E+00 0.  0.
    1000022    2    1    0    0    0  0.46962701516E+02 -0.33562601716E+02  0.21778567167E+02  0.62499996455E+02  0.10000000069E+02 0.  0.
    3000022    2    5    5    0    0  0.44705569320E+02 -0.32735470774E+02  0.18727759485E+02  0.58489233577E+02  0.24998821701E+00 0.  0.
        -13    1    4    4    0    0 -0.33760722678E+00  0.12262998588E-01  0.34640665518E+00  0.49512785365E+00  0.10500000000E+00 0.  1.
         13    1    4    4    0    0 -0.54638515247E+00  0.17112944717E+00  0.49779422619E+00  0.76592826959E+00  0.10500000000E+00 0. -1.
    3000001    1    5    5    0    0  0.22571321962E+01 -0.82713094136E+00  0.30508076821E+01  0.40107628774E+01  0.10000000000E+01 0.  1.
        -13    1    6    6    0    0  0.33658275526E+02 -0.24676225363E+02  0.14107455144E+02  0.44054817275E+02  0.10500000000E+00 0. -1.
         13    1    6    6    0    0  0.11047293794E+02 -0.80592454117E+01  0.46203043413E+01  0.14434416302E+02  0.10500000000E+00 0.  1.
</event>
<event>
11    0  0.3439373E-009  0.9118800E+02  0.7816531E-02  0.1126479E+00
         25   -1    0    0    0    0  0.00000000000E+00  0.00000000000E+00  0.99999998245E-14  0.12500000000E+03  0.12500000000E+03 0.  0.
    3000001    1    3    3    0    0 -0.29144189781E+02  0.48449445260E+02 -0.23601637082E+02  0.61276176586E+02  0.10000000000E+01 0. -1.
    1000022    2    1    0    0    0 -0.29808173856E+02  0.48986208259E+02 -0.22761242476E+02  0.62500000072E+02  0.10000001083E+02 0.  0.
    3000022    2    3    3    0    0 -0.66398407473E+00  0.53676299924E+00  0.84039460565E+00  0.12238234862E+01  0.24998292583E+00 0.  0.
    1000022    2    1    0    0    0  0.29808173856E+02 -0.48986208259E+02  0.22761242476E+02  0.62499999928E+02  0.10000000187E+02 0.  0.
    3000022    2    5    5    0    0  0.88128623809E+01 -0.18303943022E+02  0.34966332304E+01  0.20615281075E+02  0.24999272694E+00 0.  0.
        -13    1    4    4    0    0 -0.30060253644E+00  0.32239994670E+00  0.39047074073E+00  0.59816052186E+00  0.10500000000E+00 0. -1.
         13    1    4    4    0    0 -0.36338153829E+00  0.21436305254E+00  0.44992386493E+00  0.62566296430E+00  0.10500000000E+00 0. -1.
    3000001    1    5    5    0    0  0.20995311475E+02 -0.30682265238E+02  0.19264609246E+02  0.41884718853E+02  0.10000000000E+01 0.  1.
        -13    1    6    6    0    0  0.22310989933E+01 -0.46419923714E+01  0.85807574171E+00  0.52223763626E+01  0.10500000000E+00 0.  1.
         13    1    6    6    0    0  0.65817633876E+01 -0.13661950650E+02  0.26385574887E+01  0.15392904712E+02  0.10500000000E+00 0. -1.
</event>
<event>
11    0  0.3439373E-009  0.9118800E+02  0.7816531E-02  0.1126479E+00
         25   -1    0    0    0    0  0.00000000000E+00  0.00000000000E+00  0.99999998245E-14  0.12500000000E+03  0.12500000000E+03 0.  0.
    3000001    1    3    3    0    0 -0.13209076837E+02  0.37731226677E+02  0.18631493905E+02  0.44116411261E+02  0.10000000000E+01 0. -1.
    1000022    2    1    0    0    0 -0.24222872682E+02  0.50193245659E+02  0.26460165946E+02  0.62499996955E+02  0.99999883386E+01 0.  0.
    3000022    2    3    3    0    0 -0.11013795846E+02  0.12462018982E+02  0.78286720410E+01  0.18383585694E+02  0.25000203572E+00 0.  0.
    1000022    2    1    0    0    0  0.24222872682E+02 -0.50193245659E+02 -0.26460165946E+02  0.62500003045E+02  0.10000026397E+02 0.  0.
    3000022    2    5    5    0    0  0.73635162742E+01 -0.10884362572E+02 -0.10550092750E+02  0.16854010700E+02  0.24999823564E+00 0.  0.
        -13    1    4    4    0    0 -0.69284663029E+01  0.79082579517E+01  0.49906876785E+01  0.11638822004E+02  0.10500000000E+00 0.  1.
         13    1    4    4    0    0 -0.40853295427E+01  0.45537610302E+01  0.28379843625E+01  0.67447636901E+01  0.10500000000E+00 0. -1.
    3000001    1    5    5    0    0  0.16859356408E+02 -0.39308883087E+02 -0.15910073196E+02  0.45645992345E+02  0.10000000000E+01 0. -1.
        -13    1    6    6    0    0  0.52749287604E+01 -0.78337881855E+01 -0.76254502267E+01  0.12138847842E+02  0.10500000000E+00 0.  1.
         13    1    6    6    0    0  0.20885875137E+01 -0.30505743864E+01 -0.29246425237E+01  0.47151628584E+01  0.10500000000E+00 0. -1.
</event>
<event>
11    0  0.3439373E-009  0.9118800E+02  0.7816531E-02  0.1126479E+00
         25   -1    0    0    0    0  0.00000000000E+00  0.00000000000E+00  0.99999998245E-14  0.12500000000E+03  0.12500000000E+03 0.  0.
    3000001    1    3    3    0    0  0.37948625378E+02 -0.24463881741E+02  0.10960105844E+02  0.46472611268E+02  0.10000000000E+01 0. -1.
    1000022    2    1    0    0    0  0.46927208833E+02 -0.36093037411E+02  0.17360316089E+02  0.62500007403E+02  0.10000003610E+02 0.  0.
    3000022    2    3    3    0    0  0.89785834556E+01 -0.11629155670E+02  0.64002102451E+01  0.16027396135E+02  0.25002647008E+00 0.  0.
    1000022    2    1    0    0    0 -0.46927208833E+02  0.36093037411E+02 -0.17360316089E+02  0.62499992597E+02  0.99999110728E+01 0.  0.
    3000022    2    5    5    0    0 -0.78764899539E+01  0.61827003778E+01 -0.70043042498E+01  0.12222424163E+02  0.24999286943E+00 0.  0.
        -13    1    4    4    0    0  0.28539152795E+01 -0.37640102205E+01  0.20251652059E+01  0.51405179188E+01  0.10500000000E+00 0.  1.
         13    1    4    4    0    0  0.61246681762E+01 -0.78651454494E+01  0.43750450392E+01  0.10886878217E+02  0.10500000000E+00 0. -1.
    3000001    1    5    5    0    0 -0.39050718879E+02  0.29910337033E+02 -0.10356011840E+02  0.50277568434E+02  0.10000000000E+01 0. -1.
        -13    1    6    6    0    0 -0.52154680714E+01  0.40935173691E+01 -0.45707085529E+01  0.80535950563E+01  0.10500000000E+00 0. -1.
         13    1    6    6    0    0 -0.26610218825E+01  0.20891830086E+01 -0.24335956969E+01  0.41688291064E+01  0.10500000000E+00 0.  1.
</event>
<event>
11    0  0.3439373E-009  0.9118800E+02  0.7816531E-02  0.1126479E+00
         25   -1    0    0    0    0  0.00000000000E+00  0.00000000000E+00  0.99999998245E-14  0.12500000000E+03  0.12500000000E+03 0.  0.
    3000001    1    3    3    0    0  0.45962471401E+01  0.20217322557E+02  0.18392819124E+01  0.20838631843E+02  0.10000000000E+01 0. -1.
    1000022    2    1    0    0    0  0.24982289748E+02  0.55178015206E+02  0.11726968892E+02  0.62500000145E+02  0.10000002786E+02 0.  0.
    3000022    2    3    3    0    0  0.20386042608E+02  0.34960692649E+02  0.98876869793E+01  0.41661368302E+02  0.24998265908E+00 0.  0.
    1000022    2    1    0    0    0 -0.24982289748E+02 -0.55178015206E+02 -0.11726968892E+02  0.62499999855E+02  0.10000000969E+02 0.  0.
    3000022    2    5    5    0    0 -0.25455808432E+01 -0.16217852745E+02 -0.29333109592E+01  0.16678295551E+02  0.24999965306E+00 0.  0.
        -13    1    4    4    0    0  0.10343607516E+02  0.17816751066E+02  0.50901562887E+01  0.21221393711E+02  0.10500000000E+00 0.  1.
         13    1    4    4    0    0  0.10042435091E+02  0.17143941583E+02  0.47975306906E+01  0.20439974591E+02  0.10500000000E+00 0. -1.
    3000001    1    5    5    0    0 -0.22436708905E+02 -0.38960162460E+02 -0.87936579326E+01  0.45821704303E+02  0.10000000000E+01 0. -1.
        -13    1    6    6    0    0 -0.14058148345E+01 -0.92469543090E+01 -0.16228174719E+01  0.94935262621E+01  0.10500000000E+00 0.  1.
         13    1    6    6    0    0 -0.11397660087E+01 -0.69708984361E+01 -0.13104934873E+01  0.71847692894E+01  0.10500000000E+00 0. -1.
</event>
<event>
11    0  0.3439373E-009  0.9118800E+02  0.7816531E-02  0.1126479E+00
         25   -1    0    0    0    0  0.00000000000E+00  0.00000000000E+00  0.99999998245E-14  0.12500000000E+03  0.12500000000E+03 0.  0.
    3000001    1    3    3    0    0  0.34703154132E+01  0.10541217664E+02 -0.81280879985E+00  0.11172332660E+02  0.10000000000E+01 0. -1.
    1000022    2    1    0    0    0 -0.57124225008E+00  0.60866673889E+02 -0.10058415751E+02  0.62500000485E+02  0.10000001259E+02 0.  0.
    3000022    2    3    3    0    0 -0.40415576633E+01  0.50325456225E+02 -0.92456069512E+01  0.51327667825E+02  0.25000782604E+00 0.  0.
    1000022    2    1    0    0    0  0.57124225008E+00 -0.60866673889E+02  0.10058415751E+02  0.62499999515E+02  0.99999951965E+01 0.  0.
    3000022    2    5    5    0    0 -0.17458105622E+01 -0.11987911051E+02 -0.15011677694E+01  0.12209581327E+02  0.25001126729E+00 0.  0.
        -13    1    4    4    0    0 -0.23336663481E+01  0.29205750075E+02 -0.53006084717E+01  0.29774642085E+02  0.10500000000E+00 0.  1.
         13    1    4    4    0    0 -0.17078913152E+01  0.21119706149E+02 -0.39449984795E+01  0.21553025741E+02  0.10500000000E+00 0. -1.
    3000001    1    5    5    0    0  0.23170528123E+01 -0.48878762838E+02  0.11559583520E+02  0.50290418188E+02  0.10000000000E+01 0. -1.
        -13    1    6    6    0    0 -0.78979930798E+00 -0.51801839339E+01 -0.59334656812E+00  0.52745780576E+01  0.10500000000E+00 0. -1.
         13    1    6    6    0    0 -0.95601125426E+00 -0.68077271169E+01 -0.90782120129E+00  0.69350032697E+01  0.10500000000E+00 0.  1.
</event>
<event>
11    0  0.3439373E-009  0.9118800E+02  0.7816531E-02  0.1126479E+00
         25   -1    0    0    0    0  0.00000000000E+00  0.00000000000E+00  0.99999998245E-14  0.12500000000E+03  0.12500000000E+03 0.  0.
    3000001    1    3    3    0    0 -0.35346430433E+02 -0.33702222975E+02  0.36840255237E+02  0.61183448609E+02  0.10000000000E+01 0.  1.
    1000022    2    1    0    0    0 -0.34792829775E+02 -0.33959697680E+02  0.37979571810E+02  0.62500000259E+02  0.10000004360E+02 0.  0.
    3000022    2    3    3    0    0  0.55360065840E+00 -0.25747470582E+00  0.11393165726E+01  0.13165516494E+01  0.24999815953E+00 0.  0.
    1000022    2    1    0    0    0  0.34792829775E+02  0.33959697680E+02 -0.37979571810E+02  0.62499999741E+02  0.10000001129E+02 0.  0.
    3000022    2    5    5    0    0  0.29168353803E+02  0.22568134620E+02 -0.28832327227E+02  0.46813237094E+02  0.25002012844E+00 0.  0.
        -13    1    4    4    0    0  0.12713175021E+00 -0.69089686858E-01  0.25604784940E+00  0.31228411410E+00  0.10500000000E+00 0.  1.
         13    1    4    4    0    0  0.42646890820E+00 -0.18838501896E+00  0.88326872317E+00  0.10042675353E+01  0.10500000000E+00 0. -1.
    3000001    1    5    5    0    0  0.56244759720E+01  0.11391563061E+02 -0.91472445823E+01  0.15686762648E+02  0.10000000000E+01 0.  1.
        -13    1    6    6    0    0  0.12699307881E+02  0.97430468718E+01 -0.12504029381E+02  0.20311601580E+02  0.10500000000E+00 0. -1.
         13    1    6    6    0    0  0.16469045922E+02  0.12825087748E+02 -0.16328297846E+02  0.26501635513E+02  0.10500000000E+00 0.  1.
</event>
<event>
11    0  0.3439373E-009  0.9118800E+02  0.7816531E-02  0.1126479E+00
         25   -1    0    0    0    0  0.00000000000E+00  0.00000000000E+00  0.99999998245E-14  0.12500000000E+03  0.12500000000E+03 0.  0.
    3000001    1    3    3    0    0  0.39238751263E+00  0.88497896920E+01  0.87245921139E+01  0.12473622293E+02  0.10000000000E+01 0.  1.
    1000022    2    1    0    0    0 -0.78194912223E+00  0.28472548473E+02  0.54726161056E+02  0.62500001000E+02  0.99999980032E+01 0.  0.
    3000022    2    3    3    0    0 -0.11743366349E+01  0.19622758781E+02  0.46001568942E+02  0.50026378707E+02  0.24998535261E+00 0.  0.
    1000022    2    1    0    0    0  0.78194912223E+00 -0.28472548473E+02 -0.54726161056E+02  0.62499999000E+02  0.99999855080E+01 0.  0.
    3000022    2    5    5    0    0 -0.17049493401E+00 -0.28511460325E+02 -0.49812583599E+02  0.57395892101E+02  0.25001382788E+00 0.  0.
        -13    1    4    4    0    0 -0.88596722943E+00  0.14305294336E+02  0.33485546305E+02  0.36424157098E+02  0.10500000000E+00 0.  1.
         13    1    4    4    0    0 -0.28836940543E+00  0.53174644449E+01  0.12516022637E+02  0.13602221608E+02  0.10500000000E+00 0. -1.
    3000001    1    5    5    0    0  0.95244405624E+00  0.38911851932E-01 -0.49135774571E+01  0.51041068993E+01  0.10000000000E+01 0.  1.
        -13    1    6    6    0    0 -0.10342736642E+00 -0.20770770188E+02 -0.36348282532E+02  0.41864594342E+02  0.10500000000E+00 0.  1.
         13    1    6    6    0    0 -0.67067567584E-01 -0.77406901366E+01 -0.13464301067E+02  0.15531297759E+02  0.10500000000E+00 0. -1.
</event>
<event>
11    0  0.3439373E-009  0.9118800E+02  0.7816531E-02  0.1126479E+00
         25   -1    0    0    0    0  0.00000000000E+00  0.00000000000E+00  0.99999998245E-14  0.12500000000E+03  0.12500000000E+03 0.  0.
    3000001    1    3    3    0    0  0.11527601702E+02  0.46917835938E+01 -0.12293678845E+02  0.17522356400E+02  0.10000000000E+01 0. -1.
    1000022    2    1    0    0    0  0.27977471406E+02  0.16401090600E+02 -0.52483477421E+02  0.62500000596E+02  0.99999996579E+01 0.  0.
    3000022    2    3    3    0    0  0.16449869704E+02  0.11709307006E+02 -0.40189798577E+02  0.44977644196E+02  0.24996784649E+00 0.  0.
    1000022    2    1    0    0    0 -0.27977471406E+02 -0.16401090600E+02  0.52483477421E+02  0.62499999404E+02  0.99999922078E+01 0.  0.
    3000022    2    5    5    0    0 -0.72224482621E+01 -0.35964147842E+01  0.22093912516E+02  0.23522360127E+02  0.24999502132E+00 0.  0.
        -13    1    4    4    0    0  0.12237565379E+02  0.87409333459E+01 -0.29967084943E+02  0.33529078829E+02  0.10500000000E+00 0.  1.
         13    1    4    4    0    0  0.42123043252E+01  0.29683736600E+01 -0.10222713633E+02  0.11448565366E+02  0.10500000000E+00 0. -1.
    3000001    1    5    5    0    0 -0.20755023144E+02 -0.12804675816E+02  0.30389564906E+02  0.38977639277E+02  0.10000000000E+01 0. -1.
        -13    1    6    6    0    0 -0.38234877946E+01 -0.19787590772E+01  0.11805192204E+02  0.12566150340E+02  0.10500000000E+00 0. -1.
         13    1    6    6    0    0 -0.33989604675E+01 -0.16176557071E+01  0.10288720312E+02  0.10956209787E+02  0.10500000000E+00 0.  1.
</event>
<event>
11    0  0.3439373E-009  0.9118800E+02  0.7816531E-02  0.1126479E+00
         25   -1    0    0    0    0  0.00000000000E+00  0.00000000000E+00  0.99999998245E-14  0.12500000000E+03  0.12500000000E+03 0.  0.
    3000001    1    3    3    0    0 -0.16916112708E+02  0.55400496819E+02 -0.89972492366E+01  0.58628665436E+02  0.10000000000E+01 0. -1.
    1000022    2    1    0    0    0 -0.15752123472E+02  0.59045935565E+02 -0.84674932917E+01  0.62500000817E+02  0.99999879436E+01 0.  0.
    3000022    2    3    3    0    0  0.11639892352E+01  0.36454387456E+01  0.52975594481E+00  0.38713353813E+01  0.25000337194E+00 0.  0.
    1000022    2    1    0    0    0  0.15752123472E+02 -0.59045935565E+02  0.84674932917E+01  0.62499999183E+02  0.99999777288E+01 0.  0.
    3000022    2    5    5    0    0  0.61123831579E+01 -0.36404543325E+02  0.16788366870E+01  0.36953118857E+02  0.24999610639E+00 0.  0.
        -13    1    4    4    0    0  0.38530883558E+00  0.12274295306E+01  0.12418695861E+00  0.12967241619E+01  0.10500000000E+00 0. -1.
         13    1    4    4    0    0  0.77868039960E+00  0.24180092150E+01  0.40556898620E+00  0.25746112194E+01  0.10500000000E+00 0.  1.
    3000001    1    5    5    0    0  0.96397403144E+01 -0.22641392240E+02  0.67886566047E+01  0.25546880326E+02  0.10000000000E+01 0.  1.
        -13    1    6    6    0    0  0.32649445069E+01 -0.19749315577E+02  0.86607576239E+00  0.20036377932E+02  0.10500000000E+00 0.  1.
         13    1    6    6    0    0  0.28474386511E+01 -0.16655227748E+02  0.81276092464E+00  0.16916740925E+02  0.10500000000E+00 0. -1.
</event>
<event>
11    0  0.3439373E-009  0.9118800E+02  0.7816531E-02  0.1126479E+00
         25   -1    0    0    0    0  0.00000000000E+00  0.00000000000E+00  0.99999998245E-14  0.12500000000E+03  0.12500000000E+03 0.  0.
    3000001    1    3    3    0    0 -0.13950877071E+02  0.18164791334E+02  0.49439785470E+02  0.54496596247E+02  0.10000000000E+01 0.  1.
    1000022    2    1    0    0    0 -0.14588310064E+02  0.23908604290E+02  0.54970994566E+02  0.62500000441E+02  0.99999830937E+01 0.  0.
    3000022    2    3    3    0    0 -0.63743299290E+00  0.57438129558E+01  0.55312090968E+01  0.80034041935E+01  0.24999304168E+00 0.  0.
    1000022    2    1    0    0    0  0.14588310064E+02 -0.23908604290E+02 -0.54970994566E+02  0.62499999559E+02  0.99999775847E+01 0.  0.
    3000022    2    5    5    0    0  0.12315299073E+02 -0.11483049438E+02 -0.35134095820E+02  0.38961445138E+02  0.25000509661E+00 0.  0.
        -13    1    4    4    0    0 -0.17795363124E+00  0.21291747514E+01  0.20271826814E+01  0.29471252503E+01  0.10500000000E+00 0. -1.
         13    1    4    4    0    0 -0.45947936166E+00  0.36146382043E+01  0.35040264154E+01  0.50562789432E+01  0.10500000000E+00 0.  1.
    3000001    1    5    5    0    0  0.22730109903E+01 -0.12425554852E+02 -0.19836898747E+02  0.23538554421E+02  0.10000000000E+01 0.  1.
        -13    1    6    6    0    0  0.80529217925E+01 -0.74366256482E+01 -0.22916332893E+02  0.25403194459E+02  0.10500000000E+00 0.  1.
         13    1    6    6    0    0  0.42623772808E+01 -0.40464237898E+01 -0.12217762926E+02  0.13558250680E+02  0.10500000000E+00 0. -1.
</event>
<event>
11    0  0.3439373E-009  0.9118800E+02  0.7816531E-02  0.1126479E+00
         25   -1    0    0    0    0  0.00000000000E+00  0.00000000000E+00  0.99999998245E-14  0.12500000000E+03  0.12500000000E+03 0.  0.
    3000001    1    3    3    0    0 -0.74972931400E+01 -0.45947212923E+01  0.47850016511E+01  0.10060671398E+02  0.10000000000E+01 0.  1.
    1000022    2    1    0    0    0 -0.56044582698E+02 -0.94077234402E+01  0.24015612623E+02  0.62499999975E+02  0.99999918574E+01 0.  0.
    3000022    2    3    3    0    0 -0.48547289558E+02 -0.48130021479E+01  0.19230610972E+02  0.52439328577E+02  0.24994034261E+00 0.  0.
    1000022    2    1    0    0    0  0.56044582698E+02  0.94077234402E+01 -0.24015612623E+02  0.62500000025E+02  0.99999921692E+01 0.  0.
    3000022    2    5    5    0    0  0.31758916004E+01  0.28655260223E+01 -0.29666568726E+01  0.52116296208E+01  0.25000692439E+00 0.  0.
        -13    1    4    4    0    0 -0.19044161285E+02 -0.18274720996E+01  0.75578803443E+01  0.20570666339E+02  0.10500000000E+00 0. -1.
         13    1    4    4    0    0 -0.29503128272E+02 -0.29855300483E+01  0.11672730627E+02  0.31868662238E+02  0.10500000000E+00 0.  1.
    3000001    1    5    5    0    0  0.52868691097E+02  0.65421974179E+01 -0.21048955750E+02  0.57288370404E+02  0.10000000000E+01 0.  1.
        -13    1    6    6    0    0  0.23975034819E+01  0.21270947778E+01 -0.22160203203E+01  0.38979900204E+01  0.10500000000E+00 0. -1.
         13    1    6    6    0    0  0.77838811856E+00  0.73843124452E+00 -0.75063655226E+00  0.13136396003E+01  0.10500000000E+00 0.  1.
</event>
<event>
11    0  0.3439373E-009  0.9118800E+02  0.7816531E-02  0.1126479E+00
         25   -1    0    0    0    0  0.00000000000E+00  0.00000000000E+00  0.99999998245E-14  0.12500000000E+03  0.12500000000E+03 0.  0.
    3000001    1    3    3    0    0  0.31032501367E+02  0.14961157559E+02  0.18425788665E+02  0.39081479815E+02  0.10000000000E+01 0. -1.
    1000022    2    1    0    0    0  0.50134784572E+02  0.27765411895E+02  0.22843726671E+02  0.62499994567E+02  0.99999375422E+01 0.  0.
    3000022    2    3    3    0    0  0.19102283206E+02  0.12804254336E+02  0.44179380057E+01  0.23418514752E+02  0.25000841784E+00 0.  0.
    1000022    2    1    0    0    0 -0.50134784572E+02 -0.27765411895E+02 -0.22843726671E+02  0.62500005433E+02  0.10000005456E+02 0.  0.
    3000022    2    5    5    0    0 -0.42678301426E+02 -0.21246065676E+02 -0.15506536963E+02  0.50133301392E+02  0.25000113097E+00 0.  0.
        -13    1    4    4    0    0  0.84100372954E+01  0.56842154426E+01  0.18956146975E+01  0.10326829745E+02  0.10500000000E+00 0. -1.
         13    1    4    4    0    0  0.10692245910E+02  0.71200388931E+01  0.25223233083E+01  0.13091685007E+02  0.10500000000E+00 0.  1.
    3000001    1    5    5    0    0 -0.74564831464E+01 -0.65193462187E+01 -0.73371897077E+01  0.12366704041E+02  0.10000000000E+01 0.  1.
        -13    1    6    6    0    0 -0.29812720866E+02 -0.14837416710E+02 -0.10879838591E+02  0.35033258096E+02  0.10500000000E+00 0.  1.
         13    1    6    6    0    0 -0.12865580560E+02 -0.64086489656E+01 -0.46266983722E+01  0.15100043296E+02  0.10500000000E+00 0. -1.
</event>
<event>
11    0  0.3439373E-009  0.9118800E+02  0.7816531E-02  0.1126479E+00
         25   -1    0    0    0    0  0.00000000000E+00  0.00000000000E+00  0.99999998245E-14  0.12500000000E+03  0.12500000000E+03 0.  0.
    3000001    1    3    3    0    0  0.36424060700E+02 -0.14393546136E+02  0.10720281943E+02  0.40617863227E+02  0.10000000000E+01 0.  1.
    1000022    2    1    0    0    0  0.56237466961E+02 -0.15724111244E+02  0.19908533881E+02  0.62500000856E+02  0.10000001053E+02 0.  0.
    3000022    2    3    3    0    0  0.19813406261E+02 -0.13305651082E+01  0.91882519379E+01  0.21882137628E+02  0.25000464238E+00 0.  0.
    1000022    2    1    0    0    0 -0.56237466961E+02  0.15724111244E+02 -0.19908533881E+02  0.62499999144E+02  0.99999903555E+01 0.  0.
    3000022    2    5    5    0    0 -0.27500740455E+02  0.12803955236E+02 -0.97493561887E+01  0.31864469888E+02  0.24999983099E+00 0.  0.
        -13    1    4    4    0    0  0.15146889220E+02 -0.10322302093E+01  0.70259851818E+01  0.16729293022E+02  0.10500000000E+00 0.  1.
         13    1    4    4    0    0  0.46665170412E+01 -0.29833489890E+00  0.21622667562E+01  0.51528446059E+01  0.10500000000E+00 0. -1.
    3000001    1    5    5    0    0 -0.28736726506E+02  0.29201560083E+01 -0.10159177692E+02  0.30635529256E+02  0.10000000000E+01 0.  1.
        -13    1    6    6    0    0 -0.12453175943E+02  0.58682191155E+01 -0.44458059782E+01  0.14466990096E+02  0.10500000000E+00 0.  1.
         13    1    6    6    0    0 -0.15047564512E+02  0.69357361205E+01 -0.53035502105E+01  0.17397479792E+02  0.10500000000E+00 0. -1.
</event>
<event>
11    0  0.3439373E-009  0.9118800E+02  0.7816531E-02  0.1126479E+00
         25   -1    0    0    0    0  0.00000000000E+00  0.00000000000E+00  0.99999998245E-14  0.12500000000E+03  0.12500000000E+03 0.  0.
    3000001    1    3    3    0    0  0.10739418900E+01  0.48846549083E+01  0.68015865356E+00  0.51454660188E+01  0.10000000000E+01 0. -1.
    1000022    2    1    0    0    0  0.25074507948E+02  0.52756884198E+02 -0.19855244666E+02  0.62500001984E+02  0.99999864061E+01 0.  0.
    3000022    2    3    3    0    0  0.24000566058E+02  0.47872229289E+02 -0.20535403319E+02  0.57354535965E+02  0.24999601197E+00 0.  0.
    1000022    2    1    0    0    0 -0.25074507948E+02 -0.52756884198E+02  0.19855244666E+02  0.62499998016E+02  0.99999616115E+01 0.  0.
    3000022    2    5    5    0    0 -0.23760330372E+02 -0.41029345387E+02  0.15538065415E+02  0.49894433137E+02  0.24999781291E+00 0.  0.
        -13    1    4    4    0    0  0.11753974913E+02  0.23399324649E+02 -0.99721523711E+01  0.28020334905E+02  0.10500000000E+00 0.  1.
         13    1    4    4    0    0  0.12246591145E+02  0.24472904641E+02 -0.10563250948E+02  0.29334201060E+02  0.10500000000E+00 0. -1.
    3000001    1    5    5    0    0 -0.13141775761E+01 -0.11727538811E+02  0.43171792505E+01  0.12605564880E+02  0.10000000000E+01 0.  1.
        -13    1    6    6    0    0 -0.17819991272E+02 -0.30797874457E+02  0.11684385805E+02  0.37451262417E+02  0.10500000000E+00 0. -1.
         13    1    6    6    0    0 -0.59403390996E+01 -0.10231470930E+02  0.38536796106E+01  0.12443170719E+02  0.10500000000E+00 0.  1.
</event>
<event>
11    0  0.3439373E-009  0.9118800E+02  0.7816531E-02  0.1126479E+00
         25   -1    0    0    0    0  0.00000000000E+00  0.00000000000E+00  0.99999998245E-14  0.12500000000E+03  0.12500000000E+03 0.  0.
    3000001    1    3    3    0    0  0.31603200003E+01 -0.12713417706E+01  0.23345250155E+01  0.42489927571E+01  0.10000000000E+01 0. -1.
    1000022    2    1    0    0    0  0.31111036746E+02  0.54639830772E+01  0.52995263789E+02  0.62500002387E+02  0.10000029787E+02 0.  0.
    3000022    2    3    3    0    0  0.27950716746E+02  0.67353248478E+01  0.50660738774E+02  0.58251009629E+02  0.25000468013E+00 0.  0.
    1000022    2    1    0    0    0 -0.31111036746E+02 -0.54639830772E+01 -0.52995263789E+02  0.62499997613E+02  0.99999999552E+01 0.  0.
    3000022    2    5    5    0    0 -0.10326136539E+01 -0.22574210608E+01 -0.70844851955E+01  0.75109699192E+01  0.24999567384E+00 0.  0.
        -13    1    4    4    0    0  0.18625325734E+02  0.44453872913E+01  0.33808795249E+02  0.38854985370E+02  0.10500000000E+00 0. -1.
         13    1    4    4    0    0  0.93253910116E+01  0.22899375566E+01  0.16851943525E+02  0.19396024260E+02  0.10500000000E+00 0.  1.
    3000001    1    5    5    0    0 -0.30078423092E+02 -0.32065620164E+01 -0.45910778594E+02  0.54989027694E+02  0.10000000000E+01 0. -1.
        -13    1    6    6    0    0 -0.24036967979E+00 -0.59978309718E+00 -0.18320489645E+01  0.19454937047E+01  0.10500000000E+00 0. -1.
         13    1    6    6    0    0 -0.79224397407E+00 -0.16576379636E+01 -0.52524362310E+01  0.55654762145E+01  0.10500000000E+00 0.  1.
</event>
<event>
11    0  0.3439373E-009  0.9118800E+02  0.7816531E-02  0.1126479E+00
         25   -1    0    0    0    0  0.00000000000E+00  0.00000000000E+00  0.99999998245E-14  0.12500000000E+03  0.12500000000E+03 0.  0.
    3000001    1    3    3    0    0  0.80672707824E+01 -0.28139538483E+02  0.20046471294E+02  0.35493316205E+02  0.10000000000E+01 0. -1.
    1000022    2    1    0    0    0  0.10875531208E+02 -0.53646650911E+02  0.28460683788E+02  0.62499992737E+02  0.99999118660E+01 0.  0.
    3000022    2    3    3    0    0  0.28082604260E+01 -0.25507112429E+02  0.84142124942E+01  0.27006676532E+02  0.24998863577E+00 0.  0.
    1000022    2    1    0    0    0 -0.10875531208E+02  0.53646650911E+02 -0.28460683788E+02  0.62500007263E+02  0.10000002659E+02 0.  0.
    3000022    2    5    5    0    0 -0.16067995880E+01  0.91360750425E+01 -0.89821417564E+00  0.93230340404E+01  0.25000582872E+00 0.  0.
        -13    1    4    4    0    0  0.21141618617E+01 -0.19351595198E+02  0.63959154649E+01  0.20490794926E+02  0.10500000000E+00 0.  1.
         13    1    4    4    0    0  0.69409856427E+00 -0.61555172308E+01  0.20182970293E+01  0.65158816053E+01  0.10500000000E+00 0. -1.
    3000001    1    5    5    0    0 -0.92687316204E+01  0.44510575869E+02 -0.27562469612E+02  0.53176973223E+02  0.10000000000E+01 0.  1.
        -13    1    6    6    0    0 -0.90076365725E+00  0.54857718937E+01 -0.54087324871E+00  0.55864691270E+01  0.10500000000E+00 0. -1.
         13    1    6    6    0    0 -0.70603593078E+00  0.36503031488E+01 -0.35734092694E+00  0.37365649134E+01  0.10500000000E+00 0.  1.
</event>
<event>
11    0  0.3439373E-009  0.9118800E+02  0.7816531E-02  0.1126479E+00
         25   -1    0    0    0    0  0.00000000000E+00  0.00000000000E+00  0.99999998245E-14  0.12500000000E+03  0.12500000000E+03 0.  0.
    3000001    1    3    3    0    0  0.67983914285E+01  0.28853197963E+02  0.52923622340E+02  0.60668236832E+02  0.10000000000E+01 0.  1.
    1000022    2    1    0    0    0  0.54257357168E+01  0.29288086257E+02  0.54027950479E+02  0.62499999378E+02  0.99999942317E+01 0.  0.
    3000022    2    3    3    0    0 -0.13726557118E+01  0.43488829389E+00  0.11043281389E+01  0.18317625460E+01  0.25000371097E+00 0.  0.
    1000022    2    1    0    0    0 -0.54257357168E+01 -0.29288086257E+02 -0.54027950479E+02  0.62500000622E+02  0.10000002002E+02 0.  0.
    3000022    2    5    5    0    0 -0.40571975399E+00 -0.65005599799E+01 -0.21427116621E+02  0.22396555852E+02  0.24999759036E+00 0.  0.
        -13    1    4    4    0    0 -0.68113061527E+00  0.14614916239E+00  0.54885988874E+00  0.89306812181E+00  0.10500000000E+00 0. -1.
         13    1    4    4    0    0 -0.69152509648E+00  0.28873913150E+00  0.55546825015E+00  0.93869442421E+00  0.10500000000E+00 0.  1.
    3000001    1    5    5    0    0 -0.50200159628E+01 -0.22787526277E+02 -0.32600833858E+02  0.40103444769E+02  0.10000000000E+01 0.  1.
        -13    1    6    6    0    0 -0.14750075358E+00 -0.32587729665E+01 -0.10862629698E+02  0.11342358956E+02  0.10500000000E+00 0. -1.
         13    1    6    6    0    0 -0.25821900041E+00 -0.32417870134E+01 -0.10564486922E+02  0.11054196896E+02  0.10500000000E+00 0.  1.
</event>
<event>
11    0  0.3439373E-009  0.9118800E+02  0.7816531E-02  0.1126479E+00
         25   -1    0    0    0    0  0.00000000000E+00  0.00000000000E+00  0.99999998245E-14  0.12500000000E+03  0.12500000000E+03 0.  0.
    3000001    1    3    3    0    0 -0.94212043667E+01  0.12764457350E+02 -0.30984092926E+02  0.34823906697E+02  0.10000000000E+01 0. -1.
    1000022    2    1    0    0    0 -0.12924227678E+02  0.30059805613E+02 -0.52303177881E+02  0.62499999907E+02  0.99999998659E+01 0.  0.
    3000022    2    3    3    0    0 -0.35030233113E+01  0.17295348263E+02 -0.21319084955E+02  0.27676093211E+02  0.25001640079E+00 0.  0.
    1000022    2    1    0    0    0  0.12924227678E+02 -0.30059805613E+02  0.52303177881E+02  0.62500000093E+02  0.10000001027E+02 0.  0.
    3000022    2    5    5    0    0  0.11797439807E+02 -0.15836298266E+02  0.27294235534E+02  0.33689845468E+02  0.24993103598E+00 0.  0.
        -13    1    4    4    0    0 -0.21611751868E+01  0.10965262328E+02 -0.13513804699E+02  0.17536863989E+02  0.10500000000E+00 0. -1.
         13    1    4    4    0    0 -0.13418481245E+01  0.63300859354E+01 -0.78052802562E+01  0.10139229222E+02  0.10500000000E+00 0.  1.
    3000001    1    5    5    0    0  0.11267878714E+01 -0.14223507347E+02  0.25008942348E+02  0.28810154625E+02  0.10000000000E+01 0. -1.
        -13    1    6    6    0    0  0.45943018454E+01 -0.61351553300E+01  0.10494150387E+02  0.12995613018E+02  0.10500000000E+00 0. -1.
         13    1    6    6    0    0  0.72031379612E+01 -0.97011429365E+01  0.16800085146E+02  0.20694232450E+02  0.10500000000E+00 0.  1.
</event>
<event>
11    0  0.3439373E-009  0.9118800E+02  0.7816531E-02  0.1126479E+00
         25   -1    0    0    0    0  0.00000000000E+00  0.00000000000E+00  0.99999998245E-14  0.12500000000E+03  0.12500000000E+03 0.  0.
    3000001    1    3    3    0    0 -0.16046836078E+02 -0.98989212343E+01 -0.42817931639E+02  0.46795991918E+02  0.10000000000E+01 0. -1.
    1000022    2    1    0    0    0 -0.15870743834E+02 -0.14523296053E+02 -0.57822515630E+02  0.62499998817E+02  0.99999950133E+01 0.  0.
    3000022    2    3    3    0    0  0.17609224437E+00 -0.46243748190E+01 -0.15004583991E+02  0.15704006899E+02  0.24988198509E+00 0.  0.
    1000022    2    1    0    0    0  0.15870743834E+02  0.14523296053E+02  0.57822515630E+02  0.62500001183E+02  0.10000009803E+02 0.  0.
    3000022    2    5    5    0    0  0.57737371279E+01  0.75180392165E+01  0.13521298191E+02  0.16514992384E+02  0.25002914116E+00 0.  0.
        -13    1    4    4    0    0  0.13361173534E+00 -0.20927556088E+01 -0.69321744345E+01  0.72431723384E+01  0.10500000000E+00 0. -1.
         13    1    4    4    0    0  0.42480509032E-01 -0.25316192102E+01 -0.80724095565E+01  0.84608345609E+01  0.10500000000E+00 0.  1.
    3000001    1    5    5    0    0  0.10097006706E+02  0.70052568367E+01  0.44301217438E+02  0.45985008800E+02  0.10000000000E+01 0. -1.
        -13    1    6    6    0    0  0.16978651049E+01  0.21976168125E+01  0.38880527252E+01  0.47791468447E+01  0.10500000000E+00 0. -1.
         13    1    6    6    0    0  0.40758720230E+01  0.53204224040E+01  0.96332454659E+01  0.11735845539E+02  0.10500000000E+00 0.  1.
</event>
<event>
11    0  0.3439373E-009  0.9118800E+02  0.7816531E-02  0.1126479E+00
         25   -1    0    0    0    0  0.00000000000E+00  0.00000000000E+00  0.99999998245E-14  0.12500000000E+03  0.12500000000E+03 0.  0.
    3000001    1    3    3    0    0 -0.38262782549E+02  0.14113770985E+02 -0.13906632888E+02  0.43100272599E+02  0.10000000000E+01 0. -1.
    1000022    2    1    0    0    0 -0.51831957871E+02  0.25942053812E+02 -0.21135470248E+02  0.62499998936E+02  0.99999875815E+01 0.  0.
    3000022    2    3    3    0    0 -0.13569175322E+02  0.11828282827E+02 -0.72288373603E+01  0.19399726337E+02  0.24999761716E+00 0.  0.
    1000022    2    1    0    0    0  0.51831957871E+02 -0.25942053812E+02  0.21135470248E+02  0.62500001064E+02  0.10000000886E+02 0.  0.
    3000022    2    5    5    0    0  0.55078965756E+01 -0.92422413630E+00  0.47957370004E+01  0.73656439068E+01  0.25000368491E+00 0.  0.
        -13    1    4    4    0    0 -0.32988489079E+01  0.28948455219E+01 -0.17811632816E+01  0.47377317725E+01  0.10500000000E+00 0.  1.
         13    1    4    4    0    0 -0.10270326414E+02  0.89334373053E+01 -0.54476740786E+01  0.14661994564E+02  0.10500000000E+00 0. -1.
    3000001    1    5    5    0    0  0.46324061295E+02 -0.25017829676E+02  0.16339733248E+02  0.55134357158E+02  0.10000000000E+01 0. -1.
        -13    1    6    6    0    0  0.13955963209E+01 -0.24731949632E+00  0.12529861554E+01  0.18946913548E+01  0.10500000000E+00 0. -1.
         13    1    6    6    0    0  0.41123002548E+01 -0.67690463998E+00  0.35427508450E+01  0.54709525520E+01  0.10500000000E+00 0.  1.
</event>
<event>
11    0  0.3439373E-009  0.9118800E+02  0.7816531E-02  0.1126479E+00
         25   -1    0    0    0    0  0.00000000000E+00  0.00000000000E+00  0.99999998245E-14  0.12500000000E+03  0.12500000000E+03 0.  0.
    3000001    1    3    3    0    0  0.33556405459E+02  0.16632927845E+02  0.21737887910E+02  0.43315383028E+02  0.10000000000E+01 0.  1.
    1000022    2    1    0    0    0  0.51446710870E+02  0.19046292396E+02  0.28226313046E+02  0.62499999637E+02  0.99999946546E+01 0.  0.
    3000022    2    3    3    0    0  0.17890305410E+02  0.24133645509E+01  0.64884251359E+01  0.19184616609E+02  0.24999512189E+00 0.  0.
    1000022    2    1    0    0    0 -0.51446710870E+02 -0.19046292396E+02 -0.28226313046E+02  0.62500000363E+02  0.99999991912E+01 0.  0.
    3000022    2    5    5    0    0 -0.16812241946E+02 -0.81994648965E+01 -0.14563175792E+02  0.23707199174E+02  0.24999939693E+00 0.  0.
        -13    1    4    4    0    0  0.42483203101E+01  0.57861241228E+00  0.15586302111E+01  0.45632631872E+01  0.10500000000E+00 0. -1.
         13    1    4    4    0    0  0.13641985100E+02  0.18347521386E+01  0.49297949248E+01  0.14621353422E+02  0.10500000000E+00 0.  1.
    3000001    1    5    5    0    0 -0.34634468924E+02 -0.10846827500E+02 -0.13663137254E+02  0.38792801189E+02  0.10000000000E+01 0.  1.
        -13    1    6    6    0    0 -0.67054569123E+01 -0.33190096674E+01 -0.57678147086E+01  0.94476287548E+01  0.10500000000E+00 0.  1.
         13    1    6    6    0    0 -0.10106785034E+02 -0.48804552291E+01 -0.87953610833E+01  0.14259570419E+02  0.10500000000E+00 0. -1.
</event>
<event>
11    0  0.3439373E-009  0.9118800E+02  0.7816531E-02  0.1126479E+00
         25   -1    0    0    0    0  0.00000000000E+00  0.00000000000E+00  0.99999998245E-14  0.12500000000E+03  0.12500000000E+03 0.  0.
    3000001    1    3    3    0    0  0.27042609147E+02  0.39677693701E+01  0.61583700510E+01  0.28035181914E+02  0.10000000000E+01 0. -1.
    1000022    2    1    0    0    0  0.61254501049E+02 -0.15835183135E-01  0.73577271765E+01  0.62499998899E+02  0.99999781861E+01 0.  0.
    3000022    2    3    3    0    0  0.34211891902E+02 -0.39836045533E+01  0.11993571256E+01  0.34464816986E+02  0.24999919592E+00 0.  0.
    1000022    2    1    0    0    0 -0.61254501049E+02  0.15835183135E-01 -0.73577271765E+01  0.62500001101E+02  0.99999919434E+01 0.  0.
    3000022    2    5    5    0    0 -0.19720395381E+02 -0.23367032601E+00 -0.70696428859E+01  0.20952110911E+02  0.25001059374E+00 0.  0.
        -13    1    4    4    0    0  0.13175941595E+02 -0.15646656626E+01  0.51555328146E+00  0.13278947087E+02  0.10500000000E+00 0.  1.
         13    1    4    4    0    0  0.21035950307E+02 -0.24189388907E+01  0.68380384409E+00  0.21185869899E+02  0.10500000000E+00 0. -1.
    3000001    1    5    5    0    0 -0.41534105668E+02  0.24950550914E+00 -0.28808429067E+00  0.41547890190E+02  0.10000000000E+01 0. -1.
        -13    1    6    6    0    0 -0.58947534004E+01 -0.26751505224E-01 -0.20976424089E+01  0.62577921002E+01  0.10500000000E+00 0. -1.
         13    1    6    6    0    0 -0.13825641980E+02 -0.20691882078E+00 -0.49720004769E+01  0.14694318811E+02  0.10500000000E+00 0.  1.
</event>
<event>
11    0  0.3439373E-009  0.9118800E+02  0.7816531E-02  0.1126479E+00
         25   -1    0    0    0    0  0.00000000000E+00  0.00000000000E+00  0.99999998245E-14  0.12500000000E+03  0.12500000000E+03 0.  0.
    3000001    1    3    3    0    0 -0.36180015392E+01 -0.75155400488E+01  0.53254259715E+01  0.99465289997E+01  0.10000000000E+01 0. -1.
    1000022    2    1    0    0    0 -0.41356087310E+02 -0.38001570396E+02  0.25530462842E+02  0.62499998720E+02  0.99999998451E+01 0.  0.
    3000022    2    3    3    0    0 -0.37738085771E+02 -0.30486030347E+02  0.20205036870E+02  0.52553469720E+02  0.25000143773E+00 0.  0.
    1000022    2    1    0    0    0  0.41356087310E+02  0.38001570396E+02 -0.25530462842E+02  0.62500001280E+02  0.10000015848E+02 0.  0.
    3000022    2    5    5    0    0  0.16341839346E+01  0.30249801908E+01  0.54572029886E+00  0.34901817810E+01  0.24999186593E+00 0.  0.
        -13    1    4    4    0    0 -0.14874081740E+02 -0.12051510542E+02  0.80336509728E+01  0.20761208705E+02  0.10500000000E+00 0.  1.
         13    1    4    4    0    0 -0.22864004031E+02 -0.18434519805E+02  0.12171385898E+02  0.31792261015E+02  0.10500000000E+00 0. -1.
    3000001    1    5    5    0    0  0.39721903375E+02  0.34976590205E+02 -0.26076183141E+02  0.59009819499E+02  0.10000000000E+01 0.  1.
        -13    1    6    6    0    0  0.67830445693E+00  0.12371088137E+01  0.15998027624E+00  0.14237815289E+01  0.10500000000E+00 0. -1.
         13    1    6    6    0    0  0.95587947763E+00  0.17878713771E+01  0.38574002261E+00  0.20664002521E+01  0.10500000000E+00 0.  1.
</event>
<event>
11    0  0.3439373E-009  0.9118800E+02  0.7816531E-02  0.1126479E+00
         25   -1    0    0    0    0  0.00000000000E+00  0.00000000000E+00  0.99999998245E-14  0.12500000000E+03  0.12500000000E+03 0.  0.
    3000001    1    3    3    0    0 -0.20958593528E+02  0.18855931508E+02 -0.64157779000E+01  0.28930451116E+02  0.10000000000E+01 0.  1.
    1000022    2    1    0    0    0 -0.45257968072E+02  0.35117731003E+02 -0.22906576799E+02  0.62500000939E+02  0.10000007597E+02 0.  0.
    3000022    2    3    3    0    0 -0.24299374544E+02  0.16261799495E+02 -0.16490798899E+02  0.33569549823E+02  0.25000191757E+00 0.  0.
    1000022    2    1    0    0    0  0.45257968072E+02 -0.35117731003E+02  0.22906576799E+02  0.62499999061E+02  0.99999958598E+01 0.  0.
    3000022    2    5    5    0    0  0.69020940265E+01 -0.16918366412E+01  0.43472274662E+01  0.83343924890E+01  0.24999669276E+00 0.  0.
        -13    1    4    4    0    0 -0.16869768293E+02  0.11344916676E+02 -0.11453663086E+02  0.23334387494E+02  0.10500000000E+00 0.  1.
         13    1    4    4    0    0 -0.74296062515E+01  0.49168828188E+01 -0.50371358131E+01  0.10235162329E+02  0.10500000000E+00 0. -1.
    3000001    1    5    5    0    0  0.38355874046E+02 -0.33425894362E+02  0.18559349333E+02  0.54165606572E+02  0.10000000000E+01 0.  1.
        -13    1    6    6    0    0  0.38191741278E+01 -0.92381017478E+00  0.24800819135E+01  0.46477249870E+01  0.10500000000E+00 0.  1.
         13    1    6    6    0    0  0.30829198987E+01 -0.76802646641E+00  0.18671455527E+01  0.36866675019E+01  0.10500000000E+00 0. -1.
</event>
<event>
11    0  0.3439373E-009  0.9118800E+02  0.7816531E-02  0.1126479E+00
         25   -1    0    0    0    0  0.00000000000E+00  0.00000000000E+00  0.99999998245E-14  0.12500000000E+03  0.12500000000E+03 0.  0.
    3000001    1    3    3    0    0 -0.61172312013E+01 -0.66818358969E+01 -0.18157557839E+00  0.91159430787E+01  0.10000000000E+01 0. -1.
    1000022    2    1    0    0    0 -0.22392009747E+02 -0.57014936616E+02 -0.73583181214E+01  0.62500000440E+02  0.10000005577E+02 0.  0.
    3000022    2    3    3    0    0 -0.16274778546E+02 -0.50333100720E+02 -0.71767425430E+01  0.53384057361E+02  0.25000416334E+00 0.  0.
    1000022    2    1    0    0    0  0.22392009747E+02  0.57014936616E+02  0.73583181214E+01  0.62499999560E+02  0.10000000077E+02 0.  0.
    3000022    2    5    5    0    0  0.34004396520E+01  0.21523979157E+02  0.21129160433E+01  0.21894556094E+02  0.25000759323E+00 0.  0.
        -13    1    4    4    0    0 -0.76807756025E+01 -0.23926903663E+02 -0.33671450939E+01  0.25354284132E+02  0.10500000000E+00 0. -1.
         13    1    4    4    0    0 -0.85940029431E+01 -0.26406197056E+02 -0.38095974492E+01  0.28029773229E+02  0.10500000000E+00 0.  1.
    3000001    1    5    5    0    0  0.18991570095E+02  0.35490957460E+02  0.52454020781E+01  0.40605443466E+02  0.10000000000E+01 0.  1.
        -13    1    6    6    0    0  0.18399326234E+01  0.11960391020E+02  0.11283134626E+01  0.12154029031E+02  0.10500000000E+00 0. -1.
         13    1    6    6    0    0  0.15605070286E+01  0.95635881364E+01  0.98460258071E+00  0.97405270633E+01  0.10500000000E+00 0.  1.
</event>
<event>
11    0  0.3439373E-009  0.9118800E+02  0.7816531E-02  0.1126479E+00
         25   -1    0    0    0    0  0.00000000000E+00  0.00000000000E+00  0.99999998245E-14  0.12500000000E+03  0.12500000000E+03 0.  0.
    3000001    1    3    3    0    0  0.34479688968E+02 -0.24127061805E+02  0.21628774304E+01  0.42150232520E+02  0.10000000000E+01 0. -1.
    1000022    2    1    0    0    0  0.46641004419E+02 -0.40377531635E+02  0.72230843198E+00  0.62500001334E+02  0.10000004162E+02 0.  0.
    3000022    2    3    3    0    0  0.12161315451E+02 -0.16250469830E+02 -0.14405689984E+01  0.20349768815E+02  0.24997719793E+00 0.  0.
    1000022    2    1    0    0    0 -0.46641004419E+02  0.40377531635E+02 -0.72230843198E+00  0.62499998666E+02  0.99999874818E+01 0.  0.
    3000022    2    5    5    0    0 -0.15345832720E+02  0.86410947708E+01 -0.29659102447E+01  0.17861193288E+02  0.25000274632E+00 0.  0.
        -13    1    4    4    0    0  0.58799235531E+01 -0.78964285016E+01 -0.76235428389E+00  0.98751857261E+01  0.10500000000E+00 0. -1.
         13    1    4    4    0    0  0.62813918976E+01 -0.83540413282E+01 -0.67821471455E+00  0.10474583089E+02  0.10500000000E+00 0.  1.
    3000001    1    5    5    0    0 -0.31295171698E+02  0.31736436864E+02  0.22436018128E+01  0.44638805378E+02  0.10000000000E+01 0. -1.
        -13    1    6    6    0    0 -0.59254898182E+01  0.33969658018E+01 -0.11174867962E+01  0.69217489108E+01  0.10500000000E+00 0. -1.
         13    1    6    6    0    0 -0.94203429021E+01  0.52441289691E+01 -0.18484234486E+01  0.10939444377E+02  0.10500000000E+00 0.  1.
</event>
<event>
11    0  0.3439373E-009  0.9118800E+02  0.7816531E-02  0.1126479E+00
         25   -1    0    0    0    0  0.00000000000E+00  0.00000000000E+00  0.99999998245E-14  0.12500000000E+03  0.12500000000E+03 0.  0.
    3000001    1    3    3    0    0  0.27717353858E+02 -0.11452856999E+02 -0.52715881540E+02  0.60657924501E+02  0.10000000000E+01 0. -1.
    1000022    2    1    0    0    0  0.29406029492E+02 -0.10898022179E+02 -0.53129733888E+02  0.62499999790E+02  0.99999946421E+01 0.  0.
    3000022    2    3    3    0    0  0.16886756342E+01  0.55483481948E+00 -0.41385234848E+00  0.18420752888E+01  0.25000105771E+00 0.  0.
    1000022    2    1    0    0    0 -0.29406029492E+02  0.10898022179E+02  0.53129733888E+02  0.62500000210E+02  0.99999972639E+01 0.  0.
    3000022    2    5    5    0    0 -0.26448103202E+01  0.98232509411E+00  0.89766617613E+00  0.29712441525E+01  0.25000605869E+00 0.  0.
        -13    1    4    4    0    0  0.62285405586E+00  0.14358039364E+00 -0.14850656372E+00  0.66456128672E+00  0.10500000000E+00 0. -1.
         13    1    4    4    0    0  0.10658215783E+01  0.41125442584E+00 -0.26534578477E+00  0.11775140020E+01  0.10500000000E+00 0.  1.
    3000001    1    5    5    0    0 -0.26761219172E+02  0.99156970854E+01  0.52232067712E+02  0.59528756057E+02  0.10000000000E+01 0. -1.
        -13    1    6    6    0    0 -0.16865378660E+01  0.56512315410E+00  0.58132215131E+00  0.18742290672E+01  0.10500000000E+00 0.  1.
         13    1    6    6    0    0 -0.95827245416E+00  0.41720194000E+00  0.31634402481E+00  0.10970150852E+01  0.10500000000E+00 0. -1.
</event>
<event>
11    0  0.3439373E-009  0.9118800E+02  0.7816531E-02  0.1126479E+00
         25   -1    0    0    0    0  0.00000000000E+00  0.00000000000E+00  0.99999998245E-14  0.12500000000E+03  0.12500000000E+03 0.  0.
    3000001    1    3    3    0    0  0.23388075685E+01 -0.74666724615E+00  0.61200828773E+00  0.27206776661E+01  0.10000000000E+01 0. -1.
    1000022    2    1    0    0    0  0.49533662448E+02 -0.26169260356E+02 -0.25842523442E+02  0.62499999467E+02  0.10000000616E+02 0.  0.
    3000022    2    3    3    0    0  0.47194854880E+02 -0.25422593110E+02 -0.26454531730E+02  0.59779321800E+02  0.24999659242E+00 0.  0.
    1000022    2    1    0    0    0 -0.49533662448E+02  0.26169260356E+02  0.25842523442E+02  0.62500000533E+02  0.10000007284E+02 0.  0.
    3000022    2    5    5    0    0 -0.20442248629E+02  0.58501110078E+01  0.75481412151E+01  0.22564269548E+02  0.24999325713E+00 0.  0.
        -13    1    4    4    0    0  0.19230544052E+02 -0.10286682770E+02 -0.10759778523E+02  0.24318995164E+02  0.10500000000E+00 0. -1.
         13    1    4    4    0    0  0.27964310828E+02 -0.15135910340E+02 -0.15694753206E+02  0.35460326636E+02  0.10500000000E+00 0.  1.
    3000001    1    5    5    0    0 -0.29091413819E+02  0.20319149349E+02  0.18294382227E+02  0.39935730985E+02  0.10000000000E+01 0. -1.
        -13    1    6    6    0    0 -0.10652673581E+02  0.30049691500E+01  0.38728198820E+01  0.11726851788E+02  0.10500000000E+00 0.  1.
         13    1    6    6    0    0 -0.97895750479E+01  0.28451418578E+01  0.36753213331E+01  0.10837417760E+02  0.10500000000E+00 0. -1.
</event>
<event>
11    0  0.3439373E-009  0.9118800E+02  0.7816531E-02  0.1126479E+00
         25   -1    0    0    0    0  0.00000000000E+00  0.00000000000E+00  0.99999998245E-14  0.12500000000E+03  0.12500000000E+03 0.  0.
    3000001    1    3    3    0    0  0.88752293313E+01  0.11143915764E+02 -0.46464369637E+02  0.48609610161E+02  0.10000000000E+01 0.  1.
    1000022    2    1    0    0    0  0.14997738440E+02  0.17355912955E+02 -0.57272071571E+02  0.62500000381E+02  0.99999996352E+01 0.  0.
    3000022    2    3    3    0    0  0.61225091091E+01  0.62119971909E+01 -0.10807701934E+02  0.13890390220E+02  0.24998493529E+00 0.  0.
    1000022    2    1    0    0    0 -0.14997738440E+02 -0.17355912955E+02  0.57272071571E+02  0.62499999619E+02  0.99999948774E+01 0.  0.
    3000022    2    5    5    0    0 -0.14283521108E+02 -0.12309788960E+02  0.36440260717E+02  0.41030537185E+02  0.25000214337E+00 0.  0.
        -13    1    4    4    0    0  0.35039176899E+01  0.35712633029E+01 -0.63011638129E+01  0.80465552352E+01  0.10500000000E+00 0.  1.
         13    1    4    4    0    0  0.26185914192E+01  0.26407338880E+01 -0.45065381215E+01  0.58438349847E+01  0.10500000000E+00 0. -1.
    3000001    1    5    5    0    0 -0.71421733263E+00 -0.50461239950E+01  0.20831810854E+02  0.21469462434E+02  0.10000000000E+01 0. -1.
        -13    1    6    6    0    0 -0.79480579975E+01 -0.69179848805E+01  0.20452933988E+02  0.23007904608E+02  0.10500000000E+00 0. -1.
         13    1    6    6    0    0 -0.63354631103E+01 -0.53918040796E+01  0.15987326729E+02  0.18022632577E+02  0.10500000000E+00 0.  1.
</event>
<event>
11    0  0.3439373E-009  0.9118800E+02  0.7816531E-02  0.1126479E+00
         25   -1    0    0    0    0  0.00000000000E+00  0.00000000000E+00  0.99999998245E-14  0.12500000000E+03  0.12500000000E+03 0.  0.
    3000001    1    3    3    0    0 -0.10286370908E+02 -0.22878231541E+02 -0.17289867853E+02  0.30482165856E+02  0.10000000000E+01 0.  1.
    1000022    2    1    0    0    0 -0.11436692093E+02 -0.46799284893E+02 -0.38539319042E+02  0.62500000027E+02  0.99999949349E+01 0.  0.
    3000022    2    3    3    0    0 -0.11503211846E+01 -0.23921053351E+02 -0.21249451189E+02  0.32017834171E+02  0.24999378994E+00 0.  0.
    1000022    2    1    0    0    0  0.11436692093E+02  0.46799284893E+02  0.38539319042E+02  0.62499999973E+02  0.99999945933E+01 0.  0.
    3000022    2    5    5    0    0  0.94989210252E+01  0.26622500029E+02  0.17387763516E+02  0.33187103403E+02  0.25000749586E+00 0.  0.
        -13    1    4    4    0    0 -0.67590939236E+00 -0.13482658227E+02 -0.12057968271E+02  0.18100954401E+02  0.10500000000E+00 0. -1.
         13    1    4    4    0    0 -0.47441179226E+00 -0.10438395124E+02 -0.91914829180E+01  0.13916879771E+02  0.10500000000E+00 0.  1.
    3000001    1    5    5    0    0  0.19377710677E+01  0.20176784864E+02  0.21151555526E+02  0.29312896570E+02  0.10000000000E+01 0.  1.
        -13    1    6    6    0    0  0.60033688967E+01  0.16675173591E+02  0.10864015629E+02  0.20787970391E+02  0.10500000000E+00 0. -1.
         13    1    6    6    0    0  0.34955521285E+01  0.99473264376E+01  0.65237478876E+01  0.12399133012E+02  0.10500000000E+00 0.  1.
</event>
<event>
11    0  0.3439373E-009  0.9118800E+02  0.7816531E-02  0.1126479E+00
         25   -1    0    0    0    0  0.00000000000E+00  0.00000000000E+00  0.99999998245E-14  0.12500000000E+03  0.12500000000E+03 0.  0.
    3000001    1    3    3    0    0 -0.27352047233E+02 -0.88885501176E+00  0.36296064578E+02  0.45467888173E+02  0.10000000000E+01 0.  1.
    1000022    2    1    0    0    0 -0.37289938224E+02  0.47627884781E+01  0.48918568066E+02  0.62500000359E+02  0.10000004821E+02 0.  0.
    3000022    2    3    3    0    0 -0.99378909909E+01  0.56516434899E+01  0.12622503488E+02  0.17032112186E+02  0.24999944903E+00 0.  0.
    1000022    2    1    0    0    0  0.37289938224E+02 -0.47627884781E+01 -0.48918568066E+02  0.62499999641E+02  0.10000000336E+02 0.  0.
    3000022    2    5    5    0    0  0.26495411093E+02 -0.73587660899E+01 -0.37905713819E+02  0.46830159999E+02  0.24999618034E+00 0.  0.
        -13    1    4    4    0    0 -0.25343660000E+01  0.14406790486E+01  0.31767274190E+01  0.43129096023E+01  0.10500000000E+00 0. -1.
         13    1    4    4    0    0 -0.74035249909E+01  0.42109644413E+01  0.94457760692E+01  0.12719202584E+02  0.10500000000E+00 0.  1.
    3000001    1    5    5    0    0  0.10794527131E+02  0.25959776118E+01 -0.11012854247E+02  0.15669839642E+02  0.10000000000E+01 0. -1.
        -13    1    6    6    0    0  0.16447930363E+02 -0.46068086759E+01 -0.23626772176E+02  0.29154630642E+02  0.10500000000E+00 0. -1.
         13    1    6    6    0    0  0.10047480730E+02 -0.27519574141E+01 -0.14278941643E+02  0.17675529358E+02  0.10500000000E+00 0.  1.
</event>
<event>
11    0  0.3439373E-009  0.9118800E+02  0.7816531E-02  0.1126479E+00
         25   -1    0    0    0    0  0.00000000000E+00  0.00000000000E+00  0.99999998245E-14  0.12500000000E+03  0.12500000000E+03 0.  0.
    3000001    1    3    3    0    0  0.20255842257E+02 -0.37689685245E+00  0.17671688552E+02  0.26902226173E+02  0.10000000000E+01 0. -1.
    1000022    2    1    0    0    0  0.40838237416E+02  0.74548788854E+01  0.45638943171E+02  0.62500000479E+02  0.10000003582E+02 0.  0.
    3000022    2    3    3    0    0  0.20582395159E+02  0.78317757379E+01  0.27967254619E+02  0.35597774306E+02  0.25000584458E+00 0.  0.
    1000022    2    1    0    0    0 -0.40838237416E+02 -0.74548788854E+01 -0.45638943171E+02  0.62499999521E+02  0.99999975928E+01 0.  0.
    3000022    2    5    5    0    0 -0.37369864070E+02 -0.48589553935E+01 -0.43538032565E+02  0.57582453606E+02  0.24999117320E+00 0.  0.
        -13    1    4    4    0    0  0.12600589883E+02  0.48597613601E+01  0.17166271508E+02  0.21842253738E+02  0.10500000000E+00 0. -1.
         13    1    4    4    0    0  0.79818052760E+01  0.29720143778E+01  0.10800983112E+02  0.13755520568E+02  0.10500000000E+00 0.  1.
    3000001    1    5    5    0    0 -0.34683733466E+01 -0.25959234920E+01 -0.21009106065E+01  0.49175459148E+01  0.10000000000E+01 0. -1.
        -13    1    6    6    0    0 -0.16572239361E+02 -0.20904472899E+01 -0.19270464065E+02  0.25502370431E+02  0.10500000000E+00 0.  1.
         13    1    6    6    0    0 -0.20797624708E+02 -0.27685081036E+01 -0.24267568500E+02  0.32080083175E+02  0.10500000000E+00 0. -1.
</event>
<event>
11    0  0.3439373E-009  0.9118800E+02  0.7816531E-02  0.1126479E+00
         25   -1    0    0    0    0  0.00000000000E+00  0.00000000000E+00  0.99999998245E-14  0.12500000000E+03  0.12500000000E+03 0.  0.
    3000001    1    3    3    0    0  0.13359029701E+02  0.52714960498E+02  0.92936374626E+01  0.55178822316E+02  0.10000000000E+01 0.  1.
    1000022    2    1    0    0    0  0.12039895697E+02  0.59884653595E+02  0.86671338657E+01  0.62500000389E+02  0.10000000727E+02 0.  0.
    3000022    2    3    3    0    0 -0.13191340040E+01  0.71696930974E+01 -0.62650359690E+00  0.73211780732E+01  0.25005597594E+00 0.  0.
    1000022    2    1    0    0    0 -0.12039895697E+02 -0.59884653595E+02 -0.86671338657E+01  0.62499999611E+02  0.99999958661E+01 0.  0.
    3000022    2    5    5    0    0 -0.59638577552E+01 -0.11426244876E+02 -0.36307545427E+01  0.13392966211E+02  0.24998817451E+00 0.  0.
        -13    1    4    4    0    0 -0.67903621015E+00  0.36402133297E+01 -0.38570463750E+00  0.37245182679E+01  0.10500000000E+00 0.  1.
         13    1    4    4    0    0 -0.64009779390E+00  0.35294797677E+01 -0.24079895941E+00  0.35966598053E+01  0.10500000000E+00 0. -1.
    3000001    1    5    5    0    0 -0.60760379421E+01 -0.48458408720E+02 -0.50363793229E+01  0.49107033401E+02  0.10000000000E+01 0.  1.
        -13    1    6    6    0    0 -0.22887054109E+01 -0.42721928947E+01 -0.13967849527E+01  0.50449814461E+01  0.10500000000E+00 0. -1.
         13    1    6    6    0    0 -0.36751523443E+01 -0.71540519808E+01 -0.22339695901E+01  0.83479847644E+01  0.10500000000E+00 0.  1.
</event>
<event>
11    0  0.3439373E-009  0.9118800E+02  0.7816531E-02  0.1126479E+00
         25   -1    0    0    0    0  0.00000000000E+00  0.00000000000E+00  0.99999998245E-14  0.12500000000E+03  0.12500000000E+03 0.  0.
    3000001    1    3    3    0    0 -0.45032166841E+01 -0.18486783920E+01 -0.90843462283E+01  0.10354801722E+02  0.10000000000E+01 0. -1.
    1000022    2    1    0    0    0 -0.19233722607E+02  0.88400493571E+01 -0.57949696438E+02  0.62499999531E+02  0.10000003313E+02 0.  0.
    3000022    2    3    3    0    0 -0.14730505923E+02  0.10688727749E+02 -0.48865350209E+02  0.52145197810E+02  0.24999579172E+00 0.  0.
    1000022    2    1    0    0    0  0.19233722607E+02 -0.88400493571E+01  0.57949696438E+02  0.62500000469E+02  0.10000009170E+02 0.  0.
    3000022    2    5    5    0    0  0.32794883327E+01  0.14887551487E+01  0.16490506299E+02  0.16881076317E+02  0.25000800763E+00 0.  0.
        -13    1    4    4    0    0 -0.83950571064E+01  0.61681133498E+01 -0.27908847122E+02  0.29789887190E+02  0.10500000000E+00 0.  1.
         13    1    4    4    0    0 -0.63354488163E+01  0.45206143993E+01 -0.20956503088E+02  0.22355310620E+02  0.10500000000E+00 0. -1.
    3000001    1    5    5    0    0  0.15954234274E+02 -0.10328804506E+02  0.41459190138E+02  0.45618924151E+02  0.10000000000E+01 0. -1.
        -13    1    6    6    0    0  0.13857803036E+01  0.69490989837E+00  0.72224821045E+01  0.73877303393E+01  0.10500000000E+00 0.  1.
         13    1    6    6    0    0  0.18937080290E+01  0.79384525032E+00  0.92680241949E+01  0.94933459780E+01  0.10500000000E+00 0. -1.
</event>
<event>
11    0  0.3439373E-009  0.9118800E+02  0.7816531E-02  0.1126479E+00
         25   -1    0    0    0    0  0.00000000000E+00  0.00000000000E+00  0.99999998245E-14  0.12500000000E+03  0.12500000000E+03 0.  0.
    3000001    1    3    3    0    0 -0.17119848313E+02  0.26453981479E+02  0.14671500974E+02  0.34772910192E+02  0.10000000000E+01 0. -1.
    1000022    2    1    0    0    0 -0.31241551764E+02  0.41722764964E+02  0.33006459053E+02  0.62499998917E+02  0.99999926263E+01 0.  0.
    3000022    2    3    3    0    0 -0.14121703451E+02  0.15268783485E+02  0.18334958079E+02  0.27727088725E+02  0.25000792651E+00 0.  0.
    1000022    2    1    0    0    0  0.31241551764E+02 -0.41722764964E+02 -0.33006459053E+02  0.62500001083E+02  0.10000006166E+02 0.  0.
    3000022    2    5    5    0    0  0.46283801154E+01 -0.12119570792E+02 -0.54425289305E+01  0.14070874990E+02  0.25000628840E+00 0.  0.
        -13    1    4    4    0    0 -0.38555168672E+01  0.41760942101E+01  0.49619899202E+01  0.75456704230E+01  0.10500000000E+00 0.  1.
         13    1    4    4    0    0 -0.10266186584E+02  0.11092689275E+02  0.13372968158E+02  0.20181418302E+02  0.10500000000E+00 0. -1.
    3000001    1    5    5    0    0  0.26613171649E+02 -0.29603194172E+02 -0.27563930122E+02  0.48429126094E+02  0.10000000000E+01 0. -1.
        -13    1    6    6    0    0  0.32183822246E+01 -0.84945578336E+01 -0.37680793738E+01  0.98348840410E+01  0.10500000000E+00 0. -1.
         13    1    6    6    0    0  0.14099978909E+01 -0.36250129582E+01 -0.16744495567E+01  0.42359909487E+01  0.10500000000E+00 0.  1.
</event>
<event>
11    0  0.3439373E-009  0.9118800E+02  0.7816531E-02  0.1126479E+00
         25   -1    0    0    0    0  0.00000000000E+00  0.00000000000E+00  0.99999998245E-14  0.12500000000E+03  0.12500000000E+03 0.  0.
    3000001    1    3    3    0    0  0.31441809213E+02 -0.15670566488E+02 -0.35643860001E+02  0.50056356004E+02  0.10000000000E+01 0.  1.
    1000022    2    1    0    0    0  0.34917143152E+02 -0.21180030617E+02 -0.46243385663E+02  0.62500011573E+02  0.10000007305E+02 0.  0.
    3000022    2    3    3    0    0  0.34753339389E+01 -0.55094641298E+01 -0.10599525662E+02  0.12443655568E+02  0.24995730185E+00 0.  0.
    1000022    2    1    0    0    0 -0.34917143152E+02  0.21180030617E+02  0.46243385663E+02  0.62499988427E+02  0.99998626468E+01 0.  0.
    3000022    2    5    5    0    0 -0.24017805082E+02  0.19020808168E+02  0.36791617682E+02  0.47878301455E+02  0.25002841962E+00 0.  0.
        -13    1    4    4    0    0  0.13552385022E+01 -0.21494688603E+01 -0.42547761109E+01  0.49569176444E+01  0.10500000000E+00 0.  1.
         13    1    4    4    0    0  0.21200954367E+01 -0.33599952696E+01 -0.63447495515E+01  0.74867379240E+01  0.10500000000E+00 0. -1.
    3000001    1    5    5    0    0 -0.10899338070E+02  0.21592224497E+01  0.94517679810E+01  0.14621686973E+02  0.10000000000E+01 0. -1.
        -13    1    6    6    0    0 -0.14851640219E+02  0.11687866958E+02  0.22663873738E+02  0.29509992359E+02  0.10500000000E+00 0.  1.
         13    1    6    6    0    0 -0.91661648625E+01  0.73329412099E+01  0.14127743944E+02  0.18368309095E+02  0.10500000000E+00 0. -1.
</event>
<event>
11    0  0.3439373E-009  0.9118800E+02  0.7816531E-02  0.1126479E+00
         25   -1    0    0    0    0  0.00000000000E+00  0.00000000000E+00  0.99999998245E-14  0.12500000000E+03  0.12500000000E+03 0.  0.
    3000001    1    3    3    0    0  0.59622592702E+01 -0.49774213645E+02  0.40974994885E+01  0.50307160341E+02  0.10000000000E+01 0.  1.
    1000022    2    1    0    0    0  0.64688487301E+01 -0.60580519286E+02  0.97162152626E+01  0.62500000074E+02  0.99999924689E+01 0.  0.
    3000022    2    3    3    0    0  0.50658945992E+00 -0.10806305642E+02  0.56187157741E+01  0.12192839733E+02  0.24999860825E+00 0.  0.
    1000022    2    1    0    0    0 -0.64688487301E+01  0.60580519286E+02 -0.97162152626E+01  0.62499999926E+02  0.99999915392E+01 0.  0.
    3000022    2    5    5    0    0  0.23523312152E+01  0.19258629884E+02 -0.44627437477E+01  0.19909969140E+02  0.25000444818E+00 0.  0.
        -13    1    4    4    0    0  0.24083819148E+00 -0.62773934438E+01  0.32210717585E+01  0.70604532260E+01  0.10500000000E+00 0.  1.
         13    1    4    4    0    0  0.26575126844E+00 -0.45289121978E+01  0.23976440156E+01  0.51323865070E+01  0.10500000000E+00 0. -1.
    3000001    1    5    5    0    0 -0.88211799454E+01  0.41321889402E+02 -0.52534715149E+01  0.42590030786E+02  0.10000000000E+01 0. -1.
        -13    1    6    6    0    0  0.13857737096E+01  0.11821415390E+02 -0.27155081885E+01  0.12208654320E+02  0.10500000000E+00 0. -1.
         13    1    6    6    0    0  0.96655750559E+00  0.74372144942E+01 -0.17472355592E+01  0.77013148192E+01  0.10500000000E+00 0.  1.
</event>
<event>
11    0  0.3439373E-009  0.9118800E+02  0.7816531E-02  0.1126479E+00
         25   -1    0    0    0    0  0.00000000000E+00  0.00000000000E+00  0.99999998245E-14  0.12500000000E+03  0.12500000000E+03 0.  0.
    3000001    1    3    3    0    0 -0.18633043098E+02 -0.30232859771E+02 -0.81430917427E+01  0.36448951262E+02  0.10000000000E+01 0.  1.
    1000022    2    1    0    0    0 -0.28278844832E+02 -0.50496639259E+02 -0.21369291011E+02  0.62499999207E+02  0.99999830490E+01 0.  0.
    3000022    2    3    3    0    0 -0.96458017345E+01 -0.20263779488E+02 -0.13226199269E+02  0.26051047944E+02  0.25000327842E+00 0.  0.
    1000022    2    1    0    0    0  0.28278844832E+02  0.50496639259E+02  0.21369291011E+02  0.62500000793E+02  0.99999929663E+01 0.  0.
    3000022    2    5    5    0    0  0.26571968729E+01  0.87433999227E+00  0.16971918159E+01  0.32814824444E+01  0.25000265965E+00 0.  0.
        -13    1    4    4    0    0 -0.25199659456E+01 -0.53134852176E+01 -0.34296133197E+01  0.68085700442E+01  0.10500000000E+00 0.  1.
         13    1    4    4    0    0 -0.71258357889E+01 -0.14950294271E+02 -0.97965859490E+01  0.19242477900E+02  0.10500000000E+00 0. -1.
    3000001    1    5    5    0    0  0.25621647959E+02  0.49622299267E+02  0.19672099195E+02  0.59218518349E+02  0.10000000000E+01 0. -1.
        -13    1    6    6    0    0  0.16521255506E+01  0.60547720493E+00  0.10523357081E+01  0.20529386068E+01  0.10500000000E+00 0. -1.
         13    1    6    6    0    0  0.10050713222E+01  0.26886278733E+00  0.64485610778E+00  0.12285438376E+01  0.10500000000E+00 0.  1.
</event>
<event>
11    0  0.3439373E-009  0.9118800E+02  0.7816531E-02  0.1126479E+00
         25   -1    0    0    0    0  0.00000000000E+00  0.00000000000E+00  0.99999998245E-14  0.12500000000E+03  0.12500000000E+03 0.  0.
    3000001    1    3    3    0    0 -0.37667663832E+02  0.18866389309E+02  0.17690959348E+02  0.45702993193E+02  0.10000000000E+01 0.  1.
    1000022    2    1    0    0    0 -0.50570740363E+02  0.21368120479E+02  0.28147014862E+02  0.62500006122E+02  0.99999982969E+01 0.  0.
    3000022    2    3    3    0    0 -0.12903076531E+02  0.25017311695E+01  0.10456055514E+02  0.16797012929E+02  0.25000723775E+00 0.  0.
    1000022    2    1    0    0    0  0.50570740363E+02 -0.21368120479E+02 -0.28147014862E+02  0.62499993878E+02  0.99999217743E+01 0.  0.
    3000022    2    5    5    0    0  0.31212559466E+02 -0.15661836256E+02 -0.22411747743E+02  0.41495372096E+02  0.24997039391E+00 0.  0.
        -13    1    4    4    0    0 -0.50884650214E+01  0.10409716741E+01  0.41737511798E+01  0.66638819175E+01  0.10500000000E+00 0. -1.
         13    1    4    4    0    0 -0.78146115094E+01  0.14607594954E+01  0.62823043342E+01  0.10133131011E+02  0.10500000000E+00 0.  1.
    3000001    1    5    5    0    0  0.19358180897E+02 -0.57062842227E+01 -0.57352671190E+01  0.21004621782E+02  0.10000000000E+01 0.  1.
        -13    1    6    6    0    0  0.11090922779E+02 -0.56084428818E+01 -0.79258128976E+01  0.14740852578E+02  0.10500000000E+00 0. -1.
         13    1    6    6    0    0  0.20121636687E+02 -0.10053393374E+02 -0.14485934845E+02  0.26754519518E+02  0.10500000000E+00 0.  1.
</event>
<event>
11    0  0.3439373E-009  0.9118800E+02  0.7816531E-02  0.1126479E+00
         25   -1    0    0    0    0  0.00000000000E+00  0.00000000000E+00  0.99999998245E-14  0.12500000000E+03  0.12500000000E+03 0.  0.
    3000001    1    3    3    0    0 -0.50955570197E+01  0.48637866226E+02  0.14732684394E+02  0.51084818897E+02  0.10000000000E+01 0.  1.
    1000022    2    1    0    0    0 -0.93245759835E+01  0.59235436935E+02  0.14507423307E+02  0.62499999727E+02  0.99999964357E+01 0.  0.
    3000022    2    3    3    0    0 -0.42290189638E+01  0.10597570710E+02 -0.22526108696E+00  0.11415180830E+02  0.25000895975E+00 0.  0.
    1000022    2    1    0    0    0  0.93245759835E+01 -0.59235436935E+02 -0.14507423307E+02  0.62500000273E+02  0.99999998440E+01 0.  0.
    3000022    2    5    5    0    0  0.79114898714E+01 -0.32703236553E+02 -0.38969026816E+01  0.33872432834E+02  0.25000517255E+00 0.  0.
        -13    1    4    4    0    0 -0.21166684495E+01  0.52421146587E+01 -0.47795587047E-01  0.56544991678E+01  0.10500000000E+00 0. -1.
         13    1    4    4    0    0 -0.21123505143E+01  0.53554560510E+01 -0.17746549992E+00  0.57606816622E+01  0.10500000000E+00 0.  1.
    3000001    1    5    5    0    0  0.14130861121E+01 -0.26532200382E+02 -0.10610520625E+02  0.28627567438E+02  0.10000000000E+01 0. -1.
        -13    1    6    6    0    0  0.50207264478E+01 -0.20750761810E+02 -0.24133499043E+01  0.21485741610E+02  0.10500000000E+00 0. -1.
         13    1    6    6    0    0  0.28907634236E+01 -0.11952474742E+02 -0.14835527773E+01  0.12386691224E+02  0.10500000000E+00 0.  1.
</event>
<event>
11    0  0.3439373E-009  0.9118800E+02  0.7816531E-02  0.1126479E+00
         25   -1    0    0    0    0  0.00000000000E+00  0.00000000000E+00  0.99999998245E-14  0.12500000000E+03  0.12500000000E+03 0.  0.
    3000001    1    3    3    0    0 -0.17458141865E+02 -0.15716560975E+02  0.15738503898E+02  0.28293064719E+02  0.10000000000E+01 0.  1.
    1000022    2    1    0    0    0 -0.32050320810E+02 -0.31007459870E+02  0.42632906629E+02  0.62500003620E+02  0.10000004660E+02 0.  0.
    3000022    2    3    3    0    0 -0.14592178945E+02 -0.15290898895E+02  0.26894402731E+02  0.34206938901E+02  0.24999060583E+00 0.  0.
    1000022    2    1    0    0    0  0.32050320810E+02  0.31007459870E+02 -0.42632906629E+02  0.62499996380E+02  0.99999594125E+01 0.  0.
    3000022    2    5    5    0    0  0.82451910421E+01  0.11544255885E+02 -0.84629755698E+01  0.16520819558E+02  0.25000823260E+00 0.  0.
        -13    1    4    4    0    0 -0.53844835780E+01 -0.56961021775E+01  0.98984718083E+01  0.12626520208E+02  0.10500000000E+00 0.  1.
         13    1    4    4    0    0 -0.92076953673E+01 -0.95947967177E+01  0.16995930923E+02  0.21580418693E+02  0.10500000000E+00 0. -1.
    3000001    1    5    5    0    0  0.23805129768E+02  0.19463203985E+02 -0.34169931059E+02  0.45979176822E+02  0.10000000000E+01 0.  1.
        -13    1    6    6    0    0  0.47215144362E+01  0.65173767944E+01 -0.47575440946E+01  0.93495534473E+01  0.10500000000E+00 0.  1.
         13    1    6    6    0    0  0.35236766059E+01  0.50268790907E+01 -0.37054314752E+01  0.71712661109E+01  0.10500000000E+00 0. -1.
</event>
<event>
11    0  0.3439373E-009  0.9118800E+02  0.7816531E-02  0.1126479E+00
         25   -1    0    0    0    0  0.00000000000E+00  0.00000000000E+00  0.99999998245E-14  0.12500000000E+03  0.12500000000E+03 0.  0.
    3000001    1    3    3    0    0 -0.22422968483E+02 -0.39222707470E+02 -0.15713126820E+02  0.47844672131E+02  0.10000000000E+01 0.  1.
    1000022    2    1    0    0    0 -0.24082347501E+02 -0.52472758547E+02 -0.21746267066E+02  0.62500000156E+02  0.10000001875E+02 0.  0.
    3000022    2    3    3    0    0 -0.16593790184E+01 -0.13250051077E+02 -0.60331402455E+01  0.14655328025E+02  0.24993204552E+00 0.  0.
    1000022    2    1    0    0    0  0.24082347501E+02  0.52472758547E+02  0.21746267066E+02  0.62499999844E+02  0.99999999290E+01 0.  0.
    3000022    2    5    5    0    0  0.19203130442E+02  0.37145831652E+02  0.19798676283E+02  0.46266868384E+02  0.24999923866E+00 0.  0.
        -13    1    4    4    0    0 -0.11760350811E+01 -0.90092252386E+01 -0.41239115424E+01  0.99783199649E+01  0.10500000000E+00 0. -1.
         13    1    4    4    0    0 -0.48334393727E+00 -0.42408258379E+01 -0.19092287030E+01  0.46770080596E+01  0.10500000000E+00 0.  1.
    3000001    1    5    5    0    0  0.48792170591E+01  0.15326926895E+02  0.19475907825E+01  0.16233131460E+02  0.10000000000E+01 0. -1.
        -13    1    6    6    0    0  0.10366170309E+02  0.19907434935E+02  0.10615156849E+02  0.24828532628E+02  0.10500000000E+00 0. -1.
         13    1    6    6    0    0  0.88369601333E+01  0.17238396717E+02  0.91835194343E+01  0.21438335756E+02  0.10500000000E+00 0.  1.
</event>
<event>
11    0  0.3439373E-009  0.9118800E+02  0.7816531E-02  0.1126479E+00
         25   -1    0    0    0    0  0.00000000000E+00  0.00000000000E+00  0.99999998245E-14  0.12500000000E+03  0.12500000000E+03 0.  0.
    3000001    1    3    3    0    0 -0.46917625113E+01  0.14574035012E+01 -0.74160277893E+01  0.89517667865E+01  0.10000000000E+01 0.  1.
    1000022    2    1    0    0    0 -0.49710624225E+02  0.51777318930E+01 -0.36170360073E+02  0.62499996232E+02  0.99999756406E+01 0.  0.
    3000022    2    3    3    0    0 -0.45018861713E+02  0.37203283918E+01 -0.28754332283E+02  0.53548229445E+02  0.24999668940E+00 0.  0.
    1000022    2    1    0    0    0  0.49710624225E+02 -0.51777318930E+01  0.36170360073E+02  0.62500003768E+02  0.10000022746E+02 0.  0.
    3000022    2    5    5    0    0  0.21727896052E+02 -0.56639560320E+01  0.11752642913E+02  0.25344998707E+02  0.24995838398E+00 0.  0.
        -13    1    4    4    0    0 -0.13833309029E+02  0.11899085589E+01 -0.88256934102E+01  0.16452361844E+02  0.10500000000E+00 0. -1.
         13    1    4    4    0    0 -0.31185552685E+02  0.25304198329E+01 -0.19928638873E+02  0.37095867601E+02  0.10500000000E+00 0.  1.
    3000001    1    5    5    0    0  0.27982728172E+02  0.48622413901E+00  0.24417717159E+02  0.37155005062E+02  0.10000000000E+01 0. -1.
        -13    1    6    6    0    0  0.11600120450E+02 -0.29543547706E+01  0.62654831560E+01  0.13511414091E+02  0.10500000000E+00 0. -1.
         13    1    6    6    0    0  0.10127775603E+02 -0.27096012613E+01  0.54871597572E+01  0.11833584616E+02  0.10500000000E+00 0.  1.
</event>
<event>
11    0  0.3439373E-009  0.9118800E+02  0.7816531E-02  0.1126479E+00
         25   -1    0    0    0    0  0.00000000000E+00  0.00000000000E+00  0.99999998245E-14  0.12500000000E+03  0.12500000000E+03 0.  0.
    3000001    1    3    3    0    0 -0.70515855276E+01  0.40169049616E+01 -0.16991477502E+01  0.83514960935E+01  0.10000000000E+01 0. -1.
    1000022    2    1    0    0    0 -0.35790992021E+02  0.46715632000E+02 -0.18517682393E+02  0.62499999146E+02  0.99999974505E+01 0.  0.
    3000022    2    3    3    0    0 -0.28739406494E+02  0.42698727039E+02 -0.16818534643E+02  0.54148503053E+02  0.24999795342E+00 0.  0.
    1000022    2    1    0    0    0  0.35790992021E+02 -0.46715632000E+02  0.18517682393E+02  0.62500000854E+02  0.10000008122E+02 0.  0.
    3000022    2    5    5    0    0  0.19769860104E+02 -0.26908443614E+02  0.53896093976E+01  0.33823395750E+02  0.25000873205E+00 0.  0.
        -13    1    4    4    0    0 -0.12424155214E+02  0.18569461669E+02 -0.72769370011E+01  0.23497858978E+02  0.10500000000E+00 0.  1.
         13    1    4    4    0    0 -0.16315251280E+02  0.24129265370E+02 -0.95415976415E+01  0.30650644074E+02  0.10500000000E+00 0. -1.
    3000001    1    5    5    0    0  0.16021131918E+02 -0.19807188386E+02  0.13128072995E+02  0.28676605103E+02  0.10000000000E+01 0. -1.
        -13    1    6    6    0    0  0.47513257261E+01 -0.65012521469E+01  0.13009670908E+01  0.81575067272E+01  0.10500000000E+00 0. -1.
         13    1    6    6    0    0  0.15018534377E+02 -0.20407191467E+02  0.40886423067E+01  0.25665889023E+02  0.10500000000E+00 0.  1.
</event>
<event>
11    0  0.3439373E-009  0.9118800E+02  0.7816531E-02  0.1126479E+00
         25   -1    0    0    0    0  0.00000000000E+00  0.00000000000E+00  0.99999998245E-14  0.12500000000E+03  0.12500000000E+03 0.  0.
    3000001    1    3    3    0    0 -0.15762174113E+02 -0.23389133268E+02  0.23915750647E+02  0.36992713023E+02  0.10000000000E+01 0.  1.
    1000022    2    1    0    0    0 -0.23938188981E+02 -0.44940045249E+02  0.34836839725E+02  0.62500000438E+02  0.10000004701E+02 0.  0.
    3000022    2    3    3    0    0 -0.81760148673E+01 -0.21550911981E+02  0.10921089078E+02  0.25507287414E+02  0.24999652776E+00 0.  0.
    1000022    2    1    0    0    0  0.23938188981E+02  0.44940045249E+02 -0.34836839725E+02  0.62499999562E+02  0.99999992276E+01 0.  0.
    3000022    2    5    5    0    0  0.17870742382E+02  0.23692750038E+02 -0.18094601613E+02  0.34758983016E+02  0.24991021194E+00 0.  0.
        -13    1    4    4    0    0 -0.57798825805E+01 -0.15322535909E+02  0.77915508652E+01  0.18135777877E+02  0.10500000000E+00 0. -1.
         13    1    4    4    0    0 -0.23961322868E+01 -0.62283760720E+01  0.31295382128E+01  0.73715095371E+01  0.10500000000E+00 0.  1.
    3000001    1    5    5    0    0  0.60674465988E+01  0.21247295211E+02 -0.16742238112E+02  0.27741016546E+02  0.10000000000E+01 0.  1.
        -13    1    6    6    0    0  0.11013184220E+02  0.14695248754E+02 -0.11222835719E+02  0.21522165996E+02  0.10500000000E+00 0. -1.
         13    1    6    6    0    0  0.68575581623E+01  0.89975012840E+01 -0.68717658942E+01  0.13236817020E+02  0.10500000000E+00 0.  1.
</event>
<event>
11    0  0.3439373E-009  0.9118800E+02  0.7816531E-02  0.1126479E+00
         25   -1    0    0    0    0  0.00000000000E+00  0.00000000000E+00  0.99999998245E-14  0.12500000000E+03  0.12500000000E+03 0.  0.
    3000001    1    3    3    0    0 -0.60865730341E+02  0.52886495758E+01  0.68712036387E+01  0.61488376005E+02  0.10000000000E+01 0. -1.
    1000022    2    1    0    0    0 -0.60949947110E+02  0.61636141876E+01  0.73050554241E+01  0.62500000192E+02  0.99999998326E+01 0.  0.
    3000022    2    3    3    0    0 -0.84216768987E-01  0.87496461179E+00  0.43385178543E+00  0.10116241868E+01  0.25000117502E+00 0.  0.
    1000022    2    1    0    0    0  0.60949947110E+02 -0.61636141876E+01 -0.73050554241E+01  0.62499999808E+02  0.99999974375E+01 0.  0.
    3000022    2    5    5    0    0  0.26588760300E+02 -0.16977184863E+01 -0.80299438262E+01  0.27827808551E+02  0.25001709215E+00 0.  0.
        -13    1    4    4    0    0  0.25362322474E-01  0.44130795340E+00  0.22269148954E+00  0.50597673528E+00  0.10500000000E+00 0. -1.
         13    1    4    4    0    0 -0.10957909146E+00  0.43365665839E+00  0.21116029589E+00  0.50564745150E+00  0.10500000000E+00 0.  1.
    3000001    1    5    5    0    0  0.34361186810E+02 -0.44658957013E+01  0.72488840213E+00  0.34672191257E+02  0.10000000000E+01 0. -1.
        -13    1    6    6    0    0  0.20312269337E+02 -0.13099051456E+01 -0.61251382967E+01  0.21256351552E+02  0.10500000000E+00 0. -1.
         13    1    6    6    0    0  0.62764909628E+01 -0.38781334062E+00 -0.19048055296E+01  0.65714569997E+01  0.10500000000E+00 0.  1.
</event>
<event>
11    0  0.3439373E-009  0.9118800E+02  0.7816531E-02  0.1126479E+00
         25   -1    0    0    0    0  0.00000000000E+00  0.00000000000E+00  0.99999998245E-14  0.12500000000E+03  0.12500000000E+03 0.  0.
    3000001    1    3    3    0    0  0.43440060122E+01 -0.32769028612E+02 -0.41992122886E+02  0.53451080521E+02  0.10000000000E+01 0.  1.
    1000022    2    1    0    0    0  0.24659127975E+01 -0.35471509517E+02 -0.50417668231E+02  0.62500000460E+02  0.10000003715E+02 0.  0.
    3000022    2    3    3    0    0 -0.18780932147E+01 -0.27024809047E+01 -0.84255453446E+01  0.90489199383E+01  0.25000106315E+00 0.  0.
    1000022    2    1    0    0    0 -0.24659127975E+01  0.35471509517E+02  0.50417668231E+02  0.62499999540E+02  0.99999979681E+01 0.  0.
    3000022    2    5    5    0    0  0.69496963944E+00  0.25009417148E+02  0.28066668155E+02  0.37599924060E+02  0.24999829159E+00 0.  0.
        -13    1    4    4    0    0 -0.10523851298E+01 -0.15625422001E+01 -0.49817051646E+01  0.53270502096E+01  0.10500000000E+00 0.  1.
         13    1    4    4    0    0 -0.82570808491E+00 -0.11399387046E+01 -0.34438401800E+01  0.37218697287E+01  0.10500000000E+00 0. -1.
    3000001    1    5    5    0    0 -0.31608824370E+01  0.10462092370E+02  0.22351000076E+02  0.24900075480E+02  0.10000000000E+01 0.  1.
        -13    1    6    6    0    0  0.28830695532E+00  0.90059611076E+01  0.10174500696E+02  0.13591245189E+02  0.10500000000E+00 0. -1.
         13    1    6    6    0    0  0.40666268412E+00  0.16003456040E+02  0.17892167459E+02  0.24008678871E+02  0.10500000000E+00 0.  1.
</event>
<event>
11    0  0.3439373E-009  0.9118800E+02  0.7816531E-02  0.1126479E+00
         25   -1    0    0    0    0  0.00000000000E+00  0.00000000000E+00  0.99999998245E-14  0.12500000000E+03  0.12500000000E+03 0.  0.
    3000001    1    3    3    0    0 -0.69316446711E+01 -0.44416676529E+02 -0.76355955096E+01  0.45609112801E+02  0.10000000000E+01 0.  1.
    1000022    2    1    0    0    0 -0.47711299022E+01 -0.61141897572E+02 -0.67196969044E+01  0.62500004181E+02  0.10000043847E+02 0.  0.
    3000022    2    3    3    0    0  0.21605147688E+01 -0.16725221043E+02  0.91589860519E+00  0.16890891380E+02  0.24999671353E+00 0.  0.
    1000022    2    1    0    0    0  0.47711299022E+01  0.61141897572E+02  0.67196969044E+01  0.62499995819E+02  0.99999915823E+01 0.  0.
    3000022    2    5    5    0    0  0.24029589822E+01  0.27186310187E+01  0.14185321646E-01  0.36370176931E+01  0.25005997502E+00 0.  0.
        -13    1    4    4    0    0  0.78119846466E+00 -0.59503107254E+01  0.38214008785E+00  0.60144430180E+01  0.10500000000E+00 0.  1.
         13    1    4    4    0    0  0.13793163042E+01 -0.10774910318E+02  0.53375851734E+00  0.10876448362E+02  0.10500000000E+00 0. -1.
    3000001    1    5    5    0    0  0.23681709201E+01  0.58423266553E+02  0.67055115828E+01  0.58862978126E+02  0.10000000000E+01 0.  1.
        -13    1    6    6    0    0  0.11048200741E+01  0.11903873636E+01  0.60011046884E-01  0.16285809152E+01  0.10500000000E+00 0. -1.
         13    1    6    6    0    0  0.12981389081E+01  0.15282436551E+01 -0.45825725237E-01  0.20084367779E+01  0.10500000000E+00 0.  1.
</event>
<event>
11    0  0.3439373E-009  0.9118800E+02  0.7816531E-02  0.1126479E+00
         25   -1    0    0    0    0  0.00000000000E+00  0.00000000000E+00  0.99999998245E-14  0.12500000000E+03  0.12500000000E+03 0.  0.
    3000001    1    3    3    0    0 -0.20350762017E+02  0.27073618705E+02 -0.37654018345E+02  0.50655300236E+02  0.10000000000E+01 0.  1.
    1000022    2    1    0    0    0 -0.28737720861E+02  0.30494056462E+02 -0.45282506795E+02  0.62499995733E+02  0.99999982603E+01 0.  0.
    3000022    2    3    3    0    0 -0.83869588448E+01  0.34204377572E+01 -0.76284884495E+01  0.11844695497E+02  0.25000457214E+00 0.  0.
    1000022    2    1    0    0    0  0.28737720861E+02 -0.30494056462E+02  0.45282506795E+02  0.62500004267E+02  0.10000051597E+02 0.  0.
    3000022    2    5    5    0    0  0.61116585351E+01 -0.12652489143E+02  0.17686584919E+02  0.22590166821E+02  0.24999867915E+00 0.  0.
        -13    1    4    4    0    0 -0.57277734802E+01  0.23009399181E+01 -0.51470890720E+01  0.80377400096E+01  0.10500000000E+00 0. -1.
         13    1    4    4    0    0 -0.26591853646E+01  0.11194978391E+01 -0.24813993776E+01  0.38069554878E+01  0.10500000000E+00 0.  1.
    3000001    1    5    5    0    0  0.22626062326E+02 -0.17841567319E+02  0.27595921875E+02  0.39909837446E+02  0.10000000000E+01 0.  1.
        -13    1    6    6    0    0  0.22255102870E+01 -0.47269623158E+01  0.66240230948E+01  0.84371663332E+01  0.10500000000E+00 0. -1.
         13    1    6    6    0    0  0.38861482481E+01 -0.79255268268E+01  0.11062561824E+02  0.14153000488E+02  0.10500000000E+00 0.  1.
</event>
<event>
11    0  0.3439373E-009  0.9118800E+02  0.7816531E-02  0.1126479E+00
         25   -1    0    0    0    0  0.00000000000E+00  0.00000000000E+00  0.99999998245E-14  0.12500000000E+03  0.12500000000E+03 0.  0.
    3000001    1    3    3    0    0  0.25266431078E+02  0.11725676687E+02 -0.37840588684E+02  0.46997810429E+02  0.10000000000E+01 0. -1.
    1000022    2    1    0    0    0  0.36154868741E+02  0.18763181722E+02 -0.46335930702E+02  0.62500000217E+02  0.10000001558E+02 0.  0.
    3000022    2    3    3    0    0  0.10888437663E+02  0.70375050344E+01 -0.84953420178E+01  0.15502189788E+02  0.25000074176E+00 0.  0.
    1000022    2    1    0    0    0 -0.36154868741E+02 -0.18763181722E+02  0.46335930702E+02  0.62499999783E+02  0.99999988397E+01 0.  0.
    3000022    2    5    5    0    0 -0.57639912307E+01 -0.53404041702E+01  0.14397121324E+02  0.16403753324E+02  0.25001820479E+00 0.  0.
        -13    1    4    4    0    0  0.26335316746E+01  0.16976233932E+01 -0.20783416954E+01  0.37613752099E+01  0.10500000000E+00 0.  1.
         13    1    4    4    0    0  0.82549059887E+01  0.53398816412E+01 -0.64170003223E+01  0.11740814578E+02  0.10500000000E+00 0. -1.
    3000001    1    5    5    0    0 -0.30390877510E+02 -0.13422777552E+02  0.31938809378E+02  0.46096246458E+02  0.10000000000E+01 0. -1.
        -13    1    6    6    0    0 -0.16398688750E+01 -0.14723175497E+01  0.40824253454E+01  0.46404860300E+01  0.10500000000E+00 0.  1.
         13    1    6    6    0    0 -0.41241223558E+01 -0.38680866205E+01  0.10314695978E+02  0.11763267294E+02  0.10500000000E+00 0. -1.
</event>
<event>
11    0  0.3439373E-009  0.9118800E+02  0.7816531E-02  0.1126479E+00
         25   -1    0    0    0    0  0.00000000000E+00  0.00000000000E+00  0.99999998245E-14  0.12500000000E+03  0.12500000000E+03 0.  0.
    3000001    1    3    3    0    0 -0.38046714087E+01  0.15187114674E+01 -0.71348308416E+01  0.82878115439E+01  0.10000000000E+01 0.  1.
    1000022    2    1    0    0    0 -0.26290062032E+02  0.33984920942E+02 -0.44273105035E+02  0.62500000746E+02  0.10000002538E+02 0.  0.
    3000022    2    3    3    0    0 -0.22485390624E+02  0.32466209474E+02 -0.37138274194E+02  0.54212189202E+02  0.24999782019E+00 0.  0.
    1000022    2    1    0    0    0  0.26290062032E+02 -0.33984920942E+02  0.44273105035E+02  0.62499999254E+02  0.99999932082E+01 0.  0.
    3000022    2    5    5    0    0  0.23681398658E+02 -0.33395674215E+02  0.39215674725E+02  0.56692251183E+02  0.25000283388E+00 0.  0.
        -13    1    4    4    0    0 -0.11678833362E+02  0.16844283397E+02 -0.19366849422E+02  0.28199484275E+02  0.10500000000E+00 0.  1.
         13    1    4    4    0    0 -0.10806557262E+02  0.15621926077E+02 -0.17771424771E+02  0.26012704927E+02  0.10500000000E+00 0. -1.
    3000001    1    5    5    0    0  0.26086633743E+01 -0.58924672662E+00  0.50574303101E+01  0.58077480702E+01  0.10000000000E+01 0. -1.
        -13    1    6    6    0    0  0.86981399231E+01 -0.12174287442E+02  0.14367389677E+02  0.20743765906E+02  0.10500000000E+00 0.  1.
         13    1    6    6    0    0  0.14983258735E+02 -0.21221386773E+02  0.24848285049E+02  0.35948485278E+02  0.10500000000E+00 0. -1.
</event>
<event>
11    0  0.3439373E-009  0.9118800E+02  0.7816531E-02  0.1126479E+00
         25   -1    0    0    0    0  0.00000000000E+00  0.00000000000E+00  0.99999998245E-14  0.12500000000E+03  0.12500000000E+03 0.  0.
    3000001    1    3    3    0    0  0.15363704130E+02  0.23914309401E+01  0.32663932618E+01  0.15919537414E+02  0.10000000000E+01 0.  1.
    1000022    2    1    0    0    0  0.61657331882E+02  0.12378419360E+01 -0.17581737798E+01  0.62500000046E+02  0.10000000166E+02 0.  0.
    3000022    2    3    3    0    0  0.46293627751E+02 -0.11535890041E+01 -0.50245670417E+01  0.46580462632E+02  0.24997414427E+00 0.  0.
    1000022    2    1    0    0    0 -0.61657331882E+02 -0.12378419360E+01  0.17581737798E+01  0.62499999954E+02  0.99999995890E+01 0.  0.
    3000022    2    5    5    0    0 -0.40957663910E+02 -0.51323404928E+01  0.29165548366E+01  0.41381637806E+02  0.25000696246E+00 0.  0.
        -13    1    4    4    0    0  0.13390434072E+02 -0.32679301556E+00 -0.14957347435E+01  0.13478084647E+02  0.10500000000E+00 0.  1.
         13    1    4    4    0    0  0.32903193679E+02 -0.82679598851E+00 -0.35288322982E+01  0.33102377985E+02  0.10500000000E+00 0. -1.
    3000001    1    5    5    0    0 -0.20699667972E+02  0.38944985568E+01 -0.11583810568E+01  0.21118362148E+02  0.10000000000E+01 0. -1.
        -13    1    6    6    0    0 -0.28198795737E+02 -0.34940114159E+01  0.19785115569E+01  0.28483429038E+02  0.10500000000E+00 0. -1.
         13    1    6    6    0    0 -0.12758868173E+02 -0.16383290769E+01  0.93804327976E+00  0.12898208768E+02  0.10500000000E+00 0.  1.
</event>
<event>
11    0  0.3439373E-009  0.9118800E+02  0.7816531E-02  0.1126479E+00
         25   -1    0    0    0    0  0.00000000000E+00  0.00000000000E+00  0.99999998245E-14  0.12500000000E+03  0.12500000000E+03 0.  0.
    3000001    1    3    3    0    0  0.69910981421E+01  0.29152675480E+00  0.36006708754E+01  0.79325451044E+01  0.10000000000E+01 0. -1.
    1000022    2    1    0    0    0  0.61220438326E+02  0.63112520488E+01  0.42982906647E+01  0.62500004270E+02  0.10000062989E+02 0.  0.
    3000022    2    3    3    0    0  0.54229340184E+02  0.60197252940E+01  0.69761978932E+00  0.54567459165E+02  0.24999389573E+00 0.  0.
    1000022    2    1    0    0    0 -0.61220438326E+02 -0.63112520488E+01 -0.42982906647E+01  0.62499995730E+02  0.10000009617E+02 0.  0.
    3000022    2    5    5    0    0 -0.31350117200E+01 -0.63944473286E+00 -0.25576271118E+01  0.41037964371E+01  0.25000140537E+00 0.  0.
        -13    1    4    4    0    0  0.21519176807E+02  0.24126330523E+01  0.21880390108E+00  0.21655361203E+02  0.10500000000E+00 0. -1.
         13    1    4    4    0    0  0.32710163378E+02  0.36070922418E+01  0.47881588824E+00  0.32912097962E+02  0.10500000000E+00 0.  1.
    3000001    1    5    5    0    0 -0.58085426606E+02 -0.56718073160E+01 -0.17406635529E+01  0.58396199293E+02  0.10000000000E+01 0.  1.
        -13    1    6    6    0    0 -0.92913027766E+00 -0.21319168749E+00 -0.71502078717E+00  0.11962497626E+01  0.10500000000E+00 0. -1.
         13    1    6    6    0    0 -0.22058814424E+01 -0.42625304538E+00 -0.18426063246E+01  0.29075466744E+01  0.10500000000E+00 0.  1.
</event>
<event>
11    0  0.3439373E-009  0.9118800E+02  0.7816531E-02  0.1126479E+00
         25   -1    0    0    0    0  0.00000000000E+00  0.00000000000E+00  0.99999998245E-14  0.12500000000E+03  0.12500000000E+03 0.  0.
    3000001    1    3    3    0    0  0.63787243012E+01 -0.77820584822E+01  0.19581576250E+01  0.10299657238E+02  0.10000000000E+01 0.  1.
    1000022    2    1    0    0    0  0.48831121487E+02 -0.37405367860E+02 -0.47550207992E+01  0.62499999664E+02  0.99999882369E+01 0.  0.
    3000022    2    3    3    0    0  0.42452397186E+02 -0.29623309378E+02 -0.67131784242E+01  0.52200342426E+02  0.24999902874E+00 0.  0.
    1000022    2    1    0    0    0 -0.48831121487E+02  0.37405367860E+02  0.47550207992E+01  0.62500000336E+02  0.99999924378E+01 0.  0.
    3000022    2    5    5    0    0 -0.31737470377E+02  0.26915302388E+02 -0.94769484548E+00  0.41625246503E+02  0.24998462348E+00 0.  0.
        -13    1    4    4    0    0  0.19795947692E+02 -0.13895255360E+02 -0.31292615233E+01  0.24387721690E+02  0.10500000000E+00 0.  1.
         13    1    4    4    0    0  0.22656449494E+02 -0.15728054019E+02 -0.35839169009E+01  0.27812620736E+02  0.10500000000E+00 0. -1.
    3000001    1    5    5    0    0 -0.17093651110E+02  0.10490065473E+02  0.57027156447E+01  0.20874753833E+02  0.10000000000E+01 0.  1.
        -13    1    6    6    0    0 -0.84727350643E+01  0.72302046119E+01 -0.24613192691E+00  0.11141575478E+02  0.10500000000E+00 0.  1.
         13    1    6    6    0    0 -0.23264735313E+02  0.19685097776E+02 -0.70156291857E+00  0.30483671025E+02  0.10500000000E+00 0. -1.
</event>
<event>
11    0  0.3439373E-009  0.9118800E+02  0.7816531E-02  0.1126479E+00
         25   -1    0    0    0    0  0.00000000000E+00  0.00000000000E+00  0.99999998245E-14  0.12500000000E+03  0.12500000000E+03 0.  0.
    3000001    1    3    3    0    0 -0.48729216308E+01 -0.13456375050E+02 -0.30811142045E+02  0.33987436926E+02  0.10000000000E+01 0. -1.
    1000022    2    1    0    0    0 -0.92621685788E+01 -0.32341445450E+02 -0.51715505703E+02  0.62500000706E+02  0.99999848791E+01 0.  0.
    3000022    2    3    3    0    0 -0.43892469480E+01 -0.18885070400E+02 -0.20904363658E+02  0.28512563780E+02  0.25000114227E+00 0.  0.
    1000022    2    1    0    0    0  0.92621685788E+01  0.32341445450E+02  0.51715505703E+02  0.62499999294E+02  0.99999760576E+01 0.  0.
    3000022    2    5    5    0    0  0.72329073573E+01  0.31140319702E+02  0.50223756690E+02  0.59535894154E+02  0.24999334932E+00 0.  0.
        -13    1    4    4    0    0 -0.31918683072E+01 -0.13857065479E+02 -0.15301137330E+02  0.20888803593E+02  0.10500000000E+00 0.  1.
         13    1    4    4    0    0 -0.11973786408E+01 -0.50280049209E+01 -0.56032263278E+01  0.76237601861E+01  0.10500000000E+00 0. -1.
    3000001    1    5    5    0    0  0.20292612215E+01  0.12011257473E+01  0.14917490130E+01  0.29641051405E+01  0.10000000000E+01 0. -1.
        -13    1    6    6    0    0  0.52934294473E+01  0.22750952668E+02  0.36760131276E+02  0.43553926563E+02  0.10500000000E+00 0. -1.
         13    1    6    6    0    0  0.19394779100E+01  0.83893670340E+01  0.13463625413E+02  0.15981967591E+02  0.10500000000E+00 0.  1.
</event>
<event>
11    0  0.3439373E-009  0.9118800E+02  0.7816531E-02  0.1126479E+00
         25   -1    0    0    0    0  0.00000000000E+00  0.00000000000E+00  0.99999998245E-14  0.12500000000E+03  0.12500000000E+03 0.  0.
    3000001    1    3    3    0    0  0.96356654337E+00 -0.27237511425E+02  0.45820584836E+02  0.53322945191E+02  0.10000000000E+01 0.  1.
    1000022    2    1    0    0    0  0.36051910569E+01 -0.34129722198E+02  0.51268067391E+02  0.62499999072E+02  0.99999905064E+01 0.  0.
    3000022    2    3    3    0    0  0.26416245136E+01 -0.68922107732E+01  0.54474825550E+01  0.91770538814E+01  0.25000468168E+00 0.  0.
    1000022    2    1    0    0    0 -0.36051910569E+01  0.34129722198E+02 -0.51268067391E+02  0.62500000928E+02  0.10000002105E+02 0.  0.
    3000022    2    5    5    0    0  0.30431879474E+01  0.96690307563E+01 -0.18052947789E+02  0.20705616863E+02  0.24999430267E+00 0.  0.
        -13    1    4    4    0    0  0.82333122285E+00 -0.20733718115E+01  0.16003667705E+01  0.27475341256E+01  0.10500000000E+00 0. -1.
         13    1    4    4    0    0  0.18182932907E+01 -0.48188389617E+01  0.38471157846E+01  0.64295197558E+01  0.10500000000E+00 0.  1.
    3000001    1    5    5    0    0 -0.66483790043E+01  0.24460691442E+02 -0.33215119602E+02  0.41794384065E+02  0.10000000000E+01 0.  1.
        -13    1    6    6    0    0  0.16257334685E+01  0.50005157111E+01 -0.94581347608E+01  0.10821991722E+02  0.10500000000E+00 0.  1.
         13    1    6    6    0    0  0.14174544789E+01  0.46685150453E+01 -0.85948130286E+01  0.98836251408E+01  0.10500000000E+00 0. -1.
</event>
<event>
11    0  0.3439373E-009  0.9118800E+02  0.7816531E-02  0.1126479E+00
         25   -1    0    0    0    0  0.00000000000E+00  0.00000000000E+00  0.99999998245E-14  0.12500000000E+03  0.12500000000E+03 0.  0.
    3000001    1    3    3    0    0 -0.20811565617E+02  0.74768828986E+01  0.31602901352E+02  0.38584561876E+02  0.10000000000E+01 0.  1.
    1000022    2    1    0    0    0 -0.28043181843E+02  0.17390744096E+02  0.52128611011E+02  0.62499999859E+02  0.99999934171E+01 0.  0.
    3000022    2    3    3    0    0 -0.72316162258E+01  0.99138611972E+01  0.20525709660E+02  0.23915437983E+02  0.24999963980E+00 0.  0.
    1000022    2    1    0    0    0  0.28043181843E+02 -0.17390744096E+02 -0.52128611011E+02  0.62500000141E+02  0.99999951752E+01 0.  0.
    3000022    2    5    5    0    0  0.23585661893E+02 -0.10652074160E+02 -0.43648611785E+02  0.50744595278E+02  0.25001656775E+00 0.  0.
        -13    1    4    4    0    0 -0.46777492970E+01  0.63542731234E+01  0.13106721411E+02  0.15298865859E+02  0.10500000000E+00 0.  1.
         13    1    4    4    0    0 -0.25538669288E+01  0.35595880737E+01  0.74189882483E+01  0.86165721243E+01  0.10500000000E+00 0. -1.
    3000001    1    5    5    0    0  0.44575199499E+01 -0.67386699361E+01 -0.84799992260E+01  0.11755404863E+02  0.10000000000E+01 0.  1.
        -13    1    6    6    0    0  0.12089930271E+02 -0.55344565286E+01 -0.22432530073E+02  0.26077309169E+02  0.10500000000E+00 0. -1.
         13    1    6    6    0    0  0.11495731622E+02 -0.51176176311E+01 -0.21216081713E+02  0.24667286109E+02  0.10500000000E+00 0.  1.
</event>
<event>
11    0  0.3439373E-009  0.9118800E+02  0.7816531E-02  0.1126479E+00
         25   -1    0    0    0    0  0.00000000000E+00  0.00000000000E+00  0.99999998245E-14  0.12500000000E+03  0.12500000000E+03 0.  0.
    3000001    1    3    3    0    0  0.15484428968E+01 -0.59842193793E+00 -0.39184914981E+01  0.43715397564E+01  0.10000000000E+01 0. -1.
    1000022    2    1    0    0    0  0.15752619834E+02  0.24538077632E+02 -0.54368994686E+02  0.62500001128E+02  0.10000013612E+02 0.  0.
    3000022    2    3    3    0    0  0.14204176937E+02  0.25136499570E+02 -0.50450503188E+02  0.58128461371E+02  0.24999270803E+00 0.  0.
    1000022    2    1    0    0    0 -0.15752619834E+02 -0.24538077632E+02  0.54368994686E+02  0.62499998872E+02  0.99999995163E+01 0.  0.
    3000022    2    5    5    0    0  0.11045111230E+01 -0.14905937848E+00  0.16258346673E+01  0.19869589200E+01  0.25000773037E+00 0.  0.
        -13    1    4    4    0    0  0.80933130483E+01  0.14308893426E+02 -0.28856430533E+02  0.33210702420E+02  0.10500000000E+00 0.  1.
         13    1    4    4    0    0  0.61108638886E+01  0.10827606144E+02 -0.21594072655E+02  0.24917758951E+02  0.10500000000E+00 0. -1.
    3000001    1    5    5    0    0 -0.16857130957E+02 -0.24389018254E+02  0.52743160019E+02  0.60513039952E+02  0.10000000000E+01 0.  1.
        -13    1    6    6    0    0  0.57807976579E+00 -0.12854088913E+00  0.77988370966E+00  0.98485662733E+00  0.10500000000E+00 0. -1.
         13    1    6    6    0    0  0.52643135725E+00 -0.20518489344E-01  0.84595095766E+00  0.10021022927E+01  0.10500000000E+00 0.  1.
</event>
<event>
11    0  0.3439373E-009  0.9118800E+02  0.7816531E-02  0.1126479E+00
         25   -1    0    0    0    0  0.00000000000E+00  0.00000000000E+00  0.99999998245E-14  0.12500000000E+03  0.12500000000E+03 0.  0.
    3000001    1    3    3    0    0  0.60531677077E+01  0.13387237653E+02 -0.21580720124E+01  0.14883421854E+02  0.10000000000E+01 0.  1.
    1000022    2    1    0    0    0  0.16441403587E+02  0.59193623164E+02  0.56608592744E+01  0.62500001138E+02  0.10000001966E+02 0.  0.
    3000022    2    3    3    0    0  0.10388235879E+02  0.45806385511E+02  0.78189312868E+01  0.47616579284E+02  0.25007590035E+00 0.  0.
    1000022    2    1    0    0    0 -0.16441403587E+02 -0.59193623164E+02 -0.56608592744E+01  0.62499998862E+02  0.99999877454E+01 0.  0.
    3000022    2    5    5    0    0 -0.26170877832E+01 -0.27748248645E+02 -0.21025828323E+01  0.27951704877E+02  0.24999925935E+00 0.  0.
        -13    1    4    4    0    0  0.50234918496E+01  0.22401292211E+02  0.38613964284E+01  0.23280351597E+02  0.10500000000E+00 0.  1.
         13    1    4    4    0    0  0.53647440298E+01  0.23405093300E+02  0.39575348583E+01  0.24336227687E+02  0.10500000000E+00 0. -1.
    3000001    1    5    5    0    0 -0.13824315804E+02 -0.31445374519E+02 -0.35582764420E+01  0.34548293986E+02  0.10000000000E+01 0.  1.
        -13    1    6    6    0    0 -0.10668325380E+01 -0.11418983530E+02 -0.92868918793E+00  0.11506728689E+02  0.10500000000E+00 0.  1.
         13    1    6    6    0    0 -0.15502552453E+01 -0.16329265115E+02 -0.11738936444E+01  0.16444976187E+02  0.10500000000E+00 0. -1.
</event>
<event>
11    0  0.3439373E-009  0.9118800E+02  0.7816531E-02  0.1126479E+00
         25   -1    0    0    0    0  0.00000000000E+00  0.00000000000E+00  0.99999998245E-14  0.12500000000E+03  0.12500000000E+03 0.  0.
    3000001    1    3    3    0    0 -0.72731310946E+01 -0.41317401006E+02 -0.28789133092E+02  0.50890473038E+02  0.10000000000E+01 0.  1.
    1000022    2    1    0    0    0 -0.11745572746E+02 -0.51638782104E+02 -0.31650078801E+02  0.62500001334E+02  0.10000019114E+02 0.  0.
    3000022    2    3    3    0    0 -0.44724416519E+01 -0.10321381098E+02 -0.28609457093E+01  0.11609528296E+02  0.24998961924E+00 0.  0.
    1000022    2    1    0    0    0  0.11745572746E+02  0.51638782104E+02  0.31650078801E+02  0.62499998666E+02  0.10000002440E+02 0.  0.
    3000022    2    5    5    0    0  0.93607212644E+01  0.19344522528E+02  0.12240176774E+02  0.24732936099E+02  0.25009247305E+00 0.  0.
        -13    1    4    4    0    0 -0.17494498916E+01 -0.41954416009E+01 -0.11648805506E+01  0.46936421729E+01  0.10500000000E+00 0. -1.
         13    1    4    4    0    0 -0.27229917602E+01 -0.61259394969E+01 -0.16960651586E+01  0.69158861231E+01  0.10500000000E+00 0.  1.
    3000001    1    5    5    0    0  0.23848514821E+01  0.32294259576E+02  0.19409902028E+02  0.37767062567E+02  0.10000000000E+01 0. -1.
        -13    1    6    6    0    0  0.56272240530E+01  0.11485825907E+02  0.72703049485E+01  0.14712518695E+02  0.10500000000E+00 0.  1.
         13    1    6    6    0    0  0.37334972113E+01  0.78586966209E+01  0.49698718251E+01  0.10020417405E+02  0.10500000000E+00 0. -1.
</event>
<event>
11    0  0.3439373E-009  0.9118800E+02  0.7816531E-02  0.1126479E+00
         25   -1    0    0    0    0  0.00000000000E+00  0.00000000000E+00  0.99999998245E-14  0.12500000000E+03  0.12500000000E+03 0.  0.
    3000001    1    3    3    0    0  0.53940846377E+00 -0.92047641755E+00 -0.68797184173E+00  0.16160270979E+01  0.10000000000E+01 0.  1.
    1000022    2    1    0    0    0  0.59582280601E+02 -0.12786471457E+02 -0.96285011542E+01  0.62499999934E+02  0.99999971669E+01 0.  0.
    3000022    2    3    3    0    0  0.59042872137E+02 -0.11865995039E+02 -0.89405293125E+01  0.60883972836E+02  0.24999086723E+00 0.  0.
    1000022    2    1    0    0    0 -0.59582280601E+02  0.12786471457E+02  0.96285011542E+01  0.62500000066E+02  0.99999979898E+01 0.  0.
    3000022    2    5    5    0    0 -0.48011239108E+02  0.14142523379E+02  0.82294967652E+01  0.50723536619E+02  0.25000369563E+00 0.  0.
        -13    1    4    4    0    0  0.21580887772E+02 -0.42772876599E+01 -0.32617272427E+01  0.22241398256E+02  0.10500000000E+00 0.  1.
         13    1    4    4    0    0  0.37461984365E+02 -0.75887073793E+01 -0.56788020698E+01  0.38642574580E+02  0.10500000000E+00 0. -1.
    3000001    1    5    5    0    0 -0.11571041493E+02 -0.13560519220E+01  0.13990043890E+01  0.11776463447E+02  0.10000000000E+01 0.  1.
        -13    1    6    6    0    0 -0.16362532839E+02  0.48545646787E+01  0.28506257974E+01  0.17304229875E+02  0.10500000000E+00 0.  1.
         13    1    6    6    0    0 -0.31648706269E+02  0.92879587001E+01  0.53788709678E+01  0.33419306743E+02  0.10500000000E+00 0. -1.
</event>
<event>
11    0  0.3439373E-009  0.9118800E+02  0.7816531E-02  0.1126479E+00
         25   -1    0    0    0    0  0.00000000000E+00  0.00000000000E+00  0.99999998245E-14  0.12500000000E+03  0.12500000000E+03 0.  0.
    3000001    1    3    3    0    0 -0.70710004465E-01  0.66734132957E+00 -0.88735448002E+00  0.14959085293E+01  0.10000000000E+01 0. -1.
    1000022    2    1    0    0    0 -0.17752750984E+02 -0.13800418215E+02 -0.57451179880E+02  0.62500002529E+02  0.10000026804E+02 0.  0.
    3000022    2    3    3    0    0 -0.17682040980E+02 -0.14467759544E+02 -0.56563825400E+02  0.61004094000E+02  0.25000274969E+00 0.  0.
    1000022    2    1    0    0    0  0.17752750984E+02  0.13800418215E+02  0.57451179880E+02  0.62499997471E+02  0.99999951931E+01 0.  0.
    3000022    2    5    5    0    0  0.14870908839E+01  0.33079030643E+01  0.20030379552E+02  0.20357609429E+02  0.24998939092E+00 0.  0.
        -13    1    4    4    0    0 -0.40529301994E+01 -0.33215069211E+01 -0.12968793377E+02  0.13987826067E+02  0.10500000000E+00 0.  1.
         13    1    4    4    0    0 -0.13629110780E+02 -0.11146252623E+02 -0.43595032023E+02  0.47016267932E+02  0.10500000000E+00 0. -1.
    3000001    1    5    5    0    0  0.16265660100E+02  0.10492515150E+02  0.37420800328E+02  0.42142388042E+02  0.10000000000E+01 0. -1.
        -13    1    6    6    0    0  0.67537081139E+00  0.14751298805E+01  0.93323094902E+01  0.94728643672E+01  0.10500000000E+00 0. -1.
         13    1    6    6    0    0  0.81172007255E+00  0.18327731838E+01  0.10698070062E+02  0.10884745062E+02  0.10500000000E+00 0.  1.
</event>
<event>
11    0  0.3439373E-009  0.9118800E+02  0.7816531E-02  0.1126479E+00
         25   -1    0    0    0    0  0.00000000000E+00  0.00000000000E+00  0.99999998245E-14  0.12500000000E+03  0.12500000000E+03 0.  0.
    3000001    1    3    3    0    0 -0.34594402906E+02 -0.71635309137E+01 -0.15040376903E+02  0.38409657965E+02  0.10000000000E+01 0. -1.
    1000022    2    1    0    0    0 -0.54699448853E+02 -0.48875919854E+01 -0.28112848225E+02  0.62500003914E+02  0.99999996862E+01 0.  0.
    3000022    2    3    3    0    0 -0.20105045947E+02  0.22759389283E+01 -0.13072471322E+02  0.24090345950E+02  0.24998194786E+00 0.  0.
    1000022    2    1    0    0    0  0.54699448853E+02  0.48875919854E+01  0.28112848225E+02  0.62499996086E+02  0.99999507588E+01 0.  0.
    3000022    2    5    5    0    0  0.46776403526E+02  0.11662949888E+01  0.21559358596E+02  0.51519516820E+02  0.24999894981E+00 0.  0.
        -13    1    4    4    0    0 -0.13336897767E+02  0.15261565406E+01 -0.86111892021E+01  0.15948843228E+02  0.10500000000E+00 0.  1.
         13    1    4    4    0    0 -0.67681481799E+01  0.74978238768E+00 -0.44612821196E+01  0.81415027216E+01  0.10500000000E+00 0. -1.
    3000001    1    5    5    0    0  0.79230453270E+01  0.37212969966E+01  0.65534896287E+01  0.10980479266E+02  0.10000000000E+01 0.  1.
        -13    1    6    6    0    0  0.28382169391E+02  0.77002737853E+00  0.13082665331E+02  0.31261919945E+02  0.10500000000E+00 0.  1.
         13    1    6    6    0    0  0.18394234135E+02  0.39626761022E+00  0.84766932651E+01  0.20257596875E+02  0.10500000000E+00 0. -1.
</event>
<event>
11    0  0.3439373E-009  0.9118800E+02  0.7816531E-02  0.1126479E+00
         25   -1    0    0    0    0  0.00000000000E+00  0.00000000000E+00  0.99999998245E-14  0.12500000000E+03  0.12500000000E+03 0.  0.
    3000001    1    3    3    0    0 -0.69645090809E+01  0.11508254635E+02 -0.37841478635E+02  0.40173645798E+02  0.10000000000E+01 0. -1.
    1000022    2    1    0    0    0 -0.80802217621E+01  0.11164050949E+02 -0.60135879470E+02  0.62500000121E+02  0.99999999097E+01 0.  0.
    3000022    2    3    3    0    0 -0.11157126812E+01 -0.34420368523E+00 -0.22294400836E+02  0.22326354323E+02  0.24999555751E+00 0.  0.
    1000022    2    1    0    0    0  0.80802217621E+01 -0.11164050949E+02  0.60135879470E+02  0.62499999879E+02  0.99999983933E+01 0.  0.
    3000022    2    5    5    0    0  0.11101348729E+00  0.17752625809E+01  0.60842368035E+01  0.63438409100E+01  0.24999756833E+00 0.  0.
        -13    1    4    4    0    0 -0.46560410437E+00 -0.97375865436E-01 -0.99950423958E+01  0.10006905952E+02  0.10500000000E+00 0.  1.
         13    1    4    4    0    0 -0.65010857678E+00 -0.24682781980E+00 -0.12299358440E+02  0.12319448371E+02  0.10500000000E+00 0. -1.
    3000001    1    5    5    0    0  0.79692082748E+01 -0.12939313530E+02  0.54051642667E+02  0.56156158969E+02  0.10000000000E+01 0. -1.
        -13    1    6    6    0    0 -0.17105965430E-01  0.64692781977E+00  0.21794872449E+01  0.22759608671E+01  0.10500000000E+00 0. -1.
         13    1    6    6    0    0  0.12811945272E+00  0.11283347611E+01  0.39047495587E+01  0.40678800429E+01  0.10500000000E+00 0.  1.
</event>
<event>
11    0  0.3439373E-009  0.9118800E+02  0.7816531E-02  0.1126479E+00
         25   -1    0    0    0    0  0.00000000000E+00  0.00000000000E+00  0.99999998245E-14  0.12500000000E+03  0.12500000000E+03 0.  0.
    3000001    1    3    3    0    0  0.93992043644E+01  0.74030985280E+01  0.96088284392E+01  0.15377922307E+02  0.10000000000E+01 0.  1.
    1000022    2    1    0    0    0  0.24735479412E+02  0.40688716225E+02  0.39227980608E+02  0.62500001571E+02  0.10000008201E+02 0.  0.
    3000022    2    3    3    0    0  0.15336275047E+02  0.33285617697E+02  0.29619152169E+02  0.47122079264E+02  0.25000235536E+00 0.  0.
    1000022    2    1    0    0    0 -0.24735479412E+02 -0.40688716225E+02 -0.39227980608E+02  0.62499998429E+02  0.99999885668E+01 0.  0.
    3000022    2    5    5    0    0 -0.16277155815E+02 -0.34222387998E+02 -0.29222777991E+02  0.47855521033E+02  0.24999623341E+00 0.  0.
        -13    1    4    4    0    0  0.98956394374E+01  0.21586977298E+02  0.19148679234E+02  0.30505806171E+02  0.10500000000E+00 0. -1.
         13    1    4    4    0    0  0.54406356099E+01  0.11698640399E+02  0.10470472934E+02  0.16616273093E+02  0.10500000000E+00 0.  1.
    3000001    1    5    5    0    0 -0.84583235970E+01 -0.64663282268E+01 -0.10005202617E+02  0.14644477396E+02  0.10000000000E+01 0. -1.
        -13    1    6    6    0    0 -0.64710757178E+01 -0.13571774153E+02 -0.11671543764E+02  0.19034280481E+02  0.10500000000E+00 0.  1.
         13    1    6    6    0    0 -0.98060800969E+01 -0.20650613845E+02 -0.17551234227E+02  0.28821240552E+02  0.10500000000E+00 0. -1.
</event>
<event>
11    0  0.3439373E-009  0.9118800E+02  0.7816531E-02  0.1126479E+00
         25   -1    0    0    0    0  0.00000000000E+00  0.00000000000E+00  0.99999998245E-14  0.12500000000E+03  0.12500000000E+03 0.  0.
    3000001    1    3    3    0    0  0.69964060781E+01 -0.56332269755E+02  0.85954701590E+01  0.57420870953E+02  0.10000000000E+01 0. -1.
    1000022    2    1    0    0    0  0.57760931146E+01 -0.61015176306E+02  0.70735378923E+01  0.62500000202E+02  0.10000004782E+02 0.  0.
    3000022    2    3    3    0    0 -0.12203129635E+01 -0.46829065510E+01 -0.15219322667E+01  0.50791292490E+01  0.24999721941E+00 0.  0.
    1000022    2    1    0    0    0 -0.57760931146E+01  0.61015176306E+02 -0.70735378923E+01  0.62499999798E+02  0.10000002252E+02 0.  0.
    3000022    2    5    5    0    0 -0.82421392390E+01  0.38627226611E+02 -0.57700111713E+01  0.39916801243E+02  0.24999533883E+00 0.  0.
        -13    1    4    4    0    0 -0.46681044965E+00 -0.20499768252E+01 -0.65193438779E+00  0.22037151417E+01  0.10500000000E+00 0.  1.
         13    1    4    4    0    0 -0.75350251387E+00 -0.26329297258E+01 -0.86999787891E+00  0.28754141073E+01  0.10500000000E+00 0. -1.
    3000001    1    5    5    0    0  0.24660461244E+01  0.22387949695E+02 -0.13035267210E+01  0.22583198554E+02  0.10000000000E+01 0.  1.
        -13    1    6    6    0    0 -0.51384998176E+01  0.24358281375E+02 -0.36514165756E+01  0.25160960235E+02  0.10500000000E+00 0.  1.
         13    1    6    6    0    0 -0.31036394214E+01  0.14268945236E+02 -0.21185945957E+01  0.14755841008E+02  0.10500000000E+00 0. -1.
</event>
<event>
11    0  0.3439373E-009  0.9118800E+02  0.7816531E-02  0.1126479E+00
         25   -1    0    0    0    0  0.00000000000E+00  0.00000000000E+00  0.99999998245E-14  0.12500000000E+03  0.12500000000E+03 0.  0.
    3000001    1    3    3    0    0 -0.95588805559E-01 -0.30252430242E+02 -0.32421010199E+02  0.44354713110E+02  0.10000000000E+01 0.  1.
    1000022    2    1    0    0    0  0.39068477686E+01 -0.38395755725E+02 -0.48132653438E+02  0.62500001255E+02  0.10000015633E+02 0.  0.
    3000022    2    3    3    0    0  0.40024365741E+01 -0.81433254832E+01 -0.15711643239E+02  0.18145288144E+02  0.25000024388E+00 0.  0.
    1000022    2    1    0    0    0 -0.39068477686E+01  0.38395755725E+02  0.48132653438E+02  0.62499998745E+02  0.99999999510E+01 0.  0.
    3000022    2    5    5    0    0  0.12403903833E+01  0.31644252591E+01  0.87949002045E+01  0.94321220549E+01  0.25000265411E+00 0.  0.
        -13    1    4    4    0    0  0.23323271418E+01 -0.46073974071E+01 -0.89893850982E+01  0.10367638603E+02  0.10500000000E+00 0.  1.
         13    1    4    4    0    0  0.16701094323E+01 -0.35359280760E+01 -0.67222581407E+01  0.77776495411E+01  0.10500000000E+00 0. -1.
    3000001    1    5    5    0    0 -0.51472381518E+01  0.35231330466E+02  0.39337753233E+02  0.53067876691E+02  0.10000000000E+01 0. -1.
        -13    1    6    6    0    0  0.61875547640E+00  0.16585873768E+01  0.44103005538E+01  0.47534772957E+01  0.10500000000E+00 0.  1.
         13    1    6    6    0    0  0.62163490685E+00  0.15058378823E+01  0.43845996507E+01  0.46786447592E+01  0.10500000000E+00 0. -1.
</event>
<event>
11    0  0.3439373E-009  0.9118800E+02  0.7816531E-02  0.1126479E+00
         25   -1    0    0    0    0  0.00000000000E+00  0.00000000000E+00  0.99999998245E-14  0.12500000000E+03  0.12500000000E+03 0.  0.
    3000001    1    3    3    0    0 -0.15432112354E+01  0.64994327487E+01 -0.15187083118E+01  0.69231930428E+01  0.10000000000E+01 0. -1.
    1000022    2    1    0    0    0 -0.34971769190E+02  0.50808929635E+02  0.12953679158E+01  0.62500000310E+02  0.10000004486E+02 0.  0.
    3000022    2    3    3    0    0 -0.33428557955E+02  0.44309496887E+02  0.28140762276E+01  0.55576807267E+02  0.24995940495E+00 0.  0.
    1000022    2    1    0    0    0  0.34971769190E+02 -0.50808929635E+02 -0.12953679158E+01  0.62499999690E+02  0.10000000611E+02 0.  0.
    3000022    2    5    5    0    0  0.76796303310E+01 -0.17227737498E+02 -0.33854761375E+01  0.19164957735E+02  0.24998995600E+00 0.  0.
        -13    1    4    4    0    0 -0.25119957233E+02  0.33330624946E+02  0.21303727347E+01  0.41791055546E+02  0.10500000000E+00 0.  1.
         13    1    4    4    0    0 -0.83086007217E+01  0.10978871941E+02  0.68370349286E+00  0.13785751721E+02  0.10500000000E+00 0. -1.
    3000001    1    5    5    0    0  0.27292138859E+02 -0.33581192137E+02  0.20901082217E+01  0.43335041955E+02  0.10000000000E+01 0.  1.
        -13    1    6    6    0    0  0.55680952610E+01 -0.12579433003E+02 -0.24727875867E+01  0.13977536370E+02  0.10500000000E+00 0. -1.
         13    1    6    6    0    0  0.21115350700E+01 -0.46483044950E+01 -0.91268855080E+00  0.51874213653E+01  0.10500000000E+00 0.  1.
</event>
<event>
11    0  0.3439373E-009  0.9118800E+02  0.7816531E-02  0.1126479E+00
         25   -1    0    0    0    0  0.00000000000E+00  0.00000000000E+00  0.99999998245E-14  0.12500000000E+03  0.12500000000E+03 0.  0.
    3000001    1    3    3    0    0  0.30818598847E+01 -0.27823684310E+02 -0.23895136205E+00  0.28012717945E+02  0.10000000000E+01 0. -1.
    1000022    2    1    0    0    0  0.97972089010E+01 -0.59932119673E+02 -0.10881442468E+02  0.62500000397E+02  0.99999994341E+01 0.  0.
    3000022    2    3    3    0    0  0.67153490164E+01 -0.32108435363E+02 -0.10642491106E+02  0.34487282452E+02  0.25000017554E+00 0.  0.
    1000022    2    1    0    0    0 -0.97972089010E+01  0.59932119673E+02  0.10881442468E+02  0.62499999603E+02  0.99999944706E+01 0.  0.
    3000022    2    5    5    0    0 -0.10139939214E+01  0.35998600046E+01 -0.16857345643E+01  0.41099124023E+01  0.25000641495E+00 0.  0.
        -13    1    4    4    0    0  0.32030656039E+01 -0.15606612052E+02 -0.52024653564E+01  0.16760150351E+02  0.10500000000E+00 0.  1.
         13    1    4    4    0    0  0.35122834125E+01 -0.16501823311E+02 -0.54400257492E+01  0.17727132101E+02  0.10500000000E+00 0. -1.
    3000001    1    5    5    0    0 -0.87832149796E+01  0.56332259669E+02  0.12567177032E+02  0.58390087201E+02  0.10000000000E+01 0. -1.
        -13    1    6    6    0    0 -0.45525938391E+00  0.17745917414E+01 -0.76811557219E+00  0.19893374494E+01  0.10500000000E+00 0. -1.
         13    1    6    6    0    0 -0.55873453750E+00  0.18252682632E+01 -0.91761899208E+00  0.21205749529E+01  0.10500000000E+00 0.  1.
</event>
<event>
11    0  0.3439373E-009  0.9118800E+02  0.7816531E-02  0.1126479E+00
         25   -1    0    0    0    0  0.00000000000E+00  0.00000000000E+00  0.99999998245E-14  0.12500000000E+03  0.12500000000E+03 0.  0.
    3000001    1    3    3    0    0 -0.28264091250E+02  0.63410110089E+01  0.38705199562E+02  0.48354521484E+02  0.10000000000E+01 0. -1.
    1000022    2    1    0    0    0 -0.35155526686E+02  0.30420347274E+01  0.50607168312E+02  0.62499997373E+02  0.99999577552E+01 0.  0.
    3000022    2    3    3    0    0 -0.68914354363E+01 -0.32989762815E+01  0.11901968751E+02  0.14145475889E+02  0.25000220815E+00 0.  0.
    1000022    2    1    0    0    0  0.35155526686E+02 -0.30420347274E+01 -0.50607168312E+02  0.62500002627E+02  0.99999905958E+01 0.  0.
    3000022    2    5    5    0    0  0.47671957329E+01  0.26227577254E+01 -0.10745437283E+02  0.12047072759E+02  0.25005280200E+00 0.  0.
        -13    1    4    4    0    0 -0.33673939215E+01 -0.16477678060E+01  0.57295865921E+01  0.68478951570E+01  0.10500000000E+00 0. -1.
         13    1    4    4    0    0 -0.35240415148E+01 -0.16512084755E+01  0.61723821585E+01  0.72975807318E+01  0.10500000000E+00 0.  1.
    3000001    1    5    5    0    0  0.30388330953E+02 -0.56647924529E+01 -0.39861731029E+02  0.50452929869E+02  0.10000000000E+01 0.  1.
        -13    1    6    6    0    0  0.30127593029E+01  0.16894570980E+01 -0.67035068100E+01  0.75418175829E+01  0.10500000000E+00 0. -1.
         13    1    6    6    0    0  0.17544364300E+01  0.93330062748E+00 -0.40419304731E+01  0.45052551756E+01  0.10500000000E+00 0.  1.
</event>
<event>
11    0  0.3439373E-009  0.9118800E+02  0.7816531E-02  0.1126479E+00
         25   -1    0    0    0    0  0.00000000000E+00  0.00000000000E+00  0.99999998245E-14  0.12500000000E+03  0.12500000000E+03 0.  0.
    3000001    1    3    3    0    0  0.32230399575E+02  0.11798532462E+01 -0.21774562067E+02  0.38927140451E+02  0.10000000000E+01 0.  1.
    1000022    2    1    0    0    0  0.54949392969E+02  0.23021854805E+01 -0.27955575117E+02  0.62500000114E+02  0.99999994238E+01 0.  0.
    3000022    2    3    3    0    0  0.22718993395E+02  0.11223322344E+01 -0.61810130493E+01  0.23572859664E+02  0.24999979289E+00 0.  0.
    1000022    2    1    0    0    0 -0.54949392969E+02 -0.23021854805E+01  0.27955575117E+02  0.62499999886E+02  0.99999979973E+01 0.  0.
    3000022    2    5    5    0    0 -0.12988243327E+02 -0.30801128976E+01  0.30743105790E+01  0.13700198909E+02  0.25000886620E+00 0.  0.
        -13    1    4    4    0    0  0.15233474348E+02  0.80049857527E+00 -0.41221323014E+01  0.15801978939E+02  0.10500000000E+00 0. -1.
         13    1    4    4    0    0  0.74855190465E+01  0.32183365908E+00 -0.20588807478E+01  0.77708807245E+01  0.10500000000E+00 0.  1.
    3000001    1    5    5    0    0 -0.41961149643E+02  0.77792741705E+00  0.24881264537E+02  0.48799800977E+02  0.10000000000E+01 0. -1.
        -13    1    6    6    0    0 -0.43092813269E+01 -0.98620099922E+00  0.97709438740E+00  0.45286020367E+01  0.10500000000E+00 0. -1.
         13    1    6    6    0    0 -0.86789619996E+01 -0.20939118984E+01  0.20972161916E+01  0.91715968721E+01  0.10500000000E+00 0.  1.
</event>
<event>
11    0  0.3439373E-009  0.9118800E+02  0.7816531E-02  0.1126479E+00
         25   -1    0    0    0    0  0.00000000000E+00  0.00000000000E+00  0.99999998245E-14  0.12500000000E+03  0.12500000000E+03 0.  0.
    3000001    1    3    3    0    0 -0.22165937241E+02 -0.18072561411E+02 -0.49120315241E+02  0.56848497070E+02  0.10000000000E+01 0. -1.
    1000022    2    1    0    0    0 -0.26590994423E+02 -0.20279940691E+02 -0.51844900049E+02  0.62500002180E+02  0.99999816287E+01 0.  0.
    3000022    2    3    3    0    0 -0.44250571827E+01 -0.22073792799E+01 -0.27245848082E+01  0.56515051106E+01  0.24998656362E+00 0.  0.
    1000022    2    1    0    0    0  0.26590994423E+02  0.20279940691E+02  0.51844900049E+02  0.62499997820E+02  0.99999543758E+01 0.  0.
    3000022    2    5    5    0    0  0.10029848655E+02  0.20458754416E+01  0.14449057011E+02  0.17709354140E+02  0.25001040419E+00 0.  0.
        -13    1    4    4    0    0 -0.16666149184E+01 -0.83220541801E+00 -0.95826614400E+00  0.20974913937E+01  0.10500000000E+00 0.  1.
         13    1    4    4    0    0 -0.27584422643E+01 -0.13751738619E+01 -0.17663186642E+01  0.35540137169E+01  0.10500000000E+00 0. -1.
    3000001    1    5    5    0    0  0.16561145769E+02  0.18234065250E+02  0.37395843038E+02  0.44790643679E+02  0.10000000000E+01 0.  1.
        -13    1    6    6    0    0  0.60566120523E+01  0.12464420602E+01  0.88341307465E+01  0.10783740465E+02  0.10500000000E+00 0.  1.
         13    1    6    6    0    0  0.39732366022E+01  0.79943338141E+00  0.56149262646E+01  0.69256136757E+01  0.10500000000E+00 0. -1.
</event>
<event>
11    0  0.3439373E-009  0.9118800E+02  0.7816531E-02  0.1126479E+00
         25   -1    0    0    0    0  0.00000000000E+00  0.00000000000E+00  0.99999998245E-14  0.12500000000E+03  0.12500000000E+03 0.  0.
    3000001    1    3    3    0    0  0.10892805267E+02  0.11756588529E+02  0.87330467766E+01  0.18279406074E+02  0.10000000000E+01 0. -1.
    1000022    2    1    0    0    0  0.34306687326E+02  0.30452821294E+02  0.41254415403E+02  0.62499999792E+02  0.10000003181E+02 0.  0.
    3000022    2    3    3    0    0  0.23413882059E+02  0.18696232765E+02  0.32521368627E+02  0.44220593717E+02  0.24999735090E+00 0.  0.
    1000022    2    1    0    0    0 -0.34306687326E+02 -0.30452821294E+02 -0.41254415403E+02  0.62500000208E+02  0.10000005787E+02 0.  0.
    3000022    2    5    5    0    0 -0.21788889771E+02 -0.16409061427E+02 -0.30034108714E+02  0.40572443823E+02  0.24999434213E+00 0.  0.
        -13    1    4    4    0    0  0.14644162357E+02  0.11687733733E+02  0.20424737946E+02  0.27717062545E+02  0.10500000000E+00 0.  1.
         13    1    4    4    0    0  0.87697197022E+01  0.70084990316E+01  0.12096630681E+02  0.16503531173E+02  0.10500000000E+00 0. -1.
    3000001    1    5    5    0    0 -0.12517797555E+02 -0.14043759867E+02 -0.11220306689E+02  0.21927556385E+02  0.10000000000E+01 0.  1.
        -13    1    6    6    0    0 -0.14602470735E+02 -0.11054460966E+02 -0.20127742042E+02  0.27213421018E+02  0.10500000000E+00 0.  1.
         13    1    6    6    0    0 -0.71864190354E+01 -0.53546004610E+01 -0.99063666727E+01  0.13359022805E+02  0.10500000000E+00 0. -1.
</event>
<event>
11    0  0.3439373E-009  0.9118800E+02  0.7816531E-02  0.1126479E+00
         25   -1    0    0    0    0  0.00000000000E+00  0.00000000000E+00  0.99999998245E-14  0.12500000000E+03  0.12500000000E+03 0.  0.
    3000001    1    3    3    0    0 -0.53856481868E+02  0.66326731135E+01  0.95124721034E+01  0.55099910321E+02  0.10000000000E+01 0.  1.
    1000022    2    1    0    0    0 -0.59573437725E+02  0.76636892725E+01  0.14089834546E+02  0.62499999599E+02  0.99999948322E+01 0.  0.
    3000022    2    3    3    0    0 -0.57169558574E+01  0.10310161589E+01  0.45773624426E+01  0.74000892782E+01  0.24999159866E+00 0.  0.
    1000022    2    1    0    0    0  0.59573437725E+02 -0.76636892725E+01 -0.14089834546E+02  0.62500000401E+02  0.99999998469E+01 0.  0.
    3000022    2    5    5    0    0  0.45803061069E+02 -0.35395776585E+01 -0.14217503273E+02  0.48090008410E+02  0.24999265371E+00 0.  0.
        -13    1    4    4    0    0 -0.22186024615E+01  0.33775680315E+00  0.17749782213E+01  0.28631886466E+01  0.10500000000E+00 0.  1.
         13    1    4    4    0    0 -0.34983533959E+01  0.69325935578E+00  0.28023842214E+01  0.45369006316E+01  0.10500000000E+00 0. -1.
    3000001    1    5    5    0    0  0.13770376657E+02 -0.41241116139E+01  0.12766872730E+00  0.14409991991E+02  0.10000000000E+01 0.  1.
        -13    1    6    6    0    0  0.20955164221E+02 -0.16856054994E+01 -0.65179679747E+01  0.22010340864E+02  0.10500000000E+00 0.  1.
         13    1    6    6    0    0  0.24847896848E+02 -0.18539721592E+01 -0.76995352987E+01  0.26079667547E+02  0.10500000000E+00 0. -1.
</event>
<event>
11    0  0.3439373E-009  0.9118800E+02  0.7816531E-02  0.1126479E+00
         25   -1    0    0    0    0  0.00000000000E+00  0.00000000000E+00  0.99999998245E-14  0.12500000000E+03  0.12500000000E+03 0.  0.
    3000001    1    3    3    0    0  0.10373205576E+01  0.23586668279E+02  0.40486300065E+02  0.46878006010E+02  0.10000000000E+01 0.  1.
    1000022    2    1    0    0    0  0.39073435394E+01  0.35228827955E+02  0.50496653623E+02  0.62499997075E+02  0.99999977325E+01 0.  0.
    3000022    2    3    3    0    0  0.28700229817E+01  0.11642159676E+02  0.10010353558E+02  0.15621991066E+02  0.25002533786E+00 0.  0.
    1000022    2    1    0    0    0 -0.39073435394E+01 -0.35228827955E+02 -0.50496653623E+02  0.62500002925E+02  0.10000034291E+02 0.  0.
    3000022    2    5    5    0    0  0.24515208579E+01 -0.13597097878E+02 -0.14638887095E+02  0.20130835799E+02  0.25001872029E+00 0.  0.
        -13    1    4    4    0    0  0.21389937776E+01  0.86181798274E+01  0.73754296168E+01  0.11543669475E+02  0.10500000000E+00 0.  1.
         13    1    4    4    0    0  0.73102920418E+00  0.30239798485E+01  0.26349239409E+01  0.40783215905E+01  0.10500000000E+00 0. -1.
    3000001    1    5    5    0    0 -0.63588643973E+01 -0.21631730077E+02 -0.35857766528E+02  0.42369167126E+02  0.10000000000E+01 0.  1.
        -13    1    6    6    0    0  0.13367874934E+01 -0.70409910987E+01 -0.76132025583E+01  0.10456310757E+02  0.10500000000E+00 0.  1.
         13    1    6    6    0    0  0.11147333645E+01 -0.65561067792E+01 -0.70256845367E+01  0.96745250418E+01  0.10500000000E+00 0. -1.
</event>
<event>
11    0  0.3439373E-009  0.9118800E+02  0.7816531E-02  0.1126479E+00
         25   -1    0    0    0    0  0.00000000000E+00  0.00000000000E+00  0.99999998245E-14  0.12500000000E+03  0.12500000000E+03 0.  0.
    3000001    1    3    3    0    0  0.32587149133E+02  0.28962862423E+02 -0.44149419778E+02  0.62055950199E+02  0.10000000000E+01 0. -1.
    1000022    2    1    0    0    0  0.32329754451E+02  0.28778007178E+02 -0.43964339399E+02  0.62499998722E+02  0.99999990766E+01 0.  0.
    3000022    2    3    3    0    0 -0.25739468295E+00 -0.18485524466E+00  0.18508037907E+00  0.44404852331E+00  0.25000172009E+00 0.  0.
    1000022    2    1    0    0    0 -0.32329754451E+02 -0.28778007178E+02  0.43964339399E+02  0.62500001278E+02  0.10000015045E+02 0.  0.
    3000022    2    5    5    0    0 -0.27701718231E+02 -0.25239970708E+02  0.32518581648E+02  0.49618161665E+02  0.25000055901E+00 0.  0.
        -13    1    4    4    0    0 -0.60430343859E-01 -0.11833172601E+00  0.96154583684E-01  0.19474323558E+00  0.10500000000E+00 0. -1.
         13    1    4    4    0    0 -0.19696433909E+00 -0.66523518650E-01  0.88925795385E-01  0.24930528773E+00  0.10500000000E+00 0.  1.
    3000001    1    5    5    0    0 -0.46280362195E+01 -0.35380364698E+01  0.11445757751E+02  0.12881839613E+02  0.10000000000E+01 0.  1.
        -13    1    6    6    0    0 -0.17210470363E+02 -0.15751714487E+02  0.20284633349E+02  0.30915921052E+02  0.10500000000E+00 0. -1.
         13    1    6    6    0    0 -0.10491247868E+02 -0.94882562214E+01  0.12233948299E+02  0.18702240613E+02  0.10500000000E+00 0.  1.
</event>
<event>
11    0  0.3439373E-009  0.9118800E+02  0.7816531E-02  0.1126479E+00
         25   -1    0    0    0    0  0.00000000000E+00  0.00000000000E+00  0.99999998245E-14  0.12500000000E+03  0.12500000000E+03 0.  0.
    3000001    1    3    3    0    0 -0.16223116901E+02 -0.50456490929E+01 -0.34315365539E+02  0.38303947693E+02  0.10000000000E+01 0.  1.
    1000022    2    1    0    0    0 -0.19793009659E+02 -0.47156213304E+01 -0.58243032019E+02  0.62499996250E+02  0.99999218287E+01 0.  0.
    3000022    2    3    3    0    0 -0.35698927575E+01  0.33002776257E+00 -0.23927666479E+02  0.24196048557E+02  0.24997996625E+00 0.  0.
    1000022    2    1    0    0    0  0.19793009659E+02  0.47156213304E+01  0.58243032019E+02  0.62500003750E+02  0.99999687070E+01 0.  0.
    3000022    2    5    5    0    0  0.14446829500E+02  0.20343087413E+01  0.51037775572E+02  0.53082636817E+02  0.25000289655E+00 0.  0.
        -13    1    4    4    0    0 -0.14364497017E+01  0.69445829514E-01 -0.95845151010E+01  0.96923766534E+01  0.10500000000E+00 0.  1.
         13    1    4    4    0    0 -0.21334430557E+01  0.26058193306E+00 -0.14343151378E+02  0.14503671903E+02  0.10500000000E+00 0. -1.
    3000001    1    5    5    0    0  0.53461801586E+01  0.26813125891E+01  0.72052564468E+01  0.94173669331E+01  0.10000000000E+01 0. -1.
        -13    1    6    6    0    0  0.64302638005E+01  0.95615428329E+00  0.22583969034E+02  0.23501259666E+02  0.10500000000E+00 0. -1.
         13    1    6    6    0    0  0.80165656997E+01  0.10781544580E+01  0.28453806538E+02  0.29581377152E+02  0.10500000000E+00 0.  1.
</event>
<event>
11    0  0.3439373E-009  0.9118800E+02  0.7816531E-02  0.1126479E+00
         25   -1    0    0    0    0  0.00000000000E+00  0.00000000000E+00  0.99999998245E-14  0.12500000000E+03  0.12500000000E+03 0.  0.
    3000001    1    3    3    0    0 -0.49527983800E+02  0.10219236045E+02 -0.73253907582E+01  0.51108857495E+02  0.10000000000E+01 0. -1.
    1000022    2    1    0    0    0 -0.60506289696E+02  0.78182457433E+01 -0.91713745688E+01  0.62499999143E+02  0.99999861063E+01 0.  0.
    3000022    2    3    3    0    0 -0.10978305895E+02 -0.24009903021E+01 -0.18459838106E+01  0.11391141648E+02  0.24999409868E+00 0.  0.
    1000022    2    1    0    0    0  0.60506289696E+02 -0.78182457433E+01  0.91713745688E+01  0.62500000857E+02  0.99999968201E+01 0.  0.
    3000022    2    5    5    0    0  0.20169802977E+02 -0.56060376653E+01 -0.52887589226E+00  0.20942560074E+02  0.25000465371E+00 0.  0.
        -13    1    4    4    0    0 -0.66848940017E+01 -0.15254346864E+01 -0.11246271967E+01  0.69491416829E+01  0.10500000000E+00 0.  1.
         13    1    4    4    0    0 -0.42934118936E+01 -0.87555561574E+00 -0.72135661388E+00  0.44419999650E+01  0.10500000000E+00 0. -1.
    3000001    1    5    5    0    0  0.40336486719E+02 -0.22122080780E+01  0.97002504610E+01  0.41557440783E+02  0.10000000000E+01 0. -1.
        -13    1    6    6    0    0  0.10134757430E+02 -0.27595316993E+01 -0.30471242246E+00  0.10508672515E+02  0.10500000000E+00 0.  1.
         13    1    6    6    0    0  0.10035045547E+02 -0.28465059660E+01 -0.22416346979E+00  0.10433887560E+02  0.10500000000E+00 0. -1.
</event>
<event>
11    0  0.3439373E-009  0.9118800E+02  0.7816531E-02  0.1126479E+00
         25   -1    0    0    0    0  0.00000000000E+00  0.00000000000E+00  0.99999998245E-14  0.12500000000E+03  0.12500000000E+03 0.  0.
    3000001    1    3    3    0    0  0.14021291922E+02  0.23261019658E+02 -0.30331685575E+01  0.27347244362E+02  0.10000000000E+01 0. -1.
    1000022    2    1    0    0    0  0.39664258438E+02  0.45978373059E+02 -0.10908055778E+02  0.62499999930E+02  0.10000006194E+02 0.  0.
    3000022    2    3    3    0    0  0.25642966516E+02  0.22717353401E+02 -0.78748872209E+01  0.35152755569E+02  0.24999610436E+00 0.  0.
    1000022    2    1    0    0    0 -0.39664258438E+02 -0.45978373059E+02  0.10908055778E+02  0.62500000070E+02  0.10000007064E+02 0.  0.
    3000022    2    5    5    0    0 -0.49412552213E+00 -0.13756958722E+01 -0.12012674328E+01  0.19084673816E+01  0.25001027381E+00 0.  0.
        -13    1    4    4    0    0  0.15833326792E+02  0.13965840794E+02 -0.48111368259E+01  0.21654029855E+02  0.10500000000E+00 0.  1.
         13    1    4    4    0    0  0.98096397237E+01  0.87515126068E+01 -0.30637503950E+01  0.13498725714E+02  0.10500000000E+00 0. -1.
    3000001    1    5    5    0    0 -0.39170132916E+02 -0.44602677187E+02  0.12109323211E+02  0.60591532688E+02  0.10000000000E+01 0.  1.
        -13    1    6    6    0    0 -0.23917194063E+00 -0.61091380480E+00 -0.45833058112E+00  0.80716219911E+00  0.10500000000E+00 0.  1.
         13    1    6    6    0    0 -0.25495358150E+00 -0.76478206738E+00 -0.74293685167E+00  0.11013051824E+01  0.10500000000E+00 0. -1.
</event>
<event>
11    0  0.3439373E-009  0.9118800E+02  0.7816531E-02  0.1126479E+00
         25   -1    0    0    0    0  0.00000000000E+00  0.00000000000E+00  0.99999998245E-14  0.12500000000E+03  0.12500000000E+03 0.  0.
    3000001    1    3    3    0    0 -0.81383596812E+01  0.17454903566E+02  0.24878956471E+02  0.31478072239E+02  0.10000000000E+01 0. -1.
    1000022    2    1    0    0    0 -0.25109547176E+02  0.31835563385E+02  0.46500095600E+02  0.62500011903E+02  0.10000007081E+02 0.  0.
    3000022    2    3    3    0    0 -0.16971187495E+02  0.14380659818E+02  0.21621139129E+02  0.31021939663E+02  0.25000289938E+00 0.  0.
    1000022    2    1    0    0    0  0.25109547176E+02 -0.31835563385E+02 -0.46500095600E+02  0.62499988097E+02  0.99998582969E+01 0.  0.
    3000022    2    5    5    0    0  0.95989167750E+01 -0.94818551610E+01 -0.22341343995E+02  0.26100630879E+02  0.25000047924E+00 0.  0.
        -13    1    4    4    0    0 -0.84420409119E+01  0.71615434508E+01  0.10854375281E+02  0.15504329947E+02  0.10500000000E+00 0. -1.
         13    1    4    4    0    0 -0.85291465830E+01  0.72191163676E+01  0.10766763848E+02  0.15517609716E+02  0.10500000000E+00 0.  1.
    3000001    1    5    5    0    0  0.15510630401E+02 -0.22353708224E+02 -0.24158751605E+02  0.36399357218E+02  0.10000000000E+01 0. -1.
        -13    1    6    6    0    0  0.37068665096E+01 -0.36312042998E+01 -0.87042052170E+01  0.10134136246E+02  0.10500000000E+00 0.  1.
         13    1    6    6    0    0  0.58920502653E+01 -0.58506508612E+01 -0.13637138778E+02  0.15966494633E+02  0.10500000000E+00 0. -1.
</event>
<event>
11    0  0.3439373E-009  0.9118800E+02  0.7816531E-02  0.1126479E+00
         25   -1    0    0    0    0  0.00000000000E+00  0.00000000000E+00  0.99999998245E-14  0.12500000000E+03  0.12500000000E+03 0.  0.
    3000001    1    3    3    0    0  0.19282411377E+02 -0.82849697624E+01  0.35697223798E+01  0.21311851875E+02  0.10000000000E+01 0.  1.
    1000022    2    1    0    0    0  0.50832627462E+02 -0.34760530062E+02  0.37416061666E+01  0.62499999088E+02  0.99999902199E+01 0.  0.
    3000022    2    3    3    0    0  0.31550216085E+02 -0.26475560299E+02  0.17188378673E+00  0.41188147213E+02  0.24999721771E+00 0.  0.
    1000022    2    1    0    0    0 -0.50832627462E+02  0.34760530062E+02 -0.37416061666E+01  0.62500000912E+02  0.10000001623E+02 0.  0.
    3000022    2    5    5    0    0 -0.67753315759E+01  0.89425961107E+01 -0.19766908585E+01  0.11394952626E+02  0.24999087345E+00 0.  0.
        -13    1    4    4    0    0  0.21362099028E+02 -0.17885609457E+02  0.75159772127E-01  0.27861280920E+02  0.10500000000E+00 0.  1.
         13    1    4    4    0    0  0.10188117058E+02 -0.85899508425E+01  0.96724014600E-01  0.13326866293E+02  0.10500000000E+00 0. -1.
    3000001    1    5    5    0    0 -0.44057295886E+02  0.25817933951E+02 -0.17649153081E+01  0.51105048286E+02  0.10000000000E+01 0. -1.
        -13    1    6    6    0    0 -0.38652299211E+01  0.50602672642E+01 -0.11834814676E+01  0.64774964695E+01  0.10500000000E+00 0.  1.
         13    1    6    6    0    0 -0.29101016547E+01  0.38823288465E+01 -0.79320939086E+00  0.49174561565E+01  0.10500000000E+00 0. -1.
</event>
<event>
11    0  0.3439373E-009  0.9118800E+02  0.7816531E-02  0.1126479E+00
         25   -1    0    0    0    0  0.00000000000E+00  0.00000000000E+00  0.99999998245E-14  0.12500000000E+03  0.12500000000E+03 0.  0.
    3000001    1    3    3    0    0  0.15734661779E+02 -0.17276606119E+02  0.51857261079E+02  0.56887926899E+02  0.10000000000E+01 0.  1.
    1000022    2    1    0    0    0  0.14574025200E+02 -0.17499307637E+02  0.57337789104E+02  0.62499999747E+02  0.99999965397E+01 0.  0.
    3000022    2    3    3    0    0 -0.11606365787E+01 -0.22270151794E+00  0.54805280248E+01  0.56120728480E+01  0.25000197390E+00 0.  0.
    1000022    2    1    0    0    0 -0.14574025200E+02  0.17499307637E+02 -0.57337789104E+02  0.62500000253E+02  0.99999996963E+01 0.  0.
    3000022    2    5    5    0    0 -0.13977588354E+02  0.11367753400E+02 -0.35837509776E+02  0.40112197648E+02  0.24999930350E+00 0.  0.
        -13    1    4    4    0    0 -0.47954171139E+00 -0.15362789452E+00  0.24485927128E+01  0.25020377807E+01  0.10500000000E+00 0.  1.
         13    1    4    4    0    0 -0.68109486730E+00 -0.69073623425E-01  0.30319353120E+01  0.31100350673E+01  0.10500000000E+00 0. -1.
    3000001    1    5    5    0    0 -0.59643684567E+00  0.61315542366E+01 -0.21500279328E+02  0.22387802604E+02  0.10000000000E+01 0. -1.
        -13    1    6    6    0    0 -0.89000777741E+01  0.72117964367E+01 -0.22662517682E+02  0.25393348044E+02  0.10500000000E+00 0. -1.
         13    1    6    6    0    0 -0.50775105801E+01  0.41559569633E+01 -0.13174992095E+02  0.14718849604E+02  0.10500000000E+00 0.  1.
</event>
<event>
11    0  0.3439373E-009  0.9118800E+02  0.7816531E-02  0.1126479E+00
         25   -1    0    0    0    0  0.00000000000E+00  0.00000000000E+00  0.99999998245E-14  0.12500000000E+03  0.12500000000E+03 0.  0.
    3000001    1    3    3    0    0 -0.56148105969E+01  0.17871344882E+01  0.20434167746E+01  0.63162884539E+01  0.10000000000E+01 0.  1.
    1000022    2    1    0    0    0 -0.54546165362E+02 -0.97402306920E+01  0.27131049790E+02  0.62500000077E+02  0.99999948675E+01 0.  0.
    3000022    2    3    3    0    0 -0.48931354765E+02 -0.11527365180E+02  0.25087633015E+02  0.56183711623E+02  0.24998869159E+00 0.  0.
    1000022    2    1    0    0    0  0.54546165362E+02  0.97402306920E+01 -0.27131049790E+02  0.62499999923E+02  0.99999939050E+01 0.  0.
    3000022    2    5    5    0    0  0.19248890766E+01 -0.67356568485E+00  0.55253374564E+00  0.21276000188E+01  0.24999922164E+00 0.  0.
        -13    1    4    4    0    0 -0.34881234452E+02 -0.82546258075E+01  0.17911818910E+02  0.40070982590E+02  0.10500000000E+00 0.  1.
         13    1    4    4    0    0 -0.14050120313E+02 -0.32727393726E+01  0.71758141046E+01  0.16112729033E+02  0.10500000000E+00 0. -1.
    3000001    1    5    5    0    0  0.52621276285E+02  0.10413796377E+02 -0.27683583535E+02  0.60372399904E+02  0.10000000000E+01 0. -1.
        -13    1    6    6    0    0  0.68191827985E+00 -0.18876709317E+00  0.16097689415E+00  0.73320127953E+00  0.10500000000E+00 0. -1.
         13    1    6    6    0    0  0.12429707967E+01 -0.48479859167E+00  0.39155685150E+00  0.13943987392E+01  0.10500000000E+00 0.  1.
</event>
<event>
11    0  0.3439373E-009  0.9118800E+02  0.7816531E-02  0.1126479E+00
         25   -1    0    0    0    0  0.00000000000E+00  0.00000000000E+00  0.99999998245E-14  0.12500000000E+03  0.12500000000E+03 0.  0.
    3000001    1    3    3    0    0 -0.21095080844E+02  0.12732746921E+01  0.11504804699E+02  0.24082861031E+02  0.10000000000E+01 0.  1.
    1000022    2    1    0    0    0 -0.50181683759E+02  0.14510510238E+02  0.32825198009E+02  0.62499999717E+02  0.10000002404E+02 0.  0.
    3000022    2    3    3    0    0 -0.29086602915E+02  0.13237235545E+02  0.21320393310E+02  0.38417138686E+02  0.24999991247E+00 0.  0.
    1000022    2    1    0    0    0  0.50181683759E+02 -0.14510510238E+02 -0.32825198009E+02  0.62500000283E+02  0.10000005940E+02 0.  0.
    3000022    2    5    5    0    0  0.26562278249E+02 -0.29213827736E+01 -0.14317024311E+02  0.30317137053E+02  0.25002181195E+00 0.  0.
        -13    1    4    4    0    0 -0.74451743042E+01  0.33721936136E+01  0.54223405988E+01  0.98089302555E+01  0.10500000000E+00 0.  1.
         13    1    4    4    0    0 -0.21641428611E+02  0.98650419319E+01  0.15898052711E+02  0.28608208431E+02  0.10500000000E+00 0. -1.
    3000001    1    5    5    0    0  0.23619405510E+02 -0.11589127464E+02 -0.18508173698E+02  0.32182863230E+02  0.10000000000E+01 0.  1.
        -13    1    6    6    0    0  0.14334329519E+02 -0.16171811360E+01 -0.77892917029E+01  0.16394278509E+02  0.10500000000E+00 0. -1.
         13    1    6    6    0    0  0.12227948730E+02 -0.13042016376E+01 -0.65277326084E+01  0.13922858545E+02  0.10500000000E+00 0.  1.
</event>
<event>
11    0  0.3439373E-009  0.9118800E+02  0.7816531E-02  0.1126479E+00
         25   -1    0    0    0    0  0.00000000000E+00  0.00000000000E+00  0.99999998245E-14  0.12500000000E+03  0.12500000000E+03 0.  0.
    3000001    1    3    3    0    0  0.22941749748E+01  0.10323085280E+02 -0.37641000301E+02  0.39111050001E+02  0.10000000000E+01 0.  1.
    1000022    2    1    0    0    0 -0.18349205365E+01  0.21319289956E+02 -0.57865109433E+02  0.62500001217E+02  0.10000010242E+02 0.  0.
    3000022    2    3    3    0    0 -0.41290955114E+01  0.10996204676E+02 -0.20224109132E+02  0.23388951217E+02  0.25000357915E+00 0.  0.
    1000022    2    1    0    0    0  0.18349205365E+01 -0.21319289956E+02  0.57865109433E+02  0.62499998783E+02  0.99999950264E+01 0.  0.
    3000022    2    5    5    0    0 -0.20506787162E+01 -0.20448628728E+01  0.28605630657E+01  0.40782430574E+01  0.24999603395E+00 0.  0.
        -13    1    4    4    0    0 -0.13042466291E+01  0.33559617308E+01 -0.61536365371E+01  0.71303440337E+01  0.10500000000E+00 0.  1.
         13    1    4    4    0    0 -0.28248488823E+01  0.76402429456E+01 -0.14070472595E+02  0.16258607183E+02  0.10500000000E+00 0. -1.
    3000001    1    5    5    0    0  0.38855992527E+01 -0.19274427083E+02  0.55004546367E+02  0.58421755725E+02  0.10000000000E+01 0.  1.
        -13    1    6    6    0    0 -0.73888344955E+00 -0.66957462572E+00  0.10273699381E+01  0.14355462100E+01  0.10500000000E+00 0.  1.
         13    1    6    6    0    0 -0.13117952667E+01 -0.13752882471E+01  0.18331931276E+01  0.26426968474E+01  0.10500000000E+00 0. -1.
</event>
<event>
11    0  0.3439373E-009  0.9118800E+02  0.7816531E-02  0.1126479E+00
         25   -1    0    0    0    0  0.00000000000E+00  0.00000000000E+00  0.99999998245E-14  0.12500000000E+03  0.12500000000E+03 0.  0.
    3000001    1    3    3    0    0 -0.11472621788E+02 -0.22355369242E+02  0.17799492171E+02  0.30809178927E+02  0.10000000000E+01 0. -1.
    1000022    2    1    0    0    0 -0.26100922127E+02 -0.37405650475E+02  0.41542859691E+02  0.62499999973E+02  0.99999991013E+01 0.  0.
    3000022    2    3    3    0    0 -0.14628300338E+02 -0.15050281233E+02  0.23743367520E+02  0.31690821046E+02  0.25000275913E+00 0.  0.
    1000022    2    1    0    0    0  0.26100922127E+02  0.37405650475E+02 -0.41542859691E+02  0.62500000027E+02  0.99999994334E+01 0.  0.
    3000022    2    5    5    0    0  0.16297192666E+02  0.27375134820E+02 -0.23319955252E+02  0.39482645664E+02  0.25000095233E+00 0.  0.
        -13    1    4    4    0    0 -0.46418691956E+01 -0.47360531284E+01  0.75652408232E+01  0.10060866890E+02  0.10500000000E+00 0. -1.
         13    1    4    4    0    0 -0.99864311428E+01 -0.10314228105E+02  0.16178126697E+02  0.21629954156E+02  0.10500000000E+00 0.  1.
    3000001    1    5    5    0    0  0.98037294609E+01  0.10030515655E+02 -0.18222904440E+02  0.23017354363E+02  0.10000000000E+01 0.  1.
        -13    1    6    6    0    0  0.11955353442E+02  0.20123406010E+02 -0.17165843331E+02  0.29026869408E+02  0.10500000000E+00 0.  1.
         13    1    6    6    0    0  0.43418392241E+01  0.72517288095E+01 -0.61541119200E+01  0.10455776255E+02  0.10500000000E+00 0. -1.
</event>
<event>
11    0  0.3439373E-009  0.9118800E+02  0.7816531E-02  0.1126479E+00
         25   -1    0    0    0    0  0.00000000000E+00  0.00000000000E+00  0.99999998245E-14  0.12500000000E+03  0.12500000000E+03 0.  0.
    3000001    1    3    3    0    0 -0.46147078548E+02  0.10897420690E+02  0.10902908038E+01  0.47439386276E+02  0.10000000000E+01 0.  1.
    1000022    2    1    0    0    0 -0.59277498653E+02  0.15763594154E+02  0.66285220120E+01  0.62499999945E+02  0.99999970955E+01 0.  0.
    3000022    2    3    3    0    0 -0.13130420104E+02  0.48661734644E+01  0.55382312082E+01  0.15060613669E+02  0.25000573258E+00 0.  0.
    1000022    2    1    0    0    0  0.59277498653E+02 -0.15763594154E+02 -0.66285220120E+01  0.62500000055E+02  0.99999977794E+01 0.  0.
    3000022    2    5    5    0    0  0.82839881796E+00 -0.61063427411E+00 -0.15767674914E+01  0.18994250709E+01  0.25000211989E+00 0.  0.
        -13    1    4    4    0    0 -0.46402603916E+01  0.17801474413E+01  0.19748834605E+01  0.53490308559E+01  0.10500000000E+00 0.  1.
         13    1    4    4    0    0 -0.84901597129E+01  0.30860260231E+01  0.35633477477E+01  0.97115828131E+01  0.10500000000E+00 0. -1.
    3000001    1    5    5    0    0  0.58449099835E+02 -0.15152959880E+02 -0.50517545206E+01  0.60600574984E+02  0.10000000000E+01 0.  1.
        -13    1    6    6    0    0  0.18052736171E+00 -0.14865947205E+00 -0.37024432088E+00  0.45032835143E+00  0.10500000000E+00 0. -1.
         13    1    6    6    0    0  0.64787145626E+00 -0.46197480206E+00 -0.12065231705E+01  0.14490967195E+01  0.10500000000E+00 0.  1.
</event>
<event>
11    0  0.3439373E-009  0.9118800E+02  0.7816531E-02  0.1126479E+00
         25   -1    0    0    0    0  0.00000000000E+00  0.00000000000E+00  0.99999998245E-14  0.12500000000E+03  0.12500000000E+03 0.  0.
    3000001    1    3    3    0    0 -0.58538209931E+01 -0.49443228138E+02  0.10784336213E+02  0.50952938447E+02  0.10000000000E+01 0. -1.
    1000022    2    1    0    0    0 -0.24946374570E+01 -0.60313630735E+02  0.12739424297E+02  0.62500000208E+02  0.99999913058E+01 0.  0.
    3000022    2    3    3    0    0  0.33591835361E+01 -0.10870402598E+02  0.19550880837E+01  0.11547061761E+02  0.24999845400E+00 0.  0.
    1000022    2    1    0    0    0  0.24946374570E+01  0.60313630735E+02 -0.12739424297E+02  0.62499999792E+02  0.99999887021E+01 0.  0.
    3000022    2    5    5    0    0  0.14817431550E+01  0.26690131054E+02 -0.64838496241E+00  0.26740261008E+02  0.24999454095E+00 0.  0.
        -13    1    4    4    0    0  0.15545972784E+01 -0.50620847213E+01  0.84237373442E+00  0.53630302006E+01  0.10500000000E+00 0.  1.
         13    1    4    4    0    0  0.18045862577E+01 -0.58083178765E+01  0.11127143493E+01  0.61840315603E+01  0.10500000000E+00 0. -1.
    3000001    1    5    5    0    0  0.10128943020E+01  0.33623499681E+02 -0.12091039334E+02  0.35759738783E+02  0.10000000000E+01 0.  1.
        -13    1    6    6    0    0  0.70231508434E+00  0.11880893232E+02 -0.23776028210E+00  0.11904470817E+02  0.10500000000E+00 0. -1.
         13    1    6    6    0    0  0.77942807067E+00  0.14809237822E+02 -0.41062468031E+00  0.14835790191E+02  0.10500000000E+00 0.  1.
</event>
<event>
11    0  0.3439373E-009  0.9118800E+02  0.7816531E-02  0.1126479E+00
         25   -1    0    0    0    0  0.00000000000E+00  0.00000000000E+00  0.99999998245E-14  0.12500000000E+03  0.12500000000E+03 0.  0.
    3000001    1    3    3    0    0 -0.19237076367E+02 -0.50403847603E+02  0.17258345059E+01  0.53986956434E+02  0.10000000000E+01 0. -1.
    1000022    2    1    0    0    0 -0.19965759354E+02 -0.58144057292E+02  0.51852573682E+01  0.62500001197E+02  0.10000015532E+02 0.  0.
    3000022    2    3    3    0    0 -0.72868298700E+00 -0.77402096894E+01  0.34594228624E+01  0.85130447622E+01  0.24999930302E+00 0.  0.
    1000022    2    1    0    0    0  0.19965759354E+02  0.58144057292E+02 -0.51852573682E+01  0.62499998803E+02  0.10000000575E+02 0.  0.
    3000022    2    5    5    0    0  0.81147058149E-01  0.10178419635E+02 -0.25670406693E+01  0.10500428991E+02  0.25000017268E+00 0.  0.
        -13    1    4    4    0    0 -0.28785681786E+00 -0.26240887504E+01  0.11350230097E+01  0.28754139789E+01  0.10500000000E+00 0.  1.
         13    1    4    4    0    0 -0.44082616913E+00 -0.51161209390E+01  0.23243998527E+01  0.56376307833E+01  0.10500000000E+00 0. -1.
    3000001    1    5    5    0    0  0.19884612295E+02  0.47965637657E+02 -0.26182166989E+01  0.51999569812E+02  0.10000000000E+01 0. -1.
        -13    1    6    6    0    0 -0.81458885364E-02  0.29446159186E+01 -0.71325845101E+00  0.30315988986E+01  0.10500000000E+00 0. -1.
         13    1    6    6    0    0  0.89292946685E-01  0.72338037166E+01 -0.18537822183E+01  0.74688300927E+01  0.10500000000E+00 0.  1.
</event>
<event>
11    0  0.3439373E-009  0.9118800E+02  0.7816531E-02  0.1126479E+00
         25   -1    0    0    0    0  0.00000000000E+00  0.00000000000E+00  0.99999998245E-14  0.12500000000E+03  0.12500000000E+03 0.  0.
    3000001    1    3    3    0    0 -0.12769592291E+02 -0.29944889302E+02 -0.17868752832E+01  0.32618274110E+02  0.10000000000E+01 0. -1.
    1000022    2    1    0    0    0 -0.32490777813E+02 -0.52342445571E+02 -0.32966319892E+01  0.62500000344E+02  0.10000000467E+02 0.  0.
    3000022    2    3    3    0    0 -0.19721185522E+02 -0.22397556268E+02 -0.15097567060E+01  0.29881726235E+02  0.25002452878E+00 0.  0.
    1000022    2    1    0    0    0  0.32490777813E+02  0.52342445571E+02  0.32966319892E+01  0.62499999656E+02  0.99999961621E+01 0.  0.
    3000022    2    5    5    0    0  0.20890793589E+02  0.39510623722E+02 -0.77631991379E+00  0.44701004651E+02  0.25000106566E+00 0.  0.
        -13    1    4    4    0    0 -0.12079399651E+02 -0.13642135794E+02 -0.95762394600E+00  0.18246858184E+02  0.10500000000E+00 0. -1.
         13    1    4    4    0    0 -0.76417858710E+01 -0.87554204746E+01 -0.55213275996E+00  0.11634868051E+02  0.10500000000E+00 0.  1.
    3000001    1    5    5    0    0  0.11599984225E+02  0.12831821848E+02  0.40729519030E+01  0.17798995004E+02  0.10000000000E+01 0. -1.
        -13    1    6    6    0    0  0.74952888115E+01  0.14243440665E+02 -0.32833985145E+00  0.16098875377E+02  0.10500000000E+00 0.  1.
         13    1    6    6    0    0  0.13395504777E+02  0.25267183057E+02 -0.44798006234E+00  0.28602129274E+02  0.10500000000E+00 0. -1.
</event>
<event>
11    0  0.3439373E-009  0.9118800E+02  0.7816531E-02  0.1126479E+00
         25   -1    0    0    0    0  0.00000000000E+00  0.00000000000E+00  0.99999998245E-14  0.12500000000E+03  0.12500000000E+03 0.  0.
    3000001    1    3    3    0    0  0.25136062350E+01  0.94977769579E+01  0.12757041857E+00  0.98763483969E+01  0.10000000000E+01 0.  1.
    1000022    2    1    0    0    0  0.35771605168E+02  0.50234287623E+02 -0.17772502857E+01  0.62499999296E+02  0.99999952052E+01 0.  0.
    3000022    2    3    3    0    0  0.33257998933E+02  0.40736510666E+02 -0.19048207043E+01  0.52623650899E+02  0.24999562076E+00 0.  0.
    1000022    2    1    0    0    0 -0.35771605168E+02 -0.50234287623E+02  0.17772502857E+01  0.62500000704E+02  0.10000004008E+02 0.  0.
    3000022    2    5    5    0    0 -0.91972553426E+01 -0.87813676490E+01 -0.28476177193E+01  0.13033546949E+02  0.24999156045E+00 0.  0.
        -13    1    4    4    0    0  0.11926808389E+02  0.14673627103E+02 -0.64388927587E+00  0.18920615981E+02  0.10500000000E+00 0. -1.
         13    1    4    4    0    0  0.21331190544E+02  0.26062883562E+02 -0.12609314284E+01  0.33703034918E+02  0.10500000000E+00 0.  1.
    3000001    1    5    5    0    0 -0.26574349825E+02 -0.41452919974E+02  0.46248680050E+01  0.49466453755E+02  0.10000000000E+01 0. -1.
        -13    1    6    6    0    0 -0.67005950612E+01 -0.63456236188E+01 -0.20679918610E+01  0.94579346912E+01  0.10500000000E+00 0.  1.
         13    1    6    6    0    0 -0.24966602814E+01 -0.24357440302E+01 -0.77962585833E+00  0.35756122581E+01  0.10500000000E+00 0. -1.
</event>
<event>
11    0  0.3439373E-009  0.9118800E+02  0.7816531E-02  0.1126479E+00
         25   -1    0    0    0    0  0.00000000000E+00  0.00000000000E+00  0.99999998245E-14  0.12500000000E+03  0.12500000000E+03 0.  0.
    3000001    1    3    3    0    0 -0.69993838545E+01  0.40393922211E+02 -0.39538461876E+02  0.56964465182E+02  0.10000000000E+01 0. -1.
    1000022    2    1    0    0    0 -0.53075237942E+01  0.45228375046E+02 -0.41622996109E+02  0.62499996599E+02  0.10000002587E+02 0.  0.
    3000022    2    3    3    0    0  0.16918600603E+01  0.48344528354E+01 -0.20845342323E+01  0.55355314176E+01  0.25000085725E+00 0.  0.
    1000022    2    1    0    0    0  0.53075237942E+01 -0.45228375046E+02  0.41622996109E+02  0.62500003401E+02  0.10000045093E+02 0.  0.
    3000022    2    5    5    0    0 -0.15794674217E+01 -0.13079845216E+02  0.77651660986E+01  0.15295011384E+02  0.25000100648E+00 0.  0.
        -13    1    4    4    0    0  0.73015346982E+00  0.19095623856E+01 -0.80683089200E+00  0.22003530812E+01  0.10500000000E+00 0. -1.
         13    1    4    4    0    0  0.96170659050E+00  0.29248904498E+01 -0.12777033403E+01  0.33351783364E+01  0.10500000000E+00 0.  1.
    3000001    1    5    5    0    0  0.68869912159E+01 -0.32148529830E+02  0.33857830010E+02  0.47204992016E+02  0.10000000000E+01 0.  1.
        -13    1    6    6    0    0 -0.43071887009E+00 -0.39531007722E+01  0.23456537584E+01  0.46179693605E+01  0.10500000000E+00 0. -1.
         13    1    6    6    0    0 -0.11487485516E+01 -0.91267444435E+01  0.54195123402E+01  0.10677042024E+02  0.10500000000E+00 0.  1.
</event>
<event>
11    0  0.3439373E-009  0.9118800E+02  0.7816531E-02  0.1126479E+00
         25   -1    0    0    0    0  0.00000000000E+00  0.00000000000E+00  0.99999998245E-14  0.12500000000E+03  0.12500000000E+03 0.  0.
    3000001    1    3    3    0    0 -0.32061002167E+02  0.17994831837E+02  0.91774797851E+01  0.37907096538E+02  0.10000000000E+01 0. -1.
    1000022    2    1    0    0    0 -0.48470529228E+02  0.35936398639E+02  0.12862070158E+02  0.62500004141E+02  0.10000035910E+02 0.  0.
    3000022    2    3    3    0    0 -0.16409527061E+02  0.17941566802E+02  0.36845903728E+01  0.24592907603E+02  0.25000096286E+00 0.  0.
    1000022    2    1    0    0    0  0.48470529228E+02 -0.35936398639E+02 -0.12862070158E+02  0.62499995859E+02  0.99999841435E+01 0.  0.
    3000022    2    5    5    0    0  0.21891063476E+02 -0.16034275149E+02 -0.76831180754E+00  0.27147181119E+02  0.24999993071E+00 0.  0.
        -13    1    4    4    0    0 -0.11042055467E+02  0.12022892689E+02  0.25144482062E+01  0.16516973462E+02  0.10500000000E+00 0. -1.
         13    1    4    4    0    0 -0.53674715938E+01  0.59186741126E+01  0.11701421666E+01  0.80759341412E+01  0.10500000000E+00 0.  1.
    3000001    1    5    5    0    0  0.26579465751E+02 -0.19902123489E+02 -0.12093758350E+02  0.35352814740E+02  0.10000000000E+01 0. -1.
        -13    1    6    6    0    0  0.77914025198E+01 -0.56801825862E+01 -0.32622335627E+00  0.96482057459E+01  0.10500000000E+00 0.  1.
         13    1    6    6    0    0  0.14099660957E+02 -0.10354092563E+02 -0.44208845127E+00  0.17498975373E+02  0.10500000000E+00 0. -1.
</event>
<event>
11    0  0.3439373E-009  0.9118800E+02  0.7816531E-02  0.1126479E+00
         25   -1    0    0    0    0  0.00000000000E+00  0.00000000000E+00  0.99999998245E-14  0.12500000000E+03  0.12500000000E+03 0.  0.
    3000001    1    3    3    0    0  0.10831958817E+02  0.12193469065E+02  0.40284183583E+02  0.43472145870E+02  0.10000000000E+01 0. -1.
    1000022    2    1    0    0    0  0.15291192687E+02  0.23400526407E+02  0.54998590507E+02  0.62499998906E+02  0.99999847738E+01 0.  0.
    3000022    2    3    3    0    0  0.44592338698E+01  0.11207057342E+02  0.14714406925E+02  0.19027853035E+02  0.25003801847E+00 0.  0.
    1000022    2    1    0    0    0 -0.15291192687E+02 -0.23400526407E+02 -0.54998590507E+02  0.62500001094E+02  0.99999984538E+01 0.  0.
    3000022    2    5    5    0    0 -0.16416022801E+02 -0.21545423212E+02 -0.52281035477E+02  0.58881747926E+02  0.25000452674E+00 0.  0.
        -13    1    4    4    0    0  0.24463216235E+01  0.60617996462E+01  0.80671088619E+01  0.10383601245E+02  0.10500000000E+00 0. -1.
         13    1    4    4    0    0  0.20129122464E+01  0.51452576956E+01  0.66472980629E+01  0.86442517896E+01  0.10500000000E+00 0.  1.
    3000001    1    5    5    0    0  0.11248301139E+01 -0.18551031946E+01 -0.27175550307E+01  0.36182531687E+01  0.10000000000E+01 0.  1.
        -13    1    6    6    0    0 -0.69879015046E+01 -0.92506111613E+01 -0.22280277941E+02  0.25116257373E+02  0.10500000000E+00 0.  1.
         13    1    6    6    0    0 -0.94281212962E+01 -0.12294812051E+02 -0.30000757536E+02  0.33765490553E+02  0.10500000000E+00 0. -1.
</event>
<event>
11    0  0.3439373E-009  0.9118800E+02  0.7816531E-02  0.1126479E+00
         25   -1    0    0    0    0  0.00000000000E+00  0.00000000000E+00  0.99999998245E-14  0.12500000000E+03  0.12500000000E+03 0.  0.
    3000001    1    3    3    0    0 -0.14141020759E+02  0.17248720040E+02  0.16634757554E+02  0.27842449066E+02  0.10000000000E+01 0. -1.
    1000022    2    1    0    0    0 -0.24331569347E+02  0.45842338102E+02  0.33357232930E+02  0.62500001717E+02  0.99999998184E+01 0.  0.
    3000022    2    3    3    0    0 -0.10190548588E+02  0.28593618062E+02  0.16722475376E+02  0.34657552651E+02  0.24999732408E+00 0.  0.
    1000022    2    1    0    0    0  0.24331569347E+02 -0.45842338102E+02 -0.33357232930E+02  0.62499998283E+02  0.99999783576E+01 0.  0.
    3000022    2    5    5    0    0  0.10092726058E+02 -0.29002058390E+02 -0.17822407721E+02  0.35506101320E+02  0.25000771855E+00 0.  0.
        -13    1    4    4    0    0 -0.38349842933E+01  0.10942168579E+02  0.63835193989E+01  0.13236257124E+02  0.10500000000E+00 0.  1.
         13    1    4    4    0    0 -0.63555642946E+01  0.17651449483E+02  0.10338955977E+02  0.21421295527E+02  0.10500000000E+00 0. -1.
    3000001    1    5    5    0    0  0.14238843289E+02 -0.16840279712E+02 -0.15534825209E+02  0.26993896963E+02  0.10000000000E+01 0.  1.
        -13    1    6    6    0    0  0.28328453855E+01 -0.81618124354E+01 -0.50601592126E+01  0.10012813364E+02  0.10500000000E+00 0.  1.
         13    1    6    6    0    0  0.72598806726E+01 -0.20840245954E+02 -0.12762248508E+02  0.25493287956E+02  0.10500000000E+00 0. -1.
</event>
<event>
11    0  0.3439373E-009  0.9118800E+02  0.7816531E-02  0.1126479E+00
         25   -1    0    0    0    0  0.00000000000E+00  0.00000000000E+00  0.99999998245E-14  0.12500000000E+03  0.12500000000E+03 0.  0.
    3000001    1    3    3    0    0  0.10059133826E+02 -0.28598376219E+02  0.35595097380E+02  0.46766058773E+02  0.10000000000E+01 0.  1.
    1000022    2    1    0    0    0  0.11418826289E+02 -0.41995498102E+02  0.43729148648E+02  0.62500000589E+02  0.10000008875E+02 0.  0.
    3000022    2    3    3    0    0  0.13596924635E+01 -0.13397121883E+02  0.81340512682E+01  0.15733941816E+02  0.24999338755E+00 0.  0.
    1000022    2    1    0    0    0 -0.11418826289E+02  0.41995498102E+02 -0.43729148648E+02  0.62499999411E+02  0.10000001513E+02 0.  0.
    3000022    2    5    5    0    0 -0.25717234589E+01  0.26597751362E+02 -0.28689980343E+02  0.39207545344E+02  0.25000154075E+00 0.  0.
        -13    1    4    4    0    0  0.89872424597E+00 -0.93187795062E+01  0.56605106918E+01  0.10940738688E+02  0.10500000000E+00 0.  1.
         13    1    4    4    0    0  0.46096821751E+00 -0.40783423769E+01  0.24735405764E+01  0.47932031278E+01  0.10500000000E+00 0. -1.
    3000001    1    5    5    0    0 -0.88471028303E+01  0.15397746740E+02 -0.15039168305E+02  0.23292454067E+02  0.10000000000E+01 0.  1.
        -13    1    6    6    0    0 -0.15229358611E+01  0.15068971076E+02 -0.16266771292E+02  0.22226382886E+02  0.10500000000E+00 0. -1.
         13    1    6    6    0    0 -0.10487875978E+01  0.11528780286E+02 -0.12423209051E+02  0.16981162458E+02  0.10500000000E+00 0.  1.
</event>
<event>
11    0  0.3439373E-009  0.9118800E+02  0.7816531E-02  0.1126479E+00
         25   -1    0    0    0    0  0.00000000000E+00  0.00000000000E+00  0.99999998245E-14  0.12500000000E+03  0.12500000000E+03 0.  0.
    3000001    1    3    3    0    0  0.24571016714E+01 -0.22752938858E+02 -0.16003993134E+02  0.27943896857E+02  0.10000000000E+01 0.  1.
    1000022    2    1    0    0    0  0.14530796229E+01 -0.43938469166E+02 -0.43284517372E+02  0.62499999940E+02  0.10000001763E+02 0.  0.
    3000022    2    3    3    0    0 -0.10040220485E+01 -0.21185530308E+02 -0.27280524238E+02  0.34556103083E+02  0.25000574030E+00 0.  0.
    1000022    2    1    0    0    0 -0.14530796229E+01  0.43938469166E+02  0.43284517372E+02  0.62500000060E+02  0.10000002517E+02 0.  0.
    3000022    2    5    5    0    0  0.14126776816E+01  0.40258482378E+02  0.37961517330E+02  0.55352329311E+02  0.25000111354E+00 0.  0.
        -13    1    4    4    0    0 -0.65748829613E+00 -0.13082860028E+02 -0.16927316246E+02  0.21404171969E+02  0.10500000000E+00 0. -1.
         13    1    4    4    0    0 -0.34653375234E+00 -0.81026702794E+01 -0.10353207992E+02  0.13151931113E+02  0.10500000000E+00 0.  1.
    3000001    1    5    5    0    0 -0.28657573045E+01  0.36799867878E+01  0.53230000425E+01  0.71476707492E+01  0.10000000000E+01 0. -1.
        -13    1    6    6    0    0  0.77757299674E+00  0.20306301536E+02  0.19123202498E+02  0.27904451268E+02  0.10500000000E+00 0. -1.
         13    1    6    6    0    0  0.63510468482E+00  0.19952180843E+02  0.18838314832E+02  0.27447878043E+02  0.10500000000E+00 0.  1.
</event>
<event>
11    0  0.3439373E-009  0.9118800E+02  0.7816531E-02  0.1126479E+00
         25   -1    0    0    0    0  0.00000000000E+00  0.00000000000E+00  0.99999998245E-14  0.12500000000E+03  0.12500000000E+03 0.  0.
    3000001    1    3    3    0    0 -0.36457628807E+02 -0.13880946457E+02  0.15075430049E+02  0.41834291723E+02  0.10000000000E+01 0.  1.
    1000022    2    1    0    0    0 -0.55677802944E+02 -0.13876348465E+02  0.22664493088E+02  0.62499999793E+02  0.99999969895E+01 0.  0.
    3000022    2    3    3    0    0 -0.19220174137E+02  0.45979920039E-02  0.75890630381E+01  0.20665708070E+02  0.24999447691E+00 0.  0.
    1000022    2    1    0    0    0  0.55677802944E+02  0.13876348465E+02 -0.22664493088E+02  0.62500000207E+02  0.99999995777E+01 0.  0.
    3000022    2    5    5    0    0  0.35763662244E+02  0.10681393119E+02 -0.99205985299E+01  0.38621399159E+02  0.25000357841E+00 0.  0.
        -13    1    4    4    0    0 -0.13639667211E+02 -0.39304830373E-01  0.53921942752E+01  0.14667271409E+02  0.10500000000E+00 0.  1.
         13    1    4    4    0    0 -0.55805069265E+01  0.43902822377E-01  0.21968687630E+01  0.59984366610E+01  0.10500000000E+00 0. -1.
    3000001    1    5    5    0    0  0.19914140700E+02  0.31949553463E+01 -0.12743894558E+02  0.23878601048E+02  0.10000000000E+01 0.  1.
        -13    1    6    6    0    0  0.23231889721E+02  0.69249513927E+01 -0.65002538777E+01  0.25098605086E+02  0.10500000000E+00 0. -1.
         13    1    6    6    0    0  0.12531772523E+02  0.37564417265E+01 -0.34203446522E+01  0.13522794073E+02  0.10500000000E+00 0.  1.
</event>
<event>
11    0  0.3439373E-009  0.9118800E+02  0.7816531E-02  0.1126479E+00
         25   -1    0    0    0    0  0.00000000000E+00  0.00000000000E+00  0.99999998245E-14  0.12500000000E+03  0.12500000000E+03 0.  0.
    3000001    1    3    3    0    0  0.16559425853E+02  0.51976817466E+01 -0.67672868929E+01  0.18655472441E+02  0.10000000000E+01 0.  1.
    1000022    2    1    0    0    0  0.47341217575E+02  0.29565597219E+02 -0.26285642042E+02  0.62500001074E+02  0.99999868151E+01 0.  0.
    3000022    2    3    3    0    0  0.30781791722E+02  0.24367915473E+02 -0.19518355149E+02  0.43844528633E+02  0.24999443901E+00 0.  0.
    1000022    2    1    0    0    0 -0.47341217575E+02 -0.29565597219E+02  0.26285642042E+02  0.62499998926E+02  0.99999733869E+01 0.  0.
    3000022    2    5    5    0    0 -0.23611238014E+02 -0.15189699352E+02  0.77783548718E+01  0.29133877667E+02  0.24999288414E+00 0.  0.
        -13    1    4    4    0    0  0.23144477984E+02  0.18352805433E+02 -0.14678455738E+02  0.32984244970E+02  0.10500000000E+00 0. -1.
         13    1    4    4    0    0  0.76373137387E+01  0.60151100393E+01 -0.48398994110E+01  0.10860283663E+02  0.10500000000E+00 0.  1.
    3000001    1    5    5    0    0 -0.23729979561E+02 -0.14375897867E+02  0.18507287170E+02  0.33366121259E+02  0.10000000000E+01 0. -1.
        -13    1    6    6    0    0 -0.92965239498E+01 -0.59908227654E+01  0.30000178016E+01  0.11459775162E+02  0.10500000000E+00 0.  1.
         13    1    6    6    0    0 -0.14314714064E+02 -0.91988765865E+01  0.47783370702E+01  0.17674102505E+02  0.10500000000E+00 0. -1.
</event>
<event>
11    0  0.3439373E-009  0.9118800E+02  0.7816531E-02  0.1126479E+00
         25   -1    0    0    0    0  0.00000000000E+00  0.00000000000E+00  0.99999998245E-14  0.12500000000E+03  0.12500000000E+03 0.  0.
    3000001    1    3    3    0    0 -0.47234665158E+02 -0.32584034938E+02 -0.68937506990E+01  0.57804469759E+02  0.10000000000E+01 0. -1.
    1000022    2    1    0    0    0 -0.51405873839E+02 -0.32900969233E+02 -0.90117868039E+01  0.62499999769E+02  0.10000001403E+02 0.  0.
    3000022    2    3    3    0    0 -0.41712086809E+01 -0.31693429591E+00 -0.21180361049E+01  0.46955300101E+01  0.24999185139E+00 0.  0.
    1000022    2    1    0    0    0  0.51405873839E+02  0.32900969233E+02  0.90117868039E+01  0.62500000231E+02  0.10000004288E+02 0.  0.
    3000022    2    5    5    0    0  0.47253461592E+02  0.26861727744E+02  0.67975799906E+01  0.54778751818E+02  0.25001431326E+00 0.  0.
        -13    1    4    4    0    0 -0.15703682134E+01 -0.14515390254E+00 -0.73801989248E+00  0.17443693252E+01  0.10500000000E+00 0. -1.
         13    1    4    4    0    0 -0.26008404676E+01 -0.17178039337E+00 -0.13800162125E+01  0.29511606849E+01  0.10500000000E+00 0.  1.
    3000001    1    5    5    0    0  0.41524122469E+01  0.60392414898E+01  0.22142068133E+01  0.77212484128E+01  0.10000000000E+01 0. -1.
        -13    1    6    6    0    0  0.12175936115E+02  0.68895826041E+01  0.17619827420E+01  0.14100899862E+02  0.10500000000E+00 0. -1.
         13    1    6    6    0    0  0.35077525477E+02  0.19972145140E+02  0.50355972486E+01  0.40677851956E+02  0.10500000000E+00 0.  1.
</event>
<event>
11    0  0.3439373E-009  0.9118800E+02  0.7816531E-02  0.1126479E+00
         25   -1    0    0    0    0  0.00000000000E+00  0.00000000000E+00  0.99999998245E-14  0.12500000000E+03  0.12500000000E+03 0.  0.
    3000001    1    3    3    0    0  0.30764100988E+01  0.11442907790E+00  0.10175971094E+01  0.33930660157E+01  0.10000000000E+01 0.  1.
    1000022    2    1    0    0    0  0.45085998650E+02 -0.32965822959E+02  0.26206055137E+02  0.62499998955E+02  0.99999892935E+01 0.  0.
    3000022    2    3    3    0    0  0.42009588552E+02 -0.33080252037E+02  0.25188458027E+02  0.59106932939E+02  0.24999717627E+00 0.  0.
    1000022    2    1    0    0    0 -0.45085998650E+02  0.32965822959E+02 -0.26206055137E+02  0.62500001045E+02  0.10000002356E+02 0.  0.
    3000022    2    5    5    0    0 -0.27266869108E+02  0.19471809392E+02 -0.20948513540E+02  0.39516278034E+02  0.24999635760E+00 0.  0.
        -13    1    4    4    0    0  0.27438454128E+02 -0.21569124968E+02  0.16493759784E+02  0.38602474708E+02  0.10500000000E+00 0. -1.
         13    1    4    4    0    0  0.14571134424E+02 -0.11511127069E+02  0.86946982436E+01  0.20504458231E+02  0.10500000000E+00 0.  1.
    3000001    1    5    5    0    0 -0.17819129542E+02  0.13494013567E+02 -0.52575415963E+01  0.22983723011E+02  0.10000000000E+01 0. -1.
        -13    1    6    6    0    0 -0.14361716485E+02  0.10218197434E+02 -0.11090892644E+02  0.20825210295E+02  0.10500000000E+00 0.  1.
         13    1    6    6    0    0 -0.12905152623E+02  0.92536119587E+01 -0.98576208967E+01  0.18691067740E+02  0.10500000000E+00 0. -1.
</event>
<event>
11    0  0.3439373E-009  0.9118800E+02  0.7816531E-02  0.1126479E+00
         25   -1    0    0    0    0  0.00000000000E+00  0.00000000000E+00  0.99999998245E-14  0.12500000000E+03  0.12500000000E+03 0.  0.
    3000001    1    3    3    0    0  0.32916635277E+02 -0.11483796124E+01 -0.19677678250E+02  0.38380133859E+02  0.10000000000E+01 0.  1.
    1000022    2    1    0    0    0  0.55757097829E+02 -0.59999389624E+01 -0.25717634815E+02  0.62499999820E+02  0.10000000556E+02 0.  0.
    3000022    2    3    3    0    0  0.22840462553E+02 -0.48515593501E+01 -0.60399565653E+01  0.24119865962E+02  0.25000191989E+00 0.  0.
    1000022    2    1    0    0    0 -0.55757097829E+02  0.59999389624E+01  0.25717634815E+02  0.62500000180E+02  0.10000002803E+02 0.  0.
    3000022    2    5    5    0    0 -0.10399227166E+02  0.24415783609E+01  0.91579317503E+01  0.14072506677E+02  0.24999941313E+00 0.  0.
        -13    1    4    4    0    0  0.94991070199E+01 -0.19999927649E+01 -0.24469195187E+01  0.10011565580E+02  0.10500000000E+00 0.  1.
         13    1    4    4    0    0  0.13341355533E+02 -0.28515665852E+01 -0.35930370466E+01  0.14108300382E+02  0.10500000000E+00 0. -1.
    3000001    1    5    5    0    0 -0.45357870664E+02  0.35583606015E+01  0.16559703065E+02  0.48427493502E+02  0.10000000000E+01 0.  1.
        -13    1    6    6    0    0 -0.39207904600E+01  0.96654565215E+00  0.34086814623E+01  0.52855409033E+01  0.10500000000E+00 0. -1.
         13    1    6    6    0    0 -0.64784367056E+01  0.14750327088E+01  0.57492502879E+01  0.87869657740E+01  0.10500000000E+00 0.  1.
</event>
<event>
11    0  0.3439373E-009  0.9118800E+02  0.7816531E-02  0.1126479E+00
         25   -1    0    0    0    0  0.00000000000E+00  0.00000000000E+00  0.99999998245E-14  0.12500000000E+03  0.12500000000E+03 0.  0.
    3000001    1    3    3    0    0 -0.68617680822E+00 -0.93767274165E+00 -0.30765948620E+01  0.34373688670E+01  0.10000000000E+01 0. -1.
    1000022    2    1    0    0    0  0.24888595688E+02 -0.14467797571E+02 -0.54566399489E+02  0.62500011421E+02  0.10000005624E+02 0.  0.
    3000022    2    3    3    0    0  0.25574772497E+02 -0.13530124830E+02 -0.51489804627E+02  0.59062642554E+02  0.24999747784E+00 0.  0.
    1000022    2    1    0    0    0 -0.24888595688E+02  0.14467797571E+02  0.54566399489E+02  0.62499988579E+02  0.99998628598E+01 0.  0.
    3000022    2    5    5    0    0 -0.18612197561E+02  0.15033391003E+02  0.45585894902E+02  0.51483522175E+02  0.24999684610E+00 0.  0.
        -13    1    4    4    0    0  0.17123553483E+02 -0.91107316415E+01 -0.34463227219E+02  0.39546764346E+02  0.10500000000E+00 0. -1.
         13    1    4    4    0    0  0.84512190136E+01 -0.44193931881E+01 -0.17026577409E+02  0.19515878208E+02  0.10500000000E+00 0.  1.
    3000001    1    5    5    0    0 -0.62763981270E+01 -0.56559343215E+00  0.89805045880E+01  0.11016466404E+02  0.10000000000E+01 0. -1.
        -13    1    6    6    0    0 -0.58855627382E+01  0.47051103256E+01  0.14289007591E+02  0.16154401099E+02  0.10500000000E+00 0.  1.
         13    1    6    6    0    0 -0.12726634823E+02  0.10328280678E+02  0.31296887310E+02  0.35329121076E+02  0.10500000000E+00 0. -1.
</event>
<event>
11    0  0.3439373E-009  0.9118800E+02  0.7816531E-02  0.1126479E+00
         25   -1    0    0    0    0  0.00000000000E+00  0.00000000000E+00  0.99999998245E-14  0.12500000000E+03  0.12500000000E+03 0.  0.
    3000001    1    3    3    0    0  0.51157852000E+02 -0.14119531579E+02  0.11850474264E+02  0.54386769839E+02  0.10000000000E+01 0.  1.
    1000022    2    1    0    0    0  0.57959251090E+02 -0.18333417404E+02  0.10529059679E+02  0.62500000394E+02  0.99999985475E+01 0.  0.
    3000022    2    3    3    0    0  0.68013990900E+01 -0.42138858252E+01 -0.13214145849E+01  0.81132305553E+01  0.25002041483E+00 0.  0.
    1000022    2    1    0    0    0 -0.57959251090E+02  0.18333417404E+02 -0.10529059679E+02  0.62499999606E+02  0.99999936211E+01 0.  0.
    3000022    2    5    5    0    0 -0.11923044351E+02  0.81562158981E+01 -0.25621769608E+01  0.14673448595E+02  0.24999702357E+00 0.  0.
        -13    1    4    4    0    0  0.35517493153E+01 -0.22704437018E+01 -0.66364724050E+00  0.42686403528E+01  0.10500000000E+00 0.  1.
         13    1    4    4    0    0  0.32496497747E+01 -0.19434421234E+01 -0.65776734438E+00  0.38445902024E+01  0.10500000000E+00 0. -1.
    3000001    1    5    5    0    0 -0.46036206738E+02  0.10177201506E+02 -0.79668827180E+01  0.47826551011E+02  0.10000000000E+01 0.  1.
        -13    1    6    6    0    0 -0.77207465503E+01  0.52402734629E+01 -0.16082510489E+01  0.94693130531E+01  0.10500000000E+00 0.  1.
         13    1    6    6    0    0 -0.42022978009E+01  0.29159424351E+01 -0.95392591198E+00  0.52041355419E+01  0.10500000000E+00 0. -1.
</event>
<event>
11    0  0.3439373E-009  0.9118800E+02  0.7816531E-02  0.1126479E+00
         25   -1    0    0    0    0  0.00000000000E+00  0.00000000000E+00  0.99999998245E-14  0.12500000000E+03  0.12500000000E+03 0.  0.
    3000001    1    3    3    0    0 -0.73838435280E+00  0.60106293835E+00  0.96157924110E+00  0.16825940524E+01  0.10000000000E+01 0. -1.
    1000022    2    1    0    0    0 -0.61109503080E+02  0.37948779333E+01  0.75813879646E+01  0.62499999472E+02  0.10000001270E+02 0.  0.
    3000022    2    3    3    0    0 -0.60371118727E+02  0.31938149950E+01  0.66198087235E+01  0.60817405420E+02  0.25000784145E+00 0.  0.
    1000022    2    1    0    0    0  0.61109503080E+02 -0.37948779333E+01 -0.75813879646E+01  0.62500000528E+02  0.10000007866E+02 0.  0.
    3000022    2    5    5    0    0  0.22518699875E+02 -0.16272811693E+01 -0.76369957634E+01  0.23835395785E+02  0.24999971318E+00 0.  0.
        -13    1    4    4    0    0 -0.21749304133E+02  0.12086920549E+01  0.23811110663E+01  0.21912870229E+02  0.10500000000E+00 0.  1.
         13    1    4    4    0    0 -0.38621814594E+02  0.19851229401E+01  0.42386976571E+01  0.38904535191E+02  0.10500000000E+00 0. -1.
    3000001    1    5    5    0    0  0.38590803205E+02 -0.21675967640E+01  0.55607798856E-01  0.38664604743E+02  0.10000000000E+01 0. -1.
        -13    1    6    6    0    0  0.11334670457E+02 -0.88454618882E+00 -0.38649873671E+01  0.12008593951E+02  0.10500000000E+00 0. -1.
         13    1    6    6    0    0  0.11184029418E+02 -0.74273498050E+00 -0.37720083963E+01  0.11826801833E+02  0.10500000000E+00 0.  1.
</event>
<event>
11    0  0.3439373E-009  0.9118800E+02  0.7816531E-02  0.1126479E+00
         25   -1    0    0    0    0  0.00000000000E+00  0.00000000000E+00  0.99999998245E-14  0.12500000000E+03  0.12500000000E+03 0.  0.
    3000001    1    3    3    0    0  0.22060722269E+01  0.96427324106E+01 -0.27279448769E+01  0.10309739389E+02  0.10000000000E+01 0. -1.
    1000022    2    1    0    0    0  0.19528620396E+02  0.58358853435E+02  0.43734327746E+01  0.62499999023E+02  0.10000008739E+02 0.  0.
    3000022    2    3    3    0    0  0.17322548169E+02  0.48716121024E+02  0.71013776516E+01  0.52190259634E+02  0.25002675170E+00 0.  0.
    1000022    2    1    0    0    0 -0.19528620396E+02 -0.58358853435E+02 -0.43734327746E+01  0.62500000977E+02  0.10000020957E+02 0.  0.
    3000022    2    5    5    0    0 -0.11002418190E+02 -0.32768694143E+02  0.24660956430E+01  0.34655225424E+02  0.24999922206E+00 0.  0.
        -13    1    4    4    0    0  0.10386709786E+02  0.29297530051E+02  0.42129596566E+01  0.31368599926E+02  0.10500000000E+00 0.  1.
         13    1    4    4    0    0  0.69358383827E+01  0.19418590973E+02  0.28884179950E+01  0.20821659707E+02  0.10500000000E+00 0. -1.
    3000001    1    5    5    0    0 -0.85262022058E+01 -0.25590159292E+02 -0.68395284177E+01  0.27844775554E+02  0.10000000000E+01 0. -1.
        -13    1    6    6    0    0 -0.48413148198E+01 -0.14499562189E+02  0.10293398415E+01  0.15321429384E+02  0.10500000000E+00 0. -1.
         13    1    6    6    0    0 -0.61611033702E+01 -0.18269131953E+02  0.14367558015E+01  0.19333796039E+02  0.10500000000E+00 0.  1.
</event>
<event>
11    0  0.3439373E-009  0.9118800E+02  0.7816531E-02  0.1126479E+00
         25   -1    0    0    0    0  0.00000000000E+00  0.00000000000E+00  0.99999998245E-14  0.12500000000E+03  0.12500000000E+03 0.  0.
    3000001    1    3    3    0    0 -0.51502675272E+02  0.31279233672E+02 -0.52337866596E+00  0.60267652555E+02  0.10000000000E+01 0. -1.
    1000022    2    1    0    0    0 -0.53311295685E+02  0.30999962170E+02 -0.17770811210E+01  0.62500000644E+02  0.10000008056E+02 0.  0.
    3000022    2    3    3    0    0 -0.18086204128E+01 -0.27927150151E+00 -0.12537024551E+01  0.22323480896E+01  0.25001555548E+00 0.  0.
    1000022    2    1    0    0    0  0.53311295685E+02 -0.30999962170E+02  0.17770811210E+01  0.62499999356E+02  0.99999999997E+01 0.  0.
    3000022    2    5    5    0    0  0.94916634476E+01 -0.10144875302E+02 -0.53487238185E+00  0.13905349993E+02  0.25000013644E+00 0.  0.
        -13    1    4    4    0    0 -0.43972786819E+00 -0.60671547330E-01 -0.28340730278E+00  0.53701613941E+00  0.10500000000E+00 0. -1.
         13    1    4    4    0    0 -0.13688925446E+01 -0.21859995418E+00 -0.97029515230E+00  0.16953319501E+01  0.10500000000E+00 0.  1.
    3000001    1    5    5    0    0  0.43819632237E+02 -0.20855086869E+02  0.23119535029E+01  0.48594649363E+02  0.10000000000E+01 0. -1.
        -13    1    6    6    0    0  0.64530806439E+01 -0.69588514508E+01 -0.33831128543E+00  0.94970175759E+01  0.10500000000E+00 0.  1.
         13    1    6    6    0    0  0.30385828036E+01 -0.31860238509E+01 -0.19656109642E+00  0.44083324168E+01  0.10500000000E+00 0. -1.
</event>
<event>
11    0  0.3439373E-009  0.9118800E+02  0.7816531E-02  0.1126479E+00
         25   -1    0    0    0    0  0.00000000000E+00  0.00000000000E+00  0.99999998245E-14  0.12500000000E+03  0.12500000000E+03 0.  0.
    3000001    1    3    3    0    0 -0.22468661286E+01  0.32023385459E+01 -0.21205595082E+02  0.21586584777E+02  0.10000000000E+01 0.  1.
    1000022    2    1    0    0    0  0.59421467062E+01  0.14375451910E+02 -0.59701654780E+02  0.62499999402E+02  0.99999808332E+01 0.  0.
    3000022    2    3    3    0    0  0.81890128348E+01  0.11173113364E+02 -0.38496059698E+02  0.40913414624E+02  0.24998103918E+00 0.  0.
    1000022    2    1    0    0    0 -0.59421467062E+01 -0.14375451910E+02  0.59701654780E+02  0.62500000598E+02  0.99999883141E+01 0.  0.
    3000022    2    5    5    0    0 -0.84498302478E+01 -0.83434710409E+01  0.39124285085E+02  0.40887471513E+02  0.25000605945E+00 0.  0.
        -13    1    4    4    0    0  0.50960763141E+01  0.69862469505E+01 -0.23860752518E+02  0.25379601572E+02  0.10500000000E+00 0. -1.
         13    1    4    4    0    0  0.30929365207E+01  0.41868664133E+01 -0.14635307180E+02  0.15533813052E+02  0.10500000000E+00 0.  1.
    3000001    1    5    5    0    0  0.25076835416E+01 -0.60319808689E+01  0.20577369694E+02  0.21612529086E+02  0.10000000000E+01 0.  1.
        -13    1    6    6    0    0 -0.41168775320E+01 -0.41476405915E+01  0.19136798282E+02  0.20009489663E+02  0.10500000000E+00 0. -1.
         13    1    6    6    0    0 -0.43329527158E+01 -0.41958304494E+01  0.19987486803E+02  0.20877981850E+02  0.10500000000E+00 0.  1.
</event>
<event>
11    0  0.3439373E-009  0.9118800E+02  0.7816531E-02  0.1126479E+00
         25   -1    0    0    0    0  0.00000000000E+00  0.00000000000E+00  0.99999998245E-14  0.12500000000E+03  0.12500000000E+03 0.  0.
    3000001    1    3    3    0    0  0.69249266746E+01 -0.24002211955E+02 -0.15636250785E+02  0.29488186225E+02  0.10000000000E+01 0.  1.
    1000022    2    1    0    0    0  0.18048740813E+02 -0.54005658557E+02 -0.23746198110E+02  0.62499999156E+02  0.99999884377E+01 0.  0.
    3000022    2    3    3    0    0  0.11123814139E+02 -0.30003446602E+02 -0.81099473244E+01  0.33011812932E+02  0.24999692490E+00 0.  0.
    1000022    2    1    0    0    0 -0.18048740813E+02  0.54005658557E+02  0.23746198110E+02  0.62500000844E+02  0.99999989820E+01 0.  0.
    3000022    2    5    5    0    0 -0.59869108736E+01  0.70153058226E+01  0.27403982327E+01  0.96244429733E+01  0.25000496047E+00 0.  0.
        -13    1    4    4    0    0  0.26708744549E+01 -0.71519589332E+01 -0.19335361950E+01  0.78761458946E+01  0.10500000000E+00 0. -1.
         13    1    4    4    0    0  0.84529396836E+01 -0.22851487669E+02 -0.61764111294E+01  0.25135667037E+02  0.10500000000E+00 0.  1.
    3000001    1    5    5    0    0 -0.12061829940E+02  0.46990352735E+02  0.21005799877E+02  0.52875557870E+02  0.10000000000E+01 0.  1.
        -13    1    6    6    0    0 -0.29231887534E+01  0.35030538669E+01  0.14028751234E+01  0.47744635818E+01  0.10500000000E+00 0.  1.
         13    1    6    6    0    0 -0.30637221202E+01  0.35122519556E+01  0.13375231094E+01  0.48499793915E+01  0.10500000000E+00 0. -1.
</event>
<event>
11    0  0.3439373E-009  0.9118800E+02  0.7816531E-02  0.1126479E+00
         25   -1    0    0    0    0  0.00000000000E+00  0.00000000000E+00  0.99999998245E-14  0.12500000000E+03  0.12500000000E+03 0.  0.
    3000001    1    3    3    0    0 -0.31769553025E+01 -0.31320552122E+01  0.26349559345E+01  0.52769126981E+01  0.10000000000E+01 0.  1.
    1000022    2    1    0    0    0 -0.10252186216E+02 -0.40894511350E+02  0.45041997368E+02  0.62499999377E+02  0.10000000722E+02 0.  0.
    3000022    2    3    3    0    0 -0.70752309138E+01 -0.37762456138E+02  0.42407041434E+02  0.57223086679E+02  0.24999972042E+00 0.  0.
    1000022    2    1    0    0    0  0.10252186216E+02  0.40894511350E+02 -0.45041997368E+02  0.62500000623E+02  0.10000008505E+02 0.  0.
    3000022    2    5    5    0    0  0.28880162938E+01  0.20091936585E+02 -0.28077581624E+02  0.34647361303E+02  0.25000315154E+00 0.  0.
        -13    1    4    4    0    0 -0.19070243877E+01 -0.10330947253E+02  0.11632735173E+02  0.15674717406E+02  0.10500000000E+00 0. -1.
         13    1    4    4    0    0 -0.51682065261E+01 -0.27431508885E+02  0.30774306261E+02  0.41548369273E+02  0.10500000000E+00 0.  1.
    3000001    1    5    5    0    0  0.73641699225E+01  0.20802574765E+02 -0.16964415745E+02  0.27852639320E+02  0.10000000000E+01 0. -1.
        -13    1    6    6    0    0  0.91675610274E+00  0.67259163960E+01 -0.93544418125E+01  0.11558330318E+02  0.10500000000E+00 0. -1.
         13    1    6    6    0    0  0.19712601911E+01  0.13366020189E+02 -0.18723139811E+02  0.23089030985E+02  0.10500000000E+00 0.  1.
</event>
<event>
11    0  0.3439373E-009  0.9118800E+02  0.7816531E-02  0.1126479E+00
         25   -1    0    0    0    0  0.00000000000E+00  0.00000000000E+00  0.99999998245E-14  0.12500000000E+03  0.12500000000E+03 0.  0.
    3000001    1    3    3    0    0 -0.40110406813E+02  0.11063990196E+02 -0.28229730710E+02  0.50290896887E+02  0.10000000000E+01 0. -1.
    1000022    2    1    0    0    0 -0.46927818876E+02  0.11571236131E+02 -0.38342358969E+02  0.62499999065E+02  0.99999850844E+01 0.  0.
    3000022    2    3    3    0    0 -0.68174120631E+01  0.50724593515E+00 -0.10112628260E+02  0.12209102178E+02  0.25003997817E+00 0.  0.
    1000022    2    1    0    0    0  0.46927818876E+02 -0.11571236131E+02  0.38342358969E+02  0.62500000935E+02  0.99999967736E+01 0.  0.
    3000022    2    5    5    0    0  0.43592180252E+02 -0.95801146354E+01  0.37726788492E+02  0.58441679009E+02  0.24999995252E+00 0.  0.
        -13    1    4    4    0    0 -0.50287944765E+01  0.37584928637E+00 -0.75149862564E+01  0.90507502455E+01  0.10500000000E+00 0. -1.
         13    1    4    4    0    0 -0.17886175866E+01  0.13139664878E+00 -0.25976420033E+01  0.31583519322E+01  0.10500000000E+00 0.  1.
    3000001    1    5    5    0    0  0.33356386240E+01 -0.19911214956E+01  0.61557047789E+00  0.40583219258E+01  0.10000000000E+01 0.  1.
        -13    1    6    6    0    0  0.10394245213E+02 -0.23018040264E+01  0.89914007127E+01  0.13935384713E+02  0.10500000000E+00 0.  1.
         13    1    6    6    0    0  0.33197935040E+02 -0.72783106090E+01  0.28735387779E+02  0.44506294297E+02  0.10500000000E+00 0. -1.
</event>
<event>
11    0  0.3439373E-009  0.9118800E+02  0.7816531E-02  0.1126479E+00
         25   -1    0    0    0    0  0.00000000000E+00  0.00000000000E+00  0.99999998245E-14  0.12500000000E+03  0.12500000000E+03 0.  0.
    3000001    1    3    3    0    0  0.10299554955E+02  0.37574824564E+01  0.63564762731E+01  0.12712367887E+02  0.10000000000E+01 0.  1.
    1000022    2    1    0    0    0  0.57425135254E+02  0.18288074440E+02  0.13196600537E+02  0.62499999138E+02  0.99999900459E+01 0.  0.
    3000022    2    3    3    0    0  0.47125580299E+02  0.14530591984E+02  0.68401242638E+01  0.49787631251E+02  0.25000758790E+00 0.  0.
    1000022    2    1    0    0    0 -0.57425135254E+02 -0.18288074440E+02 -0.13196600537E+02  0.62500000862E+02  0.10000000816E+02 0.  0.
    3000022    2    5    5    0    0 -0.56239772894E+02 -0.18952341853E+02 -0.12378581818E+02  0.60625036930E+02  0.24999629047E+00 0.  0.
        -13    1    4    4    0    0  0.16907854725E+02  0.51533824183E+01  0.24434548676E+01  0.17844169873E+02  0.10500000000E+00 0.  1.
         13    1    4    4    0    0  0.30217725573E+02  0.93772095657E+01  0.43966693962E+01  0.31943461379E+02  0.10500000000E+00 0. -1.
    3000001    1    5    5    0    0 -0.11853623602E+01  0.66426741228E+00 -0.81801871868E+00  0.18749639314E+01  0.10000000000E+01 0.  1.
        -13    1    6    6    0    0 -0.30266140961E+02 -0.10158836510E+02 -0.67151969492E+01  0.32624318276E+02  0.10500000000E+00 0.  1.
         13    1    6    6    0    0 -0.25973631933E+02 -0.87935053424E+01 -0.56633848690E+01  0.28000718654E+02  0.10500000000E+00 0. -1.
</event>
<event>
11    0  0.3439373E-009  0.9118800E+02  0.7816531E-02  0.1126479E+00
         25   -1    0    0    0    0  0.00000000000E+00  0.00000000000E+00  0.99999998245E-14  0.12500000000E+03  0.12500000000E+03 0.  0.
    3000001    1    3    3    0    0  0.14405738506E+02  0.34870137441E+01  0.12921319957E+02  0.19688704279E+02  0.10000000000E+01 0.  1.
    1000022    2    1    0    0    0  0.37861239163E+02  0.23108971633E+02  0.42880673596E+02  0.62500000838E+02  0.99999967897E+01 0.  0.
    3000022    2    3    3    0    0  0.23455500657E+02  0.19621957889E+02  0.29959353640E+02  0.42811296559E+02  0.25000023411E+00 0.  0.
    1000022    2    1    0    0    0 -0.37861239163E+02 -0.23108971633E+02 -0.42880673596E+02  0.62499999162E+02  0.99999863118E+01 0.  0.
    3000022    2    5    5    0    0 -0.32485828642E+02 -0.19689392620E+02 -0.40745248145E+02  0.55706723019E+02  0.24999755700E+00 0.  0.
        -13    1    4    4    0    0  0.15553446469E+02  0.12998979725E+02  0.19932801069E+02  0.28429047723E+02  0.10500000000E+00 0.  1.
         13    1    4    4    0    0  0.79020541878E+01  0.66229781638E+01  0.10026552571E+02  0.14382248837E+02  0.10500000000E+00 0. -1.
    3000001    1    5    5    0    0 -0.53754105210E+01 -0.34195790130E+01 -0.21354254511E+01  0.67932761428E+01  0.10000000000E+01 0. -1.
        -13    1    6    6    0    0 -0.16147858873E+02 -0.97433544031E+01 -0.20312054965E+02  0.27717808411E+02  0.10500000000E+00 0. -1.
         13    1    6    6    0    0 -0.16337969770E+02 -0.99460382170E+01 -0.20433193180E+02  0.27988914608E+02  0.10500000000E+00 0.  1.
</event>
<event>
11    0  0.3439373E-009  0.9118800E+02  0.7816531E-02  0.1126479E+00
         25   -1    0    0    0    0  0.00000000000E+00  0.00000000000E+00  0.99999998245E-14  0.12500000000E+03  0.12500000000E+03 0.  0.
    3000001    1    3    3    0    0 -0.21238907456E+02  0.17182089293E+01  0.12734326004E+02  0.24843640849E+02  0.10000000000E+01 0. -1.
    1000022    2    1    0    0    0 -0.49695634925E+02 -0.65487854767E+01  0.35968142184E+02  0.62499998303E+02  0.99999906943E+01 0.  0.
    3000022    2    3    3    0    0 -0.28456727470E+02 -0.82669944060E+01  0.23233816180E+02  0.37656357455E+02  0.25001536407E+00 0.  0.
    1000022    2    1    0    0    0  0.49695634925E+02  0.65487854767E+01 -0.35968142184E+02  0.62500001697E+02  0.10000011902E+02 0.  0.
    3000022    2    5    5    0    0  0.24983509440E+02  0.71219223175E+01 -0.22289147771E+02  0.34231069633E+02  0.24999690628E+00 0.  0.
        -13    1    4    4    0    0 -0.76013786003E+01 -0.22442625057E+01  0.62212550859E+01  0.10076344112E+02  0.10500000000E+00 0. -1.
         13    1    4    4    0    0 -0.20855348869E+02 -0.60227319002E+01  0.17012561094E+02  0.27580013343E+02  0.10500000000E+00 0. -1.
    3000001    1    5    5    0    0  0.24712125485E+02 -0.57313684077E+00 -0.13678994413E+02  0.28268932063E+02  0.10000000000E+01 0. -1.
        -13    1    6    6    0    0  0.71867743215E+01  0.20898046161E+01 -0.64418282022E+01  0.98754839916E+01  0.10500000000E+00 0.  1.
         13    1    6    6    0    0  0.17796735118E+02  0.50321177014E+01 -0.15847319568E+02  0.24355585642E+02  0.10500000000E+00 0. -1.
</event>
<event>
11    0  0.3439373E-009  0.9118800E+02  0.7816531E-02  0.1126479E+00
         25   -1    0    0    0    0  0.00000000000E+00  0.00000000000E+00  0.99999998245E-14  0.12500000000E+03  0.12500000000E+03 0.  0.
    3000001    1    3    3    0    0  0.25046571067E+02 -0.46566461698E+02 -0.29104676038E+02  0.60364296107E+02  0.10000000000E+01 0.  1.
    1000022    2    1    0    0    0  0.24804532216E+02 -0.47134609747E+02 -0.31133803354E+02  0.62499999739E+02  0.10000000077E+02 0.  0.
    3000022    2    3    3    0    0 -0.24203885119E+00 -0.56814804961E+00 -0.20291273166E+01  0.21357036314E+01  0.24999464535E+00 0.  0.
    1000022    2    1    0    0    0 -0.24804532216E+02  0.47134609747E+02  0.31133803354E+02  0.62500000261E+02  0.10000003344E+02 0.  0.
    3000022    2    5    5    0    0 -0.25255953160E+02  0.46394088890E+02  0.30749046079E+02  0.61121526406E+02  0.25000288721E+00 0.  0.
        -13    1    4    4    0    0 -0.37552521531E-01 -0.21458934379E+00 -0.64946718662E+00  0.69303059445E+00  0.10500000000E+00 0. -1.
         13    1    4    4    0    0 -0.20448632966E+00 -0.35355870582E+00 -0.13796601300E+01  0.14426730370E+01  0.10500000000E+00 0.  1.
    3000001    1    5    5    0    0  0.45142094445E+00  0.74052085698E+00  0.38475727578E+00  0.13784738554E+01  0.10000000000E+01 0.  1.
        -13    1    6    6    0    0 -0.62109769162E+01  0.11431889541E+02  0.75984111546E+01  0.15066891179E+02  0.10500000000E+00 0.  1.
         13    1    6    6    0    0 -0.19044976244E+02  0.34962199349E+02  0.23150634924E+02  0.46054635227E+02  0.10500000000E+00 0. -1.
</event>
<event>
11    0  0.3439373E-009  0.9118800E+02  0.7816531E-02  0.1126479E+00
         25   -1    0    0    0    0  0.00000000000E+00  0.00000000000E+00  0.99999998245E-14  0.12500000000E+03  0.12500000000E+03 0.  0.
    3000001    1    3    3    0    0  0.78282260644E+01  0.24386524896E+02 -0.48815589740E+02  0.55135700970E+02  0.10000000000E+01 0.  1.
    1000022    2    1    0    0    0  0.58808051112E+01  0.25653456720E+02 -0.55799343001E+02  0.62499998046E+02  0.99999682981E+01 0.  0.
    3000022    2    3    3    0    0 -0.19474209533E+01  0.12669318245E+01 -0.69837532614E+01  0.73642970763E+01  0.24999438868E+00 0.  0.
    1000022    2    1    0    0    0 -0.58808051112E+01 -0.25653456720E+02  0.55799343001E+02  0.62500001954E+02  0.99999927173E+01 0.  0.
    3000022    2    5    5    0    0 -0.28584905867E+01 -0.24612440904E+02  0.49989105985E+02  0.55793516048E+02  0.25000026213E+00 0.  0.
        -13    1    4    4    0    0 -0.86001672819E+00  0.48431860458E+00 -0.29151305328E+01  0.30794811749E+01  0.10500000000E+00 0.  1.
         13    1    4    4    0    0 -0.10874042251E+01  0.78261321993E+00 -0.40686227286E+01  0.42848159014E+01  0.10500000000E+00 0. -1.
    3000001    1    5    5    0    0 -0.30223145245E+01 -0.10410158164E+01  0.58102370161E+01  0.67064859053E+01  0.10000000000E+01 0. -1.
        -13    1    6    6    0    0 -0.10728643955E+01 -0.97528154905E+01  0.19839644533E+02  0.22133480707E+02  0.10500000000E+00 0. -1.
         13    1    6    6    0    0 -0.17856261912E+01 -0.14859625413E+02  0.30149461452E+02  0.33660035341E+02  0.10500000000E+00 0.  1.
</event>
<event>
11    0  0.3439373E-009  0.9118800E+02  0.7816531E-02  0.1126479E+00
         25   -1    0    0    0    0  0.00000000000E+00  0.00000000000E+00  0.99999998245E-14  0.12500000000E+03  0.12500000000E+03 0.  0.
    3000001    1    3    3    0    0  0.47698194931E+01 -0.48202992431E+01  0.12618640551E+01  0.69698467475E+01  0.10000000000E+01 0. -1.
    1000022    2    1    0    0    0  0.19686571643E+02 -0.56171758719E+02  0.16230287315E+02  0.62500001472E+02  0.10000018850E+02 0.  0.
    3000022    2    3    3    0    0  0.14916752150E+02 -0.51351459476E+02  0.14968423260E+02  0.55530154725E+02  0.25000762340E+00 0.  0.
    1000022    2    1    0    0    0 -0.19686571643E+02  0.56171758719E+02 -0.16230287315E+02  0.62499998528E+02  0.10000000450E+02 0.  0.
    3000022    2    5    5    0    0  0.49600344794E+00  0.65578271917E-01  0.27576986190E+00  0.62359151185E+00  0.24999485356E+00 0.  0.
        -13    1    4    4    0    0  0.92825996275E+01 -0.31893552004E+02  0.92376156049E+01  0.34477672230E+02  0.10500000000E+00 0. -1.
         13    1    4    4    0    0  0.56341525229E+01 -0.19457907472E+02  0.57308076553E+01  0.21052482495E+02  0.10500000000E+00 0.  1.
    3000001    1    5    5    0    0 -0.20182575091E+02  0.56106180447E+02 -0.16506057177E+02  0.61876407016E+02  0.10000000000E+01 0. -1.
        -13    1    6    6    0    0  0.28617324948E+00  0.75735784544E-01  0.97955022265E-01  0.32901553788E+00  0.10500000000E+00 0.  1.
         13    1    6    6    0    0  0.20983019846E+00 -0.10157512627E-01  0.17781483964E+00  0.29457597398E+00  0.10500000000E+00 0. -1.
</event>
<event>
11    0  0.3439373E-009  0.9118800E+02  0.7816531E-02  0.1126479E+00
         25   -1    0    0    0    0  0.00000000000E+00  0.00000000000E+00  0.99999998245E-14  0.12500000000E+03  0.12500000000E+03 0.  0.
    3000001    1    3    3    0    0  0.36699937363E+02 -0.20915324091E+02 -0.10540254445E+02  0.43548055617E+02  0.10000000000E+01 0. -1.
    1000022    2    1    0    0    0  0.49507806089E+02 -0.30343389190E+02 -0.20844804116E+02  0.62499998984E+02  0.99999941522E+01 0.  0.
    3000022    2    3    3    0    0  0.12807868727E+02 -0.94280650988E+01 -0.10304549671E+02  0.18951943367E+02  0.25000125688E+00 0.  0.
    1000022    2    1    0    0    0 -0.49507806089E+02  0.30343389190E+02  0.20844804116E+02  0.62500001016E+02  0.10000006853E+02 0.  0.
    3000022    2    5    5    0    0 -0.17177642687E+02  0.10760314295E+02  0.23486543861E+01  0.20406725511E+02  0.24999324422E+00 0.  0.
        -13    1    4    4    0    0  0.44120443570E+01 -0.33168595582E+01 -0.35844289067E+01  0.65823132958E+01  0.10500000000E+00 0. -1.
         13    1    4    4    0    0  0.83958243696E+01 -0.61112055406E+01 -0.67201207647E+01  0.12369630071E+02  0.10500000000E+00 0.  1.
    3000001    1    5    5    0    0 -0.32330163402E+02  0.19583074895E+02  0.18496149730E+02  0.42093275506E+02  0.10000000000E+01 0. -1.
        -13    1    6    6    0    0 -0.47586676365E+01  0.30269096433E+01  0.65588023731E+00  0.56787589796E+01  0.10500000000E+00 0.  1.
         13    1    6    6    0    0 -0.12418975051E+02  0.77334046519E+01  0.16927741487E+01  0.14727966531E+02  0.10500000000E+00 0. -1.
</event>
<event>
11    0  0.3439373E-009  0.9118800E+02  0.7816531E-02  0.1126479E+00
         25   -1    0    0    0    0  0.00000000000E+00  0.00000000000E+00  0.99999998245E-14  0.12500000000E+03  0.12500000000E+03 0.  0.
    3000001    1    3    3    0    0 -0.10229665378E+02  0.37078706896E+02 -0.26663853986E+02  0.46812793852E+02  0.10000000000E+01 0.  1.
    1000022    2    1    0    0    0 -0.12642700412E+02  0.52077755735E+02 -0.30566640135E+02  0.62500000104E+02  0.10000000386E+02 0.  0.
    3000022    2    3    3    0    0 -0.24130350344E+01  0.14999048839E+02 -0.39027861492E+01  0.15687206252E+02  0.24999223262E+00 0.  0.
    1000022    2    1    0    0    0  0.12642700412E+02 -0.52077755735E+02  0.30566640135E+02  0.62499999896E+02  0.99999990813E+01 0.  0.
    3000022    2    5    5    0    0  0.77137650652E+01 -0.13789562540E+02  0.10581164533E+02  0.19017826803E+02  0.24997379109E+00 0.  0.
        -13    1    4    4    0    0 -0.17575996970E+01  0.11103827784E+02 -0.28734673853E+01  0.11603964321E+02  0.10500000000E+00 0.  1.
         13    1    4    4    0    0 -0.65543533734E+00  0.38952210553E+01 -0.10293187639E+01  0.40832419313E+01  0.10500000000E+00 0. -1.
    3000001    1    5    5    0    0  0.49289353470E+01 -0.38288193196E+02  0.19985475603E+02  0.43482173093E+02  0.10000000000E+01 0.  1.
        -13    1    6    6    0    0  0.23873391095E+01 -0.43308012835E+01  0.33581674017E+01  0.59785902250E+01  0.10500000000E+00 0.  1.
         13    1    6    6    0    0  0.53264259557E+01 -0.94587612564E+01  0.72229971312E+01  0.13039236578E+02  0.10500000000E+00 0. -1.
</event>
<event>
11    0  0.3439373E-009  0.9118800E+02  0.7816531E-02  0.1126479E+00
         25   -1    0    0    0    0  0.00000000000E+00  0.00000000000E+00  0.99999998245E-14  0.12500000000E+03  0.12500000000E+03 0.  0.
    3000001    1    3    3    0    0  0.23057380645E+01  0.12533924516E+01 -0.94739195210E+01  0.98814255930E+01  0.10000000000E+01 0.  1.
    1000022    2    1    0    0    0  0.10538038679E+02  0.28914258101E+02 -0.53471165205E+02  0.62500000172E+02  0.99999966212E+01 0.  0.
    3000022    2    3    3    0    0  0.82323006142E+01  0.27660865649E+02 -0.43997245684E+02  0.52618574579E+02  0.25000219814E+00 0.  0.
    1000022    2    1    0    0    0 -0.10538038679E+02 -0.28914258101E+02  0.53471165205E+02  0.62499999828E+02  0.99999944675E+01 0.  0.
    3000022    2    5    5    0    0 -0.10896824569E+02 -0.20898981154E+02  0.44939526189E+02  0.50745755651E+02  0.25000720926E+00 0.  0.
        -13    1    4    4    0    0  0.54470637660E+01  0.18206102555E+02 -0.29057473461E+02  0.34720029707E+02  0.10500000000E+00 0. -1.
         13    1    4    4    0    0  0.27852368482E+01  0.94547630935E+01 -0.14939772224E+02  0.17898544872E+02  0.10500000000E+00 0.  1.
    3000001    1    5    5    0    0  0.35878589008E+00 -0.80152769469E+01  0.85316390166E+01  0.11754244176E+02  0.10000000000E+01 0.  1.
        -13    1    6    6    0    0 -0.34808157176E+01 -0.65867346249E+01  0.14144987168E+02  0.15987271126E+02  0.10500000000E+00 0.  1.
         13    1    6    6    0    0 -0.74160088512E+01 -0.14312246529E+02  0.30794539021E+02  0.34758484525E+02  0.10500000000E+00 0. -1.
</event>
<event>
11    0  0.3439373E-009  0.9118800E+02  0.7816531E-02  0.1126479E+00
         25   -1    0    0    0    0  0.00000000000E+00  0.00000000000E+00  0.99999998245E-14  0.12500000000E+03  0.12500000000E+03 0.  0.
    3000001    1    3    3    0    0 -0.32429915458E+02 -0.30351945577E+02 -0.40283284581E+01  0.44611292820E+02  0.10000000000E+01 0. -1.
    1000022    2    1    0    0    0 -0.48656134279E+02 -0.37811292825E+02 -0.30226960830E+01  0.62500000072E+02  0.10000002467E+02 0.  0.
    3000022    2    3    3    0    0 -0.16226218821E+02 -0.74593472483E+01  0.10056323750E+01  0.17888707252E+02  0.25002416504E+00 0.  0.
    1000022    2    1    0    0    0  0.48656134279E+02  0.37811292825E+02  0.30226960830E+01  0.62499999928E+02  0.10000001566E+02 0.  0.
    3000022    2    5    5    0    0  0.38484856463E+02  0.24739858916E+02  0.36372517141E+01  0.45895935502E+02  0.24999876213E+00 0.  0.
        -13    1    4    4    0    0 -0.11259487277E+02 -0.51371781646E+01  0.72892595824E+00  0.12397943833E+02  0.10500000000E+00 0.  1.
         13    1    4    4    0    0 -0.49667315439E+01 -0.23221690837E+01  0.27670641681E+00  0.54907634190E+01  0.10500000000E+00 0. -1.
    3000001    1    5    5    0    0  0.10171277816E+02  0.13071433909E+02 -0.61455563112E+00  0.16604064426E+02  0.10000000000E+01 0.  1.
        -13    1    6    6    0    0  0.14944606806E+02  0.96672585314E+01  0.13793020082E+01  0.17852469273E+02  0.10500000000E+00 0. -1.
         13    1    6    6    0    0  0.23540249657E+02  0.15072600385E+02  0.22579497060E+01  0.28043466229E+02  0.10500000000E+00 0.  1.
</event>
<event>
11    0  0.3439373E-009  0.9118800E+02  0.7816531E-02  0.1126479E+00
         25   -1    0    0    0    0  0.00000000000E+00  0.00000000000E+00  0.99999998245E-14  0.12500000000E+03  0.12500000000E+03 0.  0.
    3000001    1    3    3    0    0  0.22396976482E+02  0.51166064951E+02 -0.11829064883E+01  0.55874770925E+02  0.10000000000E+01 0.  1.
    1000022    2    1    0    0    0  0.22968222305E+02  0.57243384657E+02  0.13804961848E+01  0.62500000433E+02  0.99999980787E+01 0.  0.
    3000022    2    3    3    0    0  0.57124582378E+00  0.60773197060E+01  0.25634026730E+01  0.66252295088E+01  0.24999236145E+00 0.  0.
    1000022    2    1    0    0    0 -0.22968222305E+02 -0.57243384657E+02 -0.13804961848E+01  0.62499999567E+02  0.99999926609E+01 0.  0.
    3000022    2    5    5    0    0 -0.22194046129E+02 -0.54228882278E+02  0.74623305204E+00  0.58600057183E+02  0.24996282376E+00 0.  0.
        -13    1    4    4    0    0  0.24027023935E+00  0.19999773004E+01  0.85633288641E+00  0.21913397733E+01  0.10500000000E+00 0.  1.
         13    1    4    4    0    0  0.33097558443E+00  0.40773424056E+01  0.17070697866E+01  0.44338897355E+01  0.10500000000E+00 0. -1.
    3000001    1    5    5    0    0 -0.77417617640E+00 -0.30145023792E+01 -0.21267292368E+01  0.38999423833E+01  0.10000000000E+01 0. -1.
        -13    1    6    6    0    0 -0.98187247845E+01 -0.23824451115E+02  0.30850630229E+00  0.25770487548E+02  0.10500000000E+00 0.  1.
         13    1    6    6    0    0 -0.12375321344E+02 -0.30404431163E+02  0.43772674975E+00  0.32829569635E+02  0.10500000000E+00 0. -1.
</event>
<event>
11    0  0.3439373E-009  0.9118800E+02  0.7816531E-02  0.1126479E+00
         25   -1    0    0    0    0  0.00000000000E+00  0.00000000000E+00  0.99999998245E-14  0.12500000000E+03  0.12500000000E+03 0.  0.
    3000001    1    3    3    0    0 -0.26180560499E+02  0.48287303110E+02 -0.28384383687E+02  0.61836547664E+02  0.10000000000E+01 0. -1.
    1000022    2    1    0    0    0 -0.26653630364E+02  0.47903440067E+02 -0.28303621049E+02  0.62500002285E+02  0.99999869689E+01 0.  0.
    3000022    2    3    3    0    0 -0.47306986411E+00 -0.38386304276E+00  0.80762638339E-01  0.66345462150E+00  0.25000699810E+00 0.  0.
    1000022    2    1    0    0    0  0.26653630364E+02 -0.47903440067E+02  0.28303621049E+02  0.62499997715E+02  0.99999584046E+01 0.  0.
    3000022    2    5    5    0    0 -0.76022050266E-01 -0.33487629617E+00 -0.60778724889E+00  0.74149945657E+00  0.24998923640E+00 0.  0.
        -13    1    4    4    0    0 -0.36560802116E+00 -0.23816995118E+00  0.43766877815E-01  0.45092648001E+00  0.10500000000E+00 0. -1.
         13    1    4    4    0    0 -0.10746184295E+00 -0.14569309158E+00  0.36995760523E-01  0.21252814148E+00  0.10500000000E+00 0.  1.
    3000001    1    5    5    0    0  0.26729652414E+02 -0.47568563771E+02  0.28911408298E+02  0.61758498258E+02  0.10000000000E+01 0. -1.
        -13    1    6    6    0    0  0.24811770153E-01 -0.96371305823E-01 -0.18794895144E+00  0.23717685568E+00  0.10500000000E+00 0.  1.
         13    1    6    6    0    0 -0.10083382042E+00 -0.23850499035E+00 -0.41983829745E+00  0.50432260089E+00  0.10500000000E+00 0. -1.
</event>
<event>
11    0  0.3439373E-009  0.9118800E+02  0.7816531E-02  0.1126479E+00
         25   -1    0    0    0    0  0.00000000000E+00  0.00000000000E+00  0.99999998245E-14  0.12500000000E+03  0.12500000000E+03 0.  0.
    3000001    1    3    3    0    0  0.38431132400E+01 -0.36118703018E+01  0.20372222098E+02  0.21067571281E+02  0.10000000000E+01 0.  1.
    1000022    2    1    0    0    0  0.21763770667E+02 -0.17943935177E+02  0.54868968233E+02  0.62499998674E+02  0.99999817970E+01 0.  0.
    3000022    2    3    3    0    0  0.17920657427E+02 -0.14332064875E+02  0.34496746135E+02  0.41432427393E+02  0.24999910973E+00 0.  0.
    1000022    2    1    0    0    0 -0.21763770667E+02  0.17943935177E+02 -0.54868968233E+02  0.62500001326E+02  0.99999983777E+01 0.  0.
    3000022    2    5    5    0    0  0.47249697648E+00  0.26162556841E+01 -0.30268249839E+01  0.40363615661E+01  0.24999602378E+00 0.  0.
        -13    1    4    4    0    0  0.12207247348E+02 -0.97482870083E+01  0.23573262533E+02  0.28279952597E+02  0.10500000000E+00 0.  1.
         13    1    4    4    0    0  0.57134100794E+01 -0.45837778666E+01  0.10923483602E+02  0.13152474796E+02  0.10500000000E+00 0. -1.
    3000001    1    5    5    0    0 -0.22236267644E+02  0.15327679493E+02 -0.51842143249E+02  0.58463639760E+02  0.10000000000E+01 0.  1.
        -13    1    6    6    0    0  0.16072140301E+00  0.74839763856E+00 -0.82480244384E+00  0.11301568325E+01  0.10500000000E+00 0. -1.
         13    1    6    6    0    0  0.31177557346E+00  0.18678580455E+01 -0.22020225400E+01  0.29062047335E+01  0.10500000000E+00 0.  1.
</event>
<event>
11    0  0.3439373E-009  0.9118800E+02  0.7816531E-02  0.1126479E+00
         25   -1    0    0    0    0  0.00000000000E+00  0.00000000000E+00  0.99999998245E-14  0.12500000000E+03  0.12500000000E+03 0.  0.
    3000001    1    3    3    0    0 -0.70529013357E+01  0.36265889924E+02  0.44906713806E+01  0.37230690548E+02  0.10000000000E+01 0.  1.
    1000022    2    1    0    0    0 -0.41659400556E+01  0.61366600276E+02  0.47995588835E+01  0.62500002336E+02  0.99999920241E+01 0.  0.
    3000022    2    3    3    0    0  0.28869612801E+01  0.25100710353E+02  0.30888750292E+00  0.25269311788E+02  0.25000223551E+00 0.  0.
    1000022    2    1    0    0    0  0.41659400556E+01 -0.61366600276E+02 -0.47995588835E+01  0.62499997664E+02  0.99999628248E+01 0.  0.
    3000022    2    5    5    0    0  0.15538724804E+01 -0.12789173143E+01  0.57421156901E+00  0.21076972471E+01  0.25003915140E+00 0.  0.
        -13    1    4    4    0    0  0.11436324052E+01  0.94552247820E+01  0.13975355996E+00  0.95257402239E+01  0.10500000000E+00 0.  1.
         13    1    4    4    0    0  0.17433288749E+01  0.15645485571E+02  0.16913394295E+00  0.15743571564E+02  0.10500000000E+00 0. -1.
    3000001    1    5    5    0    0  0.26120675752E+01 -0.60087682962E+02 -0.53737704525E+01  0.60392300417E+02  0.10000000000E+01 0.  1.
        -13    1    6    6    0    0  0.67617577596E+00 -0.64154179343E+00  0.28058240829E+00  0.97905109191E+00  0.10500000000E+00 0. -1.
         13    1    6    6    0    0  0.87769670449E+00 -0.63737552091E+00  0.29362916072E+00  0.11286461552E+01  0.10500000000E+00 0.  1.
</event>
<event>
11    0  0.3439373E-009  0.9118800E+02  0.7816531E-02  0.1126479E+00
         25   -1    0    0    0    0  0.00000000000E+00  0.00000000000E+00  0.99999998245E-14  0.12500000000E+03  0.12500000000E+03 0.  0.
    3000001    1    3    3    0    0  0.34173935675E+02  0.36782334061E+02  0.25462795188E+02  0.56304102135E+02  0.10000000000E+01 0.  1.
    1000022    2    1    0    0    0  0.39899866086E+02  0.38456386773E+02  0.27117466911E+02  0.62499999915E+02  0.99999990185E+01 0.  0.
    3000022    2    3    3    0    0  0.57259304117E+01  0.16740527119E+01  0.16546717237E+01  0.61958977801E+01  0.24995844825E+00 0.  0.
    1000022    2    1    0    0    0 -0.39899866086E+02 -0.38456386773E+02 -0.27117466911E+02  0.62500000085E+02  0.10000000079E+02 0.  0.
    3000022    2    5    5    0    0  0.36408564832E+00 -0.89281181056E+00  0.21051517701E+00  0.10180793417E+01  0.24999523569E+00 0.  0.
        -13    1    4    4    0    0  0.33567792095E+01  0.92527228591E+00  0.10022124863E+01  0.36248517669E+01  0.10500000000E+00 0.  1.
         13    1    4    4    0    0  0.23691512023E+01  0.74878042599E+00  0.65245923742E+00  0.25710460132E+01  0.10500000000E+00 0. -1.
    3000001    1    5    5    0    0 -0.40263951735E+02 -0.37563574963E+02 -0.27327982088E+02  0.61481920743E+02  0.10000000000E+01 0.  1.
        -13    1    6    6    0    0  0.26188560644E+00 -0.53570305249E+00  0.17606720483E+00  0.63054459948E+00  0.10500000000E+00 0. -1.
         13    1    6    6    0    0  0.10220004188E+00 -0.35710875807E+00  0.34447972183E-01  0.38753474223E+00  0.10500000000E+00 0.  1.
</event>
<event>
11    0  0.3439373E-009  0.9118800E+02  0.7816531E-02  0.1126479E+00
         25   -1    0    0    0    0  0.00000000000E+00  0.00000000000E+00  0.99999998245E-14  0.12500000000E+03  0.12500000000E+03 0.  0.
    3000001    1    3    3    0    0  0.11366155026E+02 -0.76467035830E+00  0.39967121842E+02  0.41570963775E+02  0.10000000000E+01 0. -1.
    1000022    2    1    0    0    0  0.13660670299E+02 -0.72822977947E+01  0.59721052964E+02  0.62500000190E+02  0.10000004124E+02 0.  0.
    3000022    2    3    3    0    0  0.22945152723E+01 -0.65176274364E+01  0.19753931122E+02  0.20929036416E+02  0.25000553700E+00 0.  0.
    1000022    2    1    0    0    0 -0.13660670299E+02  0.72822977947E+01 -0.59721052964E+02  0.62499999810E+02  0.10000001744E+02 0.  0.
    3000022    2    5    5    0    0 -0.53026883456E+01  0.74794597498E+01 -0.40330327474E+02  0.41360109313E+02  0.25001281339E+00 0.  0.
        -13    1    4    4    0    0  0.91119608385E+00 -0.27412517856E+01  0.83804001347E+01  0.88649236361E+01  0.10500000000E+00 0. -1.
         13    1    4    4    0    0  0.13833191885E+01 -0.37763756507E+01  0.11373530988E+02  0.12064112780E+02  0.10500000000E+00 0.  1.
    3000001    1    5    5    0    0 -0.83579819530E+01 -0.19716195511E+00 -0.19390725490E+02  0.21139890496E+02  0.10000000000E+01 0. -1.
        -13    1    6    6    0    0 -0.27964475262E+01  0.38297378058E+01 -0.20918210433E+02  0.21449232228E+02  0.10500000000E+00 0. -1.
         13    1    6    6    0    0 -0.25062408193E+01  0.36497219440E+01 -0.19412117041E+02  0.19910877086E+02  0.10500000000E+00 0.  1.
</event>
<event>
11    0  0.3439373E-009  0.9118800E+02  0.7816531E-02  0.1126479E+00
         25   -1    0    0    0    0  0.00000000000E+00  0.00000000000E+00  0.99999998245E-14  0.12500000000E+03  0.12500000000E+03 0.  0.
    3000001    1    3    3    0    0  0.13161791153E+01 -0.10483483331E+01  0.40906688701E+00  0.19996743258E+01  0.10000000000E+01 0.  1.
    1000022    2    1    0    0    0  0.38968435284E+02 -0.35383291762E+01  0.47698965449E+02  0.62499999994E+02  0.99999986259E+01 0.  0.
    3000022    2    3    3    0    0  0.37652256169E+02 -0.24899808431E+01  0.47289898562E+02  0.60500325669E+02  0.25000155963E+00 0.  0.
    1000022    2    1    0    0    0 -0.38968435284E+02  0.35383291762E+01 -0.47698965449E+02  0.62500000006E+02  0.99999986963E+01 0.  0.
    3000022    2    5    5    0    0 -0.26640073392E+02  0.35648187772E+01 -0.25299739184E+02  0.36912609636E+02  0.25000824127E+00 0.  0.
        -13    1    4    4    0    0  0.22229254379E+02 -0.14313452021E+01  0.27997510500E+02  0.35777927812E+02  0.10500000000E+00 0. -1.
         13    1    4    4    0    0  0.15423001790E+02 -0.10586356410E+01  0.19292388062E+02  0.24722397856E+02  0.10500000000E+00 0.  1.
    3000001    1    5    5    0    0 -0.12328361892E+02 -0.26489600997E-01 -0.22399226265E+02  0.25587390370E+02  0.10000000000E+01 0.  1.
        -13    1    6    6    0    0 -0.12912712285E+02  0.17208557311E+01 -0.12169684788E+02  0.17827275054E+02  0.10500000000E+00 0. -1.
         13    1    6    6    0    0 -0.13727361107E+02  0.18439630461E+01 -0.13130054396E+02  0.19085334582E+02  0.10500000000E+00 0.  1.
</event>
<event>
11    0  0.3439373E-009  0.9118800E+02  0.7816531E-02  0.1126479E+00
         25   -1    0    0    0    0  0.00000000000E+00  0.00000000000E+00  0.99999998245E-14  0.12500000000E+03  0.12500000000E+03 0.  0.
    3000001    1    3    3    0    0 -0.68435208451E+00  0.50349027184E+01  0.46109569708E+00  0.51991530465E+01  0.10000000000E+01 0.  1.
    1000022    2    1    0    0    0  0.42071443915E+01  0.52083031125E+02  0.32801032401E+02  0.62500000603E+02  0.10000007688E+02 0.  0.
    3000022    2    3    3    0    0  0.48914964760E+01  0.47048128407E+02  0.32339936704E+02  0.57300847557E+02  0.25000076232E+00 0.  0.
    1000022    2    1    0    0    0 -0.42071443915E+01 -0.52083031125E+02 -0.32801032401E+02  0.62499999397E+02  0.10000000147E+02 0.  0.
    3000022    2    5    5    0    0 -0.62882123002E+01 -0.30290133471E+02 -0.22686004207E+02  0.38363408355E+02  0.25002809839E+00 0.  0.
        -13    1    4    4    0    0  0.26330395628E+01  0.25177859959E+02  0.17387146978E+02  0.30711259083E+02  0.10500000000E+00 0.  1.
         13    1    4    4    0    0  0.22584569132E+01  0.21870268448E+02  0.14952789726E+02  0.26589588473E+02  0.10500000000E+00 0. -1.
    3000001    1    5    5    0    0  0.20810679088E+01 -0.21792897654E+02 -0.10115028194E+02  0.24136591042E+02  0.10000000000E+01 0. -1.
        -13    1    6    6    0    0 -0.21315491358E+01 -0.10180475488E+02 -0.75642878415E+01  0.12861378559E+02  0.10500000000E+00 0.  1.
         13    1    6    6    0    0 -0.41566631644E+01 -0.20109657983E+02 -0.15121716366E+02  0.25502029796E+02  0.10500000000E+00 0. -1.
</event>
<event>
11    0  0.3439373E-009  0.9118800E+02  0.7816531E-02  0.1126479E+00
         25   -1    0    0    0    0  0.00000000000E+00  0.00000000000E+00  0.99999998245E-14  0.12500000000E+03  0.12500000000E+03 0.  0.
    3000001    1    3    3    0    0  0.63378219293E+00 -0.95911907514E+01 -0.39171164612E+01  0.10427675737E+02  0.10000000000E+01 0.  1.
    1000022    2    1    0    0    0  0.24592599132E+02 -0.53237770517E+02 -0.19162304241E+02  0.62500001227E+02  0.10000005391E+02 0.  0.
    3000022    2    3    3    0    0  0.23958816939E+02 -0.43646579766E+02 -0.15245187779E+02  0.52072325490E+02  0.24999429218E+00 0.  0.
    1000022    2    1    0    0    0 -0.24592599132E+02  0.53237770517E+02  0.19162304241E+02  0.62499998773E+02  0.99999900566E+01 0.  0.
    3000022    2    5    5    0    0 -0.16929670409E+02  0.36352547696E+02  0.81866429746E+01  0.40929269380E+02  0.25000925648E+00 0.  0.
        -13    1    4    4    0    0  0.12316802801E+02 -0.22422714073E+02 -0.79036090781E+01  0.26776105003E+02  0.10500000000E+00 0. -1.
         13    1    4    4    0    0  0.11642014138E+02 -0.21223865692E+02 -0.73415787012E+01  0.25296220487E+02  0.10500000000E+00 0.  1.
    3000001    1    5    5    0    0 -0.76629287232E+01  0.16885222821E+02  0.10975661266E+02  0.21570729393E+02  0.10000000000E+01 0. -1.
        -13    1    6    6    0    0 -0.62522834098E+01  0.13538445974E+02  0.30076551273E+01  0.15213072720E+02  0.10500000000E+00 0.  1.
         13    1    6    6    0    0 -0.10677386999E+02  0.22814101723E+02  0.51789878473E+01  0.25716196660E+02  0.10500000000E+00 0. -1.
</event>
<event>
11    0  0.3439373E-009  0.9118800E+02  0.7816531E-02  0.1126479E+00
         25   -1    0    0    0    0  0.00000000000E+00  0.00000000000E+00  0.99999998245E-14  0.12500000000E+03  0.12500000000E+03 0.  0.
    3000001    1    3    3    0    0  0.42660008655E+01 -0.19956678472E+02 -0.31147587125E+01  0.20668079273E+02  0.10000000000E+01 0. -1.
    1000022    2    1    0    0    0  0.25310149315E+02 -0.56081178781E+02 -0.45329669794E+01  0.62499999184E+02  0.99999918297E+01 0.  0.
    3000022    2    3    3    0    0  0.21044148449E+02 -0.36124500309E+02 -0.14182082669E+01  0.41831919910E+02  0.25000440285E+00 0.  0.
    1000022    2    1    0    0    0 -0.25310149315E+02  0.56081178781E+02  0.45329669794E+01  0.62500000816E+02  0.10000002031E+02 0.  0.
    3000022    2    5    5    0    0 -0.23972805666E+02  0.55431821921E+02  0.36545126720E+01  0.60504547400E+02  0.25000053764E+00 0.  0.
        -13    1    4    4    0    0  0.12482587953E+02 -0.21340507855E+02 -0.88510048416E+00  0.24739173498E+02  0.10500000000E+00 0. -1.
         13    1    4    4    0    0  0.85615604965E+01 -0.14783992454E+02 -0.53310778272E+00  0.17092746412E+02  0.10500000000E+00 0.  1.
    3000001    1    5    5    0    0 -0.13373436481E+01  0.64935685986E+00  0.87845430737E+00  0.19954534158E+01  0.10000000000E+01 0. -1.
        -13    1    6    6    0    0 -0.15505136992E+02  0.35750105212E+02  0.23174243142E+01  0.39036659389E+02  0.10500000000E+00 0.  1.
         13    1    6    6    0    0 -0.84676686748E+01  0.19681716709E+02  0.13370883578E+01  0.21467888011E+02  0.10500000000E+00 0. -1.
</event>
<event>
11    0  0.3439373E-009  0.9118800E+02  0.7816531E-02  0.1126479E+00
         25   -1    0    0    0    0  0.00000000000E+00  0.00000000000E+00  0.99999998245E-14  0.12500000000E+03  0.12500000000E+03 0.  0.
    3000001    1    3    3    0    0  0.29527515023E+01 -0.11060972715E+02  0.19804532232E+02  0.22897234675E+02  0.10000000000E+01 0. -1.
    1000022    2    1    0    0    0  0.19736877111E+02 -0.32187382274E+02  0.48792192661E+02  0.62499999872E+02  0.10000001180E+02 0.  0.
    3000022    2    3    3    0    0  0.16784125609E+02 -0.21126409559E+02  0.28987660429E+02  0.39602765197E+02  0.25000160649E+00 0.  0.
    1000022    2    1    0    0    0 -0.19736877111E+02  0.32187382274E+02 -0.48792192661E+02  0.62500000128E+02  0.10000002777E+02 0.  0.
    3000022    2    5    5    0    0 -0.81172088545E+01  0.21915755156E+02 -0.31909524527E+02  0.39553377340E+02  0.24999960981E+00 0.  0.
        -13    1    4    4    0    0  0.82438563091E+01 -0.10336855928E+02  0.14297015329E+02  0.19473762596E+02  0.10500000000E+00 0.  1.
         13    1    4    4    0    0  0.85402692995E+01 -0.10789553631E+02  0.14690645100E+02  0.20129002601E+02  0.10500000000E+00 0. -1.
    3000001    1    5    5    0    0 -0.11619668257E+02  0.10271627118E+02 -0.16882668134E+02  0.22946622788E+02  0.10000000000E+01 0. -1.
        -13    1    6    6    0    0 -0.60806106753E+01  0.16443717703E+02 -0.23978182074E+02  0.29704106091E+02  0.10500000000E+00 0. -1.
         13    1    6    6    0    0 -0.20365981791E+01  0.54720374523E+01 -0.79313424534E+01  0.98492712489E+01  0.10500000000E+00 0.  1.
</event>
<event>
11    0  0.3439373E-009  0.9118800E+02  0.7816531E-02  0.1126479E+00
         25   -1    0    0    0    0  0.00000000000E+00  0.00000000000E+00  0.99999998245E-14  0.12500000000E+03  0.12500000000E+03 0.  0.
    3000001    1    3    3    0    0 -0.78180320221E+01 -0.13939668314E+02  0.51406944410E+01  0.16818523025E+02  0.10000000000E+01 0.  1.
    1000022    2    1    0    0    0 -0.39742172545E+02 -0.46468727195E+02  0.82138009888E+01  0.62499995265E+02  0.99999997865E+01 0.  0.
    3000022    2    3    3    0    0 -0.31924140523E+02 -0.32529058881E+02  0.30731065478E+01  0.45681472241E+02  0.25000473979E+00 0.  0.
    1000022    2    1    0    0    0  0.39742172545E+02  0.46468727195E+02 -0.82138009888E+01  0.62500004735E+02  0.10000058971E+02 0.  0.
    3000022    2    5    5    0    0  0.24968645424E+02  0.23245719524E+02 -0.75970981618E+01  0.34951039032E+02  0.24999695551E+00 0.  0.
        -13    1    4    4    0    0 -0.94056294344E+01 -0.96057207365E+01  0.94827392718E+00  0.13477610484E+02  0.10500000000E+00 0. -1.
         13    1    4    4    0    0 -0.22518511089E+02 -0.22923338145E+02  0.21248326206E+01  0.32203861756E+02  0.10500000000E+00 0.  1.
    3000001    1    5    5    0    0  0.14773527121E+02  0.23223007671E+02 -0.61670282699E+00  0.27548965702E+02  0.10000000000E+01 0.  1.
        -13    1    6    6    0    0  0.10725511332E+02  0.10025186318E+02 -0.32093000874E+01  0.15028359394E+02  0.10500000000E+00 0. -1.
         13    1    6    6    0    0  0.14243134092E+02  0.13220533206E+02 -0.43877980744E+01  0.19922679638E+02  0.10500000000E+00 0.  1.
</event>
<event>
11    0  0.3439373E-009  0.9118800E+02  0.7816531E-02  0.1126479E+00
         25   -1    0    0    0    0  0.00000000000E+00  0.00000000000E+00  0.99999998245E-14  0.12500000000E+03  0.12500000000E+03 0.  0.
    3000001    1    3    3    0    0 -0.18538948098E+01  0.91142186661E+01 -0.78427653001E+01  0.12207164921E+02  0.10000000000E+01 0.  1.
    1000022    2    1    0    0    0 -0.39466485064E+01  0.56679238353E+02 -0.24044508264E+02  0.62500004282E+02  0.10000003143E+02 0.  0.
    3000022    2    3    3    0    0 -0.20927536967E+01  0.47565019687E+02 -0.16201742964E+02  0.50292839361E+02  0.25000008040E+00 0.  0.
    1000022    2    1    0    0    0  0.39466485064E+01 -0.56679238353E+02  0.24044508264E+02  0.62499995718E+02  0.99999496185E+01 0.  0.
    3000022    2    5    5    0    0  0.25206004678E+01 -0.46157826033E+02  0.23409123845E+02  0.51816483019E+02  0.25000505191E+00 0.  0.
        -13    1    4    4    0    0 -0.16147695790E+01  0.36472188960E+02 -0.12430775662E+02  0.38566348762E+02  0.10500000000E+00 0.  1.
         13    1    4    4    0    0 -0.47798411765E+00  0.11092830727E+02 -0.37709673028E+01  0.11726490599E+02  0.10500000000E+00 0. -1.
    3000001    1    5    5    0    0  0.14260480387E+01 -0.10521412320E+02  0.63538441944E+00  0.10683512699E+02  0.10000000000E+01 0.  1.
        -13    1    6    6    0    0  0.15703329681E+01 -0.28025641161E+02  0.14268039643E+02  0.31487941952E+02  0.10500000000E+00 0. -1.
         13    1    6    6    0    0  0.95026749971E+00 -0.18132184872E+02  0.91410842020E+01  0.20328541068E+02  0.10500000000E+00 0.  1.
</event>
<event>
11    0  0.3439373E-009  0.9118800E+02  0.7816531E-02  0.1126479E+00
         25   -1    0    0    0    0  0.00000000000E+00  0.00000000000E+00  0.99999998245E-14  0.12500000000E+03  0.12500000000E+03 0.  0.
    3000001    1    3    3    0    0 -0.44784650648E+01  0.18730314207E+02 -0.63904028765E+01  0.20315476084E+02  0.10000000000E+01 0.  1.
    1000022    2    1    0    0    0 -0.25386759268E+02  0.50800909161E+02 -0.24104564253E+02  0.62499997452E+02  0.99999872968E+01 0.  0.
    3000022    2    3    3    0    0 -0.20908294203E+02  0.32070594955E+02 -0.17714161377E+02  0.42184521368E+02  0.25000501626E+00 0.  0.
    1000022    2    1    0    0    0  0.25386759268E+02 -0.50800909161E+02  0.24104564253E+02  0.62500002548E+02  0.10000019148E+02 0.  0.
    3000022    2    5    5    0    0  0.16955390107E+02 -0.30713562517E+02  0.98273361011E+01  0.36434148930E+02  0.24999450233E+00 0.  0.
        -13    1    4    4    0    0 -0.93863069396E+01  0.14284508696E+02 -0.79361545506E+01  0.18845251940E+02  0.10500000000E+00 0. -1.
         13    1    4    4    0    0 -0.11521987263E+02  0.17786086259E+02 -0.97780068263E+01  0.23339269427E+02  0.10500000000E+00 0.  1.
    3000001    1    5    5    0    0  0.84313691605E+01 -0.20087346644E+02  0.14277228152E+02  0.26065853618E+02  0.10000000000E+01 0.  1.
        -13    1    6    6    0    0  0.85900239206E+01 -0.15664162868E+02  0.50515242664E+01  0.18565651934E+02  0.10500000000E+00 0. -1.
         13    1    6    6    0    0  0.83653661864E+01 -0.15049399649E+02  0.47758118347E+01  0.17868496996E+02  0.10500000000E+00 0.  1.
</event>
<event>
11    0  0.3439373E-009  0.9118800E+02  0.7816531E-02  0.1126479E+00
         25   -1    0    0    0    0  0.00000000000E+00  0.00000000000E+00  0.99999998245E-14  0.12500000000E+03  0.12500000000E+03 0.  0.
    3000001    1    3    3    0    0  0.29246424735E+01 -0.24230853795E+02  0.30050783776E+02  0.38726443353E+02  0.10000000000E+01 0.  1.
    1000022    2    1    0    0    0  0.11912683505E+02 -0.39758915376E+02  0.45646100835E+02  0.62499999903E+02  0.10000004314E+02 0.  0.
    3000022    2    3    3    0    0  0.89880410316E+01 -0.15528061581E+02  0.15595317060E+02  0.23773556550E+02  0.24999762915E+00 0.  0.
    1000022    2    1    0    0    0 -0.11912683505E+02  0.39758915376E+02 -0.45646100835E+02  0.62500000097E+02  0.10000005524E+02 0.  0.
    3000022    2    5    5    0    0 -0.96373442689E+01  0.18788341121E+02 -0.18256945018E+02  0.27915205611E+02  0.24999259474E+00 0.  0.
        -13    1    4    4    0    0  0.61916617439E+01 -0.10787801611E+02  0.10792593763E+02  0.16468286003E+02  0.10500000000E+00 0.  1.
         13    1    4    4    0    0  0.27963792877E+01 -0.47402599698E+01  0.48027232964E+01  0.73052705469E+01  0.10500000000E+00 0. -1.
    3000001    1    5    5    0    0 -0.22753392362E+01  0.20970574255E+02 -0.27389155817E+02  0.34584794486E+02  0.10000000000E+01 0. -1.
        -13    1    6    6    0    0 -0.62604695986E+01  0.12138728214E+02 -0.11872352051E+02  0.18097126028E+02  0.10500000000E+00 0.  1.
         13    1    6    6    0    0 -0.33768746703E+01  0.66496129069E+01 -0.63845929666E+01  0.98180795831E+01  0.10500000000E+00 0. -1.
</event>
<event>
11    0  0.3439373E-009  0.9118800E+02  0.7816531E-02  0.1126479E+00
         25   -1    0    0    0    0  0.00000000000E+00  0.00000000000E+00  0.99999998245E-14  0.12500000000E+03  0.12500000000E+03 0.  0.
    3000001    1    3    3    0    0  0.53275304829E+02 -0.39371137343E+01  0.88823422646E+01  0.54163225285E+02  0.10000000000E+01 0. -1.
    1000022    2    1    0    0    0  0.60535719837E+02 -0.80257753552E+01  0.87899708514E+01  0.62499999912E+02  0.99999977651E+01 0.  0.
    3000022    2    3    3    0    0  0.72604150075E+01 -0.40886616209E+01 -0.92371413226E-01  0.83367746273E+01  0.24999755280E+00 0.  0.
    1000022    2    1    0    0    0 -0.60535719837E+02  0.80257753552E+01 -0.87899708514E+01  0.62500000088E+02  0.99999988605E+01 0.  0.
    3000022    2    5    5    0    0 -0.50638505615E+01 -0.73083913039E+00  0.16268441878E+01  0.53745537991E+01  0.24999636697E+00 0.  0.
        -13    1    4    4    0    0  0.35555716395E+01 -0.19746628346E+01 -0.10842260834E+00  0.40699095145E+01  0.10500000000E+00 0. -1.
         13    1    4    4    0    0  0.37048433680E+01 -0.21139987863E+01  0.16051195117E-01  0.42668651128E+01  0.10500000000E+00 0.  1.
    3000001    1    5    5    0    0 -0.55471869275E+02  0.87566144855E+01 -0.10416815039E+02  0.57125446289E+02  0.10000000000E+01 0. -1.
        -13    1    6    6    0    0 -0.29799008806E+01 -0.44139340248E+00  0.10237255410E+01  0.31833435846E+01  0.10500000000E+00 0. -1.
         13    1    6    6    0    0 -0.20839496809E+01 -0.28944572791E+00  0.60311864681E+00  0.21912102145E+01  0.10500000000E+00 0.  1.
</event>
<event>
11    0  0.3439373E-009  0.9118800E+02  0.7816531E-02  0.1126479E+00
         25   -1    0    0    0    0  0.00000000000E+00  0.00000000000E+00  0.99999998245E-14  0.12500000000E+03  0.12500000000E+03 0.  0.
    3000001    1    3    3    0    0 -0.17052079082E+02  0.26711223262E+02  0.71287720474E+01  0.32497418976E+02  0.10000000000E+01 0. -1.
    1000022    2    1    0    0    0 -0.25735058879E+02  0.52382769633E+02  0.20000054234E+02  0.62499999570E+02  0.99999983482E+01 0.  0.
    3000022    2    3    3    0    0 -0.86829797972E+01  0.25671546371E+02  0.12871282186E+02  0.30002580595E+02  0.25001193482E+00 0.  0.
    1000022    2    1    0    0    0  0.25735058879E+02 -0.52382769633E+02 -0.20000054234E+02  0.62500000430E+02  0.10000003722E+02 0.  0.
    3000022    2    5    5    0    0  0.17179321744E+01 -0.51522053075E+01  0.93955857628E+00  0.55174068922E+01  0.24999601674E+00 0.  0.
        -13    1    4    4    0    0 -0.45966645698E+01  0.13517919585E+02  0.68515396228E+01  0.15837237615E+02  0.10500000000E+00 0. -1.
         13    1    4    4    0    0 -0.40863152274E+01  0.12153626787E+02  0.60197425637E+01  0.14165342980E+02  0.10500000000E+00 0.  1.
    3000001    1    5    5    0    0  0.24017126705E+02 -0.47230564325E+02 -0.20939612810E+02  0.56982593538E+02  0.10000000000E+01 0.  1.
        -13    1    6    6    0    0  0.12873376295E+01 -0.38979325639E+01  0.72941916414E+00  0.41706346953E+01  0.10500000000E+00 0. -1.
         13    1    6    6    0    0  0.43059454493E+00 -0.12542727436E+01  0.21013941214E+00  0.13467721968E+01  0.10500000000E+00 0.  1.
</event>
<event>
11    0  0.3439373E-009  0.9118800E+02  0.7816531E-02  0.1126479E+00
         25   -1    0    0    0    0  0.00000000000E+00  0.00000000000E+00  0.99999998245E-14  0.12500000000E+03  0.12500000000E+03 0.  0.
    3000001    1    3    3    0    0  0.16899890637E+02 -0.36078299016E+02 -0.62405632097E+01  0.40338500128E+02  0.10000000000E+01 0.  1.
    1000022    2    1    0    0    0  0.20392477946E+02 -0.56480894690E+02 -0.14152929309E+02  0.62500000802E+02  0.10000003527E+02 0.  0.
    3000022    2    3    3    0    0  0.34925873089E+01 -0.20402595674E+02 -0.79123660991E+01  0.22161500674E+02  0.24999699184E+00 0.  0.
    1000022    2    1    0    0    0 -0.20392477946E+02  0.56480894690E+02  0.14152929309E+02  0.62499999198E+02  0.99999934964E+01 0.  0.
    3000022    2    5    5    0    0 -0.45798494975E+01  0.45597729731E+01  0.29505097269E+00  0.64742650144E+01  0.25000282938E+00 0.  0.
        -13    1    4    4    0    0  0.19435434538E+01 -0.11619110463E+02 -0.45542867399E+01  0.12630662763E+02  0.10500000000E+00 0.  1.
         13    1    4    4    0    0  0.15490438551E+01 -0.87834852108E+01 -0.33580793592E+01  0.95308379116E+01  0.10500000000E+00 0. -1.
    3000001    1    5    5    0    0 -0.15812628449E+02  0.51921121717E+02  0.13857878336E+02  0.56025734183E+02  0.10000000000E+01 0.  1.
        -13    1    6    6    0    0 -0.15287659643E+01  0.14521006446E+01  0.80287457529E-01  0.21126269741E+01  0.10500000000E+00 0. -1.
         13    1    6    6    0    0 -0.30510835332E+01  0.31076723285E+01  0.21476351516E+00  0.43616380404E+01  0.10500000000E+00 0.  1.
</event>
<event>
11    0  0.3439373E-009  0.9118800E+02  0.7816531E-02  0.1126479E+00
         25   -1    0    0    0    0  0.00000000000E+00  0.00000000000E+00  0.99999998245E-14  0.12500000000E+03  0.12500000000E+03 0.  0.
    3000001    1    3    3    0    0 -0.89109978148E+01  0.11745930462E+02 -0.93961566043E+01  0.17511725312E+02  0.10000000000E+01 0.  1.
    1000022    2    1    0    0    0 -0.42417847603E+02  0.38830788745E+02 -0.22341575919E+02  0.62500000537E+02  0.10000005135E+02 0.  0.
    3000022    2    3    3    0    0 -0.33506849789E+02  0.27084858282E+02 -0.12945419315E+02  0.44988275224E+02  0.24999100124E+00 0.  0.
    1000022    2    1    0    0    0  0.42417847603E+02 -0.38830788745E+02  0.22341575919E+02  0.62499999463E+02  0.99999984250E+01 0.  0.
    3000022    2    5    5    0    0  0.12728585821E+02 -0.18030354721E+02  0.74224780693E+01  0.23286611425E+02  0.25000522943E+00 0.  0.
        -13    1    4    4    0    0 -0.11405635765E+02  0.91949986218E+01 -0.44555891161E+01  0.15313387157E+02  0.10500000000E+00 0. -1.
         13    1    4    4    0    0 -0.22101214024E+02  0.17889859661E+02 -0.84898301986E+01  0.29674888067E+02  0.10500000000E+00 0.  1.
    3000001    1    5    5    0    0  0.29689261783E+02 -0.20800434024E+02  0.14919097850E+02  0.39213388038E+02  0.10000000000E+01 0.  1.
        -13    1    6    6    0    0  0.72816581145E+01 -0.10200831761E+02  0.42126761085E+01  0.13222601049E+02  0.10500000000E+00 0. -1.
         13    1    6    6    0    0  0.54469277062E+01 -0.78295229595E+01  0.32098019609E+01  0.10064010376E+02  0.10500000000E+00 0.  1.
</event>
<event>
11    0  0.3439373E-009  0.9118800E+02  0.7816531E-02  0.1126479E+00
         25   -1    0    0    0    0  0.00000000000E+00  0.00000000000E+00  0.99999998245E-14  0.12500000000E+03  0.12500000000E+03 0.  0.
    3000001    1    3    3    0    0  0.93870159883E+01  0.55224345591E+01  0.60316954310E+01  0.12489783921E+02  0.10000000000E+01 0. -1.
    1000022    2    1    0    0    0  0.39424321437E+02  0.42789622433E+02  0.20518798863E+02  0.62499999733E+02  0.99999975546E+01 0.  0.
    3000022    2    3    3    0    0  0.30037305449E+02  0.37267187874E+02  0.14487103432E+02  0.50010215812E+02  0.25001806513E+00 0.  0.
    1000022    2    1    0    0    0 -0.39424321437E+02 -0.42789622433E+02 -0.20518798863E+02  0.62500000267E+02  0.10000000895E+02 0.  0.
    3000022    2    5    5    0    0 -0.16527685770E+02 -0.24678149948E+02 -0.12355490312E+02  0.32169801341E+02  0.24999133606E+00 0.  0.
        -13    1    4    4    0    0  0.19618661291E+02  0.24393506117E+02  0.95215405007E+01  0.32720112623E+02  0.10500000000E+00 0.  1.
         13    1    4    4    0    0  0.10418644158E+02  0.12873681756E+02  0.49655629309E+01  0.17290103189E+02  0.10500000000E+00 0. -1.
    3000001    1    5    5    0    0 -0.22896635667E+02 -0.18111472485E+02 -0.81633085509E+01  0.30330198927E+02  0.10000000000E+01 0.  1.
        -13    1    6    6    0    0 -0.11924289490E+02 -0.17775353910E+02 -0.88649342442E+01  0.23167865042E+02  0.10500000000E+00 0.  1.
         13    1    6    6    0    0 -0.46033962804E+01 -0.69027960382E+01 -0.34905560675E+01  0.90019362983E+01  0.10500000000E+00 0. -1.
</event>
<event>
11    0  0.3439373E-009  0.9118800E+02  0.7816531E-02  0.1126479E+00
         25   -1    0    0    0    0  0.00000000000E+00  0.00000000000E+00  0.99999998245E-14  0.12500000000E+03  0.12500000000E+03 0.  0.
    3000001    1    3    3    0    0 -0.13369405698E+01 -0.16150740218E+02 -0.89960990147E+01  0.18562424873E+02  0.10000000000E+01 0. -1.
    1000022    2    1    0    0    0  0.56227523319E+01 -0.47402894742E+02 -0.39084530474E+02  0.62500002113E+02  0.99999984042E+01 0.  0.
    3000022    2    3    3    0    0  0.69596929017E+01 -0.31252154524E+02 -0.30088431459E+02  0.43937577241E+02  0.24999680661E+00 0.  0.
    1000022    2    1    0    0    0 -0.56227523319E+01  0.47402894742E+02  0.39084530474E+02  0.62499997887E+02  0.99999719867E+01 0.  0.
    3000022    2    5    5    0    0  0.12895282972E+01  0.24194883246E+02  0.23027861546E+02  0.33427536034E+02  0.24999883348E+00 0.  0.
        -13    1    4    4    0    0  0.50154598396E+01 -0.22335875067E+02 -0.21499929317E+02  0.31405479427E+02  0.10500000000E+00 0.  1.
         13    1    4    4    0    0  0.19442330621E+01 -0.89162794570E+01 -0.85885021419E+01  0.12532097813E+02  0.10500000000E+00 0. -1.
    3000001    1    5    5    0    0 -0.69122806291E+01  0.23208011496E+02  0.16056668928E+02  0.29072461853E+02  0.10000000000E+01 0.  1.
        -13    1    6    6    0    0  0.51685405791E+00  0.10250992351E+02  0.98352956317E+01  0.14215978596E+02  0.10500000000E+00 0.  1.
         13    1    6    6    0    0  0.77267423929E+00  0.13943890895E+02  0.13192565914E+02  0.19211557438E+02  0.10500000000E+00 0. -1.
</event>
<event>
11    0  0.3439373E-009  0.9118800E+02  0.7816531E-02  0.1126479E+00
         25   -1    0    0    0    0  0.00000000000E+00  0.00000000000E+00  0.99999998245E-14  0.12500000000E+03  0.12500000000E+03 0.  0.
    3000001    1    3    3    0    0  0.23666130468E+02  0.11980790456E+02 -0.35429000118E+01  0.26780164521E+02  0.10000000000E+01 0. -1.
    1000022    2    1    0    0    0  0.56655955992E+02  0.19062968446E+02 -0.15262897750E+02  0.62500001011E+02  0.99999981635E+01 0.  0.
    3000022    2    3    3    0    0  0.32989825525E+02  0.70821779894E+01 -0.11719997738E+02  0.35719836490E+02  0.25007732558E+00 0.  0.
    1000022    2    1    0    0    0 -0.56655955992E+02 -0.19062968446E+02  0.15262897750E+02  0.62499998989E+02  0.99999855262E+01 0.  0.
    3000022    2    5    5    0    0 -0.16928233764E+02 -0.52218854309E+01 -0.54831239334E-01  0.17717186283E+02  0.24999498809E+00 0.  0.
        -13    1    4    4    0    0  0.21975970201E+02  0.47708287359E+01 -0.77966348129E+01  0.23801315353E+02  0.10500000000E+00 0. -1.
         13    1    4    4    0    0  0.11013855324E+02  0.23113492535E+01 -0.39233629255E+01  0.11918521137E+02  0.10500000000E+00 0.  1.
    3000001    1    5    5    0    0 -0.39727722228E+02 -0.13841083015E+02  0.15317728990E+02  0.44782812706E+02  0.10000000000E+01 0. -1.
        -13    1    6    6    0    0 -0.10831098245E+02 -0.32882569978E+01 -0.59766361898E-02  0.11319734272E+02  0.10500000000E+00 0.  1.
         13    1    6    6    0    0 -0.60971355199E+01 -0.19336284331E+01 -0.48854603145E-01  0.63974520113E+01  0.10500000000E+00 0. -1.
</event>
<event>
11    0  0.3439373E-009  0.9118800E+02  0.7816531E-02  0.1126479E+00
         25   -1    0    0    0    0  0.00000000000E+00  0.00000000000E+00  0.99999998245E-14  0.12500000000E+03  0.12500000000E+03 0.  0.
    3000001    1    3    3    0    0  0.18584286433E+02  0.10537125392E+02  0.22365700449E+02  0.30945617950E+02  0.10000000000E+01 0.  1.
    1000022    2    1    0    0    0  0.44121467511E+02  0.20992608671E+02  0.37667718859E+02  0.62499999858E+02  0.99999712057E+01 0.  0.
    3000022    2    3    3    0    0  0.25537181078E+02  0.10455483279E+02  0.15302018410E+02  0.31554381908E+02  0.25000434047E+00 0.  0.
    1000022    2    1    0    0    0 -0.44121467511E+02 -0.20992608671E+02 -0.37667718859E+02  0.62500000142E+02  0.99999729765E+01 0.  0.
    3000022    2    5    5    0    0 -0.25825119413E+02 -0.17446540328E+02 -0.24809671977E+02  0.39835924515E+02  0.24999239775E+00 0.  0.
        -13    1    4    4    0    0  0.82057189820E+01  0.34099325211E+01  0.49519989054E+01  0.10173238519E+02  0.10500000000E+00 0. -1.
         13    1    4    4    0    0  0.17331462096E+02  0.70455507579E+01  0.10350019505E+02  0.21381143389E+02  0.10500000000E+00 0.  1.
    3000001    1    5    5    0    0 -0.18296348098E+02 -0.35460683426E+01 -0.12858046882E+02  0.22664075627E+02  0.10000000000E+01 0. -1.
        -13    1    6    6    0    0 -0.12787069553E+02 -0.85875431739E+01 -0.12329392908E+02  0.19730179928E+02  0.10500000000E+00 0. -1.
         13    1    6    6    0    0 -0.13038049860E+02 -0.88589971544E+01 -0.12480279069E+02  0.20105744587E+02  0.10500000000E+00 0.  1.
</event>
<event>
11    0  0.3439373E-009  0.9118800E+02  0.7816531E-02  0.1126479E+00
         25   -1    0    0    0    0  0.00000000000E+00  0.00000000000E+00  0.99999998245E-14  0.12500000000E+03  0.12500000000E+03 0.  0.
    3000001    1    3    3    0    0 -0.10910057023E+01  0.15917761933E+01  0.41090617301E+01  0.46484871941E+01  0.10000000000E+01 0.  1.
    1000022    2    1    0    0    0 -0.34664585570E+02  0.37392571862E+02  0.34733443826E+02  0.62499999809E+02  0.99999966450E+01 0.  0.
    3000022    2    3    3    0    0 -0.33573579868E+02  0.35800795668E+02  0.30624382096E+02  0.57851512615E+02  0.24999483435E+00 0.  0.
    1000022    2    1    0    0    0  0.34664585570E+02 -0.37392571862E+02 -0.34733443826E+02  0.62500000191E+02  0.99999990370E+01 0.  0.
    3000022    2    5    5    0    0  0.56397321063E+01 -0.11782153650E+02 -0.11041858625E+02  0.17105872279E+02  0.25000335513E+00 0.  0.
        -13    1    4    4    0    0 -0.11713110263E+02  0.12571878493E+02  0.10731277576E+02  0.20258835709E+02  0.10500000000E+00 0. -1.
         13    1    4    4    0    0 -0.21860469605E+02  0.23228917176E+02  0.19893104520E+02  0.37592676906E+02  0.10500000000E+00 0.  1.
    3000001    1    5    5    0    0  0.29024853463E+02 -0.25610418211E+02 -0.23691585201E+02  0.45394127912E+02  0.10000000000E+01 0.  1.
        -13    1    6    6    0    0  0.31081668569E+01 -0.63463634237E+01 -0.59448406367E+01  0.92352144053E+01  0.10500000000E+00 0. -1.
         13    1    6    6    0    0  0.25315652495E+01 -0.54357902268E+01 -0.50970179880E+01  0.78706578742E+01  0.10500000000E+00 0.  1.
</event>
<event>
11    0  0.3439373E-009  0.9118800E+02  0.7816531E-02  0.1126479E+00
         25   -1    0    0    0    0  0.00000000000E+00  0.00000000000E+00  0.99999998245E-14  0.12500000000E+03  0.12500000000E+03 0.  0.
    3000001    1    3    3    0    0 -0.24277015978E+02  0.15992788439E+02 -0.39604346241E+01  0.29356904286E+02  0.10000000000E+01 0. -1.
    1000022    2    1    0    0    0 -0.45938465012E+02  0.37776537927E+02 -0.16396358604E+02  0.62500000336E+02  0.10000004056E+02 0.  0.
    3000022    2    3    3    0    0 -0.21661449034E+02  0.21783749488E+02 -0.12435923980E+02  0.33143096050E+02  0.24998904493E+00 0.  0.
    1000022    2    1    0    0    0  0.45938465012E+02 -0.37776537927E+02  0.16396358604E+02  0.62499999664E+02  0.99999998576E+01 0.  0.
    3000022    2    5    5    0    0  0.43683680454E+02 -0.36714191893E+02  0.17361367488E+02  0.59646252191E+02  0.24998987002E+00 0.  0.
        -13    1    4    4    0    0 -0.81193965546E+01  0.82469989316E+01 -0.46654897628E+01  0.12478598139E+02  0.10500000000E+00 0. -1.
         13    1    4    4    0    0 -0.13542052479E+02  0.13536750556E+02 -0.77704342176E+01  0.20664497911E+02  0.10500000000E+00 0.  1.
    3000001    1    5    5    0    0  0.22547845576E+01 -0.10623460336E+01 -0.96500888382E+00  0.28537474735E+01  0.10000000000E+01 0.  1.
        -13    1    6    6    0    0  0.21819352228E+02 -0.18259777646E+02  0.86893642498E+01  0.29749280452E+02  0.10500000000E+00 0. -1.
         13    1    6    6    0    0  0.21864328226E+02 -0.18454414246E+02  0.86720032385E+01  0.29896971738E+02  0.10500000000E+00 0.  1.
</event>
<event>
11    0  0.3439373E-009  0.9118800E+02  0.7816531E-02  0.1126479E+00
         25   -1    0    0    0    0  0.00000000000E+00  0.00000000000E+00  0.99999998245E-14  0.12500000000E+03  0.12500000000E+03 0.  0.
    3000001    1    3    3    0    0  0.36770689151E+02  0.15387906213E+02  0.36997708034E+02  0.54393948542E+02  0.10000000000E+01 0. -1.
    1000022    2    1    0    0    0  0.42027084259E+02  0.13887449986E+02  0.42978051312E+02  0.62499999752E+02  0.99999997985E+01 0.  0.
    3000022    2    3    3    0    0  0.52563951080E+01 -0.15004562267E+01  0.59803432782E+01  0.81060512096E+01  0.25000413702E+00 0.  0.
    1000022    2    1    0    0    0 -0.42027084259E+02 -0.13887449986E+02 -0.42978051312E+02  0.62500000248E+02  0.10000002900E+02 0.  0.
    3000022    2    5    5    0    0 -0.14962043884E+02 -0.32499859420E+00 -0.16394791290E+02  0.22199550974E+02  0.25000150458E+00 0.  0.
        -13    1    4    4    0    0  0.21869740532E+01 -0.67496191149E+00  0.24413562887E+01  0.33480852169E+01  0.10500000000E+00 0.  1.
         13    1    4    4    0    0  0.30694210548E+01 -0.82549431521E+00  0.35389869895E+01  0.47579659927E+01  0.10500000000E+00 0. -1.
    3000001    1    5    5    0    0 -0.27065040375E+02 -0.13562451392E+02 -0.26583260022E+02  0.40300449274E+02  0.10000000000E+01 0.  1.
        -13    1    6    6    0    0 -0.68615762378E+01 -0.83609349953E-01 -0.74956233721E+01  0.10162854605E+02  0.10500000000E+00 0.  1.
         13    1    6    6    0    0 -0.81004676463E+01 -0.24138924424E+00 -0.88991679175E+01  0.12036696369E+02  0.10500000000E+00 0. -1.
</event>
<event>
11    0  0.3439373E-009  0.9118800E+02  0.7816531E-02  0.1126479E+00
         25   -1    0    0    0    0  0.00000000000E+00  0.00000000000E+00  0.99999998245E-14  0.12500000000E+03  0.12500000000E+03 0.  0.
    3000001    1    3    3    0    0 -0.29821957758E+02  0.11979734023E+00  0.22758224081E+02  0.37527327100E+02  0.10000000000E+01 0. -1.
    1000022    2    1    0    0    0 -0.49630334500E+02  0.79946065192E+01  0.35765431767E+02  0.62499999287E+02  0.99999982696E+01 0.  0.
    3000022    2    3    3    0    0 -0.19808376742E+02  0.78748091790E+01  0.13007207686E+02  0.24972672187E+02  0.24999124552E+00 0.  0.
    1000022    2    1    0    0    0  0.49630334500E+02 -0.79946065192E+01 -0.35765431767E+02  0.62500000713E+02  0.10000007181E+02 0.  0.
    3000022    2    5    5    0    0  0.15431691618E+02 -0.16153457718E+01 -0.57742514819E+01  0.16557503637E+02  0.24999670286E+00 0.  0.
        -13    1    4    4    0    0 -0.11276486716E+02  0.45089120375E+01  0.73390645895E+01  0.14190219676E+02  0.10500000000E+00 0. -1.
         13    1    4    4    0    0 -0.85318900258E+01  0.33658971415E+01  0.56681430968E+01  0.10782452511E+02  0.10500000000E+00 0.  1.
    3000001    1    5    5    0    0  0.34198642882E+02 -0.63792607474E+01 -0.29991180286E+02  0.45942497076E+02  0.10000000000E+01 0. -1.
        -13    1    6    6    0    0  0.37200729950E+01 -0.40179729768E+00 -0.14100949895E+01  0.39999721294E+01  0.10500000000E+00 0. -1.
         13    1    6    6    0    0  0.11711618623E+02 -0.12135484741E+01 -0.43641564924E+01  0.12557531508E+02  0.10500000000E+00 0.  1.
</event>
<event>
11    0  0.3439373E-009  0.9118800E+02  0.7816531E-02  0.1126479E+00
         25   -1    0    0    0    0  0.00000000000E+00  0.00000000000E+00  0.99999998245E-14  0.12500000000E+03  0.12500000000E+03 0.  0.
    3000001    1    3    3    0    0 -0.34356129355E+02 -0.24886242905E+02 -0.15588601310E+02  0.45207003893E+02  0.10000000000E+01 0.  1.
    1000022    2    1    0    0    0 -0.43667782776E+02 -0.38847985175E+02 -0.19753691770E+02  0.62499997063E+02  0.10000004477E+02 0.  0.
    3000022    2    3    3    0    0 -0.93116534215E+01 -0.13961742270E+02 -0.41650904597E+01  0.17292993170E+02  0.24999514422E+00 0.  0.
    1000022    2    1    0    0    0  0.43667782776E+02  0.38847985175E+02  0.19753691770E+02  0.62500002937E+02  0.10000041191E+02 0.  0.
    3000022    2    5    5    0    0  0.41363340027E+02  0.37989611417E+02  0.20426276921E+02  0.59761457214E+02  0.25001120355E+00 0.  0.
        -13    1    4    4    0    0 -0.52439967018E+01 -0.79553237806E+01 -0.24068493857E+01  0.98280530538E+01  0.10500000000E+00 0. -1.
         13    1    4    4    0    0 -0.40676567197E+01 -0.60064184897E+01 -0.17582410740E+01  0.74649401160E+01  0.10500000000E+00 0.  1.
    3000001    1    5    5    0    0  0.23044427491E+01  0.85837375818E+00 -0.67258515176E+00  0.27385457233E+01  0.10000000000E+01 0.  1.
        -13    1    6    6    0    0  0.20456307016E+02  0.18746367522E+02  0.10156087548E+02  0.29547316820E+02  0.10500000000E+00 0. -1.
         13    1    6    6    0    0  0.20907033011E+02  0.19243243895E+02  0.10270189374E+02  0.30214140393E+02  0.10500000000E+00 0.  1.
</event>
<event>
11    0  0.3439373E-009  0.9118800E+02  0.7816531E-02  0.1126479E+00
         25   -1    0    0    0    0  0.00000000000E+00  0.00000000000E+00  0.99999998245E-14  0.12500000000E+03  0.12500000000E+03 0.  0.
    3000001    1    3    3    0    0 -0.95258466509E+01 -0.38483141819E+01  0.74311976905E+01  0.12719039884E+02  0.10000000000E+01 0. -1.
    1000022    2    1    0    0    0 -0.55021528083E+02 -0.20324035975E+02  0.19126289312E+02  0.62500001092E+02  0.10000010137E+02 0.  0.
    3000022    2    3    3    0    0 -0.45495681432E+02 -0.16475721793E+02  0.11695091621E+02  0.49780961207E+02  0.24998631896E+00 0.  0.
    1000022    2    1    0    0    0  0.55021528083E+02  0.20324035975E+02 -0.19126289312E+02  0.62499998908E+02  0.99999964919E+01 0.  0.
    3000022    2    5    5    0    0  0.66952416737E+01 -0.69048331252E+00 -0.30654986564E+01  0.74001896942E+01  0.24999444498E+00 0.  0.
        -13    1    4    4    0    0 -0.28595454016E+02 -0.10413850174E+02  0.73313681982E+01  0.31303486235E+02  0.10500000000E+00 0. -1.
         13    1    4    4    0    0 -0.16900227416E+02 -0.60618716192E+01  0.43637234231E+01  0.18477474973E+02  0.10500000000E+00 0.  1.
    3000001    1    5    5    0    0  0.48326286409E+02  0.21014519287E+02 -0.16060790655E+02  0.55099809214E+02  0.10000000000E+01 0.  1.
        -13    1    6    6    0    0  0.43203898105E+01 -0.45676518872E+00 -0.20397617228E+01  0.48006307333E+01  0.10500000000E+00 0. -1.
         13    1    6    6    0    0  0.23748518632E+01 -0.23371812380E+00 -0.10257369337E+01  0.25995589608E+01  0.10500000000E+00 0.  1.
</event>
<event>
11    0  0.3439373E-009  0.9118800E+02  0.7816531E-02  0.1126479E+00
         25   -1    0    0    0    0  0.00000000000E+00  0.00000000000E+00  0.99999998245E-14  0.12500000000E+03  0.12500000000E+03 0.  0.
    3000001    1    3    3    0    0  0.47864508291E+01 -0.13960134497E+01 -0.45088593047E+01  0.67962325828E+01  0.10000000000E+01 0.  1.
    1000022    2    1    0    0    0  0.46541197822E+02  0.14089325787E+02 -0.37969168526E+02  0.62499997476E+02  0.99999865090E+01 0.  0.
    3000022    2    3    3    0    0  0.41754746993E+02  0.15485339236E+02 -0.33460309221E+02  0.55703764893E+02  0.25000487554E+00 0.  0.
    1000022    2    1    0    0    0 -0.46541197822E+02 -0.14089325787E+02  0.37969168526E+02  0.62500002524E+02  0.10000018055E+02 0.  0.
    3000022    2    5    5    0    0 -0.38761438691E+02 -0.77465705037E+01  0.31089955111E+02  0.50290220629E+02  0.24999626246E+00 0.  0.
        -13    1    4    4    0    0  0.15448788558E+02  0.56660835461E+01 -0.12367803370E+02  0.20585022611E+02  0.10500000000E+00 0. -1.
         13    1    4    4    0    0  0.26305958434E+02  0.98192556901E+01 -0.21092505851E+02  0.35118742283E+02  0.10500000000E+00 0.  1.
    3000001    1    5    5    0    0 -0.77797591308E+01 -0.63427552828E+01  0.68792134148E+01  0.12209781895E+02  0.10000000000E+01 0.  1.
        -13    1    6    6    0    0 -0.90123331411E+01 -0.18083314424E+01  0.72187688969E+01  0.11688193215E+02  0.10500000000E+00 0. -1.
         13    1    6    6    0    0 -0.29749105550E+02 -0.59382390613E+01  0.23871186214E+02  0.38602027414E+02  0.10500000000E+00 0.  1.
</event>
<event>
11    0  0.3439373E-009  0.9118800E+02  0.7816531E-02  0.1126479E+00
         25   -1    0    0    0    0  0.00000000000E+00  0.00000000000E+00  0.99999998245E-14  0.12500000000E+03  0.12500000000E+03 0.  0.
    3000001    1    3    3    0    0 -0.32548417844E+02  0.35999721107E+02 -0.13664007957E+02  0.50429004922E+02  0.10000000000E+01 0. -1.
    1000022    2    1    0    0    0 -0.38868232543E+02  0.46225630248E+02 -0.12597668474E+02  0.62499997214E+02  0.10000000391E+02 0.  0.
    3000022    2    3    3    0    0 -0.63198146995E+01  0.10225909141E+02  0.10663394826E+01  0.12070992292E+02  0.24999885272E+00 0.  0.
    1000022    2    1    0    0    0  0.38868232543E+02 -0.46225630248E+02  0.12597668474E+02  0.62500002786E+02  0.10000035222E+02 0.  0.
    3000022    2    5    5    0    0  0.29729124360E+02 -0.30493863330E+02  0.54859139436E+01  0.42940124431E+02  0.24999680407E+00 0.  0.
        -13    1    4    4    0    0 -0.16988656946E+01  0.28189868466E+01  0.28534682057E+00  0.33053410259E+01  0.10500000000E+00 0.  1.
         13    1    4    4    0    0 -0.46209490049E+01  0.74069222942E+01  0.78099266199E+00  0.87656512660E+01  0.10500000000E+00 0. -1.
    3000001    1    5    5    0    0  0.91391081836E+01 -0.15731766919E+02  0.71117545309E+01  0.19559878355E+02  0.10000000000E+01 0.  1.
        -13    1    6    6    0    0  0.82946476068E+01 -0.84863556780E+01  0.14921795368E+01  0.11960645316E+02  0.10500000000E+00 0. -1.
         13    1    6    6    0    0  0.21434476753E+02 -0.22007507651E+02  0.39937344068E+01  0.30979479115E+02  0.10500000000E+00 0.  1.
</event>
<event>
11    0  0.3439373E-009  0.9118800E+02  0.7816531E-02  0.1126479E+00
         25   -1    0    0    0    0  0.00000000000E+00  0.00000000000E+00  0.99999998245E-14  0.12500000000E+03  0.12500000000E+03 0.  0.
    3000001    1    3    3    0    0  0.24881323956E+02 -0.12916919211E+02  0.25727279849E+02  0.38063368376E+02  0.10000000000E+01 0. -1.
    1000022    2    1    0    0    0  0.34187068533E+02 -0.24310641731E+02  0.45238113876E+02  0.62499999532E+02  0.10000001911E+02 0.  0.
    3000022    2    3    3    0    0  0.93057445768E+01 -0.11393722520E+02  0.19510834027E+02  0.24436631156E+02  0.25000567962E+00 0.  0.
    1000022    2    1    0    0    0 -0.34187068533E+02  0.24310641731E+02 -0.45238113876E+02  0.62500000468E+02  0.10000007759E+02 0.  0.
    3000022    2    5    5    0    0 -0.32443532873E+02  0.24195837507E+02 -0.40069061660E+02  0.56952731102E+02  0.24999936786E+00 0.  0.
        -13    1    4    4    0    0  0.69250019088E+01 -0.85199377940E+01  0.14579219769E+02  0.18251292160E+02  0.10500000000E+00 0. -1.
         13    1    4    4    0    0  0.23807426680E+01 -0.28737847262E+01  0.49316142578E+01  0.61853389957E+01  0.10500000000E+00 0.  1.
    3000001    1    5    5    0    0 -0.17435356591E+01  0.11480422383E+00 -0.51690522159E+01  0.55472693656E+01  0.10000000000E+01 0. -1.
        -13    1    6    6    0    0 -0.21612844819E+02  0.16052487884E+02 -0.26667110469E+02  0.37893841639E+02  0.10500000000E+00 0.  1.
         13    1    6    6    0    0 -0.10830688055E+02  0.81433496232E+01 -0.13401951192E+02  0.19058889463E+02  0.10500000000E+00 0. -1.
</event>
<event>
11    0  0.3439373E-009  0.9118800E+02  0.7816531E-02  0.1126479E+00
         25   -1    0    0    0    0  0.00000000000E+00  0.00000000000E+00  0.99999998245E-14  0.12500000000E+03  0.12500000000E+03 0.  0.
    3000001    1    3    3    0    0 -0.43925612047E+02  0.47558195077E+01  0.19042184053E+02  0.48121533500E+02  0.10000000000E+01 0.  1.
    1000022    2    1    0    0    0 -0.54554374125E+02  0.33337711982E+01  0.28617411959E+02  0.62500000112E+02  0.99999990123E+01 0.  0.
    3000022    2    3    3    0    0 -0.10628762078E+02 -0.14220483095E+01  0.95752279062E+01  0.14378466612E+02  0.25001591989E+00 0.  0.
    1000022    2    1    0    0    0  0.54554374125E+02 -0.33337711982E+01 -0.28617411959E+02  0.62499999888E+02  0.99999976076E+01 0.  0.
    3000022    2    5    5    0    0  0.25576711060E+02 -0.45502046684E+01 -0.17966155296E+02  0.31586670471E+02  0.25000837044E+00 0.  0.
        -13    1    4    4    0    0 -0.74446106906E+01 -0.95772371387E+00  0.67356208398E+01  0.10085587546E+02  0.10500000000E+00 0.  1.
         13    1    4    4    0    0 -0.31841513870E+01 -0.46432459558E+00  0.28396070665E+01  0.42928790663E+01  0.10500000000E+00 0. -1.
    3000001    1    5    5    0    0  0.28977663065E+02  0.12164334701E+01 -0.10651256663E+02  0.30913329416E+02  0.10000000000E+01 0.  1.
        -13    1    6    6    0    0  0.12061726726E+02 -0.21509371336E+01 -0.83915379132E+01  0.14850613311E+02  0.10500000000E+00 0. -1.
         13    1    6    6    0    0  0.13514984334E+02 -0.23992675347E+01 -0.95746173824E+01  0.16736057160E+02  0.10500000000E+00 0.  1.
</event>
<event>
11    0  0.3439373E-009  0.9118800E+02  0.7816531E-02  0.1126479E+00
         25   -1    0    0    0    0  0.00000000000E+00  0.00000000000E+00  0.99999998245E-14  0.12500000000E+03  0.12500000000E+03 0.  0.
    3000001    1    3    3    0    0  0.41067243957E+02 -0.20983226643E+02  0.11434542442E+02  0.47524342052E+02  0.10000000000E+01 0. -1.
    1000022    2    1    0    0    0  0.52054904300E+02 -0.26319940753E+02  0.20094717204E+02  0.62499999622E+02  0.99999975167E+01 0.  0.
    3000022    2    3    3    0    0  0.10987660343E+02 -0.53367141103E+01  0.86601747619E+01  0.14975657570E+02  0.24999091420E+00 0.  0.
    1000022    2    1    0    0    0 -0.52054904300E+02  0.26319940753E+02 -0.20094717204E+02  0.62500000378E+02  0.10000002238E+02 0.  0.
    3000022    2    5    5    0    0 -0.45651772652E+02  0.19949348544E+02 -0.14755819258E+02  0.51960153544E+02  0.25000150652E+00 0.  0.
        -13    1    4    4    0    0  0.52757942058E+01 -0.25222201438E+01  0.42158430447E+01  0.72097126526E+01  0.10500000000E+00 0. -1.
         13    1    4    4    0    0  0.57118661369E+01 -0.28144939665E+01  0.44443317172E+01  0.77659449177E+01  0.10500000000E+00 0.  1.
    3000001    1    5    5    0    0 -0.64031316479E+01  0.63705922092E+01 -0.53388979458E+01  0.10539846833E+02  0.10000000000E+01 0.  1.
        -13    1    6    6    0    0 -0.18729661574E+02  0.81513971432E+01 -0.61086632067E+01  0.21320700956E+02  0.10500000000E+00 0.  1.
         13    1    6    6    0    0 -0.26922111078E+02  0.11797951401E+02 -0.86471560511E+01  0.30639452589E+02  0.10500000000E+00 0. -1.
</event>
<event>
11    0  0.3439373E-009  0.9118800E+02  0.7816531E-02  0.1126479E+00
         25   -1    0    0    0    0  0.00000000000E+00  0.00000000000E+00  0.99999998245E-14  0.12500000000E+03  0.12500000000E+03 0.  0.
    3000001    1    3    3    0    0 -0.27072182976E+02 -0.20695053745E+01  0.30274827781E+02  0.40678632484E+02  0.10000000000E+01 0. -1.
    1000022    2    1    0    0    0 -0.35578892304E+02 -0.18774117109E+01  0.50367328060E+02  0.62499999806E+02  0.99999993808E+01 0.  0.
    3000022    2    3    3    0    0 -0.85067093283E+01  0.19209366361E+00  0.20092500278E+02  0.21821367323E+02  0.25000163637E+00 0.  0.
    1000022    2    1    0    0    0  0.35578892304E+02  0.18774117109E+01 -0.50367328060E+02  0.62500000194E+02  0.10000001801E+02 0.  0.
    3000022    2    5    5    0    0  0.20993915395E+02  0.57661677171E+01 -0.32004760891E+02  0.38708660430E+02  0.24999770400E+00 0.  0.
        -13    1    4    4    0    0 -0.45751989848E+01  0.82824768958E-01  0.10640717451E+02  0.11583401857E+02  0.10500000000E+00 0. -1.
         13    1    4    4    0    0 -0.39315103435E+01  0.10926889465E+00  0.94517828269E+01  0.10237965466E+02  0.10500000000E+00 0.  1.
    3000001    1    5    5    0    0  0.14584976909E+02 -0.38887560062E+01 -0.18362567168E+02  0.23791339763E+02  0.10000000000E+01 0. -1.
        -13    1    6    6    0    0  0.15568458631E+02  0.43069795982E+01 -0.23757402407E+02  0.28728943098E+02  0.10500000000E+00 0. -1.
         13    1    6    6    0    0  0.54254567632E+01  0.14591881189E+01 -0.82473584849E+01  0.99797173324E+01  0.10500000000E+00 0.  1.
</event>
<event>
11    0  0.3439373E-009  0.9118800E+02  0.7816531E-02  0.1126479E+00
         25   -1    0    0    0    0  0.00000000000E+00  0.00000000000E+00  0.99999998245E-14  0.12500000000E+03  0.12500000000E+03 0.  0.
    3000001    1    3    3    0    0 -0.35583669251E+01  0.71453854650E+01 -0.67969343572E+01  0.10531705715E+02  0.10000000000E+01 0. -1.
    1000022    2    1    0    0    0 -0.95388467434E+01  0.54672136712E+02 -0.26948428764E+02  0.62499998451E+02  0.99999931831E+01 0.  0.
    3000022    2    3    3    0    0 -0.59804798183E+01  0.47526751247E+02 -0.20151494407E+02  0.51968292736E+02  0.25000015241E+00 0.  0.
    1000022    2    1    0    0    0  0.95388467434E+01 -0.54672136712E+02  0.26948428764E+02  0.62500001549E+02  0.10000012546E+02 0.  0.
    3000022    2    5    5    0    0 -0.15442450116E+01 -0.16010492998E+02  0.91564055166E+01  0.18510074193E+02  0.25001192846E+00 0.  0.
        -13    1    4    4    0    0 -0.38191512668E+01  0.29941718407E+02 -0.12731175168E+02  0.32759521726E+02  0.10500000000E+00 0. -1.
         13    1    4    4    0    0 -0.21613285515E+01  0.17585032840E+02 -0.74203192394E+01  0.19208771010E+02  0.10500000000E+00 0.  1.
    3000001    1    5    5    0    0  0.11083091755E+02 -0.38661643714E+02  0.17792023248E+02  0.43989927356E+02  0.10000000000E+01 0.  1.
        -13    1    6    6    0    0 -0.10336304674E+01 -0.10108802924E+02  0.57963644171E+01  0.11698938155E+02  0.10500000000E+00 0.  1.
         13    1    6    6    0    0 -0.51061454423E+00 -0.59016900737E+01  0.33600410995E+01  0.68111360380E+01  0.10500000000E+00 0. -1.
</event>
<event>
11    0  0.3439373E-009  0.9118800E+02  0.7816531E-02  0.1126479E+00
         25   -1    0    0    0    0  0.00000000000E+00  0.00000000000E+00  0.99999998245E-14  0.12500000000E+03  0.12500000000E+03 0.  0.
    3000001    1    3    3    0    0 -0.21105986130E+01  0.96758597421E+01  0.26183292878E+02  0.28011456838E+02  0.10000000000E+01 0. -1.
    1000022    2    1    0    0    0  0.61948991408E+01  0.20599551515E+02  0.57823279505E+02  0.62499999766E+02  0.10000001000E+02 0.  0.
    3000022    2    3    3    0    0  0.83054977538E+01  0.10923691773E+02  0.31639986628E+02  0.34488542928E+02  0.25000924151E+00 0.  0.
    1000022    2    1    0    0    0 -0.61948991408E+01 -0.20599551515E+02 -0.57823279505E+02  0.62500000234E+02  0.10000003928E+02 0.  0.
    3000022    2    5    5    0    0 -0.80617501822E+00 -0.19716101891E+01 -0.18705521091E+02  0.18828069099E+02  0.25000363910E+00 0.  0.
        -13    1    4    4    0    0  0.21333506631E+01  0.28121642759E+01  0.80656221256E+01  0.88048133563E+01  0.10500000000E+00 0.  1.
         13    1    4    4    0    0  0.61721470907E+01  0.81115274972E+01  0.23574364502E+02  0.25683729572E+02  0.10500000000E+00 0. -1.
    3000001    1    5    5    0    0 -0.53887241226E+01 -0.18627941326E+02 -0.39117758415E+02  0.43671931136E+02  0.10000000000E+01 0. -1.
        -13    1    6    6    0    0 -0.33124223318E+00 -0.81147840504E+00 -0.71561726303E+01  0.72104126327E+01  0.10500000000E+00 0.  1.
         13    1    6    6    0    0 -0.47493278505E+00 -0.11601317841E+01 -0.11549348460E+02  0.11617656466E+02  0.10500000000E+00 0. -1.
</event>
<event>
11    0  0.3439373E-009  0.9118800E+02  0.7816531E-02  0.1126479E+00
         25   -1    0    0    0    0  0.00000000000E+00  0.00000000000E+00  0.99999998245E-14  0.12500000000E+03  0.12500000000E+03 0.  0.
    3000001    1    3    3    0    0 -0.41850769800E+01 -0.13420277930E+01 -0.13878234129E+02  0.14591822726E+02  0.10000000000E+01 0. -1.
    1000022    2    1    0    0    0 -0.20761344817E+02 -0.22257223031E+02 -0.53664071236E+02  0.62499999280E+02  0.99999976384E+01 0.  0.
    3000022    2    3    3    0    0 -0.16576267837E+02 -0.20915195238E+02 -0.39785837107E+02  0.47908176554E+02  0.24999845542E+00 0.  0.
    1000022    2    1    0    0    0  0.20761344817E+02  0.22257223031E+02  0.53664071236E+02  0.62500000720E+02  0.10000006638E+02 0.  0.
    3000022    2    5    5    0    0  0.13046511462E+02  0.71177422064E+01  0.21994419968E+02  0.26546011445E+02  0.24999700118E+00 0.  0.
        -13    1    4    4    0    0 -0.12374908833E+02 -0.15605044726E+02 -0.29740478577E+02  0.35793335700E+02  0.10500000000E+00 0. -1.
         13    1    4    4    0    0 -0.42013590042E+01 -0.53101505112E+01 -0.10045358529E+02  0.12114840854E+02  0.10500000000E+00 0.  1.
    3000001    1    5    5    0    0  0.77148333550E+01  0.15139480824E+02  0.31669651268E+02  0.35953989275E+02  0.10000000000E+01 0. -1.
        -13    1    6    6    0    0  0.91795000743E+01  0.50367178397E+01  0.15428627928E+02  0.18646322237E+02  0.10500000000E+00 0. -1.
         13    1    6    6    0    0  0.38670113877E+01  0.20810243667E+01  0.65657920396E+01  0.78996892087E+01  0.10500000000E+00 0.  1.
</event>
<event>
11    0  0.3439373E-009  0.9118800E+02  0.7816531E-02  0.1126479E+00
         25   -1    0    0    0    0  0.00000000000E+00  0.00000000000E+00  0.99999998245E-14  0.12500000000E+03  0.12500000000E+03 0.  0.
    3000001    1    3    3    0    0  0.76163043563E+01 -0.14345614184E+02 -0.16064750446E+02  0.22866590154E+02  0.10000000000E+01 0. -1.
    1000022    2    1    0    0    0  0.30856404798E+02 -0.30995746064E+02 -0.43513159691E+02  0.62499995629E+02  0.10000019811E+02 0.  0.
    3000022    2    3    3    0    0  0.23240100441E+02 -0.16650131880E+02 -0.27448409245E+02  0.39633405475E+02  0.24999866057E+00 0.  0.
    1000022    2    1    0    0    0 -0.30856404798E+02  0.30995746064E+02  0.43513159691E+02  0.62500004371E+02  0.10000074449E+02 0.  0.
    3000022    2    5    5    0    0 -0.28635000179E+02  0.31264818487E+02  0.40731065953E+02  0.58792298340E+02  0.25000027639E+00 0.  0.
        -13    1    4    4    0    0  0.16351767677E+02 -0.11691396264E+02 -0.19355420136E+02  0.27905418227E+02  0.10500000000E+00 0.  1.
         13    1    4    4    0    0  0.68883327647E+01 -0.49587356155E+01 -0.80929891092E+01  0.11727987249E+02  0.10500000000E+00 0. -1.
    3000001    1    5    5    0    0 -0.22214046185E+01 -0.26907242260E+00  0.27820937375E+01  0.37077060309E+01  0.10000000000E+01 0.  1.
        -13    1    6    6    0    0 -0.16897435800E+02  0.18398059496E+02  0.23924124033E+02  0.34588822842E+02  0.10500000000E+00 0.  1.
         13    1    6    6    0    0 -0.11737564379E+02  0.12866758991E+02  0.16806941920E+02  0.24203475498E+02  0.10500000000E+00 0. -1.
</event>
<event>
11    0  0.3439373E-009  0.9118800E+02  0.7816531E-02  0.1126479E+00
         25   -1    0    0    0    0  0.00000000000E+00  0.00000000000E+00  0.99999998245E-14  0.12500000000E+03  0.12500000000E+03 0.  0.
    3000001    1    3    3    0    0 -0.17775971343E+02  0.34121906665E+02 -0.13408319631E+02  0.40756259728E+02  0.10000000000E+01 0. -1.
    1000022    2    1    0    0    0 -0.32741579211E+02  0.49538239443E+02 -0.16739229649E+02  0.62499999488E+02  0.99999975223E+01 0.  0.
    3000022    2    3    3    0    0 -0.14965607868E+02  0.15416332778E+02 -0.33309100176E+01  0.21743739760E+02  0.25004410981E+00 0.  0.
    1000022    2    1    0    0    0  0.32741579211E+02 -0.49538239443E+02  0.16739229649E+02  0.62500000512E+02  0.10000003922E+02 0.  0.
    3000022    2    5    5    0    0  0.81081938753E+01 -0.20943856503E+02  0.64690212812E+01  0.23373032974E+02  0.25000184916E+00 0.  0.
        -13    1    4    4    0    0 -0.67979697790E+01  0.69351964655E+01 -0.14575403290E+01  0.98206309340E+01  0.10500000000E+00 0. -1.
         13    1    4    4    0    0 -0.81676380886E+01  0.84811363122E+01 -0.18733696886E+01  0.11923108826E+02  0.10500000000E+00 0.  1.
    3000001    1    5    5    0    0  0.24633385336E+02 -0.28594382939E+02  0.10270208368E+02  0.39126967538E+02  0.10000000000E+01 0. -1.
        -13    1    6    6    0    0  0.33898008623E+01 -0.86409059976E+01  0.26226431575E+01  0.96459985733E+01  0.10500000000E+00 0. -1.
         13    1    6    6    0    0  0.47183930130E+01 -0.12302950506E+02  0.38463781237E+01  0.13727034401E+02  0.10500000000E+00 0.  1.
</event>
<event>
11    0  0.3439373E-009  0.9118800E+02  0.7816531E-02  0.1126479E+00
         25   -1    0    0    0    0  0.00000000000E+00  0.00000000000E+00  0.99999998245E-14  0.12500000000E+03  0.12500000000E+03 0.  0.
    3000001    1    3    3    0    0 -0.33128174592E+02  0.55914343576E+01  0.24119485059E+02  0.41370154090E+02  0.10000000000E+01 0. -1.
    1000022    2    1    0    0    0 -0.45246966041E+02  0.68053613058E+01  0.41384164256E+02  0.62499999559E+02  0.10000000762E+02 0.  0.
    3000022    2    3    3    0    0 -0.12118791450E+02  0.12139269482E+01  0.17264679198E+02  0.21129845469E+02  0.24999381055E+00 0.  0.
    1000022    2    1    0    0    0  0.45246966041E+02 -0.68053613058E+01 -0.41384164256E+02  0.62500000441E+02  0.10000006276E+02 0.  0.
    3000022    2    5    5    0    0  0.46648647545E+01 -0.39242724823E+01 -0.62716830659E+01  0.87497078560E+01  0.25000278679E+00 0.  0.
        -13    1    4    4    0    0 -0.43887609583E+01  0.42070106960E+00  0.63465212338E+01  0.77283613341E+01  0.10500000000E+00 0. -1.
         13    1    4    4    0    0 -0.77300304912E+01  0.79322587858E+00  0.10918157964E+02  0.13401484135E+02  0.10500000000E+00 0.  1.
    3000001    1    5    5    0    0  0.40582101287E+02 -0.28810888236E+01 -0.35112481190E+02  0.53750292585E+02  0.10000000000E+01 0. -1.
        -13    1    6    6    0    0  0.24580800754E+01 -0.20782384642E+01 -0.32152882005E+01  0.45508610156E+01  0.10500000000E+00 0. -1.
         13    1    6    6    0    0  0.22067846791E+01 -0.18460340181E+01 -0.30563948655E+01  0.41988468404E+01  0.10500000000E+00 0.  1.
</event>
<event>
11    0  0.3439373E-009  0.9118800E+02  0.7816531E-02  0.1126479E+00
         25   -1    0    0    0    0  0.00000000000E+00  0.00000000000E+00  0.99999998245E-14  0.12500000000E+03  0.12500000000E+03 0.  0.
    3000001    1    3    3    0    0 -0.38552995901E+01 -0.40317908583E+02  0.34118539481E+02  0.52966704860E+02  0.10000000000E+01 0. -1.
    1000022    2    1    0    0    0 -0.42465146251E+00 -0.46737629433E+02  0.40269884635E+02  0.62499999704E+02  0.10000001030E+02 0.  0.
    3000022    2    3    3    0    0  0.34306481276E+01 -0.64197208506E+01  0.61513451539E+01  0.95332948442E+01  0.25000201630E+00 0.  0.
    1000022    2    1    0    0    0  0.42465146251E+00  0.46737629433E+02 -0.40269884635E+02  0.62500000296E+02  0.10000004727E+02 0.  0.
    3000022    2    5    5    0    0  0.84268487133E+00  0.15970034370E+02 -0.20131747341E+02  0.25711901248E+02  0.24999838418E+00 0.  0.
        -13    1    4    4    0    0  0.26363227453E+01 -0.49448444901E+01  0.47272376428E+01  0.73320860183E+01  0.10500000000E+00 0.  1.
         13    1    4    4    0    0  0.79432538230E+00 -0.14748763605E+01  0.14241075111E+01  0.22012088258E+01  0.10500000000E+00 0. -1.
    3000001    1    5    5    0    0 -0.41803340882E+00  0.30767595063E+02 -0.20138137294E+02  0.36788099048E+02  0.10000000000E+01 0. -1.
        -13    1    6    6    0    0  0.33925295944E+00  0.76163953370E+01 -0.96382369241E+01  0.12289475437E+02  0.10500000000E+00 0.  1.
         13    1    6    6    0    0  0.50343191189E+00  0.83536390332E+01 -0.10493510417E+02  0.13422425811E+02  0.10500000000E+00 0. -1.
</event>
<event>
11    0  0.3439373E-009  0.9118800E+02  0.7816531E-02  0.1126479E+00
         25   -1    0    0    0    0  0.00000000000E+00  0.00000000000E+00  0.99999998245E-14  0.12500000000E+03  0.12500000000E+03 0.  0.
    3000001    1    3    3    0    0  0.14610170504E+00  0.65634390523E+00  0.46056827861E+01  0.47607191638E+01  0.10000000000E+01 0. -1.
    1000022    2    1    0    0    0 -0.29454620695E+02  0.11933985218E+02  0.52879626529E+02  0.62499996105E+02  0.99999963870E+01 0.  0.
    3000022    2    3    3    0    0 -0.29600722400E+02  0.11277641312E+02  0.48273943743E+02  0.57739276941E+02  0.24999390964E+00 0.  0.
    1000022    2    1    0    0    0  0.29454620695E+02 -0.11933985218E+02 -0.52879626529E+02  0.62500003895E+02  0.10000045077E+02 0.  0.
    3000022    2    5    5    0    0  0.11113135129E+02  0.50925999078E+00 -0.18018521781E+02  0.21177599944E+02  0.24998809700E+00 0.  0.
        -13    1    4    4    0    0 -0.19321724266E+02  0.73323544577E+01  0.31404873689E+02  0.37594807712E+02  0.10500000000E+00 0.  1.
         13    1    4    4    0    0 -0.10278998135E+02  0.39452868547E+01  0.16869070054E+02  0.20144469229E+02  0.10500000000E+00 0. -1.
    3000001    1    5    5    0    0  0.18341485566E+02 -0.12443245208E+02 -0.34861104748E+02  0.41322403952E+02  0.10000000000E+01 0. -1.
        -13    1    6    6    0    0  0.62937179950E+01  0.22565496922E+00 -0.10237068846E+02  0.12019584432E+02  0.10500000000E+00 0.  1.
         13    1    6    6    0    0  0.48194171343E+01  0.28360502157E+00 -0.77814529351E+01  0.91580155113E+01  0.10500000000E+00 0. -1.
</event>
<event>
11    0  0.3439373E-009  0.9118800E+02  0.7816531E-02  0.1126479E+00
         25   -1    0    0    0    0  0.00000000000E+00  0.00000000000E+00  0.99999998245E-14  0.12500000000E+03  0.12500000000E+03 0.  0.
    3000001    1    3    3    0    0  0.18596864530E+01 -0.59053153849E+01 -0.70524370270E+01  0.94375871661E+01  0.10000000000E+01 0. -1.
    1000022    2    1    0    0    0  0.81898485234E+01 -0.19574837652E+02 -0.57931015462E+02  0.62499994196E+02  0.99999417043E+01 0.  0.
    3000022    2    3    3    0    0  0.63301620704E+01 -0.13669522267E+02 -0.50878578435E+02  0.53062407030E+02  0.25001075507E+00 0.  0.
    1000022    2    1    0    0    0 -0.81898485234E+01  0.19574837652E+02  0.57931015462E+02  0.62500005804E+02  0.10000014255E+02 0.  0.
    3000022    2    5    5    0    0 -0.24742450956E+01  0.12413184294E+02  0.21776228273E+02  0.25188800542E+02  0.25004372780E+00 0.  0.
        -13    1    4    4    0    0  0.27344998062E+01 -0.58021612602E+01 -0.21836736147E+02  0.22759539430E+02  0.10500000000E+00 0. -1.
         13    1    4    4    0    0  0.35956622642E+01 -0.78673610071E+01 -0.29041842288E+02  0.30302867600E+02  0.10500000000E+00 0.  1.
    3000001    1    5    5    0    0 -0.57156034278E+01  0.71616533579E+01  0.36154787189E+02  0.37311205262E+02  0.10000000000E+01 0. -1.
        -13    1    6    6    0    0 -0.99957597772E+00  0.47249004979E+01  0.82640453621E+01  0.95723198650E+01  0.10500000000E+00 0. -1.
         13    1    6    6    0    0 -0.14746691179E+01  0.76882837963E+01  0.13512182911E+02  0.15616480677E+02  0.10500000000E+00 0.  1.
</event>
<event>
11    0  0.3439373E-009  0.9118800E+02  0.7816531E-02  0.1126479E+00
         25   -1    0    0    0    0  0.00000000000E+00  0.00000000000E+00  0.99999998245E-14  0.12500000000E+03  0.12500000000E+03 0.  0.
    3000001    1    3    3    0    0  0.33915108273E+02 -0.32919696396E+01 -0.30588322963E+02  0.45800842077E+02  0.10000000000E+01 0.  1.
    1000022    2    1    0    0    0  0.45574512009E+02  0.14529942021E+01 -0.41558419748E+02  0.62500000921E+02  0.10000026303E+02 0.  0.
    3000022    2    3    3    0    0  0.11659403737E+02  0.47449638417E+01 -0.10970096785E+02  0.16699158844E+02  0.25001051289E+00 0.  0.
    1000022    2    1    0    0    0 -0.45574512009E+02 -0.14529942021E+01  0.41558419748E+02  0.62499999079E+02  0.10000014796E+02 0.  0.
    3000022    2    5    5    0    0 -0.27963321431E+02 -0.48597471122E+01  0.29011496380E+02  0.40586868655E+02  0.24999517380E+00 0.  0.
        -13    1    4    4    0    0  0.40853010780E+01  0.17239145200E+01 -0.38684789102E+01  0.58853819119E+01  0.10500000000E+00 0.  1.
         13    1    4    4    0    0  0.75741026589E+01  0.30210493217E+01 -0.71016178751E+01  0.10813776932E+02  0.10500000000E+00 0. -1.
    3000001    1    5    5    0    0 -0.17611190579E+02  0.34067529100E+01  0.12546923368E+02  0.21913130424E+02  0.10000000000E+01 0. -1.
        -13    1    6    6    0    0 -0.16949566152E+02 -0.29940391015E+01  0.17650686605E+02  0.24653799413E+02  0.10500000000E+00 0.  1.
         13    1    6    6    0    0 -0.11013755279E+02 -0.18657080107E+01  0.11360809775E+02  0.15933069242E+02  0.10500000000E+00 0. -1.
</event>
<event>
11    0  0.3439373E-009  0.9118800E+02  0.7816531E-02  0.1126479E+00
         25   -1    0    0    0    0  0.00000000000E+00  0.00000000000E+00  0.99999998245E-14  0.12500000000E+03  0.12500000000E+03 0.  0.
    3000001    1    3    3    0    0 -0.57107622742E+01 -0.11925634286E+02 -0.41327069584E+01  0.13889306162E+02  0.10000000000E+01 0.  1.
    1000022    2    1    0    0    0 -0.10286684094E+02 -0.59836195995E+02 -0.10957367838E+02  0.62499999252E+02  0.99999887922E+01 0.  0.
    3000022    2    3    3    0    0 -0.45759218195E+01 -0.47910561709E+02 -0.68246608792E+01  0.48610693090E+02  0.25000557829E+00 0.  0.
    1000022    2    1    0    0    0  0.10286684094E+02  0.59836195995E+02  0.10957367838E+02  0.62500000748E+02  0.99999981385E+01 0.  0.
    3000022    2    5    5    0    0  0.29350490005E+01  0.38150998633E+02  0.10051925240E+02  0.39562822424E+02  0.25001557881E+00 0.  0.
        -13    1    4    4    0    0 -0.27149347330E+01 -0.28165966888E+02 -0.40722584195E+01  0.28588229658E+02  0.10500000000E+00 0. -1.
         13    1    4    4    0    0 -0.18609870865E+01 -0.19744594822E+02 -0.27524024596E+01  0.20022463432E+02  0.10500000000E+00 0.  1.
    3000001    1    5    5    0    0  0.73516350932E+01  0.21685197362E+02  0.90544259796E+00  0.22937178324E+02  0.10000000000E+01 0.  1.
        -13    1    6    6    0    0  0.87637608783E+00  0.10969314053E+02  0.29189054533E+01  0.11385294019E+02  0.10500000000E+00 0. -1.
         13    1    6    6    0    0  0.20586729127E+01  0.27181684579E+02  0.71330197863E+01  0.28177528405E+02  0.10500000000E+00 0.  1.
</event>
<event>
11    0  0.3439373E-009  0.9118800E+02  0.7816531E-02  0.1126479E+00
         25   -1    0    0    0    0  0.00000000000E+00  0.00000000000E+00  0.99999998245E-14  0.12500000000E+03  0.12500000000E+03 0.  0.
    3000001    1    3    3    0    0  0.12408110285E+01 -0.70875507316E+01 -0.62531217208E+00  0.72913649404E+01  0.10000000000E+01 0.  1.
    1000022    2    1    0    0    0 -0.15176516784E+02 -0.59797652994E+02 -0.40597577598E+00  0.62500006823E+02  0.10000003565E+02 0.  0.
    3000022    2    3    3    0    0 -0.16417327812E+02 -0.52710102262E+02  0.21933639609E+00  0.55208641882E+02  0.24999419149E+00 0.  0.
    1000022    2    1    0    0    0  0.15176516784E+02  0.59797652994E+02  0.40597577598E+00  0.62499993177E+02  0.99999182791E+01 0.  0.
    3000022    2    5    5    0    0  0.11382903362E+02  0.24919491105E+02 -0.13698825590E+00  0.27397678589E+02  0.25000079915E+00 0.  0.
        -13    1    4    4    0    0 -0.11865393849E+02 -0.38000509642E+02  0.18548516056E+00  0.39810447548E+02  0.10500000000E+00 0. -1.
         13    1    4    4    0    0 -0.45519339632E+01 -0.14709592620E+02  0.33851235534E-01  0.15398194334E+02  0.10500000000E+00 0.  1.
    3000001    1    5    5    0    0  0.37936134220E+01  0.34878161888E+02  0.54296403189E+00  0.35102314588E+02  0.10000000000E+01 0. -1.
        -13    1    6    6    0    0  0.76525169791E+01  0.16680570451E+02 -0.13527276161E+00  0.18352977154E+02  0.10500000000E+00 0. -1.
         13    1    6    6    0    0  0.37303863826E+01  0.82389206543E+01 -0.17154942905E-02  0.90447014353E+01  0.10500000000E+00 0.  1.
</event>
<event>
11    0  0.3439373E-009  0.9118800E+02  0.7816531E-02  0.1126479E+00
         25   -1    0    0    0    0  0.00000000000E+00  0.00000000000E+00  0.99999998245E-14  0.12500000000E+03  0.12500000000E+03 0.  0.
    3000001    1    3    3    0    0  0.29135189984E+00 -0.48760777275E+02 -0.24204847674E+02  0.54447891946E+02  0.10000000000E+01 0.  1.
    1000022    2    1    0    0    0  0.35711285448E+01 -0.55942481823E+02 -0.25766947858E+02  0.62500001715E+02  0.10000019045E+02 0.  0.
    3000022    2    3    3    0    0  0.32797766449E+01 -0.71817045472E+01 -0.15621001840E+01  0.80521097690E+01  0.24999940776E+00 0.  0.
    1000022    2    1    0    0    0 -0.35711285448E+01  0.55942481823E+02  0.25766947858E+02  0.62499998285E+02  0.99999976076E+01 0.  0.
    3000022    2    5    5    0    0 -0.48885417816E+01  0.28971035698E+02  0.17692512231E+02  0.34297321207E+02  0.25000549737E+00 0.  0.
        -13    1    4    4    0    0  0.11822160263E+01 -0.25737766617E+01 -0.61930222247E+00  0.29011241407E+01  0.10500000000E+00 0.  1.
         13    1    4    4    0    0  0.20975606186E+01 -0.46079278855E+01 -0.94279796148E+00  0.51509856283E+01  0.10500000000E+00 0. -1.
    3000001    1    5    5    0    0  0.13174132368E+01  0.26971446124E+02  0.80744356270E+01  0.28202677078E+02  0.10000000000E+01 0. -1.
        -13    1    6    6    0    0 -0.17401853938E+01  0.10499802600E+02  0.63514610755E+01  0.12394602964E+02  0.10500000000E+00 0. -1.
         13    1    6    6    0    0 -0.31483563878E+01  0.18471233099E+02  0.11341051156E+02  0.21902718243E+02  0.10500000000E+00 0.  1.
</event>
<event>
11    0  0.3439373E-009  0.9118800E+02  0.7816531E-02  0.1126479E+00
         25   -1    0    0    0    0  0.00000000000E+00  0.00000000000E+00  0.99999998245E-14  0.12500000000E+03  0.12500000000E+03 0.  0.
    3000001    1    3    3    0    0  0.48093227890E+02 -0.29101102750E+02  0.20742552217E+02  0.59925672484E+02  0.10000000000E+01 0.  1.
    1000022    2    1    0    0    0  0.50295653456E+02 -0.29835199224E+02  0.19658540160E+02  0.62499999978E+02  0.99999963376E+01 0.  0.
    3000022    2    3    3    0    0  0.22024255656E+01 -0.73409647375E+00 -0.10840120575E+01  0.25743274940E+01  0.25000780044E+00 0.  0.
    1000022    2    1    0    0    0 -0.50295653456E+02  0.29835199224E+02 -0.19658540160E+02  0.62500000022E+02  0.99999966107E+01 0.  0.
    3000022    2    5    5    0    0 -0.10314174701E+02  0.56913585210E+01 -0.83283101261E+01  0.14429033733E+02  0.25000666562E+00 0.  0.
        -13    1    4    4    0    0  0.70752819816E+00 -0.21754889756E+00 -0.40032801447E+00  0.84806320118E+00  0.10500000000E+00 0. -1.
         13    1    4    4    0    0  0.14948973675E+01 -0.51654757620E+00 -0.68368404307E+00  0.17262642928E+01  0.10500000000E+00 0.  1.
    3000001    1    5    5    0    0 -0.39981478755E+02  0.24143840703E+02 -0.11330230033E+02  0.48070966289E+02  0.10000000000E+01 0.  1.
        -13    1    6    6    0    0 -0.25292396347E+01  0.13733833432E+01 -0.20499460514E+01  0.35350443774E+01  0.10500000000E+00 0. -1.
         13    1    6    6    0    0 -0.77849350663E+01  0.43179751778E+01 -0.62783640747E+01  0.10893989356E+02  0.10500000000E+00 0.  1.
</event>
<event>
11    0  0.3439373E-009  0.9118800E+02  0.7816531E-02  0.1126479E+00
         25   -1    0    0    0    0  0.00000000000E+00  0.00000000000E+00  0.99999998245E-14  0.12500000000E+03  0.12500000000E+03 0.  0.
    3000001    1    3    3    0    0  0.45109868842E+01  0.15058995033E+01 -0.17678224825E+01  0.51712602249E+01  0.10000000000E+01 0.  1.
    1000022    2    1    0    0    0  0.61157308414E+02  0.52213367832E+01  0.62266549374E+01  0.62499999826E+02  0.10000000816E+02 0.  0.
    3000022    2    3    3    0    0  0.56646321530E+02  0.37154372799E+01  0.79944774199E+01  0.57328739601E+02  0.24999604068E+00 0.  0.
    1000022    2    1    0    0    0 -0.61157308414E+02 -0.52213367832E+01 -0.62266549374E+01  0.62500000174E+02  0.10000002991E+02 0.  0.
    3000022    2    5    5    0    0 -0.15826699974E+02 -0.76978357840E+00 -0.59845357136E+01  0.16939721321E+02  0.24998379193E+00 0.  0.
        -13    1    4    4    0    0  0.35289041679E+02  0.22730692633E+01  0.50243727750E+01  0.35717483860E+02  0.10500000000E+00 0.  1.
         13    1    4    4    0    0  0.21357279850E+02  0.14423680166E+01  0.29701046449E+01  0.21611255741E+02  0.10500000000E+00 0. -1.
    3000001    1    5    5    0    0 -0.45330608439E+02 -0.44515532048E+01 -0.24211922379E+00  0.45560278853E+02  0.10000000000E+01 0. -1.
        -13    1    6    6    0    0 -0.77613522632E+01 -0.31846440683E+00 -0.29694201264E+01  0.83167595504E+01  0.10500000000E+00 0. -1.
         13    1    6    6    0    0 -0.80653477111E+01 -0.45131917157E+00 -0.30151155873E+01  0.86229617708E+01  0.10500000000E+00 0.  1.
</event>
<event>
11    0  0.3439373E-009  0.9118800E+02  0.7816531E-02  0.1126479E+00
         25   -1    0    0    0    0  0.00000000000E+00  0.00000000000E+00  0.99999998245E-14  0.12500000000E+03  0.12500000000E+03 0.  0.
    3000001    1    3    3    0    0 -0.65827651156E+01 -0.30377245987E+02  0.23072334036E+02  0.38722635088E+02  0.10000000000E+01 0. -1.
    1000022    2    1    0    0    0 -0.17648610174E+02 -0.45724699471E+02  0.37470364783E+02  0.62499999169E+02  0.10000003817E+02 0.  0.
    3000022    2    3    3    0    0 -0.11065845058E+02 -0.15347453485E+02  0.14398030747E+02  0.23777364081E+02  0.24999584021E+00 0.  0.
    1000022    2    1    0    0    0  0.17648610174E+02  0.45724699471E+02 -0.37470364783E+02  0.62500000831E+02  0.10000014203E+02 0.  0.
    3000022    2    5    5    0    0  0.97317214669E+01  0.12535637388E+02 -0.12623876766E+02  0.20279876061E+02  0.25000205042E+00 0.  0.
        -13    1    4    4    0    0 -0.39627661660E+01 -0.54186495181E+01  0.51527655567E+01  0.84632910956E+01  0.10500000000E+00 0. -1.
         13    1    4    4    0    0 -0.71030788925E+01 -0.99288039666E+01  0.92452651906E+01  0.15314072985E+02  0.10500000000E+00 0.  1.
    3000001    1    5    5    0    0  0.79168887071E+01  0.33189062084E+02 -0.24846488017E+02  0.42220124770E+02  0.10000000000E+01 0.  1.
        -13    1    6    6    0    0  0.37373018125E+01  0.47635132875E+01 -0.47494343932E+01  0.76958843373E+01  0.10500000000E+00 0. -1.
         13    1    6    6    0    0  0.59944196544E+01  0.77721241004E+01 -0.78744423726E+01  0.12583991724E+02  0.10500000000E+00 0.  1.
</event>
<event>
11    0  0.3439373E-009  0.9118800E+02  0.7816531E-02  0.1126479E+00
         25   -1    0    0    0    0  0.00000000000E+00  0.00000000000E+00  0.99999998245E-14  0.12500000000E+03  0.12500000000E+03 0.  0.
    3000001    1    3    3    0    0  0.15390607742E+02  0.12258220738E+02  0.22005248487E+02  0.29535838287E+02  0.10000000000E+01 0.  1.
    1000022    2    1    0    0    0  0.22995123804E+02  0.29099549470E+02  0.49302026281E+02  0.62499994520E+02  0.10000001077E+02 0.  0.
    3000022    2    3    3    0    0  0.76045160617E+01  0.16841328732E+02  0.27296777794E+02  0.32964156233E+02  0.25000053793E+00 0.  0.
    1000022    2    1    0    0    0 -0.22995123804E+02 -0.29099549470E+02 -0.49302026281E+02  0.62500005480E+02  0.10000069572E+02 0.  0.
    3000022    2    5    5    0    0 -0.98371921654E+01 -0.19990898826E+02 -0.30841546087E+02  0.38048256860E+02  0.24999900096E+00 0.  0.
        -13    1    4    4    0    0  0.22870455131E+01  0.51632419337E+01  0.82988612513E+01  0.10038514208E+02  0.10500000000E+00 0.  1.
         13    1    4    4    0    0  0.53174705485E+01  0.11678086798E+02  0.18997916543E+02  0.22925642025E+02  0.10500000000E+00 0. -1.
    3000001    1    5    5    0    0 -0.13157931638E+02 -0.91086506437E+01 -0.18460480194E+02  0.24451748619E+02  0.10000000000E+01 0. -1.
        -13    1    6    6    0    0 -0.65345891142E+01 -0.13398724264E+02 -0.20645430791E+02  0.25465103659E+02  0.10500000000E+00 0.  1.
         13    1    6    6    0    0 -0.33026030512E+01 -0.65921745618E+01 -0.10196115295E+02  0.12583153201E+02  0.10500000000E+00 0. -1.
</event>
<event>
11    0  0.3439373E-009  0.9118800E+02  0.7816531E-02  0.1126479E+00
         25   -1    0    0    0    0  0.00000000000E+00  0.00000000000E+00  0.99999998245E-14  0.12500000000E+03  0.12500000000E+03 0.  0.
    3000001    1    3    3    0    0  0.53590062332E+01  0.53583851265E+02  0.27239580573E+02  0.60356795922E+02  0.10000000000E+01 0.  1.
    1000022    2    1    0    0    0  0.55168108262E+01  0.55511180957E+02  0.26350028900E+02  0.62499996659E+02  0.99999573246E+01 0.  0.
    3000022    2    3    3    0    0  0.15780459303E+00  0.19273296920E+01 -0.88955167277E+00  0.21432007376E+01  0.25001038349E+00 0.  0.
    1000022    2    1    0    0    0 -0.55168108262E+01 -0.55511180957E+02 -0.26350028900E+02  0.62500003341E+02  0.99999990833E+01 0.  0.
    3000022    2    5    5    0    0 -0.15268175333E+00 -0.41489167976E+02 -0.21230826347E+02  0.46606704014E+02  0.25000104303E+00 0.  0.
        -13    1    4    4    0    0  0.85206293930E-01  0.12671032571E+01 -0.63949077028E+00  0.14257574205E+01  0.10500000000E+00 0.  1.
         13    1    4    4    0    0  0.72598299097E-01  0.66022643484E+00 -0.25006090250E+00  0.71744331710E+00  0.10500000000E+00 0. -1.
    3000001    1    5    5    0    0 -0.53641290729E+01 -0.14022012980E+02 -0.51192025527E+01  0.15893299327E+02  0.10000000000E+01 0.  1.
        -13    1    6    6    0    0 -0.63654172631E-01 -0.29038856180E+02 -0.14842286946E+02  0.32612324770E+02  0.10500000000E+00 0. -1.
         13    1    6    6    0    0 -0.89027580694E-01 -0.12450311796E+02 -0.63885394017E+01  0.13994379244E+02  0.10500000000E+00 0.  1.
</event>
<event>
11    0  0.3439373E-009  0.9118800E+02  0.7816531E-02  0.1126479E+00
         25   -1    0    0    0    0  0.00000000000E+00  0.00000000000E+00  0.99999998245E-14  0.12500000000E+03  0.12500000000E+03 0.  0.
    3000001    1    3    3    0    0 -0.31088483758E+01  0.10849774793E+02 -0.34431439056E-01  0.11330654738E+02  0.10000000000E+01 0. -1.
    1000022    2    1    0    0    0  0.32509442380E+01  0.61558069816E+02  0.25072580770E+01  0.62499989639E+02  0.99998881984E+01 0.  0.
    3000022    2    3    3    0    0  0.63597926139E+01  0.50708295023E+02  0.25416895160E+01  0.51169334901E+02  0.25000476486E+00 0.  0.
    1000022    2    1    0    0    0 -0.32509442380E+01 -0.61558069816E+02 -0.25072580770E+01  0.62500010361E+02  0.10000017707E+02 0.  0.
    3000022    2    5    5    0    0 -0.32051381114E+01 -0.13863147459E+02  0.27881330123E+01  0.14501584515E+02  0.24999997235E+00 0.  0.
        -13    1    4    4    0    0  0.30769486897E+01  0.24215694364E+02  0.11591251191E+01  0.24438127237E+02  0.10500000000E+00 0.  1.
         13    1    4    4    0    0  0.32828439242E+01  0.26492600658E+02  0.13825643969E+01  0.26731207664E+02  0.10500000000E+00 0. -1.
    3000001    1    5    5    0    0 -0.45806126630E-01 -0.47694922357E+02 -0.52953910892E+01  0.47998425845E+02  0.10000000000E+01 0.  1.
        -13    1    6    6    0    0 -0.14819236035E+01 -0.66981950191E+01  0.13249133504E+01  0.69877274179E+01  0.10500000000E+00 0. -1.
         13    1    6    6    0    0 -0.17232145079E+01 -0.71649524398E+01  0.14632196619E+01  0.75138570976E+01  0.10500000000E+00 0.  1.
</event>
<event>
11    0  0.3439373E-009  0.9118800E+02  0.7816531E-02  0.1126479E+00
         25   -1    0    0    0    0  0.00000000000E+00  0.00000000000E+00  0.99999998245E-14  0.12500000000E+03  0.12500000000E+03 0.  0.
    3000001    1    3    3    0    0  0.65518911552E+00  0.99728200987E+01 -0.19376550509E+01  0.10229414480E+02  0.10000000000E+01 0. -1.
    1000022    2    1    0    0    0  0.24642613828E+02  0.54466836514E+02 -0.15243190401E+02  0.62499997242E+02  0.10000005277E+02 0.  0.
    3000022    2    3    3    0    0  0.23987424713E+02  0.44494016415E+02 -0.13305535350E+02  0.52270582763E+02  0.25002056507E+00 0.  0.
    1000022    2    1    0    0    0 -0.24642613828E+02 -0.54466836514E+02  0.15243190401E+02  0.62500002758E+02  0.10000039751E+02 0.  0.
    3000022    2    5    5    0    0 -0.15175737636E+01 -0.34799271619E+01  0.37412824516E+01  0.53359730737E+01  0.24998216010E+00 0.  0.
        -13    1    4    4    0    0  0.12504448903E+02  0.23302376705E+02 -0.70066532479E+01  0.27358110630E+02  0.10500000000E+00 0.  1.
         13    1    4    4    0    0  0.11482975810E+02  0.21191639710E+02 -0.62988821018E+01  0.24912472133E+02  0.10500000000E+00 0. -1.
    3000001    1    5    5    0    0 -0.23125040064E+02 -0.50986909352E+02  0.11501907949E+02  0.57164029684E+02  0.10000000000E+01 0.  1.
        -13    1    6    6    0    0 -0.76412029674E+00 -0.16845403775E+01  0.17357928571E+01  0.25388103423E+01  0.10500000000E+00 0. -1.
         13    1    6    6    0    0 -0.75345346682E+00 -0.17953867845E+01  0.20054895945E+01  0.27971627314E+01  0.10500000000E+00 0.  1.
</event>
<event>
11    0  0.3439373E-009  0.9118800E+02  0.7816531E-02  0.1126479E+00
         25   -1    0    0    0    0  0.00000000000E+00  0.00000000000E+00  0.99999998245E-14  0.12500000000E+03  0.12500000000E+03 0.  0.
    3000001    1    3    3    0    0  0.16395314464E+02 -0.70623698023E+01 -0.17777573374E+02  0.25213597892E+02  0.10000000000E+01 0.  1.
    1000022    2    1    0    0    0  0.37253537320E+02 -0.28346861634E+02 -0.40185564036E+02  0.62499997546E+02  0.99999764506E+01 0.  0.
    3000022    2    3    3    0    0  0.20858222856E+02 -0.21284491832E+02 -0.22407990662E+02  0.37286399654E+02  0.25000078629E+00 0.  0.
    1000022    2    1    0    0    0 -0.37253537320E+02  0.28346861634E+02  0.40185564036E+02  0.62500002454E+02  0.10000007124E+02 0.  0.
    3000022    2    5    5    0    0 -0.19526607855E+02  0.14343059009E+02  0.14326347334E+02  0.28148152363E+02  0.24999493290E+00 0.  0.
        -13    1    4    4    0    0  0.14023267994E+02 -0.14250349028E+02 -0.14992615609E+02  0.24990278919E+02  0.10500000000E+00 0. -1.
         13    1    4    4    0    0  0.68349548618E+01 -0.70341428039E+01 -0.74153750531E+01  0.12296120735E+02  0.10500000000E+00 0.  1.
    3000001    1    5    5    0    0 -0.17726929465E+02  0.14003802625E+02  0.25859216702E+02  0.34351850091E+02  0.10000000000E+01 0.  1.
        -13    1    6    6    0    0 -0.11539090831E+02  0.85411959501E+01  0.84469253781E+01  0.16657257241E+02  0.10500000000E+00 0. -1.
         13    1    6    6    0    0 -0.79875170242E+01  0.58018630590E+01  0.58794219562E+01  0.11490895122E+02  0.10500000000E+00 0.  1.
</event>
<event>
11    0  0.3439373E-009  0.9118800E+02  0.7816531E-02  0.1126479E+00
         25   -1    0    0    0    0  0.00000000000E+00  0.00000000000E+00  0.99999998245E-14  0.12500000000E+03  0.12500000000E+03 0.  0.
    3000001    1    3    3    0    0 -0.19550957707E+02 -0.31813080475E+02  0.85170138206E+01  0.38312550959E+02  0.10000000000E+01 0.  1.
    1000022    2    1    0    0    0 -0.28070976269E+02 -0.50888519270E+02  0.20703361994E+02  0.62499999371E+02  0.99999810680E+01 0.  0.
    3000022    2    3    3    0    0 -0.85200185621E+01 -0.19075438795E+02  0.12186348173E+02  0.24187448412E+02  0.24999473728E+00 0.  0.
    1000022    2    1    0    0    0  0.28070976269E+02  0.50888519270E+02 -0.20703361994E+02  0.62500000629E+02  0.99999889243E+01 0.  0.
    3000022    2    5    5    0    0  0.11173900099E+02  0.16913578042E+02 -0.11995928060E+02  0.23556102258E+02  0.24999595201E+00 0.  0.
        -13    1    4    4    0    0 -0.34209651659E+01 -0.78054862737E+01  0.49450165157E+01  0.98535695043E+01  0.10500000000E+00 0.  1.
         13    1    4    4    0    0 -0.50990533962E+01 -0.11269952521E+02  0.72413316577E+01  0.14333878908E+02  0.10500000000E+00 0. -1.
    3000001    1    5    5    0    0  0.16897076170E+02  0.33974941228E+02 -0.87074339342E+01  0.38943898370E+02  0.10000000000E+01 0. -1.
        -13    1    6    6    0    0  0.85891692694E+01  0.13012391879E+02 -0.92329344252E+01  0.18120548398E+02  0.10500000000E+00 0. -1.
         13    1    6    6    0    0  0.25847308298E+01  0.39011861631E+01 -0.27629936346E+01  0.54355538602E+01  0.10500000000E+00 0.  1.
</event>
<event>
11    0  0.3439373E-009  0.9118800E+02  0.7816531E-02  0.1126479E+00
         25   -1    0    0    0    0  0.00000000000E+00  0.00000000000E+00  0.99999998245E-14  0.12500000000E+03  0.12500000000E+03 0.  0.
    3000001    1    3    3    0    0 -0.19807590362E+01 -0.39996566521E+02  0.18459664531E+02  0.44106779007E+02  0.10000000000E+01 0.  1.
    1000022    2    1    0    0    0 -0.64133719763E+01 -0.53364879915E+02  0.30287098178E+02  0.62499999183E+02  0.99999916700E+01 0.  0.
    3000022    2    3    3    0    0 -0.44326129401E+01 -0.13368313394E+02  0.11827433647E+02  0.18393220176E+02  0.25000254549E+00 0.  0.
    1000022    2    1    0    0    0  0.64133719763E+01  0.53364879915E+02 -0.30287098178E+02  0.62500000817E+02  0.10000001885E+02 0.  0.
    3000022    2    5    5    0    0 -0.14014409892E+01  0.26115384831E+01 -0.34325200858E+01  0.45419010151E+01  0.25000119425E+00 0.  0.
        -13    1    4    4    0    0 -0.17447114878E+01 -0.54633250557E+01  0.48078071352E+01  0.74845155681E+01  0.10500000000E+00 0. -1.
         13    1    4    4    0    0 -0.26879014524E+01 -0.79049883383E+01  0.70196265121E+01  0.10908704608E+02  0.10500000000E+00 0.  1.
    3000001    1    5    5    0    0  0.78148129655E+01  0.50753341432E+02 -0.26854578092E+02  0.57958099802E+02  0.10000000000E+01 0.  1.
        -13    1    6    6    0    0 -0.52401893501E+00  0.86856223669E+00 -0.12093028311E+01  0.15819085121E+01  0.10500000000E+00 0.  1.
         13    1    6    6    0    0 -0.87742205417E+00  0.17429762464E+01 -0.22232172547E+01  0.29599925030E+01  0.10500000000E+00 0. -1.
</event>
<event>
11    0  0.3439373E-009  0.9118800E+02  0.7816531E-02  0.1126479E+00
         25   -1    0    0    0    0  0.00000000000E+00  0.00000000000E+00  0.99999998245E-14  0.12500000000E+03  0.12500000000E+03 0.  0.
    3000001    1    3    3    0    0 -0.94032038234E+01 -0.27839773687E+01 -0.54000848017E+01  0.11239737008E+02  0.10000000000E+01 0. -1.
    1000022    2    1    0    0    0 -0.59520765831E+02 -0.12037122952E+02 -0.10892033772E+02  0.62500001587E+02  0.99999952302E+01 0.  0.
    3000022    2    3    3    0    0 -0.50117562008E+02 -0.92531455833E+01 -0.54919489706E+01  0.51260264579E+02  0.24999296444E+00 0.  0.
    1000022    2    1    0    0    0  0.59520765831E+02  0.12037122952E+02  0.10892033772E+02  0.62499998413E+02  0.99999753927E+01 0.  0.
    3000022    2    5    5    0    0  0.36714908236E+02  0.36725807805E+01  0.97298387332E+01  0.38160248954E+02  0.25000429177E+00 0.  0.
        -13    1    4    4    0    0 -0.30983079478E+02 -0.57744238054E+01 -0.33660786436E+01  0.31696004395E+02  0.10500000000E+00 0. -1.
         13    1    4    4    0    0 -0.19134482530E+02 -0.34787217779E+01 -0.21258703270E+01  0.19564260184E+02  0.10500000000E+00 0.  1.
    3000001    1    5    5    0    0  0.22805857595E+02  0.83645421716E+01  0.11621950392E+01  0.24339749459E+02  0.10000000000E+01 0. -1.
        -13    1    6    6    0    0  0.13816192213E+02  0.13237376760E+01  0.36427297733E+01  0.14349911285E+02  0.10500000000E+00 0. -1.
         13    1    6    6    0    0  0.22898716023E+02  0.23488431045E+01  0.60871089598E+01  0.23810337669E+02  0.10500000000E+00 0.  1.
</event>
<event>
11    0  0.3439373E-009  0.9118800E+02  0.7816531E-02  0.1126479E+00
         25   -1    0    0    0    0  0.00000000000E+00  0.00000000000E+00  0.99999998245E-14  0.12500000000E+03  0.12500000000E+03 0.  0.
    3000001    1    3    3    0    0 -0.34071353309E+02  0.37610731212E+02 -0.25470295258E+02  0.56790493563E+02  0.10000000000E+01 0.  1.
    1000022    2    1    0    0    0 -0.34879873642E+02  0.41274620742E+02 -0.29766592410E+02  0.62500000627E+02  0.10000007598E+02 0.  0.
    3000022    2    3    3    0    0 -0.80852033287E+00  0.36638895300E+01 -0.42962971519E+01  0.57095070636E+01  0.25002014872E+00 0.  0.
    1000022    2    1    0    0    0  0.34879873642E+02 -0.41274620742E+02  0.29766592410E+02  0.62499999373E+02  0.99999997629E+01 0.  0.
    3000022    2    5    5    0    0  0.34604029913E+02 -0.40120824433E+02  0.27343056026E+02  0.59622350282E+02  0.25000179812E+00 0.  0.
        -13    1    4    4    0    0 -0.52552177377E+00  0.21836753121E+01 -0.24985590368E+01  0.33613142168E+01  0.10500000000E+00 0.  1.
         13    1    4    4    0    0 -0.28299855910E+00  0.14802142179E+01 -0.17977381151E+01  0.23481928468E+01  0.10500000000E+00 0. -1.
    3000001    1    5    5    0    0  0.27584372916E+00 -0.11537963086E+01  0.24235363847E+01  0.28776490913E+01  0.10000000000E+01 0. -1.
        -13    1    6    6    0    0  0.19835543948E+02 -0.22988513418E+02  0.15742933560E+02  0.34201922971E+02  0.10500000000E+00 0.  1.
         13    1    6    6    0    0  0.14768485965E+02 -0.17132311016E+02  0.11600122466E+02  0.25420427311E+02  0.10500000000E+00 0. -1.
</event>
<event>
11    0  0.3439373E-009  0.9118800E+02  0.7816531E-02  0.1126479E+00
         25   -1    0    0    0    0  0.00000000000E+00  0.00000000000E+00  0.99999998245E-14  0.12500000000E+03  0.12500000000E+03 0.  0.
    3000001    1    3    3    0    0  0.16481052190E+01 -0.33229735487E+01 -0.58044064233E+01  0.69605702314E+01  0.10000000000E+01 0. -1.
    1000022    2    1    0    0    0  0.33964451880E+02 -0.37825515471E+02 -0.34955639742E+02  0.62500002734E+02  0.99999989924E+01 0.  0.
    3000022    2    3    3    0    0  0.32316346661E+02 -0.34502541922E+02 -0.29151233319E+02  0.55539432503E+02  0.24999626339E+00 0.  0.
    1000022    2    1    0    0    0 -0.33964451880E+02  0.37825515471E+02  0.34955639742E+02  0.62499997266E+02  0.99999648169E+01 0.  0.
    3000022    2    5    5    0    0 -0.14918799660E-01 -0.52385219735E+00  0.46101559856E+00  0.74140359909E+00  0.25000043875E+00 0.  0.
        -13    1    4    4    0    0  0.12082324950E+02 -0.12987559450E+02 -0.10943687342E+02  0.20843094643E+02  0.10500000000E+00 0.  1.
         13    1    4    4    0    0  0.20234021711E+02 -0.21514982472E+02 -0.18207545977E+02  0.34696337860E+02  0.10500000000E+00 0. -1.
    3000001    1    5    5    0    0 -0.33949533080E+02  0.38349367668E+02  0.34494624144E+02  0.61758593667E+02  0.10000000000E+01 0.  1.
        -13    1    6    6    0    0 -0.38076334651E-01 -0.40557587934E+00  0.32725578684E+00  0.53297556340E+00  0.10500000000E+00 0.  1.
         13    1    6    6    0    0  0.23157534992E-01 -0.11827631801E+00  0.13375981172E+00  0.20842803569E+00  0.10500000000E+00 0. -1.
</event>
<event>
11    0  0.3439373E-009  0.9118800E+02  0.7816531E-02  0.1126479E+00
         25   -1    0    0    0    0  0.00000000000E+00  0.00000000000E+00  0.99999998245E-14  0.12500000000E+03  0.12500000000E+03 0.  0.
    3000001    1    3    3    0    0 -0.94527133412E+01  0.91011681716E+01  0.12925469235E+00  0.13160613906E+02  0.10000000000E+01 0. -1.
    1000022    2    1    0    0    0 -0.52715860404E+02  0.30231081786E+02 -0.10647536110E+02  0.62499998549E+02  0.99999774667E+01 0.  0.
    3000022    2    3    3    0    0 -0.43263147063E+02  0.21129913615E+02 -0.10776790803E+02  0.49339384644E+02  0.25002771976E+00 0.  0.
    1000022    2    1    0    0    0  0.52715860404E+02 -0.30231081786E+02  0.10647536110E+02  0.62500001451E+02  0.99999955990E+01 0.  0.
    3000022    2    5    5    0    0  0.30306012621E+02 -0.22195387144E+02  0.40974091542E+01  0.37788104939E+02  0.25000333480E+00 0.  0.
        -13    1    4    4    0    0 -0.19836560262E+02  0.97100905233E+01 -0.48777025127E+01  0.22618089835E+02  0.10500000000E+00 0. -1.
         13    1    4    4    0    0 -0.23426586801E+02  0.11419823091E+02 -0.58990882899E+01  0.26721294808E+02  0.10500000000E+00 0.  1.
    3000001    1    5    5    0    0  0.22409847783E+02 -0.80356946427E+01  0.65501269561E+01  0.24711896512E+02  0.10000000000E+01 0. -1.
        -13    1    6    6    0    0  0.18803604319E+02 -0.13750677236E+02  0.24820778800E+01  0.23427086789E+02  0.10500000000E+00 0. -1.
         13    1    6    6    0    0  0.11502408302E+02 -0.84447099073E+01  0.16153312742E+01  0.14361018150E+02  0.10500000000E+00 0.  1.
</event>
<event>
11    0  0.3439373E-009  0.9118800E+02  0.7816531E-02  0.1126479E+00
         25   -1    0    0    0    0  0.00000000000E+00  0.00000000000E+00  0.99999998245E-14  0.12500000000E+03  0.12500000000E+03 0.  0.
    3000001    1    3    3    0    0  0.51485909959E+01  0.77179062292E+01  0.60341393649E+01  0.11112376149E+02  0.10000000000E+01 0. -1.
    1000022    2    1    0    0    0  0.15051562387E+02  0.36112622144E+02  0.47703031464E+02  0.62499999178E+02  0.99999839016E+01 0.  0.
    3000022    2    3    3    0    0  0.99029713916E+01  0.28394715915E+02  0.41668892099E+02  0.51387623029E+02  0.24999513676E+00 0.  0.
    1000022    2    1    0    0    0 -0.15051562387E+02 -0.36112622144E+02 -0.47703031464E+02  0.62500000822E+02  0.99999941708E+01 0.  0.
    3000022    2    5    5    0    0 -0.16217386020E+02 -0.34657112717E+02 -0.45295024280E+02  0.59294357199E+02  0.24999988691E+00 0.  0.
        -13    1    4    4    0    0  0.36636934539E+01  0.10534515525E+02  0.15555473399E+02  0.19141119213E+02  0.10500000000E+00 0.  1.
         13    1    4    4    0    0  0.62392779377E+01  0.17860200390E+02  0.26113418700E+02  0.32246503816E+02  0.10500000000E+00 0. -1.
    3000001    1    5    5    0    0  0.11658236327E+01 -0.14555094271E+01 -0.24080071838E+01  0.32056436221E+01  0.10000000000E+01 0.  1.
        -13    1    6    6    0    0 -0.61243259754E+01 -0.13227318437E+02 -0.17278008302E+02  0.22605528474E+02  0.10500000000E+00 0. -1.
         13    1    6    6    0    0 -0.10093060045E+02 -0.21429794280E+02 -0.28017015978E+02  0.36688828726E+02  0.10500000000E+00 0.  1.
</event>
<event>
11    0  0.3439373E-009  0.9118800E+02  0.7816531E-02  0.1126479E+00
         25   -1    0    0    0    0  0.00000000000E+00  0.00000000000E+00  0.99999998245E-14  0.12500000000E+03  0.12500000000E+03 0.  0.
    3000001    1    3    3    0    0  0.16497843432E+02  0.24618633333E+01  0.17306065285E+02  0.24057005312E+02  0.10000000000E+01 0. -1.
    1000022    2    1    0    0    0  0.45517716495E+02 -0.52292752987E+01  0.41316368249E+02  0.62499999302E+02  0.99999896186E+01 0.  0.
    3000022    2    3    3    0    0  0.29019873063E+02 -0.76911386320E+01  0.24010302965E+02  0.38442993989E+02  0.24998471185E+00 0.  0.
    1000022    2    1    0    0    0 -0.45517716495E+02  0.52292752987E+01 -0.41316368249E+02  0.62500000698E+02  0.99999983481E+01 0.  0.
    3000022    2    5    5    0    0 -0.10793813356E+02 -0.23768501023E+01 -0.70240795920E+01  0.13097939465E+02  0.25000186370E+00 0.  0.
        -13    1    4    4    0    0  0.11968980164E+02 -0.31789273854E+01  0.98226102791E+01  0.15806858106E+02  0.10500000000E+00 0. -1.
         13    1    4    4    0    0  0.17050892899E+02 -0.45122112466E+01  0.14187692685E+02  0.22636135884E+02  0.10500000000E+00 0.  1.
    3000001    1    5    5    0    0 -0.34723903139E+02  0.76061254010E+01 -0.34292288657E+02  0.49402061234E+02  0.10000000000E+01 0. -1.
        -13    1    6    6    0    0 -0.48692000513E+01 -0.10290272034E+01 -0.32240866026E+01  0.59307474694E+01  0.10500000000E+00 0. -1.
         13    1    6    6    0    0 -0.59246133045E+01 -0.13478228989E+01 -0.37999929894E+01  0.71671919951E+01  0.10500000000E+00 0.  1.
</event>
<event>
11    0  0.3439373E-009  0.9118800E+02  0.7816531E-02  0.1126479E+00
         25   -1    0    0    0    0  0.00000000000E+00  0.00000000000E+00  0.99999998245E-14  0.12500000000E+03  0.12500000000E+03 0.  0.
    3000001    1    3    3    0    0  0.15747515976E+02  0.70409889091E+01 -0.53630393080E+02  0.56345175890E+02  0.10000000000E+01 0.  1.
    1000022    2    1    0    0    0  0.16401614434E+02  0.10744591240E+02 -0.58496074545E+02  0.62500000588E+02  0.10000006971E+02 0.  0.
    3000022    2    3    3    0    0  0.65409845835E+00  0.37036023308E+01 -0.48656814652E+01  0.61548246981E+01  0.24999185031E+00 0.  0.
    1000022    2    1    0    0    0 -0.16401614434E+02 -0.10744591240E+02  0.58496074545E+02  0.62499999412E+02  0.99999996152E+01 0.  0.
    3000022    2    5    5    0    0  0.86627949717E+00  0.74808023388E+00  0.21441053549E+01  0.24433087765E+01  0.25001160145E+00 0.  0.
        -13    1    4    4    0    0  0.38416184415E+00  0.24742996128E+01 -0.32574730234E+01  0.41099749871E+01  0.10500000000E+00 0. -1.
         13    1    4    4    0    0  0.26993661420E+00  0.12293027180E+01 -0.16082084418E+01  0.20448497110E+01  0.10500000000E+00 0.  1.
    3000001    1    5    5    0    0 -0.17267893931E+02 -0.11492671474E+02  0.56351969190E+02  0.60056690635E+02  0.10000000000E+01 0.  1.
        -13    1    6    6    0    0  0.53751444679E+00  0.53498351051E+00  0.13730544555E+01  0.15720790931E+01  0.10500000000E+00 0. -1.
         13    1    6    6    0    0  0.32876505038E+00  0.21309672338E+00  0.77105089936E+00  0.87122968342E+00  0.10500000000E+00 0.  1.
</event>
<event>
11    0  0.3439373E-009  0.9118800E+02  0.7816531E-02  0.1126479E+00
         25   -1    0    0    0    0  0.00000000000E+00  0.00000000000E+00  0.99999998245E-14  0.12500000000E+03  0.12500000000E+03 0.  0.
    3000001    1    3    3    0    0 -0.50709679559E+02  0.17508654964E+02  0.84505783252E+01  0.54317924055E+02  0.10000000000E+01 0. -1.
    1000022    2    1    0    0    0 -0.57547913657E+02  0.18116451928E+02  0.12895017687E+02  0.62500002188E+02  0.10000029783E+02 0.  0.
    3000022    2    3    3    0    0 -0.68382340979E+01  0.60779696400E+00  0.44444393617E+01  0.81820781332E+01  0.24999722131E+00 0.  0.
    1000022    2    1    0    0    0  0.57547913657E+02 -0.18116451928E+02 -0.12895017687E+02  0.62499997812E+02  0.10000002428E+02 0.  0.
    3000022    2    5    5    0    0  0.33961592553E+02 -0.10207862924E+02 -0.12493589812E+02  0.37599767539E+02  0.24999685321E+00 0.  0.
        -13    1    4    4    0    0 -0.15767357687E+01  0.14123409544E+00  0.10362700208E+01  0.18949731687E+01  0.10500000000E+00 0.  1.
         13    1    4    4    0    0 -0.52614983293E+01  0.46656286856E+00  0.34081693409E+01  0.62871049646E+01  0.10500000000E+00 0. -1.
    3000001    1    5    5    0    0  0.23586321104E+02 -0.79085890038E+01 -0.40142787490E+00  0.24900230272E+02  0.10000000000E+01 0.  1.
        -13    1    6    6    0    0  0.19205446388E+02 -0.57038421881E+01 -0.70589542810E+01  0.21242006667E+02  0.10500000000E+00 0.  1.
         13    1    6    6    0    0  0.14756146164E+02 -0.45040207357E+01 -0.54346355310E+01  0.16357760873E+02  0.10500000000E+00 0. -1.
</event>
<event>
11    0  0.3439373E-009  0.9118800E+02  0.7816531E-02  0.1126479E+00
         25   -1    0    0    0    0  0.00000000000E+00  0.00000000000E+00  0.99999998245E-14  0.12500000000E+03  0.12500000000E+03 0.  0.
    3000001    1    3    3    0    0  0.11456987506E+02 -0.15969882266E+02 -0.32541468641E+02  0.38029552766E+02  0.10000000000E+01 0. -1.
    1000022    2    1    0    0    0  0.11318548262E+02 -0.24550615686E+02 -0.55456358135E+02  0.62500000477E+02  0.10000006836E+02 0.  0.
    3000022    2    3    3    0    0 -0.13843924424E+00 -0.85807334201E+01 -0.22914889494E+02  0.24470447711E+02  0.24999837469E+00 0.  0.
    1000022    2    1    0    0    0 -0.11318548262E+02  0.24550615686E+02  0.55456358135E+02  0.62499999523E+02  0.10000000873E+02 0.  0.
    3000022    2    5    5    0    0  0.86241487450E+00  0.88912819968E+01  0.18392546853E+02  0.20448641623E+02  0.25001901712E+00 0.  0.
        -13    1    4    4    0    0 -0.11758530801E-02 -0.23564019810E+01 -0.62719460821E+01  0.67008181841E+01  0.10500000000E+00 0. -1.
         13    1    4    4    0    0 -0.13726339116E+00 -0.62243314391E+01 -0.16642943412E+02  0.17769629527E+02  0.10500000000E+00 0.  1.
    3000001    1    5    5    0    0 -0.12180963136E+02  0.15659333689E+02  0.37063811282E+02  0.42051357900E+02  0.10000000000E+01 0.  1.
        -13    1    6    6    0    0  0.44180237024E+00  0.42151561131E+01  0.85913095131E+01  0.95804151550E+01  0.10500000000E+00 0.  1.
         13    1    6    6    0    0  0.42061250426E+00  0.46761258837E+01  0.98012373401E+01  0.10868226468E+02  0.10500000000E+00 0. -1.
</event>
<event>
11    0  0.3439373E-009  0.9118800E+02  0.7816531E-02  0.1126479E+00
         25   -1    0    0    0    0  0.00000000000E+00  0.00000000000E+00  0.99999998245E-14  0.12500000000E+03  0.12500000000E+03 0.  0.
    3000001    1    3    3    0    0  0.32285181815E+02  0.38395725745E+02  0.22080411416E+02  0.54818877119E+02  0.10000000000E+01 0. -1.
    1000022    2    1    0    0    0  0.37085131158E+02  0.44360818395E+02  0.21518839900E+02  0.62500003747E+02  0.10000041802E+02 0.  0.
    3000022    2    3    3    0    0  0.47999493431E+01  0.59650926505E+01 -0.56157151606E+00  0.76811266281E+01  0.24999936744E+00 0.  0.
    1000022    2    1    0    0    0 -0.37085131158E+02 -0.44360818395E+02 -0.21518839900E+02  0.62499996253E+02  0.99999949653E+01 0.  0.
    3000022    2    5    5    0    0 -0.34969726498E+02 -0.36832116420E+02 -0.18333845102E+02  0.53997027232E+02  0.25000478806E+00 0.  0.
        -13    1    4    4    0    0  0.29438164368E+01  0.35876217449E+01 -0.29627543491E+00  0.46514394687E+01  0.10500000000E+00 0. -1.
         13    1    4    4    0    0  0.18561329063E+01  0.23774709056E+01 -0.26529608116E+00  0.30296871593E+01  0.10500000000E+00 0.  1.
    3000001    1    5    5    0    0 -0.21154046605E+01 -0.75287019754E+01 -0.31849947974E+01  0.85029690210E+01  0.10000000000E+01 0. -1.
        -13    1    6    6    0    0 -0.10019958740E+02 -0.10589357229E+02 -0.52264906917E+01  0.15487455879E+02  0.10500000000E+00 0. -1.
         13    1    6    6    0    0 -0.24949767758E+02 -0.26242759191E+02 -0.13107354411E+02  0.38509571353E+02  0.10500000000E+00 0.  1.
</event>
<event>
11    0  0.3439373E-009  0.9118800E+02  0.7816531E-02  0.1126479E+00
         25   -1    0    0    0    0  0.00000000000E+00  0.00000000000E+00  0.99999998245E-14  0.12500000000E+03  0.12500000000E+03 0.  0.
    3000001    1    3    3    0    0  0.31777859754E+02  0.69713396551E+01  0.14854960960E+02  0.35778510481E+02  0.10000000000E+01 0.  1.
    1000022    2    1    0    0    0  0.57814605632E+02  0.57864589842E+01  0.20742185095E+02  0.62499999780E+02  0.99999999055E+01 0.  0.
    3000022    2    3    3    0    0  0.26036745877E+02 -0.11848806710E+01  0.58872241351E+01  0.26721489299E+02  0.25000849784E+00 0.  0.
    1000022    2    1    0    0    0 -0.57814605632E+02 -0.57864589842E+01 -0.20742185095E+02  0.62500000220E+02  0.10000002651E+02 0.  0.
    3000022    2    5    5    0    0 -0.12599865118E+02 -0.53635516721E+01 -0.39349097076E+01  0.14250273627E+02  0.24999301390E+00 0.  0.
        -13    1    4    4    0    0  0.10328930517E+02 -0.46712579363E+00  0.22712892626E+01  0.10586538247E+02  0.10500000000E+00 0.  1.
         13    1    4    4    0    0  0.15707815360E+02 -0.71775487734E+00  0.36159348724E+01  0.16134951052E+02  0.10500000000E+00 0. -1.
    3000001    1    5    5    0    0 -0.45214740514E+02 -0.42290731204E+00 -0.16807275387E+02  0.48249726592E+02  0.10000000000E+01 0.  1.
        -13    1    6    6    0    0 -0.29552111660E+01 -0.12487816779E+01 -0.93343437188E+00  0.33429109233E+01  0.10500000000E+00 0. -1.
         13    1    6    6    0    0 -0.96446539521E+01 -0.41147699942E+01 -0.30014753358E+01  0.10907362704E+02  0.10500000000E+00 0.  1.
</event>
<event>
11    0  0.3439373E-009  0.9118800E+02  0.7816531E-02  0.1126479E+00
         25   -1    0    0    0    0  0.00000000000E+00  0.00000000000E+00  0.99999998245E-14  0.12500000000E+03  0.12500000000E+03 0.  0.
    3000001    1    3    3    0    0 -0.18431050185E+02  0.68540068209E+01 -0.82726876123E+01  0.21356928167E+02  0.10000000000E+01 0. -1.
    1000022    2    1    0    0    0 -0.48555476116E+02  0.32063950171E+02 -0.20506556274E+02  0.62499999572E+02  0.99999967414E+01 0.  0.
    3000022    2    3    3    0    0 -0.30124425931E+02  0.25209943350E+02 -0.12233868662E+02  0.41143071405E+02  0.25000150760E+00 0.  0.
    1000022    2    1    0    0    0  0.48555476116E+02 -0.32063950171E+02  0.20506556274E+02  0.62500000428E+02  0.10000002091E+02 0.  0.
    3000022    2    5    5    0    0 -0.79820556338E-02 -0.31840424842E+00  0.13232459273E+01  0.13838114809E+01  0.25001890300E+00 0.  0.
        -13    1    4    4    0    0 -0.14003871167E+02  0.11786744189E+02 -0.56555609750E+01  0.19158082921E+02  0.10500000000E+00 0.  1.
         13    1    4    4    0    0 -0.16120554764E+02  0.13423199161E+02 -0.65783076872E+01  0.21984988484E+02  0.10500000000E+00 0. -1.
    3000001    1    5    5    0    0  0.48563458172E+02 -0.31745545923E+02  0.19183310347E+02  0.61116188947E+02  0.10000000000E+01 0.  1.
        -13    1    6    6    0    0 -0.70884803553E-01 -0.17959963498E+00  0.73059481159E+00  0.76293804662E+00  0.10500000000E+00 0. -1.
         13    1    6    6    0    0  0.62902747919E-01 -0.13880461345E+00  0.59265111574E+00  0.62087343429E+00  0.10500000000E+00 0.  1.
</event>
<event>
11    0  0.3439373E-009  0.9118800E+02  0.7816531E-02  0.1126479E+00
         25   -1    0    0    0    0  0.00000000000E+00  0.00000000000E+00  0.99999998245E-14  0.12500000000E+03  0.12500000000E+03 0.  0.
    3000001    1    3    3    0    0  0.33494581882E+02 -0.45170320660E+02  0.88891289268E+01  0.56940859645E+02  0.10000000000E+01 0.  1.
    1000022    2    1    0    0    0  0.35585362989E+02 -0.49921167502E+02  0.69143940750E+01  0.62499999628E+02  0.10000004215E+02 0.  0.
    3000022    2    3    3    0    0  0.20907811068E+01 -0.47508468416E+01 -0.19747348518E+01  0.55591399834E+01  0.25009652358E+00 0.  0.
    1000022    2    1    0    0    0 -0.35585362989E+02  0.49921167502E+02 -0.69143940750E+01  0.62500000372E+02  0.10000008864E+02 0.  0.
    3000022    2    5    5    0    0 -0.30633103403E+02  0.38011287668E+02 -0.81852732821E+01  0.49500567822E+02  0.25000344864E+00 0.  0.
        -13    1    4    4    0    0  0.13431787794E+01 -0.28996892827E+01 -0.12115350112E+01  0.34192351854E+01  0.10500000000E+00 0. -1.
         13    1    4    4    0    0  0.74760232735E+00 -0.18511575589E+01 -0.76319984056E+00  0.21399047979E+01  0.10500000000E+00 0. -1.
    3000001    1    5    5    0    0 -0.49522595860E+01  0.11909879834E+02  0.12708792071E+01  0.12999432550E+02  0.10000000000E+01 0.  1.
        -13    1    6    6    0    0 -0.19815932457E+02  0.24499102648E+02 -0.52722706968E+01  0.31948162278E+02  0.10500000000E+00 0.  1.
         13    1    6    6    0    0 -0.10817170946E+02  0.13512185020E+02 -0.29130025853E+01  0.17552405543E+02  0.10500000000E+00 0. -1.
</event>
<event>
11    0  0.3439373E-009  0.9118800E+02  0.7816531E-02  0.1126479E+00
         25   -1    0    0    0    0  0.00000000000E+00  0.00000000000E+00  0.99999998245E-14  0.12500000000E+03  0.12500000000E+03 0.  0.
    3000001    1    3    3    0    0  0.19774532523E+02 -0.25823241800E+02 -0.36924595480E+02  0.49216843712E+02  0.10000000000E+01 0.  1.
    1000022    2    1    0    0    0  0.26124191049E+02 -0.35857735443E+02 -0.42871901192E+02  0.62499997417E+02  0.99999608159E+01 0.  0.
    3000022    2    3    3    0    0  0.63496585260E+01 -0.10034493643E+02 -0.59473057117E+01  0.13283153706E+02  0.25000215611E+00 0.  0.
    1000022    2    1    0    0    0 -0.26124191049E+02  0.35857735443E+02  0.42871901192E+02  0.62500002583E+02  0.99999931008E+01 0.  0.
    3000022    2    5    5    0    0 -0.18564994078E+02  0.31677782576E+02  0.35936156948E+02  0.51377142653E+02  0.24999380974E+00 0.  0.
        -13    1    4    4    0    0  0.45971185834E+01 -0.72486407762E+01 -0.42561632251E+01  0.95813486927E+01  0.10500000000E+00 0.  1.
         13    1    4    4    0    0  0.17525399426E+01 -0.27858528665E+01 -0.16911424866E+01  0.37018050130E+01  0.10500000000E+00 0. -1.
    3000001    1    5    5    0    0 -0.75591969706E+01  0.41799528664E+01  0.69357442438E+01  0.11122859930E+02  0.10000000000E+01 0. -1.
        -13    1    6    6    0    0 -0.13899969806E+02  0.23663183248E+02  0.26864297739E+02  0.38403865952E+02  0.10500000000E+00 0. -1.
         13    1    6    6    0    0 -0.46650242722E+01  0.80145993278E+01  0.90718592091E+01  0.12973276701E+02  0.10500000000E+00 0.  1.
</event>
<event>
11    0  0.3439373E-009  0.9118800E+02  0.7816531E-02  0.1126479E+00
         25   -1    0    0    0    0  0.00000000000E+00  0.00000000000E+00  0.99999998245E-14  0.12500000000E+03  0.12500000000E+03 0.  0.
    3000001    1    3    3    0    0 -0.81482231108E+00 -0.59597771766E-01 -0.90418221631E+00  0.15763986721E+01  0.10000000000E+01 0. -1.
    1000022    2    1    0    0    0 -0.41300312967E+02 -0.43939143558E+02 -0.13034029695E+02  0.62499999989E+02  0.99999940411E+01 0.  0.
    3000022    2    3    3    0    0 -0.40485490656E+02 -0.43879545786E+02 -0.12129847479E+02  0.60923601317E+02  0.25001115662E+00 0.  0.
    1000022    2    1    0    0    0  0.41300312967E+02  0.43939143558E+02  0.13034029695E+02  0.62500000011E+02  0.99999941736E+01 0.  0.
    3000022    2    5    5    0    0  0.89891765126E+01  0.15269571768E+02  0.15314375393E+01  0.17786875406E+02  0.25003884929E+00 0.  0.
        -13    1    4    4    0    0 -0.27768486823E+02 -0.30113357019E+02 -0.82732069925E+01  0.41789473678E+02  0.10500000000E+00 0. -1.
         13    1    4    4    0    0 -0.12717003833E+02 -0.13766188767E+02 -0.38566404866E+01  0.19134127639E+02  0.10500000000E+00 0.  1.
    3000001    1    5    5    0    0  0.32311136454E+02  0.28669571790E+02  0.11502592156E+02  0.44713124604E+02  0.10000000000E+01 0.  1.
        -13    1    6    6    0    0  0.26821029644E+01  0.46444745137E+01  0.47611181430E+00  0.53853994541E+01  0.10500000000E+00 0. -1.
         13    1    6    6    0    0  0.63070735482E+01  0.10625097255E+02  0.10553257250E+01  0.12401475952E+02  0.10500000000E+00 0.  1.
</event>
<event>
11    0  0.3439373E-009  0.9118800E+02  0.7816531E-02  0.1126479E+00
         25   -1    0    0    0    0  0.00000000000E+00  0.00000000000E+00  0.99999998245E-14  0.12500000000E+03  0.12500000000E+03 0.  0.
    3000001    1    3    3    0    0 -0.58834240518E+02 -0.99365270407E+00  0.55303019687E+01  0.59110400463E+02  0.10000000000E+01 0. -1.
    1000022    2    1    0    0    0 -0.61486863210E+02 -0.26834172002E+01  0.42912828603E+01  0.62499999441E+02  0.99999873125E+01 0.  0.
    3000022    2    3    3    0    0 -0.26526226926E+01 -0.16897644961E+01 -0.12390191084E+01  0.33895989785E+01  0.25000336547E+00 0.  0.
    1000022    2    1    0    0    0  0.61486863210E+02  0.26834172002E+01 -0.42912828603E+01  0.62500000559E+02  0.99999942993E+01 0.  0.
    3000022    2    5    5    0    0  0.39223695926E+02 -0.86131001085E-01  0.16869510537E+01  0.39260846196E+02  0.24999909031E+00 0.  0.
        -13    1    4    4    0    0 -0.78066350352E+00 -0.52512582124E+00 -0.41427668650E+00  0.10333647985E+01  0.10500000000E+00 0.  1.
         13    1    4    4    0    0 -0.18719591891E+01 -0.11646386749E+01 -0.82474242189E+00  0.23562341800E+01  0.10500000000E+00 0. -1.
    3000001    1    5    5    0    0  0.22263167284E+02  0.27695482013E+01 -0.59782339140E+01  0.23239154363E+02  0.10000000000E+01 0. -1.
        -13    1    6    6    0    0  0.23206221610E+02 -0.11117938855E+00  0.10192602323E+01  0.23229098103E+02  0.10500000000E+00 0.  1.
         13    1    6    6    0    0  0.16017474316E+02  0.25048387469E-01  0.66769082144E+00  0.16031748093E+02  0.10500000000E+00 0. -1.
</event>
<event>
11    0  0.3439373E-009  0.9118800E+02  0.7816531E-02  0.1126479E+00
         25   -1    0    0    0    0  0.00000000000E+00  0.00000000000E+00  0.99999998245E-14  0.12500000000E+03  0.12500000000E+03 0.  0.
    3000001    1    3    3    0    0 -0.28748048619E+02  0.19752405271E+01  0.48069842768E+01  0.29231130194E+02  0.10000000000E+01 0.  1.
    1000022    2    1    0    0    0 -0.58300857304E+02  0.12717920769E+02  0.15668908760E+02  0.62499998032E+02  0.99999790603E+01 0.  0.
    3000022    2    3    3    0    0 -0.29552808684E+02  0.10742680242E+02  0.10861924483E+02  0.33268867838E+02  0.24996766978E+00 0.  0.
    1000022    2    1    0    0    0  0.58300857304E+02 -0.12717920769E+02 -0.15668908760E+02  0.62500001968E+02  0.10000003666E+02 0.  0.
    3000022    2    5    5    0    0  0.51050628936E+02 -0.77045074386E+01 -0.13603899777E+02  0.53391523133E+02  0.25000726471E+00 0.  0.
        -13    1    4    4    0    0 -0.17568642819E+02  0.63368830838E+01  0.64054077717E+01  0.19744709961E+02  0.10500000000E+00 0. -1.
         13    1    4    4    0    0 -0.11984165865E+02  0.44057971584E+01  0.44565167110E+01  0.13524157877E+02  0.10500000000E+00 0.  1.
    3000001    1    5    5    0    0  0.72502283676E+01 -0.50134133308E+01 -0.20650089822E+01  0.91084788359E+01  0.10000000000E+01 0.  1.
        -13    1    6    6    0    0  0.28123945442E+02 -0.43113194790E+01 -0.75053157699E+01  0.29425916684E+02  0.10500000000E+00 0.  1.
         13    1    6    6    0    0  0.22926683494E+02 -0.33931879596E+01 -0.60985840074E+01  0.23965606448E+02  0.10500000000E+00 0. -1.
</event>
<event>
11    0  0.3439373E-009  0.9118800E+02  0.7816531E-02  0.1126479E+00
         25   -1    0    0    0    0  0.00000000000E+00  0.00000000000E+00  0.99999998245E-14  0.12500000000E+03  0.12500000000E+03 0.  0.
    3000001    1    3    3    0    0  0.33196982137E+02 -0.13401064506E+02  0.45097916736E+02  0.57588629493E+02  0.10000000000E+01 0.  1.
    1000022    2    1    0    0    0  0.33407198992E+02 -0.15660226790E+02  0.49446600916E+02  0.62500000331E+02  0.10000002581E+02 0.  0.
    3000022    2    3    3    0    0  0.21021685492E+00 -0.22591622834E+01  0.43486841800E+01  0.49113708382E+01  0.25000812808E+00 0.  0.
    1000022    2    1    0    0    0 -0.33407198992E+02  0.15660226790E+02 -0.49446600916E+02  0.62499999669E+02  0.99999984444E+01 0.  0.
    3000022    2    5    5    0    0 -0.26464578919E+02  0.94683774329E+01 -0.42019867604E+02  0.50554484208E+02  0.24998310959E+00 0.  0.
        -13    1    4    4    0    0  0.13873718992E+00 -0.15053645862E+01  0.30044817812E+01  0.33650120830E+01  0.10500000000E+00 0. -1.
         13    1    4    4    0    0  0.71479665001E-01 -0.75379769716E+00  0.13442023988E+01  0.15463587552E+01  0.10500000000E+00 0.  1.
    3000001    1    5    5    0    0 -0.69426200727E+01  0.61918493567E+01 -0.74267333127E+01  0.11945515461E+02  0.10000000000E+01 0.  1.
        -13    1    6    6    0    0 -0.89775114581E+01  0.31774593899E+01 -0.14316292300E+02  0.17194743685E+02  0.10500000000E+00 0.  1.
         13    1    6    6    0    0 -0.17487067461E+02  0.62909180430E+01 -0.27703575303E+02  0.33359740523E+02  0.10500000000E+00 0. -1.
</event>
<event>
11    0  0.3439373E-009  0.9118800E+02  0.7816531E-02  0.1126479E+00
         25   -1    0    0    0    0  0.00000000000E+00  0.00000000000E+00  0.99999998245E-14  0.12500000000E+03  0.12500000000E+03 0.  0.
    3000001    1    3    3    0    0 -0.67618237615E+00 -0.33308969867E+00 -0.46687968080E+01  0.48338219855E+01  0.10000000000E+01 0.  1.
    1000022    2    1    0    0    0 -0.34169668076E+02 -0.19392296842E+02 -0.47567033105E+02  0.62500000419E+02  0.10000001039E+02 0.  0.
    3000022    2    3    3    0    0 -0.33493485700E+02 -0.19059207143E+02 -0.42898236297E+02  0.57666178434E+02  0.24999304755E+00 0.  0.
    1000022    2    1    0    0    0  0.34169668076E+02  0.19392296842E+02  0.47567033105E+02  0.62499999581E+02  0.99999957961E+01 0.  0.
    3000022    2    5    5    0    0  0.26429041465E+02  0.12008721304E+02  0.39708306916E+02  0.49188573460E+02  0.25000154474E+00 0.  0.
        -13    1    4    4    0    0 -0.17833089563E+02 -0.10163307854E+02 -0.22750295898E+02  0.30641457184E+02  0.10500000000E+00 0. -1.
         13    1    4    4    0    0 -0.15660396137E+02 -0.88958992888E+01 -0.20147940399E+02  0.27024721250E+02  0.10500000000E+00 0.  1.
    3000001    1    5    5    0    0  0.77406266110E+01  0.73835755373E+01  0.78587261891E+01  0.13311426121E+02  0.10000000000E+01 0.  1.
        -13    1    6    6    0    0  0.74392560161E+01  0.33429599070E+01  0.11192643236E+02  0.13849339284E+02  0.10500000000E+00 0. -1.
         13    1    6    6    0    0  0.18989785449E+02  0.86657613975E+01  0.28515663680E+02  0.35339234176E+02  0.10500000000E+00 0.  1.
</event>
<event>
11    0  0.3439373E-009  0.9118800E+02  0.7816531E-02  0.1126479E+00
         25   -1    0    0    0    0  0.00000000000E+00  0.00000000000E+00  0.99999998245E-14  0.12500000000E+03  0.12500000000E+03 0.  0.
    3000001    1    3    3    0    0  0.41728451726E-01 -0.16067874992E+01  0.23040581322E+00  0.19069856240E+01  0.10000000000E+01 0.  1.
    1000022    2    1    0    0    0 -0.39557088663E+02 -0.40210856093E+02  0.24991473328E+02  0.62500000013E+02  0.10000002569E+02 0.  0.
    3000022    2    3    3    0    0 -0.39598817114E+02 -0.38604068594E+02  0.24761067514E+02  0.60593014389E+02  0.24999895766E+00 0.  0.
    1000022    2    1    0    0    0  0.39557088663E+02  0.40210856093E+02 -0.24991473328E+02  0.62499999987E+02  0.10000002403E+02 0.  0.
    3000022    2    5    5    0    0  0.38080018234E+02  0.38341852159E+02 -0.21506145362E+02  0.58161518250E+02  0.25000208417E+00 0.  0.
        -13    1    4    4    0    0 -0.29264652336E+02 -0.28572330105E+02  0.18321730448E+02  0.44816233171E+02  0.10500000000E+00 0. -1.
         13    1    4    4    0    0 -0.10334164779E+02 -0.10031738488E+02  0.64393370660E+01  0.15776781219E+02  0.10500000000E+00 0.  1.
    3000001    1    5    5    0    0  0.14770704283E+01  0.18690039338E+01 -0.34853279657E+01  0.43384817371E+01  0.10000000000E+01 0. -1.
        -13    1    6    6    0    0  0.23805323590E+02  0.23903976665E+02 -0.13383754821E+02  0.36293655778E+02  0.10500000000E+00 0. -1.
         13    1    6    6    0    0  0.14274694644E+02  0.14437875494E+02 -0.81223905413E+01  0.21867862471E+02  0.10500000000E+00 0.  1.
</event>
<event>
11    0  0.3439373E-009  0.9118800E+02  0.7816531E-02  0.1126479E+00
         25   -1    0    0    0    0  0.00000000000E+00  0.00000000000E+00  0.99999998245E-14  0.12500000000E+03  0.12500000000E+03 0.  0.
    3000001    1    3    3    0    0  0.13182691186E+02 -0.25732916032E+02 -0.40092197233E+02  0.49440374123E+02  0.10000000000E+01 0. -1.
    1000022    2    1    0    0    0  0.13642401247E+02 -0.35876370086E+02 -0.48301354984E+02  0.62500000250E+02  0.10000004784E+02 0.  0.
    3000022    2    3    3    0    0  0.45971006115E+00 -0.10143454054E+02 -0.82091577509E+01  0.13059626128E+02  0.25014022225E+00 0.  0.
    1000022    2    1    0    0    0 -0.13642401247E+02  0.35876370086E+02  0.48301354984E+02  0.62499999750E+02  0.10000001654E+02 0.  0.
    3000022    2    5    5    0    0 -0.90381956619E+01  0.31447024016E+02  0.43563541186E+02  0.54483473366E+02  0.24989809335E+00 0.  0.
        -13    1    4    4    0    0  0.26944929260E+00 -0.60620760647E+01 -0.48241374817E+01  0.77527218819E+01  0.10500000000E+00 0. -1.
         13    1    4    4    0    0  0.19026076855E+00 -0.40813779893E+01 -0.33850202693E+01  0.53069042459E+01  0.10500000000E+00 0.  1.
    3000001    1    5    5    0    0 -0.46042055848E+01  0.44293460706E+01  0.47378137980E+01  0.80165263840E+01  0.10000000000E+01 0. -1.
        -13    1    6    6    0    0 -0.67192930625E+01  0.23268883605E+02  0.32258601949E+02  0.40338793589E+02  0.10500000000E+00 0. -1.
         13    1    6    6    0    0 -0.23189025994E+01  0.81781404105E+01  0.11304939237E+02  0.14144679777E+02  0.10500000000E+00 0.  1.
</event>
<event>
11    0  0.3439373E-009  0.9118800E+02  0.7816531E-02  0.1126479E+00
         25   -1    0    0    0    0  0.00000000000E+00  0.00000000000E+00  0.99999998245E-14  0.12500000000E+03  0.12500000000E+03 0.  0.
    3000001    1    3    3    0    0  0.12161427449E+02 -0.52567517587E+01 -0.10318581357E+02  0.16822808264E+02  0.10000000000E+01 0. -1.
    1000022    2    1    0    0    0  0.34243542715E+02 -0.31176979515E+02 -0.40763050989E+02  0.62500004644E+02  0.99999992557E+01 0.  0.
    3000022    2    3    3    0    0  0.22082115266E+02 -0.25920227757E+02 -0.30444469632E+02  0.45677196380E+02  0.25003275477E+00 0.  0.
    1000022    2    1    0    0    0 -0.34243542715E+02  0.31176979515E+02  0.40763050989E+02  0.62499995356E+02  0.99999412109E+01 0.  0.
    3000022    2    5    5    0    0 -0.19655430217E+02  0.23738596587E+02  0.24187300894E+02  0.39178373242E+02  0.25000076730E+00 0.  0.
        -13    1    4    4    0    0  0.12615289590E+02 -0.14836518702E+02 -0.17327759010E+02  0.26067797681E+02  0.10500000000E+00 0.  1.
         13    1    4    4    0    0  0.94668256765E+01 -0.11083709055E+02 -0.13116710622E+02  0.19609398699E+02  0.10500000000E+00 0. -1.
    3000001    1    5    5    0    0 -0.14588112498E+02  0.74383829283E+01  0.16575750095E+02  0.23321622115E+02  0.10000000000E+01 0.  1.
        -13    1    6    6    0    0 -0.10245411157E+02  0.12267860641E+02  0.12548792277E+02  0.20321222087E+02  0.10500000000E+00 0.  1.
         13    1    6    6    0    0 -0.94100190602E+01  0.11470735946E+02  0.11638508617E+02  0.18857151155E+02  0.10500000000E+00 0. -1.
</event>
<event>
11    0  0.3439373E-009  0.9118800E+02  0.7816531E-02  0.1126479E+00
         25   -1    0    0    0    0  0.00000000000E+00  0.00000000000E+00  0.99999998245E-14  0.12500000000E+03  0.12500000000E+03 0.  0.
    3000001    1    3    3    0    0  0.12361747083E+01  0.51825701131E+01 -0.55705501841E+02  0.55968652800E+02  0.10000000000E+01 0.  1.
    1000022    2    1    0    0    0 -0.13747800160E+01  0.74935257179E+01 -0.61222605452E+02  0.62500002854E+02  0.99999995320E+01 0.  0.
    3000022    2    3    3    0    0 -0.26109547244E+01  0.23109556049E+01 -0.55171036116E+01  0.65313500546E+01  0.25000178868E+00 0.  0.
    1000022    2    1    0    0    0  0.13747800160E+01 -0.74935257179E+01  0.61222605452E+02  0.62499997146E+02  0.99999638516E+01 0.  0.
    3000022    2    5    5    0    0  0.24000391737E+01 -0.34271680239E+01  0.53431365991E+02  0.53595513243E+02  0.24999869842E+00 0.  0.
        -13    1    4    4    0    0 -0.86349327390E+00  0.74754100786E+00 -0.17167740593E+01  0.20646492107E+01  0.10500000000E+00 0.  1.
         13    1    4    4    0    0 -0.17474614505E+01  0.15634145970E+01 -0.38003295523E+01  0.44667008440E+01  0.10500000000E+00 0. -1.
    3000001    1    5    5    0    0 -0.10252591577E+01 -0.40663576940E+01  0.77912394610E+01  0.89044839028E+01  0.10000000000E+01 0. -1.
        -13    1    6    6    0    0  0.10580731303E+01 -0.16271915479E+01  0.24883498531E+02  0.24959302779E+02  0.10500000000E+00 0. -1.
         13    1    6    6    0    0  0.13419660434E+01 -0.17999764760E+01  0.28547867460E+02  0.28636210464E+02  0.10500000000E+00 0.  1.
</event>
<event>
11    0  0.3439373E-009  0.9118800E+02  0.7816531E-02  0.1126479E+00
         25   -1    0    0    0    0  0.00000000000E+00  0.00000000000E+00  0.99999998245E-14  0.12500000000E+03  0.12500000000E+03 0.  0.
    3000001    1    3    3    0    0 -0.38534914412E+02 -0.31916428784E+02  0.23616938147E+02  0.55338574453E+02  0.10000000000E+01 0. -1.
    1000022    2    1    0    0    0 -0.45046946269E+02 -0.32830447827E+02  0.26442095542E+02  0.62499999250E+02  0.99999908441E+01 0.  0.
    3000022    2    3    3    0    0 -0.65120318571E+01 -0.91401904308E+00  0.28251573946E+01  0.71614247966E+01  0.25000218634E+00 0.  0.
    1000022    2    1    0    0    0  0.45046946269E+02  0.32830447827E+02 -0.26442095542E+02  0.62500000750E+02  0.10000000224E+02 0.  0.
    3000022    2    5    5    0    0  0.21679460858E+02  0.20256289562E+02 -0.10217744772E+02  0.31381222041E+02  0.24999721052E+00 0.  0.
        -13    1    4    4    0    0 -0.24887408745E+01 -0.30111286510E+00  0.11186116426E+01  0.27471470847E+01  0.10500000000E+00 0.  1.
         13    1    4    4    0    0 -0.40232909826E+01 -0.61290617798E+00  0.17065457521E+01  0.44142777118E+01  0.10500000000E+00 0. -1.
    3000001    1    5    5    0    0  0.23367485411E+02  0.12574158265E+02 -0.16224350770E+02  0.31118778710E+02  0.10000000000E+01 0.  1.
        -13    1    6    6    0    0  0.16670447680E+02  0.15584583674E+02 -0.78525668836E+01  0.24134143983E+02  0.10500000000E+00 0. -1.
         13    1    6    6    0    0  0.50090131780E+01  0.46717058886E+01 -0.23651778886E+01  0.72470780575E+01  0.10500000000E+00 0.  1.
</event>
<event>
11    0  0.3439373E-009  0.9118800E+02  0.7816531E-02  0.1126479E+00
         25   -1    0    0    0    0  0.00000000000E+00  0.00000000000E+00  0.99999998245E-14  0.12500000000E+03  0.12500000000E+03 0.  0.
    3000001    1    3    3    0    0 -0.12404772357E+02  0.24386494581E+02  0.51419734778E+02  0.58254344215E+02  0.10000000000E+01 0. -1.
    1000022    2    1    0    0    0 -0.13674870001E+02  0.23524169863E+02  0.55370226657E+02  0.62500005245E+02  0.10000000914E+02 0.  0.
    3000022    2    3    3    0    0 -0.12700976442E+01 -0.86232471839E+00  0.39504918785E+01  0.42456610302E+01  0.24999911068E+00 0.  0.
    1000022    2    1    0    0    0  0.13674870001E+02 -0.23524169863E+02 -0.55370226657E+02  0.62499994755E+02  0.99999353549E+01 0.  0.
    3000022    2    5    5    0    0 -0.19957720710E+00 -0.25122407640E+01 -0.13013966556E+01  0.28473349028E+01  0.24999615061E+00 0.  0.
        -13    1    4    4    0    0 -0.37058989002E+00 -0.28583449694E+00  0.11175923442E+01  0.12161726333E+01  0.10500000000E+00 0.  1.
         13    1    4    4    0    0 -0.89950775422E+00 -0.57649022145E+00  0.28328995343E+01  0.30294883969E+01  0.10500000000E+00 0. -1.
    3000001    1    5    5    0    0  0.13874447208E+02 -0.21011929099E+02 -0.54068830001E+02  0.59652659853E+02  0.10000000000E+01 0. -1.
        -13    1    6    6    0    0 -0.18015161630E+00 -0.14486405066E+01 -0.75546684779E+00  0.16470485968E+01  0.10500000000E+00 0.  1.
         13    1    6    6    0    0 -0.19425590793E-01 -0.10636002574E+01 -0.54592980786E+00  0.12002863059E+01  0.10500000000E+00 0. -1.
</event>
<event>
11    0  0.3439373E-009  0.9118800E+02  0.7816531E-02  0.1126479E+00
         25   -1    0    0    0    0  0.00000000000E+00  0.00000000000E+00  0.99999998245E-14  0.12500000000E+03  0.12500000000E+03 0.  0.
    3000001    1    3    3    0    0 -0.47516415128E+01 -0.33006550491E+00 -0.59265836194E+01  0.76688613041E+01  0.10000000000E+01 0. -1.
    1000022    2    1    0    0    0 -0.49854632788E+02  0.14762261608E+02 -0.33209052032E+02  0.62499999697E+02  0.10000002353E+02 0.  0.
    3000022    2    3    3    0    0 -0.45102991276E+02  0.15092327113E+02 -0.27282468412E+02  0.54831138393E+02  0.24999024645E+00 0.  0.
    1000022    2    1    0    0    0  0.49854632788E+02 -0.14762261608E+02  0.33209052032E+02  0.62500000303E+02  0.10000006136E+02 0.  0.
    3000022    2    5    5    0    0  0.19486262507E+02 -0.81663230081E+00  0.12822473845E+02  0.23342228910E+02  0.25000027220E+00 0.  0.
        -13    1    4    4    0    0 -0.28697942425E+02  0.96052487889E+01 -0.17427048837E+02  0.34921995360E+02  0.10500000000E+00 0.  1.
         13    1    4    4    0    0 -0.16405048851E+02  0.54870783241E+01 -0.98554195750E+01  0.19909143033E+02  0.10500000000E+00 0. -1.
    3000001    1    5    5    0    0  0.30368370281E+02 -0.13945629307E+02  0.20386578187E+02  0.39157771393E+02  0.10000000000E+01 0. -1.
        -13    1    6    6    0    0  0.10930980306E+02 -0.45512475705E+00  0.71136506013E+01  0.13050230606E+02  0.10500000000E+00 0.  1.
         13    1    6    6    0    0  0.85552822014E+01 -0.36150754376E+00  0.57088232440E+01  0.10291998304E+02  0.10500000000E+00 0. -1.
</event>
<event>
11    0  0.3439373E-009  0.9118800E+02  0.7816531E-02  0.1126479E+00
         25   -1    0    0    0    0  0.00000000000E+00  0.00000000000E+00  0.99999998245E-14  0.12500000000E+03  0.12500000000E+03 0.  0.
    3000001    1    3    3    0    0 -0.37587940532E+02 -0.80300958158E+01  0.92863179975E+01  0.39554663621E+02  0.10000000000E+01 0. -1.
    1000022    2    1    0    0    0 -0.59410704359E+02 -0.14871729165E+02  0.74464636188E+01  0.62500001607E+02  0.10000012978E+02 0.  0.
    3000022    2    3    3    0    0 -0.21822763828E+02 -0.68416333492E+01 -0.18398543787E+01  0.22945337985E+02  0.25000634091E+00 0.  0.
    1000022    2    1    0    0    0  0.59410704359E+02  0.14871729165E+02 -0.74464636188E+01  0.62499998393E+02  0.99999928943E+01 0.  0.
    3000022    2    5    5    0    0  0.60117660434E+01  0.38300762606E+01  0.13448720391E+01  0.72582361586E+01  0.24999241918E+00 0.  0.
        -13    1    4    4    0    0 -0.10915626009E+02 -0.34651735675E+01 -0.97548699917E+00  0.11494386408E+02  0.10500000000E+00 0.  1.
         13    1    4    4    0    0 -0.10907137819E+02 -0.33764597817E+01 -0.86436737957E+00  0.11450951577E+02  0.10500000000E+00 0. -1.
    3000001    1    5    5    0    0  0.53398938316E+02  0.11041652904E+02 -0.87913356578E+01  0.55241762235E+02  0.10000000000E+01 0.  1.
        -13    1    6    6    0    0  0.42908432370E+01  0.26835238134E+01  0.96220187700E+00  0.51526200320E+01  0.10500000000E+00 0. -1.
         13    1    6    6    0    0  0.17209228064E+01  0.11465524472E+01  0.38267016206E+00  0.21056161266E+01  0.10500000000E+00 0.  1.
</event>
<event>
11    0  0.3439373E-009  0.9118800E+02  0.7816531E-02  0.1126479E+00
         25   -1    0    0    0    0  0.00000000000E+00  0.00000000000E+00  0.99999998245E-14  0.12500000000E+03  0.12500000000E+03 0.  0.
    3000001    1    3    3    0    0 -0.33333130073E+02 -0.40465187520E+02 -0.76397634819E+01  0.52989573952E+02  0.10000000000E+01 0.  1.
    1000022    2    1    0    0    0 -0.40014218660E+02 -0.46691855768E+02 -0.49982925948E+01  0.62500000311E+02  0.10000000999E+02 0.  0.
    3000022    2    3    3    0    0 -0.66810885875E+01 -0.62266682475E+01  0.26414708871E+01  0.95104263595E+01  0.24999782553E+00 0.  0.
    1000022    2    1    0    0    0  0.40014218660E+02  0.46691855768E+02  0.49982925948E+01  0.62499999689E+02  0.99999971104E+01 0.  0.
    3000022    2    5    5    0    0 -0.41111055848E+00  0.54135334646E+00  0.67109650059E+00  0.98739332051E+00  0.24999943854E+00 0.  0.
        -13    1    4    4    0    0 -0.43462035390E+01 -0.39735951595E+01  0.16915616585E+01  0.61279155949E+01  0.10500000000E+00 0. -1.
         13    1    4    4    0    0 -0.23348850485E+01 -0.22530730880E+01  0.94990922857E+00  0.33825107645E+01  0.10500000000E+00 0.  1.
    3000001    1    5    5    0    0  0.40425329219E+02  0.46150502422E+02  0.43271960942E+01  0.61512606368E+02  0.10000000000E+01 0.  1.
        -13    1    6    6    0    0 -0.22651544315E+00  0.24565188020E+00  0.24766334870E+00  0.42897112551E+00  0.10500000000E+00 0. -1.
         13    1    6    6    0    0 -0.18459511533E+00  0.29570146626E+00  0.42343315188E+00  0.55842219500E+00  0.10500000000E+00 0.  1.
</event>
<event>
11    0  0.3439373E-009  0.9118800E+02  0.7816531E-02  0.1126479E+00
         25   -1    0    0    0    0  0.00000000000E+00  0.00000000000E+00  0.99999998245E-14  0.12500000000E+03  0.12500000000E+03 0.  0.
    3000001    1    3    3    0    0  0.23547432844E+02 -0.17073111576E+01 -0.11878383001E+02  0.26447920290E+02  0.10000000000E+01 0. -1.
    1000022    2    1    0    0    0  0.58207234847E+02  0.38726956186E+01 -0.20079101559E+02  0.62500002450E+02  0.10000001346E+02 0.  0.
    3000022    2    3    3    0    0  0.34659802003E+02  0.55800067762E+01 -0.82007185582E+01  0.36052082160E+02  0.24998541803E+00 0.  0.
    1000022    2    1    0    0    0 -0.58207234847E+02 -0.38726956186E+01  0.20079101559E+02  0.62499997550E+02  0.99999707265E+01 0.  0.
    3000022    2    5    5    0    0 -0.78149931726E+00 -0.88102873823E+00  0.17757429059E+01  0.21453944964E+01  0.25000371381E+00 0.  0.
        -13    1    4    4    0    0  0.19719471186E+02  0.31178714216E+01 -0.46287148032E+01  0.20494259972E+02  0.10500000000E+00 0.  1.
         13    1    4    4    0    0  0.14940330817E+02  0.24621353546E+01 -0.35720037550E+01  0.15557822188E+02  0.10500000000E+00 0. -1.
    3000001    1    5    5    0    0 -0.57425735530E+02 -0.29916668804E+01  0.18303358653E+02  0.60354603054E+02  0.10000000000E+01 0. -1.
        -13    1    6    6    0    0 -0.34971142688E+00 -0.40511049710E+00  0.92889391303E+00  0.10771636359E+01  0.10500000000E+00 0. -1.
         13    1    6    6    0    0 -0.43178789038E+00 -0.47591824113E+00  0.84684899288E+00  0.10682308605E+01  0.10500000000E+00 0.  1.
</event>
<event>
11    0  0.3439373E-009  0.9118800E+02  0.7816531E-02  0.1126479E+00
         25   -1    0    0    0    0  0.00000000000E+00  0.00000000000E+00  0.99999998245E-14  0.12500000000E+03  0.12500000000E+03 0.  0.
    3000001    1    3    3    0    0 -0.20326039791E+02 -0.15190383675E+02 -0.18381113463E+02  0.31349018835E+02  0.10000000000E+01 0.  1.
    1000022    2    1    0    0    0 -0.44582625323E+02 -0.21301573076E+02 -0.36944316431E+02  0.62499999173E+02  0.99999941908E+01 0.  0.
    3000022    2    3    3    0    0 -0.24256585532E+02 -0.61111894012E+01 -0.18563202968E+02  0.31150980338E+02  0.24998798348E+00 0.  0.
    1000022    2    1    0    0    0  0.44582625323E+02  0.21301573076E+02  0.36944316431E+02  0.62500000827E+02  0.10000004529E+02 0.  0.
    3000022    2    5    5    0    0  0.28895912541E+01  0.46003363951E+01  0.48722071280E+01  0.73016259260E+01  0.25001260216E+00 0.  0.
        -13    1    4    4    0    0 -0.16890699281E+02 -0.42844356635E+01 -0.12977550794E+02  0.21727401151E+02  0.10500000000E+00 0.  1.
         13    1    4    4    0    0 -0.73658862515E+01 -0.18267537377E+01 -0.55856521745E+01  0.94235791875E+01  0.10500000000E+00 0. -1.
    3000001    1    5    5    0    0  0.41693034069E+02  0.16701236681E+02  0.32072109303E+02  0.55198374901E+02  0.10000000000E+01 0. -1.
        -13    1    6    6    0    0  0.20345158833E+01  0.32745204575E+01  0.34031673897E+01  0.51433755831E+01  0.10500000000E+00 0. -1.
         13    1    6    6    0    0  0.85507537086E+00  0.13258159376E+01  0.14690397383E+01  0.21582503429E+01  0.10500000000E+00 0.  1.
</event>
<event>
11    0  0.3439373E-009  0.9118800E+02  0.7816531E-02  0.1126479E+00
         25   -1    0    0    0    0  0.00000000000E+00  0.00000000000E+00  0.99999998245E-14  0.12500000000E+03  0.12500000000E+03 0.  0.
    3000001    1    3    3    0    0  0.51212850534E+02  0.19068456091E+02  0.12506257046E+02  0.56069319087E+02  0.10000000000E+01 0.  1.
    1000022    2    1    0    0    0  0.56254119774E+02  0.22785319322E+02  0.11070395318E+02  0.62500000363E+02  0.99999812358E+01 0.  0.
    3000022    2    3    3    0    0  0.50412692395E+01  0.37168632310E+01 -0.14358617280E+01  0.64306812761E+01  0.24998989845E+00 0.  0.
    1000022    2    1    0    0    0 -0.56254119774E+02 -0.22785319322E+02 -0.11070395318E+02  0.62499999637E+02  0.99999766993E+01 0.  0.
    3000022    2    5    5    0    0 -0.46118026278E+02 -0.19198963091E+02 -0.12787608016E+02  0.51566054245E+02  0.25000031139E+00 0.  0.
        -13    1    4    4    0    0  0.31388981617E+01  0.22852593536E+01 -0.94744441908E+00  0.39979704739E+01  0.10500000000E+00 0. -1.
         13    1    4    4    0    0  0.19023710778E+01  0.14316038774E+01 -0.48841730889E+00  0.24327108022E+01  0.10500000000E+00 0.  1.
    3000001    1    5    5    0    0 -0.10136093496E+02 -0.35863562312E+01  0.17172126974E+01  0.10933945392E+02  0.10000000000E+01 0.  1.
        -13    1    6    6    0    0 -0.19689491128E+02 -0.81913425547E+01 -0.55262182706E+01  0.22030076421E+02  0.10500000000E+00 0. -1.
         13    1    6    6    0    0 -0.26428535149E+02 -0.11007620537E+02 -0.72613897452E+01  0.29535977824E+02  0.10500000000E+00 0.  1.
</event>
<event>
11    0  0.3439373E-009  0.9118800E+02  0.7816531E-02  0.1126479E+00
         25   -1    0    0    0    0  0.00000000000E+00  0.00000000000E+00  0.99999998245E-14  0.12500000000E+03  0.12500000000E+03 0.  0.
    3000001    1    3    3    0    0  0.16967764552E+01  0.30107726924E+01 -0.60780404966E+01  0.70630290119E+01  0.10000000000E+01 0.  1.
    1000022    2    1    0    0    0  0.35504318346E+02  0.10020750473E+02 -0.49449754109E+02  0.62499999698E+02  0.99999859783E+01 0.  0.
    3000022    2    3    3    0    0  0.33807541890E+02  0.70099777807E+01 -0.43371713613E+02  0.55436970686E+02  0.25000001241E+00 0.  0.
    1000022    2    1    0    0    0 -0.35504318346E+02 -0.10020750473E+02  0.49449754109E+02  0.62500000302E+02  0.99999897529E+01 0.  0.
    3000022    2    5    5    0    0 -0.33584377211E+02 -0.10918847893E+02  0.48442892471E+02  0.59949211543E+02  0.25000336187E+00 0.  0.
        -13    1    4    4    0    0  0.12220750435E+02  0.24805124238E+01 -0.15705806357E+02  0.20054502272E+02  0.10500000000E+00 0. -1.
         13    1    4    4    0    0  0.21586791456E+02  0.45294653569E+01 -0.27665907256E+02  0.35382468414E+02  0.10500000000E+00 0.  1.
    3000001    1    5    5    0    0 -0.19199411348E+01  0.89809741973E+00  0.10068616382E+01  0.25507887594E+01  0.10000000000E+01 0.  1.
        -13    1    6    6    0    0 -0.20084540744E+02 -0.65796298081E+01  0.28920266825E+02  0.35820010657E+02  0.10500000000E+00 0.  1.
         13    1    6    6    0    0 -0.13499836467E+02 -0.43392180848E+01  0.19522625646E+02  0.24129200885E+02  0.10500000000E+00 0. -1.
</event>
<event>
11    0  0.3439373E-009  0.9118800E+02  0.7816531E-02  0.1126479E+00
         25   -1    0    0    0    0  0.00000000000E+00  0.00000000000E+00  0.99999998245E-14  0.12500000000E+03  0.12500000000E+03 0.  0.
    3000001    1    3    3    0    0 -0.14240679386E+02  0.13138576497E+01 -0.58101501178E+01  0.15468710861E+02  0.10000000000E+01 0.  1.
    1000022    2    1    0    0    0 -0.59019190152E+02 -0.95614099929E+01 -0.15217238857E+02  0.62500001501E+02  0.10000023097E+02 0.  0.
    3000022    2    3    3    0    0 -0.44778510765E+02 -0.10875267643E+02 -0.94070887388E+01  0.47031290640E+02  0.25001606076E+00 0.  0.
    1000022    2    1    0    0    0  0.59019190152E+02  0.95614099929E+01  0.15217238857E+02  0.62499998499E+02  0.10000004339E+02 0.  0.
    3000022    2    5    5    0    0  0.17082086689E+01  0.20792315408E+01 -0.81705291260E-01  0.27037671386E+01  0.25000065667E+00 0.  0.
        -13    1    4    4    0    0 -0.33616083282E+02 -0.81828762651E+01 -0.70440057158E+01  0.35307641676E+02  0.10500000000E+00 0.  1.
         13    1    4    4    0    0 -0.11162427484E+02 -0.26923913776E+01 -0.23630830230E+01  0.11723648964E+02  0.10500000000E+00 0. -1.
    3000001    1    5    5    0    0  0.57310981483E+02  0.74821784521E+01  0.15298944148E+02  0.59796231361E+02  0.10000000000E+01 0. -1.
        -13    1    6    6    0    0  0.11662626413E+01  0.14654113529E+01 -0.19618932222E-01  0.18759021521E+01  0.10500000000E+00 0. -1.
         13    1    6    6    0    0  0.54194602755E+00  0.61382018794E+00 -0.62086359038E-01  0.82786498651E+00  0.10500000000E+00 0.  1.
</event>
<event>
11    0  0.3439373E-009  0.9118800E+02  0.7816531E-02  0.1126479E+00
         25   -1    0    0    0    0  0.00000000000E+00  0.00000000000E+00  0.99999998245E-14  0.12500000000E+03  0.12500000000E+03 0.  0.
    3000001    1    3    3    0    0 -0.36517836114E+01  0.55099470396E+01  0.15623994886E+02  0.16994241852E+02  0.10000000000E+01 0.  1.
    1000022    2    1    0    0    0 -0.55859977040E+01  0.33067795066E+02  0.51783854905E+02  0.62500001320E+02  0.10000004767E+02 0.  0.
    3000022    2    3    3    0    0 -0.19342140926E+01  0.27557848026E+02  0.36159860019E+02  0.45505759468E+02  0.24999240099E+00 0.  0.
    1000022    2    1    0    0    0  0.55859977040E+01 -0.33067795066E+02 -0.51783854905E+02  0.62499998680E+02  0.99999882632E+01 0.  0.
    3000022    2    5    5    0    0  0.13750642196E+01 -0.28344652797E+01 -0.11624649233E+02  0.12046574703E+02  0.24999450528E+00 0.  0.
        -13    1    4    4    0    0 -0.92908929761E+00  0.13366312063E+02  0.17427201909E+02  0.21982718132E+02  0.10500000000E+00 0.  1.
         13    1    4    4    0    0 -0.10051247950E+01  0.14191535963E+02  0.18732658110E+02  0.23523041336E+02  0.10500000000E+00 0. -1.
    3000001    1    5    5    0    0  0.42109334844E+01 -0.30233329786E+02 -0.40159205672E+02  0.50453423977E+02  0.10000000000E+01 0.  1.
        -13    1    6    6    0    0  0.49933441845E+00 -0.93115708945E+00 -0.40325448485E+01  0.41699917676E+01  0.10500000000E+00 0. -1.
         13    1    6    6    0    0  0.87572980114E+00 -0.19033081902E+01 -0.75921043845E+01  0.78765829353E+01  0.10500000000E+00 0.  1.
</event>
<event>
11    0  0.3439373E-009  0.9118800E+02  0.7816531E-02  0.1126479E+00
         25   -1    0    0    0    0  0.00000000000E+00  0.00000000000E+00  0.99999998245E-14  0.12500000000E+03  0.12500000000E+03 0.  0.
    3000001    1    3    3    0    0 -0.55414556479E+01  0.21652306213E+01 -0.11425623418E+00  0.60339878048E+01  0.10000000000E+01 0.  1.
    1000022    2    1    0    0    0 -0.42732189379E+02  0.40530493020E+02 -0.18370853337E+02  0.62499993999E+02  0.10000006203E+02 0.  0.
    3000022    2    3    3    0    0 -0.37190733731E+02  0.38365262399E+02 -0.18256597103E+02  0.56466006195E+02  0.24996689028E+00 0.  0.
    1000022    2    1    0    0    0  0.42732189379E+02 -0.40530493020E+02  0.18370853337E+02  0.62500006001E+02  0.10000081210E+02 0.  0.
    3000022    2    5    5    0    0  0.38851683395E+01 -0.52437882717E+01  0.52889084875E+01  0.84039815934E+01  0.25001033727E+00 0.  0.
        -13    1    4    4    0    0 -0.18111185321E+02  0.18591008651E+02 -0.88451234854E+01  0.27420573861E+02  0.10500000000E+00 0.  1.
         13    1    4    4    0    0 -0.19079548410E+02  0.19774253748E+02 -0.94114736174E+01  0.29045432333E+02  0.10500000000E+00 0. -1.
    3000001    1    5    5    0    0  0.38847021039E+02 -0.35286704748E+02  0.13081944850E+02  0.54096024407E+02  0.10000000000E+01 0. -1.
        -13    1    6    6    0    0  0.19914237158E+01 -0.27414704802E+01  0.26689763500E+01  0.43146133739E+01  0.10500000000E+00 0.  1.
         13    1    6    6    0    0  0.18937446236E+01 -0.25023177915E+01  0.26199321375E+01  0.40893682195E+01  0.10500000000E+00 0. -1.
</event>
<event>
11    0  0.3439373E-009  0.9118800E+02  0.7816531E-02  0.1126479E+00
         25   -1    0    0    0    0  0.00000000000E+00  0.00000000000E+00  0.99999998245E-14  0.12500000000E+03  0.12500000000E+03 0.  0.
    3000001    1    3    3    0    0 -0.30254325249E+02 -0.10040450294E+02 -0.90432553591E+01  0.33149891491E+02  0.10000000000E+01 0.  1.
    1000022    2    1    0    0    0 -0.56230268893E+02 -0.11512607740E+02 -0.22624473693E+02  0.62499999996E+02  0.99999956438E+01 0.  0.
    3000022    2    3    3    0    0 -0.25975943644E+02 -0.14721574456E+01 -0.13581218333E+02  0.29350108505E+02  0.24996416188E+00 0.  0.
    1000022    2    1    0    0    0  0.56230268893E+02  0.11512607740E+02  0.22624473693E+02  0.62500000004E+02  0.99999956898E+01 0.  0.
    3000022    2    5    5    0    0  0.11638181445E+02 -0.69840148060E+00  0.74102251312E+01  0.13816980701E+02  0.24997441483E+00 0.  0.
        -13    1    4    4    0    0 -0.15833167035E+02 -0.89130378461E+00 -0.82082429927E+01  0.17856928034E+02  0.10500000000E+00 0. -1.
         13    1    4    4    0    0 -0.10142776609E+02 -0.58085366095E+00 -0.53729753407E+01  0.11493180471E+02  0.10500000000E+00 0.  1.
    3000001    1    5    5    0    0  0.44592087448E+02  0.12211009220E+02  0.15214248561E+02  0.48683019303E+02  0.10000000000E+01 0. -1.
        -13    1    6    6    0    0  0.52200605960E+01 -0.30931498343E+00  0.32449936973E+01  0.61551374867E+01  0.10500000000E+00 0. -1.
         13    1    6    6    0    0  0.64181208493E+01 -0.38908649717E+00  0.41652314339E+01  0.76618432140E+01  0.10500000000E+00 0.  1.
</event>
<event>
11    0  0.3439373E-009  0.9118800E+02  0.7816531E-02  0.1126479E+00
         25   -1    0    0    0    0  0.00000000000E+00  0.00000000000E+00  0.99999998245E-14  0.12500000000E+03  0.12500000000E+03 0.  0.
    3000001    1    3    3    0    0 -0.10302563155E+02  0.34287378610E+02 -0.50037981898E+00  0.35819233932E+02  0.10000000000E+01 0. -1.
    1000022    2    1    0    0    0 -0.96181849351E+01  0.60938126152E+02  0.53404800159E+00  0.62499999478E+02  0.10000001356E+02 0.  0.
    3000022    2    3    3    0    0  0.68437821994E+00  0.26650747541E+02  0.10344278206E+01  0.26680765545E+02  0.24998223319E+00 0.  0.
    1000022    2    1    0    0    0  0.96181849351E+01 -0.60938126152E+02 -0.53404800159E+00  0.62500000522E+02  0.10000007886E+02 0.  0.
    3000022    2    5    5    0    0  0.44208133334E+01 -0.17845270450E+02 -0.44186513689E+01  0.18909898120E+02  0.24999809666E+00 0.  0.
        -13    1    4    4    0    0  0.29558421629E+00  0.10794343179E+02  0.47984477437E+00  0.10809555527E+02  0.10500000000E+00 0. -1.
         13    1    4    4    0    0  0.38879400365E+00  0.15856404363E+02  0.55458304619E+00  0.15871210018E+02  0.10500000000E+00 0.  1.
    3000001    1    5    5    0    0  0.51973716017E+01 -0.43092855702E+02  0.38846033673E+01  0.43590102402E+02  0.10000000000E+01 0.  1.
        -13    1    6    6    0    0  0.25777393436E+01 -0.10355830486E+02 -0.26303169036E+01  0.10991704017E+02  0.10500000000E+00 0. -1.
         13    1    6    6    0    0  0.18430739898E+01 -0.74894399638E+01 -0.17883344653E+01  0.79181941036E+01  0.10500000000E+00 0.  1.
</event>
<event>
11    0  0.3439373E-009  0.9118800E+02  0.7816531E-02  0.1126479E+00
         25   -1    0    0    0    0  0.00000000000E+00  0.00000000000E+00  0.99999998245E-14  0.12500000000E+03  0.12500000000E+03 0.  0.
    3000001    1    3    3    0    0 -0.18360972574E+02 -0.10084671354E+02  0.25438232271E+02  0.32968614943E+02  0.10000000000E+01 0.  1.
    1000022    2    1    0    0    0 -0.28275306734E+02 -0.25830986016E+02  0.48368556545E+02  0.62500000141E+02  0.99999973002E+01 0.  0.
    3000022    2    3    3    0    0 -0.99143341603E+01 -0.15746314662E+02  0.22930324273E+02  0.29531385198E+02  0.24998637014E+00 0.  0.
    1000022    2    1    0    0    0  0.28275306734E+02  0.25830986016E+02 -0.48368556545E+02  0.62499999859E+02  0.99999955314E+01 0.  0.
    3000022    2    5    5    0    0  0.24439342152E+02  0.22400496090E+02 -0.46110975403E+02  0.56792149298E+02  0.24999884367E+00 0.  0.
        -13    1    4    4    0    0 -0.53448468593E+01 -0.83785925245E+01  0.12298615770E+02  0.15812500609E+02  0.10500000000E+00 0. -1.
         13    1    4    4    0    0 -0.45694873010E+01 -0.73677221371E+01  0.10631708503E+02  0.13718884590E+02  0.10500000000E+00 0.  1.
    3000001    1    5    5    0    0  0.38359645816E+01  0.34304899262E+01 -0.22575811422E+01  0.57078505603E+01  0.10000000000E+01 0.  1.
        -13    1    6    6    0    0  0.66652745956E+01  0.60771210270E+01 -0.12594384626E+02  0.15491508465E+02  0.10500000000E+00 0. -1.
         13    1    6    6    0    0  0.17774067557E+02  0.16323375063E+02 -0.33516590776E+02  0.41300640833E+02  0.10500000000E+00 0.  1.
</event>
<event>
11    0  0.3439373E-009  0.9118800E+02  0.7816531E-02  0.1126479E+00
         25   -1    0    0    0    0  0.00000000000E+00  0.00000000000E+00  0.99999998245E-14  0.12500000000E+03  0.12500000000E+03 0.  0.
    3000001    1    3    3    0    0  0.28174367416E+02 -0.17779431531E+02  0.14737624892E+01  0.33362780770E+02  0.10000000000E+01 0. -1.
    1000022    2    1    0    0    0  0.51412250280E+02 -0.33499919631E+02 -0.63863956498E+01  0.62499999668E+02  0.99999907444E+01 0.  0.
    3000022    2    3    3    0    0  0.23237882865E+02 -0.15720488100E+02 -0.78601581390E+01  0.29137218898E+02  0.24998595671E+00 0.  0.
    1000022    2    1    0    0    0 -0.51412250280E+02  0.33499919631E+02  0.63863956498E+01  0.62500000332E+02  0.99999948982E+01 0.  0.
    3000022    2    5    5    0    0 -0.26564462248E+02  0.22485393251E+02  0.12858861802E+01  0.34827856247E+02  0.25000649954E+00 0.  0.
        -13    1    4    4    0    0  0.12768536806E+02 -0.87150910145E+01 -0.43505184185E+01  0.16060086521E+02  0.10500000000E+00 0.  1.
         13    1    4    4    0    0  0.10469346059E+02 -0.70053970855E+01 -0.35096397206E+01  0.13077132377E+02  0.10500000000E+00 0. -1.
    3000001    1    5    5    0    0 -0.24847788032E+02  0.11014526380E+02  0.51005094697E+01  0.27672144086E+02  0.10000000000E+01 0. -1.
        -13    1    6    6    0    0 -0.15369143334E+02  0.13081703668E+02  0.71196948339E+00  0.20195530773E+02  0.10500000000E+00 0. -1.
         13    1    6    6    0    0 -0.11195318915E+02  0.94036895832E+01  0.57391669677E+00  0.14632325473E+02  0.10500000000E+00 0.  1.
</event>
<event>
11    0  0.3439373E-009  0.9118800E+02  0.7816531E-02  0.1126479E+00
         25   -1    0    0    0    0  0.00000000000E+00  0.00000000000E+00  0.99999998245E-14  0.12500000000E+03  0.12500000000E+03 0.  0.
    3000001    1    3    3    0    0 -0.12724485835E+02 -0.62273796125E+01  0.41592027242E+02  0.43949852408E+02  0.10000000000E+01 0. -1.
    1000022    2    1    0    0    0 -0.20978297436E+02 -0.13884310358E+02  0.56332830264E+02  0.62499994116E+02  0.99999230735E+01 0.  0.
    3000022    2    3    3    0    0 -0.82538116003E+01 -0.76569307451E+01  0.14740803022E+02  0.18550141707E+02  0.24997850878E+00 0.  0.
    1000022    2    1    0    0    0  0.20978297436E+02  0.13884310358E+02 -0.56332830264E+02  0.62500005884E+02  0.99999966272E+01 0.  0.
    3000022    2    5    5    0    0  0.91841275040E+01  0.85538262661E+01 -0.17367386026E+02  0.21429062997E+02  0.25000344443E+00 0.  0.
        -13    1    4    4    0    0 -0.49070184833E+01 -0.44693899525E+01  0.87228122556E+01  0.10961421240E+02  0.10500000000E+00 0.  1.
         13    1    4    4    0    0 -0.33467931170E+01 -0.31875407926E+01  0.60179907667E+01  0.75887204679E+01  0.10500000000E+00 0. -1.
    3000001    1    5    5    0    0  0.11794169932E+02  0.53304840915E+01 -0.38965444238E+02  0.41070942888E+02  0.10000000000E+01 0.  1.
        -13    1    6    6    0    0  0.24141558757E+01  0.22916089470E+01 -0.46290991976E+01  0.57025612263E+01  0.10500000000E+00 0. -1.
         13    1    6    6    0    0  0.67699716283E+01  0.62622173191E+01 -0.12738286829E+02  0.15726501770E+02  0.10500000000E+00 0.  1.
</event>
<event>
11    0  0.3439373E-009  0.9118800E+02  0.7816531E-02  0.1126479E+00
         25   -1    0    0    0    0  0.00000000000E+00  0.00000000000E+00  0.99999998245E-14  0.12500000000E+03  0.12500000000E+03 0.  0.
    3000001    1    3    3    0    0 -0.36611204371E+02  0.11072949147E+02  0.46220853849E+02  0.60002981749E+02  0.10000000000E+01 0.  1.
    1000022    2    1    0    0    0 -0.37192075164E+02  0.97578557628E+01  0.48247111486E+02  0.62499999791E+02  0.10000000150E+02 0.  0.
    3000022    2    3    3    0    0 -0.58087079302E+00 -0.13150933838E+01  0.20262576370E+01  0.24970180413E+01  0.24999520141E+00 0.  0.
    1000022    2    1    0    0    0  0.37192075164E+02 -0.97578557628E+01 -0.48247111486E+02  0.62500000209E+02  0.10000002767E+02 0.  0.
    3000022    2    5    5    0    0  0.37316868992E+02 -0.97141707392E+01 -0.47747755847E+02  0.61374461256E+02  0.24996312736E+00 0.  0.
        -13    1    4    4    0    0 -0.22391015932E+00 -0.42993537000E+00  0.76823187307E+00  0.91443173207E+00  0.10500000000E+00 0. -1.
         13    1    4    4    0    0 -0.35696063370E+00 -0.88515801377E+00  0.12580257639E+01  0.15825863092E+01  0.10500000000E+00 0.  1.
    3000001    1    5    5    0    0 -0.12479382794E+00 -0.43685023553E-01 -0.49935563897E+00  0.11255389531E+01  0.10000000000E+01 0.  1.
        -13    1    6    6    0    0  0.15779676681E+02 -0.41748387232E+01 -0.20215488337E+02  0.25982772528E+02  0.10500000000E+00 0. -1.
         13    1    6    6    0    0  0.21537192311E+02 -0.55393320161E+01 -0.27532267509E+02  0.35391688728E+02  0.10500000000E+00 0.  1.
</event>
<event>
11    0  0.3439373E-009  0.9118800E+02  0.7816531E-02  0.1126479E+00
         25   -1    0    0    0    0  0.00000000000E+00  0.00000000000E+00  0.99999998245E-14  0.12500000000E+03  0.12500000000E+03 0.  0.
    3000001    1    3    3    0    0  0.64397941443E+01 -0.92980525983E+01 -0.32169632826E+01  0.11801422944E+02  0.10000000000E+01 0.  1.
    1000022    2    1    0    0    0  0.15555186061E+02 -0.55616331815E+02 -0.21705064103E+02  0.62500000231E+02  0.10000002159E+02 0.  0.
    3000022    2    3    3    0    0  0.91153919166E+01 -0.46318279217E+02 -0.18488100820E+02  0.50698577287E+02  0.25001513728E+00 0.  0.
    1000022    2    1    0    0    0 -0.15555186061E+02  0.55616331815E+02  0.21705064103E+02  0.62499999769E+02  0.99999992720E+01 0.  0.
    3000022    2    5    5    0    0 -0.82471420657E+01  0.32629822196E+02  0.74743546975E+01  0.34476791143E+02  0.25000117346E+00 0.  0.
        -13    1    4    4    0    0  0.57779049352E+01 -0.29128596741E+02 -0.11587538616E+02  0.31876973032E+02  0.10500000000E+00 0. -1.
         13    1    4    4    0    0  0.33374869815E+01 -0.17189682476E+02 -0.69005622046E+01  0.18821604255E+02  0.10500000000E+00 0.  1.
    3000001    1    5    5    0    0 -0.73080439953E+01  0.22986509620E+02  0.14230709405E+02  0.28023208626E+02  0.10000000000E+01 0.  1.
        -13    1    6    6    0    0 -0.28097504726E+01  0.10949514305E+02  0.25465442083E+01  0.11588031483E+02  0.10500000000E+00 0.  1.
         13    1    6    6    0    0 -0.54373915931E+01  0.21680307890E+02  0.49278104892E+01  0.22888759660E+02  0.10500000000E+00 0. -1.
</event>
<event>
11    0  0.3439373E-009  0.9118800E+02  0.7816531E-02  0.1126479E+00
         25   -1    0    0    0    0  0.00000000000E+00  0.00000000000E+00  0.99999998245E-14  0.12500000000E+03  0.12500000000E+03 0.  0.
    3000001    1    3    3    0    0  0.21524472290E+02  0.50989593903E+02 -0.23171724957E+02  0.60009752801E+02  0.10000000000E+01 0.  1.
    1000022    2    1    0    0    0  0.23797933610E+02  0.51664433258E+02 -0.23889216723E+02  0.62499999757E+02  0.99999992954E+01 0.  0.
    3000022    2    3    3    0    0  0.22734613202E+01  0.67483935466E+00 -0.71749176671E+00  0.24902469552E+01  0.25000186767E+00 0.  0.
    1000022    2    1    0    0    0 -0.23797933610E+02 -0.51664433258E+02  0.23889216723E+02  0.62500000243E+02  0.10000002339E+02 0.  0.
    3000022    2    5    5    0    0 -0.22570516252E+02 -0.50713202326E+02  0.24319922232E+02  0.60603450510E+02  0.25000460619E+00 0.  0.
        -13    1    4    4    0    0  0.11505545116E+01  0.33214781952E+00 -0.29207022078E+00  0.12371046326E+01  0.10500000000E+00 0. -1.
         13    1    4    4    0    0  0.11229068086E+01  0.34269153513E+00 -0.42542154593E+00  0.12531423226E+01  0.10500000000E+00 0.  1.
    3000001    1    5    5    0    0 -0.12274173581E+01 -0.95123093200E+00 -0.43070550821E+00  0.18965497335E+01  0.10000000000E+01 0. -1.
        -13    1    6    6    0    0 -0.12340549154E+02 -0.27891379479E+02  0.13357775576E+02  0.33296537298E+02  0.10500000000E+00 0. -1.
         13    1    6    6    0    0 -0.10229967099E+02 -0.22821822847E+02  0.10962146655E+02  0.27306913212E+02  0.10500000000E+00 0.  1.
</event>
<event>
11    0  0.3439373E-009  0.9118800E+02  0.7816531E-02  0.1126479E+00
         25   -1    0    0    0    0  0.00000000000E+00  0.00000000000E+00  0.99999998245E-14  0.12500000000E+03  0.12500000000E+03 0.  0.
    3000001    1    3    3    0    0 -0.25205700296E+02  0.44914099248E+02  0.31015430191E+02  0.60129531419E+02  0.10000000000E+01 0.  1.
    1000022    2    1    0    0    0 -0.26516634362E+02  0.46740293571E+02  0.30306154914E+02  0.62499998186E+02  0.99999903272E+01 0.  0.
    3000022    2    3    3    0    0 -0.13109340656E+01  0.18261943235E+01 -0.70927527703E+00  0.23704667674E+01  0.25001488969E+00 0.  0.
    1000022    2    1    0    0    0  0.26516634362E+02 -0.46740293571E+02 -0.30306154914E+02  0.62500001814E+02  0.10000013003E+02 0.  0.
    3000022    2    5    5    0    0  0.59779547620E+01 -0.17146649197E+02 -0.64010454932E+01  0.19255633354E+02  0.25002128681E+00 0.  0.
        -13    1    4    4    0    0 -0.75047241209E+00  0.11210321093E+01 -0.37716705168E+00  0.14047070215E+01  0.10500000000E+00 0.  1.
         13    1    4    4    0    0 -0.56046165350E+00  0.70516221419E+00 -0.33210822535E+00  0.96575974585E+00  0.10500000000E+00 0. -1.
    3000001    1    5    5    0    0  0.20538679600E+02 -0.29593644374E+02 -0.23905109421E+02  0.43244368460E+02  0.10000000000E+01 0.  1.
        -13    1    6    6    0    0  0.36941442279E+01 -0.10487406202E+02 -0.39727340893E+01  0.11807880062E+02  0.10500000000E+00 0. -1.
         13    1    6    6    0    0  0.22838105341E+01 -0.66592429950E+01 -0.24283114039E+01  0.74477532919E+01  0.10500000000E+00 0.  1.
</event>
<event>
11    0  0.3439373E-009  0.9118800E+02  0.7816531E-02  0.1126479E+00
         25   -1    0    0    0    0  0.00000000000E+00  0.00000000000E+00  0.99999998245E-14  0.12500000000E+03  0.12500000000E+03 0.  0.
    3000001    1    3    3    0    0 -0.80306154736E+01  0.75816446496E+01 -0.22987251668E+02  0.25522262042E+02  0.10000000000E+01 0. -1.
    1000022    2    1    0    0    0 -0.28353674972E+02  0.10885646633E+02 -0.53701217044E+02  0.62500003296E+02  0.10000075648E+02 0.  0.
    3000022    2    3    3    0    0 -0.20323059498E+02  0.33040019837E+01 -0.30713965376E+02  0.36977741254E+02  0.25000534609E+00 0.  0.
    1000022    2    1    0    0    0  0.28353674972E+02 -0.10885646633E+02  0.53701217044E+02  0.62499996704E+02  0.10000034449E+02 0.  0.
    3000022    2    5    5    0    0  0.17828756779E+02 -0.90220891292E+01  0.26005800249E+02  0.32796750064E+02  0.25001522435E+00 0.  0.
        -13    1    4    4    0    0 -0.12276407040E+02  0.20555305440E+01 -0.18529108183E+02  0.22322057492E+02  0.10500000000E+00 0.  1.
         13    1    4    4    0    0 -0.80466524584E+01  0.12484714397E+01 -0.12184857193E+02  0.14655683762E+02  0.10500000000E+00 0. -1.
    3000001    1    5    5    0    0  0.10524918193E+02 -0.18635575041E+01  0.27695416794E+02  0.29703246640E+02  0.10000000000E+01 0. -1.
        -13    1    6    6    0    0  0.64781757498E+01 -0.32140542531E+01  0.93933678831E+01  0.11855095570E+02  0.10500000000E+00 0.  1.
         13    1    6    6    0    0  0.11350581029E+02 -0.58080348761E+01  0.16612432366E+02  0.20941654494E+02  0.10500000000E+00 0. -1.
</event>
<event>
11    0  0.3439373E-009  0.9118800E+02  0.7816531E-02  0.1126479E+00
         25   -1    0    0    0    0  0.00000000000E+00  0.00000000000E+00  0.99999998245E-14  0.12500000000E+03  0.12500000000E+03 0.  0.
    3000001    1    3    3    0    0 -0.10084668866E+02  0.21559344593E+02 -0.53347358608E+01  0.24412400377E+02  0.10000000000E+01 0. -1.
    1000022    2    1    0    0    0 -0.36048550550E+02  0.48825296429E+02 -0.11083434995E+02  0.62500001018E+02  0.10000001389E+02 0.  0.
    3000022    2    3    3    0    0 -0.25963881684E+02  0.27265951836E+02 -0.57486991340E+01  0.38087600641E+02  0.24999854317E+00 0.  0.
    1000022    2    1    0    0    0  0.36048550550E+02 -0.48825296429E+02  0.11083434995E+02  0.62499998982E+02  0.99999886648E+01 0.  0.
    3000022    2    5    5    0    0  0.16808466312E+02 -0.22631669039E+02  0.14089895878E+00  0.28192185699E+02  0.24999745515E+00 0.  0.
        -13    1    4    4    0    0 -0.10505030371E+02  0.11106161425E+02 -0.23723188368E+01  0.15470662764E+02  0.10500000000E+00 0.  1.
         13    1    4    4    0    0 -0.15458851313E+02  0.16159790411E+02 -0.33763802972E+01  0.22616937877E+02  0.10500000000E+00 0. -1.
    3000001    1    5    5    0    0  0.19240084239E+02 -0.26193627390E+02  0.10942536036E+02  0.34307813283E+02  0.10000000000E+01 0.  1.
        -13    1    6    6    0    0  0.63036415542E+01 -0.84862582220E+01 -0.73509141010E-02  0.10571828342E+02  0.10500000000E+00 0. -1.
         13    1    6    6    0    0  0.10504824757E+02 -0.14145410817E+02  0.14824987288E+00  0.17620357357E+02  0.10500000000E+00 0.  1.
</event>
<event>
11    0  0.3439373E-009  0.9118800E+02  0.7816531E-02  0.1126479E+00
         25   -1    0    0    0    0  0.00000000000E+00  0.00000000000E+00  0.99999998245E-14  0.12500000000E+03  0.12500000000E+03 0.  0.
    3000001    1    3    3    0    0  0.58354130140E+01  0.12388764347E+02 -0.20713072323E+01  0.13886102432E+02  0.10000000000E+01 0. -1.
    1000022    2    1    0    0    0  0.33350508479E+02  0.51434920972E+02  0.69600697031E+01  0.62500000612E+02  0.99999997551E+01 0.  0.
    3000022    2    3    3    0    0  0.27515095465E+02  0.39046156625E+02  0.90313769354E+01  0.48613898181E+02  0.25000274936E+00 0.  0.
    1000022    2    1    0    0    0 -0.33350508479E+02 -0.51434920972E+02 -0.69600697031E+01  0.62499999388E+02  0.99999921012E+01 0.  0.
    3000022    2    5    5    0    0 -0.10743183007E+02 -0.20664751594E+02  0.16357875774E+01  0.23349223521E+02  0.24999700950E+00 0.  0.
        -13    1    4    4    0    0  0.75060964912E+01  0.10652714218E+02  0.24262282940E+01  0.13255919941E+02  0.10500000000E+00 0.  1.
         13    1    4    4    0    0  0.20008998973E+02  0.28393442406E+02  0.66051486414E+01  0.35357978239E+02  0.10500000000E+00 0. -1.
    3000001    1    5    5    0    0 -0.22607325472E+02 -0.30770169378E+02 -0.85958572804E+01  0.39150775866E+02  0.10000000000E+01 0. -1.
        -13    1    6    6    0    0 -0.68336152496E+01 -0.13199376551E+02  0.10966373502E+01  0.14904210049E+02  0.10500000000E+00 0.  1.
         13    1    6    6    0    0 -0.39095677572E+01 -0.74653750429E+01  0.53915022720E+00  0.84450134723E+01  0.10500000000E+00 0. -1.
</event>
<event>
11    0  0.3439373E-009  0.9118800E+02  0.7816531E-02  0.1126479E+00
         25   -1    0    0    0    0  0.00000000000E+00  0.00000000000E+00  0.99999998245E-14  0.12500000000E+03  0.12500000000E+03 0.  0.
    3000001    1    3    3    0    0 -0.48311600859E+01 -0.94713635956E+01 -0.27122918731E+02  0.29149606457E+02  0.10000000000E+01 0. -1.
    1000022    2    1    0    0    0  0.20250780305E+00 -0.20837566079E+02 -0.58068965326E+02  0.62499998797E+02  0.99999973072E+01 0.  0.
    3000022    2    3    3    0    0  0.50336678890E+01 -0.11366202483E+02 -0.30946046595E+02  0.33350392340E+02  0.24999612676E+00 0.  0.
    1000022    2    1    0    0    0 -0.20250780305E+00  0.20837566079E+02  0.58068965326E+02  0.62500001203E+02  0.10000012339E+02 0.  0.
    3000022    2    5    5    0    0  0.18666128908E+01  0.15037964217E+02  0.50315799092E+02  0.52548708379E+02  0.25000514693E+00 0.  0.
        -13    1    4    4    0    0  0.35182254920E+01 -0.78343659349E+01 -0.21426496534E+02  0.23083781729E+02  0.10500000000E+00 0.  1.
         13    1    4    4    0    0  0.15154423970E+01 -0.35318365485E+01 -0.95195500613E+01  0.10266610611E+02  0.10500000000E+00 0. -1.
    3000001    1    5    5    0    0 -0.20691206939E+01  0.57996018624E+01  0.77531662343E+01  0.99512928238E+01  0.10000000000E+01 0. -1.
        -13    1    6    6    0    0  0.51798358746E+00  0.45435795906E+01  0.15213573054E+02  0.15886354288E+02  0.10500000000E+00 0.  1.
         13    1    6    6    0    0  0.13486293034E+01  0.10494384626E+02  0.35102226038E+02  0.36662354091E+02  0.10500000000E+00 0. -1.
</event>
<event>
11    0  0.3439373E-009  0.9118800E+02  0.7816531E-02  0.1126479E+00
         25   -1    0    0    0    0  0.00000000000E+00  0.00000000000E+00  0.99999998245E-14  0.12500000000E+03  0.12500000000E+03 0.  0.
    3000001    1    3    3    0    0  0.18349585030E+02  0.27504473968E+01 -0.15654438722E+02  0.24296783395E+02  0.10000000000E+01 0. -1.
    1000022    2    1    0    0    0  0.46624161477E+02  0.18618188881E+02 -0.35858056049E+02  0.62499997233E+02  0.10000003997E+02 0.  0.
    3000022    2    3    3    0    0  0.28274576447E+02  0.15867741484E+02 -0.20203617327E+02  0.38203213838E+02  0.25000282167E+00 0.  0.
    1000022    2    1    0    0    0 -0.46624161477E+02 -0.18618188881E+02  0.35858056049E+02  0.62500002767E+02  0.10000038581E+02 0.  0.
    3000022    2    5    5    0    0 -0.16001709104E+02 -0.10444373222E+02  0.99140699155E+01  0.21528838905E+02  0.24999206176E+00 0.  0.
        -13    1    4    4    0    0  0.14653047840E+02  0.81848244988E+01 -0.10527833275E+02  0.19812861014E+02  0.10500000000E+00 0.  1.
         13    1    4    4    0    0  0.13621528607E+02  0.76829169849E+01 -0.96757840520E+01  0.18390352824E+02  0.10500000000E+00 0. -1.
    3000001    1    5    5    0    0 -0.30622452372E+02 -0.81738156586E+01  0.25943986134E+02  0.40971163862E+02  0.10000000000E+01 0.  1.
        -13    1    6    6    0    0 -0.98761016633E+01 -0.63765301928E+01  0.61205722933E+01  0.13254054156E+02  0.10500000000E+00 0.  1.
         13    1    6    6    0    0 -0.61256074412E+01 -0.40678430292E+01  0.37934976221E+01  0.82747847490E+01  0.10500000000E+00 0. -1.
</event>
<event>
11    0  0.3439373E-009  0.9118800E+02  0.7816531E-02  0.1126479E+00
         25   -1    0    0    0    0  0.00000000000E+00  0.00000000000E+00  0.99999998245E-14  0.12500000000E+03  0.12500000000E+03 0.  0.
    3000001    1    3    3    0    0  0.24737610930E+00 -0.19832111814E+02 -0.12998808812E+02  0.23734845364E+02  0.10000000000E+01 0.  1.
    1000022    2    1    0    0    0  0.65102270942E+01 -0.56495218915E+02 -0.23919803302E+02  0.62500001686E+02  0.10000020187E+02 0.  0.
    3000022    2    3    3    0    0  0.62628509849E+01 -0.36663107101E+02 -0.10920994490E+02  0.38765156322E+02  0.24999856202E+00 0.  0.
    1000022    2    1    0    0    0 -0.65102270942E+01  0.56495218915E+02  0.23919803302E+02  0.62499998314E+02  0.99999991096E+01 0.  0.
    3000022    2    5    5    0    0  0.22470423933E+01  0.83620536657E+01  0.52298778952E+01  0.10118659294E+02  0.25000418292E+00 0.  0.
        -13    1    4    4    0    0  0.31508467862E+01 -0.18268529571E+02 -0.53797000482E+01  0.19303347009E+02  0.10500000000E+00 0. -1.
         13    1    4    4    0    0  0.31120041987E+01 -0.18394577530E+02 -0.55412944419E+01  0.19461809313E+02  0.10500000000E+00 0.  1.
    3000001    1    5    5    0    0 -0.87572694876E+01  0.48133165249E+02  0.18689925406E+02  0.52381339019E+02  0.10000000000E+01 0.  1.
        -13    1    6    6    0    0  0.12639021908E+01  0.49442116018E+01  0.30652946659E+01  0.59539678787E+01  0.10500000000E+00 0. -1.
         13    1    6    6    0    0  0.98314020251E+00  0.34178420639E+01  0.21645832293E+01  0.41646914157E+01  0.10500000000E+00 0.  1.
</event>
<event>
11    0  0.3439373E-009  0.9118800E+02  0.7816531E-02  0.1126479E+00
         25   -1    0    0    0    0  0.00000000000E+00  0.00000000000E+00  0.99999998245E-14  0.12500000000E+03  0.12500000000E+03 0.  0.
    3000001    1    3    3    0    0  0.90399210551E+01 -0.23443709969E+01 -0.13596080148E+02  0.16524819014E+02  0.10000000000E+01 0. -1.
    1000022    2    1    0    0    0  0.45665097451E+02 -0.29584049586E+01 -0.41378701654E+02  0.62499998708E+02  0.99999801397E+01 0.  0.
    3000022    2    3    3    0    0  0.36625176396E+02 -0.61403396173E+00 -0.27782621507E+02  0.45975179694E+02  0.25001280559E+00 0.  0.
    1000022    2    1    0    0    0 -0.45665097451E+02  0.29584049586E+01  0.41378701654E+02  0.62500001292E+02  0.99999962906E+01 0.  0.
    3000022    2    5    5    0    0 -0.44003378503E+01  0.89989469262E-01  0.67698169620E+00  0.44600305834E+01  0.24999457285E+00 0.  0.
        -13    1    4    4    0    0  0.17897023947E+02 -0.35551025524E+00 -0.13527887859E+02  0.22437571808E+02  0.10500000000E+00 0. -1.
         13    1    4    4    0    0  0.18728152449E+02 -0.25852370649E+00 -0.14254733647E+02  0.23537607886E+02  0.10500000000E+00 0.  1.
    3000001    1    5    5    0    0 -0.41264759601E+02  0.28684154894E+01  0.40701719958E+02  0.58039970709E+02  0.10000000000E+01 0.  1.
        -13    1    6    6    0    0 -0.22693819262E+01  0.41400033032E-01  0.41740003480E+00  0.23102069342E+01  0.10500000000E+00 0. -1.
         13    1    6    6    0    0 -0.21309559241E+01  0.48589436230E-01  0.25958166140E+00  0.21498236492E+01  0.10500000000E+00 0.  1.
</event>
<event>
11    0  0.3439373E-009  0.9118800E+02  0.7816531E-02  0.1126479E+00
         25   -1    0    0    0    0  0.00000000000E+00  0.00000000000E+00  0.99999998245E-14  0.12500000000E+03  0.12500000000E+03 0.  0.
    3000001    1    3    3    0    0  0.27037417786E+01 -0.92258457648E+01 -0.27388470729E+01  0.10046279559E+02  0.10000000000E+01 0. -1.
    1000022    2    1    0    0    0  0.35137436640E+02 -0.45872775337E+02 -0.21617098023E+02  0.62500000788E+02  0.10000010036E+02 0.  0.
    3000022    2    3    3    0    0  0.32433694862E+02 -0.36646929573E+02 -0.18878250950E+02  0.52453721229E+02  0.25000472124E+00 0.  0.
    1000022    2    1    0    0    0 -0.35137436640E+02  0.45872775337E+02  0.21617098023E+02  0.62499999212E+02  0.10000000192E+02 0.  0.
    3000022    2    5    5    0    0  0.60018397943E+00  0.53485758969E+00  0.68219834074E+00  0.10835979996E+01  0.24999319628E+00 0.  0.
        -13    1    4    4    0    0  0.18613567206E+02 -0.20957482010E+02 -0.10858972460E+02  0.30060093882E+02  0.10500000000E+00 0. -1.
         13    1    4    4    0    0  0.13820127656E+02 -0.15689447563E+02 -0.80192784895E+01  0.22393627347E+02  0.10500000000E+00 0.  1.
    3000001    1    5    5    0    0 -0.35737620620E+02  0.45337917748E+02  0.20934899682E+02  0.61416401213E+02  0.10000000000E+01 0.  1.
        -13    1    6    6    0    0  0.26475886440E+00  0.29268827336E+00  0.26563096859E+00  0.48718424966E+00  0.10500000000E+00 0. -1.
         13    1    6    6    0    0  0.33542511503E+00  0.24216931634E+00  0.41656737215E+00  0.59641374993E+00  0.10500000000E+00 0.  1.
</event>
<event>
11    0  0.3439373E-009  0.9118800E+02  0.7816531E-02  0.1126479E+00
         25   -1    0    0    0    0  0.00000000000E+00  0.00000000000E+00  0.99999998245E-14  0.12500000000E+03  0.12500000000E+03 0.  0.
    3000001    1    3    3    0    0  0.33142060159E+02  0.91357145351E+01  0.44830451467E+01  0.34683643485E+02  0.10000000000E+01 0.  1.
    1000022    2    1    0    0    0  0.55948839231E+02  0.24452074587E+02  0.88358952285E+01  0.62500003250E+02  0.10000039944E+02 0.  0.
    3000022    2    3    3    0    0  0.22806779072E+02  0.15316360051E+02  0.43528500818E+01  0.27816359764E+02  0.25001969095E+00 0.  0.
    1000022    2    1    0    0    0 -0.55948839231E+02 -0.24452074587E+02 -0.88358952285E+01  0.62499996750E+02  0.99999993194E+01 0.  0.
    3000022    2    5    5    0    0 -0.33641516616E+02 -0.10486690707E+02 -0.20287572946E+01  0.35297318279E+02  0.24999863576E+00 0.  0.
        -13    1    4    4    0    0  0.13185626773E+02  0.88174890154E+01  0.24554713482E+01  0.16051455712E+02  0.10500000000E+00 0.  1.
         13    1    4    4    0    0  0.96211522990E+01  0.64988710361E+01  0.18973787336E+01  0.11764904052E+02  0.10500000000E+00 0. -1.
    3000001    1    5    5    0    0 -0.22307322615E+02 -0.13965383879E+02 -0.68071379338E+01  0.27202678471E+02  0.10000000000E+01 0.  1.
        -13    1    6    6    0    0 -0.12927630558E+02 -0.40808496279E+01 -0.81786631443E+00  0.13581490928E+02  0.10500000000E+00 0.  1.
         13    1    6    6    0    0 -0.20713886058E+02 -0.64058410794E+01 -0.12108909802E+01  0.21715827351E+02  0.10500000000E+00 0. -1.
</event>
<event>
11    0  0.3439373E-009  0.9118800E+02  0.7816531E-02  0.1126479E+00
         25   -1    0    0    0    0  0.00000000000E+00  0.00000000000E+00  0.99999998245E-14  0.12500000000E+03  0.12500000000E+03 0.  0.
    3000001    1    3    3    0    0  0.92841912533E+01  0.90854937845E+01  0.22386722914E+02  0.25901887332E+02  0.10000000000E+01 0. -1.
    1000022    2    1    0    0    0  0.31202838898E+02  0.14707642508E+02  0.51149957568E+02  0.62500000436E+02  0.99999995911E+01 0.  0.
    3000022    2    3    3    0    0  0.21918647645E+02  0.56221487238E+01  0.28763234654E+02  0.36598113104E+02  0.25008828122E+00 0.  0.
    1000022    2    1    0    0    0 -0.31202838898E+02 -0.14707642508E+02 -0.51149957568E+02  0.62499999564E+02  0.99999941408E+01 0.  0.
    3000022    2    5    5    0    0 -0.53308757432E+00 -0.35544537330E+00 -0.60764425831E+01  0.61152413222E+01  0.24999637698E+00 0.  0.
        -13    1    4    4    0    0  0.10160278298E+02  0.25429236472E+01  0.13358324292E+02  0.16975086706E+02  0.10500000000E+00 0.  1.
         13    1    4    4    0    0  0.11758369346E+02  0.30792250766E+01  0.15404910362E+02  0.19623026398E+02  0.10500000000E+00 0. -1.
    3000001    1    5    5    0    0 -0.30669751324E+02 -0.14352197135E+02 -0.45073514985E+02  0.56384758242E+02  0.10000000000E+01 0. -1.
        -13    1    6    6    0    0 -0.40449086366E+00 -0.23736306583E+00 -0.45345553083E+01  0.45599529523E+01  0.10500000000E+00 0. -1.
         13    1    6    6    0    0 -0.12859671066E+00 -0.11808230747E+00 -0.15418872748E+01  0.15552883699E+01  0.10500000000E+00 0.  1.
</event>
<event>
11    0  0.3439373E-009  0.9118800E+02  0.7816531E-02  0.1126479E+00
         25   -1    0    0    0    0  0.00000000000E+00  0.00000000000E+00  0.99999998245E-14  0.12500000000E+03  0.12500000000E+03 0.  0.
    3000001    1    3    3    0    0 -0.21470618139E+02 -0.99527630043E+01  0.77811943726E+01  0.24931745236E+02  0.10000000000E+01 0.  1.
    1000022    2    1    0    0    0 -0.46227867061E+02 -0.33640208761E+02  0.23185570960E+02  0.62499999924E+02  0.99999975623E+01 0.  0.
    3000022    2    3    3    0    0 -0.24757248923E+02 -0.23687445757E+02  0.15404376588E+02  0.37568254688E+02  0.24996304803E+00 0.  0.
    1000022    2    1    0    0    0  0.46227867061E+02  0.33640208761E+02 -0.23185570960E+02  0.62500000076E+02  0.99999985124E+01 0.  0.
    3000022    2    5    5    0    0  0.52917484092E+01  0.46138545817E+01  0.41161433043E+00  0.70371999225E+01  0.25000213026E+00 0.  0.
        -13    1    4    4    0    0 -0.18124128866E+02 -0.17304353792E+02  0.11291342511E+02  0.27485089558E+02  0.10500000000E+00 0.  1.
         13    1    4    4    0    0 -0.66331200566E+01 -0.63830919646E+01  0.41130340764E+01  0.10083165129E+02  0.10500000000E+00 0. -1.
    3000001    1    5    5    0    0  0.40936118652E+02  0.29026354179E+02 -0.23597185291E+02  0.55462800153E+02  0.10000000000E+01 0. -1.
        -13    1    6    6    0    0  0.31632580803E+01  0.28329848557E+01  0.27582370190E+00  0.42566546242E+01  0.10500000000E+00 0. -1.
         13    1    6    6    0    0  0.21284903289E+01  0.17808697261E+01  0.13579062853E+00  0.27805452983E+01  0.10500000000E+00 0.  1.
</event>
<event>
11    0  0.3439373E-009  0.9118800E+02  0.7816531E-02  0.1126479E+00
         25   -1    0    0    0    0  0.00000000000E+00  0.00000000000E+00  0.99999998245E-14  0.12500000000E+03  0.12500000000E+03 0.  0.
    3000001    1    3    3    0    0 -0.85939931469E+01  0.48203390978E+02 -0.14524438982E+02  0.51082119648E+02  0.10000000000E+01 0.  1.
    1000022    2    1    0    0    0 -0.67695807680E+01  0.57844583894E+02 -0.20357497548E+02  0.62500007070E+02  0.10000003380E+02 0.  0.
    3000022    2    3    3    0    0  0.18244123789E+01  0.96411929167E+01 -0.58330585657E+01  0.11417887422E+02  0.24999912793E+00 0.  0.
    1000022    2    1    0    0    0  0.67695807680E+01 -0.57844583894E+02  0.20357497548E+02  0.62499992930E+02  0.99999150109E+01 0.  0.
    3000022    2    5    5    0    0 -0.13871460793E+01 -0.23354274069E+02  0.53608669825E+01  0.24003076262E+02  0.24996734881E+00 0.  0.
        -13    1    4    4    0    0  0.86391709190E+00  0.42937633843E+01 -0.26539616100E+01  0.51222352513E+01  0.10500000000E+00 0. -1.
         13    1    4    4    0    0  0.96049528704E+00  0.53474295323E+01 -0.31790969557E+01  0.62956521706E+01  0.10500000000E+00 0.  1.
    3000001    1    5    5    0    0  0.81567268473E+01 -0.34490309825E+02  0.14996630565E+02  0.38496916669E+02  0.10000000000E+01 0.  1.
        -13    1    6    6    0    0 -0.90895573566E+00 -0.15196140329E+02  0.35456567018E+01  0.15631109618E+02  0.10500000000E+00 0. -1.
         13    1    6    6    0    0 -0.47819034367E+00 -0.81581337401E+01  0.18152102807E+01  0.83719666441E+01  0.10500000000E+00 0.  1.
</event>
<event>
11    0  0.3439373E-009  0.9118800E+02  0.7816531E-02  0.1126479E+00
         25   -1    0    0    0    0  0.00000000000E+00  0.00000000000E+00  0.99999998245E-14  0.12500000000E+03  0.12500000000E+03 0.  0.
    3000001    1    3    3    0    0 -0.30559939251E+02 -0.20771528249E+01 -0.40282523834E+02  0.50615276126E+02  0.10000000000E+01 0. -1.
    1000022    2    1    0    0    0 -0.40877100161E+02 -0.29069354203E+01 -0.46117921526E+02  0.62500002192E+02  0.99999998504E+01 0.  0.
    3000022    2    3    3    0    0 -0.10317160910E+02 -0.82978259540E+00 -0.58353976921E+01  0.11884726066E+02  0.24999807294E+00 0.  0.
    1000022    2    1    0    0    0  0.40877100161E+02  0.29069354203E+01  0.46117921526E+02  0.62499997808E+02  0.99999724484E+01 0.  0.
    3000022    2    5    5    0    0  0.17584448807E+02  0.23852743324E+01  0.27170025048E+02  0.32452659850E+02  0.24999353345E+00 0.  0.
        -13    1    4    4    0    0 -0.42647003777E+01 -0.40305453168E+00 -0.23881477046E+01  0.49055475460E+01  0.10500000000E+00 0.  1.
         13    1    4    4    0    0 -0.60524605327E+01 -0.42672806372E+00 -0.34472499875E+01  0.69791785202E+01  0.10500000000E+00 0. -1.
    3000001    1    5    5    0    0  0.23292651354E+02  0.52166108789E+00  0.18947896479E+02  0.30047337958E+02  0.10000000000E+01 0. -1.
        -13    1    6    6    0    0  0.10341141743E+02  0.14074601857E+01  0.15861790935E+02  0.18987564177E+02  0.10500000000E+00 0.  1.
         13    1    6    6    0    0  0.72433070646E+01  0.97781414671E+00  0.11308234113E+02  0.13465095673E+02  0.10500000000E+00 0. -1.
</event>
<event>
11    0  0.3439373E-009  0.9118800E+02  0.7816531E-02  0.1126479E+00
         25   -1    0    0    0    0  0.00000000000E+00  0.00000000000E+00  0.99999998245E-14  0.12500000000E+03  0.12500000000E+03 0.  0.
    3000001    1    3    3    0    0  0.85294393219E+01  0.60999726265E+01  0.30964550330E+02  0.32707252687E+02  0.10000000000E+01 0.  1.
    1000022    2    1    0    0    0  0.17621546242E+02  0.23037849961E+01  0.59079808896E+02  0.62499998558E+02  0.99999841639E+01 0.  0.
    3000022    2    3    3    0    0  0.90921069202E+01 -0.37961876304E+01  0.28115258566E+02  0.29792745871E+02  0.24998704650E+00 0.  0.
    1000022    2    1    0    0    0 -0.17621546242E+02 -0.23037849961E+01 -0.59079808896E+02  0.62500001442E+02  0.10000002189E+02 0.  0.
    3000022    2    5    5    0    0 -0.15434070906E+02 -0.52203786607E+01 -0.43057474152E+02  0.46037717955E+02  0.24999214863E+00 0.  0.
        -13    1    4    4    0    0  0.57512424009E+01 -0.23374949125E+01  0.17685521227E+02  0.18743781840E+02  0.10500000000E+00 0. -1.
         13    1    4    4    0    0  0.33408645192E+01 -0.14586927178E+01  0.10429737339E+02  0.11048964030E+02  0.10500000000E+00 0.  1.
    3000001    1    5    5    0    0 -0.21874753359E+01  0.29165936646E+01 -0.16022334744E+02  0.16462283487E+02  0.10000000000E+01 0.  1.
        -13    1    6    6    0    0 -0.82784167323E+01 -0.27714356223E+01 -0.23244027985E+02  0.24829597277E+02  0.10500000000E+00 0.  1.
         13    1    6    6    0    0 -0.71556541738E+01 -0.24489430385E+01 -0.19813446167E+02  0.21208120678E+02  0.10500000000E+00 0. -1.
</event>
<event>
11    0  0.3439373E-009  0.9118800E+02  0.7816531E-02  0.1126479E+00
         25   -1    0    0    0    0  0.00000000000E+00  0.00000000000E+00  0.99999998245E-14  0.12500000000E+03  0.12500000000E+03 0.  0.
    3000001    1    3    3    0    0  0.27056483776E+01  0.54568502685E+02  0.14571597130E+02  0.56554163961E+02  0.10000000000E+01 0.  1.
    1000022    2    1    0    0    0  0.57945153348E+00  0.60084950678E+02  0.13989739600E+02  0.62500000298E+02  0.10000008057E+02 0.  0.
    3000022    2    3    3    0    0 -0.21261968441E+01  0.55164479931E+01 -0.58185752986E+00  0.59458363371E+01  0.25000016395E+00 0.  0.
    1000022    2    1    0    0    0 -0.57945153348E+00 -0.60084950678E+02 -0.13989739600E+02  0.62499999702E+02  0.10000004331E+02 0.  0.
    3000022    2    5    5    0    0  0.87863709994E+00 -0.56151664709E+02 -0.10931144565E+02  0.57213056865E+02  0.25000313633E+00 0.  0.
        -13    1    4    4    0    0 -0.77072703674E+00  0.19877450536E+01 -0.15164133870E+00  0.21398996843E+01  0.10500000000E+00 0.  1.
         13    1    4    4    0    0 -0.13554698074E+01  0.35287029395E+01 -0.43021619117E+00  0.38059366528E+01  0.10500000000E+00 0. -1.
    3000001    1    5    5    0    0 -0.14580886334E+01 -0.39332859686E+01 -0.30585950347E+01  0.52869428368E+01  0.10000000000E+01 0. -1.
        -13    1    6    6    0    0  0.64539702406E+00 -0.41344930288E+02 -0.80147257141E+01  0.42119670596E+02  0.10500000000E+00 0. -1.
         13    1    6    6    0    0  0.23324007588E+00 -0.14806734421E+02 -0.29164188509E+01  0.15093386269E+02  0.10500000000E+00 0.  1.
</event>
<event>
11    0  0.3439373E-009  0.9118800E+02  0.7816531E-02  0.1126479E+00
         25   -1    0    0    0    0  0.00000000000E+00  0.00000000000E+00  0.99999998245E-14  0.12500000000E+03  0.12500000000E+03 0.  0.
    3000001    1    3    3    0    0 -0.52697785924E+02 -0.30385872080E+02 -0.46710383868E+01  0.61017837252E+02  0.10000000000E+01 0. -1.
    1000022    2    1    0    0    0 -0.52996473080E+02 -0.31019061236E+02 -0.59532889220E+01  0.62499999795E+02  0.10000000322E+02 0.  0.
    3000022    2    3    3    0    0 -0.29868715607E+00 -0.63318915628E+00 -0.12822505351E+01  0.14821625422E+01  0.24999368374E+00 0.  0.
    1000022    2    1    0    0    0  0.52996473080E+02  0.31019061236E+02  0.59532889220E+01  0.62500000205E+02  0.10000002889E+02 0.  0.
    3000022    2    5    5    0    0  0.53184105616E+01  0.40371568414E+01 -0.23476881338E+01  0.70822500672E+01  0.25000035457E+00 0.  0.
        -13    1    4    4    0    0 -0.11953091521E+00 -0.19220225434E+00 -0.53003994521E+00  0.58582991540E+00  0.10500000000E+00 0.  1.
         13    1    4    4    0    0 -0.17915624086E+00 -0.44098690194E+00 -0.75221058993E+00  0.89633262684E+00  0.10500000000E+00 0. -1.
    3000001    1    5    5    0    0  0.47678062518E+02  0.26981904395E+02  0.83009770558E+01  0.55417750138E+02  0.10000000000E+01 0. -1.
        -13    1    6    6    0    0  0.31587744538E+01  0.24472342176E+01 -0.14569642249E+01  0.42544777727E+01  0.10500000000E+00 0. -1.
         13    1    6    6    0    0  0.21596361078E+01  0.15899226238E+01 -0.89072390897E+00  0.28277722945E+01  0.10500000000E+00 0.  1.
</event>
<event>
11    0  0.3439373E-009  0.9118800E+02  0.7816531E-02  0.1126479E+00
         25   -1    0    0    0    0  0.00000000000E+00  0.00000000000E+00  0.99999998245E-14  0.12500000000E+03  0.12500000000E+03 0.  0.
    3000001    1    3    3    0    0  0.52008722469E+01  0.29660604178E+02 -0.73044475547E+01  0.31002507421E+02  0.10000000000E+01 0.  1.
    1000022    2    1    0    0    0  0.32027566818E+01  0.61085113494E+02 -0.80374852863E+01  0.62500000911E+02  0.10000010160E+02 0.  0.
    3000022    2    3    3    0    0 -0.19981155651E+01  0.31424509316E+02 -0.73303773165E+00  0.31497493490E+02  0.25000049135E+00 0.  0.
    1000022    2    1    0    0    0 -0.32027566818E+01 -0.61085113494E+02  0.80374852863E+01  0.62499999089E+02  0.99999987753E+01 0.  0.
    3000022    2    5    5    0    0 -0.48114818222E+01 -0.14161609667E+02  0.76291956529E+00  0.14978188155E+02  0.25005695486E+00 0.  0.
        -13    1    4    4    0    0 -0.86585680058E+00  0.13157943337E+02 -0.36477018011E+00  0.13191863521E+02  0.10500000000E+00 0. -1.
         13    1    4    4    0    0 -0.11322587646E+01  0.18266565979E+02 -0.36826755154E+00  0.18305629969E+02  0.10500000000E+00 0.  1.
    3000001    1    5    5    0    0  0.16087251404E+01 -0.46923503827E+02  0.72745657210E+01  0.47521810934E+02  0.10000000000E+01 0.  1.
        -13    1    6    6    0    0 -0.25791131392E+01 -0.77985944269E+01  0.41913062303E+00  0.82253629159E+01  0.10500000000E+00 0. -1.
         13    1    6    6    0    0 -0.22323686830E+01 -0.63630152398E+01  0.34378894226E+00  0.67528252395E+01  0.10500000000E+00 0.  1.
</event>
<event>
11    0  0.3439373E-009  0.9118800E+02  0.7816531E-02  0.1126479E+00
         25   -1    0    0    0    0  0.00000000000E+00  0.00000000000E+00  0.99999998245E-14  0.12500000000E+03  0.12500000000E+03 0.  0.
    3000001    1    3    3    0    0  0.47332967606E+02 -0.14869296064E+02 -0.17939759362E+02  0.52766852794E+02  0.10000000000E+01 0.  1.
    1000022    2    1    0    0    0  0.55281252899E+02 -0.14077657015E+02 -0.23495808036E+02  0.62499997558E+02  0.99999675185E+01 0.  0.
    3000022    2    3    3    0    0  0.79482852933E+01  0.79163904853E+00 -0.55560486742E+01  0.97331447644E+01  0.24999729500E+00 0.  0.
    1000022    2    1    0    0    0 -0.55281252899E+02  0.14077657015E+02  0.23495808036E+02  0.62500002442E+02  0.99999980436E+01 0.  0.
    3000022    2    5    5    0    0 -0.42190551381E+02  0.81513703870E+01  0.13786815528E+02  0.45128995708E+02  0.25001236719E+00 0.  0.
        -13    1    4    4    0    0  0.49946621650E+01  0.54858295638E+00 -0.34562345914E+01  0.60995226005E+01  0.10500000000E+00 0. -1.
         13    1    4    4    0    0  0.29536231283E+01  0.24305609215E+00 -0.20998140827E+01  0.36336221639E+01  0.10500000000E+00 0.  1.
    3000001    1    5    5    0    0 -0.13090701518E+02  0.59262866279E+01  0.97089925088E+01  0.17371006734E+02  0.10000000000E+01 0.  1.
        -13    1    6    6    0    0 -0.24654695613E+02  0.47176874847E+01  0.81023708112E+01  0.26377453037E+02  0.10500000000E+00 0. -1.
         13    1    6    6    0    0 -0.17535855768E+02  0.34336829024E+01  0.56844447164E+01  0.18751542670E+02  0.10500000000E+00 0.  1.
</event>
<event>
11    0  0.3439373E-009  0.9118800E+02  0.7816531E-02  0.1126479E+00
         25   -1    0    0    0    0  0.00000000000E+00  0.00000000000E+00  0.99999998245E-14  0.12500000000E+03  0.12500000000E+03 0.  0.
    3000001    1    3    3    0    0 -0.52029427730E+02  0.17439344328E+01  0.14596853509E+02  0.54075602536E+02  0.10000000000E+01 0.  1.
    1000022    2    1    0    0    0 -0.58918082915E+02  0.57001826686E+01  0.17390149981E+02  0.62499999843E+02  0.10000004356E+02 0.  0.
    3000022    2    3    3    0    0 -0.68886551851E+01  0.39562482358E+01  0.27932964719E+01  0.84243973071E+01  0.24998889108E+00 0.  0.
    1000022    2    1    0    0    0  0.58918082915E+02 -0.57001826686E+01 -0.17390149981E+02  0.62500000157E+02  0.10000006321E+02 0.  0.
    3000022    2    5    5    0    0  0.42194222940E+02 -0.75815929182E+01 -0.15266102696E+02  0.45507685016E+02  0.25000655179E+00 0.  0.
        -13    1    4    4    0    0 -0.19598534342E+01  0.11568544045E+01  0.76698899781E+00  0.24038790984E+01  0.10500000000E+00 0. -1.
         13    1    4    4    0    0 -0.49288017509E+01  0.27993938313E+01  0.20263074741E+01  0.60205182087E+01  0.10500000000E+00 0.  1.
    3000001    1    5    5    0    0  0.16723859975E+02  0.18814102496E+01 -0.21240472852E+01  0.16992315141E+02  0.10000000000E+01 0. -1.
        -13    1    6    6    0    0  0.22769505398E+02 -0.41520554863E+01 -0.82096482649E+01  0.24558079942E+02  0.10500000000E+00 0. -1.
         13    1    6    6    0    0  0.19424717543E+02 -0.34295374319E+01 -0.70564544308E+01  0.20949605074E+02  0.10500000000E+00 0.  1.
</event>
<event>
11    0  0.3439373E-009  0.9118800E+02  0.7816531E-02  0.1126479E+00
         25   -1    0    0    0    0  0.00000000000E+00  0.00000000000E+00  0.99999998245E-14  0.12500000000E+03  0.12500000000E+03 0.  0.
    3000001    1    3    3    0    0  0.27367218609E+02 -0.12902727822E+01  0.18332702096E+01  0.27477087508E+02  0.10000000000E+01 0. -1.
    1000022    2    1    0    0    0  0.61326175662E+02  0.65241500383E+01 -0.16689980869E+01  0.62499999334E+02  0.10000000358E+02 0.  0.
    3000022    2    3    3    0    0  0.33958957052E+02  0.78144228205E+01 -0.35022682966E+01  0.35022911826E+02  0.25000292746E+00 0.  0.
    1000022    2    1    0    0    0 -0.61326175662E+02 -0.65241500383E+01  0.16689980869E+01  0.62500000666E+02  0.10000008680E+02 0.  0.
    3000022    2    5    5    0    0 -0.55085538083E+02 -0.40717037971E+01  0.38712936844E+01  0.55371876379E+02  0.25000239973E+00 0.  0.
        -13    1    4    4    0    0  0.92865266016E+01  0.20998296849E+01 -0.94812033355E+00  0.95686372172E+01  0.10500000000E+00 0.  1.
         13    1    4    4    0    0  0.24672430451E+02  0.57145931356E+01 -0.25541479630E+01  0.25454274609E+02  0.10500000000E+00 0. -1.
    3000001    1    5    5    0    0 -0.62406375785E+01 -0.24524462412E+01 -0.22022955975E+01  0.71281242869E+01  0.10000000000E+01 0. -1.
        -13    1    6    6    0    0 -0.25986698801E+02 -0.19412381118E+01  0.18908700848E+01  0.26127826827E+02  0.10500000000E+00 0. -1.
         13    1    6    6    0    0 -0.29098839282E+02 -0.21304656853E+01  0.19804235996E+01  0.29244049552E+02  0.10500000000E+00 0.  1.
</event>
<event>
11    0  0.3439373E-009  0.9118800E+02  0.7816531E-02  0.1126479E+00
         25   -1    0    0    0    0  0.00000000000E+00  0.00000000000E+00  0.99999998245E-14  0.12500000000E+03  0.12500000000E+03 0.  0.
    3000001    1    3    3    0    0  0.67318981930E+01 -0.54676160898E+01 -0.10489087642E+02  0.13646766597E+02  0.10000000000E+01 0. -1.
    1000022    2    1    0    0    0  0.15093884550E+02 -0.20082079641E+02 -0.56348334726E+02  0.62499999871E+02  0.99999941962E+01 0.  0.
    3000022    2    3    3    0    0  0.83619863570E+01 -0.14614463551E+02 -0.45859247084E+02  0.48853233274E+02  0.24999493615E+00 0.  0.
    1000022    2    1    0    0    0 -0.15093884550E+02  0.20082079641E+02  0.56348334726E+02  0.62500000129E+02  0.99999958121E+01 0.  0.
    3000022    2    5    5    0    0 -0.14347269915E+02  0.14548015083E+02  0.49839749683E+02  0.53866056464E+02  0.24998741675E+00 0.  0.
        -13    1    4    4    0    0  0.50865250658E+01 -0.88947882252E+01 -0.27726180685E+02  0.29559129134E+02  0.10500000000E+00 0.  1.
         13    1    4    4    0    0  0.32754612912E+01 -0.57196753258E+01 -0.18133066400E+02  0.19294104140E+02  0.10500000000E+00 0. -1.
    3000001    1    5    5    0    0 -0.74661463451E+00  0.55340645576E+01  0.65085850435E+01  0.86339436649E+01  0.10000000000E+01 0.  1.
        -13    1    6    6    0    0 -0.10303773621E+02  0.10490766212E+02  0.35934834389E+02  0.38827146099E+02  0.10500000000E+00 0.  1.
         13    1    6    6    0    0 -0.40434962940E+01  0.40572488710E+01  0.13904915293E+02  0.15038910366E+02  0.10500000000E+00 0. -1.
</event>
<event>
11    0  0.3439373E-009  0.9118800E+02  0.7816531E-02  0.1126479E+00
         25   -1    0    0    0    0  0.00000000000E+00  0.00000000000E+00  0.99999998245E-14  0.12500000000E+03  0.12500000000E+03 0.  0.
    3000001    1    3    3    0    0  0.27076514534E+02 -0.26739188368E+02 -0.24632739120E+02  0.45341963681E+02  0.10000000000E+01 0.  1.
    1000022    2    1    0    0    0  0.34068539037E+02 -0.34226116513E+02 -0.38394759952E+02  0.62500000240E+02  0.10000001727E+02 0.  0.
    3000022    2    3    3    0    0  0.69920245032E+01 -0.74869281459E+01 -0.13762020832E+02  0.17158036559E+02  0.25000297526E+00 0.  0.
    1000022    2    1    0    0    0 -0.34068539037E+02  0.34226116513E+02  0.38394759952E+02  0.62499999760E+02  0.99999987269E+01 0.  0.
    3000022    2    5    5    0    0 -0.44011713419E+01  0.37913708430E+01  0.93551135189E+01  0.11014783290E+02  0.24999986472E+00 0.  0.
        -13    1    4    4    0    0  0.26202607523E+01 -0.28938240434E+01 -0.52279878199E+01  0.65255548154E+01  0.10500000000E+00 0.  1.
         13    1    4    4    0    0  0.43717637509E+01 -0.45931041025E+01 -0.85340330117E+01  0.10632481744E+02  0.10500000000E+00 0. -1.
    3000001    1    5    5    0    0 -0.29667367695E+02  0.30434745671E+02  0.29039646433E+02  0.51485216470E+02  0.10000000000E+01 0. -1.
        -13    1    6    6    0    0 -0.13764736888E+01  0.11510124016E+01  0.29690382629E+01  0.34706948254E+01  0.10500000000E+00 0.  1.
         13    1    6    6    0    0 -0.30246976532E+01  0.26403584414E+01  0.63860752560E+01  0.75440884650E+01  0.10500000000E+00 0. -1.
</event>
<event>
11    0  0.3439373E-009  0.9118800E+02  0.7816531E-02  0.1126479E+00
         25   -1    0    0    0    0  0.00000000000E+00  0.00000000000E+00  0.99999998245E-14  0.12500000000E+03  0.12500000000E+03 0.  0.
    3000001    1    3    3    0    0 -0.57213286000E+02 -0.18459488611E+02 -0.14105972424E+02  0.61758329582E+02  0.10000000000E+01 0.  1.
    1000022    2    1    0    0    0 -0.57112913896E+02 -0.18114545776E+02 -0.14704701429E+02  0.62499999893E+02  0.10000002009E+02 0.  0.
    3000022    2    3    3    0    0  0.10037210426E+00  0.34494283487E+00 -0.59872900473E+00  0.74167031123E+00  0.25007660988E+00 0.  0.
    1000022    2    1    0    0    0  0.57112913896E+02  0.18114545776E+02  0.14704701429E+02  0.62500000107E+02  0.10000003342E+02 0.  0.
    3000022    2    5    5    0    0  0.47233520018E-01 -0.28106673293E+00  0.88446741143E+00  0.96229374166E+00  0.24999425912E+00 0.  0.
        -13    1    4    4    0    0  0.66597923424E-03  0.20371803586E+00 -0.37993180796E+00  0.44370560100E+00  0.10500000000E+00 0. -1.
         13    1    4    4    0    0  0.99706125030E-01  0.14122479901E+00 -0.21879719677E+00  0.29796471023E+00  0.10500000000E+00 0.  1.
    3000001    1    5    5    0    0  0.57065680376E+02  0.18395612509E+02  0.13820234018E+02  0.61537706365E+02  0.10000000000E+01 0.  1.
        -13    1    6    6    0    0  0.67347551301E-01 -0.21698619172E+00  0.51993364714E+00  0.57703959785E+00  0.10500000000E+00 0.  1.
         13    1    6    6    0    0 -0.20114031283E-01 -0.64080541209E-01  0.36453376429E+00  0.38525414381E+00  0.10500000000E+00 0. -1.
</event>
<event>
11    0  0.3439373E-009  0.9118800E+02  0.7816531E-02  0.1126479E+00
         25   -1    0    0    0    0  0.00000000000E+00  0.00000000000E+00  0.99999998245E-14  0.12500000000E+03  0.12500000000E+03 0.  0.
    3000001    1    3    3    0    0  0.31130165862E+02 -0.41237764396E+02  0.40026406896E+01  0.51833016229E+02  0.10000000000E+01 0. -1.
    1000022    2    1    0    0    0  0.34343226109E+02 -0.50645800415E+02  0.78610256528E+01  0.62499999562E+02  0.99999970862E+01 0.  0.
    3000022    2    3    3    0    0  0.32130602471E+01 -0.94080360191E+01  0.38583849631E+01  0.10666983333E+02  0.25000201886E+00 0.  0.
    1000022    2    1    0    0    0 -0.34343226109E+02  0.50645800415E+02 -0.78610256528E+01  0.62500000438E+02  0.10000002561E+02 0.  0.
    3000022    2    5    5    0    0 -0.25187267328E+02  0.43295014497E+02 -0.79466418684E+01  0.50715563034E+02  0.25000212552E+00 0.  0.
        -13    1    4    4    0    0  0.23006244871E+01 -0.66518919745E+01  0.27675798912E+01  0.75637995297E+01  0.10500000000E+00 0.  1.
         13    1    4    4    0    0  0.91243575996E+00 -0.27561440446E+01  0.10908050719E+01  0.31031838031E+01  0.10500000000E+00 0. -1.
    3000001    1    5    5    0    0 -0.91559587807E+01  0.73507859173E+01  0.85616215642E-01  0.11784437404E+02  0.10000000000E+01 0.  1.
        -13    1    6    6    0    0 -0.13799501096E+02  0.23775956636E+02 -0.44227187302E+01  0.27844098305E+02  0.10500000000E+00 0.  1.
         13    1    6    6    0    0 -0.11387766232E+02  0.19519057861E+02 -0.35239231382E+01  0.22871464729E+02  0.10500000000E+00 0. -1.
</event>
<event>
11    0  0.3439373E-009  0.9118800E+02  0.7816531E-02  0.1126479E+00
         25   -1    0    0    0    0  0.00000000000E+00  0.00000000000E+00  0.99999998245E-14  0.12500000000E+03  0.12500000000E+03 0.  0.
    3000001    1    3    3    0    0  0.37274631954E+02  0.20437544907E+01 -0.16860788101E+02  0.40973909932E+02  0.10000000000E+01 0. -1.
    1000022    2    1    0    0    0  0.54722173670E+02 -0.32374698594E+01 -0.28306400376E+02  0.62500000685E+02  0.10000014060E+02 0.  0.
    3000022    2    3    3    0    0  0.17447541716E+02 -0.52812243501E+01 -0.11445612275E+02  0.21526090754E+02  0.25000043271E+00 0.  0.
    1000022    2    1    0    0    0 -0.54722173670E+02  0.32374698594E+01  0.28306400376E+02  0.62499999315E+02  0.10000005492E+02 0.  0.
    3000022    2    5    5    0    0 -0.31451160924E+02 -0.72228374149E+00  0.20779238848E+02  0.37703268815E+02  0.24998998271E+00 0.  0.
        -13    1    4    4    0    0  0.74098335054E+01 -0.22420451203E+01 -0.47839406345E+01  0.91010720189E+01  0.10500000000E+00 0. -1.
         13    1    4    4    0    0  0.10037708210E+02 -0.30391792298E+01 -0.66616716407E+01  0.12425018735E+02  0.10500000000E+00 0.  1.
    3000001    1    5    5    0    0 -0.23271012745E+02  0.39597536009E+01  0.75271615287E+01  0.24796730499E+02  0.10000000000E+01 0. -1.
        -13    1    6    6    0    0 -0.12792865784E+02 -0.23204032926E+00  0.84699196428E+01  0.15344765278E+02  0.10500000000E+00 0.  1.
         13    1    6    6    0    0 -0.18658295140E+02 -0.49024341223E+00  0.12309319205E+02  0.22358503537E+02  0.10500000000E+00 0. -1.
</event>
<event>
11    0  0.3439373E-009  0.9118800E+02  0.7816531E-02  0.1126479E+00
         25   -1    0    0    0    0  0.00000000000E+00  0.00000000000E+00  0.99999998245E-14  0.12500000000E+03  0.12500000000E+03 0.  0.
    3000001    1    3    3    0    0  0.27445023657E+01 -0.10569508283E+02  0.27047610161E+02  0.29185955767E+02  0.10000000000E+01 0.  1.
    1000022    2    1    0    0    0 -0.30934401086E+01 -0.27474564943E+02  0.55152778974E+02  0.62499999747E+02  0.99999924656E+01 0.  0.
    3000022    2    3    3    0    0 -0.58379424743E+01 -0.16905056660E+02  0.28105168812E+02  0.33314043980E+02  0.24999863995E+00 0.  0.
    1000022    2    1    0    0    0  0.30934401086E+01  0.27474564943E+02 -0.55152778974E+02  0.62500000253E+02  0.99999956307E+01 0.  0.
    3000022    2    5    5    0    0 -0.17657304851E+01  0.21761285731E+02 -0.41065096408E+02  0.46508880896E+02  0.24999683260E+00 0.  0.
        -13    1    4    4    0    0 -0.13429995230E+01 -0.39138366274E+01  0.65131354379E+01  0.77171058758E+01  0.10500000000E+00 0.  1.
         13    1    4    4    0    0 -0.44949429513E+01 -0.12991220032E+02  0.21592033375E+02  0.25596938104E+02  0.10500000000E+00 0. -1.
    3000001    1    5    5    0    0  0.48591705937E+01  0.57132792117E+01 -0.14087682566E+02  0.15991119357E+02  0.10000000000E+01 0.  1.
        -13    1    6    6    0    0 -0.91597117214E+00  0.10452608172E+02 -0.19739644135E+02  0.22355325906E+02  0.10500000000E+00 0. -1.
         13    1    6    6    0    0 -0.84975931298E+00  0.11308677559E+02 -0.21325452273E+02  0.24153554990E+02  0.10500000000E+00 0.  1.
</event>
<event>
11    0  0.3439373E-009  0.9118800E+02  0.7816531E-02  0.1126479E+00
         25   -1    0    0    0    0  0.00000000000E+00  0.00000000000E+00  0.99999998245E-14  0.12500000000E+03  0.12500000000E+03 0.  0.
    3000001    1    3    3    0    0  0.23079543200E+02 -0.43546558096E+02  0.14785260366E+02  0.51464278489E+02  0.10000000000E+01 0. -1.
    1000022    2    1    0    0    0  0.31614474719E+02 -0.50137271954E+02  0.17118085257E+02  0.62499999456E+02  0.10000001917E+02 0.  0.
    3000022    2    3    3    0    0  0.85349315195E+01 -0.65907138584E+01  0.23328248906E+01  0.11035720967E+02  0.25000016337E+00 0.  0.
    1000022    2    1    0    0    0 -0.31614474719E+02  0.50137271954E+02 -0.17118085257E+02  0.62500000544E+02  0.10000008720E+02 0.  0.
    3000022    2    5    5    0    0 -0.85979271431E+01  0.68475049083E+01 -0.43759048139E+01  0.11833161728E+02  0.24999782089E+00 0.  0.
        -13    1    4    4    0    0  0.47696960808E+01 -0.37327991000E+01  0.13645029385E+01  0.62094027969E+01  0.10500000000E+00 0. -1.
         13    1    4    4    0    0  0.37652354386E+01 -0.28579147584E+01  0.96832195210E+00  0.48263181699E+01  0.10500000000E+00 0.  1.
    3000001    1    5    5    0    0 -0.23016547576E+02  0.43289767046E+02 -0.12742180443E+02  0.50666838816E+02  0.10000000000E+01 0.  1.
        -13    1    6    6    0    0 -0.42093298778E+01  0.32967403652E+01 -0.21844400052E+01  0.57766563159E+01  0.10500000000E+00 0. -1.
         13    1    6    6    0    0 -0.43885972653E+01  0.35507645431E+01 -0.21914648088E+01  0.60565054120E+01  0.10500000000E+00 0.  1.
</event>
<event>
11    0  0.3439373E-009  0.9118800E+02  0.7816531E-02  0.1126479E+00
         25   -1    0    0    0    0  0.00000000000E+00  0.00000000000E+00  0.99999998245E-14  0.12500000000E+03  0.12500000000E+03 0.  0.
    3000001    1    3    3    0    0  0.40420744876E+02  0.31644504636E+02 -0.30848459681E+02  0.59898570556E+02  0.10000000000E+01 0.  1.
    1000022    2    1    0    0    0  0.42206110289E+02  0.33391044565E+02 -0.30165083005E+02  0.62500000513E+02  0.10000011427E+02 0.  0.
    3000022    2    3    3    0    0  0.17853654132E+01  0.17465399291E+01  0.68337667569E+00  0.26014299569E+01  0.25000551436E+00 0.  0.
    1000022    2    1    0    0    0 -0.42206110289E+02 -0.33391044565E+02  0.30165083005E+02  0.62499999487E+02  0.10000005011E+02 0.  0.
    3000022    2    5    5    0    0 -0.19309198491E+02 -0.10242552061E+02  0.15375531601E+02  0.26724978790E+02  0.25000043295E+00 0.  0.
        -13    1    4    4    0    0  0.55530348952E+00  0.56431826101E+00  0.16812856110E+00  0.81615518025E+00  0.10500000000E+00 0.  1.
         13    1    4    4    0    0  0.12300619237E+01  0.11822216681E+01  0.51524811459E+00  0.17852747767E+01  0.10500000000E+00 0. -1.
    3000001    1    5    5    0    0 -0.22896911798E+02 -0.23148492504E+02  0.14789551404E+02  0.35775020696E+02  0.10000000000E+01 0.  1.
        -13    1    6    6    0    0 -0.49697284598E+01 -0.26268839902E+01  0.39903147647E+01  0.68943714278E+01  0.10500000000E+00 0.  1.
         13    1    6    6    0    0 -0.14339470031E+02 -0.76156680709E+01  0.11385216837E+02  0.19830607362E+02  0.10500000000E+00 0. -1.
</event>
<event>
11    0  0.3439373E-009  0.9118800E+02  0.7816531E-02  0.1126479E+00
         25   -1    0    0    0    0  0.00000000000E+00  0.00000000000E+00  0.99999998245E-14  0.12500000000E+03  0.12500000000E+03 0.  0.
    3000001    1    3    3    0    0 -0.82647038947E+01 -0.34900406116E+01  0.71395256686E+01  0.11509063416E+02  0.10000000000E+01 0. -1.
    1000022    2    1    0    0    0 -0.28253681195E+02 -0.26438096051E+02  0.48052129364E+02  0.62500004792E+02  0.10000001936E+02 0.  0.
    3000022    2    3    3    0    0 -0.19988977300E+02 -0.22948055439E+02  0.40912603696E+02  0.50990941376E+02  0.24999865327E+00 0.  0.
    1000022    2    1    0    0    0  0.28253681195E+02  0.26438096051E+02 -0.48052129364E+02  0.62499995208E+02  0.99999420352E+01 0.  0.
    3000022    2    5    5    0    0  0.21390220155E+02  0.24681325698E+02 -0.41378723624E+02  0.52715942689E+02  0.24997670689E+00 0.  0.
        -13    1    4    4    0    0 -0.14215164798E+02 -0.16354680550E+02  0.29189469702E+02  0.36353578264E+02  0.10500000000E+00 0.  1.
         13    1    4    4    0    0 -0.57738125022E+01 -0.65933748887E+01  0.11723133994E+02  0.14637363112E+02  0.10500000000E+00 0. -1.
    3000001    1    5    5    0    0  0.68634610400E+01  0.17567703527E+01 -0.66734057405E+01  0.97840525192E+01  0.10000000000E+01 0.  1.
        -13    1    6    6    0    0  0.15006779876E+02  0.17357234234E+02 -0.29127485695E+02  0.37079623385E+02  0.10500000000E+00 0. -1.
         13    1    6    6    0    0  0.63834402789E+01  0.73240914646E+01 -0.12251237929E+02  0.15636319304E+02  0.10500000000E+00 0.  1.
</event>
<event>
11    0  0.3439373E-009  0.9118800E+02  0.7816531E-02  0.1126479E+00
         25   -1    0    0    0    0  0.00000000000E+00  0.00000000000E+00  0.99999998245E-14  0.12500000000E+03  0.12500000000E+03 0.  0.
    3000001    1    3    3    0    0 -0.34534228524E+01  0.11890760438E+02  0.93988867006E+01  0.15577399796E+02  0.10000000000E+01 0.  1.
    1000022    2    1    0    0    0 -0.67817576140E+00  0.41002738149E+02  0.46093015840E+02  0.62500004747E+02  0.10000001300E+02 0.  0.
    3000022    2    3    3    0    0  0.27752470911E+01  0.29111977712E+02  0.36694129139E+02  0.46922604951E+02  0.24999876677E+00 0.  0.
    1000022    2    1    0    0    0  0.67817576140E+00 -0.41002738149E+02 -0.46093015840E+02  0.62499995253E+02  0.99999419683E+01 0.  0.
    3000022    2    5    5    0    0 -0.33501942657E+01 -0.54067338516E+01 -0.65402809431E+01  0.91265737326E+01  0.25000144320E+00 0.  0.
        -13    1    4    4    0    0  0.21405927645E+01  0.22404439057E+02  0.28230048536E+02  0.36103845947E+02  0.10500000000E+00 0. -1.
         13    1    4    4    0    0  0.63465432659E+00  0.67075386545E+01  0.84640806032E+01  0.10818759003E+02  0.10500000000E+00 0.  1.
    3000001    1    5    5    0    0  0.40283700271E+01 -0.35596004298E+02 -0.39552734897E+02  0.53373421521E+02  0.10000000000E+01 0.  1.
        -13    1    6    6    0    0 -0.18530904035E+01 -0.30441701043E+01 -0.35780548366E+01  0.50511797712E+01  0.10500000000E+00 0.  1.
         13    1    6    6    0    0 -0.14971038621E+01 -0.23625637473E+01 -0.29622261065E+01  0.40753939613E+01  0.10500000000E+00 0. -1.
</event>
<event>
11    0  0.3439373E-009  0.9118800E+02  0.7816531E-02  0.1126479E+00
         25   -1    0    0    0    0  0.00000000000E+00  0.00000000000E+00  0.99999998245E-14  0.12500000000E+03  0.12500000000E+03 0.  0.
    3000001    1    3    3    0    0  0.87672655243E+01  0.20703693754E+02  0.59801756487E+01  0.23286699651E+02  0.10000000000E+01 0.  1.
    1000022    2    1    0    0    0  0.31722587553E+02  0.52486239124E+02  0.67173095510E+01  0.62499999236E+02  0.99999899242E+01 0.  0.
    3000022    2    3    3    0    0  0.22955322029E+02  0.31782545370E+02  0.73713390232E+00  0.39213299586E+02  0.24999671391E+00 0.  0.
    1000022    2    1    0    0    0 -0.31722587553E+02 -0.52486239124E+02 -0.67173095510E+01  0.62500000764E+02  0.99999994711E+01 0.  0.
    3000022    2    5    5    0    0 -0.51790117441E+01 -0.17044797675E+02 -0.10300487012E+01  0.17845749850E+02  0.24999389926E+00 0.  0.
        -13    1    4    4    0    0  0.14827624275E+02  0.20615590962E+02  0.50373681588E+00  0.25399326923E+02  0.10500000000E+00 0.  1.
         13    1    4    4    0    0  0.81276977537E+01  0.11166954408E+02  0.23339708644E+00  0.13813972663E+02  0.10500000000E+00 0. -1.
    3000001    1    5    5    0    0 -0.26543575809E+02 -0.35441441449E+02 -0.56872608497E+01  0.44654250914E+02  0.10000000000E+01 0. -1.
        -13    1    6    6    0    0 -0.24492244167E+01 -0.80919253525E+01 -0.42183694868E+00  0.84656321420E+01  0.10500000000E+00 0.  1.
         13    1    6    6    0    0 -0.27297873274E+01 -0.89528723226E+01 -0.60821175256E+00  0.93801177079E+01  0.10500000000E+00 0. -1.
</event>
<event>
11    0  0.3439373E-009  0.9118800E+02  0.7816531E-02  0.1126479E+00
         25   -1    0    0    0    0  0.00000000000E+00  0.00000000000E+00  0.99999998245E-14  0.12500000000E+03  0.12500000000E+03 0.  0.
    3000001    1    3    3    0    0 -0.51751318409E+02  0.13451889299E+01  0.20719199067E+02  0.55770007175E+02  0.10000000000E+01 0. -1.
    1000022    2    1    0    0    0 -0.56774840827E+02  0.46944023982E+01  0.23681849927E+02  0.62500000391E+02  0.10000003409E+02 0.  0.
    3000022    2    3    3    0    0 -0.50235224181E+01  0.33492134683E+01  0.29626508597E+01  0.67299932166E+01  0.25000047446E+00 0.  0.
    1000022    2    1    0    0    0  0.56774840827E+02 -0.46944023982E+01 -0.23681849927E+02  0.62499999609E+02  0.99999985163E+01 0.  0.
    3000022    2    5    5    0    0  0.43588602584E+02 -0.52601981295E+01 -0.22147092867E+02  0.49175117506E+02  0.24999943408E+00 0.  0.
        -13    1    4    4    0    0 -0.19993042214E+01  0.13192900835E+01  0.12446112876E+01  0.27014488615E+01  0.10500000000E+00 0. -1.
         13    1    4    4    0    0 -0.30242181968E+01  0.20299233848E+01  0.17180395722E+01  0.40285443552E+01  0.10500000000E+00 0.  1.
    3000001    1    5    5    0    0  0.13186238243E+02  0.56579573132E+00 -0.15347570601E+01  0.13324882103E+02  0.10000000000E+01 0.  1.
        -13    1    6    6    0    0  0.16502715080E+02 -0.19795467210E+01 -0.84508999705E+01  0.18646365479E+02  0.10500000000E+00 0. -1.
         13    1    6    6    0    0  0.27085887503E+02 -0.32806514085E+01 -0.13696192896E+02  0.30528752028E+02  0.10500000000E+00 0.  1.
</event>
<event>
11    0  0.3439373E-009  0.9118800E+02  0.7816531E-02  0.1126479E+00
         25   -1    0    0    0    0  0.00000000000E+00  0.00000000000E+00  0.99999998245E-14  0.12500000000E+03  0.12500000000E+03 0.  0.
    3000001    1    3    3    0    0 -0.17073852684E+02 -0.21491076370E+02  0.30710054954E+01  0.27637182993E+02  0.10000000000E+01 0. -1.
    1000022    2    1    0    0    0 -0.45927441675E+02 -0.41054457419E+02  0.33840268314E+01  0.62499999323E+02  0.99999952501E+01 0.  0.
    3000022    2    3    3    0    0 -0.28853588990E+02 -0.19563381049E+02  0.31302133597E+00  0.34862816330E+02  0.25000881464E+00 0.  0.
    1000022    2    1    0    0    0  0.45927441675E+02  0.41054457419E+02 -0.33840268314E+01  0.62500000677E+02  0.10000003717E+02 0.  0.
    3000022    2    5    5    0    0  0.24680960382E+02  0.23075398445E+02  0.30168075744E+01  0.33923258211E+02  0.25000185189E+00 0.  0.
        -13    1    4    4    0    0 -0.13600843340E+02 -0.92149594631E+01  0.21473998436E+00  0.16430324274E+02  0.10500000000E+00 0. -1.
         13    1    4    4    0    0 -0.15252745650E+02 -0.10348421586E+02  0.98281351618E-01  0.18432492056E+02  0.10500000000E+00 0.  1.
    3000001    1    5    5    0    0  0.21246481293E+02  0.17979058974E+02 -0.64008344058E+01  0.28576742467E+02  0.10000000000E+01 0. -1.
        -13    1    6    6    0    0  0.87319358005E+01  0.80918881593E+01  0.10411795924E+01  0.11950750468E+02  0.10500000000E+00 0. -1.
         13    1    6    6    0    0  0.15949024581E+02  0.14983510286E+02  0.19756279820E+01  0.21972507743E+02  0.10500000000E+00 0.  1.
</event>
<event>
11    0  0.3439373E-009  0.9118800E+02  0.7816531E-02  0.1126479E+00
         25   -1    0    0    0    0  0.00000000000E+00  0.00000000000E+00  0.99999998245E-14  0.12500000000E+03  0.12500000000E+03 0.  0.
    3000001    1    3    3    0    0  0.11251545683E+02  0.12230560056E+02 -0.48156213564E+02  0.50952966394E+02  0.10000000000E+01 0.  1.
    1000022    2    1    0    0    0  0.95001833684E+01  0.16889149919E+02 -0.58572632251E+02  0.62500001066E+02  0.10000000774E+02 0.  0.
    3000022    2    3    3    0    0 -0.17513623151E+01  0.46585898628E+01 -0.10416418687E+02  0.11547034672E+02  0.25000398089E+00 0.  0.
    1000022    2    1    0    0    0 -0.95001833684E+01 -0.16889149919E+02  0.58572632251E+02  0.62499998934E+02  0.99999874437E+01 0.  0.
    3000022    2    5    5    0    0 -0.93007768419E+01 -0.14377816790E+02  0.56636404830E+02  0.59169003036E+02  0.25000530517E+00 0.  0.
        -13    1    4    4    0    0 -0.91989019361E+00  0.25953669581E+01 -0.58560127303E+01  0.64719423447E+01  0.10500000000E+00 0. -1.
         13    1    4    4    0    0 -0.83147212146E+00  0.20632229047E+01 -0.45604059569E+01  0.50750923277E+01  0.10500000000E+00 0.  1.
    3000001    1    5    5    0    0 -0.19940652649E+00 -0.25113331287E+01  0.19362274209E+01  0.33309958979E+01  0.10000000000E+01 0.  1.
        -13    1    6    6    0    0 -0.44085040552E+01 -0.67726903737E+01  0.26508988989E+02  0.27713566445E+02  0.10500000000E+00 0.  1.
         13    1    6    6    0    0 -0.48922727866E+01 -0.76051264167E+01  0.30127415841E+02  0.31455436590E+02  0.10500000000E+00 0. -1.
</event>
<event>
11    0  0.3439373E-009  0.9118800E+02  0.7816531E-02  0.1126479E+00
         25   -1    0    0    0    0  0.00000000000E+00  0.00000000000E+00  0.99999998245E-14  0.12500000000E+03  0.12500000000E+03 0.  0.
    3000001    1    3    3    0    0 -0.16437994266E+02  0.40167263737E+02 -0.82214193635E+01  0.44183803231E+02  0.10000000000E+01 0.  1.
    1000022    2    1    0    0    0 -0.27237942502E+02  0.54909636258E+02 -0.70197060961E+01  0.62499999497E+02  0.99999998899E+01 0.  0.
    3000022    2    3    3    0    0 -0.10799948236E+02  0.14742372520E+02  0.12017132674E+01  0.18316196266E+02  0.25000289941E+00 0.  0.
    1000022    2    1    0    0    0  0.27237942502E+02 -0.54909636258E+02  0.70197060961E+01  0.62500000503E+02  0.10000006174E+02 0.  0.
    3000022    2    5    5    0    0  0.16217277656E+02 -0.41273805133E+02  0.27736281731E+01  0.44432899965E+02  0.25000266921E+00 0.  0.
        -13    1    4    4    0    0 -0.42818510559E+01  0.58992152648E+01  0.53360217968E+00  0.73096337454E+01  0.10500000000E+00 0. -1.
         13    1    4    4    0    0 -0.65180971800E+01  0.88431572555E+01  0.66811108769E+00  0.11006562521E+02  0.10500000000E+00 0.  1.
    3000001    1    5    5    0    0  0.11020664846E+02 -0.13635831124E+02  0.42460779230E+01  0.18067100537E+02  0.10000000000E+01 0. -1.
        -13    1    6    6    0    0  0.10206632883E+02 -0.25902079142E+02  0.16878929267E+01  0.27891810021E+02  0.10500000000E+00 0.  1.
         13    1    6    6    0    0  0.60106447727E+01 -0.15371725991E+02  0.10857352464E+01  0.16541089945E+02  0.10500000000E+00 0. -1.
</event>
<event>
11    0  0.3439373E-009  0.9118800E+02  0.7816531E-02  0.1126479E+00
         25   -1    0    0    0    0  0.00000000000E+00  0.00000000000E+00  0.99999998245E-14  0.12500000000E+03  0.12500000000E+03 0.  0.
    3000001    1    3    3    0    0  0.34382319132E+02  0.88404878667E+00 -0.26173948955E+02  0.43231944382E+02  0.10000000000E+01 0. -1.
    1000022    2    1    0    0    0  0.45710402438E+02 -0.26658104565E+01 -0.41348549263E+02  0.62500000142E+02  0.10000002755E+02 0.  0.
    3000022    2    3    3    0    0  0.11328083306E+02 -0.35498592432E+01 -0.15174600309E+02  0.19268055760E+02  0.25001240429E+00 0.  0.
    1000022    2    1    0    0    0 -0.45710402438E+02  0.26658104565E+01  0.41348549263E+02  0.62499999858E+02  0.10000000986E+02 0.  0.
    3000022    2    5    5    0    0 -0.23375262631E+02 -0.35820075357E+01  0.21264814196E+02  0.31803907043E+02  0.24999878130E+00 0.  0.
        -13    1    4    4    0    0  0.35447584591E+01 -0.11082145921E+01 -0.48282823526E+01  0.60923548478E+01  0.10500000000E+00 0. -1.
         13    1    4    4    0    0  0.77833248465E+01 -0.24416446511E+01 -0.10346317956E+02  0.13175700912E+02  0.10500000000E+00 0.  1.
    3000001    1    5    5    0    0 -0.22335139807E+02  0.62478179922E+01  0.20083735068E+02  0.30696092815E+02  0.10000000000E+01 0. -1.
        -13    1    6    6    0    0 -0.74897076565E+01 -0.11037173340E+01  0.68431638766E+01  0.10205578356E+02  0.10500000000E+00 0. -1.
         13    1    6    6    0    0 -0.15885554974E+02 -0.24782902017E+01  0.14421650319E+02  0.21598328687E+02  0.10500000000E+00 0.  1.
</event>
<event>
11    0  0.3439373E-009  0.9118800E+02  0.7816531E-02  0.1126479E+00
         25   -1    0    0    0    0  0.00000000000E+00  0.00000000000E+00  0.99999998245E-14  0.12500000000E+03  0.12500000000E+03 0.  0.
    3000001    1    3    3    0    0  0.26268691233E+02  0.29528077119E+02 -0.16528121698E+02  0.42850090832E+02  0.10000000000E+01 0. -1.
    1000022    2    1    0    0    0  0.42742792683E+02  0.39427303283E+02 -0.20610480112E+02  0.62499997907E+02  0.99999638682E+01 0.  0.
    3000022    2    3    3    0    0  0.16474101450E+02  0.98992261646E+01 -0.40823584143E+01  0.19649907075E+02  0.25000119692E+00 0.  0.
    1000022    2    1    0    0    0 -0.42742792683E+02 -0.39427303283E+02  0.20610480112E+02  0.62500002093E+02  0.99999900320E+01 0.  0.
    3000022    2    5    5    0    0 -0.12746945401E+02 -0.16556860398E+02  0.10748805571E+02  0.23499224707E+02  0.24999468601E+00 0.  0.
        -13    1    4    4    0    0  0.47456783611E+01  0.28923885820E+01 -0.12057172880E+01  0.56878953924E+01  0.10500000000E+00 0. -1.
         13    1    4    4    0    0  0.11728423089E+02  0.70068375826E+01 -0.28766411262E+01  0.13962011683E+02  0.10500000000E+00 0.  1.
    3000001    1    5    5    0    0 -0.29995847282E+02 -0.22870442885E+02  0.98616745413E+01  0.39000777386E+02  0.10000000000E+01 0. -1.
        -13    1    6    6    0    0 -0.67917968997E+01 -0.87138024486E+01  0.56668624976E+01  0.12417053346E+02  0.10500000000E+00 0. -1.
         13    1    6    6    0    0 -0.59551485010E+01 -0.78430579492E+01  0.50819430734E+01  0.11082171361E+02  0.10500000000E+00 0.  1.
</event>
<event>
11    0  0.3439373E-009  0.9118800E+02  0.7816531E-02  0.1126479E+00
         25   -1    0    0    0    0  0.00000000000E+00  0.00000000000E+00  0.99999998245E-14  0.12500000000E+03  0.12500000000E+03 0.  0.
    3000001    1    3    3    0    0  0.11822121149E+01 -0.52101031582E+01 -0.15513746799E+02  0.16438343595E+02  0.10000000000E+01 0.  1.
    1000022    2    1    0    0    0  0.11461370426E+02 -0.32463205197E+02 -0.51195969595E+02  0.62500000015E+02  0.99999997704E+01 0.  0.
    3000022    2    3    3    0    0  0.10279158311E+02 -0.27253102039E+02 -0.35682222795E+02  0.46061656420E+02  0.25000434358E+00 0.  0.
    1000022    2    1    0    0    0 -0.11461370426E+02  0.32463205197E+02  0.51195969595E+02  0.62499999985E+02  0.99999995859E+01 0.  0.
    3000022    2    5    5    0    0  0.89310274534E+00  0.10909428460E+02  0.16992001759E+02  0.20213953650E+02  0.25007308355E+00 0.  0.
        -13    1    4    4    0    0  0.49445091521E+01 -0.12978546878E+02 -0.16936034367E+02  0.21902765462E+02  0.10500000000E+00 0.  1.
         13    1    4    4    0    0  0.53346491593E+01 -0.14274555160E+02 -0.18746188429E+02  0.24158890957E+02  0.10500000000E+00 0. -1.
    3000001    1    5    5    0    0 -0.12354473172E+02  0.21553776737E+02  0.34203967836E+02  0.42286046336E+02  0.10000000000E+01 0.  1.
        -13    1    6    6    0    0  0.36363511540E+00  0.52403030004E+01  0.81879788528E+01  0.97286704501E+01  0.10500000000E+00 0.  1.
         13    1    6    6    0    0  0.52946762993E+00  0.56691254596E+01  0.88040229057E+01  0.10485283199E+02  0.10500000000E+00 0. -1.
</event>
<event>
11    0  0.3439373E-009  0.9118800E+02  0.7816531E-02  0.1126479E+00
         25   -1    0    0    0    0  0.00000000000E+00  0.00000000000E+00  0.99999998245E-14  0.12500000000E+03  0.12500000000E+03 0.  0.
    3000001    1    3    3    0    0 -0.41761623137E+01  0.15369532151E+02 -0.59583424861E+02  0.61683444849E+02  0.10000000000E+01 0. -1.
    1000022    2    1    0    0    0 -0.42189036047E+01  0.16123935277E+02 -0.59400924512E+02  0.62499997871E+02  0.99999732279E+01 0.  0.
    3000022    2    3    3    0    0 -0.42741290973E-01  0.75440312583E+00  0.18250034973E+00  0.81655302181E+00  0.25000313110E+00 0.  0.
    1000022    2    1    0    0    0  0.42189036047E+01 -0.16123935277E+02  0.59400924512E+02  0.62500002129E+02  0.99999998447E+01 0.  0.
    3000022    2    5    5    0    0  0.44987676045E+01 -0.14856268855E+01  0.15667720899E+02  0.16370277497E+02  0.25001992273E+00 0.  0.
        -13    1    4    4    0    0 -0.52537965583E-01  0.20833757295E+00  0.40414461853E-01  0.24253476216E+00  0.10500000000E+00 0. -1.
         13    1    4    4    0    0  0.97966746105E-02  0.54606555288E+00  0.14208588788E+00  0.57401825965E+00  0.10500000000E+00 0.  1.
    3000001    1    5    5    0    0 -0.27986399986E+00 -0.14638308392E+02  0.43733203613E+02  0.46129724633E+02  0.10000000000E+01 0. -1.
        -13    1    6    6    0    0  0.15223793416E+01 -0.44619815400E+00  0.52644043980E+01  0.54992463409E+01  0.10500000000E+00 0. -1.
         13    1    6    6    0    0  0.29763882630E+01 -0.10394287315E+01  0.10403316501E+02  0.10871031156E+02  0.10500000000E+00 0.  1.
</event>
<event>
11    0  0.3439373E-009  0.9118800E+02  0.7816531E-02  0.1126479E+00
         25   -1    0    0    0    0  0.00000000000E+00  0.00000000000E+00  0.99999998245E-14  0.12500000000E+03  0.12500000000E+03 0.  0.
    3000001    1    3    3    0    0  0.10017687016E+02  0.19704937721E+02  0.22357489402E+01  0.22240440577E+02  0.10000000000E+01 0. -1.
    1000022    2    1    0    0    0  0.16623669368E+02  0.58143663883E+02  0.12215485859E+02  0.62500002384E+02  0.10000008514E+02 0.  0.
    3000022    2    3    3    0    0  0.66059823513E+01  0.38438726162E+02  0.99797369188E+01  0.40259561807E+02  0.24999229085E+00 0.  0.
    1000022    2    1    0    0    0 -0.16623669368E+02 -0.58143663883E+02 -0.12215485859E+02  0.62499997616E+02  0.99999787127E+01 0.  0.
    3000022    2    5    5    0    0 -0.16885669671E+02 -0.56385869676E+02 -0.10405056771E+02  0.59773069286E+02  0.24993223163E+00 0.  0.
        -13    1    4    4    0    0  0.45233347502E+01  0.26417936338E+02  0.69057077638E+01  0.27677928794E+02  0.10500000000E+00 0. -1.
         13    1    4    4    0    0  0.20826476012E+01  0.12020789824E+02  0.30740291549E+01  0.12581633013E+02  0.10500000000E+00 0.  1.
    3000001    1    5    5    0    0  0.26200030309E+00 -0.17577942069E+01 -0.18104290884E+01  0.27269283300E+01  0.10000000000E+01 0. -1.
        -13    1    6    6    0    0 -0.12924705829E+02 -0.43202709134E+02 -0.79682487012E+01  0.45793297650E+02  0.10500000000E+00 0.  1.
         13    1    6    6    0    0 -0.39609638417E+01 -0.13183160542E+02 -0.24368080693E+01  0.13979771636E+02  0.10500000000E+00 0. -1.
</event>
<event>
11    0  0.3439373E-009  0.9118800E+02  0.7816531E-02  0.1126479E+00
         25   -1    0    0    0    0  0.00000000000E+00  0.00000000000E+00  0.99999998245E-14  0.12500000000E+03  0.12500000000E+03 0.  0.
    3000001    1    3    3    0    0  0.32759460266E+00 -0.13916054333E+00  0.57473174005E-01  0.10630084883E+01  0.10000000000E+01 0. -1.
    1000022    2    1    0    0    0  0.46559995664E+02 -0.19742308766E+02 -0.35336361929E+02  0.62500003768E+02  0.10000002247E+02 0.  0.
    3000022    2    3    3    0    0  0.46232401061E+02 -0.19603148223E+02 -0.35393835103E+02  0.61436995279E+02  0.24999502548E+00 0.  0.
    1000022    2    1    0    0    0 -0.46559995664E+02  0.19742308766E+02  0.35336361929E+02  0.62499996232E+02  0.99999551502E+01 0.  0.
    3000022    2    5    5    0    0 -0.26805296593E+02  0.15597701434E+02  0.24789912360E+02  0.39704086427E+02  0.25001748833E+00 0.  0.
        -13    1    4    4    0    0  0.26262667565E+02 -0.11068257542E+02 -0.20113270689E+02  0.34882498698E+02  0.10500000000E+00 0. -1.
         13    1    4    4    0    0  0.19969733496E+02 -0.85348906812E+01 -0.15280564414E+02  0.26554496581E+02  0.10500000000E+00 0.  1.
    3000001    1    5    5    0    0 -0.19754699071E+02  0.41446073322E+01  0.10546449569E+02  0.22795909805E+02  0.10000000000E+01 0. -1.
        -13    1    6    6    0    0 -0.17506863103E+02  0.10164440503E+02  0.16248538222E+02  0.25958276634E+02  0.10500000000E+00 0. -1.
         13    1    6    6    0    0 -0.92984334896E+01  0.54332609308E+01  0.85413741378E+01  0.13745809793E+02  0.10500000000E+00 0.  1.
</event>
<event>
11    0  0.3439373E-009  0.9118800E+02  0.7816531E-02  0.1126479E+00
         25   -1    0    0    0    0  0.00000000000E+00  0.00000000000E+00  0.99999998245E-14  0.12500000000E+03  0.12500000000E+03 0.  0.
    3000001    1    3    3    0    0  0.38283207139E+01  0.10098704175E+01 -0.23617030618E+02  0.23967478236E+02  0.10000000000E+01 0. -1.
    1000022    2    1    0    0    0  0.13324765799E+02  0.14288633524E+02 -0.58519533067E+02  0.62499999567E+02  0.99999881905E+01 0.  0.
    3000022    2    3    3    0    0  0.94964450852E+01  0.13278763106E+02 -0.34902502449E+02  0.38532521331E+02  0.25000803505E+00 0.  0.
    1000022    2    1    0    0    0 -0.13324765799E+02 -0.14288633524E+02  0.58519533067E+02  0.62500000433E+02  0.99999936078E+01 0.  0.
    3000022    2    5    5    0    0 -0.19592426293E+01 -0.23509477660E+01  0.21162850360E+01  0.37291756419E+01  0.25000307015E+00 0.  0.
        -13    1    4    4    0    0  0.41149201749E+01  0.56414614752E+01 -0.14926683294E+02  0.16479549593E+02  0.10500000000E+00 0.  1.
         13    1    4    4    0    0  0.53815249103E+01  0.76373016311E+01 -0.19975819155E+02  0.22052971738E+02  0.10500000000E+00 0. -1.
    3000001    1    5    5    0    0 -0.11365523170E+02 -0.11937685758E+02  0.56403248031E+02  0.58770824792E+02  0.10000000000E+01 0.  1.
        -13    1    6    6    0    0 -0.10713230762E+01 -0.13807224402E+01  0.11776764199E+01  0.21099939196E+01  0.10500000000E+00 0.  1.
         13    1    6    6    0    0 -0.88791955310E+00 -0.97022532578E+00  0.93860861610E+00  0.16191817223E+01  0.10500000000E+00 0. -1.
</event>
<event>
11    0  0.3439373E-009  0.9118800E+02  0.7816531E-02  0.1126479E+00
         25   -1    0    0    0    0  0.00000000000E+00  0.00000000000E+00  0.99999998245E-14  0.12500000000E+03  0.12500000000E+03 0.  0.
    3000001    1    3    3    0    0 -0.19186630054E+02 -0.31777487511E+02  0.10985250000E+02  0.38724813789E+02  0.10000000000E+01 0. -1.
    1000022    2    1    0    0    0 -0.36939452570E+02 -0.47017658643E+02  0.15200873962E+02  0.62500000546E+02  0.10000005926E+02 0.  0.
    3000022    2    3    3    0    0 -0.17752822516E+02 -0.15240171132E+02  0.42156239617E+01  0.23775186757E+02  0.24999309470E+00 0.  0.
    1000022    2    1    0    0    0  0.36939452570E+02  0.47017658643E+02 -0.15200873962E+02  0.62499999454E+02  0.99999991057E+01 0.  0.
    3000022    2    5    5    0    0  0.13317172646E+02  0.14417147419E+02 -0.51731714464E+00  0.19634952135E+02  0.25000264909E+00 0.  0.
        -13    1    4    4    0    0 -0.10101451450E+02 -0.86682401985E+01  0.24648631464E+01  0.13537513984E+02  0.10500000000E+00 0.  1.
         13    1    4    4    0    0 -0.76513710660E+01 -0.65719309332E+01  0.17507608153E+01  0.10237672773E+02  0.10500000000E+00 0. -1.
    3000001    1    5    5    0    0  0.23622279924E+02  0.32600511224E+02 -0.14683556818E+02  0.42865047319E+02  0.10000000000E+01 0.  1.
        -13    1    6    6    0    0  0.96290399131E+01  0.10420893741E+02 -0.33535825509E+00  0.14192847712E+02  0.10500000000E+00 0. -1.
         13    1    6    6    0    0  0.36881327330E+01  0.39962536782E+01 -0.18195888954E+00  0.54421044233E+01  0.10500000000E+00 0.  1.
</event>
<event>
11    0  0.3439373E-009  0.9118800E+02  0.7816531E-02  0.1126479E+00
         25   -1    0    0    0    0  0.00000000000E+00  0.00000000000E+00  0.99999998245E-14  0.12500000000E+03  0.12500000000E+03 0.  0.
    3000001    1    3    3    0    0  0.72527631697E+01  0.38358386739E+02 -0.28927537556E+02  0.48598053828E+02  0.10000000000E+01 0. -1.
    1000022    2    1    0    0    0  0.13928827360E+02  0.46750105537E+02 -0.37771225022E+02  0.62499999106E+02  0.99999924663E+01 0.  0.
    3000022    2    3    3    0    0  0.66760641903E+01  0.83917187981E+01 -0.88436874652E+01  0.13901945278E+02  0.24999415921E+00 0.  0.
    1000022    2    1    0    0    0 -0.13928827360E+02 -0.46750105537E+02  0.37771225022E+02  0.62500000894E+02  0.10000003639E+02 0.  0.
    3000022    2    5    5    0    0 -0.52303972281E+01 -0.53811392996E+01  0.58773721771E+01  0.95351832923E+01  0.25000277085E+00 0.  0.
        -13    1    4    4    0    0  0.38774468883E+01  0.49691718681E+01 -0.51657225194E+01  0.81500292990E+01  0.10500000000E+00 0. -1.
         13    1    4    4    0    0  0.27986173020E+01  0.34225469300E+01 -0.36779649458E+01  0.57519159794E+01  0.10500000000E+00 0.  1.
    3000001    1    5    5    0    0 -0.86984301319E+01 -0.41368966237E+02  0.31893852845E+02  0.52964817601E+02  0.10000000000E+01 0. -1.
        -13    1    6    6    0    0 -0.36222342497E+01 -0.37842794980E+01  0.41308046380E+01  0.66720254972E+01  0.10500000000E+00 0. -1.
         13    1    6    6    0    0 -0.16081629784E+01 -0.15968598016E+01  0.17465675390E+01  0.28631577951E+01  0.10500000000E+00 0.  1.
</event>
<event>
11    0  0.3439373E-009  0.9118800E+02  0.7816531E-02  0.1126479E+00
         25   -1    0    0    0    0  0.00000000000E+00  0.00000000000E+00  0.99999998245E-14  0.12500000000E+03  0.12500000000E+03 0.  0.
    3000001    1    3    3    0    0 -0.37971991520E+02  0.68554010018E+01  0.10339178577E+02  0.39959570525E+02  0.10000000000E+01 0. -1.
    1000022    2    1    0    0    0 -0.58892713972E+02  0.35328387276E+01  0.18039331170E+02  0.62499998893E+02  0.99999842059E+01 0.  0.
    3000022    2    3    3    0    0 -0.20920722452E+02 -0.33225622742E+01  0.77001525926E+01  0.22540428368E+02  0.25002617495E+00 0.  0.
    1000022    2    1    0    0    0  0.58892713972E+02 -0.35328387276E+01 -0.18039331170E+02  0.62500001107E+02  0.99999980484E+01 0.  0.
    3000022    2    5    5    0    0  0.58328655391E+02 -0.30766941928E+01 -0.16866890811E+02  0.60796814003E+02  0.25000069344E+00 0.  0.
        -13    1    4    4    0    0 -0.13089999826E+02 -0.20296061847E+01  0.47773825339E+01  0.14081967390E+02  0.10500000000E+00 0.  1.
         13    1    4    4    0    0 -0.78307226255E+01 -0.12929560895E+01  0.29227700587E+01  0.84584609772E+01  0.10500000000E+00 0. -1.
    3000001    1    5    5    0    0  0.56405858025E+00 -0.45614453483E+00 -0.11724403588E+01  0.17031871047E+01  0.10000000000E+01 0. -1.
        -13    1    6    6    0    0  0.33104101918E+02 -0.17947473833E+01 -0.95273415756E+01  0.34494694439E+02  0.10500000000E+00 0.  1.
         13    1    6    6    0    0  0.25224553474E+02 -0.12819468094E+01 -0.73395492354E+01  0.26302119564E+02  0.10500000000E+00 0. -1.
</event>
<event>
11    0  0.3439373E-009  0.9118800E+02  0.7816531E-02  0.1126479E+00
         25   -1    0    0    0    0  0.00000000000E+00  0.00000000000E+00  0.99999998245E-14  0.12500000000E+03  0.12500000000E+03 0.  0.
    3000001    1    3    3    0    0 -0.21606494181E+02 -0.40784584954E+02 -0.23613505554E+02  0.51853838867E+02  0.10000000000E+01 0. -1.
    1000022    2    1    0    0    0 -0.24944836028E+02 -0.50856302290E+02 -0.24446709253E+02  0.62500000003E+02  0.10000004004E+02 0.  0.
    3000022    2    3    3    0    0 -0.33383418464E+01 -0.10071717336E+02 -0.83320369898E+00  0.10646161137E+02  0.25000432860E+00 0.  0.
    1000022    2    1    0    0    0  0.24944836028E+02  0.50856302290E+02  0.24446709253E+02  0.62499999997E+02  0.10000003963E+02 0.  0.
    3000022    2    5    5    0    0 -0.43791241020E-01  0.72160071916E+01  0.32358083001E+01  0.79123716524E+01  0.24998469678E+00 0.  0.
        -13    1    4    4    0    0 -0.17253167975E+01 -0.49917460896E+01 -0.42410851677E+00  0.52995414999E+01  0.10500000000E+00 0.  1.
         13    1    4    4    0    0 -0.16130250489E+01 -0.50799712463E+01 -0.40909518221E+00  0.53466196367E+01  0.10500000000E+00 0. -1.
    3000001    1    5    5    0    0  0.24988627269E+02  0.43640295098E+02  0.21210900953E+02  0.54587628344E+02  0.10000000000E+01 0. -1.
        -13    1    6    6    0    0 -0.51649323639E-01  0.46089786635E+01  0.21246459723E+01  0.50764650576E+01  0.10500000000E+00 0.  1.
         13    1    6    6    0    0  0.78580826182E-02  0.26070285280E+01  0.11111623278E+01  0.28359065947E+01  0.10500000000E+00 0. -1.
</event>
<event>
11    0  0.3439373E-009  0.9118800E+02  0.7816531E-02  0.1126479E+00
         25   -1    0    0    0    0  0.00000000000E+00  0.00000000000E+00  0.99999998245E-14  0.12500000000E+03  0.12500000000E+03 0.  0.
    3000001    1    3    3    0    0 -0.29435897641E+01 -0.22271577813E+01  0.29551303912E+01  0.48329854243E+01  0.10000000000E+01 0. -1.
    1000022    2    1    0    0    0 -0.25780239065E+02 -0.52362658800E+02  0.19994529675E+02  0.62500000647E+02  0.10000005056E+02 0.  0.
    3000022    2    3    3    0    0 -0.22836649301E+02 -0.50135501019E+02  0.17039399283E+02  0.57667015223E+02  0.25000615085E+00 0.  0.
    1000022    2    1    0    0    0  0.25780239065E+02  0.52362658800E+02 -0.19994529675E+02  0.62499999353E+02  0.99999969653E+01 0.  0.
    3000022    2    5    5    0    0  0.24470104930E+02  0.41844887755E+02 -0.17728857254E+02  0.51615458447E+02  0.25000927785E+00 0.  0.
        -13    1    4    4    0    0 -0.17029748614E+02 -0.37453858626E+02  0.12719989303E+02  0.43065218177E+02  0.10500000000E+00 0.  1.
         13    1    4    4    0    0 -0.58069006876E+01 -0.12681642393E+02  0.43194099807E+01  0.14601797046E+02  0.10500000000E+00 0. -1.
    3000001    1    5    5    0    0  0.13101341351E+01  0.10517771045E+02 -0.22656724202E+01  0.10884540906E+02  0.10000000000E+01 0.  1.
        -13    1    6    6    0    0  0.14382418215E+02  0.24689725216E+02 -0.10405161289E+02  0.30409125134E+02  0.10500000000E+00 0.  1.
         13    1    6    6    0    0  0.10087686715E+02  0.17155162539E+02 -0.73236959649E+01  0.21206333313E+02  0.10500000000E+00 0. -1.
</event>
<event>
11    0  0.3439373E-009  0.9118800E+02  0.7816531E-02  0.1126479E+00
         25   -1    0    0    0    0  0.00000000000E+00  0.00000000000E+00  0.99999998245E-14  0.12500000000E+03  0.12500000000E+03 0.  0.
    3000001    1    3    3    0    0  0.46548778509E+00 -0.77824791823E-01 -0.13184927347E+01  0.17208017514E+01  0.10000000000E+01 0.  1.
    1000022    2    1    0    0    0 -0.11981045998E+02 -0.40308403804E+02 -0.45143516426E+02  0.62499999604E+02  0.99999997363E+01 0.  0.
    3000022    2    3    3    0    0 -0.12446533783E+02 -0.40230579012E+02 -0.43825023692E+02  0.60779197853E+02  0.24999830878E+00 0.  0.
    1000022    2    1    0    0    0  0.11981045998E+02  0.40308403804E+02  0.45143516426E+02  0.62500000396E+02  0.10000004687E+02 0.  0.
    3000022    2    5    5    0    0  0.10629609254E+02  0.22461777851E+02  0.30576300154E+02  0.39401683810E+02  0.24999768249E+00 0.  0.
        -13    1    4    4    0    0 -0.72163154576E+01 -0.23138421367E+02 -0.25273372458E+02  0.35017369012E+02  0.10500000000E+00 0. -1.
         13    1    4    4    0    0 -0.52302183255E+01 -0.17092157646E+02 -0.18551651234E+02  0.25761828841E+02  0.10500000000E+00 0.  1.
    3000001    1    5    5    0    0  0.13514367436E+01  0.17846625953E+02  0.14567216272E+02  0.23098316586E+02  0.10000000000E+01 0.  1.
        -13    1    6    6    0    0  0.53043646908E+01  0.11267724477E+02  0.15423455326E+02  0.19824023276E+02  0.10500000000E+00 0. -1.
         13    1    6    6    0    0  0.53252445636E+01  0.11194053374E+02  0.15152844828E+02  0.19577660534E+02  0.10500000000E+00 0.  1.
</event>
<event>
11    0  0.3439373E-009  0.9118800E+02  0.7816531E-02  0.1126479E+00
         25   -1    0    0    0    0  0.00000000000E+00  0.00000000000E+00  0.99999998245E-14  0.12500000000E+03  0.12500000000E+03 0.  0.
    3000001    1    3    3    0    0  0.44062861785E+02  0.16734031379E+02  0.15153719499E+02  0.49519681032E+02  0.10000000000E+01 0.  1.
    1000022    2    1    0    0    0  0.56990519318E+02  0.17812849823E+02  0.15525238366E+02  0.62500000918E+02  0.10000008874E+02 0.  0.
    3000022    2    3    3    0    0  0.12927657533E+02  0.10788184444E+01  0.37151886698E+00  0.12980319886E+02  0.24999909123E+00 0.  0.
    1000022    2    1    0    0    0 -0.56990519318E+02 -0.17812849823E+02 -0.15525238366E+02  0.62499999082E+02  0.99999973955E+01 0.  0.
    3000022    2    5    5    0    0 -0.12303681810E+02 -0.54802557274E+00 -0.57601190369E+01  0.13598617114E+02  0.24999594320E+00 0.  0.
        -13    1    4    4    0    0  0.59036035141E+01  0.55684846057E+00  0.18964766431E+00  0.59337682712E+01  0.10500000000E+00 0.  1.
         13    1    4    4    0    0  0.70240540192E+01  0.52196998382E+00  0.18187120267E+00  0.70465516150E+01  0.10500000000E+00 0. -1.
    3000001    1    5    5    0    0 -0.44686837508E+02 -0.17264824250E+02 -0.97651193291E+01  0.48901381968E+02  0.10000000000E+01 0.  1.
        -13    1    6    6    0    0 -0.40315265207E+01 -0.12724452769E+00 -0.18837037190E+01  0.44529498041E+01  0.10500000000E+00 0. -1.
         13    1    6    6    0    0 -0.82721552893E+01 -0.42078104504E+00 -0.38764153179E+01  0.91456673094E+01  0.10500000000E+00 0.  1.
</event>
<event>
11    0  0.3439373E-009  0.9118800E+02  0.7816531E-02  0.1126479E+00
         25   -1    0    0    0    0  0.00000000000E+00  0.00000000000E+00  0.99999998245E-14  0.12500000000E+03  0.12500000000E+03 0.  0.
    3000001    1    3    3    0    0  0.25810290525E+02 -0.98077329475E+01 -0.10742627057E+02  0.29644000382E+02  0.10000000000E+01 0. -1.
    1000022    2    1    0    0    0  0.51450420838E+02 -0.14757373378E+02 -0.30681006535E+02  0.62499999810E+02  0.99999970416E+01 0.  0.
    3000022    2    3    3    0    0  0.25640130313E+02 -0.49496404309E+01 -0.19938379478E+02  0.32855999429E+02  0.24999871338E+00 0.  0.
    1000022    2    1    0    0    0 -0.51450420838E+02  0.14757373378E+02  0.30681006535E+02  0.62500000190E+02  0.99999994115E+01 0.  0.
    3000022    2    5    5    0    0 -0.36306282784E+02  0.14958712531E+02  0.21757211214E+02  0.44892627365E+02  0.25000344632E+00 0.  0.
        -13    1    4    4    0    0  0.90104779485E+01 -0.17481657003E+01 -0.70788870690E+01  0.11591654900E+02  0.10500000000E+00 0.  1.
         13    1    4    4    0    0  0.16629652365E+02 -0.32014747306E+01 -0.12859492409E+02  0.21264344529E+02  0.10500000000E+00 0. -1.
    3000001    1    5    5    0    0 -0.15144138054E+02 -0.20133915259E+00  0.89237953212E+01  0.17607372825E+02  0.10000000000E+01 0. -1.
        -13    1    6    6    0    0 -0.11194446473E+02  0.46493714005E+01  0.66779365761E+01  0.13839730784E+02  0.10500000000E+00 0.  1.
         13    1    6    6    0    0 -0.25111836311E+02  0.10309341131E+02  0.15079274638E+02  0.31052896581E+02  0.10500000000E+00 0. -1.
</event>
<event>
11    0  0.3439373E-009  0.9118800E+02  0.7816531E-02  0.1126479E+00
         25   -1    0    0    0    0  0.00000000000E+00  0.00000000000E+00  0.99999998245E-14  0.12500000000E+03  0.12500000000E+03 0.  0.
    3000001    1    3    3    0    0 -0.18312218064E+02  0.58259253499E+02 -0.61877079257E+01  0.61390273481E+02  0.10000000000E+01 0. -1.
    1000022    2    1    0    0    0 -0.18143070547E+02  0.58522756468E+02 -0.72225800944E+01  0.62500001763E+02  0.10000026184E+02 0.  0.
    3000022    2    3    3    0    0  0.16914751691E+00  0.26350296958E+00 -0.10348721687E+01  0.11097282828E+01  0.24998351652E+00 0.  0.
    1000022    2    1    0    0    0  0.18143070547E+02 -0.58522756468E+02  0.72225800944E+01  0.62499998237E+02  0.10000004141E+02 0.  0.
    3000022    2    5    5    0    0 -0.10604200914E+01 -0.70104766862E+01  0.65841211709E+00  0.71251183515E+01  0.25006173067E+00 0.  0.
        -13    1    4    4    0    0  0.15507970576E+00  0.15557128381E+00 -0.54194506679E+00  0.59412254199E+00  0.10500000000E+00 0. -1.
         13    1    4    4    0    0  0.14067811148E-01  0.10793168577E+00 -0.49292710195E+00  0.51560574079E+00  0.10500000000E+00 0.  1.
    3000001    1    5    5    0    0  0.19203490638E+02 -0.51512279782E+02  0.65641679773E+01  0.55374879885E+02  0.10000000000E+01 0. -1.
        -13    1    6    6    0    0 -0.65389261611E+00 -0.42839744234E+01  0.34041349717E+00  0.43482086844E+01  0.10500000000E+00 0.  1.
         13    1    6    6    0    0 -0.40652747524E+00 -0.27265022628E+01  0.31799861992E+00  0.27769096671E+01  0.10500000000E+00 0. -1.
</event>
<event>
11    0  0.3439373E-009  0.9118800E+02  0.7816531E-02  0.1126479E+00
         25   -1    0    0    0    0  0.00000000000E+00  0.00000000000E+00  0.99999998245E-14  0.12500000000E+03  0.12500000000E+03 0.  0.
    3000001    1    3    3    0    0  0.16904842698E+02 -0.26268862998E+02  0.28949153527E+02  0.42601412650E+02  0.10000000000E+01 0. -1.
    1000022    2    1    0    0    0  0.18278799827E+02 -0.38874115202E+02  0.44282488121E+02  0.62500000410E+02  0.99999970594E+01 0.  0.
    3000022    2    3    3    0    0  0.13739571295E+01 -0.12605252204E+02  0.15333334594E+02  0.19898587760E+02  0.25000749494E+00 0.  0.
    1000022    2    1    0    0    0 -0.18278799827E+02  0.38874115202E+02 -0.44282488121E+02  0.62499999590E+02  0.99999919375E+01 0.  0.
    3000022    2    5    5    0    0 -0.41819892375E+01  0.12659838419E+02 -0.79625301256E+01  0.15531417274E+02  0.24998749434E+00 0.  0.
        -13    1    4    4    0    0  0.94302501408E+00 -0.85801343362E+01  0.10515473021E+02  0.13604932902E+02  0.10500000000E+00 0.  1.
         13    1    4    4    0    0  0.43093211538E+00 -0.40251178678E+01  0.48178615729E+01  0.62936548581E+01  0.10500000000E+00 0. -1.
    3000001    1    5    5    0    0 -0.14096810590E+02  0.26214276783E+02 -0.36319957995E+02  0.46968582316E+02  0.10000000000E+01 0.  1.
        -13    1    6    6    0    0 -0.26227031438E+01  0.78277161739E+01 -0.48718881466E+01  0.95863460918E+01  0.10500000000E+00 0.  1.
         13    1    6    6    0    0 -0.15592860937E+01  0.48321222453E+01 -0.30906419790E+01  0.59450711819E+01  0.10500000000E+00 0. -1.
</event>
<event>
11    0  0.3439373E-009  0.9118800E+02  0.7816531E-02  0.1126479E+00
         25   -1    0    0    0    0  0.00000000000E+00  0.00000000000E+00  0.99999998245E-14  0.12500000000E+03  0.12500000000E+03 0.  0.
    3000001    1    3    3    0    0 -0.11737782929E+02 -0.62771068670E+00 -0.11702936800E+02  0.16617108610E+02  0.10000000000E+01 0.  1.
    1000022    2    1    0    0    0 -0.32199431749E+02 -0.10460201734E+02 -0.51575488058E+02  0.62500000850E+02  0.99999956264E+01 0.  0.
    3000022    2    3    3    0    0 -0.20461648819E+02 -0.98324910470E+01 -0.39872551258E+02  0.45882892240E+02  0.25000775129E+00 0.  0.
    1000022    2    1    0    0    0  0.32199431749E+02  0.10460201734E+02  0.51575488058E+02  0.62499999150E+02  0.99999850064E+01 0.  0.
    3000022    2    5    5    0    0  0.65055800867E+01 -0.18827584064E+01  0.96199439878E+01  0.11767461697E+02  0.24996195123E+00 0.  0.
        -13    1    4    4    0    0 -0.63147933387E+01 -0.30723452354E+01 -0.12266115009E+02  0.14134515293E+02  0.10500000000E+00 0. -1.
         13    1    4    4    0    0 -0.14146855481E+02 -0.67601458116E+01 -0.27606436249E+02  0.31748376947E+02  0.10500000000E+00 0.  1.
    3000001    1    5    5    0    0  0.25693851662E+02  0.12342960140E+02  0.41955544070E+02  0.50732537454E+02  0.10000000000E+01 0. -1.
        -13    1    6    6    0    0  0.37525365620E+01 -0.11010098963E+01  0.56638691580E+01  0.68836176738E+01  0.10500000000E+00 0. -1.
         13    1    6    6    0    0  0.27530435247E+01 -0.78174851007E+00  0.39560748298E+01  0.48838440230E+01  0.10500000000E+00 0.  1.
</event>
<event>
11    0  0.3439373E-009  0.9118800E+02  0.7816531E-02  0.1126479E+00
         25   -1    0    0    0    0  0.00000000000E+00  0.00000000000E+00  0.99999998245E-14  0.12500000000E+03  0.12500000000E+03 0.  0.
    3000001    1    3    3    0    0 -0.27436666249E+01 -0.34650102366E+02 -0.45628519342E+02  0.57368275884E+02  0.10000000000E+01 0.  1.
    1000022    2    1    0    0    0 -0.12298698174E+01 -0.35484346033E+02 -0.50453924236E+02  0.62499999077E+02  0.10000001035E+02 0.  0.
    3000022    2    3    3    0    0  0.15137968075E+01 -0.83424366669E+00 -0.48254048943E+01  0.51317231937E+01  0.25001454711E+00 0.  0.
    1000022    2    1    0    0    0  0.12298698174E+01  0.35484346033E+02  0.50453924236E+02  0.62500000923E+02  0.10000012567E+02 0.  0.
    3000022    2    5    5    0    0  0.11088399175E+01  0.59453235216E+00  0.51617543271E+01  0.53187592258E+01  0.24999457746E+00 0.  0.
        -13    1    4    4    0    0  0.80870878296E+00 -0.37814125422E+00 -0.23883659169E+01  0.25519242655E+01  0.10500000000E+00 0. -1.
         13    1    4    4    0    0  0.70508802453E+00 -0.45610241247E+00 -0.24370389774E+01  0.25797989283E+01  0.10500000000E+00 0.  1.
    3000001    1    5    5    0    0  0.12102989990E+00  0.34889813681E+02  0.45292169909E+02  0.57181241697E+02  0.10000000000E+01 0.  1.
        -13    1    6    6    0    0  0.64336395111E+00  0.41529734098E+00  0.30750559516E+01  0.31707070442E+01  0.10500000000E+00 0.  1.
         13    1    6    6    0    0  0.46547596638E+00  0.17923501118E+00  0.20866983755E+01  0.21480521816E+01  0.10500000000E+00 0. -1.
</event>
<event>
11    0  0.3439373E-009  0.9118800E+02  0.7816531E-02  0.1126479E+00
         25   -1    0    0    0    0  0.00000000000E+00  0.00000000000E+00  0.99999998245E-14  0.12500000000E+03  0.12500000000E+03 0.  0.
    3000001    1    3    3    0    0  0.16024569570E+01 -0.20689153121E+01  0.96008669981E+00  0.29614262339E+01  0.10000000000E+01 0. -1.
    1000022    2    1    0    0    0  0.43211388026E+02 -0.11928968285E+02  0.42387800687E+02  0.62500000096E+02  0.10000001272E+02 0.  0.
    3000022    2    3    3    0    0  0.41608931069E+02 -0.98600529726E+01  0.41427713987E+02  0.59538573862E+02  0.25000397850E+00 0.  0.
    1000022    2    1    0    0    0 -0.43211388026E+02  0.11928968285E+02 -0.42387800687E+02  0.62499999904E+02  0.10000000070E+02 0.  0.
    3000022    2    5    5    0    0 -0.60648855777E+01 -0.17265778221E+01 -0.50802646937E+01  0.81015732213E+01  0.24998250997E+00 0.  0.
        -13    1    4    4    0    0  0.20525387466E+02 -0.48220901584E+01  0.20351134184E+02  0.29303989006E+02  0.10500000000E+00 0.  1.
         13    1    4    4    0    0  0.21083543604E+02 -0.50379628142E+01  0.21076579803E+02  0.30234584856E+02  0.10500000000E+00 0. -1.
    3000001    1    5    5    0    0 -0.37146502448E+02  0.13655546107E+02 -0.37307535993E+02  0.54398426683E+02  0.10000000000E+01 0.  1.
        -13    1    6    6    0    0 -0.44537891027E+01 -0.12720074329E+01 -0.37732989719E+01  0.59752029599E+01  0.10500000000E+00 0.  1.
         13    1    6    6    0    0 -0.16110964750E+01 -0.45457038918E+00 -0.13069657218E+01  0.21263702614E+01  0.10500000000E+00 0. -1.
</event>
<event>
11    0  0.3439373E-009  0.9118800E+02  0.7816531E-02  0.1126479E+00
         25   -1    0    0    0    0  0.00000000000E+00  0.00000000000E+00  0.99999998245E-14  0.12500000000E+03  0.12500000000E+03 0.  0.
    3000001    1    3    3    0    0 -0.90416842482E+01  0.22926281191E+02 -0.36865286843E+00  0.24667839959E+02  0.10000000000E+01 0. -1.
    1000022    2    1    0    0    0 -0.13439392417E+02  0.59609345130E+02 -0.85064021943E+01  0.62500001995E+02  0.10000003787E+02 0.  0.
    3000022    2    3    3    0    0 -0.43977081689E+01  0.36683063939E+02 -0.81377493258E+01  0.37832162036E+02  0.25000633330E+00 0.  0.
    1000022    2    1    0    0    0  0.13439392417E+02 -0.59609345130E+02  0.85064021943E+01  0.62499998005E+02  0.99999788446E+01 0.  0.
    3000022    2    5    5    0    0  0.39703207681E+01 -0.10799882348E+02 -0.19760318473E+01  0.11677676153E+02  0.25002546651E+00 0.  0.
        -13    1    4    4    0    0 -0.29126838761E+01  0.24704488055E+02 -0.54597032577E+01  0.25467917898E+02  0.10500000000E+00 0. -1.
         13    1    4    4    0    0 -0.14850242928E+01  0.11978575884E+02 -0.26780460682E+01  0.12364244138E+02  0.10500000000E+00 0.  1.
    3000001    1    5    5    0    0  0.94690716490E+01 -0.48809462782E+02  0.10482434042E+02  0.50822321852E+02  0.10000000000E+01 0. -1.
        -13    1    6    6    0    0  0.26569361652E+01 -0.72760910974E+01 -0.12798909000E+01  0.78517486689E+01  0.10500000000E+00 0. -1.
         13    1    6    6    0    0  0.13133846029E+01 -0.35237912506E+01 -0.69614094725E+00  0.38259274838E+01  0.10500000000E+00 0.  1.
</event>
<event>
11    0  0.3439373E-009  0.9118800E+02  0.7816531E-02  0.1126479E+00
         25   -1    0    0    0    0  0.00000000000E+00  0.00000000000E+00  0.99999998245E-14  0.12500000000E+03  0.12500000000E+03 0.  0.
    3000001    1    3    3    0    0 -0.53587722248E+01  0.15947211409E+00  0.12872355043E+02  0.13979964072E+02  0.10000000000E+01 0. -1.
    1000022    2    1    0    0    0 -0.16359817067E+02  0.17240844889E+02  0.56932939827E+02  0.62500000242E+02  0.10000002295E+02 0.  0.
    3000022    2    3    3    0    0 -0.11001044842E+02  0.17081372775E+02  0.44060584784E+02  0.48520036169E+02  0.24998971700E+00 0.  0.
    1000022    2    1    0    0    0  0.16359817067E+02 -0.17240844889E+02 -0.56932939827E+02  0.62499999758E+02  0.99999992735E+01 0.  0.
    3000022    2    5    5    0    0  0.11908892174E+02 -0.11604851696E+02 -0.27076247763E+02  0.31775462126E+02  0.25000948511E+00 0.  0.
        -13    1    4    4    0    0 -0.79744867727E+01  0.12449824575E+02  0.32069034454E+02  0.35313235013E+02  0.10500000000E+00 0. -1.
         13    1    4    4    0    0 -0.30265580696E+01  0.46315482001E+01  0.11991550330E+02  0.13206801157E+02  0.10500000000E+00 0.  1.
    3000001    1    5    5    0    0  0.44509248935E+01 -0.56359931938E+01 -0.29856692064E+02  0.30724537632E+02  0.10000000000E+01 0.  1.
        -13    1    6    6    0    0  0.62851483443E+01 -0.61639231494E+01 -0.14451548280E+02  0.16922036254E+02  0.10500000000E+00 0. -1.
         13    1    6    6    0    0  0.56237438293E+01 -0.54409285462E+01 -0.12624699483E+02  0.14853425872E+02  0.10500000000E+00 0.  1.
</event>
<event>
11    0  0.3439373E-009  0.9118800E+02  0.7816531E-02  0.1126479E+00
         25   -1    0    0    0    0  0.00000000000E+00  0.00000000000E+00  0.99999998245E-14  0.12500000000E+03  0.12500000000E+03 0.  0.
    3000001    1    3    3    0    0  0.34500755936E+02 -0.10370074912E+02  0.29956094072E+02  0.46863719292E+02  0.10000000000E+01 0. -1.
    1000022    2    1    0    0    0  0.46601863206E+02 -0.18085217912E+02  0.36158556814E+02  0.62499999943E+02  0.10000000043E+02 0.  0.
    3000022    2    3    3    0    0  0.12101107269E+02 -0.77151429996E+01  0.62024627419E+01  0.15636280651E+02  0.24999974725E+00 0.  0.
    1000022    2    1    0    0    0 -0.46601863206E+02  0.18085217912E+02 -0.36158556814E+02  0.62500000057E+02  0.10000000758E+02 0.  0.
    3000022    2    5    5    0    0 -0.22626755286E+02  0.12086973478E+02 -0.23142482353E+02  0.34549992358E+02  0.24999965979E+00 0.  0.
        -13    1    4    4    0    0  0.59716320700E+01 -0.37301103014E+01  0.30636330367E+01  0.76792567885E+01  0.10500000000E+00 0.  1.
         13    1    4    4    0    0  0.61294751992E+01 -0.39850326982E+01  0.31388297051E+01  0.79570238620E+01  0.10500000000E+00 0. -1.
    3000001    1    5    5    0    0 -0.23975107919E+02  0.59982444340E+01 -0.13016074460E+02  0.27950007699E+02  0.10000000000E+01 0.  1.
        -13    1    6    6    0    0 -0.90327447727E+01  0.48280858328E+01 -0.93248177223E+01  0.13851503221E+02  0.10500000000E+00 0. -1.
         13    1    6    6    0    0 -0.13594010514E+02  0.72588876448E+01 -0.13817664631E+02  0.20698489137E+02  0.10500000000E+00 0.  1.
</event>
<event>
11    0  0.3439373E-009  0.9118800E+02  0.7816531E-02  0.1126479E+00
         25   -1    0    0    0    0  0.00000000000E+00  0.00000000000E+00  0.99999998245E-14  0.12500000000E+03  0.12500000000E+03 0.  0.
    3000001    1    3    3    0    0  0.10210350826E+02  0.70974300209E+01 -0.49922681196E+01  0.13436797158E+02  0.10000000000E+01 0. -1.
    1000022    2    1    0    0    0  0.54217143853E+02  0.15698207484E+02 -0.24906181937E+02  0.62499997902E+02  0.99999716602E+01 0.  0.
    3000022    2    3    3    0    0  0.44006793027E+02  0.86007774629E+01 -0.19913913817E+02  0.49063200743E+02  0.24999630924E+00 0.  0.
    1000022    2    1    0    0    0 -0.54217143853E+02 -0.15698207484E+02  0.24906181937E+02  0.62500002098E+02  0.99999978897E+01 0.  0.
    3000022    2    5    5    0    0 -0.42370638255E+02 -0.12140882721E+02  0.23667632475E+02  0.50028905148E+02  0.25000798671E+00 0.  0.
        -13    1    4    4    0    0  0.19183074370E+02  0.37257093677E+01 -0.87462993507E+01  0.21409811534E+02  0.10500000000E+00 0. -1.
         13    1    4    4    0    0  0.24823718657E+02  0.48750680952E+01 -0.11167614467E+02  0.27653389210E+02  0.10500000000E+00 0.  1.
    3000001    1    5    5    0    0 -0.11846505599E+02 -0.35573247630E+01  0.12385494615E+01  0.12471096950E+02  0.10000000000E+01 0.  1.
        -13    1    6    6    0    0 -0.19511837204E+02 -0.56602776883E+01  0.10900502256E+02  0.23056073148E+02  0.10500000000E+00 0. -1.
         13    1    6    6    0    0 -0.22858801051E+02 -0.64806050325E+01  0.12767130219E+02  0.26972832000E+02  0.10500000000E+00 0.  1.
</event>
<event>
11    0  0.3439373E-009  0.9118800E+02  0.7816531E-02  0.1126479E+00
         25   -1    0    0    0    0  0.00000000000E+00  0.00000000000E+00  0.99999998245E-14  0.12500000000E+03  0.12500000000E+03 0.  0.
    3000001    1    3    3    0    0  0.21384761769E+01  0.64712652179E+01  0.43455402276E+02  0.43997981100E+02  0.10000000000E+01 0. -1.
    1000022    2    1    0    0    0 -0.30245489813E+01  0.71083441617E+01  0.61209259885E+02  0.62500000368E+02  0.10000004854E+02 0.  0.
    3000022    2    3    3    0    0 -0.51630251583E+01  0.63707894382E+00  0.17753857609E+02  0.18502019268E+02  0.25011725357E+00 0.  0.
    1000022    2    1    0    0    0  0.30245489813E+01 -0.71083441617E+01 -0.61209259885E+02  0.62499999632E+02  0.10000000253E+02 0.  0.
    3000022    2    5    5    0    0  0.23184689712E+01 -0.32362519389E+00 -0.26846018170E+01  0.35706643021E+01  0.25005000598E+00 0.  0.
        -13    1    4    4    0    0 -0.19567472181E+01  0.18563375441E+00  0.67981608669E+01  0.70773819834E+01  0.10500000000E+00 0.  1.
         13    1    4    4    0    0 -0.32062779402E+01  0.45144518940E+00  0.10955696742E+02  0.11424637285E+02  0.10500000000E+00 0. -1.
    3000001    1    5    5    0    0  0.70608001012E+00 -0.67847189678E+01 -0.58524658068E+02  0.58929335330E+02  0.10000000000E+01 0.  1.
        -13    1    6    6    0    0  0.15020341745E+01 -0.26289037503E+00 -0.17121054606E+01  0.22951139664E+01  0.10500000000E+00 0.  1.
         13    1    6    6    0    0  0.81643479672E+00 -0.60734818855E-01 -0.97249635641E+00  0.12755503356E+01  0.10500000000E+00 0. -1.
</event>
<event>
11    0  0.3439373E-009  0.9118800E+02  0.7816531E-02  0.1126479E+00
         25   -1    0    0    0    0  0.00000000000E+00  0.00000000000E+00  0.99999998245E-14  0.12500000000E+03  0.12500000000E+03 0.  0.
    3000001    1    3    3    0    0  0.56483440451E+02  0.24926221281E+02 -0.46640278998E+00  0.61748790143E+02  0.10000000000E+01 0.  1.
    1000022    2    1    0    0    0  0.56154249868E+02  0.25549782827E+02 -0.39844915965E+00  0.62500000248E+02  0.10000004429E+02 0.  0.
    3000022    2    3    3    0    0 -0.32919058334E+00  0.62356154597E+00  0.67953630337E-01  0.75121010534E+00  0.25000696934E+00 0.  0.
    1000022    2    1    0    0    0 -0.56154249868E+02 -0.25549782827E+02  0.39844915965E+00  0.62499999752E+02  0.10000001330E+02 0.  0.
    3000022    2    5    5    0    0 -0.32369080907E+02 -0.13312862811E+02  0.49488902754E+01  0.35348885810E+02  0.24999610718E+00 0.  0.
        -13    1    4    4    0    0 -0.19787968465E+00  0.43000015946E+00 -0.41813061797E-02  0.48487007543E+00  0.10500000000E+00 0.  1.
         13    1    4    4    0    0 -0.13131089870E+00  0.19356138651E+00  0.72134936517E-01  0.26634002991E+00  0.10500000000E+00 0. -1.
    3000001    1    5    5    0    0 -0.23785168960E+02 -0.12236920016E+02 -0.45504411157E+01  0.27151113942E+02  0.10000000000E+01 0.  1.
        -13    1    6    6    0    0 -0.94301703288E+01 -0.38944919751E+01  0.14014973897E+01  0.10299048505E+02  0.10500000000E+00 0.  1.
         13    1    6    6    0    0 -0.22938910579E+02 -0.94183708355E+01  0.35473928856E+01  0.25049837305E+02  0.10500000000E+00 0. -1.
</event>
<event>
11    0  0.3439373E-009  0.9118800E+02  0.7816531E-02  0.1126479E+00
         25   -1    0    0    0    0  0.00000000000E+00  0.00000000000E+00  0.99999998245E-14  0.12500000000E+03  0.12500000000E+03 0.  0.
    3000001    1    3    3    0    0  0.20642299389E+01 -0.13922723629E+00  0.10492816326E+01  0.25261475429E+01  0.10000000000E+01 0. -1.
    1000022    2    1    0    0    0  0.59308229210E+02  0.11147761129E+02 -0.12826195868E+02  0.62499999626E+02  0.10000001127E+02 0.  0.
    3000022    2    3    3    0    0  0.57243999272E+02  0.11286988365E+02 -0.13875477500E+02  0.59973852083E+02  0.24999771594E+00 0.  0.
    1000022    2    1    0    0    0 -0.59308229210E+02 -0.11147761129E+02  0.12826195868E+02  0.62500000374E+02  0.10000005803E+02 0.  0.
    3000022    2    5    5    0    0 -0.15701754907E+02 -0.65162813416E+01  0.64091790126E+01  0.18169950617E+02  0.25000020995E+00 0.  0.
        -13    1    4    4    0    0  0.22583118692E+02  0.44542109414E+01 -0.54098452155E+01  0.23645606257E+02  0.10500000000E+00 0.  1.
         13    1    4    4    0    0  0.34660880579E+02  0.68327774236E+01 -0.84656322848E+01  0.36328245827E+02  0.10500000000E+00 0. -1.
    3000001    1    5    5    0    0 -0.43606474303E+02 -0.46314797872E+01  0.64170168551E+01  0.44330049757E+02  0.10000000000E+01 0.  1.
        -13    1    6    6    0    0 -0.10641522738E+02 -0.43687231033E+01  0.43652739501E+01  0.12304242740E+02  0.10500000000E+00 0. -1.
         13    1    6    6    0    0 -0.50602321689E+01 -0.21475582383E+01  0.20439050625E+01  0.58657078767E+01  0.10500000000E+00 0.  1.
</event>
<event>
11    0  0.3439373E-009  0.9118800E+02  0.7816531E-02  0.1126479E+00
         25   -1    0    0    0    0  0.00000000000E+00  0.00000000000E+00  0.99999998245E-14  0.12500000000E+03  0.12500000000E+03 0.  0.
    3000001    1    3    3    0    0 -0.33117224022E+01 -0.68965525983E+01  0.54023809749E+01  0.94188992567E+01  0.10000000000E+01 0.  1.
    1000022    2    1    0    0    0 -0.38936158136E+02 -0.43178338670E+02  0.20636297177E+02  0.62499998768E+02  0.99999872039E+01 0.  0.
    3000022    2    3    3    0    0 -0.35624435734E+02 -0.36281786071E+02  0.15233916202E+02  0.53081099511E+02  0.25000104050E+00 0.  0.
    1000022    2    1    0    0    0  0.38936158136E+02  0.43178338670E+02 -0.20636297177E+02  0.62500001232E+02  0.10000002608E+02 0.  0.
    3000022    2    5    5    0    0  0.23280430955E+02  0.30301926436E+02 -0.96112556175E+01  0.39403349376E+02  0.24999263088E+00 0.  0.
        -13    1    4    4    0    0 -0.26515715790E+02 -0.27045874177E+02  0.11341574795E+02  0.39537385317E+02  0.10500000000E+00 0. -1.
         13    1    4    4    0    0 -0.91087199440E+01 -0.92359118944E+01  0.38923414065E+01  0.13543714194E+02  0.10500000000E+00 0.  1.
    3000001    1    5    5    0    0  0.15655727181E+02  0.12876412234E+02 -0.11025041559E+02  0.23096651856E+02  0.10000000000E+01 0. -1.
        -13    1    6    6    0    0  0.13204396913E+02  0.17136200222E+02 -0.55011251299E+01  0.22322160706E+02  0.10500000000E+00 0.  1.
         13    1    6    6    0    0  0.10076034042E+02  0.13165726214E+02 -0.41101304876E+01  0.17081188670E+02  0.10500000000E+00 0. -1.
</event>
<event>
11    0  0.3439373E-009  0.9118800E+02  0.7816531E-02  0.1126479E+00
         25   -1    0    0    0    0  0.00000000000E+00  0.00000000000E+00  0.99999998245E-14  0.12500000000E+03  0.12500000000E+03 0.  0.
    3000001    1    3    3    0    0  0.31457167002E+02 -0.12572181236E+02  0.18024276591E+02  0.38386034485E+02  0.10000000000E+01 0.  1.
    1000022    2    1    0    0    0  0.52100855749E+02 -0.24203541904E+02  0.22493095050E+02  0.62499998822E+02  0.99999958696E+01 0.  0.
    3000022    2    3    3    0    0  0.20643688746E+02 -0.11631360668E+02  0.44688184595E+01  0.24113964337E+02  0.25000320004E+00 0.  0.
    1000022    2    1    0    0    0 -0.52100855749E+02  0.24203541904E+02 -0.22493095050E+02  0.62500001178E+02  0.10000010596E+02 0.  0.
    3000022    2    5    5    0    0 -0.33577175489E+01  0.39334505598E+01 -0.18392718655E+00  0.51809895380E+01  0.25004587110E+00 0.  0.
        -13    1    4    4    0    0  0.61587704956E+01 -0.34322065442E+01  0.12984214721E+01  0.71698967286E+01  0.10500000000E+00 0.  1.
         13    1    4    4    0    0  0.14484918251E+02 -0.81991541234E+01  0.31703969875E+01  0.16944067609E+02  0.10500000000E+00 0. -1.
    3000001    1    5    5    0    0 -0.48743138200E+02  0.20270091344E+02 -0.22309167864E+02  0.57319011640E+02  0.10000000000E+01 0. -1.
        -13    1    6    6    0    0 -0.24652823556E+01  0.28425912999E+01 -0.11117702466E+00  0.37658103672E+01  0.10500000000E+00 0. -1.
         13    1    6    6    0    0 -0.89243519334E+00  0.10908592600E+01 -0.72750161888E-01  0.14151791708E+01  0.10500000000E+00 0.  1.
</event>
<event>
11    0  0.3439373E-009  0.9118800E+02  0.7816531E-02  0.1126479E+00
         25   -1    0    0    0    0  0.00000000000E+00  0.00000000000E+00  0.99999998245E-14  0.12500000000E+03  0.12500000000E+03 0.  0.
    3000001    1    3    3    0    0  0.75108467755E+01 -0.16721764815E+02 -0.12625600200E+01  0.18401747081E+02  0.10000000000E+01 0.  1.
    1000022    2    1    0    0    0  0.19224329371E+02 -0.57844942227E+02  0.95203874993E+01  0.62499999280E+02  0.99999975450E+01 0.  0.
    3000022    2    3    3    0    0  0.11713482596E+02 -0.41123177412E+02  0.10782947519E+02  0.44098252200E+02  0.24998980160E+00 0.  0.
    1000022    2    1    0    0    0 -0.19224329371E+02  0.57844942227E+02 -0.95203874993E+01  0.62500000720E+02  0.10000006543E+02 0.  0.
    3000022    2    5    5    0    0 -0.11526391683E+02  0.28866787674E+02 -0.94892764865E+01  0.32500123157E+02  0.25000219814E+00 0.  0.
        -13    1    4    4    0    0  0.77061479411E+01 -0.27246664394E+02  0.71543835837E+01  0.29205507463E+02  0.10500000000E+00 0.  1.
         13    1    4    4    0    0  0.40073346547E+01 -0.13876513018E+02  0.36285639356E+01  0.14892744737E+02  0.10500000000E+00 0. -1.
    3000001    1    5    5    0    0 -0.76979376888E+01  0.28978154552E+02 -0.31111012709E-01  0.29999877563E+02  0.10000000000E+01 0. -1.
        -13    1    6    6    0    0 -0.87906940154E+01  0.22057775533E+02 -0.72500090071E+01  0.24827311944E+02  0.10500000000E+00 0. -1.
         13    1    6    6    0    0 -0.27356976671E+01  0.68090121411E+01 -0.22392674795E+01  0.76728112129E+01  0.10500000000E+00 0.  1.
</event>
<event>
11    0  0.3439373E-009  0.9118800E+02  0.7816531E-02  0.1126479E+00
         25   -1    0    0    0    0  0.00000000000E+00  0.00000000000E+00  0.99999998245E-14  0.12500000000E+03  0.12500000000E+03 0.  0.
    3000001    1    3    3    0    0 -0.83669921512E+01 -0.52574656639E+02  0.15967194926E+00  0.53245906636E+02  0.10000000000E+01 0. -1.
    1000022    2    1    0    0    0 -0.11887002468E+02 -0.60455890802E+02 -0.31677030014E+01  0.62500000736E+02  0.10000009473E+02 0.  0.
    3000022    2    3    3    0    0 -0.35200103166E+01 -0.78812341626E+01 -0.33273749507E+01  0.92540941003E+01  0.25001800165E+00 0.  0.
    1000022    2    1    0    0    0  0.11887002468E+02  0.60455890802E+02  0.31677030014E+01  0.62499999264E+02  0.10000000267E+02 0.  0.
    3000022    2    5    5    0    0  0.13124078134E+02  0.58126922608E+02  0.32408075845E+01  0.59678688693E+02  0.24998326934E+00 0.  0.
        -13    1    4    4    0    0 -0.11414580035E+01 -0.26337389998E+01 -0.11528678911E+01  0.30950988461E+01  0.10500000000E+00 0. -1.
         13    1    4    4    0    0 -0.23785523130E+01 -0.52474951628E+01 -0.21745070596E+01  0.61589952542E+01  0.10500000000E+00 0.  1.
    3000001    1    5    5    0    0 -0.12370756667E+01  0.23289681938E+01 -0.73104583025E-01  0.28213105701E+01  0.10000000000E+01 0.  1.
        -13    1    6    6    0    0  0.98079442138E+01  0.43322776425E+02  0.24288364486E+01  0.44485604395E+02  0.10500000000E+00 0.  1.
         13    1    6    6    0    0  0.33161339207E+01  0.14804146182E+02  0.81197113590E+00  0.15193084298E+02  0.10500000000E+00 0. -1.
</event>
<event>
11    0  0.3439373E-009  0.9118800E+02  0.7816531E-02  0.1126479E+00
         25   -1    0    0    0    0  0.00000000000E+00  0.00000000000E+00  0.99999998245E-14  0.12500000000E+03  0.12500000000E+03 0.  0.
    3000001    1    3    3    0    0 -0.89483704529E+01  0.58681381392E+00  0.87971161900E+01  0.12601862461E+02  0.10000000000E+01 0.  1.
    1000022    2    1    0    0    0 -0.28459497100E+02  0.23754282316E+01  0.54686967063E+02  0.62499999863E+02  0.99999990876E+01 0.  0.
    3000022    2    3    3    0    0 -0.19511126648E+02  0.17886144177E+01  0.45889850873E+02  0.49898137402E+02  0.24999685344E+00 0.  0.
    1000022    2    1    0    0    0  0.28459497100E+02 -0.23754282316E+01 -0.54686967063E+02  0.62500000137E+02  0.10000000803E+02 0.  0.
    3000022    2    5    5    0    0  0.85049691359E+01  0.26179714591E+00 -0.81423301304E+01  0.11779773686E+02  0.24998080936E+00 0.  0.
        -13    1    4    4    0    0 -0.11753458246E+02  0.11328462993E+01  0.27731359054E+02  0.30140776723E+02  0.10500000000E+00 0.  1.
         13    1    4    4    0    0 -0.77576684018E+01  0.65576811842E+00  0.18158491819E+02  0.19757360679E+02  0.10500000000E+00 0. -1.
    3000001    1    5    5    0    0  0.19954527965E+02 -0.26372253775E+01 -0.46544636933E+02  0.50720226451E+02  0.10000000000E+01 0.  1.
        -13    1    6    6    0    0  0.29626112908E+01  0.99419256092E-01 -0.29145744329E+01  0.41584515116E+01  0.10500000000E+00 0. -1.
         13    1    6    6    0    0  0.55423578450E+01  0.16237788982E+00 -0.52277556974E+01  0.76213221749E+01  0.10500000000E+00 0.  1.
</event>
<event>
11    0  0.3439373E-009  0.9118800E+02  0.7816531E-02  0.1126479E+00
         25   -1    0    0    0    0  0.00000000000E+00  0.00000000000E+00  0.99999998245E-14  0.12500000000E+03  0.12500000000E+03 0.  0.
    3000001    1    3    3    0    0  0.24912327706E+02  0.76626490551E+01  0.49528377407E+01  0.26549404211E+02  0.10000000000E+01 0. -1.
    1000022    2    1    0    0    0  0.53117763438E+02  0.27507090236E+02  0.15103424710E+02  0.62500000465E+02  0.99999907126E+01 0.  0.
    3000022    2    3    3    0    0  0.28205435732E+02  0.19844441181E+02  0.10150586970E+02  0.35950596254E+02  0.25000916229E+00 0.  0.
    1000022    2    1    0    0    0 -0.53117763438E+02 -0.27507090236E+02 -0.15103424710E+02  0.62499999535E+02  0.99999848976E+01 0.  0.
    3000022    2    5    5    0    0 -0.26569723646E+02 -0.11500045396E+02 -0.26394534796E+01  0.29072847695E+02  0.24999932109E+00 0.  0.
        -13    1    4    4    0    0  0.17396046612E+02  0.12194007340E+02  0.63037027577E+01  0.22159962685E+02  0.10500000000E+00 0.  1.
         13    1    4    4    0    0  0.10809389120E+02  0.76504338418E+01  0.38468842121E+01  0.13790633570E+02  0.10500000000E+00 0. -1.
    3000001    1    5    5    0    0 -0.26548039792E+02 -0.16007044840E+02 -0.12463971231E+02  0.33427151840E+02  0.10000000000E+01 0.  1.
        -13    1    6    6    0    0 -0.15392280570E+02 -0.66885179987E+01 -0.15904196165E+01  0.16858203751E+02  0.10500000000E+00 0. -1.
         13    1    6    6    0    0 -0.11177443076E+02 -0.48115273974E+01 -0.10490338631E+01  0.12214643943E+02  0.10500000000E+00 0.  1.
</event>
<event>
11    0  0.3439373E-009  0.9118800E+02  0.7816531E-02  0.1126479E+00
         25   -1    0    0    0    0  0.00000000000E+00  0.00000000000E+00  0.99999998245E-14  0.12500000000E+03  0.12500000000E+03 0.  0.
    3000001    1    3    3    0    0  0.56336862440E+01  0.26511704477E+02  0.36369315105E+02  0.45368887756E+02  0.10000000000E+01 0. -1.
    1000022    2    1    0    0    0  0.82088672049E+01  0.40670916688E+02  0.45658966798E+02  0.62499999137E+02  0.99999838988E+01 0.  0.
    3000022    2    3    3    0    0  0.25751809609E+01  0.14159212211E+02  0.92896516929E+01  0.17131111381E+02  0.25000230233E+00 0.  0.
    1000022    2    1    0    0    0 -0.82088672049E+01 -0.40670916688E+02 -0.45658966798E+02  0.62500000863E+02  0.99999946896E+01 0.  0.
    3000022    2    5    5    0    0 -0.69400058071E+01 -0.12196928538E+02 -0.12865004563E+02  0.19039421374E+02  0.24995500356E+00 0.  0.
        -13    1    4    4    0    0  0.13113608019E+01  0.73615371198E+01  0.47527730201E+01  0.88606868977E+01  0.10500000000E+00 0. -1.
         13    1    4    4    0    0  0.12638201590E+01  0.67976750912E+01  0.45368786728E+01  0.82704244832E+01  0.10500000000E+00 0.  1.
    3000001    1    5    5    0    0 -0.12688613978E+01 -0.28473988150E+02 -0.32793962235E+02  0.43460579489E+02  0.10000000000E+01 0. -1.
        -13    1    6    6    0    0 -0.46081221923E+01 -0.80811255202E+01 -0.86001916964E+01  0.12669400224E+02  0.10500000000E+00 0.  1.
         13    1    6    6    0    0 -0.23318836148E+01 -0.41158030174E+01 -0.42648128664E+01  0.63700211504E+01  0.10500000000E+00 0. -1.
</event>
<event>
11    0  0.3439373E-009  0.9118800E+02  0.7816531E-02  0.1126479E+00
         25   -1    0    0    0    0  0.00000000000E+00  0.00000000000E+00  0.99999998245E-14  0.12500000000E+03  0.12500000000E+03 0.  0.
    3000001    1    3    3    0    0  0.16466624218E+02 -0.33626810260E+02 -0.50339906720E+01  0.37792236550E+02  0.10000000000E+01 0.  1.
    1000022    2    1    0    0    0  0.29002500513E+02 -0.54449494172E+02 -0.59792177384E+00  0.62499999854E+02  0.10000000986E+02 0.  0.
    3000022    2    3    3    0    0  0.12535876295E+02 -0.20822683912E+02  0.44360688982E+01  0.24707763303E+02  0.25000083734E+00 0.  0.
    1000022    2    1    0    0    0 -0.29002500513E+02  0.54449494172E+02  0.59792177384E+00  0.62500000146E+02  0.10000002812E+02 0.  0.
    3000022    2    5    5    0    0 -0.93429381143E+00  0.59774283639E+01  0.22363096689E+01  0.64549316206E+01  0.25001303845E+00 0.  0.
        -13    1    4    4    0    0  0.79657727278E+01 -0.13123817770E+02  0.27808398121E+01  0.15602314670E+02  0.10500000000E+00 0.  1.
         13    1    4    4    0    0  0.45701035674E+01 -0.76988661418E+01  0.16552290861E+01  0.91054486333E+01  0.10500000000E+00 0. -1.
    3000001    1    5    5    0    0 -0.28068206702E+02  0.48472065808E+02 -0.16383878951E+01  0.56045068525E+02  0.10000000000E+01 0.  1.
        -13    1    6    6    0    0 -0.54253633487E+00  0.31703784530E+01  0.11366376777E+01  0.34130068005E+01  0.10500000000E+00 0. -1.
         13    1    6    6    0    0 -0.39175747656E+00  0.28070499108E+01  0.10996719912E+01  0.30419248200E+01  0.10500000000E+00 0.  1.
</event>
<event>
11    0  0.3439373E-009  0.9118800E+02  0.7816531E-02  0.1126479E+00
         25   -1    0    0    0    0  0.00000000000E+00  0.00000000000E+00  0.99999998245E-14  0.12500000000E+03  0.12500000000E+03 0.  0.
    3000001    1    3    3    0    0 -0.42838845084E+02  0.33588515046E+02 -0.28947842599E+02  0.61663056868E+02  0.10000000000E+01 0. -1.
    1000022    2    1    0    0    0 -0.42851837474E+02  0.34136411329E+02 -0.28366800382E+02  0.62499998901E+02  0.99999972708E+01 0.  0.
    3000022    2    3    3    0    0 -0.12992389824E-01  0.54789628285E+00  0.58104221653E+00  0.83694203357E+00  0.25000554234E+00 0.  0.
    1000022    2    1    0    0    0  0.42851837474E+02 -0.34136411329E+02  0.28366800382E+02  0.62500001099E+02  0.10000011005E+02 0.  0.
    3000022    2    5    5    0    0  0.34994386562E+02 -0.31522746237E+02  0.21879564999E+02  0.51933308004E+02  0.24998899504E+00 0.  0.
        -13    1    4    4    0    0  0.12680615385E-03  0.11563106410E+00  0.17427489378E+00  0.23402413907E+00  0.10500000000E+00 0. -1.
         13    1    4    4    0    0 -0.13119195978E-01  0.43226521875E+00  0.40676732275E+00  0.60291789450E+00  0.10500000000E+00 0. -1.
    3000001    1    5    5    0    0  0.78574509112E+01 -0.26136650921E+01  0.64872353836E+01  0.10566693095E+02  0.10000000000E+01 0.  1.
        -13    1    6    6    0    0  0.15052755299E+02 -0.13647064621E+02  0.94298067332E+01  0.22400002118E+02  0.10500000000E+00 0. -1.
         13    1    6    6    0    0  0.19941631263E+02 -0.17875681617E+02  0.12449758266E+02  0.29533305886E+02  0.10500000000E+00 0.  1.
</event>
<event>
11    0  0.3439373E-009  0.9118800E+02  0.7816531E-02  0.1126479E+00
         25   -1    0    0    0    0  0.00000000000E+00  0.00000000000E+00  0.99999998245E-14  0.12500000000E+03  0.12500000000E+03 0.  0.
    3000001    1    3    3    0    0  0.33469307203E+02  0.94096414751E+01 -0.72360162843E+01  0.35525987798E+02  0.10000000000E+01 0. -1.
    1000022    2    1    0    0    0  0.58926247417E+02  0.86157525472E+01 -0.16115706005E+02  0.62500002181E+02  0.10000023302E+02 0.  0.
    3000022    2    3    3    0    0  0.25456940214E+02 -0.79388892788E+00 -0.88796897209E+01  0.26974014383E+02  0.24999549646E+00 0.  0.
    1000022    2    1    0    0    0 -0.58926247417E+02 -0.86157525472E+01  0.16115706005E+02  0.62499997819E+02  0.99999960385E+01 0.  0.
    3000022    2    5    5    0    0 -0.27269145347E+02 -0.28967476631E+01  0.12414453699E+02  0.30102800457E+02  0.24999938334E+00 0.  0.
        -13    1    4    4    0    0  0.10333348499E+02 -0.26120382341E+00 -0.35848046805E+01  0.10941122805E+02  0.10500000000E+00 0. -1.
         13    1    4    4    0    0  0.15123591715E+02 -0.53268510448E+00 -0.52948850403E+01  0.16032891578E+02  0.10500000000E+00 0.  1.
    3000001    1    5    5    0    0 -0.31657102069E+02 -0.57190048842E+01  0.37012523057E+01  0.32397197362E+02  0.10000000000E+01 0. -1.
        -13    1    6    6    0    0 -0.11087617488E+02 -0.12329293043E+01  0.50860712934E+01  0.12261097929E+02  0.10500000000E+00 0. -1.
         13    1    6    6    0    0 -0.16181527859E+02 -0.16638183588E+01  0.73283824060E+01  0.17841702527E+02  0.10500000000E+00 0.  1.
</event>
<event>
11    0  0.3439373E-009  0.9118800E+02  0.7816531E-02  0.1126479E+00
         25   -1    0    0    0    0  0.00000000000E+00  0.00000000000E+00  0.99999998245E-14  0.12500000000E+03  0.12500000000E+03 0.  0.
    3000001    1    3    3    0    0 -0.73618818273E+01 -0.36771003285E+00  0.24004670108E+01  0.78163134902E+01  0.10000000000E+01 0. -1.
    1000022    2    1    0    0    0 -0.60746394362E+02 -0.94075938141E+01 -0.52557324376E+01  0.62500000051E+02  0.10000001680E+02 0.  0.
    3000022    2    3    3    0    0 -0.53384512535E+02 -0.90398837812E+01 -0.76561994484E+01  0.54683686561E+02  0.25001712066E+00 0.  0.
    1000022    2    1    0    0    0  0.60746394362E+02  0.94075938141E+01  0.52557324376E+01  0.62499999949E+02  0.10000001041E+02 0.  0.
    3000022    2    5    5    0    0  0.36435910715E+02  0.90938538236E+00  0.44070250892E+01  0.36713579766E+02  0.24999536431E+00 0.  0.
        -13    1    4    4    0    0 -0.26419806098E+02 -0.44900012552E+01 -0.38559859392E+01  0.27074820740E+02  0.10500000000E+00 0. -1.
         13    1    4    4    0    0 -0.26964706436E+02 -0.45498825260E+01 -0.38002135092E+01  0.27608865821E+02  0.10500000000E+00 0.  1.
    3000001    1    5    5    0    0  0.24310483647E+02  0.84982084317E+01  0.84870734833E+00  0.25786420183E+02  0.10000000000E+01 0.  1.
        -13    1    6    6    0    0  0.21748925364E+02  0.60563949244E+00  0.26390813611E+01  0.21917078481E+02  0.10500000000E+00 0.  1.
         13    1    6    6    0    0  0.14686985351E+02  0.30374588992E+00  0.17679437282E+01  0.14796501285E+02  0.10500000000E+00 0. -1.
</event>
<event>
11    0  0.3439373E-009  0.9118800E+02  0.7816531E-02  0.1126479E+00
         25   -1    0    0    0    0  0.00000000000E+00  0.00000000000E+00  0.99999998245E-14  0.12500000000E+03  0.12500000000E+03 0.  0.
    3000001    1    3    3    0    0  0.12432701534E+02 -0.59288224608E+01 -0.48854352967E+01  0.14648907169E+02  0.10000000000E+01 0.  1.
    1000022    2    1    0    0    0  0.55124587315E+02 -0.86210225017E+01 -0.26328838653E+02  0.62500000208E+02  0.10000006282E+02 0.  0.
    3000022    2    3    3    0    0  0.42691885781E+02 -0.26922000409E+01 -0.21443403356E+02  0.47851093039E+02  0.25001000001E+00 0.  0.
    1000022    2    1    0    0    0 -0.55124587315E+02  0.86210225017E+01  0.26328838653E+02  0.62499999792E+02  0.10000003679E+02 0.  0.
    3000022    2    5    5    0    0 -0.35065815208E+02  0.18459096126E+01  0.19844362618E+02  0.40334600573E+02  0.24999429683E+00 0.  0.
        -13    1    4    4    0    0  0.12171534104E+02 -0.80795513391E+00 -0.61043515045E+01  0.13640863838E+02  0.10500000000E+00 0.  1.
         13    1    4    4    0    0  0.30520351676E+02 -0.18842449069E+01 -0.15339051851E+02  0.34210229201E+02  0.10500000000E+00 0. -1.
    3000001    1    5    5    0    0 -0.20058772106E+02  0.67751128890E+01  0.64844760343E+01  0.22165399219E+02  0.10000000000E+01 0. -1.
        -13    1    6    6    0    0 -0.24211894486E+02  0.12410977786E+01  0.13660671413E+02  0.27827704302E+02  0.10500000000E+00 0. -1.
         13    1    6    6    0    0 -0.10853920722E+02  0.60481183407E+00  0.61836912058E+01  0.12506896271E+02  0.10500000000E+00 0.  1.
</event>
<event>
11    0  0.3439373E-009  0.9118800E+02  0.7816531E-02  0.1126479E+00
         25   -1    0    0    0    0  0.00000000000E+00  0.00000000000E+00  0.99999998245E-14  0.12500000000E+03  0.12500000000E+03 0.  0.
    3000001    1    3    3    0    0  0.22290789623E+02  0.37153236130E+02  0.71195675091E+00  0.43344539902E+02  0.10000000000E+01 0.  1.
    1000022    2    1    0    0    0  0.36232070290E+02  0.49868090353E+02 -0.25808195088E+01  0.62500001022E+02  0.10000007269E+02 0.  0.
    3000022    2    3    3    0    0  0.13941280667E+02  0.12714854224E+02 -0.32927762598E+01  0.19155461119E+02  0.24998125966E+00 0.  0.
    1000022    2    1    0    0    0 -0.36232070290E+02 -0.49868090353E+02  0.25808195088E+01  0.62499998978E+02  0.99999944955E+01 0.  0.
    3000022    2    5    5    0    0 -0.82045417946E+01 -0.78150558263E+01  0.37545112692E+01  0.11939365884E+02  0.24999843494E+00 0.  0.
        -13    1    4    4    0    0  0.61691984095E+01  0.57102528558E+01 -0.14424941480E+01  0.85298189347E+01  0.10500000000E+00 0.  1.
         13    1    4    4    0    0  0.77720822578E+01  0.70046013678E+01 -0.18502821118E+01  0.10625642185E+02  0.10500000000E+00 0. -1.
    3000001    1    5    5    0    0 -0.28027528496E+02 -0.42053034527E+02 -0.11736917603E+01  0.50560633094E+02  0.10000000000E+01 0.  1.
        -13    1    6    6    0    0 -0.58227212533E+01 -0.55138901423E+01  0.26955257967E+01  0.84607299694E+01  0.10500000000E+00 0. -1.
         13    1    6    6    0    0 -0.23818205413E+01 -0.23011656839E+01  0.10589854725E+01  0.34786359146E+01  0.10500000000E+00 0.  1.
</event>
<event>
11    0  0.3439373E-009  0.9118800E+02  0.7816531E-02  0.1126479E+00
         25   -1    0    0    0    0  0.00000000000E+00  0.00000000000E+00  0.99999998245E-14  0.12500000000E+03  0.12500000000E+03 0.  0.
    3000001    1    3    3    0    0 -0.20901820790E+01 -0.49549561535E+01  0.53565546264E-01  0.54702212820E+01  0.10000000000E+01 0. -1.
    1000022    2    1    0    0    0 -0.18341472789E+02 -0.50753529410E+02  0.29898485658E+02  0.62499998773E+02  0.10000001516E+02 0.  0.
    3000022    2    3    3    0    0 -0.16251290710E+02 -0.45798573257E+02  0.29844920112E+02  0.57029777491E+02  0.25000421802E+00 0.  0.
    1000022    2    1    0    0    0  0.18341472789E+02  0.50753529410E+02 -0.29898485658E+02  0.62500001227E+02  0.10000016852E+02 0.  0.
    3000022    2    5    5    0    0  0.13816828957E+02  0.41474857892E+02 -0.19685617605E+02  0.47944286857E+02  0.25000432285E+00 0.  0.
        -13    1    4    4    0    0 -0.55857028149E+01 -0.15758274151E+02  0.10332655958E+02  0.19654467286E+02  0.10500000000E+00 0. -1.
         13    1    4    4    0    0 -0.10665587895E+02 -0.30040299106E+02  0.19512264154E+02  0.37375310205E+02  0.10500000000E+00 0.  1.
    3000001    1    5    5    0    0  0.45246438320E+01  0.92786715185E+01 -0.10212868052E+02  0.14555714370E+02  0.10000000000E+01 0. -1.
        -13    1    6    6    0    0  0.74578711087E+01  0.22223729196E+02 -0.10603311644E+02  0.25728490505E+02  0.10500000000E+00 0. -1.
         13    1    6    6    0    0  0.63589578479E+01  0.19251128696E+02 -0.90823059614E+01  0.22215796352E+02  0.10500000000E+00 0.  1.
</event>
<event>
11    0  0.3439373E-009  0.9118800E+02  0.7816531E-02  0.1126479E+00
         25   -1    0    0    0    0  0.00000000000E+00  0.00000000000E+00  0.99999998245E-14  0.12500000000E+03  0.12500000000E+03 0.  0.
    3000001    1    3    3    0    0 -0.91443100028E+01 -0.32674143948E+02  0.63568127103E+01  0.34534434351E+02  0.10000000000E+01 0. -1.
    1000022    2    1    0    0    0 -0.96205651983E+01 -0.58500039399E+02  0.17071608546E+02  0.62500003241E+02  0.10000035120E+02 0.  0.
    3000022    2    3    3    0    0 -0.47625519542E+00 -0.25825895451E+02  0.10714795836E+02  0.27965568890E+02  0.24999732226E+00 0.  0.
    1000022    2    1    0    0    0  0.96205651983E+01  0.58500039399E+02 -0.17071608546E+02  0.62499996759E+02  0.99999946068E+01 0.  0.
    3000022    2    5    5    0    0  0.15899513113E+01  0.16950746848E+01 -0.22356696220E+01  0.32344936454E+01  0.25001424728E+00 0.  0.
        -13    1    4    4    0    0 -0.20561741987E+00 -0.12342245550E+02  0.50512739418E+01  0.13337904527E+02  0.10500000000E+00 0.  1.
         13    1    4    4    0    0 -0.27063777556E+00 -0.13483649901E+02  0.56635218941E+01  0.14627664363E+02  0.10500000000E+00 0. -1.
    3000001    1    5    5    0    0  0.80306138870E+01  0.56804964714E+02 -0.14835938924E+02  0.59265503114E+02  0.10000000000E+01 0. -1.
        -13    1    6    6    0    0  0.53114310299E+00  0.60669095045E+00 -0.71155407131E+00  0.10805189039E+01  0.10500000000E+00 0.  1.
         13    1    6    6    0    0  0.10588082083E+01  0.10883837344E+01 -0.15241155507E+01  0.21539747415E+01  0.10500000000E+00 0. -1.
</event>
<event>
11    0  0.3439373E-009  0.9118800E+02  0.7816531E-02  0.1126479E+00
         25   -1    0    0    0    0  0.00000000000E+00  0.00000000000E+00  0.99999998245E-14  0.12500000000E+03  0.12500000000E+03 0.  0.
    3000001    1    3    3    0    0 -0.49573705083E+01  0.12712097910E+02  0.34916420725E+02  0.37501058543E+02  0.10000000000E+01 0. -1.
    1000022    2    1    0    0    0 -0.15447191525E+02  0.23174051423E+02  0.55050862233E+02  0.62499999629E+02  0.10000006787E+02 0.  0.
    3000022    2    3    3    0    0 -0.10489821017E+02  0.10461953513E+02  0.20134441508E+02  0.24998941086E+02  0.25000864629E+00 0.  0.
    1000022    2    1    0    0    0  0.15447191525E+02 -0.23174051423E+02 -0.55050862233E+02  0.62500000371E+02  0.10000011421E+02 0.  0.
    3000022    2    5    5    0    0  0.49715550940E+01 -0.13295831860E+02 -0.19413540140E+02  0.24050853354E+02  0.25000279021E+00 0.  0.
        -13    1    4    4    0    0 -0.34812759773E+01  0.34144657616E+01  0.66841414459E+01  0.82744565221E+01  0.10500000000E+00 0.  1.
         13    1    4    4    0    0 -0.70085450393E+01  0.70474877515E+01  0.13450300062E+02  0.16724484564E+02  0.10500000000E+00 0. -1.
    3000001    1    5    5    0    0  0.10475636431E+02 -0.98782195631E+01 -0.35637322093E+02  0.38449147017E+02  0.10000000000E+01 0.  1.
        -13    1    6    6    0    0  0.34371668504E+01 -0.91809602368E+01 -0.13487703132E+02  0.16674330799E+02  0.10500000000E+00 0.  1.
         13    1    6    6    0    0  0.15343882436E+01 -0.41148716230E+01 -0.59258370079E+01  0.73765225547E+01  0.10500000000E+00 0. -1.
</event>
<event>
11    0  0.3439373E-009  0.9118800E+02  0.7816531E-02  0.1126479E+00
         25   -1    0    0    0    0  0.00000000000E+00  0.00000000000E+00  0.99999998245E-14  0.12500000000E+03  0.12500000000E+03 0.  0.
    3000001    1    3    3    0    0  0.16272915672E+02 -0.45094572070E+02 -0.25474507802E+02  0.54298054868E+02  0.10000000000E+01 0.  1.
    1000022    2    1    0    0    0  0.21517218518E+02 -0.49361735222E+02 -0.30111102469E+02  0.62499999707E+02  0.99999937297E+01 0.  0.
    3000022    2    3    3    0    0  0.52443028460E+01 -0.42671631521E+01 -0.46365946669E+01  0.82019448395E+01  0.24999067498E+00 0.  0.
    1000022    2    1    0    0    0 -0.21517218518E+02  0.49361735222E+02  0.30111102469E+02  0.62500000293E+02  0.99999973871E+01 0.  0.
    3000022    2    5    5    0    0 -0.15727955482E+02  0.44272608766E+02  0.25382001750E+02  0.53401694505E+02  0.24998512419E+00 0.  0.
        -13    1    4    4    0    0  0.30414498676E+01 -0.25252255543E+01 -0.26482779320E+01  0.47593678575E+01  0.10500000000E+00 0.  1.
         13    1    4    4    0    0  0.22028529784E+01 -0.17419375978E+01 -0.19883167349E+01  0.34425769820E+01  0.10500000000E+00 0. -1.
    3000001    1    5    5    0    0 -0.57892630368E+01  0.50891264562E+01  0.47291007188E+01  0.90983057876E+01  0.10000000000E+01 0. -1.
        -13    1    6    6    0    0 -0.62472812426E+01  0.17742139768E+02  0.10201592688E+02  0.21398494452E+02  0.10500000000E+00 0.  1.
         13    1    6    6    0    0 -0.94806742392E+01  0.26530468998E+02  0.15180409062E+02  0.32003200053E+02  0.10500000000E+00 0. -1.
</event>
<event>
11    0  0.3439373E-009  0.9118800E+02  0.7816531E-02  0.1126479E+00
         25   -1    0    0    0    0  0.00000000000E+00  0.00000000000E+00  0.99999998245E-14  0.12500000000E+03  0.12500000000E+03 0.  0.
    3000001    1    3    3    0    0 -0.44025593916E+01 -0.63057639354E+01 -0.15181432366E+02  0.17047612053E+02  0.10000000000E+01 0.  1.
    1000022    2    1    0    0    0 -0.68356691726E+01 -0.35019749700E+02 -0.50330316152E+02  0.62499999622E+02  0.99999993333E+01 0.  0.
    3000022    2    3    3    0    0 -0.24331097811E+01 -0.28713985765E+02 -0.35148883786E+02  0.45452387569E+02  0.25000529218E+00 0.  0.
    1000022    2    1    0    0    0  0.68356691726E+01  0.35019749700E+02  0.50330316152E+02  0.62500000378E+02  0.10000004056E+02 0.  0.
    3000022    2    5    5    0    0 -0.26673808782E+00  0.16449220260E+01  0.67979686992E-04  0.16850581983E+01  0.25000689575E+00 0.  0.
        -13    1    4    4    0    0 -0.66063049968E+00 -0.78476383931E+01 -0.95480998115E+01  0.12377362240E+02  0.10500000000E+00 0.  1.
         13    1    4    4    0    0 -0.17724792814E+01 -0.20866347372E+02 -0.25600783974E+02  0.33075025330E+02  0.10500000000E+00 0. -1.
    3000001    1    5    5    0    0  0.71024072605E+01  0.33374827674E+02  0.50330248173E+02  0.60814942180E+02  0.10000000000E+01 0. -1.
        -13    1    6    6    0    0 -0.53024266735E-01  0.38056959331E+00 -0.93884321462E-02  0.39844438868E+00  0.10500000000E+00 0. -1.
         13    1    6    6    0    0 -0.21371382109E+00  0.12643524327E+01  0.94564118332E-02  0.12866138096E+01  0.10500000000E+00 0.  1.
</event>
<event>
11    0  0.3439373E-009  0.9118800E+02  0.7816531E-02  0.1126479E+00
         25   -1    0    0    0    0  0.00000000000E+00  0.00000000000E+00  0.99999998245E-14  0.12500000000E+03  0.12500000000E+03 0.  0.
    3000001    1    3    3    0    0  0.44034470863E+02  0.38378200440E+02  0.37389802517E+01  0.58539737499E+02  0.10000000000E+01 0. -1.
    1000022    2    1    0    0    0  0.47924862336E+02  0.38725107908E+02  0.31342537576E+01  0.62500000888E+02  0.10000007599E+02 0.  0.
    3000022    2    3    3    0    0  0.38903914731E+01  0.34690746829E+00 -0.60472649417E+00  0.39602633887E+01  0.25000274015E+00 0.  0.
    1000022    2    1    0    0    0 -0.47924862336E+02 -0.38725107908E+02 -0.31342537576E+01  0.62499999112E+02  0.99999964965E+01 0.  0.
    3000022    2    5    5    0    0 -0.55832916092E+01 -0.92778859696E+01 -0.22165354631E+00  0.10833465151E+02  0.25004725336E+00 0.  0.
        -13    1    4    4    0    0  0.15981827327E+01  0.10885374851E+00 -0.19301265122E+00  0.16168846803E+01  0.10500000000E+00 0. -1.
         13    1    4    4    0    0  0.22922087403E+01  0.23805371978E+00 -0.41171384295E+00  0.23433787085E+01  0.10500000000E+00 0.  1.
    3000001    1    5    5    0    0 -0.42341570727E+02 -0.29447221939E+02 -0.29126002113E+01  0.51666533961E+02  0.10000000000E+01 0. -1.
        -13    1    6    6    0    0 -0.19401854788E+01 -0.31290668904E+01 -0.10002312398E+00  0.36846178800E+01  0.10500000000E+00 0.  1.
         13    1    6    6    0    0 -0.36431061304E+01 -0.61488190792E+01 -0.12163042233E+00  0.71488472711E+01  0.10500000000E+00 0. -1.
</event>
<event>
11    0  0.3439373E-009  0.9118800E+02  0.7816531E-02  0.1126479E+00
         25   -1    0    0    0    0  0.00000000000E+00  0.00000000000E+00  0.99999998245E-14  0.12500000000E+03  0.12500000000E+03 0.  0.
    3000001    1    3    3    0    0 -0.21332276755E+02  0.68358480566E+01  0.37876643337E+02  0.44016303351E+02  0.10000000000E+01 0.  1.
    1000022    2    1    0    0    0 -0.33090630334E+02  0.14171662597E+02  0.50104132589E+02  0.62500000177E+02  0.10000004144E+02 0.  0.
    3000022    2    3    3    0    0 -0.11758353579E+02  0.73358145408E+01  0.12227489252E+02  0.18483696826E+02  0.25000211496E+00 0.  0.
    1000022    2    1    0    0    0  0.33090630334E+02 -0.14171662597E+02 -0.50104132589E+02  0.62499999823E+02  0.10000001933E+02 0.  0.
    3000022    2    5    5    0    0  0.32521054935E+02 -0.14885383721E+02 -0.46602461736E+02  0.58745600705E+02  0.24999935185E+00 0.  0.
        -13    1    4    4    0    0 -0.47875686969E+01  0.29604958378E+01  0.48871966075E+01  0.74552709752E+01  0.10500000000E+00 0.  1.
         13    1    4    4    0    0 -0.69707848824E+01  0.43753187030E+01  0.73402926446E+01  0.11028425850E+02  0.10500000000E+00 0.  1.
    3000001    1    5    5    0    0  0.56957539951E+00  0.71372112335E+00 -0.35016708530E+01  0.37543991185E+01  0.10000000000E+01 0. -1.
        -13    1    6    6    0    0  0.17098342066E+02 -0.77857356502E+01 -0.24386799114E+02  0.30784703621E+02  0.10500000000E+00 0. -1.
         13    1    6    6    0    0  0.15422712868E+02 -0.70996480706E+01 -0.22215662622E+02  0.27960897083E+02  0.10500000000E+00 0.  1.
</event>
