<event>
 3    1  0.1594457E-001  0.1250000E+03  0.7546771E-02  0.1235069E+00
         21   -1    0    0  502  501  0.00000000000E+00  0.00000000000E+00  0.34094794758E+03  0.34094794758E+03  0.00000000000E+00 0. -1.
         21   -1    0    0  501  502 -0.00000000000E+00 -0.00000000000E+00 -0.11457027466E+02  0.11457027466E+02  0.00000000000E+00 0. -1.
         25    1    1    2    0    0  0.00000000000E+00  0.00000000000E+00  0.32949092012E+03  0.35240497505E+03  0.12500000000E+03 0.  0.
<mgrwt>
<rscale>  0 0.12500000E+03</rscale>
<asrwt>0</asrwt>
<pdfrwt beam="1">  1       21 0.52453523E-01 0.12500000E+03</pdfrwt>
<pdfrwt beam="2">  1       21 0.17626199E-02 0.12500000E+03</pdfrwt>
<totfact> 0.51361310E+06</totfact>
</mgrwt>
</event>
<event>
 3    1  0.1594457E-001  0.1250000E+03  0.7546771E-02  0.1235069E+00
         21   -1    0    0  502  501  0.00000000000E+00  0.00000000000E+00  0.87491748424E+02  0.87491748424E+02  0.00000000000E+00 0.  1.
         21   -1    0    0  501  502 -0.00000000000E+00 -0.00000000000E+00 -0.44647067528E+02  0.44647067528E+02  0.00000000000E+00 0.  1.
         25    1    1    2    0    0  0.00000000000E+00  0.00000000000E+00  0.42844680897E+02  0.13213881595E+03  0.12500000000E+03 0.  0.
<mgrwt>
<rscale>  0 0.12500000E+03</rscale>
<asrwt>0</asrwt>
<pdfrwt beam="1">  1       21 0.13460269E-01 0.12500000E+03</pdfrwt>
<pdfrwt beam="2">  1       21 0.68687796E-02 0.12500000E+03</pdfrwt>
<totfact> 0.73077615E+06</totfact>
</mgrwt>
</event>
<event>
 3    1  0.1594457E-001  0.1250000E+03  0.7546771E-02  0.1235069E+00
         21   -1    0    0  502  501  0.00000000000E+00  0.00000000000E+00  0.22830293839E+02  0.22830293839E+02  0.00000000000E+00 0. -1.
         21   -1    0    0  501  502 -0.00000000000E+00 -0.00000000000E+00 -0.17109941850E+03  0.17109941850E+03  0.00000000000E+00 0. -1.
         25    1    1    2    0    0  0.00000000000E+00  0.00000000000E+00 -0.14826912466E+03  0.19392971234E+03  0.12500000000E+03 0.  0.
<mgrwt>
<rscale>  0 0.12500000E+03</rscale>
<asrwt>0</asrwt>
<pdfrwt beam="1">  1       21 0.35123530E-02 0.12500000E+03</pdfrwt>
<pdfrwt beam="2">  1       21 0.26322987E-01 0.12500000E+03</pdfrwt>
<totfact> 0.65588353E+06</totfact>
</mgrwt>
</event>
<event>
 3    1  0.1594457E-001  0.1250000E+03  0.7546771E-02  0.1235069E+00
         21   -1    0    0  502  501  0.00000000000E+00  0.00000000000E+00  0.92568010232E+01  0.92568010232E+01  0.00000000000E+00 0. -1.
         21   -1    0    0  501  502 -0.00000000000E+00 -0.00000000000E+00 -0.42198703312E+03  0.42198703312E+03  0.00000000000E+00 0. -1.
         25    1    1    2    0    0  0.00000000000E+00  0.00000000000E+00 -0.41273023210E+03  0.43124383415E+03  0.12500000000E+03 0.  0.
<mgrwt>
<rscale>  0 0.12500000E+03</rscale>
<asrwt>0</asrwt>
<pdfrwt beam="1">  1       21 0.14241230E-02 0.12500000E+03</pdfrwt>
<pdfrwt beam="2">  1       21 0.64921095E-01 0.12500000E+03</pdfrwt>
<totfact> 0.46035745E+06</totfact>
</mgrwt>
</event>
<event>
 3    1  0.1594457E-001  0.1250000E+03  0.7546771E-02  0.1235069E+00
         21   -1    0    0  502  501  0.00000000000E+00  0.00000000000E+00  0.12525400065E+04  0.12525400065E+04  0.00000000000E+00 0. -1.
         21   -1    0    0  501  502 -0.00000000000E+00 -0.00000000000E+00 -0.31186628609E+01  0.31186628609E+01  0.00000000000E+00 0. -1.
         25    1    1    2    0    0  0.00000000000E+00  0.00000000000E+00  0.12494213436E+04  0.12556586693E+04  0.12500000000E+03 0.  0.
<mgrwt>
<rscale>  0 0.12500000E+03</rscale>
<asrwt>0</asrwt>
<pdfrwt beam="1">  1       21 0.19269806E+00 0.12500000E+03</pdfrwt>
<pdfrwt beam="2">  1       21 0.47979529E-03 0.12500000E+03</pdfrwt>
<totfact> 0.18067771E+06</totfact>
</mgrwt>
</event>
<event>
 3    1  0.1594457E-001  0.1250000E+03  0.7546771E-02  0.1235069E+00
         21   -1    0    0  502  501  0.00000000000E+00  0.00000000000E+00  0.33581423387E+03  0.33581423387E+03  0.00000000000E+00 0.  1.
         21   -1    0    0  501  502 -0.00000000000E+00 -0.00000000000E+00 -0.11632175191E+02  0.11632175191E+02  0.00000000000E+00 0.  1.
         25    1    1    2    0    0  0.00000000000E+00  0.00000000000E+00  0.32418205868E+03  0.34744640906E+03  0.12500000000E+03 0.  0.
<mgrwt>
<rscale>  0 0.12500000E+03</rscale>
<asrwt>0</asrwt>
<pdfrwt beam="1">  1       21 0.51663721E-01 0.12500000E+03</pdfrwt>
<pdfrwt beam="2">  1       21 0.17895657E-02 0.12500000E+03</pdfrwt>
<totfact> 0.51727579E+06</totfact>
</mgrwt>
</event>
<event>
 3    1  0.1594457E-001  0.1250000E+03  0.7546771E-02  0.1235069E+00
         21   -1    0    0  502  501  0.00000000000E+00  0.00000000000E+00  0.33673080041E+01  0.33673080041E+01  0.00000000000E+00 0. -1.
         21   -1    0    0  501  502 -0.00000000000E+00 -0.00000000000E+00 -0.11600512918E+04  0.11600512918E+04  0.00000000000E+00 0. -1.
         25    1    1    2    0    0  0.00000000000E+00  0.00000000000E+00 -0.11566839838E+04  0.11634185998E+04  0.12500000000E+03 0.  0.
<mgrwt>
<rscale>  0 0.12500000E+03</rscale>
<asrwt>0</asrwt>
<pdfrwt beam="1">  1       21 0.51804691E-03 0.12500000E+03</pdfrwt>
<pdfrwt beam="2">  1       21 0.17846959E+00 0.12500000E+03</pdfrwt>
<totfact> 0.19887966E+06</totfact>
</mgrwt>
</event>
<event>
 3    1  0.1594457E-001  0.1250000E+03  0.7546771E-02  0.1235069E+00
         21   -1    0    0  502  501  0.00000000000E+00  0.00000000000E+00  0.81591789166E+02  0.81591789166E+02  0.00000000000E+00 0.  1.
         21   -1    0    0  501  502 -0.00000000000E+00 -0.00000000000E+00 -0.47875528162E+02  0.47875528162E+02  0.00000000000E+00 0.  1.
         25    1    1    2    0    0  0.00000000000E+00  0.00000000000E+00  0.33716261005E+02  0.12946731733E+03  0.12500000000E+03 0.  0.
<mgrwt>
<rscale>  0 0.12500000E+03</rscale>
<asrwt>0</asrwt>
<pdfrwt beam="1">  1       21 0.12552583E-01 0.12500000E+03</pdfrwt>
<pdfrwt beam="2">  1       21 0.73654659E-02 0.12500000E+03</pdfrwt>
<totfact> 0.73436195E+06</totfact>
</mgrwt>
</event>
<event>
 3    1  0.1594457E-001  0.1250000E+03  0.7546771E-02  0.1235069E+00
         21   -1    0    0  502  501  0.00000000000E+00  0.00000000000E+00  0.33113701669E+01  0.33113701669E+01  0.00000000000E+00 0. -1.
         21   -1    0    0  501  502 -0.00000000000E+00 -0.00000000000E+00 -0.11796476392E+04  0.11796476392E+04  0.00000000000E+00 0. -1.
         25    1    1    2    0    0  0.00000000000E+00  0.00000000000E+00 -0.11763362691E+04  0.11829590094E+04  0.12500000000E+03 0.  0.
<mgrwt>
<rscale>  0 0.12500000E+03</rscale>
<asrwt>0</asrwt>
<pdfrwt beam="1">  1       21 0.50944144E-03 0.12500000E+03</pdfrwt>
<pdfrwt beam="2">  1       21 0.18148430E+00 0.12500000E+03</pdfrwt>
<totfact> 0.19486309E+06</totfact>
</mgrwt>
</event>
<event>
 3    1  0.1594457E-001  0.1250000E+03  0.7546771E-02  0.1235069E+00
         21   -1    0    0  502  501  0.00000000000E+00  0.00000000000E+00  0.17509766738E+02  0.17509766738E+02  0.00000000000E+00 0. -1.
         21   -1    0    0  501  502 -0.00000000000E+00 -0.00000000000E+00 -0.22308977946E+03  0.22308977946E+03  0.00000000000E+00 0. -1.
         25    1    1    2    0    0  0.00000000000E+00  0.00000000000E+00 -0.20558001272E+03  0.24059954620E+03  0.12500000000E+03 0.  0.
<mgrwt>
<rscale>  0 0.12500000E+03</rscale>
<asrwt>0</asrwt>
<pdfrwt beam="1">  1       21 0.26938106E-02 0.12500000E+03</pdfrwt>
<pdfrwt beam="2">  1       21 0.34321501E-01 0.12500000E+03</pdfrwt>
<totfact> 0.60774696E+06</totfact>
</mgrwt>
</event>
<event>
 3    1  0.1594457E-001  0.1250000E+03  0.7546771E-02  0.1235069E+00
         21   -1    0    0  502  501  0.00000000000E+00  0.00000000000E+00  0.32021993526E+02  0.32021993526E+02  0.00000000000E+00 0.  1.
         21   -1    0    0  501  502 -0.00000000000E+00 -0.00000000000E+00 -0.12198647148E+03  0.12198647148E+03  0.00000000000E+00 0.  1.
         25    1    1    2    0    0  0.00000000000E+00  0.00000000000E+00 -0.89964477956E+02  0.15400846501E+03  0.12500000000E+03 0.  0.
<mgrwt>
<rscale>  0 0.12500000E+03</rscale>
<asrwt>0</asrwt>
<pdfrwt beam="1">  1       21 0.49264605E-02 0.12500000E+03</pdfrwt>
<pdfrwt beam="2">  1       21 0.18767150E-01 0.12500000E+03</pdfrwt>
<totfact> 0.70259103E+06</totfact>
</mgrwt>
</event>
<event>
 3    1  0.1594457E-001  0.1250000E+03  0.7546771E-02  0.1235069E+00
         21   -1    0    0  502  501  0.00000000000E+00  0.00000000000E+00  0.19752319582E+04  0.19752319582E+04  0.00000000000E+00 0.  1.
         21   -1    0    0  501  502 -0.00000000000E+00 -0.00000000000E+00 -0.19776158358E+01  0.19776158358E+01  0.00000000000E+00 0.  1.
         25    1    1    2    0    0  0.00000000000E+00  0.00000000000E+00  0.19732543424E+04  0.19772095741E+04  0.12500000000E+03 0.  0.
<mgrwt>
<rscale>  0 0.12500000E+03</rscale>
<asrwt>0</asrwt>
<pdfrwt beam="1">  1       21 0.30388026E+00 0.12500000E+03</pdfrwt>
<pdfrwt beam="2">  1       21 0.30425017E-03 0.12500000E+03</pdfrwt>
<totfact> 0.81724905E+05</totfact>
</mgrwt>
</event>
<event>
 3    1  0.1594457E-001  0.1250000E+03  0.7546771E-02  0.1235069E+00
         21   -1    0    0  502  501  0.00000000000E+00  0.00000000000E+00  0.10055001346E+03  0.10055001346E+03  0.00000000000E+00 0. -1.
         21   -1    0    0  501  502 -0.00000000000E+00 -0.00000000000E+00 -0.38848826226E+02  0.38848826226E+02  0.00000000000E+00 0. -1.
         25    1    1    2    0    0  0.00000000000E+00  0.00000000000E+00  0.61701187235E+02  0.13939883969E+03  0.12500000000E+03 0.  0.
<mgrwt>
<rscale>  0 0.12500000E+03</rscale>
<asrwt>0</asrwt>
<pdfrwt beam="1">  1       21 0.15469233E-01 0.12500000E+03</pdfrwt>
<pdfrwt beam="2">  1       21 0.59767425E-02 0.12500000E+03</pdfrwt>
<totfact> 0.72117886E+06</totfact>
</mgrwt>
</event>
<event>
 3    1  0.1594457E-001  0.1250000E+03  0.7546771E-02  0.1235069E+00
         21   -1    0    0  502  501  0.00000000000E+00  0.00000000000E+00  0.12185160201E+02  0.12185160201E+02  0.00000000000E+00 0. -1.
         21   -1    0    0  501  502 -0.00000000000E+00 -0.00000000000E+00 -0.32057436551E+03  0.32057436551E+03  0.00000000000E+00 0. -1.
         25    1    1    2    0    0  0.00000000000E+00  0.00000000000E+00 -0.30838920531E+03  0.33275952571E+03  0.12500000000E+03 0.  0.
<mgrwt>
<rscale>  0 0.12500000E+03</rscale>
<asrwt>0</asrwt>
<pdfrwt beam="1">  1       21 0.18746402E-02 0.12500000E+03</pdfrwt>
<pdfrwt beam="2">  1       21 0.49319128E-01 0.12500000E+03</pdfrwt>
<totfact> 0.52837458E+06</totfact>
</mgrwt>
</event>
<event>
 3    1  0.1594457E-001  0.1250000E+03  0.7546771E-02  0.1235069E+00
         21   -1    0    0  502  501  0.00000000000E+00  0.00000000000E+00  0.36752765661E+03  0.36752765661E+03  0.00000000000E+00 0.  1.
         21   -1    0    0  501  502 -0.00000000000E+00 -0.00000000000E+00 -0.10628451845E+02  0.10628451845E+02  0.00000000000E+00 0.  1.
         25    1    1    2    0    0  0.00000000000E+00  0.00000000000E+00  0.35689920477E+03  0.37815610846E+03  0.12500000000E+03 0.  0.
<mgrwt>
<rscale>  0 0.12500000E+03</rscale>
<asrwt>0</asrwt>
<pdfrwt beam="1">  1       21 0.56542707E-01 0.12500000E+03</pdfrwt>
<pdfrwt beam="2">  1       21 0.16351467E-02 0.12500000E+03</pdfrwt>
<totfact> 0.49523910E+06</totfact>
</mgrwt>
</event>
<event>
 3    1  0.1594457E-001  0.1250000E+03  0.7546771E-02  0.1235069E+00
         21   -1    0    0  502  501  0.00000000000E+00  0.00000000000E+00  0.78957000821E+03  0.78957000821E+03  0.00000000000E+00 0. -1.
         21   -1    0    0  501  502 -0.00000000000E+00 -0.00000000000E+00 -0.49473130430E+01  0.49473130430E+01  0.00000000000E+00 0. -1.
         25    1    1    2    0    0  0.00000000000E+00  0.00000000000E+00  0.78462269516E+03  0.79451732125E+03  0.12500000000E+03 0.  0.
<mgrwt>
<rscale>  0 0.12500000E+03</rscale>
<asrwt>0</asrwt>
<pdfrwt beam="1">  1       21 0.12147221E+00 0.12500000E+03</pdfrwt>
<pdfrwt beam="2">  1       21 0.76112571E-03 0.12500000E+03</pdfrwt>
<totfact> 0.29545301E+06</totfact>
</mgrwt>
</event>
<event>
 3    1  0.1594457E-001  0.1250000E+03  0.7546771E-02  0.1235069E+00
         21   -1    0    0  502  501  0.00000000000E+00  0.00000000000E+00  0.49421991352E+01  0.49421991352E+01  0.00000000000E+00 0.  1.
         21   -1    0    0  501  502 -0.00000000000E+00 -0.00000000000E+00 -0.79038701055E+03  0.79038701055E+03  0.00000000000E+00 0.  1.
         25    1    1    2    0    0  0.00000000000E+00  0.00000000000E+00 -0.78544481142E+03  0.79532920969E+03  0.12500000000E+03 0.  0.
<mgrwt>
<rscale>  0 0.12500000E+03</rscale>
<asrwt>0</asrwt>
<pdfrwt beam="1">  1       21 0.76033843E-03 0.12500000E+03</pdfrwt>
<pdfrwt beam="2">  1       21 0.12159799E+00 0.12500000E+03</pdfrwt>
<totfact> 0.29518161E+06</totfact>
</mgrwt>
</event>
<event>
 3    1  0.1594457E-001  0.1250000E+03  0.7546771E-02  0.1235069E+00
         21   -1    0    0  502  501  0.00000000000E+00  0.00000000000E+00  0.12418580184E+03  0.12418580184E+03  0.00000000000E+00 0. -1.
         21   -1    0    0  501  502 -0.00000000000E+00 -0.00000000000E+00 -0.31454884069E+02  0.31454884069E+02  0.00000000000E+00 0. -1.
         25    1    1    2    0    0  0.00000000000E+00  0.00000000000E+00  0.92730917774E+02  0.15564068591E+03  0.12500000000E+03 0.  0.
<mgrwt>
<rscale>  0 0.12500000E+03</rscale>
<asrwt>0</asrwt>
<pdfrwt beam="1">  1       21 0.19105508E-01 0.12500000E+03</pdfrwt>
<pdfrwt beam="2">  1       21 0.48392130E-02 0.12500000E+03</pdfrwt>
<totfact> 0.70056117E+06</totfact>
</mgrwt>
</event>
<event>
 3    1  0.1594457E-001  0.1250000E+03  0.7546771E-02  0.1235069E+00
         21   -1    0    0  502  501  0.00000000000E+00  0.00000000000E+00  0.19703921818E+02  0.19703921818E+02  0.00000000000E+00 0. -1.
         21   -1    0    0  501  502 -0.00000000000E+00 -0.00000000000E+00 -0.19824733553E+03  0.19824733553E+03  0.00000000000E+00 0. -1.
         25    1    1    2    0    0  0.00000000000E+00  0.00000000000E+00 -0.17854341372E+03  0.21795125735E+03  0.12500000000E+03 0.  0.
<mgrwt>
<rscale>  0 0.12500000E+03</rscale>
<asrwt>0</asrwt>
<pdfrwt beam="1">  1       21 0.30313727E-02 0.12500000E+03</pdfrwt>
<pdfrwt beam="2">  1       21 0.30499589E-01 0.12500000E+03</pdfrwt>
<totfact> 0.63032561E+06</totfact>
</mgrwt>
</event>
<event>
 3    1  0.1594457E-001  0.1250000E+03  0.7546771E-02  0.1235069E+00
         21   -1    0    0  502  501  0.00000000000E+00  0.00000000000E+00  0.58949038938E+01  0.58949038938E+01  0.00000000000E+00 0.  1.
         21   -1    0    0  501  502 -0.00000000000E+00 -0.00000000000E+00 -0.66264863183E+03  0.66264863183E+03  0.00000000000E+00 0.  1.
         25    1    1    2    0    0  0.00000000000E+00  0.00000000000E+00 -0.65675372794E+03  0.66854353572E+03  0.12500000000E+03 0.  0.
<mgrwt>
<rscale>  0 0.12500000E+03</rscale>
<asrwt>0</asrwt>
<pdfrwt beam="1">  1       21 0.90690843E-03 0.12500000E+03</pdfrwt>
<pdfrwt beam="2">  1       21 0.10194593E+00 0.12500000E+03</pdfrwt>
<totfact> 0.34158501E+06</totfact>
</mgrwt>
</event>
<event>
 3    1  0.1594457E-001  0.1250000E+03  0.7546771E-02  0.1235069E+00
         21   -1    0    0  502  501  0.00000000000E+00  0.00000000000E+00  0.23578730946E+02  0.23578730946E+02  0.00000000000E+00 0.  1.
         21   -1    0    0  501  502 -0.00000000000E+00 -0.00000000000E+00 -0.16566837329E+03  0.16566837329E+03  0.00000000000E+00 0.  1.
         25    1    1    2    0    0  0.00000000000E+00  0.00000000000E+00 -0.14208964234E+03  0.18924710423E+03  0.12500000000E+03 0.  0.
<mgrwt>
<rscale>  0 0.12500000E+03</rscale>
<asrwt>0</asrwt>
<pdfrwt beam="1">  1       21 0.36274970E-02 0.12500000E+03</pdfrwt>
<pdfrwt beam="2">  1       21 0.25487442E-01 0.12500000E+03</pdfrwt>
<totfact> 0.66106239E+06</totfact>
</mgrwt>
</event>
<event>
 3    1  0.1594457E-001  0.1250000E+03  0.7546771E-02  0.1235069E+00
         21   -1    0    0  502  501  0.00000000000E+00  0.00000000000E+00  0.14163823351E+03  0.14163823351E+03  0.00000000000E+00 0. -1.
         21   -1    0    0  501  502 -0.00000000000E+00 -0.00000000000E+00 -0.27579064658E+02  0.27579064658E+02  0.00000000000E+00 0. -1.
         25    1    1    2    0    0  0.00000000000E+00  0.00000000000E+00  0.11405916885E+03  0.16921729817E+03  0.12500000000E+03 0.  0.
<mgrwt>
<rscale>  0 0.12500000E+03</rscale>
<asrwt>0</asrwt>
<pdfrwt beam="1">  1       21 0.21790497E-01 0.12500000E+03</pdfrwt>
<pdfrwt beam="2">  1       21 0.42429331E-02 0.12500000E+03</pdfrwt>
<totfact> 0.68410412E+06</totfact>
</mgrwt>
</event>
<event>
 3    1  0.1594457E-001  0.1250000E+03  0.7546771E-02  0.1235069E+00
         21   -1    0    0  502  501  0.00000000000E+00  0.00000000000E+00  0.15644924030E+02  0.15644924030E+02  0.00000000000E+00 0. -1.
         21   -1    0    0  501  502 -0.00000000000E+00 -0.00000000000E+00 -0.24968162150E+03  0.24968162150E+03  0.00000000000E+00 0. -1.
         25    1    1    2    0    0  0.00000000000E+00  0.00000000000E+00 -0.23403669747E+03  0.26532654553E+03  0.12500000000E+03 0.  0.
<mgrwt>
<rscale>  0 0.12500000E+03</rscale>
<asrwt>0</asrwt>
<pdfrwt beam="1">  1       21 0.24069113E-02 0.12500000E+03</pdfrwt>
<pdfrwt beam="2">  1       21 0.38412558E-01 0.12500000E+03</pdfrwt>
<totfact> 0.58464478E+06</totfact>
</mgrwt>
</event>
<event>
 3    1  0.1594457E-001  0.1250000E+03  0.7546771E-02  0.1235069E+00
         21   -1    0    0  502  501  0.00000000000E+00  0.00000000000E+00  0.12864814082E+03  0.12864814082E+03  0.00000000000E+00 0. -1.
         21   -1    0    0  501  502 -0.00000000000E+00 -0.00000000000E+00 -0.30363827841E+02  0.30363827841E+02  0.00000000000E+00 0. -1.
         25    1    1    2    0    0  0.00000000000E+00  0.00000000000E+00  0.98284312982E+02  0.15901196866E+03  0.12500000000E+03 0.  0.
<mgrwt>
<rscale>  0 0.12500000E+03</rscale>
<asrwt>0</asrwt>
<pdfrwt beam="1">  1       21 0.19792021E-01 0.12500000E+03</pdfrwt>
<pdfrwt beam="2">  1       21 0.46713582E-02 0.12500000E+03</pdfrwt>
<totfact> 0.69640425E+06</totfact>
</mgrwt>
</event>
<event>
 3    1  0.1594457E-001  0.1250000E+03  0.7546771E-02  0.1235069E+00
         21   -1    0    0  502  501  0.00000000000E+00  0.00000000000E+00  0.66032678198E+02  0.66032678198E+02  0.00000000000E+00 0.  1.
         21   -1    0    0  501  502 -0.00000000000E+00 -0.00000000000E+00 -0.59156316336E+02  0.59156316336E+02  0.00000000000E+00 0.  1.
         25    1    1    2    0    0  0.00000000000E+00  0.00000000000E+00  0.68763618620E+01  0.12518899453E+03  0.12500000000E+03 0.  0.
<mgrwt>
<rscale>  0 0.12500000E+03</rscale>
<asrwt>0</asrwt>
<pdfrwt beam="1">  1       21 0.10158874E-01 0.12500000E+03</pdfrwt>
<pdfrwt beam="2">  1       21 0.91009717E-02 0.12500000E+03</pdfrwt>
<totfact> 0.74018058E+06</totfact>
</mgrwt>
</event>
<event>
 3    1  0.1594457E-001  0.1250000E+03  0.7546771E-02  0.1235069E+00
         21   -1    0    0  502  501  0.00000000000E+00  0.00000000000E+00  0.47710203863E+03  0.47710203863E+03  0.00000000000E+00 0.  1.
         21   -1    0    0  501  502 -0.00000000000E+00 -0.00000000000E+00 -0.81874519154E+01  0.81874519154E+01  0.00000000000E+00 0.  1.
         25    1    1    2    0    0  0.00000000000E+00  0.00000000000E+00  0.46891458671E+03  0.48528949055E+03  0.12500000000E+03 0.  0.
<mgrwt>
<rscale>  0 0.12500000E+03</rscale>
<asrwt>0</asrwt>
<pdfrwt beam="1">  1       21 0.73400292E-01 0.12500000E+03</pdfrwt>
<pdfrwt beam="2">  1       21 0.12596084E-02 0.12500000E+03</pdfrwt>
<totfact> 0.42853265E+06</totfact>
</mgrwt>
</event>
<event>
 3    1  0.1594457E-001  0.1250000E+03  0.7546771E-02  0.1235069E+00
         21   -1    0    0  502  501  0.00000000000E+00  0.00000000000E+00  0.16727464263E+02  0.16727464263E+02  0.00000000000E+00 0. -1.
         21   -1    0    0  501  502 -0.00000000000E+00 -0.00000000000E+00 -0.23352314126E+03  0.23352314126E+03  0.00000000000E+00 0. -1.
         25    1    1    2    0    0  0.00000000000E+00  0.00000000000E+00 -0.21679567700E+03  0.25025060553E+03  0.12500000000E+03 0.  0.
<mgrwt>
<rscale>  0 0.12500000E+03</rscale>
<asrwt>0</asrwt>
<pdfrwt beam="1">  1       21 0.25734562E-02 0.12500000E+03</pdfrwt>
<pdfrwt beam="2">  1       21 0.35926635E-01 0.12500000E+03</pdfrwt>
<totfact> 0.59854604E+06</totfact>
</mgrwt>
</event>
<event>
 3    1  0.1594457E-001  0.1250000E+03  0.7546771E-02  0.1235069E+00
         21   -1    0    0  502  501  0.00000000000E+00  0.00000000000E+00  0.38795745507E+02  0.38795745507E+02  0.00000000000E+00 0.  1.
         21   -1    0    0  501  502 -0.00000000000E+00 -0.00000000000E+00 -0.10068758698E+03  0.10068758698E+03  0.00000000000E+00 0.  1.
         25    1    1    2    0    0  0.00000000000E+00  0.00000000000E+00 -0.61891841469E+02  0.13948333248E+03  0.12500000000E+03 0.  0.
<mgrwt>
<rscale>  0 0.12500000E+03</rscale>
<asrwt>0</asrwt>
<pdfrwt beam="1">  1       21 0.59685764E-02 0.12500000E+03</pdfrwt>
<pdfrwt beam="2">  1       21 0.15490398E-01 0.12500000E+03</pdfrwt>
<totfact> 0.72106830E+06</totfact>
</mgrwt>
</event>
<event>
 3    1  0.1594457E-001  0.1250000E+03  0.7546771E-02  0.1235069E+00
         21   -1    0    0  502  501  0.00000000000E+00  0.00000000000E+00  0.22813562313E+03  0.22813562313E+03  0.00000000000E+00 0.  1.
         21   -1    0    0  501  502 -0.00000000000E+00 -0.00000000000E+00 -0.17122490326E+02  0.17122490326E+02  0.00000000000E+00 0.  1.
         25    1    1    2    0    0  0.00000000000E+00  0.00000000000E+00  0.21101313281E+03  0.24525811346E+03  0.12500000000E+03 0.  0.
<mgrwt>
<rscale>  0 0.12500000E+03</rscale>
<asrwt>0</asrwt>
<pdfrwt beam="1">  1       21 0.35097786E-01 0.12500000E+03</pdfrwt>
<pdfrwt beam="2">  1       21 0.26342294E-02 0.12500000E+03</pdfrwt>
<totfact> 0.60327527E+06</totfact>
</mgrwt>
</event>
<event>
 3    1  0.1594457E-001  0.1250000E+03  0.7546771E-02  0.1235069E+00
         21   -1    0    0  502  501  0.00000000000E+00  0.00000000000E+00  0.84500738231E+01  0.84500738231E+01  0.00000000000E+00 0. -1.
         21   -1    0    0  501  502 -0.00000000000E+00 -0.00000000000E+00 -0.46227406787E+03  0.46227406787E+03  0.00000000000E+00 0. -1.
         25    1    1    2    0    0  0.00000000000E+00  0.00000000000E+00 -0.45382399404E+03  0.47072414169E+03  0.12500000000E+03 0.  0.
<mgrwt>
<rscale>  0 0.12500000E+03</rscale>
<asrwt>0</asrwt>
<pdfrwt beam="1">  1       21 0.13000111E-02 0.12500000E+03</pdfrwt>
<pdfrwt beam="2">  1       21 0.71119100E-01 0.12500000E+03</pdfrwt>
<totfact> 0.43677598E+06</totfact>
</mgrwt>
</event>
<event>
 3    1  0.1594457E-001  0.1250000E+03  0.7546771E-02  0.1235069E+00
         21   -1    0    0  502  501  0.00000000000E+00  0.00000000000E+00  0.96303929488E+01  0.96303929488E+01  0.00000000000E+00 0.  1.
         21   -1    0    0  501  502 -0.00000000000E+00 -0.00000000000E+00 -0.40561688612E+03  0.40561688612E+03  0.00000000000E+00 0.  1.
         25    1    1    2    0    0  0.00000000000E+00  0.00000000000E+00 -0.39598649317E+03  0.41524727907E+03  0.12500000000E+03 0.  0.
<mgrwt>
<rscale>  0 0.12500000E+03</rscale>
<asrwt>0</asrwt>
<pdfrwt beam="1">  1       21 0.14815989E-02 0.12500000E+03</pdfrwt>
<pdfrwt beam="2">  1       21 0.62402598E-01 0.12500000E+03</pdfrwt>
<totfact> 0.47046190E+06</totfact>
</mgrwt>
</event>
<event>
 3    1  0.1594457E-001  0.1250000E+03  0.7546771E-02  0.1235069E+00
         21   -1    0    0  502  501  0.00000000000E+00  0.00000000000E+00  0.12541197252E+02  0.12541197252E+02  0.00000000000E+00 0. -1.
         21   -1    0    0  501  502 -0.00000000000E+00 -0.00000000000E+00 -0.31147345197E+03  0.31147345197E+03  0.00000000000E+00 0. -1.
         25    1    1    2    0    0  0.00000000000E+00  0.00000000000E+00 -0.29893225472E+03  0.32401464922E+03  0.12500000000E+03 0.  0.
<mgrwt>
<rscale>  0 0.12500000E+03</rscale>
<asrwt>0</asrwt>
<pdfrwt beam="1">  1       21 0.19294150E-02 0.12500000E+03</pdfrwt>
<pdfrwt beam="2">  1       21 0.47918991E-01 0.12500000E+03</pdfrwt>
<totfact> 0.53516729E+06</totfact>
</mgrwt>
</event>
<event>
 3    1  0.1594457E-001  0.1250000E+03  0.7546771E-02  0.1235069E+00
         21   -1    0    0  502  501  0.00000000000E+00  0.00000000000E+00  0.78844939772E+01  0.78844939772E+01  0.00000000000E+00 0.  1.
         21   -1    0    0  501  502 -0.00000000000E+00 -0.00000000000E+00 -0.49543445797E+03  0.49543445797E+03  0.00000000000E+00 0.  1.
         25    1    1    2    0    0  0.00000000000E+00  0.00000000000E+00 -0.48754996400E+03  0.50331895195E+03  0.12500000000E+03 0.  0.
<mgrwt>
<rscale>  0 0.12500000E+03</rscale>
<asrwt>0</asrwt>
<pdfrwt beam="1">  1       21 0.12129992E-02 0.12500000E+03</pdfrwt>
<pdfrwt beam="2">  1       21 0.76220676E-01 0.12500000E+03</pdfrwt>
<totfact> 0.41864650E+06</totfact>
</mgrwt>
</event>
<event>
 3    1  0.1594457E-001  0.1250000E+03  0.7546771E-02  0.1235069E+00
         21   -1    0    0  502  501  0.00000000000E+00  0.00000000000E+00  0.22383256831E+02  0.22383256831E+02  0.00000000000E+00 0.  1.
         21   -1    0    0  501  502 -0.00000000000E+00 -0.00000000000E+00 -0.17451660540E+03  0.17451660540E+03  0.00000000000E+00 0.  1.
         25    1    1    2    0    0  0.00000000000E+00  0.00000000000E+00 -0.15213334857E+03  0.19689986223E+03  0.12500000000E+03 0.  0.
<mgrwt>
<rscale>  0 0.12500000E+03</rscale>
<asrwt>0</asrwt>
<pdfrwt beam="1">  1       21 0.34435778E-02 0.12500000E+03</pdfrwt>
<pdfrwt beam="2">  1       21 0.26848709E-01 0.12500000E+03</pdfrwt>
<totfact> 0.65263686E+06</totfact>
</mgrwt>
</event>
<event>
 3    1  0.1594457E-001  0.1250000E+03  0.7546771E-02  0.1235069E+00
         21   -1    0    0  502  501  0.00000000000E+00  0.00000000000E+00  0.11024010260E+03  0.11024010260E+03  0.00000000000E+00 0.  1.
         21   -1    0    0  501  502 -0.00000000000E+00 -0.00000000000E+00 -0.35434019996E+02  0.35434019996E+02  0.00000000000E+00 0.  1.
         25    1    1    2    0    0  0.00000000000E+00  0.00000000000E+00  0.74806082607E+02  0.14567412260E+03  0.12500000000E+03 0.  0.
<mgrwt>
<rscale>  0 0.12500000E+03</rscale>
<asrwt>0</asrwt>
<pdfrwt beam="1">  1       21 0.16960016E-01 0.12500000E+03</pdfrwt>
<pdfrwt beam="2">  1       21 0.54513877E-02 0.12500000E+03</pdfrwt>
<totfact> 0.71306939E+06</totfact>
</mgrwt>
</event>
<event>
 3    1  0.1594457E-001  0.1250000E+03  0.7546771E-02  0.1235069E+00
         21   -1    0    0  502  501  0.00000000000E+00  0.00000000000E+00  0.12776531319E+02  0.12776531319E+02  0.00000000000E+00 0.  1.
         21   -1    0    0  501  502 -0.00000000000E+00 -0.00000000000E+00 -0.30573634599E+03  0.30573634599E+03  0.00000000000E+00 0.  1.
         25    1    1    2    0    0  0.00000000000E+00  0.00000000000E+00 -0.29295981467E+03  0.31851287731E+03  0.12500000000E+03 0.  0.
<mgrwt>
<rscale>  0 0.12500000E+03</rscale>
<asrwt>0</asrwt>
<pdfrwt beam="1">  1       21 0.19656203E-02 0.12500000E+03</pdfrwt>
<pdfrwt beam="2">  1       21 0.47036359E-01 0.12500000E+03</pdfrwt>
<totfact> 0.53951401E+06</totfact>
</mgrwt>
</event>
<event>
 3    1  0.1594457E-001  0.1250000E+03  0.7546771E-02  0.1235069E+00
         21   -1    0    0  502  501  0.00000000000E+00  0.00000000000E+00  0.74306830137E+02  0.74306830137E+02  0.00000000000E+00 0. -1.
         21   -1    0    0  501  502 -0.00000000000E+00 -0.00000000000E+00 -0.52569191726E+02  0.52569191726E+02  0.00000000000E+00 0. -1.
         25    1    1    2    0    0  0.00000000000E+00  0.00000000000E+00  0.21737638410E+02  0.12687602186E+03  0.12500000000E+03 0.  0.
<mgrwt>
<rscale>  0 0.12500000E+03</rscale>
<asrwt>0</asrwt>
<pdfrwt beam="1">  1       21 0.11431820E-01 0.12500000E+03</pdfrwt>
<pdfrwt beam="2">  1       21 0.80875680E-02 0.12500000E+03</pdfrwt>
<totfact> 0.73786023E+06</totfact>
</mgrwt>
</event>
<event>
 3    1  0.1594457E-001  0.1250000E+03  0.7546771E-02  0.1235069E+00
         21   -1    0    0  502  501  0.00000000000E+00  0.00000000000E+00  0.67907276086E+01  0.67907276086E+01  0.00000000000E+00 0.  1.
         21   -1    0    0  501  502 -0.00000000000E+00 -0.00000000000E+00 -0.57523290952E+03  0.57523290952E+03  0.00000000000E+00 0.  1.
         25    1    1    2    0    0  0.00000000000E+00  0.00000000000E+00 -0.56844218191E+03  0.58202363712E+03  0.12500000000E+03 0.  0.
<mgrwt>
<rscale>  0 0.12500000E+03</rscale>
<asrwt>0</asrwt>
<pdfrwt beam="1">  1       21 0.10447274E-02 0.12500000E+03</pdfrwt>
<pdfrwt beam="2">  1       21 0.88497367E-01 0.12500000E+03</pdfrwt>
<totfact> 0.37918416E+06</totfact>
</mgrwt>
</event>
<event>
 3    1  0.1594457E-001  0.1250000E+03  0.7546771E-02  0.1235069E+00
         21   -1    0    0  502  501  0.00000000000E+00  0.00000000000E+00  0.66970235053E+03  0.66970235053E+03  0.00000000000E+00 0.  1.
         21   -1    0    0  501  502 -0.00000000000E+00 -0.00000000000E+00 -0.58328151259E+01  0.58328151259E+01  0.00000000000E+00 0.  1.
         25    1    1    2    0    0  0.00000000000E+00  0.00000000000E+00  0.66386953540E+03  0.67553516565E+03  0.12500000000E+03 0.  0.
<mgrwt>
<rscale>  0 0.12500000E+03</rscale>
<asrwt>0</asrwt>
<pdfrwt beam="1">  1       21 0.10303107E+00 0.12500000E+03</pdfrwt>
<pdfrwt beam="2">  1       21 0.89735670E-03 0.12500000E+03</pdfrwt>
<totfact> 0.33874867E+06</totfact>
</mgrwt>
</event>
<event>
 3    1  0.1594457E-001  0.1250000E+03  0.7546771E-02  0.1235069E+00
         21   -1    0    0  502  501  0.00000000000E+00  0.00000000000E+00  0.12925481435E+03  0.12925481435E+03  0.00000000000E+00 0. -1.
         21   -1    0    0  501  502 -0.00000000000E+00 -0.00000000000E+00 -0.30221311443E+02  0.30221311443E+02  0.00000000000E+00 0. -1.
         25    1    1    2    0    0  0.00000000000E+00  0.00000000000E+00  0.99033502908E+02  0.15947612579E+03  0.12500000000E+03 0.  0.
<mgrwt>
<rscale>  0 0.12500000E+03</rscale>
<asrwt>0</asrwt>
<pdfrwt beam="1">  1       21 0.19885356E-01 0.12500000E+03</pdfrwt>
<pdfrwt beam="2">  1       21 0.46494326E-02 0.12500000E+03</pdfrwt>
<totfact> 0.69583564E+06</totfact>
</mgrwt>
</event>
<event>
 3    1  0.1594457E-001  0.1250000E+03  0.7546771E-02  0.1235069E+00
         21   -1    0    0  502  501  0.00000000000E+00  0.00000000000E+00  0.33957446014E+03  0.33957446014E+03  0.00000000000E+00 0.  1.
         21   -1    0    0  501  502 -0.00000000000E+00 -0.00000000000E+00 -0.11503368063E+02  0.11503368063E+02  0.00000000000E+00 0.  1.
         25    1    1    2    0    0  0.00000000000E+00  0.00000000000E+00  0.32807109208E+03  0.35107782821E+03  0.12500000000E+03 0.  0.
<mgrwt>
<rscale>  0 0.12500000E+03</rscale>
<asrwt>0</asrwt>
<pdfrwt beam="1">  1       21 0.52242217E-01 0.12500000E+03</pdfrwt>
<pdfrwt beam="2">  1       21 0.17697492E-02 0.12500000E+03</pdfrwt>
<totfact> 0.51458933E+06</totfact>
</mgrwt>
</event>
<event>
 3    1  0.1594457E-001  0.1250000E+03  0.7546771E-02  0.1235069E+00
         21   -1    0    0  502  501  0.00000000000E+00  0.00000000000E+00  0.93933314416E+02  0.93933314416E+02  0.00000000000E+00 0.  1.
         21   -1    0    0  501  502 -0.00000000000E+00 -0.00000000000E+00 -0.41585352591E+02  0.41585352591E+02  0.00000000000E+00 0.  1.
         25    1    1    2    0    0  0.00000000000E+00  0.00000000000E+00  0.52347961825E+02  0.13551866701E+03  0.12500000000E+03 0.  0.
<mgrwt>
<rscale>  0 0.12500000E+03</rscale>
<asrwt>0</asrwt>
<pdfrwt beam="1">  1       21 0.14451279E-01 0.12500000E+03</pdfrwt>
<pdfrwt beam="2">  1       21 0.63977466E-02 0.12500000E+03</pdfrwt>
<totfact> 0.72627870E+06</totfact>
</mgrwt>
</event>
<event>
 3    1  0.1594457E-001  0.1250000E+03  0.7546771E-02  0.1235069E+00
         21   -1    0    0  502  501  0.00000000000E+00  0.00000000000E+00  0.12580947346E+03  0.12580947346E+03  0.00000000000E+00 0. -1.
         21   -1    0    0  501  502 -0.00000000000E+00 -0.00000000000E+00 -0.31048933698E+02  0.31048933698E+02  0.00000000000E+00 0. -1.
         25    1    1    2    0    0  0.00000000000E+00  0.00000000000E+00  0.94760539762E+02  0.15685840716E+03  0.12500000000E+03 0.  0.
<mgrwt>
<rscale>  0 0.12500000E+03</rscale>
<asrwt>0</asrwt>
<pdfrwt beam="1">  1       21 0.19355303E-01 0.12500000E+03</pdfrwt>
<pdfrwt beam="2">  1       21 0.47767591E-02 0.12500000E+03</pdfrwt>
<totfact> 0.69905416E+06</totfact>
</mgrwt>
</event>
<event>
 3    1  0.1594457E-001  0.1250000E+03  0.7546771E-02  0.1235069E+00
         21   -1    0    0  502  501  0.00000000000E+00  0.00000000000E+00  0.58121243668E+03  0.58121243668E+03  0.00000000000E+00 0. -1.
         21   -1    0    0  501  502 -0.00000000000E+00 -0.00000000000E+00 -0.67208644438E+01  0.67208644438E+01  0.00000000000E+00 0. -1.
         25    1    1    2    0    0  0.00000000000E+00  0.00000000000E+00  0.57449157224E+03  0.58793330113E+03  0.12500000000E+03 0.  0.
<mgrwt>
<rscale>  0 0.12500000E+03</rscale>
<asrwt>0</asrwt>
<pdfrwt beam="1">  1       21 0.89417258E-01 0.12500000E+03</pdfrwt>
<pdfrwt beam="2">  1       21 0.10339796E-02 0.12500000E+03</pdfrwt>
<totfact> 0.37644091E+06</totfact>
</mgrwt>
</event>
<event>
 3    1  0.1594457E-001  0.1250000E+03  0.7546771E-02  0.1235069E+00
         21   -1    0    0  502  501  0.00000000000E+00  0.00000000000E+00  0.20443853402E+03  0.20443853402E+03  0.00000000000E+00 0. -1.
         21   -1    0    0  501  502 -0.00000000000E+00 -0.00000000000E+00 -0.19107209992E+02  0.19107209992E+02  0.00000000000E+00 0. -1.
         25    1    1    2    0    0  0.00000000000E+00  0.00000000000E+00  0.18533132403E+03  0.22354574401E+03  0.12500000000E+03 0.  0.
<mgrwt>
<rscale>  0 0.12500000E+03</rscale>
<asrwt>0</asrwt>
<pdfrwt beam="1">  1       21 0.31452081E-01 0.12500000E+03</pdfrwt>
<pdfrwt beam="2">  1       21 0.29395709E-02 0.12500000E+03</pdfrwt>
<totfact> 0.62461942E+06</totfact>
</mgrwt>
</event>
<event>
 3    1  0.1594457E-001  0.1250000E+03  0.7546771E-02  0.1235069E+00
         21   -1    0    0  502  501  0.00000000000E+00  0.00000000000E+00  0.44632426974E+02  0.44632426974E+02  0.00000000000E+00 0.  1.
         21   -1    0    0  501  502 -0.00000000000E+00 -0.00000000000E+00 -0.87520447909E+02  0.87520447909E+02  0.00000000000E+00 0.  1.
         25    1    1    2    0    0  0.00000000000E+00  0.00000000000E+00 -0.42888020935E+02  0.13215287488E+03  0.12500000000E+03 0.  0.
<mgrwt>
<rscale>  0 0.12500000E+03</rscale>
<asrwt>0</asrwt>
<pdfrwt beam="1">  1       21 0.68665273E-02 0.12500000E+03</pdfrwt>
<pdfrwt beam="2">  1       21 0.13464684E-01 0.12500000E+03</pdfrwt>
<totfact> 0.73075731E+06</totfact>
</mgrwt>
</event>
<event>
 3    1  0.1594457E-001  0.1250000E+03  0.7546771E-02  0.1235069E+00
         21   -1    0    0  502  501  0.00000000000E+00  0.00000000000E+00  0.39759369532E+03  0.39759369532E+03  0.00000000000E+00 0.  1.
         21   -1    0    0  501  502 -0.00000000000E+00 -0.00000000000E+00 -0.98247282237E+01  0.98247282237E+01  0.00000000000E+00 0.  1.
         25    1    1    2    0    0  0.00000000000E+00  0.00000000000E+00  0.38776896710E+03  0.40741842355E+03  0.12500000000E+03 0.  0.
<mgrwt>
<rscale>  0 0.12500000E+03</rscale>
<asrwt>0</asrwt>
<pdfrwt beam="1">  1       21 0.61168249E-01 0.12500000E+03</pdfrwt>
<pdfrwt beam="2">  1       21 0.15114970E-02 0.12500000E+03</pdfrwt>
<totfact> 0.47553161E+06</totfact>
</mgrwt>
</event>
<event>
 3    1  0.1594457E-001  0.1250000E+03  0.7546771E-02  0.1235069E+00
         21   -1    0    0  502  501  0.00000000000E+00  0.00000000000E+00  0.18019598129E+02  0.18019598129E+02  0.00000000000E+00 0. -1.
         21   -1    0    0  501  502 -0.00000000000E+00 -0.00000000000E+00 -0.21677786441E+03  0.21677786441E+03  0.00000000000E+00 0. -1.
         25    1    1    2    0    0  0.00000000000E+00  0.00000000000E+00 -0.19875826628E+03  0.23479746254E+03  0.12500000000E+03 0.  0.
<mgrwt>
<rscale>  0 0.12500000E+03</rscale>
<asrwt>0</asrwt>
<pdfrwt beam="1">  1       21 0.27722459E-02 0.12500000E+03</pdfrwt>
<pdfrwt beam="2">  1       21 0.33350440E-01 0.12500000E+03</pdfrwt>
<totfact> 0.61339764E+06</totfact>
</mgrwt>
</event>
<event>
 3    1  0.1594457E-001  0.1250000E+03  0.7546771E-02  0.1235069E+00
         21   -1    0    0  502  501  0.00000000000E+00  0.00000000000E+00  0.84096586175E+03  0.84096586175E+03  0.00000000000E+00 0. -1.
         21   -1    0    0  501  502 -0.00000000000E+00 -0.00000000000E+00 -0.46449566834E+01  0.46449566834E+01  0.00000000000E+00 0. -1.
         25    1    1    2    0    0  0.00000000000E+00  0.00000000000E+00  0.83632090507E+03  0.84561081843E+03  0.12500000000E+03 0.  0.
<mgrwt>
<rscale>  0 0.12500000E+03</rscale>
<asrwt>0</asrwt>
<pdfrwt beam="1">  1       21 0.12937924E+00 0.12500000E+03</pdfrwt>
<pdfrwt beam="2">  1       21 0.71460939E-03 0.12500000E+03</pdfrwt>
<totfact> 0.27906305E+06</totfact>
</mgrwt>
</event>
<event>
 3    1  0.1594457E-001  0.1250000E+03  0.7546771E-02  0.1235069E+00
         21   -1    0    0  502  501  0.00000000000E+00  0.00000000000E+00  0.48402322020E+02  0.48402322020E+02  0.00000000000E+00 0.  1.
         21   -1    0    0  501  502 -0.00000000000E+00 -0.00000000000E+00 -0.80703772815E+02  0.80703772815E+02  0.00000000000E+00 0.  1.
         25    1    1    2    0    0  0.00000000000E+00  0.00000000000E+00 -0.32301450796E+02  0.12910609483E+03  0.12500000000E+03 0.  0.
<mgrwt>
<rscale>  0 0.12500000E+03</rscale>
<asrwt>0</asrwt>
<pdfrwt beam="1">  1       21 0.74465111E-02 0.12500000E+03</pdfrwt>
<pdfrwt beam="2">  1       21 0.12415965E-01 0.12500000E+03</pdfrwt>
<totfact> 0.73484636E+06</totfact>
</mgrwt>
</event>
<event>
 3    1  0.1594457E-001  0.1250000E+03  0.7546771E-02  0.1235069E+00
         21   -1    0    0  502  501  0.00000000000E+00  0.00000000000E+00  0.44811999680E+02  0.44811999680E+02  0.00000000000E+00 0. -1.
         21   -1    0    0  501  502 -0.00000000000E+00 -0.00000000000E+00 -0.87169731945E+02  0.87169731945E+02  0.00000000000E+00 0. -1.
         25    1    1    2    0    0  0.00000000000E+00  0.00000000000E+00 -0.42357732266E+02  0.13198173162E+03  0.12500000000E+03 0.  0.
<mgrwt>
<rscale>  0 0.12500000E+03</rscale>
<asrwt>0</asrwt>
<pdfrwt beam="1">  1       21 0.68941539E-02 0.12500000E+03</pdfrwt>
<pdfrwt beam="2">  1       21 0.13410728E-01 0.12500000E+03</pdfrwt>
<totfact> 0.73098679E+06</totfact>
</mgrwt>
</event>
<event>
 3    1  0.1594457E-001  0.1250000E+03  0.7546771E-02  0.1235069E+00
         21   -1    0    0  502  501  0.00000000000E+00  0.00000000000E+00  0.25198241586E+02  0.25198241586E+02  0.00000000000E+00 0.  1.
         21   -1    0    0  501  502 -0.00000000000E+00 -0.00000000000E+00 -0.15502073772E+03  0.15502073772E+03  0.00000000000E+00 0.  1.
         25    1    1    2    0    0  0.00000000000E+00  0.00000000000E+00 -0.12982249614E+03  0.18021897931E+03  0.12500000000E+03 0.  0.
<mgrwt>
<rscale>  0 0.12500000E+03</rscale>
<asrwt>0</asrwt>
<pdfrwt beam="1">  1       21 0.38766525E-02 0.12500000E+03</pdfrwt>
<pdfrwt beam="2">  1       21 0.23849345E-01 0.12500000E+03</pdfrwt>
<totfact> 0.67126424E+06</totfact>
</mgrwt>
</event>
<event>
 3    1  0.1594457E-001  0.1250000E+03  0.7546771E-02  0.1235069E+00
         21   -1    0    0  502  501  0.00000000000E+00  0.00000000000E+00  0.68339899027E+02  0.68339899027E+02  0.00000000000E+00 0.  1.
         21   -1    0    0  501  502 -0.00000000000E+00 -0.00000000000E+00 -0.57159142106E+02  0.57159142106E+02  0.00000000000E+00 0.  1.
         25    1    1    2    0    0  0.00000000000E+00  0.00000000000E+00  0.11180756921E+02  0.12549904113E+03  0.12500000000E+03 0.  0.
<mgrwt>
<rscale>  0 0.12500000E+03</rscale>
<asrwt>0</asrwt>
<pdfrwt beam="1">  1       21 0.10513831E-01 0.12500000E+03</pdfrwt>
<pdfrwt beam="2">  1       21 0.87937142E-02 0.12500000E+03</pdfrwt>
<totfact> 0.73975531E+06</totfact>
</mgrwt>
</event>
<event>
 3    1  0.1594457E-001  0.1250000E+03  0.7546771E-02  0.1235069E+00
         21   -1    0    0  502  501  0.00000000000E+00  0.00000000000E+00  0.12588259037E+02  0.12588259037E+02  0.00000000000E+00 0. -1.
         21   -1    0    0  501  502 -0.00000000000E+00 -0.00000000000E+00 -0.31030899416E+03  0.31030899416E+03  0.00000000000E+00 0. -1.
         25    1    1    2    0    0  0.00000000000E+00  0.00000000000E+00 -0.29772073512E+03  0.32289725320E+03  0.12500000000E+03 0.  0.
<mgrwt>
<rscale>  0 0.12500000E+03</rscale>
<asrwt>0</asrwt>
<pdfrwt beam="1">  1       21 0.19366554E-02 0.12500000E+03</pdfrwt>
<pdfrwt beam="2">  1       21 0.47739842E-01 0.12500000E+03</pdfrwt>
<totfact> 0.53604547E+06</totfact>
</mgrwt>
</event>
<event>
 3    1  0.1594457E-001  0.1250000E+03  0.7546771E-02  0.1235069E+00
         21   -1    0    0  502  501  0.00000000000E+00  0.00000000000E+00  0.21048366705E+02  0.21048366705E+02  0.00000000000E+00 0.  1.
         21   -1    0    0  501  502 -0.00000000000E+00 -0.00000000000E+00 -0.18558447099E+03  0.18558447099E+03  0.00000000000E+00 0.  1.
         25    1    1    2    0    0  0.00000000000E+00  0.00000000000E+00 -0.16453610428E+03  0.20663283769E+03  0.12500000000E+03 0.  0.
<mgrwt>
<rscale>  0 0.12500000E+03</rscale>
<asrwt>0</asrwt>
<pdfrwt beam="1">  1       21 0.32382102E-02 0.12500000E+03</pdfrwt>
<pdfrwt beam="2">  1       21 0.28551457E-01 0.12500000E+03</pdfrwt>
<totfact> 0.64215550E+06</totfact>
</mgrwt>
</event>
<event>
 3    1  0.1594457E-001  0.1250000E+03  0.7546771E-02  0.1235069E+00
         21   -1    0    0  502  501  0.00000000000E+00  0.00000000000E+00  0.81795773155E+01  0.81795773155E+01  0.00000000000E+00 0. -1.
         21   -1    0    0  501  502 -0.00000000000E+00 -0.00000000000E+00 -0.47756135181E+03  0.47756135181E+03  0.00000000000E+00 0. -1.
         25    1    1    2    0    0  0.00000000000E+00  0.00000000000E+00 -0.46938177449E+03  0.48574092912E+03  0.12500000000E+03 0.  0.
<mgrwt>
<rscale>  0 0.12500000E+03</rscale>
<asrwt>0</asrwt>
<pdfrwt beam="1">  1       21 0.12583968E-02 0.12500000E+03</pdfrwt>
<pdfrwt beam="2">  1       21 0.73470961E-01 0.12500000E+03</pdfrwt>
<totfact> 0.42828087E+06</totfact>
</mgrwt>
</event>
<event>
 3    1  0.1594457E-001  0.1250000E+03  0.7546771E-02  0.1235069E+00
         21   -1    0    0  502  501  0.00000000000E+00  0.00000000000E+00  0.29447734747E+03  0.29447734747E+03  0.00000000000E+00 0. -1.
         21   -1    0    0  501  502 -0.00000000000E+00 -0.00000000000E+00 -0.13265027119E+02  0.13265027119E+02  0.00000000000E+00 0. -1.
         25    1    1    2    0    0  0.00000000000E+00  0.00000000000E+00  0.28121232035E+03  0.30774237459E+03  0.12500000000E+03 0.  0.
<mgrwt>
<rscale>  0 0.12500000E+03</rscale>
<asrwt>0</asrwt>
<pdfrwt beam="1">  1       21 0.45304202E-01 0.12500000E+03</pdfrwt>
<pdfrwt beam="2">  1       21 0.20407736E-02 0.12500000E+03</pdfrwt>
<totfact> 0.54818830E+06</totfact>
</mgrwt>
</event>
<event>
 3    1  0.1594457E-001  0.1250000E+03  0.7546771E-02  0.1235069E+00
         21   -1    0    0  502  501  0.00000000000E+00  0.00000000000E+00  0.30815874514E+03  0.30815874514E+03  0.00000000000E+00 0.  1.
         21   -1    0    0  501  502 -0.00000000000E+00 -0.00000000000E+00 -0.12676096530E+02  0.12676096530E+02  0.00000000000E+00 0.  1.
         25    1    1    2    0    0  0.00000000000E+00  0.00000000000E+00  0.29548264861E+03  0.32083484167E+03  0.12500000000E+03 0.  0.
<mgrwt>
<rscale>  0 0.12500000E+03</rscale>
<asrwt>0</asrwt>
<pdfrwt beam="1">  1       21 0.47409032E-01 0.12500000E+03</pdfrwt>
<pdfrwt beam="2">  1       21 0.19501689E-02 0.12500000E+03</pdfrwt>
<totfact> 0.53767255E+06</totfact>
</mgrwt>
</event>
<event>
 3    1  0.1594457E-001  0.1250000E+03  0.7546771E-02  0.1235069E+00
         21   -1    0    0  502  501  0.00000000000E+00  0.00000000000E+00  0.10619401472E+04  0.10619401472E+04  0.00000000000E+00 0.  1.
         21   -1    0    0  501  502 -0.00000000000E+00 -0.00000000000E+00 -0.36784088165E+01  0.36784088165E+01  0.00000000000E+00 0.  1.
         25    1    1    2    0    0  0.00000000000E+00  0.00000000000E+00  0.10582617384E+04  0.10656185560E+04  0.12500000000E+03 0.  0.
<mgrwt>
<rscale>  0 0.12500000E+03</rscale>
<asrwt>0</asrwt>
<pdfrwt beam="1">  1       21 0.16337516E+00 0.12500000E+03</pdfrwt>
<pdfrwt beam="2">  1       21 0.56590990E-03 0.12500000E+03</pdfrwt>
<totfact> 0.22032738E+06</totfact>
</mgrwt>
</event>
<event>
 3    1  0.1594457E-001  0.1250000E+03  0.7546771E-02  0.1235069E+00
         21   -1    0    0  502  501  0.00000000000E+00  0.00000000000E+00  0.11011665049E+03  0.11011665049E+03  0.00000000000E+00 0.  1.
         21   -1    0    0  501  502 -0.00000000000E+00 -0.00000000000E+00 -0.35473745185E+02  0.35473745185E+02  0.00000000000E+00 0.  1.
         25    1    1    2    0    0  0.00000000000E+00  0.00000000000E+00  0.74642905302E+02  0.14559039567E+03  0.12500000000E+03 0.  0.
<mgrwt>
<rscale>  0 0.12500000E+03</rscale>
<asrwt>0</asrwt>
<pdfrwt beam="1">  1       21 0.16941023E-01 0.12500000E+03</pdfrwt>
<pdfrwt beam="2">  1       21 0.54574993E-02 0.12500000E+03</pdfrwt>
<totfact> 0.71317628E+06</totfact>
</mgrwt>
</event>
<event>
 3    1  0.1594457E-001  0.1250000E+03  0.7546771E-02  0.1235069E+00
         21   -1    0    0  502  501  0.00000000000E+00  0.00000000000E+00  0.54351605243E+02  0.54351605243E+02  0.00000000000E+00 0. -1.
         21   -1    0    0  501  502 -0.00000000000E+00 -0.00000000000E+00 -0.71870002413E+02  0.71870002413E+02  0.00000000000E+00 0. -1.
         25    1    1    2    0    0  0.00000000000E+00  0.00000000000E+00 -0.17518397170E+02  0.12622160766E+03  0.12500000000E+03 0.  0.
<mgrwt>
<rscale>  0 0.12500000E+03</rscale>
<asrwt>0</asrwt>
<pdfrwt beam="1">  1       21 0.83617855E-02 0.12500000E+03</pdfrwt>
<pdfrwt beam="2">  1       21 0.11056923E-01 0.12500000E+03</pdfrwt>
<totfact> 0.73875541E+06</totfact>
</mgrwt>
</event>
<event>
 3    1  0.1594457E-001  0.1250000E+03  0.7546771E-02  0.1235069E+00
         21   -1    0    0  502  501  0.00000000000E+00  0.00000000000E+00  0.33305445581E+02  0.33305445581E+02  0.00000000000E+00 0.  1.
         21   -1    0    0  501  502 -0.00000000000E+00 -0.00000000000E+00 -0.11728562497E+03  0.11728562497E+03  0.00000000000E+00 0.  1.
         25    1    1    2    0    0  0.00000000000E+00  0.00000000000E+00 -0.83980179393E+02  0.15059107056E+03  0.12500000000E+03 0.  0.
<mgrwt>
<rscale>  0 0.12500000E+03</rscale>
<asrwt>0</asrwt>
<pdfrwt beam="1">  1       21 0.51239147E-02 0.12500000E+03</pdfrwt>
<pdfrwt beam="2">  1       21 0.18043942E-01 0.12500000E+03</pdfrwt>
<totfact> 0.70685031E+06</totfact>
</mgrwt>
</event>
<event>
 3    1  0.1594457E-001  0.1250000E+03  0.7546771E-02  0.1235069E+00
         21   -1    0    0  502  501  0.00000000000E+00  0.00000000000E+00  0.68808596351E+02  0.68808596351E+02  0.00000000000E+00 0. -1.
         21   -1    0    0  501  502 -0.00000000000E+00 -0.00000000000E+00 -0.56769796321E+02  0.56769796321E+02  0.00000000000E+00 0. -1.
         25    1    1    2    0    0  0.00000000000E+00  0.00000000000E+00  0.12038800030E+02  0.12557839267E+03  0.12500000000E+03 0.  0.
<mgrwt>
<rscale>  0 0.12500000E+03</rscale>
<asrwt>0</asrwt>
<pdfrwt beam="1">  1       21 0.10585938E-01 0.12500000E+03</pdfrwt>
<pdfrwt beam="2">  1       21 0.87338148E-02 0.12500000E+03</pdfrwt>
<totfact> 0.73964453E+06</totfact>
</mgrwt>
</event>
<event>
 3    1  0.1594457E-001  0.1250000E+03  0.7546771E-02  0.1235069E+00
         21   -1    0    0  502  501  0.00000000000E+00  0.00000000000E+00  0.99725624644E+01  0.99725624644E+01  0.00000000000E+00 0. -1.
         21   -1    0    0  501  502 -0.00000000000E+00 -0.00000000000E+00 -0.39169972752E+03  0.39169972752E+03  0.00000000000E+00 0. -1.
         25    1    1    2    0    0  0.00000000000E+00  0.00000000000E+00 -0.38172716506E+03  0.40167228998E+03  0.12500000000E+03 0.  0.
<mgrwt>
<rscale>  0 0.12500000E+03</rscale>
<asrwt>0</asrwt>
<pdfrwt beam="1">  1       21 0.15342404E-02 0.12500000E+03</pdfrwt>
<pdfrwt beam="2">  1       21 0.60261495E-01 0.12500000E+03</pdfrwt>
<totfact> 0.47930627E+06</totfact>
</mgrwt>
</event>
<event>
 3    1  0.1594457E-001  0.1250000E+03  0.7546771E-02  0.1235069E+00
         21   -1    0    0  502  501  0.00000000000E+00  0.00000000000E+00  0.31159133224E+03  0.31159133224E+03  0.00000000000E+00 0.  1.
         21   -1    0    0  501  502 -0.00000000000E+00 -0.00000000000E+00 -0.12536452705E+02  0.12536452705E+02  0.00000000000E+00 0.  1.
         25    1    1    2    0    0  0.00000000000E+00  0.00000000000E+00  0.29905487954E+03  0.32412778495E+03  0.12500000000E+03 0.  0.
<mgrwt>
<rscale>  0 0.12500000E+03</rscale>
<asrwt>0</asrwt>
<pdfrwt beam="1">  1       21 0.47937122E-01 0.12500000E+03</pdfrwt>
<pdfrwt beam="2">  1       21 0.19286853E-02 0.12500000E+03</pdfrwt>
<totfact> 0.53507852E+06</totfact>
</mgrwt>
</event>
<event>
 3    1  0.1594457E-001  0.1250000E+03  0.7546771E-02  0.1235069E+00
         21   -1    0    0  502  501  0.00000000000E+00  0.00000000000E+00  0.33229281323E+02  0.33229281323E+02  0.00000000000E+00 0. -1.
         21   -1    0    0  501  502 -0.00000000000E+00 -0.00000000000E+00 -0.11755445332E+03  0.11755445332E+03  0.00000000000E+00 0. -1.
         25    1    1    2    0    0  0.00000000000E+00  0.00000000000E+00 -0.84325171992E+02  0.15078373464E+03  0.12500000000E+03 0.  0.
<mgrwt>
<rscale>  0 0.12500000E+03</rscale>
<asrwt>0</asrwt>
<pdfrwt beam="1">  1       21 0.51121972E-02 0.12500000E+03</pdfrwt>
<pdfrwt beam="2">  1       21 0.18085300E-01 0.12500000E+03</pdfrwt>
<totfact> 0.70660888E+06</totfact>
</mgrwt>
</event>
<event>
 3    1  0.1594457E-001  0.1250000E+03  0.7546771E-02  0.1235069E+00
         21   -1    0    0  502  501  0.00000000000E+00  0.00000000000E+00  0.15727847554E+03  0.15727847554E+03  0.00000000000E+00 0.  1.
         21   -1    0    0  501  502 -0.00000000000E+00 -0.00000000000E+00 -0.24836519979E+02  0.24836519979E+02  0.00000000000E+00 0.  1.
         25    1    1    2    0    0  0.00000000000E+00  0.00000000000E+00  0.13244195556E+03  0.18211499552E+03  0.12500000000E+03 0.  0.
<mgrwt>
<rscale>  0 0.12500000E+03</rscale>
<asrwt>0</asrwt>
<pdfrwt beam="1">  1       21 0.24196688E-01 0.12500000E+03</pdfrwt>
<pdfrwt beam="2">  1       21 0.38210032E-02 0.12500000E+03</pdfrwt>
<totfact> 0.66909736E+06</totfact>
</mgrwt>
</event>
<event>
 3    1  0.1594457E-001  0.1250000E+03  0.7546771E-02  0.1235069E+00
         21   -1    0    0  502  501  0.00000000000E+00  0.00000000000E+00  0.10737347841E+03  0.10737347841E+03  0.00000000000E+00 0.  1.
         21   -1    0    0  501  502 -0.00000000000E+00 -0.00000000000E+00 -0.36380026592E+02  0.36380026592E+02  0.00000000000E+00 0.  1.
         25    1    1    2    0    0  0.00000000000E+00  0.00000000000E+00  0.70993451822E+02  0.14375350501E+03  0.12500000000E+03 0.  0.
<mgrwt>
<rscale>  0 0.12500000E+03</rscale>
<asrwt>0</asrwt>
<pdfrwt beam="1">  1       21 0.16518997E-01 0.12500000E+03</pdfrwt>
<pdfrwt beam="2">  1       21 0.55969272E-02 0.12500000E+03</pdfrwt>
<totfact> 0.71553004E+06</totfact>
</mgrwt>
</event>
<event>
 3    1  0.1594457E-001  0.1250000E+03  0.7546771E-02  0.1235069E+00
         21   -1    0    0  502  501  0.00000000000E+00  0.00000000000E+00  0.10842518412E+02  0.10842518412E+02  0.00000000000E+00 0. -1.
         21   -1    0    0  501  502 -0.00000000000E+00 -0.00000000000E+00 -0.36027146568E+03  0.36027146568E+03  0.00000000000E+00 0. -1.
         25    1    1    2    0    0  0.00000000000E+00  0.00000000000E+00 -0.34942894727E+03  0.37111398409E+03  0.12500000000E+03 0.  0.
<mgrwt>
<rscale>  0 0.12500000E+03</rscale>
<asrwt>0</asrwt>
<pdfrwt beam="1">  1       21 0.16680800E-02 0.12500000E+03</pdfrwt>
<pdfrwt beam="2">  1       21 0.55426371E-01 0.12500000E+03</pdfrwt>
<totfact> 0.50015917E+06</totfact>
</mgrwt>
</event>
<event>
 3    1  0.1594457E-001  0.1250000E+03  0.7546771E-02  0.1235069E+00
         21   -1    0    0  502  501  0.00000000000E+00  0.00000000000E+00  0.58603955212E+02  0.58603955212E+02  0.00000000000E+00 0. -1.
         21   -1    0    0  501  502 -0.00000000000E+00 -0.00000000000E+00 -0.66655057426E+02  0.66655057426E+02  0.00000000000E+00 0. -1.
         25    1    1    2    0    0  0.00000000000E+00  0.00000000000E+00 -0.80511022140E+01  0.12525901264E+03  0.12500000000E+03 0.  0.
<mgrwt>
<rscale>  0 0.12500000E+03</rscale>
<asrwt>0</asrwt>
<pdfrwt beam="1">  1       21 0.90159931E-02 0.12500000E+03</pdfrwt>
<pdfrwt beam="2">  1       21 0.10254624E-01 0.12500000E+03</pdfrwt>
<totfact> 0.74008605E+06</totfact>
</mgrwt>
</event>
<event>
 3    1  0.1594457E-001  0.1250000E+03  0.7546771E-02  0.1235069E+00
         21   -1    0    0  502  501  0.00000000000E+00  0.00000000000E+00  0.10805866458E+03  0.10805866458E+03  0.00000000000E+00 0. -1.
         21   -1    0    0  501  502 -0.00000000000E+00 -0.00000000000E+00 -0.36149345498E+02  0.36149345498E+02  0.00000000000E+00 0. -1.
         25    1    1    2    0    0  0.00000000000E+00  0.00000000000E+00  0.71909319083E+02  0.14420801008E+03  0.12500000000E+03 0.  0.
<mgrwt>
<rscale>  0 0.12500000E+03</rscale>
<asrwt>0</asrwt>
<pdfrwt beam="1">  1       21 0.16624410E-01 0.12500000E+03</pdfrwt>
<pdfrwt beam="2">  1       21 0.55614378E-02 0.12500000E+03</pdfrwt>
<totfact> 0.71494608E+06</totfact>
</mgrwt>
</event>
<event>
 3    1  0.1594457E-001  0.1250000E+03  0.7546771E-02  0.1235069E+00
         21   -1    0    0  502  501  0.00000000000E+00  0.00000000000E+00  0.73018875171E+02  0.73018875171E+02  0.00000000000E+00 0. -1.
         21   -1    0    0  501  502 -0.00000000000E+00 -0.00000000000E+00 -0.53496441719E+02  0.53496441719E+02  0.00000000000E+00 0. -1.
         25    1    1    2    0    0  0.00000000000E+00  0.00000000000E+00  0.19522433452E+02  0.12651531689E+03  0.12500000000E+03 0.  0.
<mgrwt>
<rscale>  0 0.12500000E+03</rscale>
<asrwt>0</asrwt>
<pdfrwt beam="1">  1       21 0.11233673E-01 0.12500000E+03</pdfrwt>
<pdfrwt beam="2">  1       21 0.82302218E-02 0.12500000E+03</pdfrwt>
<totfact> 0.73835277E+06</totfact>
</mgrwt>
</event>
<event>
 3    1  0.1594457E-001  0.1250000E+03  0.7546771E-02  0.1235069E+00
         21   -1    0    0  502  501  0.00000000000E+00  0.00000000000E+00  0.92201958357E+02  0.92201958357E+02  0.00000000000E+00 0. -1.
         21   -1    0    0  501  502 -0.00000000000E+00 -0.00000000000E+00 -0.42366236787E+02  0.42366236787E+02  0.00000000000E+00 0. -1.
         25    1    1    2    0    0  0.00000000000E+00  0.00000000000E+00  0.49835721569E+02  0.13456819514E+03  0.12500000000E+03 0.  0.
<mgrwt>
<rscale>  0 0.12500000E+03</rscale>
<asrwt>0</asrwt>
<pdfrwt beam="1">  1       21 0.14184917E-01 0.12500000E+03</pdfrwt>
<pdfrwt beam="2">  1       21 0.65178826E-02 0.12500000E+03</pdfrwt>
<totfact> 0.72753696E+06</totfact>
</mgrwt>
</event>
<event>
 3    1  0.1594457E-001  0.1250000E+03  0.7546771E-02  0.1235069E+00
         21   -1    0    0  502  501  0.00000000000E+00  0.00000000000E+00  0.19926520338E+02  0.19926520338E+02  0.00000000000E+00 0.  1.
         21   -1    0    0  501  502 -0.00000000000E+00 -0.00000000000E+00 -0.19603272090E+03  0.19603272090E+03  0.00000000000E+00 0.  1.
         25    1    1    2    0    0  0.00000000000E+00  0.00000000000E+00 -0.17610620056E+03  0.21595924124E+03  0.12500000000E+03 0.  0.
<mgrwt>
<rscale>  0 0.12500000E+03</rscale>
<asrwt>0</asrwt>
<pdfrwt beam="1">  1       21 0.30656185E-02 0.12500000E+03</pdfrwt>
<pdfrwt beam="2">  1       21 0.30158880E-01 0.12500000E+03</pdfrwt>
<totfact> 0.63237958E+06</totfact>
</mgrwt>
</event>
<event>
 3    1  0.1594457E-001  0.1250000E+03  0.7546771E-02  0.1235069E+00
         21   -1    0    0  502  501  0.00000000000E+00  0.00000000000E+00  0.42357080160E+02  0.42357080160E+02  0.00000000000E+00 0. -1.
         21   -1    0    0  501  502 -0.00000000000E+00 -0.00000000000E+00 -0.92221890301E+02  0.92221890301E+02  0.00000000000E+00 0. -1.
         25    1    1    2    0    0  0.00000000000E+00  0.00000000000E+00 -0.49864810140E+02  0.13457897046E+03  0.12500000000E+03 0.  0.
<mgrwt>
<rscale>  0 0.12500000E+03</rscale>
<asrwt>0</asrwt>
<pdfrwt beam="1">  1       21 0.65164739E-02 0.12500000E+03</pdfrwt>
<pdfrwt beam="2">  1       21 0.14187983E-01 0.12500000E+03</pdfrwt>
<totfact> 0.72752267E+06</totfact>
</mgrwt>
</event>
<event>
 3    1  0.1594457E-001  0.1250000E+03  0.7546771E-02  0.1235069E+00
         21   -1    0    0  502  501  0.00000000000E+00  0.00000000000E+00  0.96710130621E+03  0.96710130621E+03  0.00000000000E+00 0.  1.
         21   -1    0    0  501  502 -0.00000000000E+00 -0.00000000000E+00 -0.40391321725E+01  0.40391321725E+01  0.00000000000E+00 0.  1.
         25    1    1    2    0    0  0.00000000000E+00  0.00000000000E+00  0.96306217404E+03  0.97114043839E+03  0.12500000000E+03 0.  0.
<mgrwt>
<rscale>  0 0.12500000E+03</rscale>
<asrwt>0</asrwt>
<pdfrwt beam="1">  1       21 0.14878463E+00 0.12500000E+03</pdfrwt>
<pdfrwt beam="2">  1       21 0.62140572E-03 0.12500000E+03</pdfrwt>
<totfact> 0.24353845E+06</totfact>
</mgrwt>
</event>
<event>
 3    1  0.1594457E-001  0.1250000E+03  0.7546771E-02  0.1235069E+00
         21   -1    0    0  502  501  0.00000000000E+00  0.00000000000E+00  0.31318445130E+03  0.31318445130E+03  0.00000000000E+00 0.  1.
         21   -1    0    0  501  502 -0.00000000000E+00 -0.00000000000E+00 -0.12472681782E+02  0.12472681782E+02  0.00000000000E+00 0.  1.
         25    1    1    2    0    0  0.00000000000E+00  0.00000000000E+00  0.30071176951E+03  0.32565713308E+03  0.12500000000E+03 0.  0.
<mgrwt>
<rscale>  0 0.12500000E+03</rscale>
<asrwt>0</asrwt>
<pdfrwt beam="1">  1       21 0.48182217E-01 0.12500000E+03</pdfrwt>
<pdfrwt beam="2">  1       21 0.19188744E-02 0.12500000E+03</pdfrwt>
<totfact> 0.53388070E+06</totfact>
</mgrwt>
</event>
<event>
 3    1  0.1594457E-001  0.1250000E+03  0.7546771E-02  0.1235069E+00
         21   -1    0    0  502  501  0.00000000000E+00  0.00000000000E+00  0.26812536537E+03  0.26812536537E+03  0.00000000000E+00 0.  1.
         21   -1    0    0  501  502 -0.00000000000E+00 -0.00000000000E+00 -0.14568744716E+02  0.14568744716E+02  0.00000000000E+00 0.  1.
         25    1    1    2    0    0  0.00000000000E+00  0.00000000000E+00  0.25355662066E+03  0.28269411009E+03  0.12500000000E+03 0.  0.
<mgrwt>
<rscale>  0 0.12500000E+03</rscale>
<asrwt>0</asrwt>
<pdfrwt beam="1">  1       21 0.41250052E-01 0.12500000E+03</pdfrwt>
<pdfrwt beam="2">  1       21 0.22413455E-02 0.12500000E+03</pdfrwt>
<totfact> 0.56925743E+06</totfact>
</mgrwt>
</event>
<event>
 3    1  0.1594457E-001  0.1250000E+03  0.7546771E-02  0.1235069E+00
         21   -1    0    0  502  501  0.00000000000E+00  0.00000000000E+00  0.19101292470E+03  0.19101292470E+03  0.00000000000E+00 0. -1.
         21   -1    0    0  501  502 -0.00000000000E+00 -0.00000000000E+00 -0.20450186845E+02  0.20450186845E+02  0.00000000000E+00 0. -1.
         25    1    1    2    0    0  0.00000000000E+00  0.00000000000E+00  0.17056273785E+03  0.21146311154E+03  0.12500000000E+03 0.  0.
<mgrwt>
<rscale>  0 0.12500000E+03</rscale>
<asrwt>0</asrwt>
<pdfrwt beam="1">  1       21 0.29386603E-01 0.12500000E+03</pdfrwt>
<pdfrwt beam="2">  1       21 0.31461827E-02 0.12500000E+03</pdfrwt>
<totfact> 0.63705928E+06</totfact>
</mgrwt>
</event>
<event>
 3    1  0.1594457E-001  0.1250000E+03  0.7546771E-02  0.1235069E+00
         21   -1    0    0  502  501  0.00000000000E+00  0.00000000000E+00  0.12614958107E+03  0.12614958107E+03  0.00000000000E+00 0.  1.
         21   -1    0    0  501  502 -0.00000000000E+00 -0.00000000000E+00 -0.30965223719E+02  0.30965223719E+02  0.00000000000E+00 0.  1.
         25    1    1    2    0    0  0.00000000000E+00  0.00000000000E+00  0.95184357352E+02  0.15711480479E+03  0.12500000000E+03 0.  0.
<mgrwt>
<rscale>  0 0.12500000E+03</rscale>
<asrwt>0</asrwt>
<pdfrwt beam="1">  1       21 0.19407628E-01 0.12500000E+03</pdfrwt>
<pdfrwt beam="2">  1       21 0.47638807E-02 0.12500000E+03</pdfrwt>
<totfact> 0.69873765E+06</totfact>
</mgrwt>
</event>
<event>
 3    1  0.1594457E-001  0.1250000E+03  0.7546771E-02  0.1235069E+00
         21   -1    0    0  502  501  0.00000000000E+00  0.00000000000E+00  0.11874460577E+04  0.11874460577E+04  0.00000000000E+00 0.  1.
         21   -1    0    0  501  502 -0.00000000000E+00 -0.00000000000E+00 -0.32896231157E+01  0.32896231157E+01  0.00000000000E+00 0.  1.
         25    1    1    2    0    0  0.00000000000E+00  0.00000000000E+00  0.11841564346E+04  0.11907356808E+04  0.12500000000E+03 0.  0.
<mgrwt>
<rscale>  0 0.12500000E+03</rscale>
<asrwt>0</asrwt>
<pdfrwt beam="1">  1       21 0.18268367E+00 0.12500000E+03</pdfrwt>
<pdfrwt beam="2">  1       21 0.50609681E-03 0.12500000E+03</pdfrwt>
<totfact> 0.19329017E+06</totfact>
</mgrwt>
</event>
<event>
 3    1  0.1594457E-001  0.1250000E+03  0.7546771E-02  0.1235069E+00
         21   -1    0    0  502  501  0.00000000000E+00  0.00000000000E+00  0.79196736225E+02  0.79196736225E+02  0.00000000000E+00 0.  1.
         21   -1    0    0  501  502 -0.00000000000E+00 -0.00000000000E+00 -0.49323370964E+02  0.49323370964E+02  0.00000000000E+00 0.  1.
         25    1    1    2    0    0  0.00000000000E+00  0.00000000000E+00  0.29873365261E+02  0.12852010719E+03  0.12500000000E+03 0.  0.
<mgrwt>
<rscale>  0 0.12500000E+03</rscale>
<asrwt>0</asrwt>
<pdfrwt beam="1">  1       21 0.12184113E-01 0.12500000E+03</pdfrwt>
<pdfrwt beam="2">  1       21 0.75882109E-02 0.12500000E+03</pdfrwt>
<totfact> 0.73563414E+06</totfact>
</mgrwt>
</event>
<event>
 3    1  0.1594457E-001  0.1250000E+03  0.7546771E-02  0.1235069E+00
         21   -1    0    0  502  501  0.00000000000E+00  0.00000000000E+00  0.38385245073E+01  0.38385245073E+01  0.00000000000E+00 0. -1.
         21   -1    0    0  501  502 -0.00000000000E+00 -0.00000000000E+00 -0.10176436265E+04  0.10176436265E+04  0.00000000000E+00 0. -1.
         25    1    1    2    0    0  0.00000000000E+00  0.00000000000E+00 -0.10138051020E+04  0.10214821510E+04  0.12500000000E+03 0.  0.
<mgrwt>
<rscale>  0 0.12500000E+03</rscale>
<asrwt>0</asrwt>
<pdfrwt beam="1">  1       21 0.59054211E-03 0.12500000E+03</pdfrwt>
<pdfrwt beam="2">  1       21 0.15656059E+00 0.12500000E+03</pdfrwt>
<totfact> 0.23086997E+06</totfact>
</mgrwt>
</event>
<event>
 3    1  0.1594457E-001  0.1250000E+03  0.7546771E-02  0.1235069E+00
         21   -1    0    0  502  501  0.00000000000E+00  0.00000000000E+00  0.55299486275E+01  0.55299486275E+01  0.00000000000E+00 0.  1.
         21   -1    0    0  501  502 -0.00000000000E+00 -0.00000000000E+00 -0.70638088401E+03  0.70638088401E+03  0.00000000000E+00 0.  1.
         25    1    1    2    0    0  0.00000000000E+00  0.00000000000E+00 -0.70085093538E+03  0.71191083264E+03  0.12500000000E+03 0.  0.
<mgrwt>
<rscale>  0 0.12500000E+03</rscale>
<asrwt>0</asrwt>
<pdfrwt beam="1">  1       21 0.85076108E-03 0.12500000E+03</pdfrwt>
<pdfrwt beam="2">  1       21 0.10867401E+00 0.12500000E+03</pdfrwt>
<totfact> 0.32455961E+06</totfact>
</mgrwt>
</event>
<event>
 3    1  0.1594457E-001  0.1250000E+03  0.7546771E-02  0.1235069E+00
         21   -1    0    0  502  501  0.00000000000E+00  0.00000000000E+00  0.13838739345E+03  0.13838739345E+03  0.00000000000E+00 0. -1.
         21   -1    0    0  501  502 -0.00000000000E+00 -0.00000000000E+00 -0.28226920839E+02  0.28226920839E+02  0.00000000000E+00 0. -1.
         25    1    1    2    0    0  0.00000000000E+00  0.00000000000E+00  0.11016047261E+03  0.16661431429E+03  0.12500000000E+03 0.  0.
<mgrwt>
<rscale>  0 0.12500000E+03</rscale>
<asrwt>0</asrwt>
<pdfrwt beam="1">  1       21 0.21290368E-01 0.12500000E+03</pdfrwt>
<pdfrwt beam="2">  1       21 0.43426033E-02 0.12500000E+03</pdfrwt>
<totfact> 0.68720194E+06</totfact>
</mgrwt>
</event>
<event>
 3    1  0.1594457E-001  0.1250000E+03  0.7546771E-02  0.1235069E+00
         21   -1    0    0  502  501  0.00000000000E+00  0.00000000000E+00  0.20718316186E+02  0.20718316186E+02  0.00000000000E+00 0. -1.
         21   -1    0    0  501  502 -0.00000000000E+00 -0.00000000000E+00 -0.18854090096E+03  0.18854090096E+03  0.00000000000E+00 0. -1.
         25    1    1    2    0    0  0.00000000000E+00  0.00000000000E+00 -0.16782258477E+03  0.20925921714E+03  0.12500000000E+03 0.  0.
<mgrwt>
<rscale>  0 0.12500000E+03</rscale>
<asrwt>0</asrwt>
<pdfrwt beam="1">  1       21 0.31874332E-02 0.12500000E+03</pdfrwt>
<pdfrwt beam="2">  1       21 0.29006293E-01 0.12500000E+03</pdfrwt>
<totfact> 0.63937558E+06</totfact>
</mgrwt>
</event>
<event>
 3    1  0.1594457E-001  0.1250000E+03  0.7546771E-02  0.1235069E+00
         21   -1    0    0  502  501  0.00000000000E+00  0.00000000000E+00  0.47448804730E+01  0.47448804730E+01  0.00000000000E+00 0.  1.
         21   -1    0    0  501  502 -0.00000000000E+00 -0.00000000000E+00 -0.82325572208E+03  0.82325572208E+03  0.00000000000E+00 0.  1.
         25    1    1    2    0    0  0.00000000000E+00  0.00000000000E+00 -0.81851084161E+03  0.82800060255E+03  0.12500000000E+03 0.  0.
<mgrwt>
<rscale>  0 0.12500000E+03</rscale>
<asrwt>0</asrwt>
<pdfrwt beam="1">  1       21 0.72998172E-03 0.12500000E+03</pdfrwt>
<pdfrwt beam="2">  1       21 0.12665471E+00 0.12500000E+03</pdfrwt>
<totfact> 0.28455872E+06</totfact>
</mgrwt>
</event>
<event>
 3    1  0.1594457E-001  0.1250000E+03  0.7546771E-02  0.1235069E+00
         21   -1    0    0  502  501  0.00000000000E+00  0.00000000000E+00  0.10176679226E+04  0.10176679226E+04  0.00000000000E+00 0. -1.
         21   -1    0    0  501  502 -0.00000000000E+00 -0.00000000000E+00 -0.38384328650E+01  0.38384328650E+01  0.00000000000E+00 0. -1.
         25    1    1    2    0    0  0.00000000000E+00  0.00000000000E+00  0.10138294898E+04  0.10215063555E+04  0.12500000000E+03 0.  0.
<mgrwt>
<rscale>  0 0.12500000E+03</rscale>
<asrwt>0</asrwt>
<pdfrwt beam="1">  1       21 0.15656408E+00 0.12500000E+03</pdfrwt>
<pdfrwt beam="2">  1       21 0.59052894E-03 0.12500000E+03</pdfrwt>
<totfact> 0.23086441E+06</totfact>
</mgrwt>
</event>
<event>
 3    1  0.1594457E-001  0.1250000E+03  0.7546771E-02  0.1235069E+00
         21   -1    0    0  502  501  0.00000000000E+00  0.00000000000E+00  0.41148088129E+01  0.41148088129E+01  0.00000000000E+00 0.  1.
         21   -1    0    0  501  502 -0.00000000000E+00 -0.00000000000E+00 -0.94931506605E+03  0.94931506605E+03  0.00000000000E+00 0.  1.
         25    1    1    2    0    0  0.00000000000E+00  0.00000000000E+00 -0.94520025724E+03  0.95342987486E+03  0.12500000000E+03 0.  0.
<mgrwt>
<rscale>  0 0.12500000E+03</rscale>
<asrwt>0</asrwt>
<pdfrwt beam="1">  1       21 0.63304816E-03 0.12500000E+03</pdfrwt>
<pdfrwt beam="2">  1       21 0.14604832E+00 0.12500000E+03</pdfrwt>
<totfact> 0.24819823E+06</totfact>
</mgrwt>
</event>
<event>
 3    1  0.1594457E-001  0.1250000E+03  0.7546771E-02  0.1235069E+00
         21   -1    0    0  502  501  0.00000000000E+00  0.00000000000E+00  0.23879749997E+03  0.23879749997E+03  0.00000000000E+00 0. -1.
         21   -1    0    0  501  502 -0.00000000000E+00 -0.00000000000E+00 -0.16358002075E+02  0.16358002075E+02  0.00000000000E+00 0. -1.
         25    1    1    2    0    0  0.00000000000E+00  0.00000000000E+00  0.22243949789E+03  0.25515550204E+03  0.12500000000E+03 0.  0.
<mgrwt>
<rscale>  0 0.12500000E+03</rscale>
<asrwt>0</asrwt>
<pdfrwt beam="1">  1       21 0.36738074E-01 0.12500000E+03</pdfrwt>
<pdfrwt beam="2">  1       21 0.25166159E-02 0.12500000E+03</pdfrwt>
<totfact> 0.59396175E+06</totfact>
</mgrwt>
</event>
<event>
 3    1  0.1594457E-001  0.1250000E+03  0.7546771E-02  0.1235069E+00
         21   -1    0    0  502  501  0.00000000000E+00  0.00000000000E+00  0.14924320572E+02  0.14924320572E+02  0.00000000000E+00 0. -1.
         21   -1    0    0  501  502 -0.00000000000E+00 -0.00000000000E+00 -0.26173720815E+03  0.26173720815E+03  0.00000000000E+00 0. -1.
         25    1    1    2    0    0  0.00000000000E+00  0.00000000000E+00 -0.24681288758E+03  0.27666152872E+03  0.12500000000E+03 0.  0.
<mgrwt>
<rscale>  0 0.12500000E+03</rscale>
<asrwt>0</asrwt>
<pdfrwt beam="1">  1       21 0.22960492E-02 0.12500000E+03</pdfrwt>
<pdfrwt beam="2">  1       21 0.40267265E-01 0.12500000E+03</pdfrwt>
<totfact> 0.57453227E+06</totfact>
</mgrwt>
</event>
<event>
 3    1  0.1594457E-001  0.1250000E+03  0.7546771E-02  0.1235069E+00
         21   -1    0    0  502  501  0.00000000000E+00  0.00000000000E+00  0.34436637860E+03  0.34436637860E+03  0.00000000000E+00 0.  1.
         21   -1    0    0  501  502 -0.00000000000E+00 -0.00000000000E+00 -0.11343296683E+02  0.11343296683E+02  0.00000000000E+00 0.  1.
         25    1    1    2    0    0  0.00000000000E+00  0.00000000000E+00  0.33302308192E+03  0.35570967529E+03  0.12500000000E+03 0.  0.
<mgrwt>
<rscale>  0 0.12500000E+03</rscale>
<asrwt>0</asrwt>
<pdfrwt beam="1">  1       21 0.52979435E-01 0.12500000E+03</pdfrwt>
<pdfrwt beam="2">  1       21 0.17451228E-02 0.12500000E+03</pdfrwt>
<totfact> 0.51119505E+06</totfact>
</mgrwt>
</event>
<event>
 3    1  0.1594457E-001  0.1250000E+03  0.7546771E-02  0.1235069E+00
         21   -1    0    0  502  501  0.00000000000E+00  0.00000000000E+00  0.83100594454E+02  0.83100594454E+02  0.00000000000E+00 0. -1.
         21   -1    0    0  501  502 -0.00000000000E+00 -0.00000000000E+00 -0.47006282274E+02  0.47006282274E+02  0.00000000000E+00 0. -1.
         25    1    1    2    0    0  0.00000000000E+00  0.00000000000E+00  0.36094312180E+02  0.13010687673E+03  0.12500000000E+03 0.  0.
<mgrwt>
<rscale>  0 0.12500000E+03</rscale>
<asrwt>0</asrwt>
<pdfrwt beam="1">  1       21 0.12784707E-01 0.12500000E+03</pdfrwt>
<pdfrwt beam="2">  1       21 0.72317358E-02 0.12500000E+03</pdfrwt>
<totfact> 0.73350634E+06</totfact>
</mgrwt>
</event>
<event>
 3    1  0.1594457E-001  0.1250000E+03  0.7546771E-02  0.1235069E+00
         21   -1    0    0  502  501  0.00000000000E+00  0.00000000000E+00  0.12966135728E+04  0.12966135728E+04  0.00000000000E+00 0. -1.
         21   -1    0    0  501  502 -0.00000000000E+00 -0.00000000000E+00 -0.30126554911E+01  0.30126554911E+01  0.00000000000E+00 0. -1.
         25    1    1    2    0    0  0.00000000000E+00  0.00000000000E+00  0.12936009173E+04  0.12996262283E+04  0.12500000000E+03 0.  0.
<mgrwt>
<rscale>  0 0.12500000E+03</rscale>
<asrwt>0</asrwt>
<pdfrwt beam="1">  1       21 0.19947857E+00 0.12500000E+03</pdfrwt>
<pdfrwt beam="2">  1       21 0.46348649E-03 0.12500000E+03</pdfrwt>
<totfact> 0.17259102E+06</totfact>
</mgrwt>
</event>
<event>
 3    1  0.1594457E-001  0.1250000E+03  0.7546771E-02  0.1235069E+00
         21   -1    0    0  502  501  0.00000000000E+00  0.00000000000E+00  0.53005585646E+03  0.53005585646E+03  0.00000000000E+00 0. -1.
         21   -1    0    0  501  502 -0.00000000000E+00 -0.00000000000E+00 -0.73695063500E+01  0.73695063500E+01  0.00000000000E+00 0. -1.
         25    1    1    2    0    0  0.00000000000E+00  0.00000000000E+00  0.52268635011E+03  0.53742536281E+03  0.12500000000E+03 0.  0.
<mgrwt>
<rscale>  0 0.12500000E+03</rscale>
<asrwt>0</asrwt>
<pdfrwt beam="1">  1       21 0.81547025E-01 0.12500000E+03</pdfrwt>
<pdfrwt beam="2">  1       21 0.11337706E-02 0.12500000E+03</pdfrwt>
<totfact> 0.40084529E+06</totfact>
</mgrwt>
</event>
<event>
 3    1  0.1594457E-001  0.1250000E+03  0.7546771E-02  0.1235069E+00
         21   -1    0    0  502  501  0.00000000000E+00  0.00000000000E+00  0.15316067150E+02  0.15316067150E+02  0.00000000000E+00 0. -1.
         21   -1    0    0  501  502 -0.00000000000E+00 -0.00000000000E+00 -0.25504262691E+03  0.25504262691E+03  0.00000000000E+00 0. -1.
         25    1    1    2    0    0  0.00000000000E+00  0.00000000000E+00 -0.23972655976E+03  0.27035869406E+03  0.12500000000E+03 0.  0.
<mgrwt>
<rscale>  0 0.12500000E+03</rscale>
<asrwt>0</asrwt>
<pdfrwt beam="1">  1       21 0.23563181E-02 0.12500000E+03</pdfrwt>
<pdfrwt beam="2">  1       21 0.39237327E-01 0.12500000E+03</pdfrwt>
<totfact> 0.58012653E+06</totfact>
</mgrwt>
</event>
<event>
 3    1  0.1594457E-001  0.1250000E+03  0.7546771E-02  0.1235069E+00
         21   -1    0    0  502  501  0.00000000000E+00  0.00000000000E+00  0.17284265332E+02  0.17284265332E+02  0.00000000000E+00 0. -1.
         21   -1    0    0  501  502 -0.00000000000E+00 -0.00000000000E+00 -0.22600034916E+03  0.22600034916E+03  0.00000000000E+00 0. -1.
         25    1    1    2    0    0  0.00000000000E+00  0.00000000000E+00 -0.20871608383E+03  0.24328461450E+03  0.12500000000E+03 0.  0.
<mgrwt>
<rscale>  0 0.12500000E+03</rscale>
<asrwt>0</asrwt>
<pdfrwt beam="1">  1       21 0.26591176E-02 0.12500000E+03</pdfrwt>
<pdfrwt beam="2">  1       21 0.34769287E-01 0.12500000E+03</pdfrwt>
<totfact> 0.60516256E+06</totfact>
</mgrwt>
</event>
<event>
 3    1  0.1594457E-001  0.1250000E+03  0.7546771E-02  0.1235069E+00
         21   -1    0    0  502  501  0.00000000000E+00  0.00000000000E+00  0.81424491932E+02  0.81424491932E+02  0.00000000000E+00 0. -1.
         21   -1    0    0  501  502 -0.00000000000E+00 -0.00000000000E+00 -0.47973894676E+02  0.47973894676E+02  0.00000000000E+00 0. -1.
         25    1    1    2    0    0  0.00000000000E+00  0.00000000000E+00  0.33450597256E+02  0.12939838661E+03  0.12500000000E+03 0.  0.
<mgrwt>
<rscale>  0 0.12500000E+03</rscale>
<asrwt>0</asrwt>
<pdfrwt beam="1">  1       21 0.12526845E-01 0.12500000E+03</pdfrwt>
<pdfrwt beam="2">  1       21 0.73805992E-02 0.12500000E+03</pdfrwt>
<totfact> 0.73445432E+06</totfact>
</mgrwt>
</event>
<event>
 3    1  0.1594457E-001  0.1250000E+03  0.7546771E-02  0.1235069E+00
         21   -1    0    0  502  501  0.00000000000E+00  0.00000000000E+00  0.60051049850E+02  0.60051049850E+02  0.00000000000E+00 0.  1.
         21   -1    0    0  501  502 -0.00000000000E+00 -0.00000000000E+00 -0.65048821124E+02  0.65048821124E+02  0.00000000000E+00 0.  1.
         25    1    1    2    0    0  0.00000000000E+00  0.00000000000E+00 -0.49977712733E+01  0.12509987097E+03  0.12500000000E+03 0.  0.
<mgrwt>
<rscale>  0 0.12500000E+03</rscale>
<asrwt>0</asrwt>
<pdfrwt beam="1">  1       21 0.92386231E-02 0.12500000E+03</pdfrwt>
<pdfrwt beam="2">  1       21 0.10007511E-01 0.12500000E+03</pdfrwt>
<totfact> 0.74030093E+06</totfact>
</mgrwt>
</event>
<event>
 3    1  0.1594457E-001  0.1250000E+03  0.7546771E-02  0.1235069E+00
         21   -1    0    0  502  501  0.00000000000E+00  0.00000000000E+00  0.18664476210E+03  0.18664476210E+03  0.00000000000E+00 0.  1.
         21   -1    0    0  501  502 -0.00000000000E+00 -0.00000000000E+00 -0.20928795194E+02  0.20928795194E+02  0.00000000000E+00 0.  1.
         25    1    1    2    0    0  0.00000000000E+00  0.00000000000E+00  0.16571596691E+03  0.20757355729E+03  0.12500000000E+03 0.  0.
<mgrwt>
<rscale>  0 0.12500000E+03</rscale>
<asrwt>0</asrwt>
<pdfrwt beam="1">  1       21 0.28714578E-01 0.12500000E+03</pdfrwt>
<pdfrwt beam="2">  1       21 0.32198148E-02 0.12500000E+03</pdfrwt>
<totfact> 0.64115733E+06</totfact>
</mgrwt>
</event>
<event>
 3    1  0.1594457E-001  0.1250000E+03  0.7546771E-02  0.1235069E+00
         21   -1    0    0  502  501  0.00000000000E+00  0.00000000000E+00  0.87619341306E+02  0.87619341306E+02  0.00000000000E+00 0. -1.
         21   -1    0    0  501  502 -0.00000000000E+00 -0.00000000000E+00 -0.44582051654E+02  0.44582051654E+02  0.00000000000E+00 0. -1.
         25    1    1    2    0    0  0.00000000000E+00  0.00000000000E+00  0.43037289652E+02  0.13220139296E+03  0.12500000000E+03 0.  0.
<mgrwt>
<rscale>  0 0.12500000E+03</rscale>
<asrwt>0</asrwt>
<pdfrwt beam="1">  1       21 0.13479899E-01 0.12500000E+03</pdfrwt>
<pdfrwt beam="2">  1       21 0.68587772E-02 0.12500000E+03</pdfrwt>
<totfact> 0.73069228E+06</totfact>
</mgrwt>
</event>
<event>
 3    1  0.1594457E-001  0.1250000E+03  0.7546771E-02  0.1235069E+00
         21   -1    0    0  502  501  0.00000000000E+00  0.00000000000E+00  0.99426238793E+02  0.99426238793E+02  0.00000000000E+00 0.  1.
         21   -1    0    0  501  502 -0.00000000000E+00 -0.00000000000E+00 -0.39287918837E+02  0.39287918837E+02  0.00000000000E+00 0.  1.
         25    1    1    2    0    0  0.00000000000E+00  0.00000000000E+00  0.60138319956E+02  0.13871415763E+03  0.12500000000E+03 0.  0.
<mgrwt>
<rscale>  0 0.12500000E+03</rscale>
<asrwt>0</asrwt>
<pdfrwt beam="1">  1       21 0.15296344E-01 0.12500000E+03</pdfrwt>
<pdfrwt beam="2">  1       21 0.60442953E-02 0.12500000E+03</pdfrwt>
<totfact> 0.72207620E+06</totfact>
</mgrwt>
</event>
<event>
 3    1  0.1594457E-001  0.1250000E+03  0.7546771E-02  0.1235069E+00
         21   -1    0    0  502  501  0.00000000000E+00  0.00000000000E+00  0.35821099564E+02  0.35821099564E+02  0.00000000000E+00 0. -1.
         21   -1    0    0  501  502 -0.00000000000E+00 -0.00000000000E+00 -0.10904885801E+03  0.10904885801E+03  0.00000000000E+00 0. -1.
         25    1    1    2    0    0  0.00000000000E+00  0.00000000000E+00 -0.73227758444E+02  0.14486995757E+03  0.12500000000E+03 0.  0.
<mgrwt>
<rscale>  0 0.12500000E+03</rscale>
<asrwt>0</asrwt>
<pdfrwt beam="1">  1       21 0.55109385E-02 0.12500000E+03</pdfrwt>
<pdfrwt beam="2">  1       21 0.16776747E-01 0.12500000E+03</pdfrwt>
<totfact> 0.71409745E+06</totfact>
</mgrwt>
</event>
<event>
 3    1  0.1594457E-001  0.1250000E+03  0.7546771E-02  0.1235069E+00
         21   -1    0    0  502  501  0.00000000000E+00  0.00000000000E+00  0.50879139089E+03  0.50879139089E+03  0.00000000000E+00 0. -1.
         21   -1    0    0  501  502 -0.00000000000E+00 -0.00000000000E+00 -0.76775080513E+01  0.76775080513E+01  0.00000000000E+00 0. -1.
         25    1    1    2    0    0  0.00000000000E+00  0.00000000000E+00  0.50111388284E+03  0.51646889894E+03  0.12500000000E+03 0.  0.
<mgrwt>
<rscale>  0 0.12500000E+03</rscale>
<asrwt>0</asrwt>
<pdfrwt beam="1">  1       21 0.78275572E-01 0.12500000E+03</pdfrwt>
<pdfrwt beam="2">  1       21 0.11811555E-02 0.12500000E+03</pdfrwt>
<totfact> 0.41164790E+06</totfact>
</mgrwt>
</event>
<event>
 3    1  0.1594457E-001  0.1250000E+03  0.7546771E-02  0.1235069E+00
         21   -1    0    0  502  501  0.00000000000E+00  0.00000000000E+00  0.24809877149E+03  0.24809877149E+03  0.00000000000E+00 0. -1.
         21   -1    0    0  501  502 -0.00000000000E+00 -0.00000000000E+00 -0.15744737374E+02  0.15744737374E+02  0.00000000000E+00 0. -1.
         25    1    1    2    0    0  0.00000000000E+00  0.00000000000E+00  0.23235403412E+03  0.26384350887E+03  0.12500000000E+03 0.  0.
<mgrwt>
<rscale>  0 0.12500000E+03</rscale>
<asrwt>0</asrwt>
<pdfrwt beam="1">  1       21 0.38169039E-01 0.12500000E+03</pdfrwt>
<pdfrwt beam="2">  1       21 0.24222675E-02 0.12500000E+03</pdfrwt>
<totfact> 0.58598776E+06</totfact>
</mgrwt>
</event>
<event>
 3    1  0.1594457E-001  0.1250000E+03  0.7546771E-02  0.1235069E+00
         21   -1    0    0  502  501  0.00000000000E+00  0.00000000000E+00  0.67858421919E+03  0.67858421919E+03  0.00000000000E+00 0.  1.
         21   -1    0    0  501  502 -0.00000000000E+00 -0.00000000000E+00 -0.57564704417E+01  0.57564704417E+01  0.00000000000E+00 0.  1.
         25    1    1    2    0    0  0.00000000000E+00  0.00000000000E+00  0.67282774875E+03  0.68434068963E+03  0.12500000000E+03 0.  0.
<mgrwt>
<rscale>  0 0.12500000E+03</rscale>
<asrwt>0</asrwt>
<pdfrwt beam="1">  1       21 0.10439751E+00 0.12500000E+03</pdfrwt>
<pdfrwt beam="2">  1       21 0.88561137E-03 0.12500000E+03</pdfrwt>
<totfact> 0.33522668E+06</totfact>
</mgrwt>
</event>
<event>
 3    1  0.1594457E-001  0.1250000E+03  0.7546771E-02  0.1235069E+00
         21   -1    0    0  502  501  0.00000000000E+00  0.00000000000E+00  0.85269344966E+02  0.85269344966E+02  0.00000000000E+00 0.  1.
         21   -1    0    0  501  502 -0.00000000000E+00 -0.00000000000E+00 -0.45810718982E+02  0.45810718982E+02  0.00000000000E+00 0.  1.
         25    1    1    2    0    0  0.00000000000E+00  0.00000000000E+00  0.39458625984E+02  0.13108006395E+03  0.12500000000E+03 0.  0.
<mgrwt>
<rscale>  0 0.12500000E+03</rscale>
<asrwt>0</asrwt>
<pdfrwt beam="1">  1       21 0.13118361E-01 0.12500000E+03</pdfrwt>
<pdfrwt beam="2">  1       21 0.70478029E-02 0.12500000E+03</pdfrwt>
<totfact> 0.73219884E+06</totfact>
</mgrwt>
</event>
<event>
 3    1  0.1594457E-001  0.1250000E+03  0.7546771E-02  0.1235069E+00
         21   -1    0    0  502  501  0.00000000000E+00  0.00000000000E+00  0.55261034295E+02  0.55261034295E+02  0.00000000000E+00 0. -1.
         21   -1    0    0  501  502 -0.00000000000E+00 -0.00000000000E+00 -0.70687240111E+02  0.70687240111E+02  0.00000000000E+00 0. -1.
         25    1    1    2    0    0  0.00000000000E+00  0.00000000000E+00 -0.15426205816E+02  0.12594827441E+03  0.12500000000E+03 0.  0.
<mgrwt>
<rscale>  0 0.12500000E+03</rscale>
<asrwt>0</asrwt>
<pdfrwt beam="1">  1       21 0.85016976E-02 0.12500000E+03</pdfrwt>
<pdfrwt beam="2">  1       21 0.10874960E-01 0.12500000E+03</pdfrwt>
<totfact> 0.73913174E+06</totfact>
</mgrwt>
</event>
<event>
 3    1  0.1594457E-001  0.1250000E+03  0.7546771E-02  0.1235069E+00
         21   -1    0    0  502  501  0.00000000000E+00  0.00000000000E+00  0.10860994030E+02  0.10860994030E+02  0.00000000000E+00 0. -1.
         21   -1    0    0  501  502 -0.00000000000E+00 -0.00000000000E+00 -0.35965860851E+03  0.35965860851E+03  0.00000000000E+00 0. -1.
         25    1    1    2    0    0  0.00000000000E+00  0.00000000000E+00 -0.34879761448E+03  0.37051960254E+03  0.12500000000E+03 0.  0.
<mgrwt>
<rscale>  0 0.12500000E+03</rscale>
<asrwt>0</asrwt>
<pdfrwt beam="1">  1       21 0.16709221E-02 0.12500000E+03</pdfrwt>
<pdfrwt beam="2">  1       21 0.55332094E-01 0.12500000E+03</pdfrwt>
<totfact> 0.50057793E+06</totfact>
</mgrwt>
</event>
<event>
 3    1  0.1594457E-001  0.1250000E+03  0.7546771E-02  0.1235069E+00
         21   -1    0    0  502  501  0.00000000000E+00  0.00000000000E+00  0.79311103492E+02  0.79311103492E+02  0.00000000000E+00 0.  1.
         21   -1    0    0  501  502 -0.00000000000E+00 -0.00000000000E+00 -0.49252246256E+02  0.49252246256E+02  0.00000000000E+00 0.  1.
         25    1    1    2    0    0  0.00000000000E+00  0.00000000000E+00  0.30058857236E+02  0.12856334975E+03  0.12500000000E+03 0.  0.
<mgrwt>
<rscale>  0 0.12500000E+03</rscale>
<asrwt>0</asrwt>
<pdfrwt beam="1">  1       21 0.12201708E-01 0.12500000E+03</pdfrwt>
<pdfrwt beam="2">  1       21 0.75772687E-02 0.12500000E+03</pdfrwt>
<totfact> 0.73557592E+06</totfact>
</mgrwt>
</event>
<event>
 3    1  0.1594457E-001  0.1250000E+03  0.7546771E-02  0.1235069E+00
         21   -1    0    0  502  501  0.00000000000E+00  0.00000000000E+00  0.11915771905E+03  0.11915771905E+03  0.00000000000E+00 0.  1.
         21   -1    0    0  501  502 -0.00000000000E+00 -0.00000000000E+00 -0.32782181726E+02  0.32782181726E+02  0.00000000000E+00 0.  1.
         25    1    1    2    0    0  0.00000000000E+00  0.00000000000E+00  0.86375537324E+02  0.15193990078E+03  0.12500000000E+03 0.  0.
<mgrwt>
<rscale>  0 0.12500000E+03</rscale>
<asrwt>0</asrwt>
<pdfrwt beam="1">  1       21 0.18331957E-01 0.12500000E+03</pdfrwt>
<pdfrwt beam="2">  1       21 0.50434126E-02 0.12500000E+03</pdfrwt>
<totfact> 0.70516357E+06</totfact>
</mgrwt>
</event>
<event>
 3    1  0.1594457E-001  0.1250000E+03  0.7546771E-02  0.1235069E+00
         21   -1    0    0  502  501  0.00000000000E+00  0.00000000000E+00  0.16266980627E+03  0.16266980627E+03  0.00000000000E+00 0. -1.
         21   -1    0    0  501  502 -0.00000000000E+00 -0.00000000000E+00 -0.24013368489E+02  0.24013368489E+02  0.00000000000E+00 0. -1.
         25    1    1    2    0    0  0.00000000000E+00  0.00000000000E+00  0.13865643778E+03  0.18668317476E+03  0.12500000000E+03 0.  0.
<mgrwt>
<rscale>  0 0.12500000E+03</rscale>
<asrwt>0</asrwt>
<pdfrwt beam="1">  1       21 0.25026123E-01 0.12500000E+03</pdfrwt>
<pdfrwt beam="2">  1       21 0.36943645E-02 0.12500000E+03</pdfrwt>
<totfact> 0.66393010E+06</totfact>
</mgrwt>
</event>
<event>
 3    1  0.1594457E-001  0.1250000E+03  0.7546771E-02  0.1235069E+00
         21   -1    0    0  502  501  0.00000000000E+00  0.00000000000E+00  0.91610297659E+03  0.91610297659E+03  0.00000000000E+00 0. -1.
         21   -1    0    0  501  502 -0.00000000000E+00 -0.00000000000E+00 -0.42639857088E+01  0.42639857088E+01  0.00000000000E+00 0. -1.
         25    1    1    2    0    0  0.00000000000E+00  0.00000000000E+00  0.91183899088E+03  0.92036696230E+03  0.12500000000E+03 0.  0.
<mgrwt>
<rscale>  0 0.12500000E+03</rscale>
<asrwt>0</asrwt>
<pdfrwt beam="1">  1       21 0.14093876E+00 0.12500000E+03</pdfrwt>
<pdfrwt beam="2">  1       21 0.65599853E-03 0.12500000E+03</pdfrwt>
<totfact> 0.25721929E+06</totfact>
</mgrwt>
</event>
<event>
 3    1  0.1594457E-001  0.1250000E+03  0.7546771E-02  0.1235069E+00
         21   -1    0    0  502  501  0.00000000000E+00  0.00000000000E+00  0.25990895452E+01  0.25990895452E+01  0.00000000000E+00 0.  1.
         21   -1    0    0  501  502 -0.00000000000E+00 -0.00000000000E+00 -0.15029301346E+04  0.15029301346E+04  0.00000000000E+00 0.  1.
         25    1    1    2    0    0  0.00000000000E+00  0.00000000000E+00 -0.15003310451E+04  0.15055292241E+04  0.12500000000E+03 0.  0.
<mgrwt>
<rscale>  0 0.12500000E+03</rscale>
<asrwt>0</asrwt>
<pdfrwt beam="1">  1       21 0.39986020E-03 0.12500000E+03</pdfrwt>
<pdfrwt beam="2">  1       21 0.23121986E+00 0.12500000E+03</pdfrwt>
<totfact> 0.13911215E+06</totfact>
</mgrwt>
</event>
<event>
 3    1  0.1594457E-001  0.1250000E+03  0.7546771E-02  0.1235069E+00
         21   -1    0    0  502  501  0.00000000000E+00  0.00000000000E+00  0.83224096706E+02  0.83224096706E+02  0.00000000000E+00 0.  1.
         21   -1    0    0  501  502 -0.00000000000E+00 -0.00000000000E+00 -0.46936526254E+02  0.46936526254E+02  0.00000000000E+00 0.  1.
         25    1    1    2    0    0  0.00000000000E+00  0.00000000000E+00  0.36287570452E+02  0.13016062296E+03  0.12500000000E+03 0.  0.
<mgrwt>
<rscale>  0 0.12500000E+03</rscale>
<asrwt>0</asrwt>
<pdfrwt beam="1">  1       21 0.12803707E-01 0.12500000E+03</pdfrwt>
<pdfrwt beam="2">  1       21 0.72210040E-02 0.12500000E+03</pdfrwt>
<totfact> 0.73343456E+06</totfact>
</mgrwt>
</event>
<event>
 3    1  0.1594457E-001  0.1250000E+03  0.7546771E-02  0.1235069E+00
         21   -1    0    0  502  501  0.00000000000E+00  0.00000000000E+00  0.26471101220E+03  0.26471101220E+03  0.00000000000E+00 0.  1.
         21   -1    0    0  501  502 -0.00000000000E+00 -0.00000000000E+00 -0.14756658469E+02  0.14756658469E+02  0.00000000000E+00 0.  1.
         25    1    1    2    0    0  0.00000000000E+00  0.00000000000E+00  0.24995435373E+03  0.27946767067E+03  0.12500000000E+03 0.  0.
<mgrwt>
<rscale>  0 0.12500000E+03</rscale>
<asrwt>0</asrwt>
<pdfrwt beam="1">  1       21 0.40724768E-01 0.12500000E+03</pdfrwt>
<pdfrwt beam="2">  1       21 0.22702554E-02 0.12500000E+03</pdfrwt>
<totfact> 0.57206856E+06</totfact>
</mgrwt>
</event>
<event>
 3    1  0.1594457E-001  0.1250000E+03  0.7546771E-02  0.1235069E+00
         21   -1    0    0  502  501  0.00000000000E+00  0.00000000000E+00  0.39424767811E+03  0.39424767811E+03  0.00000000000E+00 0. -1.
         21   -1    0    0  501  502 -0.00000000000E+00 -0.00000000000E+00 -0.99081116184E+01  0.99081116184E+01  0.00000000000E+00 0. -1.
         25    1    1    2    0    0  0.00000000000E+00  0.00000000000E+00  0.38433956649E+03  0.40415578973E+03  0.12500000000E+03 0.  0.
<mgrwt>
<rscale>  0 0.12500000E+03</rscale>
<asrwt>0</asrwt>
<pdfrwt beam="1">  1       21 0.60653477E-01 0.12500000E+03</pdfrwt>
<pdfrwt beam="2">  1       21 0.15243252E-02 0.12500000E+03</pdfrwt>
<totfact> 0.47766923E+06</totfact>
</mgrwt>
</event>
<event>
 3    1  0.1594457E-001  0.1250000E+03  0.7546771E-02  0.1235069E+00
         21   -1    0    0  502  501  0.00000000000E+00  0.00000000000E+00  0.67687388774E+02  0.67687388774E+02  0.00000000000E+00 0.  1.
         21   -1    0    0  501  502 -0.00000000000E+00 -0.00000000000E+00 -0.57710159466E+02  0.57710159466E+02  0.00000000000E+00 0.  1.
         25    1    1    2    0    0  0.00000000000E+00  0.00000000000E+00  0.99772293075E+01  0.12539754824E+03  0.12500000000E+03 0.  0.
<mgrwt>
<rscale>  0 0.12500000E+03</rscale>
<asrwt>0</asrwt>
<pdfrwt beam="1">  1       21 0.10413444E-01 0.12500000E+03</pdfrwt>
<pdfrwt beam="2">  1       21 0.88784861E-02 0.12500000E+03</pdfrwt>
<totfact> 0.73989756E+06</totfact>
</mgrwt>
</event>
<event>
 3    1  0.1594457E-001  0.1250000E+03  0.7546771E-02  0.1235069E+00
         21   -1    0    0  502  501  0.00000000000E+00  0.00000000000E+00  0.51781884009E+02  0.51781884009E+02  0.00000000000E+00 0. -1.
         21   -1    0    0  501  502 -0.00000000000E+00 -0.00000000000E+00 -0.75436614074E+02  0.75436614074E+02  0.00000000000E+00 0. -1.
         25    1    1    2    0    0  0.00000000000E+00  0.00000000000E+00 -0.23654730065E+02  0.12721849808E+03  0.12500000000E+03 0.  0.
<mgrwt>
<rscale>  0 0.12500000E+03</rscale>
<asrwt>0</asrwt>
<pdfrwt beam="1">  1       21 0.79664437E-02 0.12500000E+03</pdfrwt>
<pdfrwt beam="2">  1       21 0.11605633E-01 0.12500000E+03</pdfrwt>
<totfact> 0.73739421E+06</totfact>
</mgrwt>
</event>
<event>
 3    1  0.1594457E-001  0.1250000E+03  0.7546771E-02  0.1235069E+00
         21   -1    0    0  502  501  0.00000000000E+00  0.00000000000E+00  0.63216086016E+02  0.63216086016E+02  0.00000000000E+00 0. -1.
         21   -1    0    0  501  502 -0.00000000000E+00 -0.00000000000E+00 -0.61792025514E+02  0.61792025514E+02  0.00000000000E+00 0. -1.
         25    1    1    2    0    0  0.00000000000E+00  0.00000000000E+00  0.14240605018E+01  0.12500811153E+03  0.12500000000E+03 0.  0.
<mgrwt>
<rscale>  0 0.12500000E+03</rscale>
<asrwt>0</asrwt>
<pdfrwt beam="1">  1       21 0.97255517E-02 0.12500000E+03</pdfrwt>
<pdfrwt beam="2">  1       21 0.95064655E-02 0.12500000E+03</pdfrwt>
<totfact> 0.74042486E+06</totfact>
</mgrwt>
</event>
<event>
 3    1  0.1594457E-001  0.1250000E+03  0.7546771E-02  0.1235069E+00
         21   -1    0    0  502  501  0.00000000000E+00  0.00000000000E+00  0.28332175153E+03  0.28332175153E+03  0.00000000000E+00 0. -1.
         21   -1    0    0  501  502 -0.00000000000E+00 -0.00000000000E+00 -0.13787328290E+02  0.13787328290E+02  0.00000000000E+00 0. -1.
         25    1    1    2    0    0  0.00000000000E+00  0.00000000000E+00  0.26953442324E+03  0.29710907982E+03  0.12500000000E+03 0.  0.
<mgrwt>
<rscale>  0 0.12500000E+03</rscale>
<asrwt>0</asrwt>
<pdfrwt beam="1">  1       21 0.43587957E-01 0.12500000E+03</pdfrwt>
<pdfrwt beam="2">  1       21 0.21211276E-02 0.12500000E+03</pdfrwt>
<totfact> 0.55697281E+06</totfact>
</mgrwt>
</event>
<event>
 3    1  0.1594457E-001  0.1250000E+03  0.7546771E-02  0.1235069E+00
         21   -1    0    0  502  501  0.00000000000E+00  0.00000000000E+00  0.17263121362E+03  0.17263121362E+03  0.00000000000E+00 0.  1.
         21   -1    0    0  501  502 -0.00000000000E+00 -0.00000000000E+00 -0.22627715568E+02  0.22627715568E+02  0.00000000000E+00 0.  1.
         25    1    1    2    0    0  0.00000000000E+00  0.00000000000E+00  0.15000349805E+03  0.19525892919E+03  0.12500000000E+03 0.  0.
<mgrwt>
<rscale>  0 0.12500000E+03</rscale>
<asrwt>0</asrwt>
<pdfrwt beam="1">  1       21 0.26558647E-01 0.12500000E+03</pdfrwt>
<pdfrwt beam="2">  1       21 0.34811871E-02 0.12500000E+03</pdfrwt>
<totfact> 0.65442695E+06</totfact>
</mgrwt>
</event>
<event>
 3    1  0.1594457E-001  0.1250000E+03  0.7546771E-02  0.1235069E+00
         21   -1    0    0  502  501  0.00000000000E+00  0.00000000000E+00  0.13324523642E+03  0.13324523642E+03  0.00000000000E+00 0.  1.
         21   -1    0    0  501  502 -0.00000000000E+00 -0.00000000000E+00 -0.29316245029E+02  0.29316245029E+02  0.00000000000E+00 0.  1.
         25    1    1    2    0    0  0.00000000000E+00  0.00000000000E+00  0.10392899140E+03  0.16256148145E+03  0.12500000000E+03 0.  0.
<mgrwt>
<rscale>  0 0.12500000E+03</rscale>
<asrwt>0</asrwt>
<pdfrwt beam="1">  1       21 0.20499267E-01 0.12500000E+03</pdfrwt>
<pdfrwt beam="2">  1       21 0.45101916E-02 0.12500000E+03</pdfrwt>
<totfact> 0.69207857E+06</totfact>
</mgrwt>
</event>
<event>
 3    1  0.1594457E-001  0.1250000E+03  0.7546771E-02  0.1235069E+00
         21   -1    0    0  502  501  0.00000000000E+00  0.00000000000E+00  0.27700953669E+02  0.27700953669E+02  0.00000000000E+00 0.  1.
         21   -1    0    0  501  502 -0.00000000000E+00 -0.00000000000E+00 -0.14101500066E+03  0.14101500066E+03  0.00000000000E+00 0.  1.
         25    1    1    2    0    0  0.00000000000E+00  0.00000000000E+00 -0.11331404699E+03  0.16871595433E+03  0.12500000000E+03 0.  0.
<mgrwt>
<rscale>  0 0.12500000E+03</rscale>
<asrwt>0</asrwt>
<pdfrwt beam="1">  1       21 0.42616852E-02 0.12500000E+03</pdfrwt>
<pdfrwt beam="2">  1       21 0.21694616E-01 0.12500000E+03</pdfrwt>
<totfact> 0.68469872E+06</totfact>
</mgrwt>
</event>
<event>
 3    1  0.1594457E-001  0.1250000E+03  0.7546771E-02  0.1235069E+00
         21   -1    0    0  502  501  0.00000000000E+00  0.00000000000E+00  0.67848306352E+02  0.67848306352E+02  0.00000000000E+00 0.  1.
         21   -1    0    0  501  502 -0.00000000000E+00 -0.00000000000E+00 -0.57573286793E+02  0.57573286793E+02  0.00000000000E+00 0.  1.
         25    1    1    2    0    0  0.00000000000E+00  0.00000000000E+00  0.10275019559E+02  0.12542159314E+03  0.12500000000E+03 0.  0.
<mgrwt>
<rscale>  0 0.12500000E+03</rscale>
<asrwt>0</asrwt>
<pdfrwt beam="1">  1       21 0.10438201E-01 0.12500000E+03</pdfrwt>
<pdfrwt beam="2">  1       21 0.88574288E-02 0.12500000E+03</pdfrwt>
<totfact> 0.73986379E+06</totfact>
</mgrwt>
</event>
<event>
 3    1  0.1594457E-001  0.1250000E+03  0.7546771E-02  0.1235069E+00
         21   -1    0    0  502  501  0.00000000000E+00  0.00000000000E+00  0.11648365225E+02  0.11648365225E+02  0.00000000000E+00 0.  1.
         21   -1    0    0  501  502 -0.00000000000E+00 -0.00000000000E+00 -0.33534748648E+03  0.33534748648E+03  0.00000000000E+00 0.  1.
         25    1    1    2    0    0  0.00000000000E+00  0.00000000000E+00 -0.32369912126E+03  0.34699585171E+03  0.12500000000E+03 0.  0.
<mgrwt>
<rscale>  0 0.12500000E+03</rscale>
<asrwt>0</asrwt>
<pdfrwt beam="1">  1       21 0.17920561E-02 0.12500000E+03</pdfrwt>
<pdfrwt beam="2">  1       21 0.51591923E-01 0.12500000E+03</pdfrwt>
<totfact> 0.51761063E+06</totfact>
</mgrwt>
</event>
<event>
 3    1  0.1594457E-001  0.1250000E+03  0.7546771E-02  0.1235069E+00
         21   -1    0    0  502  501  0.00000000000E+00  0.00000000000E+00  0.23193986771E+03  0.23193986771E+03  0.00000000000E+00 0. -1.
         21   -1    0    0  501  502 -0.00000000000E+00 -0.00000000000E+00 -0.16841649685E+02  0.16841649685E+02  0.00000000000E+00 0. -1.
         25    1    1    2    0    0  0.00000000000E+00  0.00000000000E+00  0.21509821803E+03  0.24878151740E+03  0.12500000000E+03 0.  0.
<mgrwt>
<rscale>  0 0.12500000E+03</rscale>
<asrwt>0</asrwt>
<pdfrwt beam="1">  1       21 0.35683054E-01 0.12500000E+03</pdfrwt>
<pdfrwt beam="2">  1       21 0.25910232E-02 0.12500000E+03</pdfrwt>
<totfact> 0.59993098E+06</totfact>
</mgrwt>
</event>
<event>
 3    1  0.1594457E-001  0.1250000E+03  0.7546771E-02  0.1235069E+00
         21   -1    0    0  502  501  0.00000000000E+00  0.00000000000E+00  0.25004370880E+02  0.25004370880E+02  0.00000000000E+00 0. -1.
         21   -1    0    0  501  502 -0.00000000000E+00 -0.00000000000E+00 -0.15622268678E+03  0.15622268678E+03  0.00000000000E+00 0. -1.
         25    1    1    2    0    0  0.00000000000E+00  0.00000000000E+00 -0.13121831590E+03  0.18122705766E+03  0.12500000000E+03 0.  0.
<mgrwt>
<rscale>  0 0.12500000E+03</rscale>
<asrwt>0</asrwt>
<pdfrwt beam="1">  1       21 0.38468263E-02 0.12500000E+03</pdfrwt>
<pdfrwt beam="2">  1       21 0.24034259E-01 0.12500000E+03</pdfrwt>
<totfact> 0.67011051E+06</totfact>
</mgrwt>
</event>
<event>
 3    1  0.1594457E-001  0.1250000E+03  0.7546771E-02  0.1235069E+00
         21   -1    0    0  502  501  0.00000000000E+00  0.00000000000E+00  0.25445096937E+03  0.25445096937E+03  0.00000000000E+00 0. -1.
         21   -1    0    0  501  502 -0.00000000000E+00 -0.00000000000E+00 -0.15351680560E+02  0.15351680560E+02  0.00000000000E+00 0. -1.
         25    1    1    2    0    0  0.00000000000E+00  0.00000000000E+00  0.23909928881E+03  0.26980264993E+03  0.12500000000E+03 0.  0.
<mgrwt>
<rscale>  0 0.12500000E+03</rscale>
<asrwt>0</asrwt>
<pdfrwt beam="1">  1       21 0.39146300E-01 0.12500000E+03</pdfrwt>
<pdfrwt beam="2">  1       21 0.23617972E-02 0.12500000E+03</pdfrwt>
<totfact> 0.58062291E+06</totfact>
</mgrwt>
</event>
<event>
 3    1  0.1594457E-001  0.1250000E+03  0.7546771E-02  0.1235069E+00
         21   -1    0    0  502  501  0.00000000000E+00  0.00000000000E+00  0.16064526603E+03  0.16064526603E+03  0.00000000000E+00 0.  1.
         21   -1    0    0  501  502 -0.00000000000E+00 -0.00000000000E+00 -0.24315998202E+02  0.24315998202E+02  0.00000000000E+00 0.  1.
         25    1    1    2    0    0  0.00000000000E+00  0.00000000000E+00  0.13632926783E+03  0.18496126423E+03  0.12500000000E+03 0.  0.
<mgrwt>
<rscale>  0 0.12500000E+03</rscale>
<asrwt>0</asrwt>
<pdfrwt beam="1">  1       21 0.24714656E-01 0.12500000E+03</pdfrwt>
<pdfrwt beam="2">  1       21 0.37409229E-02 0.12500000E+03</pdfrwt>
<totfact> 0.66586904E+06</totfact>
</mgrwt>
</event>
<event>
 3    1  0.1594457E-001  0.1250000E+03  0.7546771E-02  0.1235069E+00
         21   -1    0    0  502  501  0.00000000000E+00  0.00000000000E+00  0.23417138233E+03  0.23417138233E+03  0.00000000000E+00 0. -1.
         21   -1    0    0  501  502 -0.00000000000E+00 -0.00000000000E+00 -0.16681158736E+02  0.16681158736E+02  0.00000000000E+00 0. -1.
         25    1    1    2    0    0  0.00000000000E+00  0.00000000000E+00  0.21749022359E+03  0.25085254106E+03  0.12500000000E+03 0.  0.
<mgrwt>
<rscale>  0 0.12500000E+03</rscale>
<asrwt>0</asrwt>
<pdfrwt beam="1">  1       21 0.36026364E-01 0.12500000E+03</pdfrwt>
<pdfrwt beam="2">  1       21 0.25663323E-02 0.12500000E+03</pdfrwt>
<totfact> 0.59798018E+06</totfact>
</mgrwt>
</event>
<event>
 3    1  0.1594457E-001  0.1250000E+03  0.7546771E-02  0.1235069E+00
         21   -1    0    0  502  501  0.00000000000E+00  0.00000000000E+00  0.38390599017E+02  0.38390599017E+02  0.00000000000E+00 0.  1.
         21   -1    0    0  501  502 -0.00000000000E+00 -0.00000000000E+00 -0.10175017062E+03  0.10175017062E+03  0.00000000000E+00 0.  1.
         25    1    1    2    0    0  0.00000000000E+00  0.00000000000E+00 -0.63359571598E+02  0.14014076963E+03  0.12500000000E+03 0.  0.
<mgrwt>
<rscale>  0 0.12500000E+03</rscale>
<asrwt>0</asrwt>
<pdfrwt beam="1">  1       21 0.59062461E-02 0.12500000E+03</pdfrwt>
<pdfrwt beam="2">  1       21 0.15653872E-01 0.12500000E+03</pdfrwt>
<totfact> 0.72020937E+06</totfact>
</mgrwt>
</event>
<event>
 3    1  0.1594457E-001  0.1250000E+03  0.7546771E-02  0.1235069E+00
         21   -1    0    0  502  501  0.00000000000E+00  0.00000000000E+00  0.27341117967E+02  0.27341117967E+02  0.00000000000E+00 0.  1.
         21   -1    0    0  501  502 -0.00000000000E+00 -0.00000000000E+00 -0.14287089521E+03  0.14287089521E+03  0.00000000000E+00 0.  1.
         25    1    1    2    0    0  0.00000000000E+00  0.00000000000E+00 -0.11552977724E+03  0.17021201318E+03  0.12500000000E+03 0.  0.
<mgrwt>
<rscale>  0 0.12500000E+03</rscale>
<asrwt>0</asrwt>
<pdfrwt beam="1">  1       21 0.42063259E-02 0.12500000E+03</pdfrwt>
<pdfrwt beam="2">  1       21 0.21980138E-01 0.12500000E+03</pdfrwt>
<totfact> 0.68292511E+06</totfact>
</mgrwt>
</event>
<event>
 3    1  0.1594457E-001  0.1250000E+03  0.7546771E-02  0.1235069E+00
         21   -1    0    0  502  501  0.00000000000E+00  0.00000000000E+00  0.17258989120E+02  0.17258989120E+02  0.00000000000E+00 0. -1.
         21   -1    0    0  501  502 -0.00000000000E+00 -0.00000000000E+00 -0.22633133221E+03  0.22633133221E+03  0.00000000000E+00 0. -1.
         25    1    1    2    0    0  0.00000000000E+00  0.00000000000E+00 -0.20907234309E+03  0.24359032133E+03  0.12500000000E+03 0.  0.
<mgrwt>
<rscale>  0 0.12500000E+03</rscale>
<asrwt>0</asrwt>
<pdfrwt beam="1">  1       21 0.26552291E-02 0.12500000E+03</pdfrwt>
<pdfrwt beam="2">  1       21 0.34820206E-01 0.12500000E+03</pdfrwt>
<totfact> 0.60486955E+06</totfact>
</mgrwt>
</event>
<event>
 3    1  0.1594457E-001  0.1250000E+03  0.7546771E-02  0.1235069E+00
         21   -1    0    0  502  501  0.00000000000E+00  0.00000000000E+00  0.19506196031E+03  0.19506196031E+03  0.00000000000E+00 0.  1.
         21   -1    0    0  501  502 -0.00000000000E+00 -0.00000000000E+00 -0.20025688216E+02  0.20025688216E+02  0.00000000000E+00 0.  1.
         25    1    1    2    0    0  0.00000000000E+00  0.00000000000E+00  0.17503627209E+03  0.21508764852E+03  0.12500000000E+03 0.  0.
<mgrwt>
<rscale>  0 0.12500000E+03</rscale>
<asrwt>0</asrwt>
<pdfrwt beam="1">  1       21 0.30009531E-01 0.12500000E+03</pdfrwt>
<pdfrwt beam="2">  1       21 0.30808752E-02 0.12500000E+03</pdfrwt>
<totfact> 0.63328201E+06</totfact>
</mgrwt>
</event>
<event>
 3    1  0.1594457E-001  0.1250000E+03  0.7546771E-02  0.1235069E+00
         21   -1    0    0  502  501  0.00000000000E+00  0.00000000000E+00  0.11864792199E+03  0.11864792199E+03  0.00000000000E+00 0.  1.
         21   -1    0    0  501  502 -0.00000000000E+00 -0.00000000000E+00 -0.32923037625E+02  0.32923037625E+02  0.00000000000E+00 0.  1.
         25    1    1    2    0    0  0.00000000000E+00  0.00000000000E+00  0.85724884369E+02  0.15157095962E+03  0.12500000000E+03 0.  0.
<mgrwt>
<rscale>  0 0.12500000E+03</rscale>
<asrwt>0</asrwt>
<pdfrwt beam="1">  1       21 0.18253526E-01 0.12500000E+03</pdfrwt>
<pdfrwt beam="2">  1       21 0.50650828E-02 0.12500000E+03</pdfrwt>
<totfact> 0.70562414E+06</totfact>
</mgrwt>
</event>
<event>
 3    1  0.1594457E-001  0.1250000E+03  0.7546771E-02  0.1235069E+00
         21   -1    0    0  502  501  0.00000000000E+00  0.00000000000E+00  0.61011508505E+03  0.61011508505E+03  0.00000000000E+00 0.  1.
         21   -1    0    0  501  502 -0.00000000000E+00 -0.00000000000E+00 -0.64024806068E+01  0.64024806068E+01  0.00000000000E+00 0.  1.
         25    1    1    2    0    0  0.00000000000E+00  0.00000000000E+00  0.60371260445E+03  0.61651756566E+03  0.12500000000E+03 0.  0.
<mgrwt>
<rscale>  0 0.12500000E+03</rscale>
<asrwt>0</asrwt>
<pdfrwt beam="1">  1       21 0.93863813E-01 0.12500000E+03</pdfrwt>
<pdfrwt beam="2">  1       21 0.98499750E-03 0.12500000E+03</pdfrwt>
<totfact> 0.36356154E+06</totfact>
</mgrwt>
</event>
<event>
 3    1  0.1594457E-001  0.1250000E+03  0.7546771E-02  0.1235069E+00
         21   -1    0    0  502  501  0.00000000000E+00  0.00000000000E+00  0.63266967397E+03  0.63266967397E+03  0.00000000000E+00 0. -1.
         21   -1    0    0  501  502 -0.00000000000E+00 -0.00000000000E+00 -0.61742330330E+01  0.61742330330E+01  0.00000000000E+00 0. -1.
         25    1    1    2    0    0  0.00000000000E+00  0.00000000000E+00  0.62649544094E+03  0.63884390700E+03  0.12500000000E+03 0.  0.
<mgrwt>
<rscale>  0 0.12500000E+03</rscale>
<asrwt>0</asrwt>
<pdfrwt beam="1">  1       21 0.97333745E-01 0.12500000E+03</pdfrwt>
<pdfrwt beam="2">  1       21 0.94988250E-03 0.12500000E+03</pdfrwt>
<totfact> 0.35392819E+06</totfact>
</mgrwt>
</event>
<event>
 3    1  0.1594457E-001  0.1250000E+03  0.7546771E-02  0.1235069E+00
         21   -1    0    0  502  501  0.00000000000E+00  0.00000000000E+00  0.90217140084E+03  0.90217140084E+03  0.00000000000E+00 0.  1.
         21   -1    0    0  501  502 -0.00000000000E+00 -0.00000000000E+00 -0.43298313340E+01  0.43298313340E+01  0.00000000000E+00 0.  1.
         25    1    1    2    0    0  0.00000000000E+00  0.00000000000E+00  0.89784156950E+03  0.90650123217E+03  0.12500000000E+03 0.  0.
<mgrwt>
<rscale>  0 0.12500000E+03</rscale>
<asrwt>0</asrwt>
<pdfrwt beam="1">  1       21 0.13879545E+00 0.12500000E+03</pdfrwt>
<pdfrwt beam="2">  1       21 0.66612862E-03 0.12500000E+03</pdfrwt>
<totfact> 0.26113072E+06</totfact>
</mgrwt>
</event>
<event>
 3    1  0.1594457E-001  0.1250000E+03  0.7546771E-02  0.1235069E+00
         21   -1    0    0  502  501  0.00000000000E+00  0.00000000000E+00  0.11475516760E+02  0.11475516760E+02  0.00000000000E+00 0. -1.
         21   -1    0    0  501  502 -0.00000000000E+00 -0.00000000000E+00 -0.34039861401E+03  0.34039861401E+03  0.00000000000E+00 0. -1.
         25    1    1    2    0    0  0.00000000000E+00  0.00000000000E+00 -0.32892309725E+03  0.35187413077E+03  0.12500000000E+03 0.  0.
<mgrwt>
<rscale>  0 0.12500000E+03</rscale>
<asrwt>0</asrwt>
<pdfrwt beam="1">  1       21 0.17654640E-02 0.12500000E+03</pdfrwt>
<pdfrwt beam="2">  1       21 0.52369022E-01 0.12500000E+03</pdfrwt>
<totfact> 0.51400317E+06</totfact>
</mgrwt>
</event>
<event>
 3    1  0.1594457E-001  0.1250000E+03  0.7546771E-02  0.1235069E+00
         21   -1    0    0  502  501  0.00000000000E+00  0.00000000000E+00  0.97020014514E+01  0.97020014514E+01  0.00000000000E+00 0. -1.
         21   -1    0    0  501  502 -0.00000000000E+00 -0.00000000000E+00 -0.40262311025E+03  0.40262311025E+03  0.00000000000E+00 0. -1.
         25    1    1    2    0    0  0.00000000000E+00  0.00000000000E+00 -0.39292110880E+03  0.41232511170E+03  0.12500000000E+03 0.  0.
<mgrwt>
<rscale>  0 0.12500000E+03</rscale>
<asrwt>0</asrwt>
<pdfrwt beam="1">  1       21 0.14926153E-02 0.12500000E+03</pdfrwt>
<pdfrwt beam="2">  1       21 0.61942028E-01 0.12500000E+03</pdfrwt>
<totfact> 0.47234438E+06</totfact>
</mgrwt>
</event>
<event>
 3    1  0.1594457E-001  0.1250000E+03  0.7546771E-02  0.1235069E+00
         21   -1    0    0  502  501  0.00000000000E+00  0.00000000000E+00  0.15848649593E+02  0.15848649593E+02  0.00000000000E+00 0. -1.
         21   -1    0    0  501  502 -0.00000000000E+00 -0.00000000000E+00 -0.24647210332E+03  0.24647210332E+03  0.00000000000E+00 0. -1.
         25    1    1    2    0    0  0.00000000000E+00  0.00000000000E+00 -0.23062345373E+03  0.26232075292E+03  0.12500000000E+03 0.  0.
<mgrwt>
<rscale>  0 0.12500000E+03</rscale>
<asrwt>0</asrwt>
<pdfrwt beam="1">  1       21 0.24382538E-02 0.12500000E+03</pdfrwt>
<pdfrwt beam="2">  1       21 0.37918784E-01 0.12500000E+03</pdfrwt>
<totfact> 0.58737213E+06</totfact>
</mgrwt>
</event>
<event>
 3    1  0.1594457E-001  0.1250000E+03  0.7546771E-02  0.1235069E+00
         21   -1    0    0  502  501  0.00000000000E+00  0.00000000000E+00  0.37195882357E+02  0.37195882357E+02  0.00000000000E+00 0. -1.
         21   -1    0    0  501  502 -0.00000000000E+00 -0.00000000000E+00 -0.10501834484E+03  0.10501834484E+03  0.00000000000E+00 0. -1.
         25    1    1    2    0    0  0.00000000000E+00  0.00000000000E+00 -0.67822462483E+02  0.14221422720E+03  0.12500000000E+03 0.  0.
<mgrwt>
<rscale>  0 0.12500000E+03</rscale>
<asrwt>0</asrwt>
<pdfrwt beam="1">  1       21 0.57224435E-02 0.12500000E+03</pdfrwt>
<pdfrwt beam="2">  1       21 0.16156668E-01 0.12500000E+03</pdfrwt>
<totfact> 0.71751548E+06</totfact>
</mgrwt>
</event>
<event>
 3    1  0.1594457E-001  0.1250000E+03  0.7546771E-02  0.1235069E+00
         21   -1    0    0  502  501  0.00000000000E+00  0.00000000000E+00  0.10627795731E+02  0.10627795731E+02  0.00000000000E+00 0. -1.
         21   -1    0    0  501  502 -0.00000000000E+00 -0.00000000000E+00 -0.36755034618E+03  0.36755034618E+03  0.00000000000E+00 0. -1.
         25    1    1    2    0    0  0.00000000000E+00  0.00000000000E+00 -0.35692255045E+03  0.37817814191E+03  0.12500000000E+03 0.  0.
<mgrwt>
<rscale>  0 0.12500000E+03</rscale>
<asrwt>0</asrwt>
<pdfrwt beam="1">  1       21 0.16350454E-02 0.12500000E+03</pdfrwt>
<pdfrwt beam="2">  1       21 0.56546209E-01 0.12500000E+03</pdfrwt>
<totfact> 0.49522378E+06</totfact>
</mgrwt>
</event>
<event>
 3    1  0.1594457E-001  0.1250000E+03  0.7546771E-02  0.1235069E+00
         21   -1    0    0  502  501  0.00000000000E+00  0.00000000000E+00  0.13556872879E+03  0.13556872879E+03  0.00000000000E+00 0.  1.
         21   -1    0    0  501  502 -0.00000000000E+00 -0.00000000000E+00 -0.28813798247E+02  0.28813798247E+02  0.00000000000E+00 0.  1.
         25    1    1    2    0    0  0.00000000000E+00  0.00000000000E+00  0.10675493055E+03  0.16438252704E+03  0.12500000000E+03 0.  0.
<mgrwt>
<rscale>  0 0.12500000E+03</rscale>
<asrwt>0</asrwt>
<pdfrwt beam="1">  1       21 0.20856727E-01 0.12500000E+03</pdfrwt>
<pdfrwt beam="2">  1       21 0.44328921E-02 0.12500000E+03</pdfrwt>
<totfact> 0.68987924E+06</totfact>
</mgrwt>
</event>
<event>
 3    1  0.1594457E-001  0.1250000E+03  0.7546771E-02  0.1235069E+00
         21   -1    0    0  502  501  0.00000000000E+00  0.00000000000E+00  0.27868960791E+02  0.27868960791E+02  0.00000000000E+00 0.  1.
         21   -1    0    0  501  502 -0.00000000000E+00 -0.00000000000E+00 -0.14016489633E+03  0.14016489633E+03  0.00000000000E+00 0.  1.
         25    1    1    2    0    0  0.00000000000E+00  0.00000000000E+00 -0.11229593553E+03  0.16803385712E+03  0.12500000000E+03 0.  0.
<mgrwt>
<rscale>  0 0.12500000E+03</rscale>
<asrwt>0</asrwt>
<pdfrwt beam="1">  1       21 0.42875325E-02 0.12500000E+03</pdfrwt>
<pdfrwt beam="2">  1       21 0.21563830E-01 0.12500000E+03</pdfrwt>
<totfact> 0.68550926E+06</totfact>
</mgrwt>
</event>
<event>
 3    1  0.1594457E-001  0.1250000E+03  0.7546771E-02  0.1235069E+00
         21   -1    0    0  502  501  0.00000000000E+00  0.00000000000E+00  0.20981871284E+03  0.20981871284E+03  0.00000000000E+00 0. -1.
         21   -1    0    0  501  502 -0.00000000000E+00 -0.00000000000E+00 -0.18617262241E+02  0.18617262241E+02  0.00000000000E+00 0. -1.
         25    1    1    2    0    0  0.00000000000E+00  0.00000000000E+00  0.19120145060E+03  0.22843597508E+03  0.12500000000E+03 0.  0.
<mgrwt>
<rscale>  0 0.12500000E+03</rscale>
<asrwt>0</asrwt>
<pdfrwt beam="1">  1       21 0.32279800E-01 0.12500000E+03</pdfrwt>
<pdfrwt beam="2">  1       21 0.28641943E-02 0.12500000E+03</pdfrwt>
<totfact> 0.61969973E+06</totfact>
</mgrwt>
</event>
<event>
 3    1  0.1594457E-001  0.1250000E+03  0.7546771E-02  0.1235069E+00
         21   -1    0    0  502  501  0.00000000000E+00  0.00000000000E+00  0.28252606656E+02  0.28252606656E+02  0.00000000000E+00 0.  1.
         21   -1    0    0  501  502 -0.00000000000E+00 -0.00000000000E+00 -0.13826157875E+03  0.13826157875E+03  0.00000000000E+00 0.  1.
         25    1    1    2    0    0  0.00000000000E+00  0.00000000000E+00 -0.11000897209E+03  0.16651418540E+03  0.12500000000E+03 0.  0.
<mgrwt>
<rscale>  0 0.12500000E+03</rscale>
<asrwt>0</asrwt>
<pdfrwt beam="1">  1       21 0.43465549E-02 0.12500000E+03</pdfrwt>
<pdfrwt beam="2">  1       21 0.21271012E-01 0.12500000E+03</pdfrwt>
<totfact> 0.68732164E+06</totfact>
</mgrwt>
</event>
<event>
 3    1  0.1594457E-001  0.1250000E+03  0.7546771E-02  0.1235069E+00
         21   -1    0    0  502  501  0.00000000000E+00  0.00000000000E+00  0.64272473879E+03  0.64272473879E+03  0.00000000000E+00 0.  1.
         21   -1    0    0  501  502 -0.00000000000E+00 -0.00000000000E+00 -0.60776406512E+01  0.60776406512E+01  0.00000000000E+00 0.  1.
         25    1    1    2    0    0  0.00000000000E+00  0.00000000000E+00  0.63664709814E+03  0.64880237944E+03  0.12500000000E+03 0.  0.
<mgrwt>
<rscale>  0 0.12500000E+03</rscale>
<asrwt>0</asrwt>
<pdfrwt beam="1">  1       21 0.98880675E-01 0.12500000E+03</pdfrwt>
<pdfrwt beam="2">  1       21 0.93502215E-03 0.12500000E+03</pdfrwt>
<totfact> 0.34974404E+06</totfact>
</mgrwt>
</event>
<event>
 3    1  0.1594457E-001  0.1250000E+03  0.7546771E-02  0.1235069E+00
         21   -1    0    0  502  501  0.00000000000E+00  0.00000000000E+00  0.10843895581E+02  0.10843895581E+02  0.00000000000E+00 0. -1.
         21   -1    0    0  501  502 -0.00000000000E+00 -0.00000000000E+00 -0.36022571139E+03  0.36022571139E+03  0.00000000000E+00 0. -1.
         25    1    1    2    0    0  0.00000000000E+00  0.00000000000E+00 -0.34938181580E+03  0.37106960697E+03  0.12500000000E+03 0.  0.
<mgrwt>
<rscale>  0 0.12500000E+03</rscale>
<asrwt>0</asrwt>
<pdfrwt beam="1">  1       21 0.16682920E-02 0.12500000E+03</pdfrwt>
<pdfrwt beam="2">  1       21 0.55419326E-01 0.12500000E+03</pdfrwt>
<totfact> 0.50019045E+06</totfact>
</mgrwt>
</event>
<event>
 3    1  0.1594457E-001  0.1250000E+03  0.7546771E-02  0.1235069E+00
         21   -1    0    0  502  501  0.00000000000E+00  0.00000000000E+00  0.14796514328E+02  0.14796514328E+02  0.00000000000E+00 0. -1.
         21   -1    0    0  501  502 -0.00000000000E+00 -0.00000000000E+00 -0.26399798719E+03  0.26399798719E+03  0.00000000000E+00 0. -1.
         25    1    1    2    0    0  0.00000000000E+00  0.00000000000E+00 -0.24920147286E+03  0.27879450152E+03  0.12500000000E+03 0.  0.
<mgrwt>
<rscale>  0 0.12500000E+03</rscale>
<asrwt>0</asrwt>
<pdfrwt beam="1">  1       21 0.22763871E-02 0.12500000E+03</pdfrwt>
<pdfrwt beam="2">  1       21 0.40615070E-01 0.12500000E+03</pdfrwt>
<totfact> 0.57265799E+06</totfact>
</mgrwt>
</event>
<event>
 3    1  0.1594457E-001  0.1250000E+03  0.7546771E-02  0.1235069E+00
         21   -1    0    0  502  501  0.00000000000E+00  0.00000000000E+00  0.65021313300E+01  0.65021313300E+01  0.00000000000E+00 0. -1.
         21   -1    0    0  501  502 -0.00000000000E+00 -0.00000000000E+00 -0.60076454961E+03  0.60076454961E+03  0.00000000000E+00 0. -1.
         25    1    1    2    0    0  0.00000000000E+00  0.00000000000E+00 -0.59426241828E+03  0.60726668094E+03  0.12500000000E+03 0.  0.
<mgrwt>
<rscale>  0 0.12500000E+03</rscale>
<asrwt>0</asrwt>
<pdfrwt beam="1">  1       21 0.10003279E-02 0.12500000E+03</pdfrwt>
<pdfrwt beam="2">  1       21 0.92425315E-01 0.12500000E+03</pdfrwt>
<totfact> 0.36766053E+06</totfact>
</mgrwt>
</event>
<event>
 3    1  0.1594457E-001  0.1250000E+03  0.7546771E-02  0.1235069E+00
         21   -1    0    0  502  501  0.00000000000E+00  0.00000000000E+00  0.79738306444E+02  0.79738306444E+02  0.00000000000E+00 0.  1.
         21   -1    0    0  501  502 -0.00000000000E+00 -0.00000000000E+00 -0.48988374273E+02  0.48988374273E+02  0.00000000000E+00 0.  1.
         25    1    1    2    0    0  0.00000000000E+00  0.00000000000E+00  0.30749932170E+02  0.12872668072E+03  0.12500000000E+03 0.  0.
<mgrwt>
<rscale>  0 0.12500000E+03</rscale>
<asrwt>0</asrwt>
<pdfrwt beam="1">  1       21 0.12267432E-01 0.12500000E+03</pdfrwt>
<pdfrwt beam="2">  1       21 0.75366730E-02 0.12500000E+03</pdfrwt>
<totfact> 0.73535614E+06</totfact>
</mgrwt>
</event>
<event>
 3    1  0.1594457E-001  0.1250000E+03  0.7546771E-02  0.1235069E+00
         21   -1    0    0  502  501  0.00000000000E+00  0.00000000000E+00  0.15868875390E+02  0.15868875390E+02  0.00000000000E+00 0. -1.
         21   -1    0    0  501  502 -0.00000000000E+00 -0.00000000000E+00 -0.24615796040E+03  0.24615796040E+03  0.00000000000E+00 0. -1.
         25    1    1    2    0    0  0.00000000000E+00  0.00000000000E+00 -0.23028908501E+03  0.26202683579E+03  0.12500000000E+03 0.  0.
<mgrwt>
<rscale>  0 0.12500000E+03</rscale>
<asrwt>0</asrwt>
<pdfrwt beam="1">  1       21 0.24413655E-02 0.12500000E+03</pdfrwt>
<pdfrwt beam="2">  1       21 0.37870455E-01 0.12500000E+03</pdfrwt>
<totfact> 0.58763997E+06</totfact>
</mgrwt>
</event>
<event>
 3    1  0.1594457E-001  0.1250000E+03  0.7546771E-02  0.1235069E+00
         21   -1    0    0  502  501  0.00000000000E+00  0.00000000000E+00  0.89113555299E+02  0.89113555299E+02  0.00000000000E+00 0.  1.
         21   -1    0    0  501  502 -0.00000000000E+00 -0.00000000000E+00 -0.43834520875E+02  0.43834520875E+02  0.00000000000E+00 0.  1.
         25    1    1    2    0    0  0.00000000000E+00  0.00000000000E+00  0.45279034424E+02  0.13294807617E+03  0.12500000000E+03 0.  0.
<mgrwt>
<rscale>  0 0.12500000E+03</rscale>
<asrwt>0</asrwt>
<pdfrwt beam="1">  1       21 0.13709778E-01 0.12500000E+03</pdfrwt>
<pdfrwt beam="2">  1       21 0.67437725E-02 0.12500000E+03</pdfrwt>
<totfact> 0.72969333E+06</totfact>
</mgrwt>
</event>
<event>
 3    1  0.1594457E-001  0.1250000E+03  0.7546771E-02  0.1235069E+00
         21   -1    0    0  502  501  0.00000000000E+00  0.00000000000E+00  0.11554557578E+03  0.11554557578E+03  0.00000000000E+00 0. -1.
         21   -1    0    0  501  502 -0.00000000000E+00 -0.00000000000E+00 -0.33807006228E+02  0.33807006228E+02  0.00000000000E+00 0. -1.
         25    1    1    2    0    0  0.00000000000E+00  0.00000000000E+00  0.81738569550E+02  0.14935258201E+03  0.12500000000E+03 0.  0.
<mgrwt>
<rscale>  0 0.12500000E+03</rscale>
<asrwt>0</asrwt>
<pdfrwt beam="1">  1       21 0.17776242E-01 0.12500000E+03</pdfrwt>
<pdfrwt beam="2">  1       21 0.52010779E-02 0.12500000E+03</pdfrwt>
<totfact> 0.70840623E+06</totfact>
</mgrwt>
</event>
<event>
 3    1  0.1594457E-001  0.1250000E+03  0.7546771E-02  0.1235069E+00
         21   -1    0    0  502  501  0.00000000000E+00  0.00000000000E+00  0.46168474885E+02  0.46168474885E+02  0.00000000000E+00 0. -1.
         21   -1    0    0  501  502 -0.00000000000E+00 -0.00000000000E+00 -0.84608599478E+02  0.84608599478E+02  0.00000000000E+00 0. -1.
         25    1    1    2    0    0  0.00000000000E+00  0.00000000000E+00 -0.38440124593E+02  0.13077707436E+03  0.12500000000E+03 0.  0.
<mgrwt>
<rscale>  0 0.12500000E+03</rscale>
<asrwt>0</asrwt>
<pdfrwt beam="1">  1       21 0.71028424E-02 0.12500000E+03</pdfrwt>
<pdfrwt beam="2">  1       21 0.13016707E-01 0.12500000E+03</pdfrwt>
<totfact> 0.73260728E+06</totfact>
</mgrwt>
</event>
<event>
 3    1  0.1594457E-001  0.1250000E+03  0.7546771E-02  0.1235069E+00
         21   -1    0    0  502  501  0.00000000000E+00  0.00000000000E+00  0.43105124618E+03  0.43105124618E+03  0.00000000000E+00 0.  1.
         21   -1    0    0  501  502 -0.00000000000E+00 -0.00000000000E+00 -0.90621475627E+01  0.90621475627E+01  0.00000000000E+00 0.  1.
         25    1    1    2    0    0  0.00000000000E+00  0.00000000000E+00  0.42198909862E+03  0.44011339374E+03  0.12500000000E+03 0.  0.
<mgrwt>
<rscale>  0 0.12500000E+03</rscale>
<asrwt>0</asrwt>
<pdfrwt beam="1">  1       21 0.66315561E-01 0.12500000E+03</pdfrwt>
<pdfrwt beam="2">  1       21 0.13941769E-02 0.12500000E+03</pdfrwt>
<totfact> 0.45489712E+06</totfact>
</mgrwt>
</event>
<event>
 3    1  0.1594457E-001  0.1250000E+03  0.7546771E-02  0.1235069E+00
         21   -1    0    0  502  501  0.00000000000E+00  0.00000000000E+00  0.64971022790E+03  0.64971022790E+03  0.00000000000E+00 0.  1.
         21   -1    0    0  501  502 -0.00000000000E+00 -0.00000000000E+00 -0.60122956855E+01  0.60122956855E+01  0.00000000000E+00 0.  1.
         25    1    1    2    0    0  0.00000000000E+00  0.00000000000E+00  0.64369793221E+03  0.65572252358E+03  0.12500000000E+03 0.  0.
<mgrwt>
<rscale>  0 0.12500000E+03</rscale>
<asrwt>0</asrwt>
<pdfrwt beam="1">  1       21 0.99955364E-01 0.12500000E+03</pdfrwt>
<pdfrwt beam="2">  1       21 0.92496908E-03 0.12500000E+03</pdfrwt>
<totfact> 0.34687667E+06</totfact>
</mgrwt>
</event>
<event>
 3    1  0.1594457E-001  0.1250000E+03  0.7546771E-02  0.1235069E+00
         21   -1    0    0  502  501  0.00000000000E+00  0.00000000000E+00  0.75340982567E+02  0.75340982567E+02  0.00000000000E+00 0. -1.
         21   -1    0    0  501  502 -0.00000000000E+00 -0.00000000000E+00 -0.51847611578E+02  0.51847611578E+02  0.00000000000E+00 0. -1.
         25    1    1    2    0    0  0.00000000000E+00  0.00000000000E+00  0.23493370989E+02  0.12718859414E+03  0.12500000000E+03 0.  0.
<mgrwt>
<rscale>  0 0.12500000E+03</rscale>
<asrwt>0</asrwt>
<pdfrwt beam="1">  1       21 0.11590920E-01 0.12500000E+03</pdfrwt>
<pdfrwt beam="2">  1       21 0.79765557E-02 0.12500000E+03</pdfrwt>
<totfact> 0.73743485E+06</totfact>
</mgrwt>
</event>
<event>
 3    1  0.1594457E-001  0.1250000E+03  0.7546771E-02  0.1235069E+00
         21   -1    0    0  502  501  0.00000000000E+00  0.00000000000E+00  0.15776725267E+02  0.15776725267E+02  0.00000000000E+00 0. -1.
         21   -1    0    0  501  502 -0.00000000000E+00 -0.00000000000E+00 -0.24759574208E+03  0.24759574208E+03  0.00000000000E+00 0. -1.
         25    1    1    2    0    0  0.00000000000E+00  0.00000000000E+00 -0.23181901681E+03  0.26337246734E+03  0.12500000000E+03 0.  0.
<mgrwt>
<rscale>  0 0.12500000E+03</rscale>
<asrwt>0</asrwt>
<pdfrwt beam="1">  1       21 0.24271888E-02 0.12500000E+03</pdfrwt>
<pdfrwt beam="2">  1       21 0.38091648E-01 0.12500000E+03</pdfrwt>
<totfact> 0.58641541E+06</totfact>
</mgrwt>
</event>
<event>
 3    1  0.1594457E-001  0.1250000E+03  0.7546771E-02  0.1235069E+00
         21   -1    0    0  502  501  0.00000000000E+00  0.00000000000E+00  0.84873902862E+02  0.84873902862E+02  0.00000000000E+00 0. -1.
         21   -1    0    0  501  502 -0.00000000000E+00 -0.00000000000E+00 -0.46024158997E+02  0.46024158997E+02  0.00000000000E+00 0. -1.
         25    1    1    2    0    0  0.00000000000E+00  0.00000000000E+00  0.38849743866E+02  0.13089806186E+03  0.12500000000E+03 0.  0.
<mgrwt>
<rscale>  0 0.12500000E+03</rscale>
<asrwt>0</asrwt>
<pdfrwt beam="1">  1       21 0.13057524E-01 0.12500000E+03</pdfrwt>
<pdfrwt beam="2">  1       21 0.70806398E-02 0.12500000E+03</pdfrwt>
<totfact> 0.73244411E+06</totfact>
</mgrwt>
</event>
<event>
 3    1  0.1594457E-001  0.1250000E+03  0.7546771E-02  0.1235069E+00
         21   -1    0    0  502  501  0.00000000000E+00  0.00000000000E+00  0.18760978532E+03  0.18760978532E+03  0.00000000000E+00 0. -1.
         21   -1    0    0  501  502 -0.00000000000E+00 -0.00000000000E+00 -0.20821142102E+02  0.20821142102E+02  0.00000000000E+00 0. -1.
         25    1    1    2    0    0  0.00000000000E+00  0.00000000000E+00  0.16678864322E+03  0.20843092742E+03  0.12500000000E+03 0.  0.
<mgrwt>
<rscale>  0 0.12500000E+03</rscale>
<asrwt>0</asrwt>
<pdfrwt beam="1">  1       21 0.28863043E-01 0.12500000E+03</pdfrwt>
<pdfrwt beam="2">  1       21 0.32032528E-02 0.12500000E+03</pdfrwt>
<totfact> 0.64024999E+06</totfact>
</mgrwt>
</event>
<event>
 3    1  0.1594457E-001  0.1250000E+03  0.7546771E-02  0.1235069E+00
         21   -1    0    0  502  501  0.00000000000E+00  0.00000000000E+00  0.10742295331E+03  0.10742295331E+03  0.00000000000E+00 0. -1.
         21   -1    0    0  501  502 -0.00000000000E+00 -0.00000000000E+00 -0.36363271345E+02  0.36363271345E+02  0.00000000000E+00 0. -1.
         25    1    1    2    0    0  0.00000000000E+00  0.00000000000E+00  0.71059681967E+02  0.14378622466E+03  0.12500000000E+03 0.  0.
<mgrwt>
<rscale>  0 0.12500000E+03</rscale>
<asrwt>0</asrwt>
<pdfrwt beam="1">  1       21 0.16526608E-01 0.12500000E+03</pdfrwt>
<pdfrwt beam="2">  1       21 0.55943495E-02 0.12500000E+03</pdfrwt>
<totfact> 0.71548796E+06</totfact>
</mgrwt>
</event>
<event>
 3    1  0.1594457E-001  0.1250000E+03  0.7546771E-02  0.1235069E+00
         21   -1    0    0  502  501  0.00000000000E+00  0.00000000000E+00  0.11357629292E+04  0.11357629292E+04  0.00000000000E+00 0. -1.
         21   -1    0    0  501  502 -0.00000000000E+00 -0.00000000000E+00 -0.34393181001E+01  0.34393181001E+01  0.00000000000E+00 0. -1.
         25    1    1    2    0    0  0.00000000000E+00  0.00000000000E+00  0.11323236111E+04  0.11392022473E+04  0.12500000000E+03 0.  0.
<mgrwt>
<rscale>  0 0.12500000E+03</rscale>
<asrwt>0</asrwt>
<pdfrwt beam="1">  1       21 0.17473246E+00 0.12500000E+03</pdfrwt>
<pdfrwt beam="2">  1       21 0.52912677E-03 0.12500000E+03</pdfrwt>
<totfact> 0.20398644E+06</totfact>
</mgrwt>
</event>
<event>
 3    1  0.1594457E-001  0.1250000E+03  0.7546771E-02  0.1235069E+00
         21   -1    0    0  502  501  0.00000000000E+00  0.00000000000E+00  0.13102737919E+02  0.13102737919E+02  0.00000000000E+00 0. -1.
         21   -1    0    0  501  502 -0.00000000000E+00 -0.00000000000E+00 -0.29812471441E+03  0.29812471441E+03  0.00000000000E+00 0. -1.
         25    1    1    2    0    0  0.00000000000E+00  0.00000000000E+00 -0.28502197649E+03  0.31122745233E+03  0.12500000000E+03 0.  0.
<mgrwt>
<rscale>  0 0.12500000E+03</rscale>
<asrwt>0</asrwt>
<pdfrwt beam="1">  1       21 0.20158059E-02 0.12500000E+03</pdfrwt>
<pdfrwt beam="2">  1       21 0.45865340E-01 0.12500000E+03</pdfrwt>
<totfact> 0.54535845E+06</totfact>
</mgrwt>
</event>
<event>
 3    1  0.1594457E-001  0.1250000E+03  0.7546771E-02  0.1235069E+00
         21   -1    0    0  502  501  0.00000000000E+00  0.00000000000E+00  0.58845809273E+01  0.58845809273E+01  0.00000000000E+00 0. -1.
         21   -1    0    0  501  502 -0.00000000000E+00 -0.00000000000E+00 -0.66381107648E+03  0.66381107648E+03  0.00000000000E+00 0. -1.
         25    1    1    2    0    0  0.00000000000E+00  0.00000000000E+00 -0.65792649555E+03  0.66969565740E+03  0.12500000000E+03 0.  0.
<mgrwt>
<rscale>  0 0.12500000E+03</rscale>
<asrwt>0</asrwt>
<pdfrwt beam="1">  1       21 0.90532023E-03 0.12500000E+03</pdfrwt>
<pdfrwt beam="2">  1       21 0.10212477E+00 0.12500000E+03</pdfrwt>
<totfact> 0.34111515E+06</totfact>
</mgrwt>
</event>
<event>
 3    1  0.1594457E-001  0.1250000E+03  0.7546771E-02  0.1235069E+00
         21   -1    0    0  502  501  0.00000000000E+00  0.00000000000E+00  0.13395089875E+02  0.13395089875E+02  0.00000000000E+00 0.  1.
         21   -1    0    0  501  502 -0.00000000000E+00 -0.00000000000E+00 -0.29161805082E+03  0.29161805082E+03  0.00000000000E+00 0.  1.
         25    1    1    2    0    0  0.00000000000E+00  0.00000000000E+00 -0.27822296095E+03  0.30501314070E+03  0.12500000000E+03 0.  0.
<mgrwt>
<rscale>  0 0.12500000E+03</rscale>
<asrwt>0</asrwt>
<pdfrwt beam="1">  1       21 0.20607831E-02 0.12500000E+03</pdfrwt>
<pdfrwt beam="2">  1       21 0.44864314E-01 0.12500000E+03</pdfrwt>
<totfact> 0.55042119E+06</totfact>
</mgrwt>
</event>
<event>
 3    1  0.1594457E-001  0.1250000E+03  0.7546771E-02  0.1235069E+00
         21   -1    0    0  502  501  0.00000000000E+00  0.00000000000E+00  0.32608238095E+02  0.32608238095E+02  0.00000000000E+00 0. -1.
         21   -1    0    0  501  502 -0.00000000000E+00 -0.00000000000E+00 -0.11979334758E+03  0.11979334758E+03  0.00000000000E+00 0. -1.
         25    1    1    2    0    0  0.00000000000E+00  0.00000000000E+00 -0.87185109480E+02  0.15240158567E+03  0.12500000000E+03 0.  0.
<mgrwt>
<rscale>  0 0.12500000E+03</rscale>
<asrwt>0</asrwt>
<pdfrwt beam="1">  1       21 0.50166520E-02 0.12500000E+03</pdfrwt>
<pdfrwt beam="2">  1       21 0.18429746E-01 0.12500000E+03</pdfrwt>
<totfact> 0.70458806E+06</totfact>
</mgrwt>
</event>
<event>
 3    1  0.1594457E-001  0.1250000E+03  0.7546771E-02  0.1235069E+00
         21   -1    0    0  502  501  0.00000000000E+00  0.00000000000E+00  0.78084342362E+01  0.78084342362E+01  0.00000000000E+00 0.  1.
         21   -1    0    0  501  502 -0.00000000000E+00 -0.00000000000E+00 -0.50026034437E+03  0.50026034437E+03  0.00000000000E+00 0.  1.
         25    1    1    2    0    0  0.00000000000E+00  0.00000000000E+00 -0.49245191013E+03  0.50806877861E+03  0.12500000000E+03 0.  0.
<mgrwt>
<rscale>  0 0.12500000E+03</rscale>
<asrwt>0</asrwt>
<pdfrwt beam="1">  1       21 0.12012972E-02 0.12500000E+03</pdfrwt>
<pdfrwt beam="2">  1       21 0.76963157E-01 0.12500000E+03</pdfrwt>
<totfact> 0.41609827E+06</totfact>
</mgrwt>
</event>
<event>
 3    1  0.1594457E-001  0.1250000E+03  0.7546771E-02  0.1235069E+00
         21   -1    0    0  502  501  0.00000000000E+00  0.00000000000E+00  0.76370701155E+01  0.76370701155E+01  0.00000000000E+00 0.  1.
         21   -1    0    0  501  502 -0.00000000000E+00 -0.00000000000E+00 -0.51148541795E+03  0.51148541795E+03  0.00000000000E+00 0.  1.
         25    1    1    2    0    0  0.00000000000E+00  0.00000000000E+00 -0.50384834784E+03  0.51912248807E+03  0.12500000000E+03 0.  0.
<mgrwt>
<rscale>  0 0.12500000E+03</rscale>
<asrwt>0</asrwt>
<pdfrwt beam="1">  1       21 0.11749334E-02 0.12500000E+03</pdfrwt>
<pdfrwt beam="2">  1       21 0.78690092E-01 0.12500000E+03</pdfrwt>
<totfact> 0.41025638E+06</totfact>
</mgrwt>
</event>
<event>
 3    1  0.1594457E-001  0.1250000E+03  0.7546771E-02  0.1235069E+00
         21   -1    0    0  502  501  0.00000000000E+00  0.00000000000E+00  0.55632306157E+02  0.55632306157E+02  0.00000000000E+00 0. -1.
         21   -1    0    0  501  502 -0.00000000000E+00 -0.00000000000E+00 -0.70215496531E+02  0.70215496531E+02  0.00000000000E+00 0. -1.
         25    1    1    2    0    0  0.00000000000E+00  0.00000000000E+00 -0.14583190374E+02  0.12584780269E+03  0.12500000000E+03 0.  0.
<mgrwt>
<rscale>  0 0.12500000E+03</rscale>
<asrwt>0</asrwt>
<pdfrwt beam="1">  1       21 0.85588163E-02 0.12500000E+03</pdfrwt>
<pdfrwt beam="2">  1       21 0.10802384E-01 0.12500000E+03</pdfrwt>
<totfact> 0.73927056E+06</totfact>
</mgrwt>
</event>
<event>
 3    1  0.1594457E-001  0.1250000E+03  0.7546771E-02  0.1235069E+00
         21   -1    0    0  502  501  0.00000000000E+00  0.00000000000E+00  0.24657010074E+01  0.24657010074E+01  0.00000000000E+00 0. -1.
         21   -1    0    0  501  502 -0.00000000000E+00 -0.00000000000E+00 -0.15842350667E+04  0.15842350667E+04  0.00000000000E+00 0. -1.
         25    1    1    2    0    0  0.00000000000E+00  0.00000000000E+00 -0.15817693657E+04  0.15867007677E+04  0.12500000000E+03 0.  0.
<mgrwt>
<rscale>  0 0.12500000E+03</rscale>
<asrwt>0</asrwt>
<pdfrwt beam="1">  1       21 0.37933897E-03 0.12500000E+03</pdfrwt>
<pdfrwt beam="2">  1       21 0.24372825E+00 0.12500000E+03</pdfrwt>
<totfact> 0.12755280E+06</totfact>
</mgrwt>
</event>
<event>
 3    1  0.1594457E-001  0.1250000E+03  0.7546771E-02  0.1235069E+00
         21   -1    0    0  502  501  0.00000000000E+00  0.00000000000E+00  0.11613515562E+02  0.11613515562E+02  0.00000000000E+00 0.  1.
         21   -1    0    0  501  502 -0.00000000000E+00 -0.00000000000E+00 -0.33635379219E+03  0.33635379219E+03  0.00000000000E+00 0.  1.
         25    1    1    2    0    0  0.00000000000E+00  0.00000000000E+00 -0.32474027663E+03  0.34796730775E+03  0.12500000000E+03 0.  0.
<mgrwt>
<rscale>  0 0.12500000E+03</rscale>
<asrwt>0</asrwt>
<pdfrwt beam="1">  1       21 0.17866947E-02 0.12500000E+03</pdfrwt>
<pdfrwt beam="2">  1       21 0.51746737E-01 0.12500000E+03</pdfrwt>
<totfact> 0.51688903E+06</totfact>
</mgrwt>
</event>
<event>
 3    1  0.1594457E-001  0.1250000E+03  0.7546771E-02  0.1235069E+00
         21   -1    0    0  502  501  0.00000000000E+00  0.00000000000E+00  0.77285165571E+02  0.77285165571E+02  0.00000000000E+00 0. -1.
         21   -1    0    0  501  502 -0.00000000000E+00 -0.00000000000E+00 -0.50543334819E+02  0.50543334819E+02  0.00000000000E+00 0. -1.
         25    1    1    2    0    0  0.00000000000E+00  0.00000000000E+00  0.26741830752E+02  0.12782850039E+03  0.12500000000E+03 0.  0.
<mgrwt>
<rscale>  0 0.12500000E+03</rscale>
<asrwt>0</asrwt>
<pdfrwt beam="1">  1       21 0.11890025E-01 0.12500000E+03</pdfrwt>
<pdfrwt beam="2">  1       21 0.77758977E-02 0.12500000E+03</pdfrwt>
<totfact> 0.73656740E+06</totfact>
</mgrwt>
</event>
<event>
 3    1  0.1594457E-001  0.1250000E+03  0.7546771E-02  0.1235069E+00
         21   -1    0    0  502  501  0.00000000000E+00  0.00000000000E+00  0.19310790528E+03  0.19310790528E+03  0.00000000000E+00 0. -1.
         21   -1    0    0  501  502 -0.00000000000E+00 -0.00000000000E+00 -0.20228327755E+02  0.20228327755E+02  0.00000000000E+00 0. -1.
         25    1    1    2    0    0  0.00000000000E+00  0.00000000000E+00  0.17287957752E+03  0.21333623303E+03  0.12500000000E+03 0.  0.
<mgrwt>
<rscale>  0 0.12500000E+03</rscale>
<asrwt>0</asrwt>
<pdfrwt beam="1">  1       21 0.29708907E-01 0.12500000E+03</pdfrwt>
<pdfrwt beam="2">  1       21 0.31120505E-02 0.12500000E+03</pdfrwt>
<totfact> 0.63510227E+06</totfact>
</mgrwt>
</event>
<event>
 3    1  0.1594457E-001  0.1250000E+03  0.7546771E-02  0.1235069E+00
         21   -1    0    0  502  501  0.00000000000E+00  0.00000000000E+00  0.56362351966E+01  0.56362351966E+01  0.00000000000E+00 0.  1.
         21   -1    0    0  501  502 -0.00000000000E+00 -0.00000000000E+00 -0.69306014809E+03  0.69306014809E+03  0.00000000000E+00 0.  1.
         25    1    1    2    0    0  0.00000000000E+00  0.00000000000E+00 -0.68742391289E+03  0.69869638329E+03  0.12500000000E+03 0.  0.
<mgrwt>
<rscale>  0 0.12500000E+03</rscale>
<asrwt>0</asrwt>
<pdfrwt beam="1">  1       21 0.86711344E-03 0.12500000E+03</pdfrwt>
<pdfrwt beam="2">  1       21 0.10662460E+00 0.12500000E+03</pdfrwt>
<totfact> 0.32960469E+06</totfact>
</mgrwt>
</event>
<event>
 3    1  0.1594457E-001  0.1250000E+03  0.7546771E-02  0.1235069E+00
         21   -1    0    0  502  501  0.00000000000E+00  0.00000000000E+00  0.54513280716E+02  0.54513280716E+02  0.00000000000E+00 0.  1.
         21   -1    0    0  501  502 -0.00000000000E+00 -0.00000000000E+00 -0.71656850380E+02  0.71656850380E+02  0.00000000000E+00 0.  1.
         25    1    1    2    0    0  0.00000000000E+00  0.00000000000E+00 -0.17143569663E+02  0.12617013110E+03  0.12500000000E+03 0.  0.
<mgrwt>
<rscale>  0 0.12500000E+03</rscale>
<asrwt>0</asrwt>
<pdfrwt beam="1">  1       21 0.83866586E-02 0.12500000E+03</pdfrwt>
<pdfrwt beam="2">  1       21 0.11024131E-01 0.12500000E+03</pdfrwt>
<totfact> 0.73882615E+06</totfact>
</mgrwt>
</event>
<event>
 3    1  0.1594457E-001  0.1250000E+03  0.7546771E-02  0.1235069E+00
         21   -1    0    0  502  501  0.00000000000E+00  0.00000000000E+00  0.27543031763E+03  0.27543031763E+03  0.00000000000E+00 0. -1.
         21   -1    0    0  501  502 -0.00000000000E+00 -0.00000000000E+00 -0.14182353031E+02  0.14182353031E+02  0.00000000000E+00 0. -1.
         25    1    1    2    0    0  0.00000000000E+00  0.00000000000E+00  0.26124796460E+03  0.28961267066E+03  0.12500000000E+03 0.  0.
<mgrwt>
<rscale>  0 0.12500000E+03</rscale>
<asrwt>0</asrwt>
<pdfrwt beam="1">  1       21 0.42373891E-01 0.12500000E+03</pdfrwt>
<pdfrwt beam="2">  1       21 0.21819007E-02 0.12500000E+03</pdfrwt>
<totfact> 0.56330604E+06</totfact>
</mgrwt>
</event>
<event>
 3    1  0.1594457E-001  0.1250000E+03  0.7546771E-02  0.1235069E+00
         21   -1    0    0  502  501  0.00000000000E+00  0.00000000000E+00  0.98519813030E+01  0.98519813030E+01  0.00000000000E+00 0.  1.
         21   -1    0    0  501  502 -0.00000000000E+00 -0.00000000000E+00 -0.39649385031E+03  0.39649385031E+03  0.00000000000E+00 0.  1.
         25    1    1    2    0    0  0.00000000000E+00  0.00000000000E+00 -0.38664186901E+03  0.40634583161E+03  0.12500000000E+03 0.  0.
<mgrwt>
<rscale>  0 0.12500000E+03</rscale>
<asrwt>0</asrwt>
<pdfrwt beam="1">  1       21 0.15156894E-02 0.12500000E+03</pdfrwt>
<pdfrwt beam="2">  1       21 0.60999053E-01 0.12500000E+03</pdfrwt>
<totfact> 0.47623268E+06</totfact>
</mgrwt>
</event>
<event>
 3    1  0.1594457E-001  0.1250000E+03  0.7546771E-02  0.1235069E+00
         21   -1    0    0  502  501  0.00000000000E+00  0.00000000000E+00  0.22623596410E+03  0.22623596410E+03  0.00000000000E+00 0. -1.
         21   -1    0    0  501  502 -0.00000000000E+00 -0.00000000000E+00 -0.17266264519E+02  0.17266264519E+02  0.00000000000E+00 0. -1.
         25    1    1    2    0    0  0.00000000000E+00  0.00000000000E+00  0.20896969958E+03  0.24350222862E+03  0.12500000000E+03 0.  0.
<mgrwt>
<rscale>  0 0.12500000E+03</rscale>
<asrwt>0</asrwt>
<pdfrwt beam="1">  1       21 0.34805531E-01 0.12500000E+03</pdfrwt>
<pdfrwt beam="2">  1       21 0.26563485E-02 0.12500000E+03</pdfrwt>
<totfact> 0.60495398E+06</totfact>
</mgrwt>
</event>
<event>
 3    1  0.1594457E-001  0.1250000E+03  0.7546771E-02  0.1235069E+00
         21   -1    0    0  502  501  0.00000000000E+00  0.00000000000E+00  0.75471062332E+01  0.75471062332E+01  0.00000000000E+00 0. -1.
         21   -1    0    0  501  502 -0.00000000000E+00 -0.00000000000E+00 -0.51758248517E+03  0.51758248517E+03  0.00000000000E+00 0. -1.
         25    1    1    2    0    0  0.00000000000E+00  0.00000000000E+00 -0.51003537893E+03  0.52512959140E+03  0.12500000000E+03 0.  0.
<mgrwt>
<rscale>  0 0.12500000E+03</rscale>
<asrwt>0</asrwt>
<pdfrwt beam="1">  1       21 0.11610930E-02 0.12500000E+03</pdfrwt>
<pdfrwt beam="2">  1       21 0.79628094E-01 0.12500000E+03</pdfrwt>
<totfact> 0.40713219E+06</totfact>
</mgrwt>
</event>
<event>
 3    1  0.1594457E-001  0.1250000E+03  0.7546771E-02  0.1235069E+00
         21   -1    0    0  502  501  0.00000000000E+00  0.00000000000E+00  0.18623007930E+04  0.18623007930E+04  0.00000000000E+00 0. -1.
         21   -1    0    0  501  502 -0.00000000000E+00 -0.00000000000E+00 -0.20975397823E+01  0.20975397823E+01  0.00000000000E+00 0. -1.
         25    1    1    2    0    0  0.00000000000E+00  0.00000000000E+00  0.18602032532E+04  0.18643983328E+04  0.12500000000E+03 0.  0.
<mgrwt>
<rscale>  0 0.12500000E+03</rscale>
<asrwt>0</asrwt>
<pdfrwt beam="1">  1       21 0.28650649E+00 0.12500000E+03</pdfrwt>
<pdfrwt beam="2">  1       21 0.32269992E-03 0.12500000E+03</pdfrwt>
<totfact> 0.93482323E+05</totfact>
</mgrwt>
</event>
<event>
 3    1  0.1594457E-001  0.1250000E+03  0.7546771E-02  0.1235069E+00
         21   -1    0    0  502  501  0.00000000000E+00  0.00000000000E+00  0.27615785513E+03  0.27615785513E+03  0.00000000000E+00 0.  1.
         21   -1    0    0  501  502 -0.00000000000E+00 -0.00000000000E+00 -0.14144989641E+02  0.14144989641E+02  0.00000000000E+00 0.  1.
         25    1    1    2    0    0  0.00000000000E+00  0.00000000000E+00  0.26201286549E+03  0.29030284477E+03  0.12500000000E+03 0.  0.
<mgrwt>
<rscale>  0 0.12500000E+03</rscale>
<asrwt>0</asrwt>
<pdfrwt beam="1">  1       21 0.42485820E-01 0.12500000E+03</pdfrwt>
<pdfrwt beam="2">  1       21 0.21761525E-02 0.12500000E+03</pdfrwt>
<totfact> 0.56271799E+06</totfact>
</mgrwt>
</event>
<event>
 3    1  0.1594457E-001  0.1250000E+03  0.7546771E-02  0.1235069E+00
         21   -1    0    0  502  501  0.00000000000E+00  0.00000000000E+00  0.37041341207E+02  0.37041341207E+02  0.00000000000E+00 0.  1.
         21   -1    0    0  501  502 -0.00000000000E+00 -0.00000000000E+00 -0.10545649463E+03  0.10545649463E+03  0.00000000000E+00 0.  1.
         25    1    1    2    0    0  0.00000000000E+00  0.00000000000E+00 -0.68415153421E+02  0.14249783583E+03  0.12500000000E+03 0.  0.
<mgrwt>
<rscale>  0 0.12500000E+03</rscale>
<asrwt>0</asrwt>
<pdfrwt beam="1">  1       21 0.56986680E-02 0.12500000E+03</pdfrwt>
<pdfrwt beam="2">  1       21 0.16224076E-01 0.12500000E+03</pdfrwt>
<totfact> 0.71714876E+06</totfact>
</mgrwt>
</event>
<event>
 3    1  0.1594457E-001  0.1250000E+03  0.7546771E-02  0.1235069E+00
         21   -1    0    0  502  501  0.00000000000E+00  0.00000000000E+00  0.12557887484E+03  0.12557887484E+03  0.00000000000E+00 0.  1.
         21   -1    0    0  501  502 -0.00000000000E+00 -0.00000000000E+00 -0.31105948393E+02  0.31105948393E+02  0.00000000000E+00 0.  1.
         25    1    1    2    0    0  0.00000000000E+00  0.00000000000E+00  0.94472926447E+02  0.15668482323E+03  0.12500000000E+03 0.  0.
<mgrwt>
<rscale>  0 0.12500000E+03</rscale>
<asrwt>0</asrwt>
<pdfrwt beam="1">  1       21 0.19319827E-01 0.12500000E+03</pdfrwt>
<pdfrwt beam="2">  1       21 0.47855306E-02 0.12500000E+03</pdfrwt>
<totfact> 0.69926860E+06</totfact>
</mgrwt>
</event>
<event>
 3    1  0.1594457E-001  0.1250000E+03  0.7546771E-02  0.1235069E+00
         21   -1    0    0  502  501  0.00000000000E+00  0.00000000000E+00  0.37202371796E+03  0.37202371796E+03  0.00000000000E+00 0. -1.
         21   -1    0    0  501  502 -0.00000000000E+00 -0.00000000000E+00 -0.10500002584E+02  0.10500002584E+02  0.00000000000E+00 0. -1.
         25    1    1    2    0    0  0.00000000000E+00  0.00000000000E+00  0.36152371538E+03  0.38252372055E+03  0.12500000000E+03 0.  0.
<mgrwt>
<rscale>  0 0.12500000E+03</rscale>
<asrwt>0</asrwt>
<pdfrwt beam="1">  1       21 0.57234408E-01 0.12500000E+03</pdfrwt>
<pdfrwt beam="2">  1       21 0.16153853E-02 0.12500000E+03</pdfrwt>
<totfact> 0.49222557E+06</totfact>
</mgrwt>
</event>
<event>
 3    1  0.1594457E-001  0.1250000E+03  0.7546771E-02  0.1235069E+00
         21   -1    0    0  502  501  0.00000000000E+00  0.00000000000E+00  0.51469599790E+02  0.51469599790E+02  0.00000000000E+00 0.  1.
         21   -1    0    0  501  502 -0.00000000000E+00 -0.00000000000E+00 -0.75894314623E+02  0.75894314623E+02  0.00000000000E+00 0.  1.
         25    1    1    2    0    0  0.00000000000E+00  0.00000000000E+00 -0.24424714834E+02  0.12736391441E+03  0.12500000000E+03 0.  0.
<mgrwt>
<rscale>  0 0.12500000E+03</rscale>
<asrwt>0</asrwt>
<pdfrwt beam="1">  1       21 0.79184001E-02 0.12500000E+03</pdfrwt>
<pdfrwt beam="2">  1       21 0.11676048E-01 0.12500000E+03</pdfrwt>
<totfact> 0.73719676E+06</totfact>
</mgrwt>
</event>
<event>
 3    1  0.1594457E-001  0.1250000E+03  0.7546771E-02  0.1235069E+00
         21   -1    0    0  502  501  0.00000000000E+00  0.00000000000E+00  0.11971102666E+03  0.11971102666E+03  0.00000000000E+00 0. -1.
         21   -1    0    0  501  502 -0.00000000000E+00 -0.00000000000E+00 -0.32630661595E+02  0.32630661595E+02  0.00000000000E+00 0. -1.
         25    1    1    2    0    0  0.00000000000E+00  0.00000000000E+00  0.87080365060E+02  0.15234168825E+03  0.12500000000E+03 0.  0.
<mgrwt>
<rscale>  0 0.12500000E+03</rscale>
<asrwt>0</asrwt>
<pdfrwt beam="1">  1       21 0.18417081E-01 0.12500000E+03</pdfrwt>
<pdfrwt beam="2">  1       21 0.50201018E-02 0.12500000E+03</pdfrwt>
<totfact> 0.70466267E+06</totfact>
</mgrwt>
</event>
<event>
 3    1  0.1594457E-001  0.1250000E+03  0.7546771E-02  0.1235069E+00
         21   -1    0    0  502  501  0.00000000000E+00  0.00000000000E+00  0.44772441338E+02  0.44772441338E+02  0.00000000000E+00 0.  1.
         21   -1    0    0  501  502 -0.00000000000E+00 -0.00000000000E+00 -0.87246750082E+02  0.87246750082E+02  0.00000000000E+00 0.  1.
         25    1    1    2    0    0  0.00000000000E+00  0.00000000000E+00 -0.42474308744E+02  0.13201919142E+03  0.12500000000E+03 0.  0.
<mgrwt>
<rscale>  0 0.12500000E+03</rscale>
<asrwt>0</asrwt>
<pdfrwt beam="1">  1       21 0.68880679E-02 0.12500000E+03</pdfrwt>
<pdfrwt beam="2">  1       21 0.13422577E-01 0.12500000E+03</pdfrwt>
<totfact> 0.73093655E+06</totfact>
</mgrwt>
</event>
<event>
 3    1  0.1594457E-001  0.1250000E+03  0.7546771E-02  0.1235069E+00
         21   -1    0    0  502  501  0.00000000000E+00  0.00000000000E+00  0.26520007059E+03  0.26520007059E+03  0.00000000000E+00 0.  1.
         21   -1    0    0  501  502 -0.00000000000E+00 -0.00000000000E+00 -0.14729445552E+02  0.14729445552E+02  0.00000000000E+00 0.  1.
         25    1    1    2    0    0  0.00000000000E+00  0.00000000000E+00  0.25047062503E+03  0.27992951614E+03  0.12500000000E+03 0.  0.
<mgrwt>
<rscale>  0 0.12500000E+03</rscale>
<asrwt>0</asrwt>
<pdfrwt beam="1">  1       21 0.40800007E-01 0.12500000E+03</pdfrwt>
<pdfrwt beam="2">  1       21 0.22660687E-02 0.12500000E+03</pdfrwt>
<totfact> 0.57166476E+06</totfact>
</mgrwt>
</event>
<event>
 3    1  0.1594457E-001  0.1250000E+03  0.7546771E-02  0.1235069E+00
         21   -1    0    0  502  501  0.00000000000E+00  0.00000000000E+00  0.19090218459E+03  0.19090218459E+03  0.00000000000E+00 0.  1.
         21   -1    0    0  501  502 -0.00000000000E+00 -0.00000000000E+00 -0.20462049758E+02  0.20462049758E+02  0.00000000000E+00 0.  1.
         25    1    1    2    0    0  0.00000000000E+00  0.00000000000E+00  0.17044013483E+03  0.21136423435E+03  0.12500000000E+03 0.  0.
<mgrwt>
<rscale>  0 0.12500000E+03</rscale>
<asrwt>0</asrwt>
<pdfrwt beam="1">  1       21 0.29369566E-01 0.12500000E+03</pdfrwt>
<pdfrwt beam="2">  1       21 0.31480078E-02 0.12500000E+03</pdfrwt>
<totfact> 0.63716289E+06</totfact>
</mgrwt>
</event>
<event>
 3    1  0.1594457E-001  0.1250000E+03  0.7546771E-02  0.1235069E+00
         21   -1    0    0  502  501  0.00000000000E+00  0.00000000000E+00  0.44914396671E+02  0.44914396671E+02  0.00000000000E+00 0. -1.
         21   -1    0    0  501  502 -0.00000000000E+00 -0.00000000000E+00 -0.86971000158E+02  0.86971000158E+02  0.00000000000E+00 0. -1.
         25    1    1    2    0    0  0.00000000000E+00  0.00000000000E+00 -0.42056603487E+02  0.13188539683E+03  0.12500000000E+03 0.  0.
<mgrwt>
<rscale>  0 0.12500000E+03</rscale>
<asrwt>0</asrwt>
<pdfrwt beam="1">  1       21 0.69099073E-02 0.12500000E+03</pdfrwt>
<pdfrwt beam="2">  1       21 0.13380154E-01 0.12500000E+03</pdfrwt>
<totfact> 0.73111605E+06</totfact>
</mgrwt>
</event>
<event>
 3    1  0.1594457E-001  0.1250000E+03  0.7546771E-02  0.1235069E+00
         21   -1    0    0  502  501  0.00000000000E+00  0.00000000000E+00  0.78837526573E+03  0.78837526573E+03  0.00000000000E+00 0.  1.
         21   -1    0    0  501  502 -0.00000000000E+00 -0.00000000000E+00 -0.49548104434E+01  0.49548104434E+01  0.00000000000E+00 0.  1.
         25    1    1    2    0    0  0.00000000000E+00  0.00000000000E+00  0.78342045529E+03  0.79333007618E+03  0.12500000000E+03 0.  0.
<mgrwt>
<rscale>  0 0.12500000E+03</rscale>
<asrwt>0</asrwt>
<pdfrwt beam="1">  1       21 0.12128840E+00 0.12500000E+03</pdfrwt>
<pdfrwt beam="2">  1       21 0.76227915E-03 0.12500000E+03</pdfrwt>
<totfact> 0.29585026E+06</totfact>
</mgrwt>
</event>
<event>
 3    1  0.1594457E-001  0.1250000E+03  0.7546771E-02  0.1235069E+00
         21   -1    0    0  502  501  0.00000000000E+00  0.00000000000E+00  0.35531380908E+03  0.35531380908E+03  0.00000000000E+00 0. -1.
         21   -1    0    0  501  502 -0.00000000000E+00 -0.00000000000E+00 -0.10993802943E+02  0.10993802943E+02  0.00000000000E+00 0. -1.
         25    1    1    2    0    0  0.00000000000E+00  0.00000000000E+00  0.34432000614E+03  0.36630761202E+03  0.12500000000E+03 0.  0.
<mgrwt>
<rscale>  0 0.12500000E+03</rscale>
<asrwt>0</asrwt>
<pdfrwt beam="1">  1       21 0.54663654E-01 0.12500000E+03</pdfrwt>
<pdfrwt beam="2">  1       21 0.16913546E-02 0.12500000E+03</pdfrwt>
<totfact> 0.50356164E+06</totfact>
</mgrwt>
</event>
<event>
 3    1  0.1594457E-001  0.1250000E+03  0.7546771E-02  0.1235069E+00
         21   -1    0    0  502  501  0.00000000000E+00  0.00000000000E+00  0.12359333679E+03  0.12359333679E+03  0.00000000000E+00 0.  1.
         21   -1    0    0  501  502 -0.00000000000E+00 -0.00000000000E+00 -0.31605668247E+02  0.31605668247E+02  0.00000000000E+00 0.  1.
         25    1    1    2    0    0  0.00000000000E+00  0.00000000000E+00  0.91987668539E+02  0.15519900503E+03  0.12500000000E+03 0.  0.
<mgrwt>
<rscale>  0 0.12500000E+03</rscale>
<asrwt>0</asrwt>
<pdfrwt beam="1">  1       21 0.19014359E-01 0.12500000E+03</pdfrwt>
<pdfrwt beam="2">  1       21 0.48624106E-02 0.12500000E+03</pdfrwt>
<totfact> 0.70110934E+06</totfact>
</mgrwt>
</event>
<event>
 3    1  0.1594457E-001  0.1250000E+03  0.7546771E-02  0.1235069E+00
         21   -1    0    0  502  501  0.00000000000E+00  0.00000000000E+00  0.55915977897E+02  0.55915977897E+02  0.00000000000E+00 0.  1.
         21   -1    0    0  501  502 -0.00000000000E+00 -0.00000000000E+00 -0.69859280780E+02  0.69859280780E+02  0.00000000000E+00 0.  1.
         25    1    1    2    0    0  0.00000000000E+00  0.00000000000E+00 -0.13943302882E+02  0.12577525868E+03  0.12500000000E+03 0.  0.
<mgrwt>
<rscale>  0 0.12500000E+03</rscale>
<asrwt>0</asrwt>
<pdfrwt beam="1">  1       21 0.86024582E-02 0.12500000E+03</pdfrwt>
<pdfrwt beam="2">  1       21 0.10747582E-01 0.12500000E+03</pdfrwt>
<totfact> 0.73937099E+06</totfact>
</mgrwt>
</event>
<event>
 3    1  0.1594457E-001  0.1250000E+03  0.7546771E-02  0.1235069E+00
         21   -1    0    0  502  501  0.00000000000E+00  0.00000000000E+00  0.63442661823E+01  0.63442661823E+01  0.00000000000E+00 0.  1.
         21   -1    0    0  501  502 -0.00000000000E+00 -0.00000000000E+00 -0.61571344703E+03  0.61571344703E+03  0.00000000000E+00 0.  1.
         25    1    1    2    0    0  0.00000000000E+00  0.00000000000E+00 -0.60936918085E+03  0.62205771321E+03  0.12500000000E+03 0.  0.
<mgrwt>
<rscale>  0 0.12500000E+03</rscale>
<asrwt>0</asrwt>
<pdfrwt beam="1">  1       21 0.97604108E-03 0.12500000E+03</pdfrwt>
<pdfrwt beam="2">  1       21 0.94725133E-01 0.12500000E+03</pdfrwt>
<totfact> 0.36113727E+06</totfact>
</mgrwt>
</event>
<event>
 3    1  0.1594457E-001  0.1250000E+03  0.7546771E-02  0.1235069E+00
         21   -1    0    0  502  501  0.00000000000E+00  0.00000000000E+00  0.24820144416E+03  0.24820144416E+03  0.00000000000E+00 0. -1.
         21   -1    0    0  501  502 -0.00000000000E+00 -0.00000000000E+00 -0.15738224301E+02  0.15738224301E+02  0.00000000000E+00 0. -1.
         25    1    1    2    0    0  0.00000000000E+00  0.00000000000E+00  0.23246321986E+03  0.26393966847E+03  0.12500000000E+03 0.  0.
<mgrwt>
<rscale>  0 0.12500000E+03</rscale>
<asrwt>0</asrwt>
<pdfrwt beam="1">  1       21 0.38184835E-01 0.12500000E+03</pdfrwt>
<pdfrwt beam="2">  1       21 0.24212655E-02 0.12500000E+03</pdfrwt>
<totfact> 0.58590052E+06</totfact>
</mgrwt>
</event>
<event>
 3    1  0.1594457E-001  0.1250000E+03  0.7546771E-02  0.1235069E+00
         21   -1    0    0  502  501  0.00000000000E+00  0.00000000000E+00  0.91296171166E+02  0.91296171166E+02  0.00000000000E+00 0. -1.
         21   -1    0    0  501  502 -0.00000000000E+00 -0.00000000000E+00 -0.42786569799E+02  0.42786569799E+02  0.00000000000E+00 0. -1.
         25    1    1    2    0    0  0.00000000000E+00  0.00000000000E+00  0.48509601367E+02  0.13408274097E+03  0.12500000000E+03 0.  0.
<mgrwt>
<rscale>  0 0.12500000E+03</rscale>
<asrwt>0</asrwt>
<pdfrwt beam="1">  1       21 0.14045565E-01 0.12500000E+03</pdfrwt>
<pdfrwt beam="2">  1       21 0.65825492E-02 0.12500000E+03</pdfrwt>
<totfact> 0.72818154E+06</totfact>
</mgrwt>
</event>
<event>
 3    1  0.1594457E-001  0.1250000E+03  0.7546771E-02  0.1235069E+00
         21   -1    0    0  502  501  0.00000000000E+00  0.00000000000E+00  0.14654096758E+02  0.14654096758E+02  0.00000000000E+00 0.  1.
         21   -1    0    0  501  502 -0.00000000000E+00 -0.00000000000E+00 -0.26656368280E+03  0.26656368280E+03  0.00000000000E+00 0.  1.
         25    1    1    2    0    0  0.00000000000E+00  0.00000000000E+00 -0.25190958604E+03  0.28121777956E+03  0.12500000000E+03 0.  0.
<mgrwt>
<rscale>  0 0.12500000E+03</rscale>
<asrwt>0</asrwt>
<pdfrwt beam="1">  1       21 0.22544764E-02 0.12500000E+03</pdfrwt>
<pdfrwt beam="2">  1       21 0.41009798E-01 0.12500000E+03</pdfrwt>
<totfact> 0.57054086E+06</totfact>
</mgrwt>
</event>
<event>
 3    1  0.1594457E-001  0.1250000E+03  0.7546771E-02  0.1235069E+00
         21   -1    0    0  502  501  0.00000000000E+00  0.00000000000E+00  0.19158953014E+04  0.19158953014E+04  0.00000000000E+00 0.  1.
         21   -1    0    0  501  502 -0.00000000000E+00 -0.00000000000E+00 -0.20388640220E+01  0.20388640220E+01  0.00000000000E+00 0.  1.
         25    1    1    2    0    0  0.00000000000E+00  0.00000000000E+00  0.19138564374E+04  0.19179341654E+04  0.12500000000E+03 0.  0.
<mgrwt>
<rscale>  0 0.12500000E+03</rscale>
<asrwt>0</asrwt>
<pdfrwt beam="1">  1       21 0.29475168E+00 0.12500000E+03</pdfrwt>
<pdfrwt beam="2">  1       21 0.31367292E-03 0.12500000E+03</pdfrwt>
<totfact> 0.87763950E+05</totfact>
</mgrwt>
</event>
<event>
 3    1  0.1594457E-001  0.1250000E+03  0.7546771E-02  0.1235069E+00
         21   -1    0    0  502  501  0.00000000000E+00  0.00000000000E+00  0.33732507298E+03  0.33732507298E+03  0.00000000000E+00 0. -1.
         21   -1    0    0  501  502 -0.00000000000E+00 -0.00000000000E+00 -0.11580076054E+02  0.11580076054E+02  0.00000000000E+00 0. -1.
         25    1    1    2    0    0  0.00000000000E+00  0.00000000000E+00  0.32574499692E+03  0.34890514903E+03  0.12500000000E+03 0.  0.
<mgrwt>
<rscale>  0 0.12500000E+03</rscale>
<asrwt>0</asrwt>
<pdfrwt beam="1">  1       21 0.51896158E-01 0.12500000E+03</pdfrwt>
<pdfrwt beam="2">  1       21 0.17815504E-02 0.12500000E+03</pdfrwt>
<totfact> 0.51619394E+06</totfact>
</mgrwt>
</event>
<event>
 3    1  0.1594457E-001  0.1250000E+03  0.7546771E-02  0.1235069E+00
         21   -1    0    0  502  501  0.00000000000E+00  0.00000000000E+00  0.20625585988E+03  0.20625585988E+03  0.00000000000E+00 0.  1.
         21   -1    0    0  501  502 -0.00000000000E+00 -0.00000000000E+00 -0.18938855857E+02  0.18938855857E+02  0.00000000000E+00 0.  1.
         25    1    1    2    0    0  0.00000000000E+00  0.00000000000E+00  0.18731700403E+03  0.22519471574E+03  0.12500000000E+03 0.  0.
<mgrwt>
<rscale>  0 0.12500000E+03</rscale>
<asrwt>0</asrwt>
<pdfrwt beam="1">  1       21 0.31731669E-01 0.12500000E+03</pdfrwt>
<pdfrwt beam="2">  1       21 0.29136703E-02 0.12500000E+03</pdfrwt>
<totfact> 0.62295464E+06</totfact>
</mgrwt>
</event>
<event>
 3    1  0.1594457E-001  0.1250000E+03  0.7546771E-02  0.1235069E+00
         21   -1    0    0  502  501  0.00000000000E+00  0.00000000000E+00  0.71181308199E+03  0.71181308199E+03  0.00000000000E+00 0. -1.
         21   -1    0    0  501  502 -0.00000000000E+00 -0.00000000000E+00 -0.54877468521E+01  0.54877468521E+01  0.00000000000E+00 0. -1.
         25    1    1    2    0    0  0.00000000000E+00  0.00000000000E+00  0.70632533514E+03  0.71730082884E+03  0.12500000000E+03 0.  0.
<mgrwt>
<rscale>  0 0.12500000E+03</rscale>
<asrwt>0</asrwt>
<pdfrwt beam="1">  1       21 0.10950963E+00 0.12500000E+03</pdfrwt>
<pdfrwt beam="2">  1       21 0.84426931E-03 0.12500000E+03</pdfrwt>
<totfact> 0.32253737E+06</totfact>
</mgrwt>
</event>
<event>
 3    1  0.1594457E-001  0.1250000E+03  0.7546771E-02  0.1235069E+00
         21   -1    0    0  502  501  0.00000000000E+00  0.00000000000E+00  0.17938045945E+02  0.17938045945E+02  0.00000000000E+00 0.  1.
         21   -1    0    0  501  502 -0.00000000000E+00 -0.00000000000E+00 -0.21776340701E+03  0.21776340701E+03  0.00000000000E+00 0.  1.
         25    1    1    2    0    0  0.00000000000E+00  0.00000000000E+00 -0.19982536106E+03  0.23570145295E+03  0.12500000000E+03 0.  0.
<mgrwt>
<rscale>  0 0.12500000E+03</rscale>
<asrwt>0</asrwt>
<pdfrwt beam="1">  1       21 0.27596994E-02 0.12500000E+03</pdfrwt>
<pdfrwt beam="2">  1       21 0.33502062E-01 0.12500000E+03</pdfrwt>
<totfact> 0.61251121E+06</totfact>
</mgrwt>
</event>
<event>
 3    1  0.1594457E-001  0.1250000E+03  0.7546771E-02  0.1235069E+00
         21   -1    0    0  502  501  0.00000000000E+00  0.00000000000E+00  0.30189721001E+01  0.30189721001E+01  0.00000000000E+00 0. -1.
         21   -1    0    0  501  502 -0.00000000000E+00 -0.00000000000E+00 -0.12939006624E+04  0.12939006624E+04  0.00000000000E+00 0. -1.
         25    1    1    2    0    0  0.00000000000E+00  0.00000000000E+00 -0.12908816903E+04  0.12969196345E+04  0.12500000000E+03 0.  0.
<mgrwt>
<rscale>  0 0.12500000E+03</rscale>
<asrwt>0</asrwt>
<pdfrwt beam="1">  1       21 0.46445649E-03 0.12500000E+03</pdfrwt>
<pdfrwt beam="2">  1       21 0.19906197E+00 0.12500000E+03</pdfrwt>
<totfact> 0.17307701E+06</totfact>
</mgrwt>
</event>
<event>
 3    1  0.1594457E-001  0.1250000E+03  0.7546771E-02  0.1235069E+00
         21   -1    0    0  502  501  0.00000000000E+00  0.00000000000E+00  0.20753761921E+01  0.20753761921E+01  0.00000000000E+00 0.  1.
         21   -1    0    0  501  502 -0.00000000000E+00 -0.00000000000E+00 -0.18821888845E+04  0.18821888845E+04  0.00000000000E+00 0.  1.
         25    1    1    2    0    0  0.00000000000E+00  0.00000000000E+00 -0.18801135083E+04  0.18842642607E+04  0.12500000000E+03 0.  0.
<mgrwt>
<rscale>  0 0.12500000E+03</rscale>
<asrwt>0</asrwt>
<pdfrwt beam="1">  1       21 0.31928936E-03 0.12500000E+03</pdfrwt>
<pdfrwt beam="2">  1       21 0.28956687E+00 0.12500000E+03</pdfrwt>
<totfact> 0.91329787E+05</totfact>
</mgrwt>
</event>
<event>
 3    1  0.1594457E-001  0.1250000E+03  0.7546771E-02  0.1235069E+00
         21   -1    0    0  502  501  0.00000000000E+00  0.00000000000E+00  0.16643654626E+03  0.16643654626E+03  0.00000000000E+00 0.  1.
         21   -1    0    0  501  502 -0.00000000000E+00 -0.00000000000E+00 -0.23469905425E+02  0.23469905425E+02  0.00000000000E+00 0.  1.
         25    1    1    2    0    0  0.00000000000E+00  0.00000000000E+00  0.14296664084E+03  0.18990645169E+03  0.12500000000E+03 0.  0.
<mgrwt>
<rscale>  0 0.12500000E+03</rscale>
<asrwt>0</asrwt>
<pdfrwt beam="1">  1       21 0.25605622E-01 0.12500000E+03</pdfrwt>
<pdfrwt beam="2">  1       21 0.36107548E-02 0.12500000E+03</pdfrwt>
<totfact> 0.66032863E+06</totfact>
</mgrwt>
</event>
<event>
 3    1  0.1594457E-001  0.1250000E+03  0.7546771E-02  0.1235069E+00
         21   -1    0    0  502  501  0.00000000000E+00  0.00000000000E+00  0.46746769797E+02  0.46746769797E+02  0.00000000000E+00 0. -1.
         21   -1    0    0  501  502 -0.00000000000E+00 -0.00000000000E+00 -0.83561923466E+02  0.83561923466E+02  0.00000000000E+00 0. -1.
         25    1    1    2    0    0  0.00000000000E+00  0.00000000000E+00 -0.36815153669E+02  0.13030869326E+03  0.12500000000E+03 0.  0.
<mgrwt>
<rscale>  0 0.12500000E+03</rscale>
<asrwt>0</asrwt>
<pdfrwt beam="1">  1       21 0.71918108E-02 0.12500000E+03</pdfrwt>
<pdfrwt beam="2">  1       21 0.12855680E-01 0.12500000E+03</pdfrwt>
<totfact> 0.73323687E+06</totfact>
</mgrwt>
</event>
<event>
 3    1  0.1594457E-001  0.1250000E+03  0.7546771E-02  0.1235069E+00
         21   -1    0    0  502  501  0.00000000000E+00  0.00000000000E+00  0.46156612789E+02  0.46156612789E+02  0.00000000000E+00 0. -1.
         21   -1    0    0  501  502 -0.00000000000E+00 -0.00000000000E+00 -0.84630343605E+02  0.84630343605E+02  0.00000000000E+00 0. -1.
         25    1    1    2    0    0  0.00000000000E+00  0.00000000000E+00 -0.38473730816E+02  0.13078695639E+03  0.12500000000E+03 0.  0.
<mgrwt>
<rscale>  0 0.12500000E+03</rscale>
<asrwt>0</asrwt>
<pdfrwt beam="1">  1       21 0.71010174E-02 0.12500000E+03</pdfrwt>
<pdfrwt beam="2">  1       21 0.13020053E-01 0.12500000E+03</pdfrwt>
<totfact> 0.73259395E+06</totfact>
</mgrwt>
</event>
<event>
 3    1  0.1594457E-001  0.1250000E+03  0.7546771E-02  0.1235069E+00
         21   -1    0    0  502  501  0.00000000000E+00  0.00000000000E+00  0.12205186427E+02  0.12205186427E+02  0.00000000000E+00 0. -1.
         21   -1    0    0  501  502 -0.00000000000E+00 -0.00000000000E+00 -0.32004836825E+03  0.32004836825E+03  0.00000000000E+00 0. -1.
         25    1    1    2    0    0  0.00000000000E+00  0.00000000000E+00 -0.30784318182E+03  0.33225355468E+03  0.12500000000E+03 0.  0.
<mgrwt>
<rscale>  0 0.12500000E+03</rscale>
<asrwt>0</asrwt>
<pdfrwt beam="1">  1       21 0.18777211E-02 0.12500000E+03</pdfrwt>
<pdfrwt beam="2">  1       21 0.49238208E-01 0.12500000E+03</pdfrwt>
<totfact> 0.52876376E+06</totfact>
</mgrwt>
</event>
<event>
 3    1  0.1594457E-001  0.1250000E+03  0.7546771E-02  0.1235069E+00
         21   -1    0    0  502  501  0.00000000000E+00  0.00000000000E+00  0.12857215856E+02  0.12857215856E+02  0.00000000000E+00 0. -1.
         21   -1    0    0  501  502 -0.00000000000E+00 -0.00000000000E+00 -0.30381771946E+03  0.30381771946E+03  0.00000000000E+00 0. -1.
         25    1    1    2    0    0  0.00000000000E+00  0.00000000000E+00 -0.29096050360E+03  0.31667493531E+03  0.12500000000E+03 0.  0.
<mgrwt>
<rscale>  0 0.12500000E+03</rscale>
<asrwt>0</asrwt>
<pdfrwt beam="1">  1       21 0.19780334E-02 0.12500000E+03</pdfrwt>
<pdfrwt beam="2">  1       21 0.46741183E-01 0.12500000E+03</pdfrwt>
<totfact> 0.54097895E+06</totfact>
</mgrwt>
</event>
<event>
 3    1  0.1594457E-001  0.1250000E+03  0.7546771E-02  0.1235069E+00
         21   -1    0    0  502  501  0.00000000000E+00  0.00000000000E+00  0.79450210656E+01  0.79450210656E+01  0.00000000000E+00 0.  1.
         21   -1    0    0  501  502 -0.00000000000E+00 -0.00000000000E+00 -0.49166011868E+03  0.49166011868E+03  0.00000000000E+00 0.  1.
         25    1    1    2    0    0  0.00000000000E+00  0.00000000000E+00 -0.48371509761E+03  0.49960513974E+03  0.12500000000E+03 0.  0.
<mgrwt>
<rscale>  0 0.12500000E+03</rscale>
<asrwt>0</asrwt>
<pdfrwt beam="1">  1       21 0.12223113E-02 0.12500000E+03</pdfrwt>
<pdfrwt beam="2">  1       21 0.75639993E-01 0.12500000E+03</pdfrwt>
<totfact> 0.42065501E+06</totfact>
</mgrwt>
</event>
<event>
 3    1  0.1594457E-001  0.1250000E+03  0.7546771E-02  0.1235069E+00
         21   -1    0    0  502  501  0.00000000000E+00  0.00000000000E+00  0.47552865872E+01  0.47552865872E+01  0.00000000000E+00 0.  1.
         21   -1    0    0  501  502 -0.00000000000E+00 -0.00000000000E+00 -0.82145417071E+03  0.82145417071E+03  0.00000000000E+00 0.  1.
         25    1    1    2    0    0  0.00000000000E+00  0.00000000000E+00 -0.81669888413E+03  0.82620945730E+03  0.12500000000E+03 0.  0.
<mgrwt>
<rscale>  0 0.12500000E+03</rscale>
<asrwt>0</asrwt>
<pdfrwt beam="1">  1       21 0.73158249E-03 0.12500000E+03</pdfrwt>
<pdfrwt beam="2">  1       21 0.12637758E+00 0.12500000E+03</pdfrwt>
<totfact> 0.28512651E+06</totfact>
</mgrwt>
</event>
<event>
 3    1  0.1594457E-001  0.1250000E+03  0.7546771E-02  0.1235069E+00
         21   -1    0    0  502  501  0.00000000000E+00  0.00000000000E+00  0.68086077980E+02  0.68086077980E+02  0.00000000000E+00 0. -1.
         21   -1    0    0  501  502 -0.00000000000E+00 -0.00000000000E+00 -0.57372228154E+02  0.57372228154E+02  0.00000000000E+00 0. -1.
         25    1    1    2    0    0  0.00000000000E+00  0.00000000000E+00  0.10713849826E+02  0.12545830613E+03  0.12500000000E+03 0.  0.
<mgrwt>
<rscale>  0 0.12500000E+03</rscale>
<asrwt>0</asrwt>
<pdfrwt beam="1">  1       21 0.10474781E-01 0.12500000E+03</pdfrwt>
<pdfrwt beam="2">  1       21 0.88264967E-02 0.12500000E+03</pdfrwt>
<totfact> 0.73981232E+06</totfact>
</mgrwt>
</event>
<event>
 3    1  0.1594457E-001  0.1250000E+03  0.7546771E-02  0.1235069E+00
         21   -1    0    0  502  501  0.00000000000E+00  0.00000000000E+00  0.41699184297E+02  0.41699184297E+02  0.00000000000E+00 0. -1.
         21   -1    0    0  501  502 -0.00000000000E+00 -0.00000000000E+00 -0.93676892387E+02  0.93676892387E+02  0.00000000000E+00 0. -1.
         25    1    1    2    0    0  0.00000000000E+00  0.00000000000E+00 -0.51977708090E+02  0.13537607668E+03  0.12500000000E+03 0.  0.
<mgrwt>
<rscale>  0 0.12500000E+03</rscale>
<asrwt>0</asrwt>
<pdfrwt beam="1">  1       21 0.64152592E-02 0.12500000E+03</pdfrwt>
<pdfrwt beam="2">  1       21 0.14411829E-01 0.12500000E+03</pdfrwt>
<totfact> 0.72646715E+06</totfact>
</mgrwt>
</event>
<event>
 3    1  0.1594457E-001  0.1250000E+03  0.7546771E-02  0.1235069E+00
         21   -1    0    0  502  501  0.00000000000E+00  0.00000000000E+00  0.48469917957E+02  0.48469917957E+02  0.00000000000E+00 0. -1.
         21   -1    0    0  501  502 -0.00000000000E+00 -0.00000000000E+00 -0.80591223683E+02  0.80591223683E+02  0.00000000000E+00 0. -1.
         25    1    1    2    0    0  0.00000000000E+00  0.00000000000E+00 -0.32121305725E+02  0.12906114164E+03  0.12500000000E+03 0.  0.
<mgrwt>
<rscale>  0 0.12500000E+03</rscale>
<asrwt>0</asrwt>
<pdfrwt beam="1">  1       21 0.74569105E-02 0.12500000E+03</pdfrwt>
<pdfrwt beam="2">  1       21 0.12398650E-01 0.12500000E+03</pdfrwt>
<totfact> 0.73490671E+06</totfact>
</mgrwt>
</event>
<event>
 3    1  0.1594457E-001  0.1250000E+03  0.7546771E-02  0.1235069E+00
         21   -1    0    0  502  501  0.00000000000E+00  0.00000000000E+00  0.11656406276E+03  0.11656406276E+03  0.00000000000E+00 0. -1.
         21   -1    0    0  501  502 -0.00000000000E+00 -0.00000000000E+00 -0.33511615050E+02  0.33511615050E+02  0.00000000000E+00 0. -1.
         25    1    1    2    0    0  0.00000000000E+00  0.00000000000E+00  0.83052447714E+02  0.15007567781E+03  0.12500000000E+03 0.  0.
<mgrwt>
<rscale>  0 0.12500000E+03</rscale>
<asrwt>0</asrwt>
<pdfrwt beam="1">  1       21 0.17932933E-01 0.12500000E+03</pdfrwt>
<pdfrwt beam="2">  1       21 0.51556331E-02 0.12500000E+03</pdfrwt>
<totfact> 0.70749696E+06</totfact>
</mgrwt>
</event>
<event>
 3    1  0.1594457E-001  0.1250000E+03  0.7546771E-02  0.1235069E+00
         21   -1    0    0  502  501  0.00000000000E+00  0.00000000000E+00  0.14286661578E+04  0.14286661578E+04  0.00000000000E+00 0.  1.
         21   -1    0    0  501  502 -0.00000000000E+00 -0.00000000000E+00 -0.27341936943E+01  0.27341936943E+01  0.00000000000E+00 0.  1.
         25    1    1    2    0    0  0.00000000000E+00  0.00000000000E+00  0.14259319641E+04  0.14314003515E+04  0.12500000000E+03 0.  0.
<mgrwt>
<rscale>  0 0.12500000E+03</rscale>
<asrwt>0</asrwt>
<pdfrwt beam="1">  1       21 0.21979420E+00 0.12500000E+03</pdfrwt>
<pdfrwt beam="2">  1       21 0.42064632E-03 0.12500000E+03</pdfrwt>
<totfact> 0.15041607E+06</totfact>
</mgrwt>
</event>
<event>
 3    1  0.1594457E-001  0.1250000E+03  0.7546771E-02  0.1235069E+00
         21   -1    0    0  502  501  0.00000000000E+00  0.00000000000E+00  0.41813477880E+02  0.41813477880E+02  0.00000000000E+00 0.  1.
         21   -1    0    0  501  502 -0.00000000000E+00 -0.00000000000E+00 -0.93420834575E+02  0.93420834575E+02  0.00000000000E+00 0.  1.
         25    1    1    2    0    0  0.00000000000E+00  0.00000000000E+00 -0.51607356695E+02  0.13523431245E+03  0.12500000000E+03 0.  0.
<mgrwt>
<rscale>  0 0.12500000E+03</rscale>
<asrwt>0</asrwt>
<pdfrwt beam="1">  1       21 0.64328429E-02 0.12500000E+03</pdfrwt>
<pdfrwt beam="2">  1       21 0.14372436E-01 0.12500000E+03</pdfrwt>
<totfact> 0.72665462E+06</totfact>
</mgrwt>
</event>
<event>
 3    1  0.1594457E-001  0.1250000E+03  0.7546771E-02  0.1235069E+00
         21   -1    0    0  502  501  0.00000000000E+00  0.00000000000E+00  0.53049933543E+03  0.53049933543E+03  0.00000000000E+00 0.  1.
         21   -1    0    0  501  502 -0.00000000000E+00 -0.00000000000E+00 -0.73633456993E+01  0.73633456993E+01  0.00000000000E+00 0.  1.
         25    1    1    2    0    0  0.00000000000E+00  0.00000000000E+00  0.52313598973E+03  0.53786268112E+03  0.12500000000E+03 0.  0.
<mgrwt>
<rscale>  0 0.12500000E+03</rscale>
<asrwt>0</asrwt>
<pdfrwt beam="1">  1       21 0.81615252E-01 0.12500000E+03</pdfrwt>
<pdfrwt beam="2">  1       21 0.11328228E-02 0.12500000E+03</pdfrwt>
<totfact> 0.40062430E+06</totfact>
</mgrwt>
</event>
<event>
 3    1  0.1594457E-001  0.1250000E+03  0.7546771E-02  0.1235069E+00
         21   -1    0    0  502  501  0.00000000000E+00  0.00000000000E+00  0.21681509021E+03  0.21681509021E+03  0.00000000000E+00 0. -1.
         21   -1    0    0  501  502 -0.00000000000E+00 -0.00000000000E+00 -0.18016504277E+02  0.18016504277E+02  0.00000000000E+00 0. -1.
         25    1    1    2    0    0  0.00000000000E+00  0.00000000000E+00  0.19879858593E+03  0.23483159448E+03  0.12500000000E+03 0.  0.
<mgrwt>
<rscale>  0 0.12500000E+03</rscale>
<asrwt>0</asrwt>
<pdfrwt beam="1">  1       21 0.33356166E-01 0.12500000E+03</pdfrwt>
<pdfrwt beam="2">  1       21 0.27717700E-02 0.12500000E+03</pdfrwt>
<totfact> 0.61336414E+06</totfact>
</mgrwt>
</event>
<event>
 3    1  0.1594457E-001  0.1250000E+03  0.7546771E-02  0.1235069E+00
         21   -1    0    0  502  501  0.00000000000E+00  0.00000000000E+00  0.36545240907E+02  0.36545240907E+02  0.00000000000E+00 0.  1.
         21   -1    0    0  501  502 -0.00000000000E+00 -0.00000000000E+00 -0.10688806266E+03  0.10688806266E+03  0.00000000000E+00 0.  1.
         25    1    1    2    0    0  0.00000000000E+00  0.00000000000E+00 -0.70342821753E+02  0.14343330357E+03  0.12500000000E+03 0.  0.
<mgrwt>
<rscale>  0 0.12500000E+03</rscale>
<asrwt>0</asrwt>
<pdfrwt beam="1">  1       21 0.56223447E-02 0.12500000E+03</pdfrwt>
<pdfrwt beam="2">  1       21 0.16444317E-01 0.12500000E+03</pdfrwt>
<totfact> 0.71594205E+06</totfact>
</mgrwt>
</event>
<event>
 3    1  0.1594457E-001  0.1250000E+03  0.7546771E-02  0.1235069E+00
         21   -1    0    0  502  501  0.00000000000E+00  0.00000000000E+00  0.19155183305E+02  0.19155183305E+02  0.00000000000E+00 0.  1.
         21   -1    0    0  501  502 -0.00000000000E+00 -0.00000000000E+00 -0.20392652672E+03  0.20392652672E+03  0.00000000000E+00 0.  1.
         25    1    1    2    0    0  0.00000000000E+00  0.00000000000E+00 -0.18477134341E+03  0.22308171002E+03  0.12500000000E+03 0.  0.
<mgrwt>
<rscale>  0 0.12500000E+03</rscale>
<asrwt>0</asrwt>
<pdfrwt beam="1">  1       21 0.29469514E-02 0.12500000E+03</pdfrwt>
<pdfrwt beam="2">  1       21 0.31373311E-01 0.12500000E+03</pdfrwt>
<totfact> 0.62508926E+06</totfact>
</mgrwt>
</event>
<event>
 3    1  0.1594457E-001  0.1250000E+03  0.7546771E-02  0.1235069E+00
         21   -1    0    0  502  501  0.00000000000E+00  0.00000000000E+00  0.68405373284E+02  0.68405373284E+02  0.00000000000E+00 0. -1.
         21   -1    0    0  501  502 -0.00000000000E+00 -0.00000000000E+00 -0.57104432188E+02  0.57104432188E+02  0.00000000000E+00 0. -1.
         25    1    1    2    0    0  0.00000000000E+00  0.00000000000E+00  0.11300941095E+02  0.12550980547E+03  0.12500000000E+03 0.  0.
<mgrwt>
<rscale>  0 0.12500000E+03</rscale>
<asrwt>0</asrwt>
<pdfrwt beam="1">  1       21 0.10523904E-01 0.12500000E+03</pdfrwt>
<pdfrwt beam="2">  1       21 0.87852972E-02 0.12500000E+03</pdfrwt>
<totfact> 0.73974026E+06</totfact>
</mgrwt>
</event>
<event>
 3    1  0.1594457E-001  0.1250000E+03  0.7546771E-02  0.1235069E+00
         21   -1    0    0  502  501  0.00000000000E+00  0.00000000000E+00  0.61211517377E+01  0.61211517377E+01  0.00000000000E+00 0.  1.
         21   -1    0    0  501  502 -0.00000000000E+00 -0.00000000000E+00 -0.63815604765E+03  0.63815604765E+03  0.00000000000E+00 0.  1.
         25    1    1    2    0    0  0.00000000000E+00  0.00000000000E+00 -0.63203489591E+03  0.64427719939E+03  0.12500000000E+03 0.  0.
<mgrwt>
<rscale>  0 0.12500000E+03</rscale>
<asrwt>0</asrwt>
<pdfrwt beam="1">  1       21 0.94171614E-03 0.12500000E+03</pdfrwt>
<pdfrwt beam="2">  1       21 0.98177802E-01 0.12500000E+03</pdfrwt>
<totfact> 0.35163679E+06</totfact>
</mgrwt>
</event>
<event>
 3    1  0.1594457E-001  0.1250000E+03  0.7546771E-02  0.1235069E+00
         21   -1    0    0  502  501  0.00000000000E+00  0.00000000000E+00  0.46577521889E+02  0.46577521889E+02  0.00000000000E+00 0.  1.
         21   -1    0    0  501  502 -0.00000000000E+00 -0.00000000000E+00 -0.83865560932E+02  0.83865560932E+02  0.00000000000E+00 0.  1.
         25    1    1    2    0    0  0.00000000000E+00  0.00000000000E+00 -0.37288039043E+02  0.13044308282E+03  0.12500000000E+03 0.  0.
<mgrwt>
<rscale>  0 0.12500000E+03</rscale>
<asrwt>0</asrwt>
<pdfrwt beam="1">  1       21 0.71657727E-02 0.12500000E+03</pdfrwt>
<pdfrwt beam="2">  1       21 0.12902394E-01 0.12500000E+03</pdfrwt>
<totfact> 0.73305756E+06</totfact>
</mgrwt>
</event>
<event>
 3    1  0.1594457E-001  0.1250000E+03  0.7546771E-02  0.1235069E+00
         21   -1    0    0  502  501  0.00000000000E+00  0.00000000000E+00  0.19317426163E+04  0.19317426163E+04  0.00000000000E+00 0. -1.
         21   -1    0    0  501  502 -0.00000000000E+00 -0.00000000000E+00 -0.20221379220E+01  0.20221379220E+01  0.00000000000E+00 0. -1.
         25    1    1    2    0    0  0.00000000000E+00  0.00000000000E+00  0.19297204784E+04  0.19337647542E+04  0.12500000000E+03 0.  0.
<mgrwt>
<rscale>  0 0.12500000E+03</rscale>
<asrwt>0</asrwt>
<pdfrwt beam="1">  1       21 0.29718970E+00 0.12500000E+03</pdfrwt>
<pdfrwt beam="2">  1       21 0.31109969E-03 0.12500000E+03</pdfrwt>
<totfact> 0.86121786E+05</totfact>
</mgrwt>
</event>
<event>
 3    1  0.1594457E-001  0.1250000E+03  0.7546771E-02  0.1235069E+00
         21   -1    0    0  502  501  0.00000000000E+00  0.00000000000E+00  0.53440874572E+02  0.53440874572E+02  0.00000000000E+00 0. -1.
         21   -1    0    0  501  502 -0.00000000000E+00 -0.00000000000E+00 -0.73094799276E+02  0.73094799276E+02  0.00000000000E+00 0. -1.
         25    1    1    2    0    0  0.00000000000E+00  0.00000000000E+00 -0.19653924704E+02  0.12653567385E+03  0.12500000000E+03 0.  0.
<mgrwt>
<rscale>  0 0.12500000E+03</rscale>
<asrwt>0</asrwt>
<pdfrwt beam="1">  1       21 0.82216730E-02 0.12500000E+03</pdfrwt>
<pdfrwt beam="2">  1       21 0.11245354E-01 0.12500000E+03</pdfrwt>
<totfact> 0.73832492E+06</totfact>
</mgrwt>
</event>
<event>
 3    1  0.1594457E-001  0.1250000E+03  0.7546771E-02  0.1235069E+00
         21   -1    0    0  502  501  0.00000000000E+00  0.00000000000E+00  0.15694651805E+01  0.15694651805E+01  0.00000000000E+00 0. -1.
         21   -1    0    0  501  502 -0.00000000000E+00 -0.00000000000E+00 -0.24889051688E+04  0.24889051688E+04  0.00000000000E+00 0. -1.
         25    1    1    2    0    0  0.00000000000E+00  0.00000000000E+00 -0.24873357036E+04  0.24904746339E+04  0.12500000000E+03 0.  0.
<mgrwt>
<rscale>  0 0.12500000E+03</rscale>
<asrwt>0</asrwt>
<pdfrwt beam="1">  1       21 0.24145512E-03 0.12500000E+03</pdfrwt>
<pdfrwt beam="2">  1       21 0.38291017E+00 0.12500000E+03</pdfrwt>
<totfact> 0.40804023E+05</totfact>
</mgrwt>
</event>
<event>
 3    1  0.1594457E-001  0.1250000E+03  0.7546771E-02  0.1235069E+00
         21   -1    0    0  502  501  0.00000000000E+00  0.00000000000E+00  0.15941241783E+04  0.15941241783E+04  0.00000000000E+00 0. -1.
         21   -1    0    0  501  502 -0.00000000000E+00 -0.00000000000E+00 -0.24504050896E+01  0.24504050896E+01  0.00000000000E+00 0. -1.
         25    1    1    2    0    0  0.00000000000E+00  0.00000000000E+00  0.15916737732E+04  0.15965745834E+04  0.12500000000E+03 0.  0.
<mgrwt>
<rscale>  0 0.12500000E+03</rscale>
<asrwt>0</asrwt>
<pdfrwt beam="1">  1       21 0.24524904E+00 0.12500000E+03</pdfrwt>
<pdfrwt beam="2">  1       21 0.37698667E-03 0.12500000E+03</pdfrwt>
<totfact> 0.12620352E+06</totfact>
</mgrwt>
</event>
<event>
 3    1  0.1594457E-001  0.1250000E+03  0.7546771E-02  0.1235069E+00
         21   -1    0    0  502  501  0.00000000000E+00  0.00000000000E+00  0.17513133270E+03  0.17513133270E+03  0.00000000000E+00 0.  1.
         21   -1    0    0  501  502 -0.00000000000E+00 -0.00000000000E+00 -0.22304689513E+02  0.22304689513E+02  0.00000000000E+00 0.  1.
         25    1    1    2    0    0  0.00000000000E+00  0.00000000000E+00  0.15282664319E+03  0.19743602222E+03  0.12500000000E+03 0.  0.
<mgrwt>
<rscale>  0 0.12500000E+03</rscale>
<asrwt>0</asrwt>
<pdfrwt beam="1">  1       21 0.26943281E-01 0.12500000E+03</pdfrwt>
<pdfrwt beam="2">  1       21 0.34314908E-02 0.12500000E+03</pdfrwt>
<totfact> 0.65205389E+06</totfact>
</mgrwt>
</event>
<event>
 3    1  0.1594457E-001  0.1250000E+03  0.7546771E-02  0.1235069E+00
         21   -1    0    0  502  501  0.00000000000E+00  0.00000000000E+00  0.21608725510E+02  0.21608725510E+02  0.00000000000E+00 0.  1.
         21   -1    0    0  501  502 -0.00000000000E+00 -0.00000000000E+00 -0.18077188301E+03  0.18077188301E+03  0.00000000000E+00 0.  1.
         25    1    1    2    0    0  0.00000000000E+00  0.00000000000E+00 -0.15916315750E+03  0.20238060852E+03  0.12500000000E+03 0.  0.
<mgrwt>
<rscale>  0 0.12500000E+03</rscale>
<asrwt>0</asrwt>
<pdfrwt beam="1">  1       21 0.33244193E-02 0.12500000E+03</pdfrwt>
<pdfrwt beam="2">  1       21 0.27811059E-01 0.12500000E+03</pdfrwt>
<totfact> 0.64670207E+06</totfact>
</mgrwt>
</event>
<event>
 3    1  0.1594457E-001  0.1250000E+03  0.7546771E-02  0.1235069E+00
         21   -1    0    0  502  501  0.00000000000E+00  0.00000000000E+00  0.30273039494E+02  0.30273039494E+02  0.00000000000E+00 0.  1.
         21   -1    0    0  501  502 -0.00000000000E+00 -0.00000000000E+00 -0.12903395448E+03  0.12903395448E+03  0.00000000000E+00 0.  1.
         25    1    1    2    0    0  0.00000000000E+00  0.00000000000E+00 -0.98760914985E+02  0.15930699397E+03  0.12500000000E+03 0.  0.
<mgrwt>
<rscale>  0 0.12500000E+03</rscale>
<asrwt>0</asrwt>
<pdfrwt beam="1">  1       21 0.46573908E-02 0.12500000E+03</pdfrwt>
<pdfrwt beam="2">  1       21 0.19851377E-01 0.12500000E+03</pdfrwt>
<totfact> 0.69604273E+06</totfact>
</mgrwt>
</event>
<event>
 3    1  0.1594457E-001  0.1250000E+03  0.7546771E-02  0.1235069E+00
         21   -1    0    0  502  501  0.00000000000E+00  0.00000000000E+00  0.11518681482E+02  0.11518681482E+02  0.00000000000E+00 0. -1.
         21   -1    0    0  501  502 -0.00000000000E+00 -0.00000000000E+00 -0.33912301561E+03  0.33912301561E+03  0.00000000000E+00 0. -1.
         25    1    1    2    0    0  0.00000000000E+00  0.00000000000E+00 -0.32760433413E+03  0.35064169709E+03  0.12500000000E+03 0.  0.
<mgrwt>
<rscale>  0 0.12500000E+03</rscale>
<asrwt>0</asrwt>
<pdfrwt beam="1">  1       21 0.17721048E-02 0.12500000E+03</pdfrwt>
<pdfrwt beam="2">  1       21 0.52172772E-01 0.12500000E+03</pdfrwt>
<totfact> 0.51491075E+06</totfact>
</mgrwt>
</event>
<event>
 3    1  0.1594457E-001  0.1250000E+03  0.7546771E-02  0.1235069E+00
         21   -1    0    0  502  501  0.00000000000E+00  0.00000000000E+00  0.24806660191E+02  0.24806660191E+02  0.00000000000E+00 0. -1.
         21   -1    0    0  501  502 -0.00000000000E+00 -0.00000000000E+00 -0.15746779171E+03  0.15746779171E+03  0.00000000000E+00 0. -1.
         25    1    1    2    0    0  0.00000000000E+00  0.00000000000E+00 -0.13266113152E+03  0.18227445190E+03  0.12500000000E+03 0.  0.
<mgrwt>
<rscale>  0 0.12500000E+03</rscale>
<asrwt>0</asrwt>
<pdfrwt beam="1">  1       21 0.38164092E-02 0.12500000E+03</pdfrwt>
<pdfrwt beam="2">  1       21 0.24225814E-01 0.12500000E+03</pdfrwt>
<totfact> 0.66891572E+06</totfact>
</mgrwt>
</event>
<event>
 3    1  0.1594457E-001  0.1250000E+03  0.7546771E-02  0.1235069E+00
         21   -1    0    0  502  501  0.00000000000E+00  0.00000000000E+00  0.12470128875E+01  0.12470128875E+01  0.00000000000E+00 0. -1.
         21   -1    0    0  501  502 -0.00000000000E+00 -0.00000000000E+00 -0.31324856697E+04  0.31324856697E+04  0.00000000000E+00 0. -1.
         25    1    1    2    0    0  0.00000000000E+00  0.00000000000E+00 -0.31312386568E+04  0.31337326826E+04  0.12500000000E+03 0.  0.
<mgrwt>
<rscale>  0 0.12500000E+03</rscale>
<asrwt>0</asrwt>
<pdfrwt beam="1">  1       21 0.19184889E-03 0.12500000E+03</pdfrwt>
<pdfrwt beam="2">  1       21 0.48191898E+00 0.12500000E+03</pdfrwt>
<totfact> 0.13479581E+05</totfact>
</mgrwt>
</event>
<event>
 3    1  0.1594457E-001  0.1250000E+03  0.7546771E-02  0.1235069E+00
         21   -1    0    0  502  501  0.00000000000E+00  0.00000000000E+00  0.64159240642E+02  0.64159240642E+02  0.00000000000E+00 0.  1.
         21   -1    0    0  501  502 -0.00000000000E+00 -0.00000000000E+00 -0.60883669460E+02  0.60883669460E+02  0.00000000000E+00 0.  1.
         25    1    1    2    0    0  0.00000000000E+00  0.00000000000E+00  0.32755711819E+01  0.12504291010E+03  0.12500000000E+03 0.  0.
<mgrwt>
<rscale>  0 0.12500000E+03</rscale>
<asrwt>0</asrwt>
<pdfrwt beam="1">  1       21 0.98706524E-02 0.12500000E+03</pdfrwt>
<pdfrwt beam="2">  1       21 0.93667184E-02 0.12500000E+03</pdfrwt>
<totfact> 0.74037786E+06</totfact>
</mgrwt>
</event>
<event>
 3    1  0.1594457E-001  0.1250000E+03  0.7546771E-02  0.1235069E+00
         21   -1    0    0  502  501  0.00000000000E+00  0.00000000000E+00  0.53977191406E+02  0.53977191406E+02  0.00000000000E+00 0. -1.
         21   -1    0    0  501  502 -0.00000000000E+00 -0.00000000000E+00 -0.72368530081E+02  0.72368530081E+02  0.00000000000E+00 0. -1.
         25    1    1    2    0    0  0.00000000000E+00  0.00000000000E+00 -0.18391338675E+02  0.12634572149E+03  0.12500000000E+03 0.  0.
<mgrwt>
<rscale>  0 0.12500000E+03</rscale>
<asrwt>0</asrwt>
<pdfrwt beam="1">  1       21 0.83041833E-02 0.12500000E+03</pdfrwt>
<pdfrwt beam="2">  1       21 0.11133620E-01 0.12500000E+03</pdfrwt>
<totfact> 0.73858507E+06</totfact>
</mgrwt>
</event>
<event>
 3    1  0.1594457E-001  0.1250000E+03  0.7546771E-02  0.1235069E+00
         21   -1    0    0  502  501  0.00000000000E+00  0.00000000000E+00  0.54242884901E+03  0.54242884901E+03  0.00000000000E+00 0. -1.
         21   -1    0    0  501  502 -0.00000000000E+00 -0.00000000000E+00 -0.72014053219E+01  0.72014053219E+01  0.00000000000E+00 0. -1.
         25    1    1    2    0    0  0.00000000000E+00  0.00000000000E+00  0.53522744369E+03  0.54963025433E+03  0.12500000000E+03 0.  0.
<mgrwt>
<rscale>  0 0.12500000E+03</rscale>
<asrwt>0</asrwt>
<pdfrwt beam="1">  1       21 0.83450560E-01 0.12500000E+03</pdfrwt>
<pdfrwt beam="2">  1       21 0.11079089E-02 0.12500000E+03</pdfrwt>
<totfact> 0.39474361E+06</totfact>
</mgrwt>
</event>
<event>
 3    1  0.1594457E-001  0.1250000E+03  0.7546771E-02  0.1235069E+00
         21   -1    0    0  502  501  0.00000000000E+00  0.00000000000E+00  0.11691033762E+04  0.11691033762E+04  0.00000000000E+00 0.  1.
         21   -1    0    0  501  502 -0.00000000000E+00 -0.00000000000E+00 -0.33412357533E+01  0.33412357533E+01  0.00000000000E+00 0.  1.
         25    1    1    2    0    0  0.00000000000E+00  0.00000000000E+00  0.11657621405E+04  0.11724446120E+04  0.12500000000E+03 0.  0.
<mgrwt>
<rscale>  0 0.12500000E+03</rscale>
<asrwt>0</asrwt>
<pdfrwt beam="1">  1       21 0.17986173E+00 0.12500000E+03</pdfrwt>
<pdfrwt beam="2">  1       21 0.51403720E-03 0.12500000E+03</pdfrwt>
<totfact> 0.19701360E+06</totfact>
</mgrwt>
</event>
<event>
 3    1  0.1594457E-001  0.1250000E+03  0.7546771E-02  0.1235069E+00
         21   -1    0    0  502  501  0.00000000000E+00  0.00000000000E+00  0.40220167179E+03  0.40220167179E+03  0.00000000000E+00 0.  1.
         21   -1    0    0  501  502 -0.00000000000E+00 -0.00000000000E+00 -0.97121674870E+01  0.97121674870E+01  0.00000000000E+00 0.  1.
         25    1    1    2    0    0  0.00000000000E+00  0.00000000000E+00  0.39248950430E+03  0.41191383928E+03  0.12500000000E+03 0.  0.
<mgrwt>
<rscale>  0 0.12500000E+03</rscale>
<asrwt>0</asrwt>
<pdfrwt beam="1">  1       21 0.61877167E-01 0.12500000E+03</pdfrwt>
<pdfrwt beam="2">  1       21 0.14941799E-02 0.12500000E+03</pdfrwt>
<totfact> 0.47261035E+06</totfact>
</mgrwt>
</event>
<event>
 3    1  0.1594457E-001  0.1250000E+03  0.7546771E-02  0.1235069E+00
         21   -1    0    0  502  501  0.00000000000E+00  0.00000000000E+00  0.10784876118E+03  0.10784876118E+03  0.00000000000E+00 0.  1.
         21   -1    0    0  501  502 -0.00000000000E+00 -0.00000000000E+00 -0.36219702085E+02  0.36219702085E+02  0.00000000000E+00 0.  1.
         25    1    1    2    0    0  0.00000000000E+00  0.00000000000E+00  0.71629059090E+02  0.14406846326E+03  0.12500000000E+03 0.  0.
<mgrwt>
<rscale>  0 0.12500000E+03</rscale>
<asrwt>0</asrwt>
<pdfrwt beam="1">  1       21 0.16592117E-01 0.12500000E+03</pdfrwt>
<pdfrwt beam="2">  1       21 0.55722619E-02 0.12500000E+03</pdfrwt>
<totfact> 0.71512526E+06</totfact>
</mgrwt>
</event>
<event>
 3    1  0.1594457E-001  0.1250000E+03  0.7546771E-02  0.1235069E+00
         21   -1    0    0  502  501  0.00000000000E+00  0.00000000000E+00  0.10112531713E+02  0.10112531713E+02  0.00000000000E+00 0.  1.
         21   -1    0    0  501  502 -0.00000000000E+00 -0.00000000000E+00 -0.38627814587E+03  0.38627814587E+03  0.00000000000E+00 0.  1.
         25    1    1    2    0    0  0.00000000000E+00  0.00000000000E+00 -0.37616561416E+03  0.39639067758E+03  0.12500000000E+03 0.  0.
<mgrwt>
<rscale>  0 0.12500000E+03</rscale>
<asrwt>0</asrwt>
<pdfrwt beam="1">  1       21 0.15557742E-02 0.12500000E+03</pdfrwt>
<pdfrwt beam="2">  1       21 0.59427403E-01 0.12500000E+03</pdfrwt>
<totfact> 0.48281680E+06</totfact>
</mgrwt>
</event>
<event>
 3    1  0.1594457E-001  0.1250000E+03  0.7546771E-02  0.1235069E+00
         21   -1    0    0  502  501  0.00000000000E+00  0.00000000000E+00  0.16416507032E+03  0.16416507032E+03  0.00000000000E+00 0.  1.
         21   -1    0    0  501  502 -0.00000000000E+00 -0.00000000000E+00 -0.23794647622E+02  0.23794647622E+02  0.00000000000E+00 0.  1.
         25    1    1    2    0    0  0.00000000000E+00  0.00000000000E+00  0.14037042269E+03  0.18795971794E+03  0.12500000000E+03 0.  0.
<mgrwt>
<rscale>  0 0.12500000E+03</rscale>
<asrwt>0</asrwt>
<pdfrwt beam="1">  1       21 0.25256164E-01 0.12500000E+03</pdfrwt>
<pdfrwt beam="2">  1       21 0.36607151E-02 0.12500000E+03</pdfrwt>
<totfact> 0.66249943E+06</totfact>
</mgrwt>
</event>
<event>
 3    1  0.1594457E-001  0.1250000E+03  0.7546771E-02  0.1235069E+00
         21   -1    0    0  502  501  0.00000000000E+00  0.00000000000E+00  0.26110557405E+02  0.26110557405E+02  0.00000000000E+00 0.  1.
         21   -1    0    0  501  502 -0.00000000000E+00 -0.00000000000E+00 -0.14960423630E+03  0.14960423630E+03  0.00000000000E+00 0.  1.
         25    1    1    2    0    0  0.00000000000E+00  0.00000000000E+00 -0.12349367889E+03  0.17571479371E+03  0.12500000000E+03 0.  0.
<mgrwt>
<rscale>  0 0.12500000E+03</rscale>
<asrwt>0</asrwt>
<pdfrwt beam="1">  1       21 0.40170089E-02 0.12500000E+03</pdfrwt>
<pdfrwt beam="2">  1       21 0.23016036E-01 0.12500000E+03</pdfrwt>
<totfact> 0.67646554E+06</totfact>
</mgrwt>
</event>
<event>
 3    1  0.1594457E-001  0.1250000E+03  0.7546771E-02  0.1235069E+00
         21   -1    0    0  502  501  0.00000000000E+00  0.00000000000E+00  0.50626926348E+02  0.50626926348E+02  0.00000000000E+00 0.  1.
         21   -1    0    0  501  502 -0.00000000000E+00 -0.00000000000E+00 -0.77157557880E+02  0.77157557880E+02  0.00000000000E+00 0.  1.
         25    1    1    2    0    0  0.00000000000E+00  0.00000000000E+00 -0.26530631532E+02  0.12778448423E+03  0.12500000000E+03 0.  0.
<mgrwt>
<rscale>  0 0.12500000E+03</rscale>
<asrwt>0</asrwt>
<pdfrwt beam="1">  1       21 0.77887579E-02 0.12500000E+03</pdfrwt>
<pdfrwt beam="2">  1       21 0.11870393E-01 0.12500000E+03</pdfrwt>
<totfact> 0.73662693E+06</totfact>
</mgrwt>
</event>
<event>
 3    1  0.1594457E-001  0.1250000E+03  0.7546771E-02  0.1235069E+00
         21   -1    0    0  502  501  0.00000000000E+00  0.00000000000E+00  0.64407470959E+01  0.64407470959E+01  0.00000000000E+00 0. -1.
         21   -1    0    0  501  502 -0.00000000000E+00 -0.00000000000E+00 -0.60649020088E+03  0.60649020088E+03  0.00000000000E+00 0. -1.
         25    1    1    2    0    0  0.00000000000E+00  0.00000000000E+00 -0.60004945378E+03  0.61293094797E+03  0.12500000000E+03 0.  0.
<mgrwt>
<rscale>  0 0.12500000E+03</rscale>
<asrwt>0</asrwt>
<pdfrwt beam="1">  1       21 0.99088431E-03 0.12500000E+03</pdfrwt>
<pdfrwt beam="2">  1       21 0.93306172E-01 0.12500000E+03</pdfrwt>
<totfact> 0.36514303E+06</totfact>
</mgrwt>
</event>
<event>
 3    1  0.1594457E-001  0.1250000E+03  0.7546771E-02  0.1235069E+00
         21   -1    0    0  502  501  0.00000000000E+00  0.00000000000E+00  0.61733421332E+03  0.61733421332E+03  0.00000000000E+00 0.  1.
         21   -1    0    0  501  502 -0.00000000000E+00 -0.00000000000E+00 -0.63276097707E+01  0.63276097707E+01  0.00000000000E+00 0.  1.
         25    1    1    2    0    0  0.00000000000E+00  0.00000000000E+00  0.61100660355E+03  0.62366182309E+03  0.12500000000E+03 0.  0.
<mgrwt>
<rscale>  0 0.12500000E+03</rscale>
<asrwt>0</asrwt>
<pdfrwt beam="1">  1       21 0.94974447E-01 0.12500000E+03</pdfrwt>
<pdfrwt beam="2">  1       21 0.97347891E-03 0.12500000E+03</pdfrwt>
<totfact> 0.36043969E+06</totfact>
</mgrwt>
</event>
<event>
 3    1  0.1594457E-001  0.1250000E+03  0.7546771E-02  0.1235069E+00
         21   -1    0    0  502  501  0.00000000000E+00  0.00000000000E+00  0.44753353652E+03  0.44753353652E+03  0.00000000000E+00 0.  1.
         21   -1    0    0  501  502 -0.00000000000E+00 -0.00000000000E+00 -0.87283961564E+01  0.87283961564E+01  0.00000000000E+00 0.  1.
         25    1    1    2    0    0  0.00000000000E+00  0.00000000000E+00  0.43880514036E+03  0.45626193267E+03  0.12500000000E+03 0.  0.
<mgrwt>
<rscale>  0 0.12500000E+03</rscale>
<asrwt>0</asrwt>
<pdfrwt beam="1">  1       21 0.68851295E-01 0.12500000E+03</pdfrwt>
<pdfrwt beam="2">  1       21 0.13428305E-02 0.12500000E+03</pdfrwt>
<totfact> 0.44519931E+06</totfact>
</mgrwt>
</event>
<event>
 3    1  0.1594457E-001  0.1250000E+03  0.7546771E-02  0.1235069E+00
         21   -1    0    0  502  501  0.00000000000E+00  0.00000000000E+00  0.64968437526E+02  0.64968437526E+02  0.00000000000E+00 0.  1.
         21   -1    0    0  501  502 -0.00000000000E+00 -0.00000000000E+00 -0.60125349305E+02  0.60125349305E+02  0.00000000000E+00 0.  1.
         25    1    1    2    0    0  0.00000000000E+00  0.00000000000E+00  0.48430882211E+01  0.12509378683E+03  0.12500000000E+03 0.  0.
<mgrwt>
<rscale>  0 0.12500000E+03</rscale>
<asrwt>0</asrwt>
<pdfrwt beam="1">  1       21 0.99951443E-02 0.12500000E+03</pdfrwt>
<pdfrwt beam="2">  1       21 0.92500537E-02 0.12500000E+03</pdfrwt>
<totfact> 0.74030914E+06</totfact>
</mgrwt>
</event>
<event>
 3    1  0.1594457E-001  0.1250000E+03  0.7546771E-02  0.1235069E+00
         21   -1    0    0  502  501  0.00000000000E+00  0.00000000000E+00  0.24950938233E+03  0.24950938233E+03  0.00000000000E+00 0. -1.
         21   -1    0    0  501  502 -0.00000000000E+00 -0.00000000000E+00 -0.15655723899E+02  0.15655723899E+02  0.00000000000E+00 0. -1.
         25    1    1    2    0    0  0.00000000000E+00  0.00000000000E+00  0.23385365843E+03  0.26516510623E+03  0.12500000000E+03 0.  0.
<mgrwt>
<rscale>  0 0.12500000E+03</rscale>
<asrwt>0</asrwt>
<pdfrwt beam="1">  1       21 0.38386056E-01 0.12500000E+03</pdfrwt>
<pdfrwt beam="2">  1       21 0.24085731E-02 0.12500000E+03</pdfrwt>
<totfact> 0.58479074E+06</totfact>
</mgrwt>
</event>
<event>
 3    1  0.1594457E-001  0.1250000E+03  0.7546771E-02  0.1235069E+00
         21   -1    0    0  502  501  0.00000000000E+00  0.00000000000E+00  0.55747276133E+01  0.55747276133E+01  0.00000000000E+00 0.  1.
         21   -1    0    0  501  502 -0.00000000000E+00 -0.00000000000E+00 -0.70070688130E+03  0.70070688130E+03  0.00000000000E+00 0.  1.
         25    1    1    2    0    0  0.00000000000E+00  0.00000000000E+00 -0.69513215369E+03  0.70628160891E+03  0.12500000000E+03 0.  0.
<mgrwt>
<rscale>  0 0.12500000E+03</rscale>
<asrwt>0</asrwt>
<pdfrwt beam="1">  1       21 0.85765077E-03 0.12500000E+03</pdfrwt>
<pdfrwt beam="2">  1       21 0.10780101E+00 0.12500000E+03</pdfrwt>
<totfact> 0.32669377E+06</totfact>
</mgrwt>
</event>
<event>
 3    1  0.1594457E-001  0.1250000E+03  0.7546771E-02  0.1235069E+00
         21   -1    0    0  502  501  0.00000000000E+00  0.00000000000E+00  0.17826820206E+02  0.17826820206E+02  0.00000000000E+00 0.  1.
         21   -1    0    0  501  502 -0.00000000000E+00 -0.00000000000E+00 -0.21912208430E+03  0.21912208430E+03  0.00000000000E+00 0.  1.
         25    1    1    2    0    0  0.00000000000E+00  0.00000000000E+00 -0.20129526409E+03  0.23694890451E+03  0.12500000000E+03 0.  0.
<mgrwt>
<rscale>  0 0.12500000E+03</rscale>
<asrwt>0</asrwt>
<pdfrwt beam="1">  1       21 0.27425878E-02 0.12500000E+03</pdfrwt>
<pdfrwt beam="2">  1       21 0.33711089E-01 0.12500000E+03</pdfrwt>
<totfact> 0.61129166E+06</totfact>
</mgrwt>
</event>
<event>
 3    1  0.1594457E-001  0.1250000E+03  0.7546771E-02  0.1235069E+00
         21   -1    0    0  502  501  0.00000000000E+00  0.00000000000E+00  0.69187990087E+03  0.69187990087E+03  0.00000000000E+00 0.  1.
         21   -1    0    0  501  502 -0.00000000000E+00 -0.00000000000E+00 -0.56458498001E+01  0.56458498001E+01  0.00000000000E+00 0.  1.
         25    1    1    2    0    0  0.00000000000E+00  0.00000000000E+00  0.68623405107E+03  0.69752575067E+03  0.12500000000E+03 0.  0.
<mgrwt>
<rscale>  0 0.12500000E+03</rscale>
<asrwt>0</asrwt>
<pdfrwt beam="1">  1       21 0.10644299E+00 0.12500000E+03</pdfrwt>
<pdfrwt beam="2">  1       21 0.86859283E-03 0.12500000E+03</pdfrwt>
<totfact> 0.33005765E+06</totfact>
</mgrwt>
</event>
<event>
 3    1  0.1594457E-001  0.1250000E+03  0.7546771E-02  0.1235069E+00
         21   -1    0    0  502  501  0.00000000000E+00  0.00000000000E+00  0.37408094915E+01  0.37408094915E+01  0.00000000000E+00 0.  1.
         21   -1    0    0  501  502 -0.00000000000E+00 -0.00000000000E+00 -0.10442258578E+04  0.10442258578E+04  0.00000000000E+00 0.  1.
         25    1    1    2    0    0  0.00000000000E+00  0.00000000000E+00 -0.10404850483E+04  0.10479666673E+04  0.12500000000E+03 0.  0.
<mgrwt>
<rscale>  0 0.12500000E+03</rscale>
<asrwt>0</asrwt>
<pdfrwt beam="1">  1       21 0.57551003E-03 0.12500000E+03</pdfrwt>
<pdfrwt beam="2">  1       21 0.16064989E+00 0.12500000E+03</pdfrwt>
<totfact> 0.22447284E+06</totfact>
</mgrwt>
</event>
<event>
 3    1  0.1594457E-001  0.1250000E+03  0.7546771E-02  0.1235069E+00
         21   -1    0    0  502  501  0.00000000000E+00  0.00000000000E+00  0.13633674679E+03  0.13633674679E+03  0.00000000000E+00 0.  1.
         21   -1    0    0  501  502 -0.00000000000E+00 -0.00000000000E+00 -0.28651483125E+02  0.28651483125E+02  0.00000000000E+00 0.  1.
         25    1    1    2    0    0  0.00000000000E+00  0.00000000000E+00  0.10768526367E+03  0.16498822992E+03  0.12500000000E+03 0.  0.
<mgrwt>
<rscale>  0 0.12500000E+03</rscale>
<asrwt>0</asrwt>
<pdfrwt beam="1">  1       21 0.20974884E-01 0.12500000E+03</pdfrwt>
<pdfrwt beam="2">  1       21 0.44079205E-02 0.12500000E+03</pdfrwt>
<totfact> 0.68915067E+06</totfact>
</mgrwt>
</event>
<event>
 3    1  0.1594457E-001  0.1250000E+03  0.7546771E-02  0.1235069E+00
         21   -1    0    0  502  501  0.00000000000E+00  0.00000000000E+00  0.14520581257E+04  0.14520581257E+04  0.00000000000E+00 0. -1.
         21   -1    0    0  501  502 -0.00000000000E+00 -0.00000000000E+00 -0.26901471305E+01  0.26901471305E+01  0.00000000000E+00 0. -1.
         25    1    1    2    0    0  0.00000000000E+00  0.00000000000E+00  0.14493679785E+04  0.14547482728E+04  0.12500000000E+03 0.  0.
<mgrwt>
<rscale>  0 0.12500000E+03</rscale>
<asrwt>0</asrwt>
<pdfrwt beam="1">  1       21 0.22339293E+00 0.12500000E+03</pdfrwt>
<pdfrwt beam="2">  1       21 0.41386995E-03 0.12500000E+03</pdfrwt>
<totfact> 0.14677299E+06</totfact>
</mgrwt>
</event>
<event>
 3    1  0.1594457E-001  0.1250000E+03  0.7546771E-02  0.1235069E+00
         21   -1    0    0  502  501  0.00000000000E+00  0.00000000000E+00  0.90352181835E+02  0.90352181835E+02  0.00000000000E+00 0. -1.
         21   -1    0    0  501  502 -0.00000000000E+00 -0.00000000000E+00 -0.43233599019E+02  0.43233599019E+02  0.00000000000E+00 0. -1.
         25    1    1    2    0    0  0.00000000000E+00  0.00000000000E+00  0.47118582816E+02  0.13358578085E+03  0.12500000000E+03 0.  0.
<mgrwt>
<rscale>  0 0.12500000E+03</rscale>
<asrwt>0</asrwt>
<pdfrwt beam="1">  1       21 0.13900336E-01 0.12500000E+03</pdfrwt>
<pdfrwt beam="2">  1       21 0.66513230E-02 0.12500000E+03</pdfrwt>
<totfact> 0.72884276E+06</totfact>
</mgrwt>
</event>
<event>
 3    1  0.1594457E-001  0.1250000E+03  0.7546771E-02  0.1235069E+00
         21   -1    0    0  502  501  0.00000000000E+00  0.00000000000E+00  0.24016480102E+02  0.24016480102E+02  0.00000000000E+00 0.  1.
         21   -1    0    0  501  502 -0.00000000000E+00 -0.00000000000E+00 -0.16264873051E+03  0.16264873051E+03  0.00000000000E+00 0.  1.
         25    1    1    2    0    0  0.00000000000E+00  0.00000000000E+00 -0.13863225041E+03  0.18666521062E+03  0.12500000000E+03 0.  0.
<mgrwt>
<rscale>  0 0.12500000E+03</rscale>
<asrwt>0</asrwt>
<pdfrwt beam="1">  1       21 0.36948430E-02 0.12500000E+03</pdfrwt>
<pdfrwt beam="2">  1       21 0.25022882E-01 0.12500000E+03</pdfrwt>
<totfact> 0.66395027E+06</totfact>
</mgrwt>
</event>
<event>
 3    1  0.1594457E-001  0.1250000E+03  0.7546771E-02  0.1235069E+00
         21   -1    0    0  502  501  0.00000000000E+00  0.00000000000E+00  0.62632825973E+02  0.62632825973E+02  0.00000000000E+00 0.  1.
         21   -1    0    0  501  502 -0.00000000000E+00 -0.00000000000E+00 -0.62367455712E+02  0.62367455712E+02  0.00000000000E+00 0.  1.
         25    1    1    2    0    0  0.00000000000E+00  0.00000000000E+00  0.26537026073E+00  0.12500028169E+03  0.12500000000E+03 0.  0.
<mgrwt>
<rscale>  0 0.12500000E+03</rscale>
<asrwt>0</asrwt>
<pdfrwt beam="1">  1       21 0.96358194E-02 0.12500000E+03</pdfrwt>
<pdfrwt beam="2">  1       21 0.95949932E-02 0.12500000E+03</pdfrwt>
<totfact> 0.74043543E+06</totfact>
</mgrwt>
</event>
<event>
 3    1  0.1594457E-001  0.1250000E+03  0.7546771E-02  0.1235069E+00
         21   -1    0    0  502  501  0.00000000000E+00  0.00000000000E+00  0.15072316297E+01  0.15072316297E+01  0.00000000000E+00 0.  1.
         21   -1    0    0  501  502 -0.00000000000E+00 -0.00000000000E+00 -0.25916719920E+04  0.25916719920E+04  0.00000000000E+00 0.  1.
         25    1    1    2    0    0  0.00000000000E+00  0.00000000000E+00 -0.25901647603E+04  0.25931792236E+04  0.12500000000E+03 0.  0.
<mgrwt>
<rscale>  0 0.12500000E+03</rscale>
<asrwt>0</asrwt>
<pdfrwt beam="1">  1       21 0.23188177E-03 0.12500000E+03</pdfrwt>
<pdfrwt beam="2">  1       21 0.39871881E+00 0.12500000E+03</pdfrwt>
<totfact> 0.34834122E+05</totfact>
</mgrwt>
</event>
<event>
 3    1  0.1594457E-001  0.1250000E+03  0.7546771E-02  0.1235069E+00
         21   -1    0    0  502  501  0.00000000000E+00  0.00000000000E+00  0.20173177735E+03  0.20173177735E+03  0.00000000000E+00 0.  1.
         21   -1    0    0  501  502 -0.00000000000E+00 -0.00000000000E+00 -0.19363582928E+02  0.19363582928E+02  0.00000000000E+00 0.  1.
         25    1    1    2    0    0  0.00000000000E+00  0.00000000000E+00  0.18236819443E+03  0.22109536028E+03  0.12500000000E+03 0.  0.
<mgrwt>
<rscale>  0 0.12500000E+03</rscale>
<asrwt>0</asrwt>
<pdfrwt beam="1">  1       21 0.31035657E-01 0.12500000E+03</pdfrwt>
<pdfrwt beam="2">  1       21 0.29790129E-02 0.12500000E+03</pdfrwt>
<totfact> 0.62710751E+06</totfact>
</mgrwt>
</event>
<event>
 3    1  0.1594457E-001  0.1250000E+03  0.7546771E-02  0.1235069E+00
         21   -1    0    0  502  501  0.00000000000E+00  0.00000000000E+00  0.36750503069E+01  0.36750503069E+01  0.00000000000E+00 0. -1.
         21   -1    0    0  501  502 -0.00000000000E+00 -0.00000000000E+00 -0.10629106199E+04  0.10629106199E+04  0.00000000000E+00 0. -1.
         25    1    1    2    0    0  0.00000000000E+00  0.00000000000E+00 -0.10592355696E+04  0.10665856702E+04  0.12500000000E+03 0.  0.
<mgrwt>
<rscale>  0 0.12500000E+03</rscale>
<asrwt>0</asrwt>
<pdfrwt beam="1">  1       21 0.56539252E-03 0.12500000E+03</pdfrwt>
<pdfrwt beam="2">  1       21 0.16352466E+00 0.12500000E+03</pdfrwt>
<totfact> 0.22010265E+06</totfact>
</mgrwt>
</event>
<event>
 3    1  0.1594457E-001  0.1250000E+03  0.7546771E-02  0.1235069E+00
         21   -1    0    0  502  501  0.00000000000E+00  0.00000000000E+00  0.11764100552E+03  0.11764100552E+03  0.00000000000E+00 0.  1.
         21   -1    0    0  501  502 -0.00000000000E+00 -0.00000000000E+00 -0.33204833492E+02  0.33204833492E+02  0.00000000000E+00 0.  1.
         25    1    1    2    0    0  0.00000000000E+00  0.00000000000E+00  0.84436172024E+02  0.15084583901E+03  0.12500000000E+03 0.  0.
<mgrwt>
<rscale>  0 0.12500000E+03</rscale>
<asrwt>0</asrwt>
<pdfrwt beam="1">  1       21 0.18098616E-01 0.12500000E+03</pdfrwt>
<pdfrwt beam="2">  1       21 0.51084360E-02 0.12500000E+03</pdfrwt>
<totfact> 0.70653110E+06</totfact>
</mgrwt>
</event>
<event>
 3    1  0.1594457E-001  0.1250000E+03  0.7546771E-02  0.1235069E+00
         21   -1    0    0  502  501  0.00000000000E+00  0.00000000000E+00  0.15158159140E+02  0.15158159140E+02  0.00000000000E+00 0.  1.
         21   -1    0    0  501  502 -0.00000000000E+00 -0.00000000000E+00 -0.25769949794E+03  0.25769949794E+03  0.00000000000E+00 0.  1.
         25    1    1    2    0    0  0.00000000000E+00  0.00000000000E+00 -0.24254133880E+03  0.27285765708E+03  0.12500000000E+03 0.  0.
<mgrwt>
<rscale>  0 0.12500000E+03</rscale>
<asrwt>0</asrwt>
<pdfrwt beam="1">  1       21 0.23320246E-02 0.12500000E+03</pdfrwt>
<pdfrwt beam="2">  1       21 0.39646075E-01 0.12500000E+03</pdfrwt>
<totfact> 0.57790029E+06</totfact>
</mgrwt>
</event>
<event>
 3    1  0.1594457E-001  0.1250000E+03  0.7546771E-02  0.1235069E+00
         21   -1    0    0  502  501  0.00000000000E+00  0.00000000000E+00  0.21248689490E+03  0.21248689490E+03  0.00000000000E+00 0.  1.
         21   -1    0    0  501  502 -0.00000000000E+00 -0.00000000000E+00 -0.18383486670E+02  0.18383486670E+02  0.00000000000E+00 0.  1.
         25    1    1    2    0    0  0.00000000000E+00  0.00000000000E+00  0.19410340823E+03  0.23087038157E+03  0.12500000000E+03 0.  0.
<mgrwt>
<rscale>  0 0.12500000E+03</rscale>
<asrwt>0</asrwt>
<pdfrwt beam="1">  1       21 0.32690290E-01 0.12500000E+03</pdfrwt>
<pdfrwt beam="2">  1       21 0.28282289E-02 0.12500000E+03</pdfrwt>
<totfact> 0.61727469E+06</totfact>
</mgrwt>
</event>
<event>
 3    1  0.1594457E-001  0.1250000E+03  0.7546771E-02  0.1235069E+00
         21   -1    0    0  502  501  0.00000000000E+00  0.00000000000E+00  0.32689286638E+02  0.32689286638E+02  0.00000000000E+00 0.  1.
         21   -1    0    0  501  502 -0.00000000000E+00 -0.00000000000E+00 -0.11949633662E+03  0.11949633662E+03  0.00000000000E+00 0.  1.
         25    1    1    2    0    0  0.00000000000E+00  0.00000000000E+00 -0.86807049981E+02  0.15218562326E+03  0.12500000000E+03 0.  0.
<mgrwt>
<rscale>  0 0.12500000E+03</rscale>
<asrwt>0</asrwt>
<pdfrwt beam="1">  1       21 0.50291211E-02 0.12500000E+03</pdfrwt>
<pdfrwt beam="2">  1       21 0.18384051E-01 0.12500000E+03</pdfrwt>
<totfact> 0.70485715E+06</totfact>
</mgrwt>
</event>
<event>
 3    1  0.1594457E-001  0.1250000E+03  0.7546771E-02  0.1235069E+00
         21   -1    0    0  502  501  0.00000000000E+00  0.00000000000E+00  0.12619507895E+04  0.12619507895E+04  0.00000000000E+00 0. -1.
         21   -1    0    0  501  502 -0.00000000000E+00 -0.00000000000E+00 -0.30954059639E+01  0.30954059639E+01  0.00000000000E+00 0. -1.
         25    1    1    2    0    0  0.00000000000E+00  0.00000000000E+00  0.12588553836E+04  0.12650461955E+04  0.12500000000E+03 0.  0.
<mgrwt>
<rscale>  0 0.12500000E+03</rscale>
<asrwt>0</asrwt>
<pdfrwt beam="1">  1       21 0.19414587E+00 0.12500000E+03</pdfrwt>
<pdfrwt beam="2">  1       21 0.47621731E-03 0.12500000E+03</pdfrwt>
<totfact> 0.17891895E+06</totfact>
</mgrwt>
</event>
<event>
 3    1  0.1594457E-001  0.1250000E+03  0.7546771E-02  0.1235069E+00
         21   -1    0    0  502  501  0.00000000000E+00  0.00000000000E+00  0.25904557637E+03  0.25904557637E+03  0.00000000000E+00 0.  1.
         21   -1    0    0  501  502 -0.00000000000E+00 -0.00000000000E+00 -0.15079392803E+02  0.15079392803E+02  0.00000000000E+00 0.  1.
         25    1    1    2    0    0  0.00000000000E+00  0.00000000000E+00  0.24396618357E+03  0.27412496918E+03  0.12500000000E+03 0.  0.
<mgrwt>
<rscale>  0 0.12500000E+03</rscale>
<asrwt>0</asrwt>
<pdfrwt beam="1">  1       21 0.39853162E-01 0.12500000E+03</pdfrwt>
<pdfrwt beam="2">  1       21 0.23199068E-02 0.12500000E+03</pdfrwt>
<totfact> 0.57677456E+06</totfact>
</mgrwt>
</event>
<event>
 3    1  0.1594457E-001  0.1250000E+03  0.7546771E-02  0.1235069E+00
         21   -1    0    0  502  501  0.00000000000E+00  0.00000000000E+00  0.23161646562E+02  0.23161646562E+02  0.00000000000E+00 0. -1.
         21   -1    0    0  501  502 -0.00000000000E+00 -0.00000000000E+00 -0.16865165391E+03  0.16865165391E+03  0.00000000000E+00 0. -1.
         25    1    1    2    0    0  0.00000000000E+00  0.00000000000E+00 -0.14549000735E+03  0.19181330047E+03  0.12500000000E+03 0.  0.
<mgrwt>
<rscale>  0 0.12500000E+03</rscale>
<asrwt>0</asrwt>
<pdfrwt beam="1">  1       21 0.35633302E-02 0.12500000E+03</pdfrwt>
<pdfrwt beam="2">  1       21 0.25946409E-01 0.12500000E+03</pdfrwt>
<totfact> 0.65821497E+06</totfact>
</mgrwt>
</event>
<event>
 3    1  0.1594457E-001  0.1250000E+03  0.7546771E-02  0.1235069E+00
         21   -1    0    0  502  501  0.00000000000E+00  0.00000000000E+00  0.70686214784E+02  0.70686214784E+02  0.00000000000E+00 0. -1.
         21   -1    0    0  501  502 -0.00000000000E+00 -0.00000000000E+00 -0.55261835874E+02  0.55261835874E+02  0.00000000000E+00 0. -1.
         25    1    1    2    0    0  0.00000000000E+00  0.00000000000E+00  0.15424378910E+02  0.12594805066E+03  0.12500000000E+03 0.  0.
<mgrwt>
<rscale>  0 0.12500000E+03</rscale>
<asrwt>0</asrwt>
<pdfrwt beam="1">  1       21 0.10874802E-01 0.12500000E+03</pdfrwt>
<pdfrwt beam="2">  1       21 0.85018209E-02 0.12500000E+03</pdfrwt>
<totfact> 0.73913205E+06</totfact>
</mgrwt>
</event>
<event>
 3    1  0.1594457E-001  0.1250000E+03  0.7546771E-02  0.1235069E+00
         21   -1    0    0  502  501  0.00000000000E+00  0.00000000000E+00  0.60152814176E+01  0.60152814176E+01  0.00000000000E+00 0. -1.
         21   -1    0    0  501  502 -0.00000000000E+00 -0.00000000000E+00 -0.64938773913E+03  0.64938773913E+03  0.00000000000E+00 0. -1.
         25    1    1    2    0    0  0.00000000000E+00  0.00000000000E+00 -0.64337245771E+03  0.65540302055E+03  0.12500000000E+03 0.  0.
<mgrwt>
<rscale>  0 0.12500000E+03</rscale>
<asrwt>0</asrwt>
<pdfrwt beam="1">  1       21 0.92542736E-03 0.12500000E+03</pdfrwt>
<pdfrwt beam="2">  1       21 0.99905866E-01 0.12500000E+03</pdfrwt>
<totfact> 0.34700804E+06</totfact>
</mgrwt>
</event>
<event>
 3    1  0.1594457E-001  0.1250000E+03  0.7546771E-02  0.1235069E+00
         21   -1    0    0  502  501  0.00000000000E+00  0.00000000000E+00  0.54095887931E+03  0.54095887931E+03  0.00000000000E+00 0.  1.
         21   -1    0    0  501  502 -0.00000000000E+00 -0.00000000000E+00 -0.72209739952E+01  0.72209739952E+01  0.00000000000E+00 0.  1.
         25    1    1    2    0    0  0.00000000000E+00  0.00000000000E+00  0.53373790532E+03  0.54817985331E+03  0.12500000000E+03 0.  0.
<mgrwt>
<rscale>  0 0.12500000E+03</rscale>
<asrwt>0</asrwt>
<pdfrwt beam="1">  1       21 0.83224411E-01 0.12500000E+03</pdfrwt>
<pdfrwt beam="2">  1       21 0.11109195E-02 0.12500000E+03</pdfrwt>
<totfact> 0.39546170E+06</totfact>
</mgrwt>
</event>
<event>
 3    1  0.1594457E-001  0.1250000E+03  0.7546771E-02  0.1235069E+00
         21   -1    0    0  502  501  0.00000000000E+00  0.00000000000E+00  0.78109876702E+01  0.78109876702E+01  0.00000000000E+00 0. -1.
         21   -1    0    0  501  502 -0.00000000000E+00 -0.00000000000E+00 -0.50009680785E+03  0.50009680785E+03  0.00000000000E+00 0. -1.
         25    1    1    2    0    0  0.00000000000E+00  0.00000000000E+00 -0.49228582018E+03  0.50790779552E+03  0.12500000000E+03 0.  0.
<mgrwt>
<rscale>  0 0.12500000E+03</rscale>
<asrwt>0</asrwt>
<pdfrwt beam="1">  1       21 0.12016900E-02 0.12500000E+03</pdfrwt>
<pdfrwt beam="2">  1       21 0.76937994E-01 0.12500000E+03</pdfrwt>
<totfact> 0.41618426E+06</totfact>
</mgrwt>
</event>
<event>
 3    1  0.1594457E-001  0.1250000E+03  0.7546771E-02  0.1235069E+00
         21   -1    0    0  502  501  0.00000000000E+00  0.00000000000E+00  0.29989176032E+02  0.29989176032E+02  0.00000000000E+00 0. -1.
         21   -1    0    0  501  502 -0.00000000000E+00 -0.00000000000E+00 -0.13025532932E+03  0.13025532932E+03  0.00000000000E+00 0. -1.
         25    1    1    2    0    0  0.00000000000E+00  0.00000000000E+00 -0.10026615328E+03  0.16024450535E+03  0.12500000000E+03 0.  0.
<mgrwt>
<rscale>  0 0.12500000E+03</rscale>
<asrwt>0</asrwt>
<pdfrwt beam="1">  1       21 0.46137193E-02 0.12500000E+03</pdfrwt>
<pdfrwt beam="2">  1       21 0.20039282E-01 0.12500000E+03</pdfrwt>
<totfact> 0.69489632E+06</totfact>
</mgrwt>
</event>
<event>
 3    1  0.1594457E-001  0.1250000E+03  0.7546771E-02  0.1235069E+00
         21   -1    0    0  502  501  0.00000000000E+00  0.00000000000E+00  0.66699125850E+01  0.66699125850E+01  0.00000000000E+00 0.  1.
         21   -1    0    0  501  502 -0.00000000000E+00 -0.00000000000E+00 -0.58565235305E+03  0.58565235305E+03  0.00000000000E+00 0.  1.
         25    1    1    2    0    0  0.00000000000E+00  0.00000000000E+00 -0.57898244046E+03  0.59232226563E+03  0.12500000000E+03 0.  0.
<mgrwt>
<rscale>  0 0.12500000E+03</rscale>
<asrwt>0</asrwt>
<pdfrwt beam="1">  1       21 0.10261403E-02 0.12500000E+03</pdfrwt>
<pdfrwt beam="2">  1       21 0.90100373E-01 0.12500000E+03</pdfrwt>
<totfact> 0.37442161E+06</totfact>
</mgrwt>
</event>
<event>
 3    1  0.1594457E-001  0.1250000E+03  0.7546771E-02  0.1235069E+00
         21   -1    0    0  502  501  0.00000000000E+00  0.00000000000E+00  0.14768035030E+02  0.14768035030E+02  0.00000000000E+00 0.  1.
         21   -1    0    0  501  502 -0.00000000000E+00 -0.00000000000E+00 -0.26450709197E+03  0.26450709197E+03  0.00000000000E+00 0.  1.
         25    1    1    2    0    0  0.00000000000E+00  0.00000000000E+00 -0.24973905694E+03  0.27927512700E+03  0.12500000000E+03 0.  0.
<mgrwt>
<rscale>  0 0.12500000E+03</rscale>
<asrwt>0</asrwt>
<pdfrwt beam="1">  1       21 0.22720055E-02 0.12500000E+03</pdfrwt>
<pdfrwt beam="2">  1       21 0.40693398E-01 0.12500000E+03</pdfrwt>
<totfact> 0.57223704E+06</totfact>
</mgrwt>
</event>
<event>
 3    1  0.1594457E-001  0.1250000E+03  0.7546771E-02  0.1235069E+00
         21   -1    0    0  502  501  0.00000000000E+00  0.00000000000E+00  0.52133519941E+01  0.52133519941E+01  0.00000000000E+00 0.  1.
         21   -1    0    0  501  502 -0.00000000000E+00 -0.00000000000E+00 -0.74927800855E+03  0.74927800855E+03  0.00000000000E+00 0.  1.
         25    1    1    2    0    0  0.00000000000E+00  0.00000000000E+00 -0.74406465656E+03  0.75449136054E+03  0.12500000000E+03 0.  0.
<mgrwt>
<rscale>  0 0.12500000E+03</rscale>
<asrwt>0</asrwt>
<pdfrwt beam="1">  1       21 0.80205441E-03 0.12500000E+03</pdfrwt>
<pdfrwt beam="2">  1       21 0.11527350E+00 0.12500000E+03</pdfrwt>
<totfact> 0.30911527E+06</totfact>
</mgrwt>
</event>
<event>
 3    1  0.1594457E-001  0.1250000E+03  0.7546771E-02  0.1235069E+00
         21   -1    0    0  502  501  0.00000000000E+00  0.00000000000E+00  0.65133644285E+02  0.65133644285E+02  0.00000000000E+00 0.  1.
         21   -1    0    0  501  502 -0.00000000000E+00 -0.00000000000E+00 -0.59972845722E+02  0.59972845722E+02  0.00000000000E+00 0.  1.
         25    1    1    2    0    0  0.00000000000E+00  0.00000000000E+00  0.51607985636E+01  0.12510649001E+03  0.12500000000E+03 0.  0.
<mgrwt>
<rscale>  0 0.12500000E+03</rscale>
<asrwt>0</asrwt>
<pdfrwt beam="1">  1       21 0.10020561E-01 0.12500000E+03</pdfrwt>
<pdfrwt beam="2">  1       21 0.92265917E-02 0.12500000E+03</pdfrwt>
<totfact> 0.74029199E+06</totfact>
</mgrwt>
</event>
<event>
 3    1  0.1594457E-001  0.1250000E+03  0.7546771E-02  0.1235069E+00
         21   -1    0    0  502  501  0.00000000000E+00  0.00000000000E+00  0.23325543514E+03  0.23325543514E+03  0.00000000000E+00 0. -1.
         21   -1    0    0  501  502 -0.00000000000E+00 -0.00000000000E+00 -0.16746662292E+02  0.16746662292E+02  0.00000000000E+00 0. -1.
         25    1    1    2    0    0  0.00000000000E+00  0.00000000000E+00  0.21650877285E+03  0.25000209743E+03  0.12500000000E+03 0.  0.
<mgrwt>
<rscale>  0 0.12500000E+03</rscale>
<asrwt>0</asrwt>
<pdfrwt beam="1">  1       21 0.35885449E-01 0.12500000E+03</pdfrwt>
<pdfrwt beam="2">  1       21 0.25764097E-02 0.12500000E+03</pdfrwt>
<totfact> 0.59877993E+06</totfact>
</mgrwt>
</event>
<event>
 3    1  0.1594457E-001  0.1250000E+03  0.7546771E-02  0.1235069E+00
         21   -1    0    0  502  501  0.00000000000E+00  0.00000000000E+00  0.78630916841E+01  0.78630916841E+01  0.00000000000E+00 0. -1.
         21   -1    0    0  501  502 -0.00000000000E+00 -0.00000000000E+00 -0.49678296489E+03  0.49678296489E+03  0.00000000000E+00 0. -1.
         25    1    1    2    0    0  0.00000000000E+00  0.00000000000E+00 -0.48891987320E+03  0.50464605657E+03  0.12500000000E+03 0.  0.
<mgrwt>
<rscale>  0 0.12500000E+03</rscale>
<asrwt>0</asrwt>
<pdfrwt beam="1">  1       21 0.12097060E-02 0.12500000E+03</pdfrwt>
<pdfrwt beam="2">  1       21 0.76428172E-01 0.12500000E+03</pdfrwt>
<totfact> 0.41793212E+06</totfact>
</mgrwt>
</event>
<event>
 3    1  0.1594457E-001  0.1250000E+03  0.7546771E-02  0.1235069E+00
         21   -1    0    0  502  501  0.00000000000E+00  0.00000000000E+00  0.25649387664E+04  0.25649387664E+04  0.00000000000E+00 0. -1.
         21   -1    0    0  501  502 -0.00000000000E+00 -0.00000000000E+00 -0.15229408402E+01  0.15229408402E+01  0.00000000000E+00 0. -1.
         25    1    1    2    0    0  0.00000000000E+00  0.00000000000E+00  0.25634158255E+04  0.25664617072E+04  0.12500000000E+03 0.  0.
<mgrwt>
<rscale>  0 0.12500000E+03</rscale>
<asrwt>0</asrwt>
<pdfrwt beam="1">  1       21 0.39460251E+00 0.12500000E+03</pdfrwt>
<pdfrwt beam="2">  1       21 0.23430064E-03 0.12500000E+03</pdfrwt>
<totfact> 0.36323170E+05</totfact>
</mgrwt>
</event>
<event>
 3    1  0.1594457E-001  0.1250000E+03  0.7546771E-02  0.1235069E+00
         21   -1    0    0  502  501  0.00000000000E+00  0.00000000000E+00  0.58518616456E+03  0.58518616456E+03  0.00000000000E+00 0.  1.
         21   -1    0    0  501  502 -0.00000000000E+00 -0.00000000000E+00 -0.66752261700E+01  0.66752261700E+01  0.00000000000E+00 0.  1.
         25    1    1    2    0    0  0.00000000000E+00  0.00000000000E+00  0.57851093839E+03  0.59186139073E+03  0.12500000000E+03 0.  0.
<mgrwt>
<rscale>  0 0.12500000E+03</rscale>
<asrwt>0</asrwt>
<pdfrwt beam="1">  1       21 0.90028600E-01 0.12500000E+03</pdfrwt>
<pdfrwt beam="2">  1       21 0.10269583E-02 0.12500000E+03</pdfrwt>
<totfact> 0.37463306E+06</totfact>
</mgrwt>
</event>
<event>
 3    1  0.1594457E-001  0.1250000E+03  0.7546771E-02  0.1235069E+00
         21   -1    0    0  502  501  0.00000000000E+00  0.00000000000E+00  0.49670711650E+02  0.49670711650E+02  0.00000000000E+00 0. -1.
         21   -1    0    0  501  502 -0.00000000000E+00 -0.00000000000E+00 -0.78642923974E+02  0.78642923974E+02  0.00000000000E+00 0. -1.
         25    1    1    2    0    0  0.00000000000E+00  0.00000000000E+00 -0.28972212324E+02  0.12831363562E+03  0.12500000000E+03 0.  0.
<mgrwt>
<rscale>  0 0.12500000E+03</rscale>
<asrwt>0</asrwt>
<pdfrwt beam="1">  1       21 0.76416480E-02 0.12500000E+03</pdfrwt>
<pdfrwt beam="2">  1       21 0.12098911E-01 0.12500000E+03</pdfrwt>
<totfact> 0.73591234E+06</totfact>
</mgrwt>
</event>
<event>
 3    1  0.1594457E-001  0.1250000E+03  0.7546771E-02  0.1235069E+00
         21   -1    0    0  502  501  0.00000000000E+00  0.00000000000E+00  0.64143103313E+02  0.64143103313E+02  0.00000000000E+00 0. -1.
         21   -1    0    0  501  502 -0.00000000000E+00 -0.00000000000E+00 -0.60898986769E+02  0.60898986769E+02  0.00000000000E+00 0. -1.
         25    1    1    2    0    0  0.00000000000E+00  0.00000000000E+00  0.32441165445E+01  0.12504209008E+03  0.12500000000E+03 0.  0.
<mgrwt>
<rscale>  0 0.12500000E+03</rscale>
<asrwt>0</asrwt>
<pdfrwt beam="1">  1       21 0.98681697E-02 0.12500000E+03</pdfrwt>
<pdfrwt beam="2">  1       21 0.93690749E-02 0.12500000E+03</pdfrwt>
<totfact> 0.74037896E+06</totfact>
</mgrwt>
</event>
<event>
 3    1  0.1594457E-001  0.1250000E+03  0.7546771E-02  0.1235069E+00
         21   -1    0    0  502  501  0.00000000000E+00  0.00000000000E+00  0.16548970398E+03  0.16548970398E+03  0.00000000000E+00 0.  1.
         21   -1    0    0  501  502 -0.00000000000E+00 -0.00000000000E+00 -0.23604187488E+02  0.23604187488E+02  0.00000000000E+00 0.  1.
         25    1    1    2    0    0  0.00000000000E+00  0.00000000000E+00  0.14188551649E+03  0.18909389147E+03  0.12500000000E+03 0.  0.
<mgrwt>
<rscale>  0 0.12500000E+03</rscale>
<asrwt>0</asrwt>
<pdfrwt beam="1">  1       21 0.25459954E-01 0.12500000E+03</pdfrwt>
<pdfrwt beam="2">  1       21 0.36314136E-02 0.12500000E+03</pdfrwt>
<totfact> 0.66123311E+06</totfact>
</mgrwt>
</event>
<event>
 3    1  0.1594457E-001  0.1250000E+03  0.7546771E-02  0.1235069E+00
         21   -1    0    0  502  501  0.00000000000E+00  0.00000000000E+00  0.28838051892E+03  0.28838051892E+03  0.00000000000E+00 0. -1.
         21   -1    0    0  501  502 -0.00000000000E+00 -0.00000000000E+00 -0.13545471153E+02  0.13545471153E+02  0.00000000000E+00 0. -1.
         25    1    1    2    0    0  0.00000000000E+00  0.00000000000E+00  0.27483504776E+03  0.30192599007E+03  0.12500000000E+03 0.  0.
<mgrwt>
<rscale>  0 0.12500000E+03</rscale>
<asrwt>0</asrwt>
<pdfrwt beam="1">  1       21 0.44366229E-01 0.12500000E+03</pdfrwt>
<pdfrwt beam="2">  1       21 0.20839189E-02 0.12500000E+03</pdfrwt>
<totfact> 0.55296497E+06</totfact>
</mgrwt>
</event>
<event>
 3    1  0.1594457E-001  0.1250000E+03  0.7546771E-02  0.1235069E+00
         21   -1    0    0  502  501  0.00000000000E+00  0.00000000000E+00  0.11604800575E+03  0.11604800575E+03  0.00000000000E+00 0. -1.
         21   -1    0    0  501  502 -0.00000000000E+00 -0.00000000000E+00 -0.33660638756E+02  0.33660638756E+02  0.00000000000E+00 0. -1.
         25    1    1    2    0    0  0.00000000000E+00  0.00000000000E+00  0.82387366997E+02  0.14970864451E+03  0.12500000000E+03 0.  0.
<mgrwt>
<rscale>  0 0.12500000E+03</rscale>
<asrwt>0</asrwt>
<pdfrwt beam="1">  1       21 0.17853539E-01 0.12500000E+03</pdfrwt>
<pdfrwt beam="2">  1       21 0.51785599E-02 0.12500000E+03</pdfrwt>
<totfact> 0.70795820E+06</totfact>
</mgrwt>
</event>
<event>
 3    1  0.1594457E-001  0.1250000E+03  0.7546771E-02  0.1235069E+00
         21   -1    0    0  502  501  0.00000000000E+00  0.00000000000E+00  0.12577974205E+04  0.12577974205E+04  0.00000000000E+00 0.  1.
         21   -1    0    0  501  502 -0.00000000000E+00 -0.00000000000E+00 -0.31056272944E+01  0.31056272944E+01  0.00000000000E+00 0.  1.
         25    1    1    2    0    0  0.00000000000E+00  0.00000000000E+00  0.12546917932E+04  0.12609030478E+04  0.12500000000E+03 0.  0.
<mgrwt>
<rscale>  0 0.12500000E+03</rscale>
<asrwt>0</asrwt>
<pdfrwt beam="1">  1       21 0.19350689E+00 0.12500000E+03</pdfrwt>
<pdfrwt beam="2">  1       21 0.47778982E-03 0.12500000E+03</pdfrwt>
<totfact> 0.17969299E+06</totfact>
</mgrwt>
</event>
<event>
 3    1  0.1594457E-001  0.1250000E+03  0.7546771E-02  0.1235069E+00
         21   -1    0    0  502  501  0.00000000000E+00  0.00000000000E+00  0.19461583398E+03  0.19461583398E+03  0.00000000000E+00 0. -1.
         21   -1    0    0  501  502 -0.00000000000E+00 -0.00000000000E+00 -0.20071593971E+02  0.20071593971E+02  0.00000000000E+00 0. -1.
         25    1    1    2    0    0  0.00000000000E+00  0.00000000000E+00  0.17454424001E+03  0.21468742795E+03  0.12500000000E+03 0.  0.
<mgrwt>
<rscale>  0 0.12500000E+03</rscale>
<asrwt>0</asrwt>
<pdfrwt beam="1">  1       21 0.29940896E-01 0.12500000E+03</pdfrwt>
<pdfrwt beam="2">  1       21 0.30879377E-02 0.12500000E+03</pdfrwt>
<totfact> 0.63369715E+06</totfact>
</mgrwt>
</event>
<event>
 3    1  0.1594457E-001  0.1250000E+03  0.7546771E-02  0.1235069E+00
         21   -1    0    0  502  501  0.00000000000E+00  0.00000000000E+00  0.11326458955E+03  0.11326458955E+03  0.00000000000E+00 0. -1.
         21   -1    0    0  501  502 -0.00000000000E+00 -0.00000000000E+00 -0.34487830800E+02  0.34487830800E+02  0.00000000000E+00 0. -1.
         25    1    1    2    0    0  0.00000000000E+00  0.00000000000E+00  0.78776758748E+02  0.14775242035E+03  0.12500000000E+03 0.  0.
<mgrwt>
<rscale>  0 0.12500000E+03</rscale>
<asrwt>0</asrwt>
<pdfrwt beam="1">  1       21 0.17425321E-01 0.12500000E+03</pdfrwt>
<pdfrwt beam="2">  1       21 0.53058202E-02 0.12500000E+03</pdfrwt>
<totfact> 0.71042692E+06</totfact>
</mgrwt>
</event>
<event>
 3    1  0.1594457E-001  0.1250000E+03  0.7546771E-02  0.1235069E+00
         21   -1    0    0  502  501  0.00000000000E+00  0.00000000000E+00  0.46195088921E+03  0.46195088921E+03  0.00000000000E+00 0.  1.
         21   -1    0    0  501  502 -0.00000000000E+00 -0.00000000000E+00 -0.84559854548E+01  0.84559854548E+01  0.00000000000E+00 0.  1.
         25    1    1    2    0    0  0.00000000000E+00  0.00000000000E+00  0.45349490376E+03  0.47040687467E+03  0.12500000000E+03 0.  0.
<mgrwt>
<rscale>  0 0.12500000E+03</rscale>
<asrwt>0</asrwt>
<pdfrwt beam="1">  1       21 0.71069348E-01 0.12500000E+03</pdfrwt>
<pdfrwt beam="2">  1       21 0.13009212E-02 0.12500000E+03</pdfrwt>
<totfact> 0.43695830E+06</totfact>
</mgrwt>
</event>
<event>
 3    1  0.1594457E-001  0.1250000E+03  0.7546771E-02  0.1235069E+00
         21   -1    0    0  502  501  0.00000000000E+00  0.00000000000E+00  0.34273664059E+03  0.34273664059E+03  0.00000000000E+00 0.  1.
         21   -1    0    0  501  502 -0.00000000000E+00 -0.00000000000E+00 -0.11397234895E+02  0.11397234895E+02  0.00000000000E+00 0.  1.
         25    1    1    2    0    0  0.00000000000E+00  0.00000000000E+00  0.33133940569E+03  0.35413387548E+03  0.12500000000E+03 0.  0.
<mgrwt>
<rscale>  0 0.12500000E+03</rscale>
<asrwt>0</asrwt>
<pdfrwt beam="1">  1       21 0.52728706E-01 0.12500000E+03</pdfrwt>
<pdfrwt beam="2">  1       21 0.17534210E-02 0.12500000E+03</pdfrwt>
<totfact> 0.51234579E+06</totfact>
</mgrwt>
</event>
<event>
 3    1  0.1594457E-001  0.1250000E+03  0.7546771E-02  0.1235069E+00
         21   -1    0    0  502  501  0.00000000000E+00  0.00000000000E+00  0.33731964451E+02  0.33731964451E+02  0.00000000000E+00 0. -1.
         21   -1    0    0  501  502 -0.00000000000E+00 -0.00000000000E+00 -0.11580262412E+03  0.11580262412E+03  0.00000000000E+00 0. -1.
         25    1    1    2    0    0  0.00000000000E+00  0.00000000000E+00 -0.82070659665E+02  0.14953458857E+03  0.12500000000E+03 0.  0.
<mgrwt>
<rscale>  0 0.12500000E+03</rscale>
<asrwt>0</asrwt>
<pdfrwt beam="1">  1       21 0.51895331E-02 0.12500000E+03</pdfrwt>
<pdfrwt beam="2">  1       21 0.17815788E-01 0.12500000E+03</pdfrwt>
<totfact> 0.70817714E+06</totfact>
</mgrwt>
</event>
<event>
 3    1  0.1594457E-001  0.1250000E+03  0.7546771E-02  0.1235069E+00
         21   -1    0    0  502  501  0.00000000000E+00  0.00000000000E+00  0.12474941316E+03  0.12474941316E+03  0.00000000000E+00 0. -1.
         21   -1    0    0  501  502 -0.00000000000E+00 -0.00000000000E+00 -0.31312772551E+02  0.31312772551E+02  0.00000000000E+00 0. -1.
         25    1    1    2    0    0  0.00000000000E+00  0.00000000000E+00  0.93436640605E+02  0.15606218571E+03  0.12500000000E+03 0.  0.
<mgrwt>
<rscale>  0 0.12500000E+03</rscale>
<asrwt>0</asrwt>
<pdfrwt beam="1">  1       21 0.19192217E-01 0.12500000E+03</pdfrwt>
<pdfrwt beam="2">  1       21 0.48173497E-02 0.12500000E+03</pdfrwt>
<totfact> 0.70003883E+06</totfact>
</mgrwt>
</event>
<event>
 3    1  0.1594457E-001  0.1250000E+03  0.7546771E-02  0.1235069E+00
         21   -1    0    0  502  501  0.00000000000E+00  0.00000000000E+00  0.10315564632E+04  0.10315564632E+04  0.00000000000E+00 0.  1.
         21   -1    0    0  501  502 -0.00000000000E+00 -0.00000000000E+00 -0.37867534541E+01  0.37867534541E+01  0.00000000000E+00 0.  1.
         25    1    1    2    0    0  0.00000000000E+00  0.00000000000E+00  0.10277697097E+04  0.10353432166E+04  0.12500000000E+03 0.  0.
<mgrwt>
<rscale>  0 0.12500000E+03</rscale>
<asrwt>0</asrwt>
<pdfrwt beam="1">  1       21 0.15870077E+00 0.12500000E+03</pdfrwt>
<pdfrwt beam="2">  1       21 0.58257828E-03 0.12500000E+03</pdfrwt>
<totfact> 0.22749517E+06</totfact>
</mgrwt>
</event>
<event>
 3    1  0.1594457E-001  0.1250000E+03  0.7546771E-02  0.1235069E+00
         21   -1    0    0  502  501  0.00000000000E+00  0.00000000000E+00  0.83313916988E+02  0.83313916988E+02  0.00000000000E+00 0. -1.
         21   -1    0    0  501  502 -0.00000000000E+00 -0.00000000000E+00 -0.46885924239E+02  0.46885924239E+02  0.00000000000E+00 0. -1.
         25    1    1    2    0    0  0.00000000000E+00  0.00000000000E+00  0.36427992749E+02  0.13019984123E+03  0.12500000000E+03 0.  0.
<mgrwt>
<rscale>  0 0.12500000E+03</rscale>
<asrwt>0</asrwt>
<pdfrwt beam="1">  1       21 0.12817526E-01 0.12500000E+03</pdfrwt>
<pdfrwt beam="2">  1       21 0.72132191E-02 0.12500000E+03</pdfrwt>
<totfact> 0.73338218E+06</totfact>
</mgrwt>
</event>
<event>
 3    1  0.1594457E-001  0.1250000E+03  0.7546771E-02  0.1235069E+00
         21   -1    0    0  502  501  0.00000000000E+00  0.00000000000E+00  0.12837693844E+02  0.12837693844E+02  0.00000000000E+00 0. -1.
         21   -1    0    0  501  502 -0.00000000000E+00 -0.00000000000E+00 -0.30427972870E+03  0.30427972870E+03  0.00000000000E+00 0. -1.
         25    1    1    2    0    0  0.00000000000E+00  0.00000000000E+00 -0.29144203486E+03  0.31711742255E+03  0.12500000000E+03 0.  0.
<mgrwt>
<rscale>  0 0.12500000E+03</rscale>
<asrwt>0</asrwt>
<pdfrwt beam="1">  1       21 0.19750299E-02 0.12500000E+03</pdfrwt>
<pdfrwt beam="2">  1       21 0.46812265E-01 0.12500000E+03</pdfrwt>
<totfact> 0.54062566E+06</totfact>
</mgrwt>
</event>
<event>
 3    1  0.1594457E-001  0.1250000E+03  0.7546771E-02  0.1235069E+00
         21   -1    0    0  502  501  0.00000000000E+00  0.00000000000E+00  0.19211672445E+03  0.19211672445E+03  0.00000000000E+00 0.  1.
         21   -1    0    0  501  502 -0.00000000000E+00 -0.00000000000E+00 -0.20332691030E+02  0.20332691030E+02  0.00000000000E+00 0.  1.
         25    1    1    2    0    0  0.00000000000E+00  0.00000000000E+00  0.17178403342E+03  0.21244941548E+03  0.12500000000E+03 0.  0.
<mgrwt>
<rscale>  0 0.12500000E+03</rscale>
<asrwt>0</asrwt>
<pdfrwt beam="1">  1       21 0.29556418E-01 0.12500000E+03</pdfrwt>
<pdfrwt beam="2">  1       21 0.31281064E-02 0.12500000E+03</pdfrwt>
<totfact> 0.63602748E+06</totfact>
</mgrwt>
</event>
<event>
 3    1  0.1594457E-001  0.1250000E+03  0.7546771E-02  0.1235069E+00
         21   -1    0    0  502  501  0.00000000000E+00  0.00000000000E+00  0.11670756370E+03  0.11670756370E+03  0.00000000000E+00 0. -1.
         21   -1    0    0  501  502 -0.00000000000E+00 -0.00000000000E+00 -0.33470409939E+02  0.33470409939E+02  0.00000000000E+00 0. -1.
         25    1    1    2    0    0  0.00000000000E+00  0.00000000000E+00  0.83237153758E+02  0.15017797364E+03  0.12500000000E+03 0.  0.
<mgrwt>
<rscale>  0 0.12500000E+03</rscale>
<asrwt>0</asrwt>
<pdfrwt beam="1">  1       21 0.17955010E-01 0.12500000E+03</pdfrwt>
<pdfrwt beam="2">  1       21 0.51492939E-02 0.12500000E+03</pdfrwt>
<totfact> 0.70736852E+06</totfact>
</mgrwt>
</event>
<event>
 3    1  0.1594457E-001  0.1250000E+03  0.7546771E-02  0.1235069E+00
         21   -1    0    0  502  501  0.00000000000E+00  0.00000000000E+00  0.12341996397E+03  0.12341996397E+03  0.00000000000E+00 0. -1.
         21   -1    0    0  501  502 -0.00000000000E+00 -0.00000000000E+00 -0.31650065956E+02  0.31650065956E+02  0.00000000000E+00 0. -1.
         25    1    1    2    0    0  0.00000000000E+00  0.00000000000E+00  0.91769898017E+02  0.15507002993E+03  0.12500000000E+03 0.  0.
<mgrwt>
<rscale>  0 0.12500000E+03</rscale>
<asrwt>0</asrwt>
<pdfrwt beam="1">  1       21 0.18987687E-01 0.12500000E+03</pdfrwt>
<pdfrwt beam="2">  1       21 0.48692410E-02 0.12500000E+03</pdfrwt>
<totfact> 0.70126956E+06</totfact>
</mgrwt>
</event>
<event>
 3    1  0.1594457E-001  0.1250000E+03  0.7546771E-02  0.1235069E+00
         21   -1    0    0  502  501  0.00000000000E+00  0.00000000000E+00  0.18608579633E+03  0.18608579633E+03  0.00000000000E+00 0.  1.
         21   -1    0    0  501  502 -0.00000000000E+00 -0.00000000000E+00 -0.20991661250E+02  0.20991661250E+02  0.00000000000E+00 0.  1.
         25    1    1    2    0    0  0.00000000000E+00  0.00000000000E+00  0.16509413508E+03  0.20707745758E+03  0.12500000000E+03 0.  0.
<mgrwt>
<rscale>  0 0.12500000E+03</rscale>
<asrwt>0</asrwt>
<pdfrwt beam="1">  1       21 0.28628583E-01 0.12500000E+03</pdfrwt>
<pdfrwt beam="2">  1       21 0.32294865E-02 0.12500000E+03</pdfrwt>
<totfact> 0.64168339E+06</totfact>
</mgrwt>
</event>
<event>
 3    1  0.1594457E-001  0.1250000E+03  0.7546771E-02  0.1235069E+00
         21   -1    0    0  502  501  0.00000000000E+00  0.00000000000E+00  0.44256272070E+02  0.44256272070E+02  0.00000000000E+00 0. -1.
         21   -1    0    0  501  502 -0.00000000000E+00 -0.00000000000E+00 -0.88264325423E+02  0.88264325423E+02  0.00000000000E+00 0. -1.
         25    1    1    2    0    0  0.00000000000E+00  0.00000000000E+00 -0.44008053353E+02  0.13252059749E+03  0.12500000000E+03 0.  0.
<mgrwt>
<rscale>  0 0.12500000E+03</rscale>
<asrwt>0</asrwt>
<pdfrwt beam="1">  1       21 0.68086574E-02 0.12500000E+03</pdfrwt>
<pdfrwt beam="2">  1       21 0.13579127E-01 0.12500000E+03</pdfrwt>
<totfact> 0.73026482E+06</totfact>
</mgrwt>
</event>
<event>
 3    1  0.1594457E-001  0.1250000E+03  0.7546771E-02  0.1235069E+00
         21   -1    0    0  502  501  0.00000000000E+00  0.00000000000E+00  0.15428460852E+02  0.15428460852E+02  0.00000000000E+00 0.  1.
         21   -1    0    0  501  502 -0.00000000000E+00 -0.00000000000E+00 -0.25318468495E+03  0.25318468495E+03  0.00000000000E+00 0.  1.
         25    1    1    2    0    0  0.00000000000E+00  0.00000000000E+00 -0.23775622410E+03  0.26861314580E+03  0.12500000000E+03 0.  0.
<mgrwt>
<rscale>  0 0.12500000E+03</rscale>
<asrwt>0</asrwt>
<pdfrwt beam="1">  1       21 0.23736096E-02 0.12500000E+03</pdfrwt>
<pdfrwt beam="2">  1       21 0.38951486E-01 0.12500000E+03</pdfrwt>
<totfact> 0.58168715E+06</totfact>
</mgrwt>
</event>
<event>
 3    1  0.1594457E-001  0.1250000E+03  0.7546771E-02  0.1235069E+00
         21   -1    0    0  502  501  0.00000000000E+00  0.00000000000E+00  0.22005828851E+02  0.22005828851E+02  0.00000000000E+00 0. -1.
         21   -1    0    0  501  502 -0.00000000000E+00 -0.00000000000E+00 -0.17750978736E+03  0.17750978736E+03  0.00000000000E+00 0. -1.
         25    1    1    2    0    0  0.00000000000E+00  0.00000000000E+00 -0.15550395851E+03  0.19951561621E+03  0.12500000000E+03 0.  0.
<mgrwt>
<rscale>  0 0.12500000E+03</rscale>
<asrwt>0</asrwt>
<pdfrwt beam="1">  1       21 0.33855122E-02 0.12500000E+03</pdfrwt>
<pdfrwt beam="2">  1       21 0.27309197E-01 0.12500000E+03</pdfrwt>
<totfact> 0.64979776E+06</totfact>
</mgrwt>
</event>
<event>
 3    1  0.1594457E-001  0.1250000E+03  0.7546771E-02  0.1235069E+00
         21   -1    0    0  502  501  0.00000000000E+00  0.00000000000E+00  0.12859429880E+03  0.12859429880E+03  0.00000000000E+00 0.  1.
         21   -1    0    0  501  502 -0.00000000000E+00 -0.00000000000E+00 -0.30376541079E+02  0.30376541079E+02  0.00000000000E+00 0.  1.
         25    1    1    2    0    0  0.00000000000E+00  0.00000000000E+00  0.98217757718E+02  0.15897083988E+03  0.12500000000E+03 0.  0.
<mgrwt>
<rscale>  0 0.12500000E+03</rscale>
<asrwt>0</asrwt>
<pdfrwt beam="1">  1       21 0.19783738E-01 0.12500000E+03</pdfrwt>
<pdfrwt beam="2">  1       21 0.46733141E-02 0.12500000E+03</pdfrwt>
<totfact> 0.69645467E+06</totfact>
</mgrwt>
</event>
<event>
 3    1  0.1594457E-001  0.1250000E+03  0.7546771E-02  0.1235069E+00
         21   -1    0    0  502  501  0.00000000000E+00  0.00000000000E+00  0.59225069991E+03  0.59225069991E+03  0.00000000000E+00 0.  1.
         21   -1    0    0  501  502 -0.00000000000E+00 -0.00000000000E+00 -0.65956021675E+01  0.65956021675E+01  0.00000000000E+00 0.  1.
         25    1    1    2    0    0  0.00000000000E+00  0.00000000000E+00  0.58565509774E+03  0.59884630208E+03  0.12500000000E+03 0.  0.
<mgrwt>
<rscale>  0 0.12500000E+03</rscale>
<asrwt>0</asrwt>
<pdfrwt beam="1">  1       21 0.91115450E-01 0.12500000E+03</pdfrwt>
<pdfrwt beam="2">  1       21 0.10147085E-02 0.12500000E+03</pdfrwt>
<totfact> 0.37144870E+06</totfact>
</mgrwt>
</event>
<event>
 3    1  0.1594457E-001  0.1250000E+03  0.7546771E-02  0.1235069E+00
         21   -1    0    0  502  501  0.00000000000E+00  0.00000000000E+00  0.15649763690E+02  0.15649763690E+02  0.00000000000E+00 0.  1.
         21   -1    0    0  501  502 -0.00000000000E+00 -0.00000000000E+00 -0.24960440793E+03  0.24960440793E+03  0.00000000000E+00 0.  1.
         25    1    1    2    0    0  0.00000000000E+00  0.00000000000E+00 -0.23395464424E+03  0.26525417162E+03  0.12500000000E+03 0.  0.
<mgrwt>
<rscale>  0 0.12500000E+03</rscale>
<asrwt>0</asrwt>
<pdfrwt beam="1">  1       21 0.24076559E-02 0.12500000E+03</pdfrwt>
<pdfrwt beam="2">  1       21 0.38400679E-01 0.12500000E+03</pdfrwt>
<totfact> 0.58471020E+06</totfact>
</mgrwt>
</event>
<event>
 3    1  0.1594457E-001  0.1250000E+03  0.7546771E-02  0.1235069E+00
         21   -1    0    0  502  501  0.00000000000E+00  0.00000000000E+00  0.17295396574E+03  0.17295396574E+03  0.00000000000E+00 0. -1.
         21   -1    0    0  501  502 -0.00000000000E+00 -0.00000000000E+00 -0.22585489632E+02  0.22585489632E+02  0.00000000000E+00 0. -1.
         25    1    1    2    0    0  0.00000000000E+00  0.00000000000E+00  0.15036847611E+03  0.19553945537E+03  0.12500000000E+03 0.  0.
<mgrwt>
<rscale>  0 0.12500000E+03</rscale>
<asrwt>0</asrwt>
<pdfrwt beam="1">  1       21 0.26608302E-01 0.12500000E+03</pdfrwt>
<pdfrwt beam="2">  1       21 0.34746908E-02 0.12500000E+03</pdfrwt>
<totfact> 0.65412029E+06</totfact>
</mgrwt>
</event>
<event>
 3    1  0.1594457E-001  0.1250000E+03  0.7546771E-02  0.1235069E+00
         21   -1    0    0  502  501  0.00000000000E+00  0.00000000000E+00  0.12297822835E+03  0.12297822835E+03  0.00000000000E+00 0.  1.
         21   -1    0    0  501  502 -0.00000000000E+00 -0.00000000000E+00 -0.31763752432E+02  0.31763752432E+02  0.00000000000E+00 0.  1.
         25    1    1    2    0    0  0.00000000000E+00  0.00000000000E+00  0.91214475923E+02  0.15474198079E+03  0.12500000000E+03 0.  0.
<mgrwt>
<rscale>  0 0.12500000E+03</rscale>
<asrwt>0</asrwt>
<pdfrwt beam="1">  1       21 0.18919727E-01 0.12500000E+03</pdfrwt>
<pdfrwt beam="2">  1       21 0.48867312E-02 0.12500000E+03</pdfrwt>
<totfact> 0.70167742E+06</totfact>
</mgrwt>
</event>
<event>
 3    1  0.1594457E-001  0.1250000E+03  0.7546771E-02  0.1235069E+00
         21   -1    0    0  502  501  0.00000000000E+00  0.00000000000E+00  0.89035927347E+01  0.89035927347E+01  0.00000000000E+00 0. -1.
         21   -1    0    0  501  502 -0.00000000000E+00 -0.00000000000E+00 -0.43872738976E+03  0.43872738976E+03  0.00000000000E+00 0. -1.
         25    1    1    2    0    0  0.00000000000E+00  0.00000000000E+00 -0.42982379703E+03  0.44763098250E+03  0.12500000000E+03 0.  0.
<mgrwt>
<rscale>  0 0.12500000E+03</rscale>
<asrwt>0</asrwt>
<pdfrwt beam="1">  1       21 0.13697837E-02 0.12500000E+03</pdfrwt>
<pdfrwt beam="2">  1       21 0.67496511E-01 0.12500000E+03</pdfrwt>
<totfact> 0.45034370E+06</totfact>
</mgrwt>
</event>
<event>
 3    1  0.1594457E-001  0.1250000E+03  0.7546771E-02  0.1235069E+00
         21   -1    0    0  502  501  0.00000000000E+00  0.00000000000E+00  0.82132619995E+02  0.82132619995E+02  0.00000000000E+00 0. -1.
         21   -1    0    0  501  502 -0.00000000000E+00 -0.00000000000E+00 -0.47560275080E+02  0.47560275080E+02  0.00000000000E+00 0. -1.
         25    1    1    2    0    0  0.00000000000E+00  0.00000000000E+00  0.34572344916E+02  0.12969289508E+03  0.12500000000E+03 0.  0.
<mgrwt>
<rscale>  0 0.12500000E+03</rscale>
<asrwt>0</asrwt>
<pdfrwt beam="1">  1       21 0.12635788E-01 0.12500000E+03</pdfrwt>
<pdfrwt beam="2">  1       21 0.73169654E-02 0.12500000E+03</pdfrwt>
<totfact> 0.73405988E+06</totfact>
</mgrwt>
</event>
<event>
 3    1  0.1594457E-001  0.1250000E+03  0.7546771E-02  0.1235069E+00
         21   -1    0    0  502  501  0.00000000000E+00  0.00000000000E+00  0.19833733438E+02  0.19833733438E+02  0.00000000000E+00 0. -1.
         21   -1    0    0  501  502 -0.00000000000E+00 -0.00000000000E+00 -0.19694980838E+03  0.19694980838E+03  0.00000000000E+00 0. -1.
         25    1    1    2    0    0  0.00000000000E+00  0.00000000000E+00 -0.17711607494E+03  0.21678354182E+03  0.12500000000E+03 0.  0.
<mgrwt>
<rscale>  0 0.12500000E+03</rscale>
<asrwt>0</asrwt>
<pdfrwt beam="1">  1       21 0.30513434E-02 0.12500000E+03</pdfrwt>
<pdfrwt beam="2">  1       21 0.30299972E-01 0.12500000E+03</pdfrwt>
<totfact> 0.63152820E+06</totfact>
</mgrwt>
</event>
<event>
 3    1  0.1594457E-001  0.1250000E+03  0.7546771E-02  0.1235069E+00
         21   -1    0    0  502  501  0.00000000000E+00  0.00000000000E+00  0.65162054899E+02  0.65162054899E+02  0.00000000000E+00 0. -1.
         21   -1    0    0  501  502 -0.00000000000E+00 -0.00000000000E+00 -0.59946697600E+02  0.59946697600E+02  0.00000000000E+00 0. -1.
         25    1    1    2    0    0  0.00000000000E+00  0.00000000000E+00  0.52153572991E+01  0.12510875250E+03  0.12500000000E+03 0.  0.
<mgrwt>
<rscale>  0 0.12500000E+03</rscale>
<asrwt>0</asrwt>
<pdfrwt beam="1">  1       21 0.10024932E-01 0.12500000E+03</pdfrwt>
<pdfrwt beam="2">  1       21 0.92225688E-02 0.12500000E+03</pdfrwt>
<totfact> 0.74028893E+06</totfact>
</mgrwt>
</event>
<event>
 3    1  0.1594457E-001  0.1250000E+03  0.7546771E-02  0.1235069E+00
         21   -1    0    0  502  501  0.00000000000E+00  0.00000000000E+00  0.71067687638E+02  0.71067687638E+02  0.00000000000E+00 0.  1.
         21   -1    0    0  501  502 -0.00000000000E+00 -0.00000000000E+00 -0.54965204720E+02  0.54965204720E+02  0.00000000000E+00 0.  1.
         25    1    1    2    0    0  0.00000000000E+00  0.00000000000E+00  0.16102482918E+02  0.12603289236E+03  0.12500000000E+03 0.  0.
<mgrwt>
<rscale>  0 0.12500000E+03</rscale>
<asrwt>0</asrwt>
<pdfrwt beam="1">  1       21 0.10933490E-01 0.12500000E+03</pdfrwt>
<pdfrwt beam="2">  1       21 0.84561853E-02 0.12500000E+03</pdfrwt>
<totfact> 0.73901504E+06</totfact>
</mgrwt>
</event>
<event>
 3    1  0.1594457E-001  0.1250000E+03  0.7546771E-02  0.1235069E+00
         21   -1    0    0  502  501  0.00000000000E+00  0.00000000000E+00  0.10375509232E+03  0.10375509232E+03  0.00000000000E+00 0. -1.
         21   -1    0    0  501  502 -0.00000000000E+00 -0.00000000000E+00 -0.37648754510E+02  0.37648754510E+02  0.00000000000E+00 0. -1.
         25    1    1    2    0    0  0.00000000000E+00  0.00000000000E+00  0.66106337813E+02  0.14140384683E+03  0.12500000000E+03 0.  0.
<mgrwt>
<rscale>  0 0.12500000E+03</rscale>
<asrwt>0</asrwt>
<pdfrwt beam="1">  1       21 0.15962322E-01 0.12500000E+03</pdfrwt>
<pdfrwt beam="2">  1       21 0.57921161E-02 0.12500000E+03</pdfrwt>
<totfact> 0.71856565E+06</totfact>
</mgrwt>
</event>
<event>
 3    1  0.1594457E-001  0.1250000E+03  0.7546771E-02  0.1235069E+00
         21   -1    0    0  502  501  0.00000000000E+00  0.00000000000E+00  0.23549574522E+02  0.23549574522E+02  0.00000000000E+00 0.  1.
         21   -1    0    0  501  502 -0.00000000000E+00 -0.00000000000E+00 -0.16587348516E+03  0.16587348516E+03  0.00000000000E+00 0.  1.
         25    1    1    2    0    0  0.00000000000E+00  0.00000000000E+00 -0.14232391063E+03  0.18942305968E+03  0.12500000000E+03 0.  0.
<mgrwt>
<rscale>  0 0.12500000E+03</rscale>
<asrwt>0</asrwt>
<pdfrwt beam="1">  1       21 0.36230116E-02 0.12500000E+03</pdfrwt>
<pdfrwt beam="2">  1       21 0.25518996E-01 0.12500000E+03</pdfrwt>
<totfact> 0.66086643E+06</totfact>
</mgrwt>
</event>
<event>
 3    1  0.1594457E-001  0.1250000E+03  0.7546771E-02  0.1235069E+00
         21   -1    0    0  502  501  0.00000000000E+00  0.00000000000E+00  0.32392751560E+03  0.32392751560E+03  0.00000000000E+00 0.  1.
         21   -1    0    0  501  502 -0.00000000000E+00 -0.00000000000E+00 -0.12059024973E+02  0.12059024973E+02  0.00000000000E+00 0.  1.
         25    1    1    2    0    0  0.00000000000E+00  0.00000000000E+00  0.31186849063E+03  0.33598654058E+03  0.12500000000E+03 0.  0.
<mgrwt>
<rscale>  0 0.12500000E+03</rscale>
<asrwt>0</asrwt>
<pdfrwt beam="1">  1       21 0.49834996E-01 0.12500000E+03</pdfrwt>
<pdfrwt beam="2">  1       21 0.18552349E-02 0.12500000E+03</pdfrwt>
<totfact> 0.52590320E+06</totfact>
</mgrwt>
</event>
<event>
 3    1  0.1594457E-001  0.1250000E+03  0.7546771E-02  0.1235069E+00
         21   -1    0    0  502  501  0.00000000000E+00  0.00000000000E+00  0.14941014252E+03  0.14941014252E+03  0.00000000000E+00 0. -1.
         21   -1    0    0  501  502 -0.00000000000E+00 -0.00000000000E+00 -0.26144476767E+02  0.26144476767E+02  0.00000000000E+00 0. -1.
         25    1    1    2    0    0  0.00000000000E+00  0.00000000000E+00  0.12326566576E+03  0.17555461929E+03  0.12500000000E+03 0.  0.
<mgrwt>
<rscale>  0 0.12500000E+03</rscale>
<asrwt>0</asrwt>
<pdfrwt beam="1">  1       21 0.22986175E-01 0.12500000E+03</pdfrwt>
<pdfrwt beam="2">  1       21 0.40222273E-02 0.12500000E+03</pdfrwt>
<totfact> 0.67665192E+06</totfact>
</mgrwt>
</event>
<event>
 3    1  0.1594457E-001  0.1250000E+03  0.7546771E-02  0.1235069E+00
         21   -1    0    0  502  501  0.00000000000E+00  0.00000000000E+00  0.47413074824E+02  0.47413074824E+02  0.00000000000E+00 0. -1.
         21   -1    0    0  501  502 -0.00000000000E+00 -0.00000000000E+00 -0.82387611740E+02  0.82387611740E+02  0.00000000000E+00 0. -1.
         25    1    1    2    0    0  0.00000000000E+00  0.00000000000E+00 -0.34974536916E+02  0.12980068656E+03  0.12500000000E+03 0.  0.
<mgrwt>
<rscale>  0 0.12500000E+03</rscale>
<asrwt>0</asrwt>
<pdfrwt beam="1">  1       21 0.72943192E-02 0.12500000E+03</pdfrwt>
<pdfrwt beam="2">  1       21 0.12675017E-01 0.12500000E+03</pdfrwt>
<totfact> 0.73391565E+06</totfact>
</mgrwt>
</event>
<event>
 3    1  0.1594457E-001  0.1250000E+03  0.7546771E-02  0.1235069E+00
         21   -1    0    0  502  501  0.00000000000E+00  0.00000000000E+00  0.23875628590E+03  0.23875628590E+03  0.00000000000E+00 0.  1.
         21   -1    0    0  501  502 -0.00000000000E+00 -0.00000000000E+00 -0.16360825790E+02  0.16360825790E+02  0.00000000000E+00 0.  1.
         25    1    1    2    0    0  0.00000000000E+00  0.00000000000E+00  0.22239546011E+03  0.25511711169E+03  0.12500000000E+03 0.  0.
<mgrwt>
<rscale>  0 0.12500000E+03</rscale>
<asrwt>0</asrwt>
<pdfrwt beam="1">  1       21 0.36731734E-01 0.12500000E+03</pdfrwt>
<pdfrwt beam="2">  1       21 0.25170503E-02 0.12500000E+03</pdfrwt>
<totfact> 0.59399739E+06</totfact>
</mgrwt>
</event>
<event>
 3    1  0.1594457E-001  0.1250000E+03  0.7546771E-02  0.1235069E+00
         21   -1    0    0  502  501  0.00000000000E+00  0.00000000000E+00  0.20376258038E+03  0.20376258038E+03  0.00000000000E+00 0. -1.
         21   -1    0    0  501  502 -0.00000000000E+00 -0.00000000000E+00 -0.19170595468E+02  0.19170595468E+02  0.00000000000E+00 0. -1.
         25    1    1    2    0    0  0.00000000000E+00  0.00000000000E+00  0.18459198491E+03  0.22293317585E+03  0.12500000000E+03 0.  0.
<mgrwt>
<rscale>  0 0.12500000E+03</rscale>
<asrwt>0</asrwt>
<pdfrwt beam="1">  1       21 0.31348088E-01 0.12500000E+03</pdfrwt>
<pdfrwt beam="2">  1       21 0.29493225E-02 0.12500000E+03</pdfrwt>
<totfact> 0.62523978E+06</totfact>
</mgrwt>
</event>
<event>
 3    1  0.1594457E-001  0.1250000E+03  0.7546771E-02  0.1235069E+00
         21   -1    0    0  502  501  0.00000000000E+00  0.00000000000E+00  0.17626557032E+04  0.17626557032E+04  0.00000000000E+00 0. -1.
         21   -1    0    0  501  502 -0.00000000000E+00 -0.00000000000E+00 -0.22161162801E+01  0.22161162801E+01  0.00000000000E+00 0. -1.
         25    1    1    2    0    0  0.00000000000E+00  0.00000000000E+00  0.17604395869E+04  0.17648718195E+04  0.12500000000E+03 0.  0.
<mgrwt>
<rscale>  0 0.12500000E+03</rscale>
<asrwt>0</asrwt>
<pdfrwt beam="1">  1       21 0.27117668E+00 0.12500000E+03</pdfrwt>
<pdfrwt beam="2">  1       21 0.34094238E-03 0.12500000E+03</pdfrwt>
<totfact> 0.10480253E+06</totfact>
</mgrwt>
</event>
<event>
 3    1  0.1594457E-001  0.1250000E+03  0.7546771E-02  0.1235069E+00
         21   -1    0    0  502  501  0.00000000000E+00  0.00000000000E+00  0.11729902946E+02  0.11729902946E+02  0.00000000000E+00 0. -1.
         21   -1    0    0  501  502 -0.00000000000E+00 -0.00000000000E+00 -0.33301639562E+03  0.33301639562E+03  0.00000000000E+00 0. -1.
         25    1    1    2    0    0  0.00000000000E+00  0.00000000000E+00 -0.32128649267E+03  0.34474629857E+03  0.12500000000E+03 0.  0.
<mgrwt>
<rscale>  0 0.12500000E+03</rscale>
<asrwt>0</asrwt>
<pdfrwt beam="1">  1       21 0.18046005E-02 0.12500000E+03</pdfrwt>
<pdfrwt beam="2">  1       21 0.51233291E-01 0.12500000E+03</pdfrwt>
<totfact> 0.51928788E+06</totfact>
</mgrwt>
</event>
<event>
 3    1  0.1594457E-001  0.1250000E+03  0.7546771E-02  0.1235069E+00
         21   -1    0    0  502  501  0.00000000000E+00  0.00000000000E+00  0.11817382839E+02  0.11817382839E+02  0.00000000000E+00 0.  1.
         21   -1    0    0  501  502 -0.00000000000E+00 -0.00000000000E+00 -0.33055119337E+03  0.33055119337E+03  0.00000000000E+00 0.  1.
         25    1    1    2    0    0  0.00000000000E+00  0.00000000000E+00 -0.31873381053E+03  0.34236857621E+03  0.12500000000E+03 0.  0.
<mgrwt>
<rscale>  0 0.12500000E+03</rscale>
<asrwt>0</asrwt>
<pdfrwt beam="1">  1       21 0.18180590E-02 0.12500000E+03</pdfrwt>
<pdfrwt beam="2">  1       21 0.50854026E-01 0.12500000E+03</pdfrwt>
<totfact> 0.52107021E+06</totfact>
</mgrwt>
</event>
<event>
 3    1  0.1594457E-001  0.1250000E+03  0.7546771E-02  0.1235069E+00
         21   -1    0    0  502  501  0.00000000000E+00  0.00000000000E+00  0.22504838903E+04  0.22504838903E+04  0.00000000000E+00 0. -1.
         21   -1    0    0  501  502 -0.00000000000E+00 -0.00000000000E+00 -0.17357378192E+01  0.17357378192E+01  0.00000000000E+00 0. -1.
         25    1    1    2    0    0  0.00000000000E+00  0.00000000000E+00  0.22487481525E+04  0.22522196281E+04  0.12500000000E+03 0.  0.
<mgrwt>
<rscale>  0 0.12500000E+03</rscale>
<asrwt>0</asrwt>
<pdfrwt beam="1">  1       21 0.34622596E+00 0.12500000E+03</pdfrwt>
<pdfrwt beam="2">  1       21 0.26703839E-03 0.12500000E+03</pdfrwt>
<totfact> 0.57398158E+05</totfact>
</mgrwt>
</event>
<event>
 3    1  0.1594457E-001  0.1250000E+03  0.7546771E-02  0.1235069E+00
         21   -1    0    0  502  501  0.00000000000E+00  0.00000000000E+00  0.13805657483E+02  0.13805657483E+02  0.00000000000E+00 0.  1.
         21   -1    0    0  501  502 -0.00000000000E+00 -0.00000000000E+00 -0.28294559710E+03  0.28294559710E+03  0.00000000000E+00 0.  1.
         25    1    1    2    0    0  0.00000000000E+00  0.00000000000E+00 -0.26913993962E+03  0.29675125459E+03  0.12500000000E+03 0.  0.
<mgrwt>
<rscale>  0 0.12500000E+03</rscale>
<asrwt>0</asrwt>
<pdfrwt beam="1">  1       21 0.21239473E-02 0.12500000E+03</pdfrwt>
<pdfrwt beam="2">  1       21 0.43530092E-01 0.12500000E+03</pdfrwt>
<totfact> 0.55727242E+06</totfact>
</mgrwt>
</event>
<event>
 3    1  0.1594457E-001  0.1250000E+03  0.7546771E-02  0.1235069E+00
         21   -1    0    0  502  501  0.00000000000E+00  0.00000000000E+00  0.15293885571E+02  0.15293885571E+02  0.00000000000E+00 0.  1.
         21   -1    0    0  501  502 -0.00000000000E+00 -0.00000000000E+00 -0.25541252953E+03  0.25541252953E+03  0.00000000000E+00 0.  1.
         25    1    1    2    0    0  0.00000000000E+00  0.00000000000E+00 -0.24011864396E+03  0.27070641510E+03  0.12500000000E+03 0.  0.
<mgrwt>
<rscale>  0 0.12500000E+03</rscale>
<asrwt>0</asrwt>
<pdfrwt beam="1">  1       21 0.23529056E-02 0.12500000E+03</pdfrwt>
<pdfrwt beam="2">  1       21 0.39294233E-01 0.12500000E+03</pdfrwt>
<totfact> 0.57981650E+06</totfact>
</mgrwt>
</event>
<event>
 3    1  0.1594457E-001  0.1250000E+03  0.7546771E-02  0.1235069E+00
         21   -1    0    0  502  501  0.00000000000E+00  0.00000000000E+00  0.56632479471E+01  0.56632479471E+01  0.00000000000E+00 0.  1.
         21   -1    0    0  501  502 -0.00000000000E+00 -0.00000000000E+00 -0.68975436648E+03  0.68975436648E+03  0.00000000000E+00 0.  1.
         25    1    1    2    0    0  0.00000000000E+00  0.00000000000E+00 -0.68409111853E+03  0.69541761443E+03  0.12500000000E+03 0.  0.
<mgrwt>
<rscale>  0 0.12500000E+03</rscale>
<asrwt>0</asrwt>
<pdfrwt beam="1">  1       21 0.87126919E-03 0.12500000E+03</pdfrwt>
<pdfrwt beam="2">  1       21 0.10611602E+00 0.12500000E+03</pdfrwt>
<totfact> 0.33087564E+06</totfact>
</mgrwt>
</event>
<event>
 3    1  0.1594457E-001  0.1250000E+03  0.7546771E-02  0.1235069E+00
         21   -1    0    0  502  501  0.00000000000E+00  0.00000000000E+00  0.56282433292E+01  0.56282433292E+01  0.00000000000E+00 0.  1.
         21   -1    0    0  501  502 -0.00000000000E+00 -0.00000000000E+00 -0.69404426417E+03  0.69404426417E+03  0.00000000000E+00 0.  1.
         25    1    1    2    0    0  0.00000000000E+00  0.00000000000E+00 -0.68841602084E+03  0.69967250750E+03  0.12500000000E+03 0.  0.
<mgrwt>
<rscale>  0 0.12500000E+03</rscale>
<asrwt>0</asrwt>
<pdfrwt beam="1">  1       21 0.86588357E-03 0.12500000E+03</pdfrwt>
<pdfrwt beam="2">  1       21 0.10677604E+00 0.12500000E+03</pdfrwt>
<totfact> 0.32922768E+06</totfact>
</mgrwt>
</event>
<event>
 3    1  0.1594457E-001  0.1250000E+03  0.7546771E-02  0.1235069E+00
         21   -1    0    0  502  501  0.00000000000E+00  0.00000000000E+00  0.16864036937E+03  0.16864036937E+03  0.00000000000E+00 0. -1.
         21   -1    0    0  501  502 -0.00000000000E+00 -0.00000000000E+00 -0.23163196420E+02  0.23163196420E+02  0.00000000000E+00 0. -1.
         25    1    1    2    0    0  0.00000000000E+00  0.00000000000E+00  0.14547717295E+03  0.19180356579E+03  0.12500000000E+03 0.  0.
<mgrwt>
<rscale>  0 0.12500000E+03</rscale>
<asrwt>0</asrwt>
<pdfrwt beam="1">  1       21 0.25944671E-01 0.12500000E+03</pdfrwt>
<pdfrwt beam="2">  1       21 0.35635688E-02 0.12500000E+03</pdfrwt>
<totfact> 0.65822574E+06</totfact>
</mgrwt>
</event>
<event>
 3    1  0.1594457E-001  0.1250000E+03  0.7546771E-02  0.1235069E+00
         21   -1    0    0  502  501  0.00000000000E+00  0.00000000000E+00  0.25184115280E+02  0.25184115280E+02  0.00000000000E+00 0. -1.
         21   -1    0    0  501  502 -0.00000000000E+00 -0.00000000000E+00 -0.15510769215E+03  0.15510769215E+03  0.00000000000E+00 0. -1.
         25    1    1    2    0    0  0.00000000000E+00  0.00000000000E+00 -0.12992357687E+03  0.18029180743E+03  0.12500000000E+03 0.  0.
<mgrwt>
<rscale>  0 0.12500000E+03</rscale>
<asrwt>0</asrwt>
<pdfrwt beam="1">  1       21 0.38744791E-02 0.12500000E+03</pdfrwt>
<pdfrwt beam="2">  1       21 0.23862723E-01 0.12500000E+03</pdfrwt>
<totfact> 0.67118076E+06</totfact>
</mgrwt>
</event>
<event>
 3    1  0.1594457E-001  0.1250000E+03  0.7546771E-02  0.1235069E+00
         21   -1    0    0  502  501  0.00000000000E+00  0.00000000000E+00  0.99617678975E+02  0.99617678975E+02  0.00000000000E+00 0.  1.
         21   -1    0    0  501  502 -0.00000000000E+00 -0.00000000000E+00 -0.39212417316E+02  0.39212417316E+02  0.00000000000E+00 0.  1.
         25    1    1    2    0    0  0.00000000000E+00  0.00000000000E+00  0.60405261659E+02  0.13883009629E+03  0.12500000000E+03 0.  0.
<mgrwt>
<rscale>  0 0.12500000E+03</rscale>
<asrwt>0</asrwt>
<pdfrwt beam="1">  1       21 0.15325797E-01 0.12500000E+03</pdfrwt>
<pdfrwt beam="2">  1       21 0.60326796E-02 0.12500000E+03</pdfrwt>
<totfact> 0.72192407E+06</totfact>
</mgrwt>
</event>
<event>
 3    1  0.1594457E-001  0.1250000E+03  0.7546771E-02  0.1235069E+00
         21   -1    0    0  502  501  0.00000000000E+00  0.00000000000E+00  0.29429041813E+02  0.29429041813E+02  0.00000000000E+00 0.  1.
         21   -1    0    0  501  502 -0.00000000000E+00 -0.00000000000E+00 -0.13273452887E+03  0.13273452887E+03  0.00000000000E+00 0.  1.
         25    1    1    2    0    0  0.00000000000E+00  0.00000000000E+00 -0.10330548705E+03  0.16216357068E+03  0.12500000000E+03 0.  0.
<mgrwt>
<rscale>  0 0.12500000E+03</rscale>
<asrwt>0</asrwt>
<pdfrwt beam="1">  1       21 0.45275450E-02 0.12500000E+03</pdfrwt>
<pdfrwt beam="2">  1       21 0.20420696E-01 0.12500000E+03</pdfrwt>
<totfact> 0.69256093E+06</totfact>
</mgrwt>
</event>
<event>
 3    1  0.1594457E-001  0.1250000E+03  0.7546771E-02  0.1235069E+00
         21   -1    0    0  502  501  0.00000000000E+00  0.00000000000E+00  0.52848473671E+03  0.52848473671E+03  0.00000000000E+00 0. -1.
         21   -1    0    0  501  502 -0.00000000000E+00 -0.00000000000E+00 -0.73914149807E+01  0.73914149807E+01  0.00000000000E+00 0. -1.
         25    1    1    2    0    0  0.00000000000E+00  0.00000000000E+00  0.52109332173E+03  0.53587615169E+03  0.12500000000E+03 0.  0.
<mgrwt>
<rscale>  0 0.12500000E+03</rscale>
<asrwt>0</asrwt>
<pdfrwt beam="1">  1       21 0.81305314E-01 0.12500000E+03</pdfrwt>
<pdfrwt beam="2">  1       21 0.11371412E-02 0.12500000E+03</pdfrwt>
<totfact> 0.40162958E+06</totfact>
</mgrwt>
</event>
<event>
 3    1  0.1594457E-001  0.1250000E+03  0.7546771E-02  0.1235069E+00
         21   -1    0    0  502  501  0.00000000000E+00  0.00000000000E+00  0.29558584664E+03  0.29558584664E+03  0.00000000000E+00 0. -1.
         21   -1    0    0  501  502 -0.00000000000E+00 -0.00000000000E+00 -0.13215280922E+02  0.13215280922E+02  0.00000000000E+00 0. -1.
         25    1    1    2    0    0  0.00000000000E+00  0.00000000000E+00  0.28237056572E+03  0.30880112756E+03  0.12500000000E+03 0.  0.
<mgrwt>
<rscale>  0 0.12500000E+03</rscale>
<asrwt>0</asrwt>
<pdfrwt beam="1">  1       21 0.45474741E-01 0.12500000E+03</pdfrwt>
<pdfrwt beam="2">  1       21 0.20331204E-02 0.12500000E+03</pdfrwt>
<totfact> 0.54732607E+06</totfact>
</mgrwt>
</event>
<event>
 3    1  0.1594457E-001  0.1250000E+03  0.7546771E-02  0.1235069E+00
         21   -1    0    0  502  501  0.00000000000E+00  0.00000000000E+00  0.38730350397E+01  0.38730350397E+01  0.00000000000E+00 0. -1.
         21   -1    0    0  501  502 -0.00000000000E+00 -0.00000000000E+00 -0.10085759514E+04  0.10085759514E+04  0.00000000000E+00 0. -1.
         25    1    1    2    0    0  0.00000000000E+00  0.00000000000E+00 -0.10047029164E+04  0.10124489864E+04  0.12500000000E+03 0.  0.
<mgrwt>
<rscale>  0 0.12500000E+03</rscale>
<asrwt>0</asrwt>
<pdfrwt beam="1">  1       21 0.59585191E-03 0.12500000E+03</pdfrwt>
<pdfrwt beam="2">  1       21 0.15516544E+00 0.12500000E+03</pdfrwt>
<totfact> 0.23310195E+06</totfact>
</mgrwt>
</event>
<event>
 3    1  0.1594457E-001  0.1250000E+03  0.7546771E-02  0.1235069E+00
         21   -1    0    0  502  501  0.00000000000E+00  0.00000000000E+00  0.11043412858E+03  0.11043412858E+03  0.00000000000E+00 0.  1.
         21   -1    0    0  501  502 -0.00000000000E+00 -0.00000000000E+00 -0.35371764599E+02  0.35371764599E+02  0.00000000000E+00 0.  1.
         25    1    1    2    0    0  0.00000000000E+00  0.00000000000E+00  0.75062363986E+02  0.14580589318E+03  0.12500000000E+03 0.  0.
<mgrwt>
<rscale>  0 0.12500000E+03</rscale>
<asrwt>0</asrwt>
<pdfrwt beam="1">  1       21 0.16989866E-01 0.12500000E+03</pdfrwt>
<pdfrwt beam="2">  1       21 0.54418100E-02 0.12500000E+03</pdfrwt>
<totfact> 0.71290124E+06</totfact>
</mgrwt>
</event>
<event>
 3    1  0.1594457E-001  0.1250000E+03  0.7546771E-02  0.1235069E+00
         21   -1    0    0  502  501  0.00000000000E+00  0.00000000000E+00  0.42739526917E+03  0.42739526917E+03  0.00000000000E+00 0. -1.
         21   -1    0    0  501  502 -0.00000000000E+00 -0.00000000000E+00 -0.91396659761E+01  0.91396659761E+01  0.00000000000E+00 0. -1.
         25    1    1    2    0    0  0.00000000000E+00  0.00000000000E+00  0.41825560320E+03  0.43653493515E+03  0.12500000000E+03 0.  0.
<mgrwt>
<rscale>  0 0.12500000E+03</rscale>
<asrwt>0</asrwt>
<pdfrwt beam="1">  1       21 0.65753103E-01 0.12500000E+03</pdfrwt>
<pdfrwt beam="2">  1       21 0.14061028E-02 0.12500000E+03</pdfrwt>
<totfact> 0.45708823E+06</totfact>
</mgrwt>
</event>
<event>
 3    1  0.1594457E-001  0.1250000E+03  0.7546771E-02  0.1235069E+00
         21   -1    0    0  502  501  0.00000000000E+00  0.00000000000E+00  0.20128305763E+03  0.20128305763E+03  0.00000000000E+00 0. -1.
         21   -1    0    0  501  502 -0.00000000000E+00 -0.00000000000E+00 -0.19406750106E+02  0.19406750106E+02  0.00000000000E+00 0. -1.
         25    1    1    2    0    0  0.00000000000E+00  0.00000000000E+00  0.18187630753E+03  0.22068980774E+03  0.12500000000E+03 0.  0.
<mgrwt>
<rscale>  0 0.12500000E+03</rscale>
<asrwt>0</asrwt>
<pdfrwt beam="1">  1       21 0.30966623E-01 0.12500000E+03</pdfrwt>
<pdfrwt beam="2">  1       21 0.29856540E-02 0.12500000E+03</pdfrwt>
<totfact> 0.62752098E+06</totfact>
</mgrwt>
</event>
<event>
 3    1  0.1594457E-001  0.1250000E+03  0.7546771E-02  0.1235069E+00
         21   -1    0    0  502  501  0.00000000000E+00  0.00000000000E+00  0.43595110420E+02  0.43595110420E+02  0.00000000000E+00 0. -1.
         21   -1    0    0  501  502 -0.00000000000E+00 -0.00000000000E+00 -0.89602938548E+02  0.89602938548E+02  0.00000000000E+00 0. -1.
         25    1    1    2    0    0  0.00000000000E+00  0.00000000000E+00 -0.46007828128E+02  0.13319804897E+03  0.12500000000E+03 0.  0.
<mgrwt>
<rscale>  0 0.12500000E+03</rscale>
<asrwt>0</asrwt>
<pdfrwt beam="1">  1       21 0.67069400E-02 0.12500000E+03</pdfrwt>
<pdfrwt beam="2">  1       21 0.13785068E-01 0.12500000E+03</pdfrwt>
<totfact> 0.72935963E+06</totfact>
</mgrwt>
</event>
<event>
 3    1  0.1594457E-001  0.1250000E+03  0.7546771E-02  0.1235069E+00
         21   -1    0    0  502  501  0.00000000000E+00  0.00000000000E+00  0.33412312851E+02  0.33412312851E+02  0.00000000000E+00 0.  1.
         21   -1    0    0  501  502 -0.00000000000E+00 -0.00000000000E+00 -0.11691049397E+03  0.11691049397E+03  0.00000000000E+00 0.  1.
         25    1    1    2    0    0  0.00000000000E+00  0.00000000000E+00 -0.83498181117E+02  0.15032280682E+03  0.12500000000E+03 0.  0.
<mgrwt>
<rscale>  0 0.12500000E+03</rscale>
<asrwt>0</asrwt>
<pdfrwt beam="1">  1       21 0.51403558E-02 0.12500000E+03</pdfrwt>
<pdfrwt beam="2">  1       21 0.17986230E-01 0.12500000E+03</pdfrwt>
<totfact> 0.70718674E+06</totfact>
</mgrwt>
</event>
<event>
 3    1  0.1594457E-001  0.1250000E+03  0.7546771E-02  0.1235069E+00
         21   -1    0    0  502  501  0.00000000000E+00  0.00000000000E+00  0.38348441951E+03  0.38348441951E+03  0.00000000000E+00 0.  1.
         21   -1    0    0  501  502 -0.00000000000E+00 -0.00000000000E+00 -0.10186202623E+02  0.10186202623E+02  0.00000000000E+00 0.  1.
         25    1    1    2    0    0  0.00000000000E+00  0.00000000000E+00  0.37329821689E+03  0.39367062214E+03  0.12500000000E+03 0.  0.
<mgrwt>
<rscale>  0 0.12500000E+03</rscale>
<asrwt>0</asrwt>
<pdfrwt beam="1">  1       21 0.58997592E-01 0.12500000E+03</pdfrwt>
<pdfrwt beam="2">  1       21 0.15671084E-02 0.12500000E+03</pdfrwt>
<totfact> 0.48464029E+06</totfact>
</mgrwt>
</event>
<event>
 3    1  0.1594457E-001  0.1250000E+03  0.7546771E-02  0.1235069E+00
         21   -1    0    0  502  501  0.00000000000E+00  0.00000000000E+00  0.12577416413E+02  0.12577416413E+02  0.00000000000E+00 0. -1.
         21   -1    0    0  501  502 -0.00000000000E+00 -0.00000000000E+00 -0.31057650250E+03  0.31057650250E+03  0.00000000000E+00 0. -1.
         25    1    1    2    0    0  0.00000000000E+00  0.00000000000E+00 -0.29799908609E+03  0.32315391892E+03  0.12500000000E+03 0.  0.
<mgrwt>
<rscale>  0 0.12500000E+03</rscale>
<asrwt>0</asrwt>
<pdfrwt beam="1">  1       21 0.19349871E-02 0.12500000E+03</pdfrwt>
<pdfrwt beam="2">  1       21 0.47781002E-01 0.12500000E+03</pdfrwt>
<totfact> 0.53584352E+06</totfact>
</mgrwt>
</event>
<event>
 3    1  0.1594457E-001  0.1250000E+03  0.7546771E-02  0.1235069E+00
         21   -1    0    0  502  501  0.00000000000E+00  0.00000000000E+00  0.11420653541E+03  0.11420653541E+03  0.00000000000E+00 0.  1.
         21   -1    0    0  501  502 -0.00000000000E+00 -0.00000000000E+00 -0.34203384124E+02  0.34203384124E+02  0.00000000000E+00 0.  1.
         25    1    1    2    0    0  0.00000000000E+00  0.00000000000E+00  0.80003151283E+02  0.14840991953E+03  0.12500000000E+03 0.  0.
<mgrwt>
<rscale>  0 0.12500000E+03</rscale>
<asrwt>0</asrwt>
<pdfrwt beam="1">  1       21 0.17570236E-01 0.12500000E+03</pdfrwt>
<pdfrwt beam="2">  1       21 0.52620591E-02 0.12500000E+03</pdfrwt>
<totfact> 0.70959520E+06</totfact>
</mgrwt>
</event>
<event>
 3    1  0.1594457E-001  0.1250000E+03  0.7546771E-02  0.1235069E+00
         21   -1    0    0  502  501  0.00000000000E+00  0.00000000000E+00  0.93990111261E+02  0.93990111261E+02  0.00000000000E+00 0. -1.
         21   -1    0    0  501  502 -0.00000000000E+00 -0.00000000000E+00 -0.41560223172E+02  0.41560223172E+02  0.00000000000E+00 0. -1.
         25    1    1    2    0    0  0.00000000000E+00  0.00000000000E+00  0.52429888089E+02  0.13555033443E+03  0.12500000000E+03 0.  0.
<mgrwt>
<rscale>  0 0.12500000E+03</rscale>
<asrwt>0</asrwt>
<pdfrwt beam="1">  1       21 0.14460017E-01 0.12500000E+03</pdfrwt>
<pdfrwt beam="2">  1       21 0.63938805E-02 0.12500000E+03</pdfrwt>
<totfact> 0.72623686E+06</totfact>
</mgrwt>
</event>
<event>
 3    1  0.1594457E-001  0.1250000E+03  0.7546771E-02  0.1235069E+00
         21   -1    0    0  502  501  0.00000000000E+00  0.00000000000E+00  0.30501066163E+03  0.30501066163E+03  0.00000000000E+00 0. -1.
         21   -1    0    0  501  502 -0.00000000000E+00 -0.00000000000E+00 -0.12806929368E+02  0.12806929368E+02  0.00000000000E+00 0. -1.
         25    1    1    2    0    0  0.00000000000E+00  0.00000000000E+00  0.29220373226E+03  0.31781759099E+03  0.12500000000E+03 0.  0.
<mgrwt>
<rscale>  0 0.12500000E+03</rscale>
<asrwt>0</asrwt>
<pdfrwt beam="1">  1       21 0.46924712E-01 0.12500000E+03</pdfrwt>
<pdfrwt beam="2">  1       21 0.19702971E-02 0.12500000E+03</pdfrwt>
<totfact> 0.54006744E+06</totfact>
</mgrwt>
</event>
<event>
 3    1  0.1594457E-001  0.1250000E+03  0.7546771E-02  0.1235069E+00
         21   -1    0    0  502  501  0.00000000000E+00  0.00000000000E+00  0.22782562205E+03  0.22782562205E+03  0.00000000000E+00 0. -1.
         21   -1    0    0  501  502 -0.00000000000E+00 -0.00000000000E+00 -0.17145788805E+02  0.17145788805E+02  0.00000000000E+00 0. -1.
         25    1    1    2    0    0  0.00000000000E+00  0.00000000000E+00  0.21067983324E+03  0.24497141085E+03  0.12500000000E+03 0.  0.
<mgrwt>
<rscale>  0 0.12500000E+03</rscale>
<asrwt>0</asrwt>
<pdfrwt beam="1">  1       21 0.35050093E-01 0.12500000E+03</pdfrwt>
<pdfrwt beam="2">  1       21 0.26378138E-02 0.12500000E+03</pdfrwt>
<totfact> 0.60354882E+06</totfact>
</mgrwt>
</event>
<event>
 3    1  0.1594457E-001  0.1250000E+03  0.7546771E-02  0.1235069E+00
         21   -1    0    0  502  501  0.00000000000E+00  0.00000000000E+00  0.15633304421E+02  0.15633304421E+02  0.00000000000E+00 0.  1.
         21   -1    0    0  501  502 -0.00000000000E+00 -0.00000000000E+00 -0.24986719985E+03  0.24986719985E+03  0.00000000000E+00 0.  1.
         25    1    1    2    0    0  0.00000000000E+00  0.00000000000E+00 -0.23423389543E+03  0.26550050427E+03  0.12500000000E+03 0.  0.
<mgrwt>
<rscale>  0 0.12500000E+03</rscale>
<asrwt>0</asrwt>
<pdfrwt beam="1">  1       21 0.24051238E-02 0.12500000E+03</pdfrwt>
<pdfrwt beam="2">  1       21 0.38441107E-01 0.12500000E+03</pdfrwt>
<totfact> 0.58448761E+06</totfact>
</mgrwt>
</event>
<event>
 3    1  0.1594457E-001  0.1250000E+03  0.7546771E-02  0.1235069E+00
         21   -1    0    0  502  501  0.00000000000E+00  0.00000000000E+00  0.28539755694E+03  0.28539755694E+03  0.00000000000E+00 0. -1.
         21   -1    0    0  501  502 -0.00000000000E+00 -0.00000000000E+00 -0.13687047786E+02  0.13687047786E+02  0.00000000000E+00 0. -1.
         25    1    1    2    0    0  0.00000000000E+00  0.00000000000E+00  0.27171050916E+03  0.29908460473E+03  0.12500000000E+03 0.  0.
<mgrwt>
<rscale>  0 0.12500000E+03</rscale>
<asrwt>0</asrwt>
<pdfrwt beam="1">  1       21 0.43907312E-01 0.12500000E+03</pdfrwt>
<pdfrwt beam="2">  1       21 0.21056999E-02 0.12500000E+03</pdfrwt>
<totfact> 0.55532334E+06</totfact>
</mgrwt>
</event>
<event>
 3    1  0.1594457E-001  0.1250000E+03  0.7546771E-02  0.1235069E+00
         21   -1    0    0  502  501  0.00000000000E+00  0.00000000000E+00  0.27399005476E+02  0.27399005476E+02  0.00000000000E+00 0. -1.
         21   -1    0    0  501  502 -0.00000000000E+00 -0.00000000000E+00 -0.14256904337E+03  0.14256904337E+03  0.00000000000E+00 0. -1.
         25    1    1    2    0    0  0.00000000000E+00  0.00000000000E+00 -0.11517003790E+03  0.16996804885E+03  0.12500000000E+03 0.  0.
<mgrwt>
<rscale>  0 0.12500000E+03</rscale>
<asrwt>0</asrwt>
<pdfrwt beam="1">  1       21 0.42152316E-02 0.12500000E+03</pdfrwt>
<pdfrwt beam="2">  1       21 0.21933699E-01 0.12500000E+03</pdfrwt>
<totfact> 0.68321423E+06</totfact>
</mgrwt>
</event>
<event>
 3    1  0.1594457E-001  0.1250000E+03  0.7546771E-02  0.1235069E+00
         21   -1    0    0  502  501  0.00000000000E+00  0.00000000000E+00  0.11544569434E+02  0.11544569434E+02  0.00000000000E+00 0.  1.
         21   -1    0    0  501  502 -0.00000000000E+00 -0.00000000000E+00 -0.33836255414E+03  0.33836255414E+03  0.00000000000E+00 0.  1.
         25    1    1    2    0    0  0.00000000000E+00  0.00000000000E+00 -0.32681798470E+03  0.34990712357E+03  0.12500000000E+03 0.  0.
<mgrwt>
<rscale>  0 0.12500000E+03</rscale>
<asrwt>0</asrwt>
<pdfrwt beam="1">  1       21 0.17760874E-02 0.12500000E+03</pdfrwt>
<pdfrwt beam="2">  1       21 0.52055783E-01 0.12500000E+03</pdfrwt>
<totfact> 0.51545289E+06</totfact>
</mgrwt>
</event>
<event>
 3    1  0.1594457E-001  0.1250000E+03  0.7546771E-02  0.1235069E+00
         21   -1    0    0  502  501  0.00000000000E+00  0.00000000000E+00  0.22518385630E+03  0.22518385630E+03  0.00000000000E+00 0.  1.
         21   -1    0    0  501  502 -0.00000000000E+00 -0.00000000000E+00 -0.17346936251E+02  0.17346936251E+02  0.00000000000E+00 0.  1.
         25    1    1    2    0    0  0.00000000000E+00  0.00000000000E+00  0.20783692005E+03  0.24253079255E+03  0.12500000000E+03 0.  0.
<mgrwt>
<rscale>  0 0.12500000E+03</rscale>
<asrwt>0</asrwt>
<pdfrwt beam="1">  1       21 0.34643668E-01 0.12500000E+03</pdfrwt>
<pdfrwt beam="2">  1       21 0.26687596E-02 0.12500000E+03</pdfrwt>
<totfact> 0.60588620E+06</totfact>
</mgrwt>
</event>
<event>
 3    1  0.1594457E-001  0.1250000E+03  0.7546771E-02  0.1235069E+00
         21   -1    0    0  502  501  0.00000000000E+00  0.00000000000E+00  0.14776439982E+02  0.14776439982E+02  0.00000000000E+00 0. -1.
         21   -1    0    0  501  502 -0.00000000000E+00 -0.00000000000E+00 -0.26435663831E+03  0.26435663831E+03  0.00000000000E+00 0. -1.
         25    1    1    2    0    0  0.00000000000E+00  0.00000000000E+00 -0.24958019833E+03  0.27913307830E+03  0.12500000000E+03 0.  0.
<mgrwt>
<rscale>  0 0.12500000E+03</rscale>
<asrwt>0</asrwt>
<pdfrwt beam="1">  1       21 0.22732986E-02 0.12500000E+03</pdfrwt>
<pdfrwt beam="2">  1       21 0.40670250E-01 0.12500000E+03</pdfrwt>
<totfact> 0.57236140E+06</totfact>
</mgrwt>
</event>
<event>
 3    1  0.1594457E-001  0.1250000E+03  0.7546771E-02  0.1235069E+00
         21   -1    0    0  502  501  0.00000000000E+00  0.00000000000E+00  0.19481024200E+02  0.19481024200E+02  0.00000000000E+00 0.  1.
         21   -1    0    0  501  502 -0.00000000000E+00 -0.00000000000E+00 -0.20051563819E+03  0.20051563819E+03  0.00000000000E+00 0.  1.
         25    1    1    2    0    0  0.00000000000E+00  0.00000000000E+00 -0.18103461399E+03  0.21999666239E+03  0.12500000000E+03 0.  0.
<mgrwt>
<rscale>  0 0.12500000E+03</rscale>
<asrwt>0</asrwt>
<pdfrwt beam="1">  1       21 0.29970808E-02 0.12500000E+03</pdfrwt>
<pdfrwt beam="2">  1       21 0.30848559E-01 0.12500000E+03</pdfrwt>
<totfact> 0.62822877E+06</totfact>
</mgrwt>
</event>
<event>
 3    1  0.1594457E-001  0.1250000E+03  0.7546771E-02  0.1235069E+00
         21   -1    0    0  502  501  0.00000000000E+00  0.00000000000E+00  0.80593048832E+03  0.80593048832E+03  0.00000000000E+00 0.  1.
         21   -1    0    0  501  502 -0.00000000000E+00 -0.00000000000E+00 -0.48468820285E+01  0.48468820285E+01  0.00000000000E+00 0.  1.
         25    1    1    2    0    0  0.00000000000E+00  0.00000000000E+00  0.80108360629E+03  0.81077737034E+03  0.12500000000E+03 0.  0.
<mgrwt>
<rscale>  0 0.12500000E+03</rscale>
<asrwt>0</asrwt>
<pdfrwt beam="1">  1       21 0.12398920E+00 0.12500000E+03</pdfrwt>
<pdfrwt beam="2">  1       21 0.74567480E-03 0.12500000E+03</pdfrwt>
<totfact> 0.29008853E+06</totfact>
</mgrwt>
</event>
<event>
 3    1  0.1594457E-001  0.1250000E+03  0.7546771E-02  0.1235069E+00
         21   -1    0    0  502  501  0.00000000000E+00  0.00000000000E+00  0.50449164001E+01  0.50449164001E+01  0.00000000000E+00 0.  1.
         21   -1    0    0  501  502 -0.00000000000E+00 -0.00000000000E+00 -0.77429429750E+03  0.77429429750E+03  0.00000000000E+00 0.  1.
         25    1    1    2    0    0  0.00000000000E+00  0.00000000000E+00 -0.76924938110E+03  0.77933921390E+03  0.12500000000E+03 0.  0.
<mgrwt>
<rscale>  0 0.12500000E+03</rscale>
<asrwt>0</asrwt>
<pdfrwt beam="1">  1       21 0.77614102E-03 0.12500000E+03</pdfrwt>
<pdfrwt beam="2">  1       21 0.11912219E+00 0.12500000E+03</pdfrwt>
<totfact> 0.30058867E+06</totfact>
</mgrwt>
</event>
<event>
 3    1  0.1594457E-001  0.1250000E+03  0.7546771E-02  0.1235069E+00
         21   -1    0    0  502  501  0.00000000000E+00  0.00000000000E+00  0.31626151418E+02  0.31626151418E+02  0.00000000000E+00 0. -1.
         21   -1    0    0  501  502 -0.00000000000E+00 -0.00000000000E+00 -0.12351328963E+03  0.12351328963E+03  0.00000000000E+00 0. -1.
         25    1    1    2    0    0  0.00000000000E+00  0.00000000000E+00 -0.91887138214E+02  0.15513944105E+03  0.12500000000E+03 0.  0.
<mgrwt>
<rscale>  0 0.12500000E+03</rscale>
<asrwt>0</asrwt>
<pdfrwt beam="1">  1       21 0.48655617E-02 0.12500000E+03</pdfrwt>
<pdfrwt beam="2">  1       21 0.19002045E-01 0.12500000E+03</pdfrwt>
<totfact> 0.70118332E+06</totfact>
</mgrwt>
</event>
<event>
 3    1  0.1594457E-001  0.1250000E+03  0.7546771E-02  0.1235069E+00
         21   -1    0    0  502  501  0.00000000000E+00  0.00000000000E+00  0.26312319450E+02  0.26312319450E+02  0.00000000000E+00 0.  1.
         21   -1    0    0  501  502 -0.00000000000E+00 -0.00000000000E+00 -0.14845707568E+03  0.14845707568E+03  0.00000000000E+00 0.  1.
         25    1    1    2    0    0  0.00000000000E+00  0.00000000000E+00 -0.12214475623E+03  0.17476939513E+03  0.12500000000E+03 0.  0.
<mgrwt>
<rscale>  0 0.12500000E+03</rscale>
<asrwt>0</asrwt>
<pdfrwt beam="1">  1       21 0.40480491E-02 0.12500000E+03</pdfrwt>
<pdfrwt beam="2">  1       21 0.22839550E-01 0.12500000E+03</pdfrwt>
<totfact> 0.67756700E+06</totfact>
</mgrwt>
</event>
<event>
 3    1  0.1594457E-001  0.1250000E+03  0.7546771E-02  0.1235069E+00
         21   -1    0    0  502  501  0.00000000000E+00  0.00000000000E+00  0.59566396436E+02  0.59566396436E+02  0.00000000000E+00 0.  1.
         21   -1    0    0  501  502 -0.00000000000E+00 -0.00000000000E+00 -0.65578081498E+02  0.65578081498E+02  0.00000000000E+00 0.  1.
         25    1    1    2    0    0  0.00000000000E+00  0.00000000000E+00 -0.60116850623E+01  0.12514447793E+03  0.12500000000E+03 0.  0.
<mgrwt>
<rscale>  0 0.12500000E+03</rscale>
<asrwt>0</asrwt>
<pdfrwt beam="1">  1       21 0.91640610E-02 0.12500000E+03</pdfrwt>
<pdfrwt beam="2">  1       21 0.10088936E-01 0.12500000E+03</pdfrwt>
<totfact> 0.74024069E+06</totfact>
</mgrwt>
</event>
<event>
 3    1  0.1594457E-001  0.1250000E+03  0.7546771E-02  0.1235069E+00
         21   -1    0    0  502  501  0.00000000000E+00  0.00000000000E+00  0.35086844417E+02  0.35086844417E+02  0.00000000000E+00 0. -1.
         21   -1    0    0  501  502 -0.00000000000E+00 -0.00000000000E+00 -0.11133090094E+03  0.11133090094E+03  0.00000000000E+00 0. -1.
         25    1    1    2    0    0  0.00000000000E+00  0.00000000000E+00 -0.76244056521E+02  0.14641774535E+03  0.12500000000E+03 0.  0.
<mgrwt>
<rscale>  0 0.12500000E+03</rscale>
<asrwt>0</asrwt>
<pdfrwt beam="1">  1       21 0.53979760E-02 0.12500000E+03</pdfrwt>
<pdfrwt beam="2">  1       21 0.17127831E-01 0.12500000E+03</pdfrwt>
<totfact> 0.71212153E+06</totfact>
</mgrwt>
</event>
<event>
 3    1  0.1594457E-001  0.1250000E+03  0.7546771E-02  0.1235069E+00
         21   -1    0    0  502  501  0.00000000000E+00  0.00000000000E+00  0.13013795119E+03  0.13013795119E+03  0.00000000000E+00 0.  1.
         21   -1    0    0  501  502 -0.00000000000E+00 -0.00000000000E+00 -0.30016224817E+02  0.30016224817E+02  0.00000000000E+00 0.  1.
         25    1    1    2    0    0  0.00000000000E+00  0.00000000000E+00  0.10012172637E+03  0.16015417600E+03  0.12500000000E+03 0.  0.
<mgrwt>
<rscale>  0 0.12500000E+03</rscale>
<asrwt>0</asrwt>
<pdfrwt beam="1">  1       21 0.20021223E-01 0.12500000E+03</pdfrwt>
<pdfrwt beam="2">  1       21 0.46178808E-02 0.12500000E+03</pdfrwt>
<totfact> 0.69500662E+06</totfact>
</mgrwt>
</event>
<event>
 3    1  0.1594457E-001  0.1250000E+03  0.7546771E-02  0.1235069E+00
         21   -1    0    0  502  501  0.00000000000E+00  0.00000000000E+00  0.39167182452E+02  0.39167182452E+02  0.00000000000E+00 0. -1.
         21   -1    0    0  501  502 -0.00000000000E+00 -0.00000000000E+00 -0.99732729174E+02  0.99732729174E+02  0.00000000000E+00 0. -1.
         25    1    1    2    0    0  0.00000000000E+00  0.00000000000E+00 -0.60565546722E+02  0.13889991163E+03  0.12500000000E+03 0.  0.
<mgrwt>
<rscale>  0 0.12500000E+03</rscale>
<asrwt>0</asrwt>
<pdfrwt beam="1">  1       21 0.60257204E-02 0.12500000E+03</pdfrwt>
<pdfrwt beam="2">  1       21 0.15343497E-01 0.12500000E+03</pdfrwt>
<totfact> 0.72183250E+06</totfact>
</mgrwt>
</event>
<event>
 3    1  0.1594457E-001  0.1250000E+03  0.7546771E-02  0.1235069E+00
         21   -1    0    0  502  501  0.00000000000E+00  0.00000000000E+00  0.48871649629E+01  0.48871649629E+01  0.00000000000E+00 0.  1.
         21   -1    0    0  501  502 -0.00000000000E+00 -0.00000000000E+00 -0.79928752757E+03  0.79928752757E+03  0.00000000000E+00 0.  1.
         25    1    1    2    0    0  0.00000000000E+00  0.00000000000E+00 -0.79440036261E+03  0.80417469253E+03  0.12500000000E+03 0.  0.
<mgrwt>
<rscale>  0 0.12500000E+03</rscale>
<asrwt>0</asrwt>
<pdfrwt beam="1">  1       21 0.75187226E-03 0.12500000E+03</pdfrwt>
<pdfrwt beam="2">  1       21 0.12296719E+00 0.12500000E+03</pdfrwt>
<totfact> 0.29224986E+06</totfact>
</mgrwt>
</event>
<event>
 3    1  0.1594457E-001  0.1250000E+03  0.7546771E-02  0.1235069E+00
         21   -1    0    0  502  501  0.00000000000E+00  0.00000000000E+00  0.15704006253E+03  0.15704006253E+03  0.00000000000E+00 0. -1.
         21   -1    0    0  501  502 -0.00000000000E+00 -0.00000000000E+00 -0.24874225959E+02  0.24874225959E+02  0.00000000000E+00 0. -1.
         25    1    1    2    0    0  0.00000000000E+00  0.00000000000E+00  0.13216583657E+03  0.18191428849E+03  0.12500000000E+03 0.  0.
<mgrwt>
<rscale>  0 0.12500000E+03</rscale>
<asrwt>0</asrwt>
<pdfrwt beam="1">  1       21 0.24160009E-01 0.12500000E+03</pdfrwt>
<pdfrwt beam="2">  1       21 0.38268041E-02 0.12500000E+03</pdfrwt>
<totfact> 0.66932612E+06</totfact>
</mgrwt>
</event>
<event>
 3    1  0.1594457E-001  0.1250000E+03  0.7546771E-02  0.1235069E+00
         21   -1    0    0  502  501  0.00000000000E+00  0.00000000000E+00  0.99352238756E+01  0.99352238756E+01  0.00000000000E+00 0. -1.
         21   -1    0    0  501  502 -0.00000000000E+00 -0.00000000000E+00 -0.39317181464E+03  0.39317181464E+03  0.00000000000E+00 0. -1.
         25    1    1    2    0    0  0.00000000000E+00  0.00000000000E+00 -0.38323659076E+03  0.40310703851E+03  0.12500000000E+03 0.  0.
<mgrwt>
<rscale>  0 0.12500000E+03</rscale>
<asrwt>0</asrwt>
<pdfrwt beam="1">  1       21 0.15284959E-02 0.12500000E+03</pdfrwt>
<pdfrwt beam="2">  1       21 0.60487975E-01 0.12500000E+03</pdfrwt>
<totfact> 0.47835943E+06</totfact>
</mgrwt>
</event>
<event>
 3    1  0.1594457E-001  0.1250000E+03  0.7546771E-02  0.1235069E+00
         21   -1    0    0  502  501  0.00000000000E+00  0.00000000000E+00  0.16277735963E+03  0.16277735963E+03  0.00000000000E+00 0.  1.
         21   -1    0    0  501  502 -0.00000000000E+00 -0.00000000000E+00 -0.23997501919E+02  0.23997501919E+02  0.00000000000E+00 0.  1.
         25    1    1    2    0    0  0.00000000000E+00  0.00000000000E+00  0.13877985771E+03  0.18677486155E+03  0.12500000000E+03 0.  0.
<mgrwt>
<rscale>  0 0.12500000E+03</rscale>
<asrwt>0</asrwt>
<pdfrwt beam="1">  1       21 0.25042670E-01 0.12500000E+03</pdfrwt>
<pdfrwt beam="2">  1       21 0.36919235E-02 0.12500000E+03</pdfrwt>
<totfact> 0.66382715E+06</totfact>
</mgrwt>
</event>
<event>
 3    1  0.1594457E-001  0.1250000E+03  0.7546771E-02  0.1235069E+00
         21   -1    0    0  502  501  0.00000000000E+00  0.00000000000E+00  0.17804289178E+02  0.17804289178E+02  0.00000000000E+00 0. -1.
         21   -1    0    0  501  502 -0.00000000000E+00 -0.00000000000E+00 -0.21939937960E+03  0.21939937960E+03  0.00000000000E+00 0. -1.
         25    1    1    2    0    0  0.00000000000E+00  0.00000000000E+00 -0.20159509043E+03  0.23720366878E+03  0.12500000000E+03 0.  0.
<mgrwt>
<rscale>  0 0.12500000E+03</rscale>
<asrwt>0</asrwt>
<pdfrwt beam="1">  1       21 0.27391212E-02 0.12500000E+03</pdfrwt>
<pdfrwt beam="2">  1       21 0.33753754E-01 0.12500000E+03</pdfrwt>
<totfact> 0.61104310E+06</totfact>
</mgrwt>
</event>
<event>
 3    1  0.1594457E-001  0.1250000E+03  0.7546771E-02  0.1235069E+00
         21   -1    0    0  502  501  0.00000000000E+00  0.00000000000E+00  0.97078106871E+03  0.97078106871E+03  0.00000000000E+00 0. -1.
         21   -1    0    0  501  502 -0.00000000000E+00 -0.00000000000E+00 -0.40238217719E+01  0.40238217719E+01  0.00000000000E+00 0. -1.
         25    1    1    2    0    0  0.00000000000E+00  0.00000000000E+00  0.96675724694E+03  0.97480489049E+03  0.12500000000E+03 0.  0.
<mgrwt>
<rscale>  0 0.12500000E+03</rscale>
<asrwt>0</asrwt>
<pdfrwt beam="1">  1       21 0.14935075E+00 0.12500000E+03</pdfrwt>
<pdfrwt beam="2">  1       21 0.61905028E-03 0.12500000E+03</pdfrwt>
<totfact> 0.24258873E+06</totfact>
</mgrwt>
</event>
<event>
 3    1  0.1594457E-001  0.1250000E+03  0.7546771E-02  0.1235069E+00
         21   -1    0    0  502  501  0.00000000000E+00  0.00000000000E+00  0.29266405518E+02  0.29266405518E+02  0.00000000000E+00 0. -1.
         21   -1    0    0  501  502 -0.00000000000E+00 -0.00000000000E+00 -0.13347214770E+03  0.13347214770E+03  0.00000000000E+00 0. -1.
         25    1    1    2    0    0  0.00000000000E+00  0.00000000000E+00 -0.10420574219E+03  0.16273855322E+03  0.12500000000E+03 0.  0.
<mgrwt>
<rscale>  0 0.12500000E+03</rscale>
<asrwt>0</asrwt>
<pdfrwt beam="1">  1       21 0.45025239E-02 0.12500000E+03</pdfrwt>
<pdfrwt beam="2">  1       21 0.20534177E-01 0.12500000E+03</pdfrwt>
<totfact> 0.69186413E+06</totfact>
</mgrwt>
</event>
<event>
 3    1  0.1594457E-001  0.1250000E+03  0.7546771E-02  0.1235069E+00
         21   -1    0    0  502  501  0.00000000000E+00  0.00000000000E+00  0.30685637465E+03  0.30685637465E+03  0.00000000000E+00 0.  1.
         21   -1    0    0  501  502 -0.00000000000E+00 -0.00000000000E+00 -0.12729896860E+02  0.12729896860E+02  0.00000000000E+00 0.  1.
         25    1    1    2    0    0  0.00000000000E+00  0.00000000000E+00  0.29412647779E+03  0.31958627151E+03  0.12500000000E+03 0.  0.
<mgrwt>
<rscale>  0 0.12500000E+03</rscale>
<asrwt>0</asrwt>
<pdfrwt beam="1">  1       21 0.47208668E-01 0.12500000E+03</pdfrwt>
<pdfrwt beam="2">  1       21 0.19584459E-02 0.12500000E+03</pdfrwt>
<totfact> 0.53866147E+06</totfact>
</mgrwt>
</event>
<event>
 3    1  0.1594457E-001  0.1250000E+03  0.7546771E-02  0.1235069E+00
         21   -1    0    0  502  501  0.00000000000E+00  0.00000000000E+00  0.55820228004E+01  0.55820228004E+01  0.00000000000E+00 0.  1.
         21   -1    0    0  501  502 -0.00000000000E+00 -0.00000000000E+00 -0.69979112226E+03  0.69979112226E+03  0.00000000000E+00 0.  1.
         25    1    1    2    0    0  0.00000000000E+00  0.00000000000E+00 -0.69420909946E+03  0.70537314507E+03  0.12500000000E+03 0.  0.
<mgrwt>
<rscale>  0 0.12500000E+03</rscale>
<asrwt>0</asrwt>
<pdfrwt beam="1">  1       21 0.85877245E-03 0.12500000E+03</pdfrwt>
<pdfrwt beam="2">  1       21 0.10766021E+00 0.12500000E+03</pdfrwt>
<totfact> 0.32704005E+06</totfact>
</mgrwt>
</event>
<event>
 3    1  0.1594457E-001  0.1250000E+03  0.7546771E-02  0.1235069E+00
         21   -1    0    0  502  501  0.00000000000E+00  0.00000000000E+00  0.27641214819E+03  0.27641214819E+03  0.00000000000E+00 0. -1.
         21   -1    0    0  501  502 -0.00000000000E+00 -0.00000000000E+00 -0.14131976563E+02  0.14131976563E+02  0.00000000000E+00 0. -1.
         25    1    1    2    0    0  0.00000000000E+00  0.00000000000E+00  0.26228017163E+03  0.29054412475E+03  0.12500000000E+03 0.  0.
<mgrwt>
<rscale>  0 0.12500000E+03</rscale>
<asrwt>0</asrwt>
<pdfrwt beam="1">  1       21 0.42524942E-01 0.12500000E+03</pdfrwt>
<pdfrwt beam="2">  1       21 0.21741504E-02 0.12500000E+03</pdfrwt>
<totfact> 0.56251266E+06</totfact>
</mgrwt>
</event>
<event>
 3    1  0.1594457E-001  0.1250000E+03  0.7546771E-02  0.1235069E+00
         21   -1    0    0  502  501  0.00000000000E+00  0.00000000000E+00  0.14879720623E+04  0.14879720623E+04  0.00000000000E+00 0.  1.
         21   -1    0    0  501  502 -0.00000000000E+00 -0.00000000000E+00 -0.26252173001E+01  0.26252173001E+01  0.00000000000E+00 0.  1.
         25    1    1    2    0    0  0.00000000000E+00  0.00000000000E+00  0.14853468450E+04  0.14905972796E+04  0.12500000000E+03 0.  0.
<mgrwt>
<rscale>  0 0.12500000E+03</rscale>
<asrwt>0</asrwt>
<pdfrwt beam="1">  1       21 0.22891811E+00 0.12500000E+03</pdfrwt>
<pdfrwt beam="2">  1       21 0.40388077E-03 0.12500000E+03</pdfrwt>
<totfact> 0.14133327E+06</totfact>
</mgrwt>
</event>
<event>
 3    1  0.1594457E-001  0.1250000E+03  0.7546771E-02  0.1235069E+00
         21   -1    0    0  502  501  0.00000000000E+00  0.00000000000E+00  0.98625790815E+01  0.98625790815E+01  0.00000000000E+00 0.  1.
         21   -1    0    0  501  502 -0.00000000000E+00 -0.00000000000E+00 -0.39606780009E+03  0.39606780009E+03  0.00000000000E+00 0.  1.
         25    1    1    2    0    0  0.00000000000E+00  0.00000000000E+00 -0.38620522101E+03  0.40593037917E+03  0.12500000000E+03 0.  0.
<mgrwt>
<rscale>  0 0.12500000E+03</rscale>
<asrwt>0</asrwt>
<pdfrwt beam="1">  1       21 0.15173199E-02 0.12500000E+03</pdfrwt>
<pdfrwt beam="2">  1       21 0.60933507E-01 0.12500000E+03</pdfrwt>
<totfact> 0.47650467E+06</totfact>
</mgrwt>
</event>
<event>
 3    1  0.1594457E-001  0.1250000E+03  0.7546771E-02  0.1235069E+00
         21   -1    0    0  502  501  0.00000000000E+00  0.00000000000E+00  0.15510566468E+02  0.15510566468E+02  0.00000000000E+00 0.  1.
         21   -1    0    0  501  502 -0.00000000000E+00 -0.00000000000E+00 -0.25184444475E+03  0.25184444475E+03  0.00000000000E+00 0.  1.
         25    1    1    2    0    0  0.00000000000E+00  0.00000000000E+00 -0.23633387828E+03  0.26735501122E+03  0.12500000000E+03 0.  0.
<mgrwt>
<rscale>  0 0.12500000E+03</rscale>
<asrwt>0</asrwt>
<pdfrwt beam="1">  1       21 0.23862408E-02 0.12500000E+03</pdfrwt>
<pdfrwt beam="2">  1       21 0.38745303E-01 0.12500000E+03</pdfrwt>
<totfact> 0.58281633E+06</totfact>
</mgrwt>
</event>
<event>
 3    1  0.1594457E-001  0.1250000E+03  0.7546771E-02  0.1235069E+00
         21   -1    0    0  502  501  0.00000000000E+00  0.00000000000E+00  0.38544177064E+02  0.38544177064E+02  0.00000000000E+00 0. -1.
         21   -1    0    0  501  502 -0.00000000000E+00 -0.00000000000E+00 -0.10134475030E+03  0.10134475030E+03  0.00000000000E+00 0. -1.
         25    1    1    2    0    0  0.00000000000E+00  0.00000000000E+00 -0.62800573236E+02  0.13988892736E+03  0.12500000000E+03 0.  0.
<mgrwt>
<rscale>  0 0.12500000E+03</rscale>
<asrwt>0</asrwt>
<pdfrwt beam="1">  1       21 0.59298735E-02 0.12500000E+03</pdfrwt>
<pdfrwt beam="2">  1       21 0.15591500E-01 0.12500000E+03</pdfrwt>
<totfact> 0.72053812E+06</totfact>
</mgrwt>
</event>
<event>
 3    1  0.1594457E-001  0.1250000E+03  0.7546771E-02  0.1235069E+00
         21   -1    0    0  502  501  0.00000000000E+00  0.00000000000E+00  0.35115802467E+02  0.35115802467E+02  0.00000000000E+00 0. -1.
         21   -1    0    0  501  502 -0.00000000000E+00 -0.00000000000E+00 -0.11123909253E+03  0.11123909253E+03  0.00000000000E+00 0. -1.
         25    1    1    2    0    0  0.00000000000E+00  0.00000000000E+00 -0.76123290066E+02  0.14635489500E+03  0.12500000000E+03 0.  0.
<mgrwt>
<rscale>  0 0.12500000E+03</rscale>
<asrwt>0</asrwt>
<pdfrwt beam="1">  1       21 0.54024312E-02 0.12500000E+03</pdfrwt>
<pdfrwt beam="2">  1       21 0.17113706E-01 0.12500000E+03</pdfrwt>
<totfact> 0.71220154E+06</totfact>
</mgrwt>
</event>
<event>
 3    1  0.1594457E-001  0.1250000E+03  0.7546771E-02  0.1235069E+00
         21   -1    0    0  502  501  0.00000000000E+00  0.00000000000E+00  0.19794994664E+02  0.19794994664E+02  0.00000000000E+00 0. -1.
         21   -1    0    0  501  502 -0.00000000000E+00 -0.00000000000E+00 -0.19733523884E+03  0.19733523884E+03  0.00000000000E+00 0. -1.
         25    1    1    2    0    0  0.00000000000E+00  0.00000000000E+00 -0.17754024418E+03  0.21713023351E+03  0.12500000000E+03 0.  0.
<mgrwt>
<rscale>  0 0.12500000E+03</rscale>
<asrwt>0</asrwt>
<pdfrwt beam="1">  1       21 0.30453839E-02 0.12500000E+03</pdfrwt>
<pdfrwt beam="2">  1       21 0.30359267E-01 0.12500000E+03</pdfrwt>
<totfact> 0.63117074E+06</totfact>
</mgrwt>
</event>
<event>
 3    1  0.1594457E-001  0.1250000E+03  0.7546771E-02  0.1235069E+00
         21   -1    0    0  502  501  0.00000000000E+00  0.00000000000E+00  0.14978206840E+02  0.14978206840E+02  0.00000000000E+00 0. -1.
         21   -1    0    0  501  502 -0.00000000000E+00 -0.00000000000E+00 -0.26079557065E+03  0.26079557065E+03  0.00000000000E+00 0. -1.
         25    1    1    2    0    0  0.00000000000E+00  0.00000000000E+00 -0.24581736381E+03  0.27577377749E+03  0.12500000000E+03 0.  0.
<mgrwt>
<rscale>  0 0.12500000E+03</rscale>
<asrwt>0</asrwt>
<pdfrwt beam="1">  1       21 0.23043394E-02 0.12500000E+03</pdfrwt>
<pdfrwt beam="2">  1       21 0.40122398E-01 0.12500000E+03</pdfrwt>
<totfact> 0.57531537E+06</totfact>
</mgrwt>
</event>
<event>
 3    1  0.1594457E-001  0.1250000E+03  0.7546771E-02  0.1235069E+00
         21   -1    0    0  502  501  0.00000000000E+00  0.00000000000E+00  0.65677066709E+02  0.65677066709E+02  0.00000000000E+00 0.  1.
         21   -1    0    0  501  502 -0.00000000000E+00 -0.00000000000E+00 -0.59476620923E+02  0.59476620923E+02  0.00000000000E+00 0.  1.
         25    1    1    2    0    0  0.00000000000E+00  0.00000000000E+00  0.62004457853E+01  0.12515368763E+03  0.12500000000E+03 0.  0.
<mgrwt>
<rscale>  0 0.12500000E+03</rscale>
<asrwt>0</asrwt>
<pdfrwt beam="1">  1       21 0.10104164E-01 0.12500000E+03</pdfrwt>
<pdfrwt beam="2">  1       21 0.91502493E-02 0.12500000E+03</pdfrwt>
<totfact> 0.74022825E+06</totfact>
</mgrwt>
</event>
<event>
 3    1  0.1594457E-001  0.1250000E+03  0.7546771E-02  0.1235069E+00
         21   -1    0    0  502  501  0.00000000000E+00  0.00000000000E+00  0.20638125013E+03  0.20638125013E+03  0.00000000000E+00 0.  1.
         21   -1    0    0  501  502 -0.00000000000E+00 -0.00000000000E+00 -0.18927349251E+02  0.18927349251E+02  0.00000000000E+00 0.  1.
         25    1    1    2    0    0  0.00000000000E+00  0.00000000000E+00  0.18745390088E+03  0.22530859938E+03  0.12500000000E+03 0.  0.
<mgrwt>
<rscale>  0 0.12500000E+03</rscale>
<asrwt>0</asrwt>
<pdfrwt beam="1">  1       21 0.31750960E-01 0.12500000E+03</pdfrwt>
<pdfrwt beam="2">  1       21 0.29119000E-02 0.12500000E+03</pdfrwt>
<totfact> 0.62283976E+06</totfact>
</mgrwt>
</event>
<event>
 3    1  0.1594457E-001  0.1250000E+03  0.7546771E-02  0.1235069E+00
         21   -1    0    0  502  501  0.00000000000E+00  0.00000000000E+00  0.20370760787E+03  0.20370760787E+03  0.00000000000E+00 0. -1.
         21   -1    0    0  501  502 -0.00000000000E+00 -0.00000000000E+00 -0.19175768843E+02  0.19175768843E+02  0.00000000000E+00 0. -1.
         25    1    1    2    0    0  0.00000000000E+00  0.00000000000E+00  0.18453183903E+03  0.22288337671E+03  0.12500000000E+03 0.  0.
<mgrwt>
<rscale>  0 0.12500000E+03</rscale>
<asrwt>0</asrwt>
<pdfrwt beam="1">  1       21 0.31339630E-01 0.12500000E+03</pdfrwt>
<pdfrwt beam="2">  1       21 0.29501184E-02 0.12500000E+03</pdfrwt>
<totfact> 0.62529027E+06</totfact>
</mgrwt>
</event>
<event>
 3    1  0.1594457E-001  0.1250000E+03  0.7546771E-02  0.1235069E+00
         21   -1    0    0  502  501  0.00000000000E+00  0.00000000000E+00  0.13084793324E+03  0.13084793324E+03  0.00000000000E+00 0.  1.
         21   -1    0    0  501  502 -0.00000000000E+00 -0.00000000000E+00 -0.29853356514E+02  0.29853356514E+02  0.00000000000E+00 0.  1.
         25    1    1    2    0    0  0.00000000000E+00  0.00000000000E+00  0.10099457672E+03  0.16070128975E+03  0.12500000000E+03 0.  0.
<mgrwt>
<rscale>  0 0.12500000E+03</rscale>
<asrwt>0</asrwt>
<pdfrwt beam="1">  1       21 0.20130451E-01 0.12500000E+03</pdfrwt>
<pdfrwt beam="2">  1       21 0.45928242E-02 0.12500000E+03</pdfrwt>
<totfact> 0.69433907E+06</totfact>
</mgrwt>
</event>
<event>
 3    1  0.1594457E-001  0.1250000E+03  0.7546771E-02  0.1235069E+00
         21   -1    0    0  502  501  0.00000000000E+00  0.00000000000E+00  0.71078440069E+03  0.71078440069E+03  0.00000000000E+00 0.  1.
         21   -1    0    0  501  502 -0.00000000000E+00 -0.00000000000E+00 -0.54956889828E+01  0.54956889828E+01  0.00000000000E+00 0.  1.
         25    1    1    2    0    0  0.00000000000E+00  0.00000000000E+00  0.70528871171E+03  0.71628008968E+03  0.12500000000E+03 0.  0.
<mgrwt>
<rscale>  0 0.12500000E+03</rscale>
<asrwt>0</asrwt>
<pdfrwt beam="1">  1       21 0.10935137E+00 0.12500000E+03</pdfrwt>
<pdfrwt beam="2">  1       21 0.84549118E-03 0.12500000E+03</pdfrwt>
<totfact> 0.32291883E+06</totfact>
</mgrwt>
</event>
<event>
 3    1  0.1594457E-001  0.1250000E+03  0.7546771E-02  0.1235069E+00
         21   -1    0    0  502  501  0.00000000000E+00  0.00000000000E+00  0.16090109822E+03  0.16090109822E+03  0.00000000000E+00 0. -1.
         21   -1    0    0  501  502 -0.00000000000E+00 -0.00000000000E+00 -0.24277335849E+02  0.24277335849E+02  0.00000000000E+00 0. -1.
         25    1    1    2    0    0  0.00000000000E+00  0.00000000000E+00  0.13662376238E+03  0.18517843407E+03  0.12500000000E+03 0.  0.
<mgrwt>
<rscale>  0 0.12500000E+03</rscale>
<asrwt>0</asrwt>
<pdfrwt beam="1">  1       21 0.24754014E-01 0.12500000E+03</pdfrwt>
<pdfrwt beam="2">  1       21 0.37349748E-02 0.12500000E+03</pdfrwt>
<totfact> 0.66562391E+06</totfact>
</mgrwt>
</event>
<event>
 3    1  0.1594457E-001  0.1250000E+03  0.7546771E-02  0.1235069E+00
         21   -1    0    0  502  501  0.00000000000E+00  0.00000000000E+00  0.41678790581E+01  0.41678790581E+01  0.00000000000E+00 0. -1.
         21   -1    0    0  501  502 -0.00000000000E+00 -0.00000000000E+00 -0.93722729128E+03  0.93722729128E+03  0.00000000000E+00 0. -1.
         25    1    1    2    0    0  0.00000000000E+00  0.00000000000E+00 -0.93305941222E+03  0.94139517033E+03  0.12500000000E+03 0.  0.
<mgrwt>
<rscale>  0 0.12500000E+03</rscale>
<asrwt>0</asrwt>
<pdfrwt beam="1">  1       21 0.64121295E-03 0.12500000E+03</pdfrwt>
<pdfrwt beam="2">  1       21 0.14418864E+00 0.12500000E+03</pdfrwt>
<totfact> 0.25143245E+06</totfact>
</mgrwt>
</event>
<event>
 3    1  0.1594457E-001  0.1250000E+03  0.7546771E-02  0.1235069E+00
         21   -1    0    0  502  501  0.00000000000E+00  0.00000000000E+00  0.56739237708E+02  0.56739237708E+02  0.00000000000E+00 0.  1.
         21   -1    0    0  501  502 -0.00000000000E+00 -0.00000000000E+00 -0.68845655278E+02  0.68845655278E+02  0.00000000000E+00 0.  1.
         25    1    1    2    0    0  0.00000000000E+00  0.00000000000E+00 -0.12106417571E+02  0.12558489299E+03  0.12500000000E+03 0.  0.
<mgrwt>
<rscale>  0 0.12500000E+03</rscale>
<asrwt>0</asrwt>
<pdfrwt beam="1">  1       21 0.87291136E-02 0.12500000E+03</pdfrwt>
<pdfrwt beam="2">  1       21 0.10591639E-01 0.12500000E+03</pdfrwt>
<totfact> 0.73963547E+06</totfact>
</mgrwt>
</event>
<event>
 3    1  0.1594457E-001  0.1250000E+03  0.7546771E-02  0.1235069E+00
         21   -1    0    0  502  501  0.00000000000E+00  0.00000000000E+00  0.21095638201E+03  0.21095638201E+03  0.00000000000E+00 0.  1.
         21   -1    0    0  501  502 -0.00000000000E+00 -0.00000000000E+00 -0.18516860987E+02  0.18516860987E+02  0.00000000000E+00 0.  1.
         25    1    1    2    0    0  0.00000000000E+00  0.00000000000E+00  0.19243952102E+03  0.22947324300E+03  0.12500000000E+03 0.  0.
<mgrwt>
<rscale>  0 0.12500000E+03</rscale>
<asrwt>0</asrwt>
<pdfrwt beam="1">  1       21 0.32454826E-01 0.12500000E+03</pdfrwt>
<pdfrwt beam="2">  1       21 0.28487480E-02 0.12500000E+03</pdfrwt>
<totfact> 0.61866441E+06</totfact>
</mgrwt>
</event>
<event>
 3    1  0.1594457E-001  0.1250000E+03  0.7546771E-02  0.1235069E+00
         21   -1    0    0  502  501  0.00000000000E+00  0.00000000000E+00  0.75346121741E+02  0.75346121741E+02  0.00000000000E+00 0. -1.
         21   -1    0    0  501  502 -0.00000000000E+00 -0.00000000000E+00 -0.51844075179E+02  0.51844075179E+02  0.00000000000E+00 0. -1.
         25    1    1    2    0    0  0.00000000000E+00  0.00000000000E+00  0.23502046563E+02  0.12719019692E+03  0.12500000000E+03 0.  0.
<mgrwt>
<rscale>  0 0.12500000E+03</rscale>
<asrwt>0</asrwt>
<pdfrwt beam="1">  1       21 0.11591711E-01 0.12500000E+03</pdfrwt>
<pdfrwt beam="2">  1       21 0.79760116E-02 0.12500000E+03</pdfrwt>
<totfact> 0.73743267E+06</totfact>
</mgrwt>
</event>
<event>
 3    1  0.1594457E-001  0.1250000E+03  0.7546771E-02  0.1235069E+00
         21   -1    0    0  502  501  0.00000000000E+00  0.00000000000E+00  0.72222923395E+01  0.72222923395E+01  0.00000000000E+00 0.  1.
         21   -1    0    0  501  502 -0.00000000000E+00 -0.00000000000E+00 -0.54086013365E+03  0.54086013365E+03  0.00000000000E+00 0.  1.
         25    1    1    2    0    0  0.00000000000E+00  0.00000000000E+00 -0.53363784131E+03  0.54808242599E+03  0.12500000000E+03 0.  0.
<mgrwt>
<rscale>  0 0.12500000E+03</rscale>
<asrwt>0</asrwt>
<pdfrwt beam="1">  1       21 0.11111223E-02 0.12500000E+03</pdfrwt>
<pdfrwt beam="2">  1       21 0.83209222E-01 0.12500000E+03</pdfrwt>
<totfact> 0.39551000E+06</totfact>
</mgrwt>
</event>
<event>
 3    1  0.1594457E-001  0.1250000E+03  0.7546771E-02  0.1235069E+00
         21   -1    0    0  502  501  0.00000000000E+00  0.00000000000E+00  0.81936120207E+03  0.81936120207E+03  0.00000000000E+00 0. -1.
         21   -1    0    0  501  502 -0.00000000000E+00 -0.00000000000E+00 -0.47674334471E+01  0.47674334471E+01  0.00000000000E+00 0. -1.
         25    1    1    2    0    0  0.00000000000E+00  0.00000000000E+00  0.81459376862E+03  0.82412863551E+03  0.12500000000E+03 0.  0.
<mgrwt>
<rscale>  0 0.12500000E+03</rscale>
<asrwt>0</asrwt>
<pdfrwt beam="1">  1       21 0.12605546E+00 0.12500000E+03</pdfrwt>
<pdfrwt beam="2">  1       21 0.73345195E-03 0.12500000E+03</pdfrwt>
<totfact> 0.28578854E+06</totfact>
</mgrwt>
</event>
<event>
 3    1  0.1594457E-001  0.1250000E+03  0.7546771E-02  0.1235069E+00
         21   -1    0    0  502  501  0.00000000000E+00  0.00000000000E+00  0.18914735429E+02  0.18914735429E+02  0.00000000000E+00 0. -1.
         21   -1    0    0  501  502 -0.00000000000E+00 -0.00000000000E+00 -0.20651888125E+03  0.20651888125E+03  0.00000000000E+00 0. -1.
         25    1    1    2    0    0  0.00000000000E+00  0.00000000000E+00 -0.18760414582E+03  0.22543361668E+03  0.12500000000E+03 0.  0.
<mgrwt>
<rscale>  0 0.12500000E+03</rscale>
<asrwt>0</asrwt>
<pdfrwt beam="1">  1       21 0.29099595E-02 0.12500000E+03</pdfrwt>
<pdfrwt beam="2">  1       21 0.31772133E-01 0.12500000E+03</pdfrwt>
<totfact> 0.62271371E+06</totfact>
</mgrwt>
</event>
<event>
 3    1  0.1594457E-001  0.1250000E+03  0.7546771E-02  0.1235069E+00
         21   -1    0    0  502  501  0.00000000000E+00  0.00000000000E+00  0.53887628122E+03  0.53887628122E+03  0.00000000000E+00 0. -1.
         21   -1    0    0  501  502 -0.00000000000E+00 -0.00000000000E+00 -0.72488809327E+01  0.72488809327E+01  0.00000000000E+00 0. -1.
         25    1    1    2    0    0  0.00000000000E+00  0.00000000000E+00  0.53162740028E+03  0.54612516215E+03  0.12500000000E+03 0.  0.
<mgrwt>
<rscale>  0 0.12500000E+03</rscale>
<asrwt>0</asrwt>
<pdfrwt beam="1">  1       21 0.82904012E-01 0.12500000E+03</pdfrwt>
<pdfrwt beam="2">  1       21 0.11152129E-02 0.12500000E+03</pdfrwt>
<totfact> 0.39648218E+06</totfact>
</mgrwt>
</event>
<event>
 3    1  0.1594457E-001  0.1250000E+03  0.7546771E-02  0.1235069E+00
         21   -1    0    0  502  501  0.00000000000E+00  0.00000000000E+00  0.42478076645E+03  0.42478076645E+03  0.00000000000E+00 0. -1.
         21   -1    0    0  501  502 -0.00000000000E+00 -0.00000000000E+00 -0.91959201276E+01  0.91959201276E+01  0.00000000000E+00 0. -1.
         25    1    1    2    0    0  0.00000000000E+00  0.00000000000E+00  0.41558484632E+03  0.43397668658E+03  0.12500000000E+03 0.  0.
<mgrwt>
<rscale>  0 0.12500000E+03</rscale>
<asrwt>0</asrwt>
<pdfrwt beam="1">  1       21 0.65350872E-01 0.12500000E+03</pdfrwt>
<pdfrwt beam="2">  1       21 0.14147573E-02 0.12500000E+03</pdfrwt>
<totfact> 0.45866452E+06</totfact>
</mgrwt>
</event>
<event>
 3    1  0.1594457E-001  0.1250000E+03  0.7546771E-02  0.1235069E+00
         21   -1    0    0  502  501  0.00000000000E+00  0.00000000000E+00  0.31338699155E+02  0.31338699155E+02  0.00000000000E+00 0.  1.
         21   -1    0    0  501  502 -0.00000000000E+00 -0.00000000000E+00 -0.12464620757E+03  0.12464620757E+03  0.00000000000E+00 0.  1.
         25    1    1    2    0    0  0.00000000000E+00  0.00000000000E+00 -0.93307508419E+02  0.15598490673E+03  0.12500000000E+03 0.  0.
<mgrwt>
<rscale>  0 0.12500000E+03</rscale>
<asrwt>0</asrwt>
<pdfrwt beam="1">  1       21 0.48213384E-02 0.12500000E+03</pdfrwt>
<pdfrwt beam="2">  1       21 0.19176339E-01 0.12500000E+03</pdfrwt>
<totfact> 0.70013454E+06</totfact>
</mgrwt>
</event>
<event>
 3    1  0.1594457E-001  0.1250000E+03  0.7546771E-02  0.1235069E+00
         21   -1    0    0  502  501  0.00000000000E+00  0.00000000000E+00  0.80345246334E+03  0.80345246334E+03  0.00000000000E+00 0.  1.
         21   -1    0    0  501  502 -0.00000000000E+00 -0.00000000000E+00 -0.48618308839E+01  0.48618308839E+01  0.00000000000E+00 0.  1.
         25    1    1    2    0    0  0.00000000000E+00  0.00000000000E+00  0.79859063245E+03  0.80831429422E+03  0.12500000000E+03 0.  0.
<mgrwt>
<rscale>  0 0.12500000E+03</rscale>
<asrwt>0</asrwt>
<pdfrwt beam="1">  1       21 0.12360797E+00 0.12500000E+03</pdfrwt>
<pdfrwt beam="2">  1       21 0.74797462E-03 0.12500000E+03</pdfrwt>
<totfact> 0.29089208E+06</totfact>
</mgrwt>
</event>
<event>
 3    1  0.1594457E-001  0.1250000E+03  0.7546771E-02  0.1235069E+00
         21   -1    0    0  502  501  0.00000000000E+00  0.00000000000E+00  0.81444017392E+03  0.81444017392E+03  0.00000000000E+00 0. -1.
         21   -1    0    0  501  502 -0.00000000000E+00 -0.00000000000E+00 -0.47962393372E+01  0.47962393372E+01  0.00000000000E+00 0. -1.
         25    1    1    2    0    0  0.00000000000E+00  0.00000000000E+00  0.80964393459E+03  0.81923641326E+03  0.12500000000E+03 0.  0.
<mgrwt>
<rscale>  0 0.12500000E+03</rscale>
<asrwt>0</asrwt>
<pdfrwt beam="1">  1       21 0.12529838E+00 0.12500000E+03</pdfrwt>
<pdfrwt beam="2">  1       21 0.73788362E-03 0.12500000E+03</pdfrwt>
<totfact> 0.28735330E+06</totfact>
</mgrwt>
</event>
<event>
 3    1  0.1594457E-001  0.1250000E+03  0.7546771E-02  0.1235069E+00
         21   -1    0    0  502  501  0.00000000000E+00  0.00000000000E+00  0.18280756931E+02  0.18280756931E+02  0.00000000000E+00 0. -1.
         21   -1    0    0  501  502 -0.00000000000E+00 -0.00000000000E+00 -0.21368097693E+03  0.21368097693E+03  0.00000000000E+00 0. -1.
         25    1    1    2    0    0  0.00000000000E+00  0.00000000000E+00 -0.19540022000E+03  0.23196173386E+03  0.12500000000E+03 0.  0.
<mgrwt>
<rscale>  0 0.12500000E+03</rscale>
<asrwt>0</asrwt>
<pdfrwt beam="1">  1       21 0.28124241E-02 0.12500000E+03</pdfrwt>
<pdfrwt beam="2">  1       21 0.32873997E-01 0.12500000E+03</pdfrwt>
<totfact> 0.61619292E+06</totfact>
</mgrwt>
</event>
<event>
 3    1  0.1594457E-001  0.1250000E+03  0.7546771E-02  0.1235069E+00
         21   -1    0    0  502  501  0.00000000000E+00  0.00000000000E+00  0.84612759046E+02  0.84612759046E+02  0.00000000000E+00 0. -1.
         21   -1    0    0  501  502 -0.00000000000E+00 -0.00000000000E+00 -0.46166205239E+02  0.46166205239E+02  0.00000000000E+00 0. -1.
         25    1    1    2    0    0  0.00000000000E+00  0.00000000000E+00  0.38446553807E+02  0.13077896429E+03  0.12500000000E+03 0.  0.
<mgrwt>
<rscale>  0 0.12500000E+03</rscale>
<asrwt>0</asrwt>
<pdfrwt beam="1">  1       21 0.13017348E-01 0.12500000E+03</pdfrwt>
<pdfrwt beam="2">  1       21 0.71024931E-02 0.12500000E+03</pdfrwt>
<totfact> 0.73260473E+06</totfact>
</mgrwt>
</event>
<event>
 3    1  0.1594457E-001  0.1250000E+03  0.7546771E-02  0.1235069E+00
         21   -1    0    0  502  501  0.00000000000E+00  0.00000000000E+00  0.32029556203E+01  0.32029556203E+01  0.00000000000E+00 0.  1.
         21   -1    0    0  501  502 -0.00000000000E+00 -0.00000000000E+00 -0.12195766858E+04  0.12195766858E+04  0.00000000000E+00 0.  1.
         25    1    1    2    0    0  0.00000000000E+00  0.00000000000E+00 -0.12163737301E+04  0.12227796414E+04  0.12500000000E+03 0.  0.
<mgrwt>
<rscale>  0 0.12500000E+03</rscale>
<asrwt>0</asrwt>
<pdfrwt beam="1">  1       21 0.49276130E-03 0.12500000E+03</pdfrwt>
<pdfrwt beam="2">  1       21 0.18762760E+00 0.12500000E+03</pdfrwt>
<totfact> 0.18695202E+06</totfact>
</mgrwt>
</event>
<event>
 3    1  0.1594457E-001  0.1250000E+03  0.7546771E-02  0.1235069E+00
         21   -1    0    0  502  501  0.00000000000E+00  0.00000000000E+00  0.89037404449E+03  0.89037404449E+03  0.00000000000E+00 0.  1.
         21   -1    0    0  501  502 -0.00000000000E+00 -0.00000000000E+00 -0.43872011142E+01  0.43872011142E+01  0.00000000000E+00 0.  1.
         25    1    1    2    0    0  0.00000000000E+00  0.00000000000E+00  0.88598684337E+03  0.89476124560E+03  0.12500000000E+03 0.  0.
<mgrwt>
<rscale>  0 0.12500000E+03</rscale>
<asrwt>0</asrwt>
<pdfrwt beam="1">  1       21 0.13698048E+00 0.12500000E+03</pdfrwt>
<pdfrwt beam="2">  1       21 0.67495473E-03 0.12500000E+03</pdfrwt>
<totfact> 0.26450327E+06</totfact>
</mgrwt>
</event>
<event>
 3    1  0.1594457E-001  0.1250000E+03  0.7546771E-02  0.1235069E+00
         21   -1    0    0  502  501  0.00000000000E+00  0.00000000000E+00  0.24640299644E+02  0.24640299644E+02  0.00000000000E+00 0. -1.
         21   -1    0    0  501  502 -0.00000000000E+00 -0.00000000000E+00 -0.15853094550E+03  0.15853094550E+03  0.00000000000E+00 0. -1.
         25    1    1    2    0    0  0.00000000000E+00  0.00000000000E+00 -0.13389064586E+03  0.18317124514E+03  0.12500000000E+03 0.  0.
<mgrwt>
<rscale>  0 0.12500000E+03</rscale>
<asrwt>0</asrwt>
<pdfrwt beam="1">  1       21 0.37908154E-02 0.12500000E+03</pdfrwt>
<pdfrwt beam="2">  1       21 0.24389376E-01 0.12500000E+03</pdfrwt>
<totfact> 0.66789591E+06</totfact>
</mgrwt>
</event>
<event>
 3    1  0.1594457E-001  0.1250000E+03  0.7546771E-02  0.1235069E+00
         21   -1    0    0  502  501  0.00000000000E+00  0.00000000000E+00  0.11190489450E+02  0.11190489450E+02  0.00000000000E+00 0. -1.
         21   -1    0    0  501  502 -0.00000000000E+00 -0.00000000000E+00 -0.34906873532E+03  0.34906873532E+03  0.00000000000E+00 0. -1.
         25    1    1    2    0    0  0.00000000000E+00  0.00000000000E+00 -0.33787824587E+03  0.36025922477E+03  0.12500000000E+03 0.  0.
<mgrwt>
<rscale>  0 0.12500000E+03</rscale>
<asrwt>0</asrwt>
<pdfrwt beam="1">  1       21 0.17216139E-02 0.12500000E+03</pdfrwt>
<pdfrwt beam="2">  1       21 0.53702879E-01 0.12500000E+03</pdfrwt>
<totfact> 0.50789572E+06</totfact>
</mgrwt>
</event>
<event>
 3    1  0.1594457E-001  0.1250000E+03  0.7546771E-02  0.1235069E+00
         21   -1    0    0  502  501  0.00000000000E+00  0.00000000000E+00  0.73834362149E+02  0.73834362149E+02  0.00000000000E+00 0. -1.
         21   -1    0    0  501  502 -0.00000000000E+00 -0.00000000000E+00 -0.52905583340E+02  0.52905583340E+02  0.00000000000E+00 0. -1.
         25    1    1    2    0    0  0.00000000000E+00  0.00000000000E+00  0.20928778809E+02  0.12673994549E+03  0.12500000000E+03 0.  0.
<mgrwt>
<rscale>  0 0.12500000E+03</rscale>
<asrwt>0</asrwt>
<pdfrwt beam="1">  1       21 0.11359133E-01 0.12500000E+03</pdfrwt>
<pdfrwt beam="2">  1       21 0.81393205E-02 0.12500000E+03</pdfrwt>
<totfact> 0.73804582E+06</totfact>
</mgrwt>
</event>
<event>
 3    1  0.1594457E-001  0.1250000E+03  0.7546771E-02  0.1235069E+00
         21   -1    0    0  502  501  0.00000000000E+00  0.00000000000E+00  0.92986963754E+03  0.92986963754E+03  0.00000000000E+00 0. -1.
         21   -1    0    0  501  502 -0.00000000000E+00 -0.00000000000E+00 -0.42008576711E+01  0.42008576711E+01  0.00000000000E+00 0. -1.
         25    1    1    2    0    0  0.00000000000E+00  0.00000000000E+00  0.92566877986E+03  0.93407049521E+03  0.12500000000E+03 0.  0.
<mgrwt>
<rscale>  0 0.12500000E+03</rscale>
<asrwt>0</asrwt>
<pdfrwt beam="1">  1       21 0.14305670E+00 0.12500000E+03</pdfrwt>
<pdfrwt beam="2">  1       21 0.64628654E-03 0.12500000E+03</pdfrwt>
<totfact> 0.25342833E+06</totfact>
</mgrwt>
</event>
<event>
 3    1  0.1594457E-001  0.1250000E+03  0.7546771E-02  0.1235069E+00
         21   -1    0    0  502  501  0.00000000000E+00  0.00000000000E+00  0.22245177916E+02  0.22245177916E+02  0.00000000000E+00 0. -1.
         21   -1    0    0  501  502 -0.00000000000E+00 -0.00000000000E+00 -0.17559985426E+03  0.17559985426E+03  0.00000000000E+00 0. -1.
         25    1    1    2    0    0  0.00000000000E+00  0.00000000000E+00 -0.15335467635E+03  0.19784503218E+03  0.12500000000E+03 0.  0.
<mgrwt>
<rscale>  0 0.12500000E+03</rscale>
<asrwt>0</asrwt>
<pdfrwt beam="1">  1       21 0.34223351E-02 0.12500000E+03</pdfrwt>
<pdfrwt beam="2">  1       21 0.27015362E-01 0.12500000E+03</pdfrwt>
<totfact> 0.65160980E+06</totfact>
</mgrwt>
</event>
<event>
 3    1  0.1594457E-001  0.1250000E+03  0.7546771E-02  0.1235069E+00
         21   -1    0    0  502  501  0.00000000000E+00  0.00000000000E+00  0.19007937028E+03  0.19007937028E+03  0.00000000000E+00 0. -1.
         21   -1    0    0  501  502 -0.00000000000E+00 -0.00000000000E+00 -0.20550625742E+02  0.20550625742E+02  0.00000000000E+00 0. -1.
         25    1    1    2    0    0  0.00000000000E+00  0.00000000000E+00  0.16952874454E+03  0.21062999602E+03  0.12500000000E+03 0.  0.
<mgrwt>
<rscale>  0 0.12500000E+03</rscale>
<asrwt>0</asrwt>
<pdfrwt beam="1">  1       21 0.29242979E-01 0.12500000E+03</pdfrwt>
<pdfrwt beam="2">  1       21 0.31616349E-02 0.12500000E+03</pdfrwt>
<totfact> 0.63793314E+06</totfact>
</mgrwt>
</event>
<event>
 3    1  0.1594457E-001  0.1250000E+03  0.7546771E-02  0.1235069E+00
         21   -1    0    0  502  501  0.00000000000E+00  0.00000000000E+00  0.79407880212E+03  0.79407880212E+03  0.00000000000E+00 0.  1.
         21   -1    0    0  501  502 -0.00000000000E+00 -0.00000000000E+00 -0.49192221094E+01  0.49192221094E+01  0.00000000000E+00 0.  1.
         25    1    1    2    0    0  0.00000000000E+00  0.00000000000E+00  0.78915958001E+03  0.79899802423E+03  0.12500000000E+03 0.  0.
<mgrwt>
<rscale>  0 0.12500000E+03</rscale>
<asrwt>0</asrwt>
<pdfrwt beam="1">  1       21 0.12216587E+00 0.12500000E+03</pdfrwt>
<pdfrwt beam="2">  1       21 0.75680403E-03 0.12500000E+03</pdfrwt>
<totfact> 0.29396062E+06</totfact>
</mgrwt>
</event>
<event>
 3    1  0.1594457E-001  0.1250000E+03  0.7546771E-02  0.1235069E+00
         21   -1    0    0  502  501  0.00000000000E+00  0.00000000000E+00  0.64562122179E+01  0.64562122179E+01  0.00000000000E+00 0. -1.
         21   -1    0    0  501  502 -0.00000000000E+00 -0.00000000000E+00 -0.60503742259E+03  0.60503742259E+03  0.00000000000E+00 0. -1.
         25    1    1    2    0    0  0.00000000000E+00  0.00000000000E+00 -0.59858121037E+03  0.61149363481E+03  0.12500000000E+03 0.  0.
<mgrwt>
<rscale>  0 0.12500000E+03</rscale>
<asrwt>0</asrwt>
<pdfrwt beam="1">  1       21 0.99326327E-03 0.12500000E+03</pdfrwt>
<pdfrwt beam="2">  1       21 0.93082694E-01 0.12500000E+03</pdfrwt>
<totfact> 0.36577947E+06</totfact>
</mgrwt>
</event>
<event>
 3    1  0.1594457E-001  0.1250000E+03  0.7546771E-02  0.1235069E+00
         21   -1    0    0  502  501  0.00000000000E+00  0.00000000000E+00  0.13188703933E+02  0.13188703933E+02  0.00000000000E+00 0. -1.
         21   -1    0    0  501  502 -0.00000000000E+00 -0.00000000000E+00 -0.29618149136E+03  0.29618149136E+03  0.00000000000E+00 0. -1.
         25    1    1    2    0    0  0.00000000000E+00  0.00000000000E+00 -0.28299278743E+03  0.30937019529E+03  0.12500000000E+03 0.  0.
<mgrwt>
<rscale>  0 0.12500000E+03</rscale>
<asrwt>0</asrwt>
<pdfrwt beam="1">  1       21 0.20290315E-02 0.12500000E+03</pdfrwt>
<pdfrwt beam="2">  1       21 0.45566382E-01 0.12500000E+03</pdfrwt>
<totfact> 0.54686354E+06</totfact>
</mgrwt>
</event>
<event>
 3    1  0.1594457E-001  0.1250000E+03  0.7546771E-02  0.1235069E+00
         21   -1    0    0  502  501  0.00000000000E+00  0.00000000000E+00  0.93807981428E+02  0.93807981428E+02  0.00000000000E+00 0.  1.
         21   -1    0    0  501  502 -0.00000000000E+00 -0.00000000000E+00 -0.41640913071E+02  0.41640913071E+02  0.00000000000E+00 0.  1.
         25    1    1    2    0    0  0.00000000000E+00  0.00000000000E+00  0.52167068357E+02  0.13544889450E+03  0.12500000000E+03 0.  0.
<mgrwt>
<rscale>  0 0.12500000E+03</rscale>
<asrwt>0</asrwt>
<pdfrwt beam="1">  1       21 0.14431997E-01 0.12500000E+03</pdfrwt>
<pdfrwt beam="2">  1       21 0.64062943E-02 0.12500000E+03</pdfrwt>
<totfact> 0.72637090E+06</totfact>
</mgrwt>
</event>
<event>
 3    1  0.1594457E-001  0.1250000E+03  0.7546771E-02  0.1235069E+00
         21   -1    0    0  502  501  0.00000000000E+00  0.00000000000E+00  0.16356736842E+02  0.16356736842E+02  0.00000000000E+00 0. -1.
         21   -1    0    0  501  502 -0.00000000000E+00 -0.00000000000E+00 -0.23881597153E+03  0.23881597153E+03  0.00000000000E+00 0. -1.
         25    1    1    2    0    0  0.00000000000E+00  0.00000000000E+00 -0.22245923469E+03  0.25517270838E+03  0.12500000000E+03 0.  0.
<mgrwt>
<rscale>  0 0.12500000E+03</rscale>
<asrwt>0</asrwt>
<pdfrwt beam="1">  1       21 0.25164213E-02 0.12500000E+03</pdfrwt>
<pdfrwt beam="2">  1       21 0.36740916E-01 0.12500000E+03</pdfrwt>
<totfact> 0.59394577E+06</totfact>
</mgrwt>
</event>
<event>
 3    1  0.1594457E-001  0.1250000E+03  0.7546771E-02  0.1235069E+00
         21   -1    0    0  502  501  0.00000000000E+00  0.00000000000E+00  0.39900206641E+02  0.39900206641E+02  0.00000000000E+00 0.  1.
         21   -1    0    0  501  502 -0.00000000000E+00 -0.00000000000E+00 -0.97900495482E+02  0.97900495482E+02  0.00000000000E+00 0.  1.
         25    1    1    2    0    0  0.00000000000E+00  0.00000000000E+00 -0.58000288841E+02  0.13780070212E+03  0.12500000000E+03 0.  0.
<mgrwt>
<rscale>  0 0.12500000E+03</rscale>
<asrwt>0</asrwt>
<pdfrwt beam="1">  1       21 0.61384934E-02 0.12500000E+03</pdfrwt>
<pdfrwt beam="2">  1       21 0.15061614E-01 0.12500000E+03</pdfrwt>
<totfact> 0.72327719E+06</totfact>
</mgrwt>
</event>
<event>
 3    1  0.1594457E-001  0.1250000E+03  0.7546771E-02  0.1235069E+00
         21   -1    0    0  502  501  0.00000000000E+00  0.00000000000E+00  0.76747051160E+03  0.76747051160E+03  0.00000000000E+00 0.  1.
         21   -1    0    0  501  502 -0.00000000000E+00 -0.00000000000E+00 -0.50897721033E+01  0.50897721033E+01  0.00000000000E+00 0.  1.
         25    1    1    2    0    0  0.00000000000E+00  0.00000000000E+00  0.76238073949E+03  0.77256028370E+03  0.12500000000E+03 0.  0.
<mgrwt>
<rscale>  0 0.12500000E+03</rscale>
<asrwt>0</asrwt>
<pdfrwt beam="1">  1       21 0.11807229E+00 0.12500000E+03</pdfrwt>
<pdfrwt beam="2">  1       21 0.78304247E-03 0.12500000E+03</pdfrwt>
<totfact> 0.30290799E+06</totfact>
</mgrwt>
</event>
<event>
 3    1  0.1594457E-001  0.1250000E+03  0.7546771E-02  0.1235069E+00
         21   -1    0    0  502  501  0.00000000000E+00  0.00000000000E+00  0.25615742240E+02  0.25615742240E+02  0.00000000000E+00 0.  1.
         21   -1    0    0  501  502 -0.00000000000E+00 -0.00000000000E+00 -0.15249411723E+03  0.15249411723E+03  0.00000000000E+00 0.  1.
         25    1    1    2    0    0  0.00000000000E+00  0.00000000000E+00 -0.12687837499E+03  0.17810985947E+03  0.12500000000E+03 0.  0.
<mgrwt>
<rscale>  0 0.12500000E+03</rscale>
<asrwt>0</asrwt>
<pdfrwt beam="1">  1       21 0.39408834E-02 0.12500000E+03</pdfrwt>
<pdfrwt beam="2">  1       21 0.23460633E-01 0.12500000E+03</pdfrwt>
<totfact> 0.67369031E+06</totfact>
</mgrwt>
</event>
<event>
 3    1  0.1594457E-001  0.1250000E+03  0.7546771E-02  0.1235069E+00
         21   -1    0    0  502  501  0.00000000000E+00  0.00000000000E+00  0.71667689552E+03  0.71667689552E+03  0.00000000000E+00 0. -1.
         21   -1    0    0  501  502 -0.00000000000E+00 -0.00000000000E+00 -0.54505036013E+01  0.54505036013E+01  0.00000000000E+00 0. -1.
         25    1    1    2    0    0  0.00000000000E+00  0.00000000000E+00  0.71122639192E+03  0.72212739913E+03  0.12500000000E+03 0.  0.
<mgrwt>
<rscale>  0 0.12500000E+03</rscale>
<asrwt>0</asrwt>
<pdfrwt beam="1">  1       21 0.11025791E+00 0.12500000E+03</pdfrwt>
<pdfrwt beam="2">  1       21 0.83853959E-03 0.12500000E+03</pdfrwt>
<totfact> 0.32074337E+06</totfact>
</mgrwt>
</event>
<event>
 3    1  0.1594457E-001  0.1250000E+03  0.7546771E-02  0.1235069E+00
         21   -1    0    0  502  501  0.00000000000E+00  0.00000000000E+00  0.82526231884E+02  0.82526231884E+02  0.00000000000E+00 0. -1.
         21   -1    0    0  501  502 -0.00000000000E+00 -0.00000000000E+00 -0.47333434604E+02  0.47333434604E+02  0.00000000000E+00 0. -1.
         25    1    1    2    0    0  0.00000000000E+00  0.00000000000E+00  0.35192797279E+02  0.12985966649E+03  0.12500000000E+03 0.  0.
<mgrwt>
<rscale>  0 0.12500000E+03</rscale>
<asrwt>0</asrwt>
<pdfrwt beam="1">  1       21 0.12696343E-01 0.12500000E+03</pdfrwt>
<pdfrwt beam="2">  1       21 0.72820669E-02 0.12500000E+03</pdfrwt>
<totfact> 0.73383676E+06</totfact>
</mgrwt>
</event>
<event>
 3    1  0.1594457E-001  0.1250000E+03  0.7546771E-02  0.1235069E+00
         21   -1    0    0  502  501  0.00000000000E+00  0.00000000000E+00  0.18126448235E+03  0.18126448235E+03  0.00000000000E+00 0.  1.
         21   -1    0    0  501  502 -0.00000000000E+00 -0.00000000000E+00 -0.21550002236E+02  0.21550002236E+02  0.00000000000E+00 0.  1.
         25    1    1    2    0    0  0.00000000000E+00  0.00000000000E+00  0.15971448012E+03  0.20281448459E+03  0.12500000000E+03 0.  0.
<mgrwt>
<rscale>  0 0.12500000E+03</rscale>
<asrwt>0</asrwt>
<pdfrwt beam="1">  1       21 0.27886842E-01 0.12500000E+03</pdfrwt>
<pdfrwt beam="2">  1       21 0.33153851E-02 0.12500000E+03</pdfrwt>
<totfact> 0.64623555E+06</totfact>
</mgrwt>
</event>
<event>
 3    1  0.1594457E-001  0.1250000E+03  0.7546771E-02  0.1235069E+00
         21   -1    0    0  502  501  0.00000000000E+00  0.00000000000E+00  0.43791567817E+02  0.43791567817E+02  0.00000000000E+00 0.  1.
         21   -1    0    0  501  502 -0.00000000000E+00 -0.00000000000E+00 -0.89200962531E+02  0.89200962531E+02  0.00000000000E+00 0.  1.
         25    1    1    2    0    0  0.00000000000E+00  0.00000000000E+00 -0.45409394715E+02  0.13299253035E+03  0.12500000000E+03 0.  0.
<mgrwt>
<rscale>  0 0.12500000E+03</rscale>
<asrwt>0</asrwt>
<pdfrwt beam="1">  1       21 0.67371643E-02 0.12500000E+03</pdfrwt>
<pdfrwt beam="2">  1       21 0.13723225E-01 0.12500000E+03</pdfrwt>
<totfact> 0.72963396E+06</totfact>
</mgrwt>
</event>
<event>
 3    1  0.1594457E-001  0.1250000E+03  0.7546771E-02  0.1235069E+00
         21   -1    0    0  502  501  0.00000000000E+00  0.00000000000E+00  0.52727959089E+01  0.52727959089E+01  0.00000000000E+00 0. -1.
         21   -1    0    0  501  502 -0.00000000000E+00 -0.00000000000E+00 -0.74083087370E+03  0.74083087370E+03  0.00000000000E+00 0. -1.
         25    1    1    2    0    0  0.00000000000E+00  0.00000000000E+00 -0.73555807779E+03  0.74610366961E+03  0.12500000000E+03 0.  0.
<mgrwt>
<rscale>  0 0.12500000E+03</rscale>
<asrwt>0</asrwt>
<pdfrwt beam="1">  1       21 0.81119933E-03 0.12500000E+03</pdfrwt>
<pdfrwt beam="2">  1       21 0.11397399E+00 0.12500000E+03</pdfrwt>
<totfact> 0.31206373E+06</totfact>
</mgrwt>
</event>
<event>
 3    1  0.1594457E-001  0.1250000E+03  0.7546771E-02  0.1235069E+00
         21   -1    0    0  502  501  0.00000000000E+00  0.00000000000E+00  0.85432195056E+02  0.85432195056E+02  0.00000000000E+00 0. -1.
         21   -1    0    0  501  502 -0.00000000000E+00 -0.00000000000E+00 -0.45723394997E+02  0.45723394997E+02  0.00000000000E+00 0. -1.
         25    1    1    2    0    0  0.00000000000E+00  0.00000000000E+00  0.39708800059E+02  0.13115559005E+03  0.12500000000E+03 0.  0.
<mgrwt>
<rscale>  0 0.12500000E+03</rscale>
<asrwt>0</asrwt>
<pdfrwt beam="1">  1       21 0.13143415E-01 0.12500000E+03</pdfrwt>
<pdfrwt beam="2">  1       21 0.70343685E-02 0.12500000E+03</pdfrwt>
<totfact> 0.73209712E+06</totfact>
</mgrwt>
</event>
<event>
 3    1  0.1594457E-001  0.1250000E+03  0.7546771E-02  0.1235069E+00
         21   -1    0    0  502  501  0.00000000000E+00  0.00000000000E+00  0.24615864959E+03  0.24615864959E+03  0.00000000000E+00 0. -1.
         21   -1    0    0  501  502 -0.00000000000E+00 -0.00000000000E+00 -0.15868830961E+02  0.15868830961E+02  0.00000000000E+00 0. -1.
         25    1    1    2    0    0  0.00000000000E+00  0.00000000000E+00  0.23028981863E+03  0.26202748056E+03  0.12500000000E+03 0.  0.
<mgrwt>
<rscale>  0 0.12500000E+03</rscale>
<asrwt>0</asrwt>
<pdfrwt beam="1">  1       21 0.37870559E-01 0.12500000E+03</pdfrwt>
<pdfrwt beam="2">  1       21 0.24413588E-02 0.12500000E+03</pdfrwt>
<totfact> 0.58763940E+06</totfact>
</mgrwt>
</event>
<event>
 3    1  0.1594457E-001  0.1250000E+03  0.7546771E-02  0.1235069E+00
         21   -1    0    0  502  501  0.00000000000E+00  0.00000000000E+00  0.34683942932E+02  0.34683942932E+02  0.00000000000E+00 0. -1.
         21   -1    0    0  501  502 -0.00000000000E+00 -0.00000000000E+00 -0.11262416178E+03  0.11262416178E+03  0.00000000000E+00 0. -1.
         25    1    1    2    0    0  0.00000000000E+00  0.00000000000E+00 -0.77940218848E+02  0.14730810471E+03  0.12500000000E+03 0.  0.
<mgrwt>
<rscale>  0 0.12500000E+03</rscale>
<asrwt>0</asrwt>
<pdfrwt beam="1">  1       21 0.53359912E-02 0.12500000E+03</pdfrwt>
<pdfrwt beam="2">  1       21 0.17326794E-01 0.12500000E+03</pdfrwt>
<totfact> 0.71099012E+06</totfact>
</mgrwt>
</event>
<event>
 3    1  0.1594457E-001  0.1250000E+03  0.7546771E-02  0.1235069E+00
         21   -1    0    0  502  501  0.00000000000E+00  0.00000000000E+00  0.60677266470E+03  0.60677266470E+03  0.00000000000E+00 0.  1.
         21   -1    0    0  501  502 -0.00000000000E+00 -0.00000000000E+00 -0.64377488098E+01  0.64377488098E+01  0.00000000000E+00 0.  1.
         25    1    1    2    0    0  0.00000000000E+00  0.00000000000E+00  0.60033491589E+03  0.61321041351E+03  0.12500000000E+03 0.  0.
<mgrwt>
<rscale>  0 0.12500000E+03</rscale>
<asrwt>0</asrwt>
<pdfrwt beam="1">  1       21 0.93349595E-01 0.12500000E+03</pdfrwt>
<pdfrwt beam="2">  1       21 0.99042337E-03 0.12500000E+03</pdfrwt>
<totfact> 0.36501953E+06</totfact>
</mgrwt>
</event>
<event>
 3    1  0.1594457E-001  0.1250000E+03  0.7546771E-02  0.1235069E+00
         21   -1    0    0  502  501  0.00000000000E+00  0.00000000000E+00  0.10151369772E+02  0.10151369772E+02  0.00000000000E+00 0. -1.
         21   -1    0    0  501  502 -0.00000000000E+00 -0.00000000000E+00 -0.38480028684E+03  0.38480028684E+03  0.00000000000E+00 0. -1.
         25    1    1    2    0    0  0.00000000000E+00  0.00000000000E+00 -0.37464891707E+03  0.39495165661E+03  0.12500000000E+03 0.  0.
<mgrwt>
<rscale>  0 0.12500000E+03</rscale>
<asrwt>0</asrwt>
<pdfrwt beam="1">  1       21 0.15617492E-02 0.12500000E+03</pdfrwt>
<pdfrwt beam="2">  1       21 0.59200044E-01 0.12500000E+03</pdfrwt>
<totfact> 0.48378014E+06</totfact>
</mgrwt>
</event>
<event>
 3    1  0.1594457E-001  0.1250000E+03  0.7546771E-02  0.1235069E+00
         21   -1    0    0  502  501  0.00000000000E+00  0.00000000000E+00  0.72204383635E+02  0.72204383635E+02  0.00000000000E+00 0. -1.
         21   -1    0    0  501  502 -0.00000000000E+00 -0.00000000000E+00 -0.54099900911E+02  0.54099900911E+02  0.00000000000E+00 0. -1.
         25    1    1    2    0    0  0.00000000000E+00  0.00000000000E+00  0.18104482723E+02  0.12630428455E+03  0.12500000000E+03 0.  0.
<mgrwt>
<rscale>  0 0.12500000E+03</rscale>
<asrwt>0</asrwt>
<pdfrwt beam="1">  1       21 0.11108367E-01 0.12500000E+03</pdfrwt>
<pdfrwt beam="2">  1       21 0.83230617E-02 0.12500000E+03</pdfrwt>
<totfact> 0.73864191E+06</totfact>
</mgrwt>
</event>
<event>
 3    1  0.1594457E-001  0.1250000E+03  0.7546771E-02  0.1235069E+00
         21   -1    0    0  502  501  0.00000000000E+00  0.00000000000E+00  0.77381567642E+01  0.77381567642E+01  0.00000000000E+00 0. -1.
         21   -1    0    0  501  502 -0.00000000000E+00 -0.00000000000E+00 -0.50480367858E+03  0.50480367858E+03  0.00000000000E+00 0. -1.
         25    1    1    2    0    0  0.00000000000E+00  0.00000000000E+00 -0.49706552182E+03  0.51254183535E+03  0.12500000000E+03 0.  0.
<mgrwt>
<rscale>  0 0.12500000E+03</rscale>
<asrwt>0</asrwt>
<pdfrwt beam="1">  1       21 0.11904857E-02 0.12500000E+03</pdfrwt>
<pdfrwt beam="2">  1       21 0.77662099E-01 0.12500000E+03</pdfrwt>
<totfact> 0.41371967E+06</totfact>
</mgrwt>
</event>
<event>
 3    1  0.1594457E-001  0.1250000E+03  0.7546771E-02  0.1235069E+00
         21   -1    0    0  502  501  0.00000000000E+00  0.00000000000E+00  0.21661940662E+03  0.21661940662E+03  0.00000000000E+00 0.  1.
         21   -1    0    0  501  502 -0.00000000000E+00 -0.00000000000E+00 -0.18032779523E+02  0.18032779523E+02  0.00000000000E+00 0.  1.
         25    1    1    2    0    0  0.00000000000E+00  0.00000000000E+00  0.19858662710E+03  0.23465218615E+03  0.12500000000E+03 0.  0.
<mgrwt>
<rscale>  0 0.12500000E+03</rscale>
<asrwt>0</asrwt>
<pdfrwt beam="1">  1       21 0.33326061E-01 0.12500000E+03</pdfrwt>
<pdfrwt beam="2">  1       21 0.27742739E-02 0.12500000E+03</pdfrwt>
<totfact> 0.61354031E+06</totfact>
</mgrwt>
</event>
<event>
 3    1  0.1594457E-001  0.1250000E+03  0.7546771E-02  0.1235069E+00
         21   -1    0    0  502  501  0.00000000000E+00  0.00000000000E+00  0.21759002874E+01  0.21759002874E+01  0.00000000000E+00 0. -1.
         21   -1    0    0  501  502 -0.00000000000E+00 -0.00000000000E+00 -0.17952339188E+04  0.17952339188E+04  0.00000000000E+00 0. -1.
         25    1    1    2    0    0  0.00000000000E+00  0.00000000000E+00 -0.17930580185E+04  0.17974098191E+04  0.12500000000E+03 0.  0.
<mgrwt>
<rscale>  0 0.12500000E+03</rscale>
<asrwt>0</asrwt>
<pdfrwt beam="1">  1       21 0.33475325E-03 0.12500000E+03</pdfrwt>
<pdfrwt beam="2">  1       21 0.27619036E+00 0.12500000E+03</pdfrwt>
<totfact> 0.10099704E+06</totfact>
</mgrwt>
</event>
<event>
 3    1  0.1594457E-001  0.1250000E+03  0.7546771E-02  0.1235069E+00
         21   -1    0    0  502  501  0.00000000000E+00  0.00000000000E+00  0.40630853419E+03  0.40630853419E+03  0.00000000000E+00 0.  1.
         21   -1    0    0  501  502 -0.00000000000E+00 -0.00000000000E+00 -0.96139993903E+01  0.96139993903E+01  0.00000000000E+00 0.  1.
         25    1    1    2    0    0  0.00000000000E+00  0.00000000000E+00  0.39669453480E+03  0.41592253358E+03  0.12500000000E+03 0.  0.
<mgrwt>
<rscale>  0 0.12500000E+03</rscale>
<asrwt>0</asrwt>
<pdfrwt beam="1">  1       21 0.62508992E-01 0.12500000E+03</pdfrwt>
<pdfrwt beam="2">  1       21 0.14790771E-02 0.12500000E+03</pdfrwt>
<totfact> 0.47002858E+06</totfact>
</mgrwt>
</event>
<event>
 3    1  0.1594457E-001  0.1250000E+03  0.7546771E-02  0.1235069E+00
         21   -1    0    0  502  501  0.00000000000E+00  0.00000000000E+00  0.48989112901E+03  0.48989112901E+03  0.00000000000E+00 0. -1.
         21   -1    0    0  501  502 -0.00000000000E+00 -0.00000000000E+00 -0.79737104199E+01  0.79737104199E+01  0.00000000000E+00 0. -1.
         25    1    1    2    0    0  0.00000000000E+00  0.00000000000E+00  0.48191741859E+03  0.49786483943E+03  0.12500000000E+03 0.  0.
<mgrwt>
<rscale>  0 0.12500000E+03</rscale>
<asrwt>0</asrwt>
<pdfrwt beam="1">  1       21 0.75367842E-01 0.12500000E+03</pdfrwt>
<pdfrwt beam="2">  1       21 0.12267251E-02 0.12500000E+03</pdfrwt>
<totfact> 0.42160110E+06</totfact>
</mgrwt>
</event>
<event>
 3    1  0.1594457E-001  0.1250000E+03  0.7546771E-02  0.1235069E+00
         21   -1    0    0  502  501  0.00000000000E+00  0.00000000000E+00  0.63966268119E+01  0.63966268119E+01  0.00000000000E+00 0.  1.
         21   -1    0    0  501  502 -0.00000000000E+00 -0.00000000000E+00 -0.61067342442E+03  0.61067342442E+03  0.00000000000E+00 0.  1.
         25    1    1    2    0    0  0.00000000000E+00  0.00000000000E+00 -0.60427679761E+03  0.61707005123E+03  0.12500000000E+03 0.  0.
<mgrwt>
<rscale>  0 0.12500000E+03</rscale>
<asrwt>0</asrwt>
<pdfrwt beam="1">  1       21 0.98409631E-03 0.12500000E+03</pdfrwt>
<pdfrwt beam="2">  1       21 0.93949769E-01 0.12500000E+03</pdfrwt>
<totfact> 0.36331861E+06</totfact>
</mgrwt>
</event>
<event>
 3    1  0.1594457E-001  0.1250000E+03  0.7546771E-02  0.1235069E+00
         21   -1    0    0  502  501  0.00000000000E+00  0.00000000000E+00  0.23347470906E+03  0.23347470906E+03  0.00000000000E+00 0. -1.
         21   -1    0    0  501  502 -0.00000000000E+00 -0.00000000000E+00 -0.16730934223E+02  0.16730934223E+02  0.00000000000E+00 0. -1.
         25    1    1    2    0    0  0.00000000000E+00  0.00000000000E+00  0.21674377484E+03  0.25020564329E+03  0.12500000000E+03 0.  0.
<mgrwt>
<rscale>  0 0.12500000E+03</rscale>
<asrwt>0</asrwt>
<pdfrwt beam="1">  1       21 0.35919184E-01 0.12500000E+03</pdfrwt>
<pdfrwt beam="2">  1       21 0.25739901E-02 0.12500000E+03</pdfrwt>
<totfact> 0.59858835E+06</totfact>
</mgrwt>
</event>
<event>
 3    1  0.1594457E-001  0.1250000E+03  0.7546771E-02  0.1235069E+00
         21   -1    0    0  502  501  0.00000000000E+00  0.00000000000E+00  0.15137381889E+03  0.15137381889E+03  0.00000000000E+00 0. -1.
         21   -1    0    0  501  502 -0.00000000000E+00 -0.00000000000E+00 -0.25805321083E+02  0.25805321083E+02  0.00000000000E+00 0. -1.
         25    1    1    2    0    0  0.00000000000E+00  0.00000000000E+00  0.12556849781E+03  0.17717913997E+03  0.12500000000E+03 0.  0.
<mgrwt>
<rscale>  0 0.12500000E+03</rscale>
<asrwt>0</asrwt>
<pdfrwt beam="1">  1       21 0.23288279E-01 0.12500000E+03</pdfrwt>
<pdfrwt beam="2">  1       21 0.39700495E-02 0.12500000E+03</pdfrwt>
<totfact> 0.67476619E+06</totfact>
</mgrwt>
</event>
<event>
 3    1  0.1594457E-001  0.1250000E+03  0.7546771E-02  0.1235069E+00
         21   -1    0    0  502  501  0.00000000000E+00  0.00000000000E+00  0.93489822671E+02  0.93489822671E+02  0.00000000000E+00 0.  1.
         21   -1    0    0  501  502 -0.00000000000E+00 -0.00000000000E+00 -0.41782622840E+02  0.41782622840E+02  0.00000000000E+00 0.  1.
         25    1    1    2    0    0  0.00000000000E+00  0.00000000000E+00  0.51707199831E+02  0.13527244551E+03  0.12500000000E+03 0.  0.
<mgrwt>
<rscale>  0 0.12500000E+03</rscale>
<asrwt>0</asrwt>
<pdfrwt beam="1">  1       21 0.14383050E-01 0.12500000E+03</pdfrwt>
<pdfrwt beam="2">  1       21 0.64280959E-02 0.12500000E+03</pdfrwt>
<totfact> 0.72660418E+06</totfact>
</mgrwt>
</event>
<event>
 3    1  0.1594457E-001  0.1250000E+03  0.7546771E-02  0.1235069E+00
         21   -1    0    0  502  501  0.00000000000E+00  0.00000000000E+00  0.18813679821E+03  0.18813679821E+03  0.00000000000E+00 0. -1.
         21   -1    0    0  501  502 -0.00000000000E+00 -0.00000000000E+00 -0.20762817466E+02  0.20762817466E+02  0.00000000000E+00 0. -1.
         25    1    1    2    0    0  0.00000000000E+00  0.00000000000E+00  0.16737398075E+03  0.20889961568E+03  0.12500000000E+03 0.  0.
<mgrwt>
<rscale>  0 0.12500000E+03</rscale>
<asrwt>0</asrwt>
<pdfrwt beam="1">  1       21 0.28944122E-01 0.12500000E+03</pdfrwt>
<pdfrwt beam="2">  1       21 0.31942797E-02 0.12500000E+03</pdfrwt>
<totfact> 0.63975495E+06</totfact>
</mgrwt>
</event>
<event>
 3    1  0.1594457E-001  0.1250000E+03  0.7546771E-02  0.1235069E+00
         21   -1    0    0  502  501  0.00000000000E+00  0.00000000000E+00  0.23136795243E+02  0.23136795243E+02  0.00000000000E+00 0. -1.
         21   -1    0    0  501  502 -0.00000000000E+00 -0.00000000000E+00 -0.16883280329E+03  0.16883280329E+03  0.00000000000E+00 0. -1.
         25    1    1    2    0    0  0.00000000000E+00  0.00000000000E+00 -0.14569600805E+03  0.19196959853E+03  0.12500000000E+03 0.  0.
<mgrwt>
<rscale>  0 0.12500000E+03</rscale>
<asrwt>0</asrwt>
<pdfrwt beam="1">  1       21 0.35595070E-02 0.12500000E+03</pdfrwt>
<pdfrwt beam="2">  1       21 0.25974277E-01 0.12500000E+03</pdfrwt>
<totfact> 0.65804228E+06</totfact>
</mgrwt>
</event>
<event>
 3    1  0.1594457E-001  0.1250000E+03  0.7546771E-02  0.1235069E+00
         21   -1    0    0  502  501  0.00000000000E+00  0.00000000000E+00  0.52717570216E+02  0.52717570216E+02  0.00000000000E+00 0.  1.
         21   -1    0    0  501  502 -0.00000000000E+00 -0.00000000000E+00 -0.74097686673E+02  0.74097686673E+02  0.00000000000E+00 0.  1.
         25    1    1    2    0    0  0.00000000000E+00  0.00000000000E+00 -0.21380116457E+02  0.12681525689E+03  0.12500000000E+03 0.  0.
<mgrwt>
<rscale>  0 0.12500000E+03</rscale>
<asrwt>0</asrwt>
<pdfrwt beam="1">  1       21 0.81103955E-02 0.12500000E+03</pdfrwt>
<pdfrwt beam="2">  1       21 0.11399644E-01 0.12500000E+03</pdfrwt>
<totfact> 0.73794307E+06</totfact>
</mgrwt>
</event>
<event>
 3    1  0.1594457E-001  0.1250000E+03  0.7546771E-02  0.1235069E+00
         21   -1    0    0  502  501  0.00000000000E+00  0.00000000000E+00  0.11349147154E+02  0.11349147154E+02  0.00000000000E+00 0. -1.
         21   -1    0    0  501  502 -0.00000000000E+00 -0.00000000000E+00 -0.34418885817E+03  0.34418885817E+03  0.00000000000E+00 0. -1.
         25    1    1    2    0    0  0.00000000000E+00  0.00000000000E+00 -0.33283971101E+03  0.35553800532E+03  0.12500000000E+03 0.  0.
<mgrwt>
<rscale>  0 0.12500000E+03</rscale>
<asrwt>0</asrwt>
<pdfrwt beam="1">  1       21 0.17460231E-02 0.12500000E+03</pdfrwt>
<pdfrwt beam="2">  1       21 0.52952119E-01 0.12500000E+03</pdfrwt>
<totfact> 0.51132023E+06</totfact>
</mgrwt>
</event>
<event>
 3    1  0.1594457E-001  0.1250000E+03  0.7546771E-02  0.1235069E+00
         21   -1    0    0  502  501  0.00000000000E+00  0.00000000000E+00  0.60952282755E+01  0.60952282755E+01  0.00000000000E+00 0.  1.
         21   -1    0    0  501  502 -0.00000000000E+00 -0.00000000000E+00 -0.64087017310E+03  0.64087017310E+03  0.00000000000E+00 0.  1.
         25    1    1    2    0    0  0.00000000000E+00  0.00000000000E+00 -0.63477494482E+03  0.64696540138E+03  0.12500000000E+03 0.  0.
<mgrwt>
<rscale>  0 0.12500000E+03</rscale>
<asrwt>0</asrwt>
<pdfrwt beam="1">  1       21 0.93772815E-03 0.12500000E+03</pdfrwt>
<pdfrwt beam="2">  1       21 0.98595335E-01 0.12500000E+03</pdfrwt>
<totfact> 0.35051075E+06</totfact>
</mgrwt>
</event>
<event>
 3    1  0.1594457E-001  0.1250000E+03  0.7546771E-02  0.1235069E+00
         21   -1    0    0  502  501  0.00000000000E+00  0.00000000000E+00  0.43642367199E+03  0.43642367199E+03  0.00000000000E+00 0. -1.
         21   -1    0    0  501  502 -0.00000000000E+00 -0.00000000000E+00 -0.89505914796E+01  0.89505914796E+01  0.00000000000E+00 0. -1.
         25    1    1    2    0    0  0.00000000000E+00  0.00000000000E+00  0.42747308051E+03  0.44537426347E+03  0.12500000000E+03 0.  0.
<mgrwt>
<rscale>  0 0.12500000E+03</rscale>
<asrwt>0</asrwt>
<pdfrwt beam="1">  1       21 0.67142087E-01 0.12500000E+03</pdfrwt>
<pdfrwt beam="2">  1       21 0.13770144E-02 0.12500000E+03</pdfrwt>
<totfact> 0.45170368E+06</totfact>
</mgrwt>
</event>
<event>
 3    1  0.1594457E-001  0.1250000E+03  0.7546771E-02  0.1235069E+00
         21   -1    0    0  502  501  0.00000000000E+00  0.00000000000E+00  0.10949281518E+03  0.10949281518E+03  0.00000000000E+00 0.  1.
         21   -1    0    0  501  502 -0.00000000000E+00 -0.00000000000E+00 -0.35675856845E+02  0.35675856845E+02  0.00000000000E+00 0.  1.
         25    1    1    2    0    0  0.00000000000E+00  0.00000000000E+00  0.73816958336E+02  0.14516867203E+03  0.12500000000E+03 0.  0.
<mgrwt>
<rscale>  0 0.12500000E+03</rscale>
<asrwt>0</asrwt>
<pdfrwt beam="1">  1       21 0.16845048E-01 0.12500000E+03</pdfrwt>
<pdfrwt beam="2">  1       21 0.54885934E-02 0.12500000E+03</pdfrwt>
<totfact> 0.71371520E+06</totfact>
</mgrwt>
</event>
<event>
 3    1  0.1594457E-001  0.1250000E+03  0.7546771E-02  0.1235069E+00
         21   -1    0    0  502  501  0.00000000000E+00  0.00000000000E+00  0.71306200876E+02  0.71306200876E+02  0.00000000000E+00 0.  1.
         21   -1    0    0  501  502 -0.00000000000E+00 -0.00000000000E+00 -0.54781350739E+02  0.54781350739E+02  0.00000000000E+00 0.  1.
         25    1    1    2    0    0  0.00000000000E+00  0.00000000000E+00  0.16524850137E+02  0.12608755161E+03  0.12500000000E+03 0.  0.
<mgrwt>
<rscale>  0 0.12500000E+03</rscale>
<asrwt>0</asrwt>
<pdfrwt beam="1">  1       21 0.10970185E-01 0.12500000E+03</pdfrwt>
<pdfrwt beam="2">  1       21 0.84279001E-02 0.12500000E+03</pdfrwt>
<totfact> 0.73893976E+06</totfact>
</mgrwt>
</event>
<event>
 3    1  0.1594457E-001  0.1250000E+03  0.7546771E-02  0.1235069E+00
         21   -1    0    0  502  501  0.00000000000E+00  0.00000000000E+00  0.24267554959E+02  0.24267554959E+02  0.00000000000E+00 0. -1.
         21   -1    0    0  501  502 -0.00000000000E+00 -0.00000000000E+00 -0.16096594843E+03  0.16096594843E+03  0.00000000000E+00 0. -1.
         25    1    1    2    0    0  0.00000000000E+00  0.00000000000E+00 -0.13669839347E+03  0.18523350339E+03  0.12500000000E+03 0.  0.
<mgrwt>
<rscale>  0 0.12500000E+03</rscale>
<asrwt>0</asrwt>
<pdfrwt beam="1">  1       21 0.37334700E-02 0.12500000E+03</pdfrwt>
<pdfrwt beam="2">  1       21 0.24763992E-01 0.12500000E+03</pdfrwt>
<totfact> 0.66556178E+06</totfact>
</mgrwt>
</event>
<event>
 3    1  0.1594457E-001  0.1250000E+03  0.7546771E-02  0.1235069E+00
         21   -1    0    0  502  501  0.00000000000E+00  0.00000000000E+00  0.48792073919E+02  0.48792073919E+02  0.00000000000E+00 0.  1.
         21   -1    0    0  501  502 -0.00000000000E+00 -0.00000000000E+00 -0.80059109733E+02  0.80059109733E+02  0.00000000000E+00 0.  1.
         25    1    1    2    0    0  0.00000000000E+00  0.00000000000E+00 -0.31267035814E+02  0.12885118365E+03  0.12500000000E+03 0.  0.
<mgrwt>
<rscale>  0 0.12500000E+03</rscale>
<asrwt>0</asrwt>
<pdfrwt beam="1">  1       21 0.75064730E-02 0.12500000E+03</pdfrwt>
<pdfrwt beam="2">  1       21 0.12316786E-01 0.12500000E+03</pdfrwt>
<totfact> 0.73518875E+06</totfact>
</mgrwt>
</event>
<event>
 3    1  0.1594457E-001  0.1250000E+03  0.7546771E-02  0.1235069E+00
         21   -1    0    0  502  501  0.00000000000E+00  0.00000000000E+00  0.95013051880E+03  0.95013051880E+03  0.00000000000E+00 0.  1.
         21   -1    0    0  501  502 -0.00000000000E+00 -0.00000000000E+00 -0.41112772642E+01  0.41112772642E+01  0.00000000000E+00 0.  1.
         25    1    1    2    0    0  0.00000000000E+00  0.00000000000E+00  0.94601924154E+03  0.95424179607E+03  0.12500000000E+03 0.  0.
<mgrwt>
<rscale>  0 0.12500000E+03</rscale>
<asrwt>0</asrwt>
<pdfrwt beam="1">  1       21 0.14617375E+00 0.12500000E+03</pdfrwt>
<pdfrwt beam="2">  1       21 0.63250495E-03 0.12500000E+03</pdfrwt>
<totfact> 0.24798208E+06</totfact>
</mgrwt>
</event>
<event>
 3    1  0.1594457E-001  0.1250000E+03  0.7546771E-02  0.1235069E+00
         21   -1    0    0  502  501  0.00000000000E+00  0.00000000000E+00  0.10801323327E+03  0.10801323327E+03  0.00000000000E+00 0. -1.
         21   -1    0    0  501  502 -0.00000000000E+00 -0.00000000000E+00 -0.36164550231E+02  0.36164550231E+02  0.00000000000E+00 0. -1.
         25    1    1    2    0    0  0.00000000000E+00  0.00000000000E+00  0.71848683035E+02  0.14417778350E+03  0.12500000000E+03 0.  0.
<mgrwt>
<rscale>  0 0.12500000E+03</rscale>
<asrwt>0</asrwt>
<pdfrwt beam="1">  1       21 0.16617420E-01 0.12500000E+03</pdfrwt>
<pdfrwt beam="2">  1       21 0.55637770E-02 0.12500000E+03</pdfrwt>
<totfact> 0.71498489E+06</totfact>
</mgrwt>
</event>
<event>
 3    1  0.1594457E-001  0.1250000E+03  0.7546771E-02  0.1235069E+00
         21   -1    0    0  502  501  0.00000000000E+00  0.00000000000E+00  0.32809102427E+03  0.32809102427E+03  0.00000000000E+00 0.  1.
         21   -1    0    0  501  502 -0.00000000000E+00 -0.00000000000E+00 -0.11905994712E+02  0.11905994712E+02  0.00000000000E+00 0.  1.
         25    1    1    2    0    0  0.00000000000E+00  0.00000000000E+00  0.31618502956E+03  0.33999701899E+03  0.12500000000E+03 0.  0.
<mgrwt>
<rscale>  0 0.12500000E+03</rscale>
<asrwt>0</asrwt>
<pdfrwt beam="1">  1       21 0.50475535E-01 0.12500000E+03</pdfrwt>
<pdfrwt beam="2">  1       21 0.18316917E-02 0.12500000E+03</pdfrwt>
<totfact> 0.52285775E+06</totfact>
</mgrwt>
</event>
<event>
 3    1  0.1594457E-001  0.1250000E+03  0.7546771E-02  0.1235069E+00
         21   -1    0    0  502  501  0.00000000000E+00  0.00000000000E+00  0.20357497276E+03  0.20357497276E+03  0.00000000000E+00 0.  1.
         21   -1    0    0  501  502 -0.00000000000E+00 -0.00000000000E+00 -0.19188262422E+02  0.19188262422E+02  0.00000000000E+00 0.  1.
         25    1    1    2    0    0  0.00000000000E+00  0.00000000000E+00  0.18438671034E+03  0.22276323519E+03  0.12500000000E+03 0.  0.
<mgrwt>
<rscale>  0 0.12500000E+03</rscale>
<asrwt>0</asrwt>
<pdfrwt beam="1">  1       21 0.31319225E-01 0.12500000E+03</pdfrwt>
<pdfrwt beam="2">  1       21 0.29520405E-02 0.12500000E+03</pdfrwt>
<totfact> 0.62541208E+06</totfact>
</mgrwt>
</event>
<event>
 3    1  0.1594457E-001  0.1250000E+03  0.7546771E-02  0.1235069E+00
         21   -1    0    0  502  501  0.00000000000E+00  0.00000000000E+00  0.80345200680E+03  0.80345200680E+03  0.00000000000E+00 0. -1.
         21   -1    0    0  501  502 -0.00000000000E+00 -0.00000000000E+00 -0.48618336465E+01  0.48618336465E+01  0.00000000000E+00 0. -1.
         25    1    1    2    0    0  0.00000000000E+00  0.00000000000E+00  0.79859017316E+03  0.80831384045E+03  0.12500000000E+03 0.  0.
<mgrwt>
<rscale>  0 0.12500000E+03</rscale>
<asrwt>0</asrwt>
<pdfrwt beam="1">  1       21 0.12360790E+00 0.12500000E+03</pdfrwt>
<pdfrwt beam="2">  1       21 0.74797505E-03 0.12500000E+03</pdfrwt>
<totfact> 0.29089223E+06</totfact>
</mgrwt>
</event>
<event>
 3    1  0.1594457E-001  0.1250000E+03  0.7546771E-02  0.1235069E+00
         21   -1    0    0  502  501  0.00000000000E+00  0.00000000000E+00  0.37777862940E+02  0.37777862940E+02  0.00000000000E+00 0. -1.
         21   -1    0    0  501  502 -0.00000000000E+00 -0.00000000000E+00 -0.10340050220E+03  0.10340050220E+03  0.00000000000E+00 0. -1.
         25    1    1    2    0    0  0.00000000000E+00  0.00000000000E+00 -0.65622639260E+02  0.14117836514E+03  0.12500000000E+03 0.  0.
<mgrwt>
<rscale>  0 0.12500000E+03</rscale>
<asrwt>0</asrwt>
<pdfrwt beam="1">  1       21 0.58119791E-02 0.12500000E+03</pdfrwt>
<pdfrwt beam="2">  1       21 0.15907769E-01 0.12500000E+03</pdfrwt>
<totfact> 0.71885847E+06</totfact>
</mgrwt>
</event>
<event>
 3    1  0.1594457E-001  0.1250000E+03  0.7546771E-02  0.1235069E+00
         21   -1    0    0  502  501  0.00000000000E+00  0.00000000000E+00  0.35362412066E+02  0.35362412066E+02  0.00000000000E+00 0.  1.
         21   -1    0    0  501  502 -0.00000000000E+00 -0.00000000000E+00 -0.11046333584E+03  0.11046333584E+03  0.00000000000E+00 0.  1.
         25    1    1    2    0    0  0.00000000000E+00  0.00000000000E+00 -0.75100923770E+02  0.14582574790E+03  0.12500000000E+03 0.  0.
<mgrwt>
<rscale>  0 0.12500000E+03</rscale>
<asrwt>0</asrwt>
<pdfrwt beam="1">  1       21 0.54403712E-02 0.12500000E+03</pdfrwt>
<pdfrwt beam="2">  1       21 0.16994359E-01 0.12500000E+03</pdfrwt>
<totfact> 0.71287591E+06</totfact>
</mgrwt>
</event>
<event>
 3    1  0.1594457E-001  0.1250000E+03  0.7546771E-02  0.1235069E+00
         21   -1    0    0  502  501  0.00000000000E+00  0.00000000000E+00  0.75323877251E+02  0.75323877251E+02  0.00000000000E+00 0. -1.
         21   -1    0    0  501  502 -0.00000000000E+00 -0.00000000000E+00 -0.51859385663E+02  0.51859385663E+02  0.00000000000E+00 0. -1.
         25    1    1    2    0    0  0.00000000000E+00  0.00000000000E+00  0.23464491588E+02  0.12718326291E+03  0.12500000000E+03 0.  0.
<mgrwt>
<rscale>  0 0.12500000E+03</rscale>
<asrwt>0</asrwt>
<pdfrwt beam="1">  1       21 0.11588289E-01 0.12500000E+03</pdfrwt>
<pdfrwt beam="2">  1       21 0.79783670E-02 0.12500000E+03</pdfrwt>
<totfact> 0.73744209E+06</totfact>
</mgrwt>
</event>
<event>
 3    1  0.1594457E-001  0.1250000E+03  0.7546771E-02  0.1235069E+00
         21   -1    0    0  502  501  0.00000000000E+00  0.00000000000E+00  0.93640673193E+02  0.93640673193E+02  0.00000000000E+00 0.  1.
         21   -1    0    0  501  502 -0.00000000000E+00 -0.00000000000E+00 -0.41715313088E+02  0.41715313088E+02  0.00000000000E+00 0.  1.
         25    1    1    2    0    0  0.00000000000E+00  0.00000000000E+00  0.51925360105E+02  0.13535598628E+03  0.12500000000E+03 0.  0.
<mgrwt>
<rscale>  0 0.12500000E+03</rscale>
<asrwt>0</asrwt>
<pdfrwt beam="1">  1       21 0.14406257E-01 0.12500000E+03</pdfrwt>
<pdfrwt beam="2">  1       21 0.64177405E-02 0.12500000E+03</pdfrwt>
<totfact> 0.72649371E+06</totfact>
</mgrwt>
</event>
<event>
 3    1  0.1594457E-001  0.1250000E+03  0.7546771E-02  0.1235069E+00
         21   -1    0    0  502  501  0.00000000000E+00  0.00000000000E+00  0.97372480547E+03  0.97372480547E+03  0.00000000000E+00 0. -1.
         21   -1    0    0  501  502 -0.00000000000E+00 -0.00000000000E+00 -0.40116570699E+01  0.40116570699E+01  0.00000000000E+00 0. -1.
         25    1    1    2    0    0  0.00000000000E+00  0.00000000000E+00  0.96971314840E+03  0.97773646254E+03  0.12500000000E+03 0.  0.
<mgrwt>
<rscale>  0 0.12500000E+03</rscale>
<asrwt>0</asrwt>
<pdfrwt beam="1">  1       21 0.14980363E+00 0.12500000E+03</pdfrwt>
<pdfrwt beam="2">  1       21 0.61717879E-03 0.12500000E+03</pdfrwt>
<totfact> 0.24183244E+06</totfact>
</mgrwt>
</event>
<event>
 3    1  0.1594457E-001  0.1250000E+03  0.7546771E-02  0.1235069E+00
         21   -1    0    0  502  501  0.00000000000E+00  0.00000000000E+00  0.87394259683E+01  0.87394259683E+01  0.00000000000E+00 0. -1.
         21   -1    0    0  501  502 -0.00000000000E+00 -0.00000000000E+00 -0.44696871559E+03  0.44696871559E+03  0.00000000000E+00 0. -1.
         25    1    1    2    0    0  0.00000000000E+00  0.00000000000E+00 -0.43822928962E+03  0.45570814155E+03  0.12500000000E+03 0.  0.
<mgrwt>
<rscale>  0 0.12500000E+03</rscale>
<asrwt>0</asrwt>
<pdfrwt beam="1">  1       21 0.13445272E-02 0.12500000E+03</pdfrwt>
<pdfrwt beam="2">  1       21 0.68764410E-01 0.12500000E+03</pdfrwt>
<totfact> 0.44552668E+06</totfact>
</mgrwt>
</event>
<event>
 3    1  0.1594457E-001  0.1250000E+03  0.7546771E-02  0.1235069E+00
         21   -1    0    0  502  501  0.00000000000E+00  0.00000000000E+00  0.30708383280E+02  0.30708383280E+02  0.00000000000E+00 0.  1.
         21   -1    0    0  501  502 -0.00000000000E+00 -0.00000000000E+00 -0.12720467777E+03  0.12720467777E+03  0.00000000000E+00 0.  1.
         25    1    1    2    0    0  0.00000000000E+00  0.00000000000E+00 -0.96496294492E+02  0.15791306105E+03  0.12500000000E+03 0.  0.
<mgrwt>
<rscale>  0 0.12500000E+03</rscale>
<asrwt>0</asrwt>
<pdfrwt beam="1">  1       21 0.47243666E-02 0.12500000E+03</pdfrwt>
<pdfrwt beam="2">  1       21 0.19569951E-01 0.12500000E+03</pdfrwt>
<totfact> 0.69775400E+06</totfact>
</mgrwt>
</event>
<event>
 3    1  0.1594457E-001  0.1250000E+03  0.7546771E-02  0.1235069E+00
         21   -1    0    0  502  501  0.00000000000E+00  0.00000000000E+00  0.69740226769E+01  0.69740226769E+01  0.00000000000E+00 0.  1.
         21   -1    0    0  501  502 -0.00000000000E+00 -0.00000000000E+00 -0.56011432439E+03  0.56011432439E+03  0.00000000000E+00 0.  1.
         25    1    1    2    0    0  0.00000000000E+00  0.00000000000E+00 -0.55314030172E+03  0.56708834707E+03  0.12500000000E+03 0.  0.
<mgrwt>
<rscale>  0 0.12500000E+03</rscale>
<asrwt>0</asrwt>
<pdfrwt beam="1">  1       21 0.10729265E-02 0.12500000E+03</pdfrwt>
<pdfrwt beam="2">  1       21 0.86171439E-01 0.12500000E+03</pdfrwt>
<totfact> 0.38624613E+06</totfact>
</mgrwt>
</event>
<event>
 3    1  0.1594457E-001  0.1250000E+03  0.7546771E-02  0.1235069E+00
         21   -1    0    0  502  501  0.00000000000E+00  0.00000000000E+00  0.15767550937E+03  0.15767550937E+03  0.00000000000E+00 0.  1.
         21   -1    0    0  501  502 -0.00000000000E+00 -0.00000000000E+00 -0.24773980535E+02  0.24773980535E+02  0.00000000000E+00 0.  1.
         25    1    1    2    0    0  0.00000000000E+00  0.00000000000E+00  0.13290152883E+03  0.18244948990E+03  0.12500000000E+03 0.  0.
<mgrwt>
<rscale>  0 0.12500000E+03</rscale>
<asrwt>0</asrwt>
<pdfrwt beam="1">  1       21 0.24257770E-01 0.12500000E+03</pdfrwt>
<pdfrwt beam="2">  1       21 0.38113817E-02 0.12500000E+03</pdfrwt>
<totfact> 0.66871644E+06</totfact>
</mgrwt>
</event>
<event>
 3    1  0.1594457E-001  0.1250000E+03  0.7546771E-02  0.1235069E+00
         21   -1    0    0  502  501  0.00000000000E+00  0.00000000000E+00  0.25273272695E+01  0.25273272695E+01  0.00000000000E+00 0. -1.
         21   -1    0    0  501  502 -0.00000000000E+00 -0.00000000000E+00 -0.15456051328E+04  0.15456051328E+04  0.00000000000E+00 0. -1.
         25    1    1    2    0    0  0.00000000000E+00  0.00000000000E+00 -0.15430778055E+04  0.15481324601E+04  0.12500000000E+03 0.  0.
<mgrwt>
<rscale>  0 0.12500000E+03</rscale>
<asrwt>0</asrwt>
<pdfrwt beam="1">  1       21 0.38881926E-03 0.12500000E+03</pdfrwt>
<pdfrwt beam="2">  1       21 0.23778560E+00 0.12500000E+03</pdfrwt>
<totfact> 0.13293946E+06</totfact>
</mgrwt>
</event>
<event>
 3    1  0.1594457E-001  0.1250000E+03  0.7546771E-02  0.1235069E+00
         21   -1    0    0  502  501  0.00000000000E+00  0.00000000000E+00  0.11533389866E+04  0.11533389866E+04  0.00000000000E+00 0. -1.
         21   -1    0    0  501  502 -0.00000000000E+00 -0.00000000000E+00 -0.33869053637E+01  0.33869053637E+01  0.00000000000E+00 0. -1.
         25    1    1    2    0    0  0.00000000000E+00  0.00000000000E+00  0.11499520813E+04  0.11567258920E+04  0.12500000000E+03 0.  0.
<mgrwt>
<rscale>  0 0.12500000E+03</rscale>
<asrwt>0</asrwt>
<pdfrwt beam="1">  1       21 0.17743645E+00 0.12500000E+03</pdfrwt>
<pdfrwt beam="2">  1       21 0.52106329E-03 0.12500000E+03</pdfrwt>
<totfact> 0.20027717E+06</totfact>
</mgrwt>
</event>
<event>
 3    1  0.1594457E-001  0.1250000E+03  0.7546771E-02  0.1235069E+00
         21   -1    0    0  502  501  0.00000000000E+00  0.00000000000E+00  0.26635870626E+03  0.26635870626E+03  0.00000000000E+00 0. -1.
         21   -1    0    0  501  502 -0.00000000000E+00 -0.00000000000E+00 -0.14665373830E+02  0.14665373830E+02  0.00000000000E+00 0. -1.
         25    1    1    2    0    0  0.00000000000E+00  0.00000000000E+00  0.25169333243E+03  0.28102408008E+03  0.12500000000E+03 0.  0.
<mgrwt>
<rscale>  0 0.12500000E+03</rscale>
<asrwt>0</asrwt>
<pdfrwt beam="1">  1       21 0.40978259E-01 0.12500000E+03</pdfrwt>
<pdfrwt beam="2">  1       21 0.22562116E-02 0.12500000E+03</pdfrwt>
<totfact> 0.57070962E+06</totfact>
</mgrwt>
</event>
<event>
 3    1  0.1594457E-001  0.1250000E+03  0.7546771E-02  0.1235069E+00
         21   -1    0    0  502  501  0.00000000000E+00  0.00000000000E+00  0.30748718152E+04  0.30748718152E+04  0.00000000000E+00 0. -1.
         21   -1    0    0  501  502 -0.00000000000E+00 -0.00000000000E+00 -0.12703781604E+01  0.12703781604E+01  0.00000000000E+00 0. -1.
         25    1    1    2    0    0  0.00000000000E+00  0.00000000000E+00  0.30736014371E+04  0.30761421934E+04  0.12500000000E+03 0.  0.
<mgrwt>
<rscale>  0 0.12500000E+03</rscale>
<asrwt>0</asrwt>
<pdfrwt beam="1">  1       21 0.47305124E+00 0.12500000E+03</pdfrwt>
<pdfrwt beam="2">  1       21 0.19544526E-03 0.12500000E+03</pdfrwt>
<totfact> 0.15055434E+05</totfact>
</mgrwt>
</event>
<event>
 3    1  0.1594457E-001  0.1250000E+03  0.7546771E-02  0.1235069E+00
         21   -1    0    0  502  501  0.00000000000E+00  0.00000000000E+00  0.23812406974E+03  0.23812406974E+03  0.00000000000E+00 0. -1.
         21   -1    0    0  501  502 -0.00000000000E+00 -0.00000000000E+00 -0.16404263560E+02  0.16404263560E+02  0.00000000000E+00 0. -1.
         25    1    1    2    0    0  0.00000000000E+00  0.00000000000E+00  0.22171980618E+03  0.25452833330E+03  0.12500000000E+03 0.  0.
<mgrwt>
<rscale>  0 0.12500000E+03</rscale>
<asrwt>0</asrwt>
<pdfrwt beam="1">  1       21 0.36634470E-01 0.12500000E+03</pdfrwt>
<pdfrwt beam="2">  1       21 0.25237330E-02 0.12500000E+03</pdfrwt>
<totfact> 0.59454455E+06</totfact>
</mgrwt>
</event>
<event>
 3    1  0.1594457E-001  0.1250000E+03  0.7546771E-02  0.1235069E+00
         21   -1    0    0  502  501  0.00000000000E+00  0.00000000000E+00  0.32357240157E+02  0.32357240157E+02  0.00000000000E+00 0.  1.
         21   -1    0    0  501  502 -0.00000000000E+00 -0.00000000000E+00 -0.12072259504E+03  0.12072259504E+03  0.00000000000E+00 0.  1.
         25    1    1    2    0    0  0.00000000000E+00  0.00000000000E+00 -0.88365354882E+02  0.15307983520E+03  0.12500000000E+03 0.  0.
<mgrwt>
<rscale>  0 0.12500000E+03</rscale>
<asrwt>0</asrwt>
<pdfrwt beam="1">  1       21 0.49780369E-02 0.12500000E+03</pdfrwt>
<pdfrwt beam="2">  1       21 0.18572707E-01 0.12500000E+03</pdfrwt>
<totfact> 0.70374427E+06</totfact>
</mgrwt>
</event>
<event>
 3    1  0.1594457E-001  0.1250000E+03  0.7546771E-02  0.1235069E+00
         21   -1    0    0  502  501  0.00000000000E+00  0.00000000000E+00  0.93072381921E+02  0.93072381921E+02  0.00000000000E+00 0. -1.
         21   -1    0    0  501  502 -0.00000000000E+00 -0.00000000000E+00 -0.41970022894E+02  0.41970022894E+02  0.00000000000E+00 0. -1.
         25    1    1    2    0    0  0.00000000000E+00  0.00000000000E+00  0.51102359027E+02  0.13504240481E+03  0.12500000000E+03 0.  0.
<mgrwt>
<rscale>  0 0.12500000E+03</rscale>
<asrwt>0</asrwt>
<pdfrwt beam="1">  1       21 0.14318828E-01 0.12500000E+03</pdfrwt>
<pdfrwt beam="2">  1       21 0.64569266E-02 0.12500000E+03</pdfrwt>
<totfact> 0.72690858E+06</totfact>
</mgrwt>
</event>
<event>
 3    1  0.1594457E-001  0.1250000E+03  0.7546771E-02  0.1235069E+00
         21   -1    0    0  502  501  0.00000000000E+00  0.00000000000E+00  0.97331155369E+02  0.97331155369E+02  0.00000000000E+00 0.  1.
         21   -1    0    0  501  502 -0.00000000000E+00 -0.00000000000E+00 -0.40133603523E+02  0.40133603523E+02  0.00000000000E+00 0.  1.
         25    1    1    2    0    0  0.00000000000E+00  0.00000000000E+00  0.57197551846E+02  0.13746475889E+03  0.12500000000E+03 0.  0.
<mgrwt>
<rscale>  0 0.12500000E+03</rscale>
<asrwt>0</asrwt>
<pdfrwt beam="1">  1       21 0.14974024E-01 0.12500000E+03</pdfrwt>
<pdfrwt beam="2">  1       21 0.61744006E-02 0.12500000E+03</pdfrwt>
<totfact> 0.72371736E+06</totfact>
</mgrwt>
</event>
<event>
 3    1  0.1594457E-001  0.1250000E+03  0.7546771E-02  0.1235069E+00
         21   -1    0    0  502  501  0.00000000000E+00  0.00000000000E+00  0.24302829774E+02  0.24302829774E+02  0.00000000000E+00 0.  1.
         21   -1    0    0  501  502 -0.00000000000E+00 -0.00000000000E+00 -0.16073231127E+03  0.16073231127E+03  0.00000000000E+00 0.  1.
         25    1    1    2    0    0  0.00000000000E+00  0.00000000000E+00 -0.13642948150E+03  0.18503514105E+03  0.12500000000E+03 0.  0.
<mgrwt>
<rscale>  0 0.12500000E+03</rscale>
<asrwt>0</asrwt>
<pdfrwt beam="1">  1       21 0.37388969E-02 0.12500000E+03</pdfrwt>
<pdfrwt beam="2">  1       21 0.24728048E-01 0.12500000E+03</pdfrwt>
<totfact> 0.66578563E+06</totfact>
</mgrwt>
</event>
<event>
 3    1  0.1594457E-001  0.1250000E+03  0.7546771E-02  0.1235069E+00
         21   -1    0    0  502  501  0.00000000000E+00  0.00000000000E+00  0.23835995682E+01  0.23835995682E+01  0.00000000000E+00 0. -1.
         21   -1    0    0  501  502 -0.00000000000E+00 -0.00000000000E+00 -0.16388029483E+04  0.16388029483E+04  0.00000000000E+00 0. -1.
         25    1    1    2    0    0  0.00000000000E+00  0.00000000000E+00 -0.16364193488E+04  0.16411865479E+04  0.12500000000E+03 0.  0.
<mgrwt>
<rscale>  0 0.12500000E+03</rscale>
<asrwt>0</asrwt>
<pdfrwt beam="1">  1       21 0.36670874E-03 0.12500000E+03</pdfrwt>
<pdfrwt beam="2">  1       21 0.25212277E+00 0.12500000E+03</pdfrwt>
<totfact> 0.12023300E+06</totfact>
</mgrwt>
</event>
<event>
 3    1  0.1594457E-001  0.1250000E+03  0.7546771E-02  0.1235069E+00
         21   -1    0    0  502  501  0.00000000000E+00  0.00000000000E+00  0.72475516692E+03  0.72475516692E+03  0.00000000000E+00 0. -1.
         21   -1    0    0  501  502 -0.00000000000E+00 -0.00000000000E+00 -0.53897511578E+01  0.53897511578E+01  0.00000000000E+00 0. -1.
         25    1    1    2    0    0  0.00000000000E+00  0.00000000000E+00  0.71936541576E+03  0.73014491808E+03  0.12500000000E+03 0.  0.
<mgrwt>
<rscale>  0 0.12500000E+03</rscale>
<asrwt>0</asrwt>
<pdfrwt beam="1">  1       21 0.11150072E+00 0.12500000E+03</pdfrwt>
<pdfrwt beam="2">  1       21 0.82919306E-03 0.12500000E+03</pdfrwt>
<totfact> 0.31779849E+06</totfact>
</mgrwt>
</event>
<event>
 3    1  0.1594457E-001  0.1250000E+03  0.7546771E-02  0.1235069E+00
         21   -1    0    0  502  501  0.00000000000E+00  0.00000000000E+00  0.22079775362E+01  0.22079775362E+01  0.00000000000E+00 0.  1.
         21   -1    0    0  501  502 -0.00000000000E+00 -0.00000000000E+00 -0.17691529628E+04  0.17691529628E+04  0.00000000000E+00 0.  1.
         25    1    1    2    0    0  0.00000000000E+00  0.00000000000E+00 -0.17669449853E+04  0.17713609403E+04  0.12500000000E+03 0.  0.
<mgrwt>
<rscale>  0 0.12500000E+03</rscale>
<asrwt>0</asrwt>
<pdfrwt beam="1">  1       21 0.33968824E-03 0.12500000E+03</pdfrwt>
<pdfrwt beam="2">  1       21 0.27217787E+00 0.12500000E+03</pdfrwt>
<totfact> 0.10403427E+06</totfact>
</mgrwt>
</event>
<event>
 3    1  0.1594457E-001  0.1250000E+03  0.7546771E-02  0.1235069E+00
         21   -1    0    0  502  501  0.00000000000E+00  0.00000000000E+00  0.11669263905E+02  0.11669263905E+02  0.00000000000E+00 0.  1.
         21   -1    0    0  501  502 -0.00000000000E+00 -0.00000000000E+00 -0.33474690706E+03  0.33474690706E+03  0.00000000000E+00 0.  1.
         25    1    1    2    0    0  0.00000000000E+00  0.00000000000E+00 -0.32307764316E+03  0.34641617097E+03  0.12500000000E+03 0.  0.
<mgrwt>
<rscale>  0 0.12500000E+03</rscale>
<asrwt>0</asrwt>
<pdfrwt beam="1">  1       21 0.17952715E-02 0.12500000E+03</pdfrwt>
<pdfrwt beam="2">  1       21 0.51499520E-01 0.12500000E+03</pdfrwt>
<totfact> 0.51804203E+06</totfact>
</mgrwt>
</event>
<event>
 3    1  0.1594457E-001  0.1250000E+03  0.7546771E-02  0.1235069E+00
         21   -1    0    0  502  501  0.00000000000E+00  0.00000000000E+00  0.11059087646E+04  0.11059087646E+04  0.00000000000E+00 0.  1.
         21   -1    0    0  501  502 -0.00000000000E+00 -0.00000000000E+00 -0.35321629823E+01  0.35321629823E+01  0.00000000000E+00 0.  1.
         25    1    1    2    0    0  0.00000000000E+00  0.00000000000E+00  0.11023766016E+04  0.11094409276E+04  0.12500000000E+03 0.  0.
<mgrwt>
<rscale>  0 0.12500000E+03</rscale>
<asrwt>0</asrwt>
<pdfrwt beam="1">  1       21 0.17013953E+00 0.12500000E+03</pdfrwt>
<pdfrwt beam="2">  1       21 0.54341057E-03 0.12500000E+03</pdfrwt>
<totfact> 0.21042699E+06</totfact>
</mgrwt>
</event>
<event>
 3    1  0.1594457E-001  0.1250000E+03  0.7546771E-02  0.1235069E+00
         21   -1    0    0  502  501  0.00000000000E+00  0.00000000000E+00  0.30655178236E+03  0.30655178236E+03  0.00000000000E+00 0. -1.
         21   -1    0    0  501  502 -0.00000000000E+00 -0.00000000000E+00 -0.12742545386E+02  0.12742545386E+02  0.00000000000E+00 0. -1.
         25    1    1    2    0    0  0.00000000000E+00  0.00000000000E+00  0.29380923698E+03  0.31929432775E+03  0.12500000000E+03 0.  0.
<mgrwt>
<rscale>  0 0.12500000E+03</rscale>
<asrwt>0</asrwt>
<pdfrwt beam="1">  1       21 0.47161807E-01 0.12500000E+03</pdfrwt>
<pdfrwt beam="2">  1       21 0.19603918E-02 0.12500000E+03</pdfrwt>
<totfact> 0.53889314E+06</totfact>
</mgrwt>
</event>
<event>
 3    1  0.1594457E-001  0.1250000E+03  0.7546771E-02  0.1235069E+00
         21   -1    0    0  502  501  0.00000000000E+00  0.00000000000E+00  0.10177393232E+04  0.10177393232E+04  0.00000000000E+00 0.  1.
         21   -1    0    0  501  502 -0.00000000000E+00 -0.00000000000E+00 -0.38381635759E+01  0.38381635759E+01  0.00000000000E+00 0.  1.
         25    1    1    2    0    0  0.00000000000E+00  0.00000000000E+00  0.10139011596E+04  0.10215774867E+04  0.12500000000E+03 0.  0.
<mgrwt>
<rscale>  0 0.12500000E+03</rscale>
<asrwt>0</asrwt>
<pdfrwt beam="1">  1       21 0.15657507E+00 0.12500000E+03</pdfrwt>
<pdfrwt beam="2">  1       21 0.59048751E-03 0.12500000E+03</pdfrwt>
<totfact> 0.23084694E+06</totfact>
</mgrwt>
</event>
<event>
 3    1  0.1594457E-001  0.1250000E+03  0.7546771E-02  0.1235069E+00
         21   -1    0    0  502  501  0.00000000000E+00  0.00000000000E+00  0.89116414230E+03  0.89116414230E+03  0.00000000000E+00 0. -1.
         21   -1    0    0  501  502 -0.00000000000E+00 -0.00000000000E+00 -0.43833114626E+01  0.43833114626E+01  0.00000000000E+00 0. -1.
         25    1    1    2    0    0  0.00000000000E+00  0.00000000000E+00  0.88678083084E+03  0.89554745377E+03  0.12500000000E+03 0.  0.
<mgrwt>
<rscale>  0 0.12500000E+03</rscale>
<asrwt>0</asrwt>
<pdfrwt beam="1">  1       21 0.13710203E+00 0.12500000E+03</pdfrwt>
<pdfrwt beam="2">  1       21 0.67435632E-03 0.12500000E+03</pdfrwt>
<totfact> 0.26427566E+06</totfact>
</mgrwt>
</event>
<event>
 3    1  0.1594457E-001  0.1250000E+03  0.7546771E-02  0.1235069E+00
         21   -1    0    0  502  501  0.00000000000E+00  0.00000000000E+00  0.88473602781E+02  0.88473602781E+02  0.00000000000E+00 0. -1.
         21   -1    0    0  501  502 -0.00000000000E+00 -0.00000000000E+00 -0.44151587335E+02  0.44151587335E+02  0.00000000000E+00 0. -1.
         25    1    1    2    0    0  0.00000000000E+00  0.00000000000E+00  0.44322015447E+02  0.13262519012E+03  0.12500000000E+03 0.  0.
<mgrwt>
<rscale>  0 0.12500000E+03</rscale>
<asrwt>0</asrwt>
<pdfrwt beam="1">  1       21 0.13611323E-01 0.12500000E+03</pdfrwt>
<pdfrwt beam="2">  1       21 0.67925519E-02 0.12500000E+03</pdfrwt>
<totfact> 0.73012489E+06</totfact>
</mgrwt>
</event>
<event>
 3    1  0.1594457E-001  0.1250000E+03  0.7546771E-02  0.1235069E+00
         21   -1    0    0  502  501  0.00000000000E+00  0.00000000000E+00  0.53017103504E+02  0.53017103504E+02  0.00000000000E+00 0. -1.
         21   -1    0    0  501  502 -0.00000000000E+00 -0.00000000000E+00 -0.73679053396E+02  0.73679053396E+02  0.00000000000E+00 0. -1.
         25    1    1    2    0    0  0.00000000000E+00  0.00000000000E+00 -0.20661949892E+02  0.12669615690E+03  0.12500000000E+03 0.  0.
<mgrwt>
<rscale>  0 0.12500000E+03</rscale>
<asrwt>0</asrwt>
<pdfrwt beam="1">  1       21 0.81564775E-02 0.12500000E+03</pdfrwt>
<pdfrwt beam="2">  1       21 0.11335239E-01 0.12500000E+03</pdfrwt>
<totfact> 0.73810559E+06</totfact>
</mgrwt>
</event>
<event>
 3    1  0.1594457E-001  0.1250000E+03  0.7546771E-02  0.1235069E+00
         21   -1    0    0  502  501  0.00000000000E+00  0.00000000000E+00  0.25145170245E+03  0.25145170245E+03  0.00000000000E+00 0.  1.
         21   -1    0    0  501  502 -0.00000000000E+00 -0.00000000000E+00 -0.15534792415E+02  0.15534792415E+02  0.00000000000E+00 0.  1.
         25    1    1    2    0    0  0.00000000000E+00  0.00000000000E+00  0.23591691004E+03  0.26698649487E+03  0.12500000000E+03 0.  0.
<mgrwt>
<rscale>  0 0.12500000E+03</rscale>
<asrwt>0</asrwt>
<pdfrwt beam="1">  1       21 0.38684874E-01 0.12500000E+03</pdfrwt>
<pdfrwt beam="2">  1       21 0.23899682E-02 0.12500000E+03</pdfrwt>
<totfact> 0.58314782E+06</totfact>
</mgrwt>
</event>
<event>
 3    1  0.1594457E-001  0.1250000E+03  0.7546771E-02  0.1235069E+00
         21   -1    0    0  502  501  0.00000000000E+00  0.00000000000E+00  0.22242235539E+03  0.22242235539E+03  0.00000000000E+00 0. -1.
         21   -1    0    0  501  502 -0.00000000000E+00 -0.00000000000E+00 -0.17562308398E+02  0.17562308398E+02  0.00000000000E+00 0. -1.
         25    1    1    2    0    0  0.00000000000E+00  0.00000000000E+00  0.20486004700E+03  0.23998466379E+03  0.12500000000E+03 0.  0.
<mgrwt>
<rscale>  0 0.12500000E+03</rscale>
<asrwt>0</asrwt>
<pdfrwt beam="1">  1       21 0.34218822E-01 0.12500000E+03</pdfrwt>
<pdfrwt beam="2">  1       21 0.27018938E-02 0.12500000E+03</pdfrwt>
<totfact> 0.60834148E+06</totfact>
</mgrwt>
</event>
<event>
 3    1  0.1594457E-001  0.1250000E+03  0.7546771E-02  0.1235069E+00
         21   -1    0    0  502  501  0.00000000000E+00  0.00000000000E+00  0.53080737047E+02  0.53080737047E+02  0.00000000000E+00 0. -1.
         21   -1    0    0  501  502 -0.00000000000E+00 -0.00000000000E+00 -0.73590726454E+02  0.73590726454E+02  0.00000000000E+00 0. -1.
         25    1    1    2    0    0  0.00000000000E+00  0.00000000000E+00 -0.20509989407E+02  0.12667146350E+03  0.12500000000E+03 0.  0.
<mgrwt>
<rscale>  0 0.12500000E+03</rscale>
<asrwt>0</asrwt>
<pdfrwt beam="1">  1       21 0.81662672E-02 0.12500000E+03</pdfrwt>
<pdfrwt beam="2">  1       21 0.11321650E-01 0.12500000E+03</pdfrwt>
<totfact> 0.73813932E+06</totfact>
</mgrwt>
</event>
<event>
 3    1  0.1594457E-001  0.1250000E+03  0.7546771E-02  0.1235069E+00
         21   -1    0    0  502  501  0.00000000000E+00  0.00000000000E+00  0.15896431477E+03  0.15896431477E+03  0.00000000000E+00 0. -1.
         21   -1    0    0  501  502 -0.00000000000E+00 -0.00000000000E+00 -0.24573125142E+02  0.24573125142E+02  0.00000000000E+00 0. -1.
         25    1    1    2    0    0  0.00000000000E+00  0.00000000000E+00  0.13439118963E+03  0.18353743991E+03  0.12500000000E+03 0.  0.
<mgrwt>
<rscale>  0 0.12500000E+03</rscale>
<asrwt>0</asrwt>
<pdfrwt beam="1">  1       21 0.24456048E-01 0.12500000E+03</pdfrwt>
<pdfrwt beam="2">  1       21 0.37804809E-02 0.12500000E+03</pdfrwt>
<totfact> 0.66748032E+06</totfact>
</mgrwt>
</event>
<event>
 3    1  0.1594457E-001  0.1250000E+03  0.7546771E-02  0.1235069E+00
         21   -1    0    0  502  501  0.00000000000E+00  0.00000000000E+00  0.48850580178E+01  0.48850580178E+01  0.00000000000E+00 0.  1.
         21   -1    0    0  501  502 -0.00000000000E+00 -0.00000000000E+00 -0.79963226347E+03  0.79963226347E+03  0.00000000000E+00 0.  1.
         25    1    1    2    0    0  0.00000000000E+00  0.00000000000E+00 -0.79474720546E+03  0.80451732149E+03  0.12500000000E+03 0.  0.
<mgrwt>
<rscale>  0 0.12500000E+03</rscale>
<asrwt>0</asrwt>
<pdfrwt beam="1">  1       21 0.75154836E-03 0.12500000E+03</pdfrwt>
<pdfrwt beam="2">  1       21 0.12302019E+00 0.12500000E+03</pdfrwt>
<totfact> 0.29213722E+06</totfact>
</mgrwt>
</event>
<event>
 3    1  0.1594457E-001  0.1250000E+03  0.7546771E-02  0.1235069E+00
         21   -1    0    0  502  501  0.00000000000E+00  0.00000000000E+00  0.12292856795E+03  0.12292856795E+03  0.00000000000E+00 0. -1.
         21   -1    0    0  501  502 -0.00000000000E+00 -0.00000000000E+00 -0.31776584280E+02  0.31776584280E+02  0.00000000000E+00 0. -1.
         25    1    1    2    0    0  0.00000000000E+00  0.00000000000E+00  0.91151983671E+02  0.15470515223E+03  0.12500000000E+03 0.  0.
<mgrwt>
<rscale>  0 0.12500000E+03</rscale>
<asrwt>0</asrwt>
<pdfrwt beam="1">  1       21 0.18912087E-01 0.12500000E+03</pdfrwt>
<pdfrwt beam="2">  1       21 0.48887053E-02 0.12500000E+03</pdfrwt>
<totfact> 0.70172323E+06</totfact>
</mgrwt>
</event>
<event>
 3    1  0.1594457E-001  0.1250000E+03  0.7546771E-02  0.1235069E+00
         21   -1    0    0  502  501  0.00000000000E+00  0.00000000000E+00  0.15062604942E+02  0.15062604942E+02  0.00000000000E+00 0. -1.
         21   -1    0    0  501  502 -0.00000000000E+00 -0.00000000000E+00 -0.25933429277E+03  0.25933429277E+03  0.00000000000E+00 0. -1.
         25    1    1    2    0    0  0.00000000000E+00  0.00000000000E+00 -0.24427168783E+03  0.27439689771E+03  0.12500000000E+03 0.  0.
<mgrwt>
<rscale>  0 0.12500000E+03</rscale>
<asrwt>0</asrwt>
<pdfrwt beam="1">  1       21 0.23173239E-02 0.12500000E+03</pdfrwt>
<pdfrwt beam="2">  1       21 0.39897583E-01 0.12500000E+03</pdfrwt>
<totfact> 0.57653347E+06</totfact>
</mgrwt>
</event>
<event>
 3    1  0.1594457E-001  0.1250000E+03  0.7546771E-02  0.1235069E+00
         21   -1    0    0  502  501  0.00000000000E+00  0.00000000000E+00  0.74489140329E+02  0.74489140329E+02  0.00000000000E+00 0.  1.
         21   -1    0    0  501  502 -0.00000000000E+00 -0.00000000000E+00 -0.52440530026E+02  0.52440530026E+02  0.00000000000E+00 0.  1.
         25    1    1    2    0    0  0.00000000000E+00  0.00000000000E+00  0.22048610303E+02  0.12692967035E+03  0.12500000000E+03 0.  0.
<mgrwt>
<rscale>  0 0.12500000E+03</rscale>
<asrwt>0</asrwt>
<pdfrwt beam="1">  1       21 0.11459868E-01 0.12500000E+03</pdfrwt>
<pdfrwt beam="2">  1       21 0.80677738E-02 0.12500000E+03</pdfrwt>
<totfact> 0.73778713E+06</totfact>
</mgrwt>
</event>
<event>
 3    1  0.1594457E-001  0.1250000E+03  0.7546771E-02  0.1235069E+00
         21   -1    0    0  502  501  0.00000000000E+00  0.00000000000E+00  0.66354164256E+01  0.66354164256E+01  0.00000000000E+00 0. -1.
         21   -1    0    0  501  502 -0.00000000000E+00 -0.00000000000E+00 -0.58869703865E+03  0.58869703865E+03  0.00000000000E+00 0. -1.
         25    1    1    2    0    0  0.00000000000E+00  0.00000000000E+00 -0.58206162223E+03  0.59533245508E+03  0.12500000000E+03 0.  0.
<mgrwt>
<rscale>  0 0.12500000E+03</rscale>
<asrwt>0</asrwt>
<pdfrwt beam="1">  1       21 0.10208329E-02 0.12500000E+03</pdfrwt>
<pdfrwt beam="2">  1       21 0.90568806E-01 0.12500000E+03</pdfrwt>
<totfact> 0.37304559E+06</totfact>
</mgrwt>
</event>
<event>
 3    1  0.1594457E-001  0.1250000E+03  0.7546771E-02  0.1235069E+00
         21   -1    0    0  502  501  0.00000000000E+00  0.00000000000E+00  0.37801301744E+03  0.37801301744E+03  0.00000000000E+00 0. -1.
         21   -1    0    0  501  502 -0.00000000000E+00 -0.00000000000E+00 -0.10333638842E+02  0.10333638842E+02  0.00000000000E+00 0. -1.
         25    1    1    2    0    0  0.00000000000E+00  0.00000000000E+00  0.36767937860E+03  0.38834665629E+03  0.12500000000E+03 0.  0.
<mgrwt>
<rscale>  0 0.12500000E+03</rscale>
<asrwt>0</asrwt>
<pdfrwt beam="1">  1       21 0.58155838E-01 0.12500000E+03</pdfrwt>
<pdfrwt beam="2">  1       21 0.15897909E-02 0.12500000E+03</pdfrwt>
<totfact> 0.48824037E+06</totfact>
</mgrwt>
</event>
<event>
 3    1  0.1594457E-001  0.1250000E+03  0.7546771E-02  0.1235069E+00
         21   -1    0    0  502  501  0.00000000000E+00  0.00000000000E+00  0.37322533148E+03  0.37322533148E+03  0.00000000000E+00 0.  1.
         21   -1    0    0  501  502 -0.00000000000E+00 -0.00000000000E+00 -0.10466197416E+02  0.10466197416E+02  0.00000000000E+00 0.  1.
         25    1    1    2    0    0  0.00000000000E+00  0.00000000000E+00  0.36275913406E+03  0.38369152889E+03  0.12500000000E+03 0.  0.
<mgrwt>
<rscale>  0 0.12500000E+03</rscale>
<asrwt>0</asrwt>
<pdfrwt beam="1">  1       21 0.57419272E-01 0.12500000E+03</pdfrwt>
<pdfrwt beam="2">  1       21 0.16101845E-02 0.12500000E+03</pdfrwt>
<totfact> 0.49142228E+06</totfact>
</mgrwt>
</event>
<event>
 3    1  0.1594457E-001  0.1250000E+03  0.7546771E-02  0.1235069E+00
         21   -1    0    0  502  501  0.00000000000E+00  0.00000000000E+00  0.24313762223E+02  0.24313762223E+02  0.00000000000E+00 0. -1.
         21   -1    0    0  501  502 -0.00000000000E+00 -0.00000000000E+00 -0.16066003954E+03  0.16066003954E+03  0.00000000000E+00 0. -1.
         25    1    1    2    0    0  0.00000000000E+00  0.00000000000E+00 -0.13634627731E+03  0.18497380176E+03  0.12500000000E+03 0.  0.
<mgrwt>
<rscale>  0 0.12500000E+03</rscale>
<asrwt>0</asrwt>
<pdfrwt beam="1">  1       21 0.37405789E-02 0.12500000E+03</pdfrwt>
<pdfrwt beam="2">  1       21 0.24716929E-01 0.12500000E+03</pdfrwt>
<totfact> 0.66585488E+06</totfact>
</mgrwt>
</event>
<event>
 3    1  0.1594457E-001  0.1250000E+03  0.7546771E-02  0.1235069E+00
         21   -1    0    0  502  501  0.00000000000E+00  0.00000000000E+00  0.45962982765E+02  0.45962982765E+02  0.00000000000E+00 0. -1.
         21   -1    0    0  501  502 -0.00000000000E+00 -0.00000000000E+00 -0.84986869106E+02  0.84986869106E+02  0.00000000000E+00 0. -1.
         25    1    1    2    0    0  0.00000000000E+00  0.00000000000E+00 -0.39023886340E+02  0.13094985187E+03  0.12500000000E+03 0.  0.
<mgrwt>
<rscale>  0 0.12500000E+03</rscale>
<asrwt>0</asrwt>
<pdfrwt beam="1">  1       21 0.70712281E-02 0.12500000E+03</pdfrwt>
<pdfrwt beam="2">  1       21 0.13074903E-01 0.12500000E+03</pdfrwt>
<totfact> 0.73237430E+06</totfact>
</mgrwt>
</event>
<event>
 3    1  0.1594457E-001  0.1250000E+03  0.7546771E-02  0.1235069E+00
         21   -1    0    0  502  501  0.00000000000E+00  0.00000000000E+00  0.12539808601E+04  0.12539808601E+04  0.00000000000E+00 0. -1.
         21   -1    0    0  501  502 -0.00000000000E+00 -0.00000000000E+00 -0.31150794437E+01  0.31150794437E+01  0.00000000000E+00 0. -1.
         25    1    1    2    0    0  0.00000000000E+00  0.00000000000E+00  0.12508657806E+04  0.12570959395E+04  0.12500000000E+03 0.  0.
<mgrwt>
<rscale>  0 0.12500000E+03</rscale>
<asrwt>0</asrwt>
<pdfrwt beam="1">  1       21 0.19291973E+00 0.12500000E+03</pdfrwt>
<pdfrwt beam="2">  1       21 0.47924399E-03 0.12500000E+03</pdfrwt>
<totfact> 0.18040729E+06</totfact>
</mgrwt>
</event>
<event>
 3    1  0.1594457E-001  0.1250000E+03  0.7546771E-02  0.1235069E+00
         21   -1    0    0  502  501  0.00000000000E+00  0.00000000000E+00  0.59057445350E+02  0.59057445350E+02  0.00000000000E+00 0. -1.
         21   -1    0    0  501  502 -0.00000000000E+00 -0.00000000000E+00 -0.66143226765E+02  0.66143226765E+02  0.00000000000E+00 0. -1.
         25    1    1    2    0    0  0.00000000000E+00  0.00000000000E+00 -0.70857814151E+01  0.12520067212E+03  0.12500000000E+03 0.  0.
<mgrwt>
<rscale>  0 0.12500000E+03</rscale>
<asrwt>0</asrwt>
<pdfrwt beam="1">  1       21 0.90857609E-02 0.12500000E+03</pdfrwt>
<pdfrwt beam="2">  1       21 0.10175881E-01 0.12500000E+03</pdfrwt>
<totfact> 0.74016481E+06</totfact>
</mgrwt>
</event>
<event>
 3    1  0.1594457E-001  0.1250000E+03  0.7546771E-02  0.1235069E+00
         21   -1    0    0  502  501  0.00000000000E+00  0.00000000000E+00  0.10168968385E+03  0.10168968385E+03  0.00000000000E+00 0.  1.
         21   -1    0    0  501  502 -0.00000000000E+00 -0.00000000000E+00 -0.38413434404E+02  0.38413434404E+02  0.00000000000E+00 0.  1.
         25    1    1    2    0    0  0.00000000000E+00  0.00000000000E+00  0.63276249443E+02  0.14010311825E+03  0.12500000000E+03 0.  0.
<mgrwt>
<rscale>  0 0.12500000E+03</rscale>
<asrwt>0</asrwt>
<pdfrwt beam="1">  1       21 0.15644567E-01 0.12500000E+03</pdfrwt>
<pdfrwt beam="2">  1       21 0.59097592E-02 0.12500000E+03</pdfrwt>
<totfact> 0.72025849E+06</totfact>
</mgrwt>
</event>
<event>
 3    1  0.1594457E-001  0.1250000E+03  0.7546771E-02  0.1235069E+00
         21   -1    0    0  502  501  0.00000000000E+00  0.00000000000E+00  0.37827721775E+01  0.37827721775E+01  0.00000000000E+00 0.  1.
         21   -1    0    0  501  502 -0.00000000000E+00 -0.00000000000E+00 -0.10326421515E+04  0.10326421515E+04  0.00000000000E+00 0.  1.
         25    1    1    2    0    0  0.00000000000E+00  0.00000000000E+00 -0.10288593793E+04  0.10364249237E+04  0.12500000000E+03 0.  0.
<mgrwt>
<rscale>  0 0.12500000E+03</rscale>
<asrwt>0</asrwt>
<pdfrwt beam="1">  1       21 0.58196506E-03 0.12500000E+03</pdfrwt>
<pdfrwt beam="2">  1       21 0.15886799E+00 0.12500000E+03</pdfrwt>
<totfact> 0.22723397E+06</totfact>
</mgrwt>
</event>
<event>
 3    1  0.1594457E-001  0.1250000E+03  0.7546771E-02  0.1235069E+00
         21   -1    0    0  502  501  0.00000000000E+00  0.00000000000E+00  0.10478076794E+03  0.10478076794E+03  0.00000000000E+00 0. -1.
         21   -1    0    0  501  502 -0.00000000000E+00 -0.00000000000E+00 -0.37280219230E+02  0.37280219230E+02  0.00000000000E+00 0. -1.
         25    1    1    2    0    0  0.00000000000E+00  0.00000000000E+00  0.67500548711E+02  0.14206098717E+03  0.12500000000E+03 0.  0.
<mgrwt>
<rscale>  0 0.12500000E+03</rscale>
<asrwt>0</asrwt>
<pdfrwt beam="1">  1       21 0.16120118E-01 0.12500000E+03</pdfrwt>
<pdfrwt beam="2">  1       21 0.57354184E-02 0.12500000E+03</pdfrwt>
<totfact> 0.71771380E+06</totfact>
</mgrwt>
</event>
<event>
 3    1  0.1594457E-001  0.1250000E+03  0.7546771E-02  0.1235069E+00
         21   -1    0    0  502  501  0.00000000000E+00  0.00000000000E+00  0.46395091045E+03  0.46395091045E+03  0.00000000000E+00 0. -1.
         21   -1    0    0  501  502 -0.00000000000E+00 -0.00000000000E+00 -0.84195329981E+01  0.84195329981E+01  0.00000000000E+00 0. -1.
         25    1    1    2    0    0  0.00000000000E+00  0.00000000000E+00  0.45553137745E+03  0.47237044345E+03  0.12500000000E+03 0.  0.
<mgrwt>
<rscale>  0 0.12500000E+03</rscale>
<asrwt>0</asrwt>
<pdfrwt beam="1">  1       21 0.71377043E-01 0.12500000E+03</pdfrwt>
<pdfrwt beam="2">  1       21 0.12953131E-02 0.12500000E+03</pdfrwt>
<totfact> 0.43583248E+06</totfact>
</mgrwt>
</event>
<event>
 3    1  0.1594457E-001  0.1250000E+03  0.7546771E-02  0.1235069E+00
         21   -1    0    0  502  501  0.00000000000E+00  0.00000000000E+00  0.68586559782E+02  0.68586559782E+02  0.00000000000E+00 0. -1.
         21   -1    0    0  501  502 -0.00000000000E+00 -0.00000000000E+00 -0.56953578258E+02  0.56953578258E+02  0.00000000000E+00 0. -1.
         25    1    1    2    0    0  0.00000000000E+00  0.00000000000E+00  0.11632981524E+02  0.12554013804E+03  0.12500000000E+03 0.  0.
<mgrwt>
<rscale>  0 0.12500000E+03</rscale>
<asrwt>0</asrwt>
<pdfrwt beam="1">  1       21 0.10551778E-01 0.12500000E+03</pdfrwt>
<pdfrwt beam="2">  1       21 0.87620889E-02 0.12500000E+03</pdfrwt>
<totfact> 0.73969789E+06</totfact>
</mgrwt>
</event>
<event>
 3    1  0.1594457E-001  0.1250000E+03  0.7546771E-02  0.1235069E+00
         21   -1    0    0  502  501  0.00000000000E+00  0.00000000000E+00  0.53373822651E+03  0.53373822651E+03  0.00000000000E+00 0.  1.
         21   -1    0    0  501  502 -0.00000000000E+00 -0.00000000000E+00 -0.73186626065E+01  0.73186626065E+01  0.00000000000E+00 0.  1.
         25    1    1    2    0    0  0.00000000000E+00  0.00000000000E+00  0.52641956390E+03  0.54105688912E+03  0.12500000000E+03 0.  0.
<mgrwt>
<rscale>  0 0.12500000E+03</rscale>
<asrwt>0</asrwt>
<pdfrwt beam="1">  1       21 0.82113543E-01 0.12500000E+03</pdfrwt>
<pdfrwt beam="2">  1       21 0.11259485E-02 0.12500000E+03</pdfrwt>
<totfact> 0.39901555E+06</totfact>
</mgrwt>
</event>
<event>
 3    1  0.1594457E-001  0.1250000E+03  0.7546771E-02  0.1235069E+00
         21   -1    0    0  502  501  0.00000000000E+00  0.00000000000E+00  0.23019248795E+02  0.23019248795E+02  0.00000000000E+00 0.  1.
         21   -1    0    0  501  502 -0.00000000000E+00 -0.00000000000E+00 -0.16969493813E+03  0.16969493813E+03  0.00000000000E+00 0.  1.
         25    1    1    2    0    0  0.00000000000E+00  0.00000000000E+00 -0.14667568933E+03  0.19271418692E+03  0.12500000000E+03 0.  0.
<mgrwt>
<rscale>  0 0.12500000E+03</rscale>
<asrwt>0</asrwt>
<pdfrwt beam="1">  1       21 0.35414231E-02 0.12500000E+03</pdfrwt>
<pdfrwt beam="2">  1       21 0.26106912E-01 0.12500000E+03</pdfrwt>
<totfact> 0.65722071E+06</totfact>
</mgrwt>
</event>
<event>
 3    1  0.1594457E-001  0.1250000E+03  0.7546771E-02  0.1235069E+00
         21   -1    0    0  502  501  0.00000000000E+00  0.00000000000E+00  0.39168649875E+03  0.39168649875E+03  0.00000000000E+00 0.  1.
         21   -1    0    0  501  502 -0.00000000000E+00 -0.00000000000E+00 -0.99728992765E+01  0.99728992765E+01  0.00000000000E+00 0.  1.
         25    1    1    2    0    0  0.00000000000E+00  0.00000000000E+00  0.38171359947E+03  0.40165939802E+03  0.12500000000E+03 0.  0.
<mgrwt>
<rscale>  0 0.12500000E+03</rscale>
<asrwt>0</asrwt>
<pdfrwt beam="1">  1       21 0.60259450E-01 0.12500000E+03</pdfrwt>
<pdfrwt beam="2">  1       21 0.15342925E-02 0.12500000E+03</pdfrwt>
<totfact> 0.47931484E+06</totfact>
</mgrwt>
</event>
<event>
 3    1  0.1594457E-001  0.1250000E+03  0.7546771E-02  0.1235069E+00
         21   -1    0    0  502  501  0.00000000000E+00  0.00000000000E+00  0.79748655506E+01  0.79748655506E+01  0.00000000000E+00 0.  1.
         21   -1    0    0  501  502 -0.00000000000E+00 -0.00000000000E+00 -0.48982017003E+03  0.48982017003E+03  0.00000000000E+00 0.  1.
         25    1    1    2    0    0  0.00000000000E+00  0.00000000000E+00 -0.48184530448E+03  0.49779503558E+03  0.12500000000E+03 0.  0.
<mgrwt>
<rscale>  0 0.12500000E+03</rscale>
<asrwt>0</asrwt>
<pdfrwt beam="1">  1       21 0.12269020E-02 0.12500000E+03</pdfrwt>
<pdfrwt beam="2">  1       21 0.75356976E-01 0.12500000E+03</pdfrwt>
<totfact> 0.42163894E+06</totfact>
</mgrwt>
</event>
<event>
 3    1  0.1594457E-001  0.1250000E+03  0.7546771E-02  0.1235069E+00
         21   -1    0    0  502  501  0.00000000000E+00  0.00000000000E+00  0.12266908473E+02  0.12266908473E+02  0.00000000000E+00 0.  1.
         21   -1    0    0  501  502 -0.00000000000E+00 -0.00000000000E+00 -0.31843801627E+03  0.31843801627E+03  0.00000000000E+00 0.  1.
         25    1    1    2    0    0  0.00000000000E+00  0.00000000000E+00 -0.30617110779E+03  0.33070492474E+03  0.12500000000E+03 0.  0.
<mgrwt>
<rscale>  0 0.12500000E+03</rscale>
<asrwt>0</asrwt>
<pdfrwt beam="1">  1       21 0.18872168E-02 0.12500000E+03</pdfrwt>
<pdfrwt beam="2">  1       21 0.48990460E-01 0.12500000E+03</pdfrwt>
<totfact> 0.52995789E+06</totfact>
</mgrwt>
</event>
<event>
 3    1  0.1594457E-001  0.1250000E+03  0.7546771E-02  0.1235069E+00
         21   -1    0    0  502  501  0.00000000000E+00  0.00000000000E+00  0.11078732302E+02  0.11078732302E+02  0.00000000000E+00 0. -1.
         21   -1    0    0  501  502 -0.00000000000E+00 -0.00000000000E+00 -0.35258997992E+03  0.35258997992E+03  0.00000000000E+00 0. -1.
         25    1    1    2    0    0  0.00000000000E+00  0.00000000000E+00 -0.34151124762E+03  0.36366871222E+03  0.12500000000E+03 0.  0.
<mgrwt>
<rscale>  0 0.12500000E+03</rscale>
<asrwt>0</asrwt>
<pdfrwt beam="1">  1       21 0.17044202E-02 0.12500000E+03</pdfrwt>
<pdfrwt beam="2">  1       21 0.54244619E-01 0.12500000E+03</pdfrwt>
<totfact> 0.50544529E+06</totfact>
</mgrwt>
</event>
<event>
 3    1  0.1594457E-001  0.1250000E+03  0.7546771E-02  0.1235069E+00
         21   -1    0    0  502  501  0.00000000000E+00  0.00000000000E+00  0.12782665802E+03  0.12782665802E+03  0.00000000000E+00 0.  1.
         21   -1    0    0  501  502 -0.00000000000E+00 -0.00000000000E+00 -0.30558962117E+02  0.30558962117E+02  0.00000000000E+00 0.  1.
         25    1    1    2    0    0  0.00000000000E+00  0.00000000000E+00  0.97267695904E+02  0.15838562014E+03  0.12500000000E+03 0.  0.
<mgrwt>
<rscale>  0 0.12500000E+03</rscale>
<asrwt>0</asrwt>
<pdfrwt beam="1">  1       21 0.19665639E-01 0.12500000E+03</pdfrwt>
<pdfrwt beam="2">  1       21 0.47013789E-02 0.12500000E+03</pdfrwt>
<totfact> 0.69717296E+06</totfact>
</mgrwt>
</event>
<event>
 3    1  0.1594457E-001  0.1250000E+03  0.7546771E-02  0.1235069E+00
         21   -1    0    0  502  501  0.00000000000E+00  0.00000000000E+00  0.26140685564E+03  0.26140685564E+03  0.00000000000E+00 0.  1.
         21   -1    0    0  501  502 -0.00000000000E+00 -0.00000000000E+00 -0.14943181159E+02  0.14943181159E+02  0.00000000000E+00 0.  1.
         25    1    1    2    0    0  0.00000000000E+00  0.00000000000E+00  0.24646367448E+03  0.27635003680E+03  0.12500000000E+03 0.  0.
<mgrwt>
<rscale>  0 0.12500000E+03</rscale>
<asrwt>0</asrwt>
<pdfrwt beam="1">  1       21 0.40216436E-01 0.12500000E+03</pdfrwt>
<pdfrwt beam="2">  1       21 0.22989511E-02 0.12500000E+03</pdfrwt>
<totfact> 0.57480687E+06</totfact>
</mgrwt>
</event>
<event>
 3    1  0.1594457E-001  0.1250000E+03  0.7546771E-02  0.1235069E+00
         21   -1    0    0  502  501  0.00000000000E+00  0.00000000000E+00  0.24285739253E+02  0.24285739253E+02  0.00000000000E+00 0.  1.
         21   -1    0    0  501  502 -0.00000000000E+00 -0.00000000000E+00 -0.16084542287E+03  0.16084542287E+03  0.00000000000E+00 0.  1.
         25    1    1    2    0    0  0.00000000000E+00  0.00000000000E+00 -0.13655968362E+03  0.18513116213E+03  0.12500000000E+03 0.  0.
<mgrwt>
<rscale>  0 0.12500000E+03</rscale>
<asrwt>0</asrwt>
<pdfrwt beam="1">  1       21 0.37362675E-02 0.12500000E+03</pdfrwt>
<pdfrwt beam="2">  1       21 0.24745450E-01 0.12500000E+03</pdfrwt>
<totfact> 0.66567725E+06</totfact>
</mgrwt>
</event>
<event>
 3    1  0.1594457E-001  0.1250000E+03  0.7546771E-02  0.1235069E+00
         21   -1    0    0  502  501  0.00000000000E+00  0.00000000000E+00  0.24014397965E+03  0.24014397965E+03  0.00000000000E+00 0. -1.
         21   -1    0    0  501  502 -0.00000000000E+00 -0.00000000000E+00 -0.16266283276E+02  0.16266283276E+02  0.00000000000E+00 0. -1.
         25    1    1    2    0    0  0.00000000000E+00  0.00000000000E+00  0.22387769638E+03  0.25641026293E+03  0.12500000000E+03 0.  0.
<mgrwt>
<rscale>  0 0.12500000E+03</rscale>
<asrwt>0</asrwt>
<pdfrwt beam="1">  1       21 0.36945225E-01 0.12500000E+03</pdfrwt>
<pdfrwt beam="2">  1       21 0.25025053E-02 0.12500000E+03</pdfrwt>
<totfact> 0.59279869E+06</totfact>
</mgrwt>
</event>
<event>
 3    1  0.1594457E-001  0.1250000E+03  0.7546771E-02  0.1235069E+00
         21   -1    0    0  502  501  0.00000000000E+00  0.00000000000E+00  0.13221266269E+03  0.13221266269E+03  0.00000000000E+00 0. -1.
         21   -1    0    0  501  502 -0.00000000000E+00 -0.00000000000E+00 -0.29545203315E+02  0.29545203315E+02  0.00000000000E+00 0. -1.
         25    1    1    2    0    0  0.00000000000E+00  0.00000000000E+00  0.10266745938E+03  0.16175786601E+03  0.12500000000E+03 0.  0.
<mgrwt>
<rscale>  0 0.12500000E+03</rscale>
<asrwt>0</asrwt>
<pdfrwt beam="1">  1       21 0.20340409E-01 0.12500000E+03</pdfrwt>
<pdfrwt beam="2">  1       21 0.45454159E-02 0.12500000E+03</pdfrwt>
<totfact> 0.69305339E+06</totfact>
</mgrwt>
</event>
<event>
 3    1  0.1594457E-001  0.1250000E+03  0.7546771E-02  0.1235069E+00
         21   -1    0    0  502  501  0.00000000000E+00  0.00000000000E+00  0.24597035008E+03  0.24597035008E+03  0.00000000000E+00 0. -1.
         21   -1    0    0  501  502 -0.00000000000E+00 -0.00000000000E+00 -0.15880979145E+02  0.15880979145E+02  0.00000000000E+00 0. -1.
         25    1    1    2    0    0  0.00000000000E+00  0.00000000000E+00  0.23008937093E+03  0.26185132922E+03  0.12500000000E+03 0.  0.
<mgrwt>
<rscale>  0 0.12500000E+03</rscale>
<asrwt>0</asrwt>
<pdfrwt beam="1">  1       21 0.37841590E-01 0.12500000E+03</pdfrwt>
<pdfrwt beam="2">  1       21 0.24432277E-02 0.12500000E+03</pdfrwt>
<totfact> 0.58780002E+06</totfact>
</mgrwt>
</event>
<event>
 3    1  0.1594457E-001  0.1250000E+03  0.7546771E-02  0.1235069E+00
         21   -1    0    0  502  501  0.00000000000E+00  0.00000000000E+00  0.27743871715E+03  0.27743871715E+03  0.00000000000E+00 0. -1.
         21   -1    0    0  501  502 -0.00000000000E+00 -0.00000000000E+00 -0.14079685922E+02  0.14079685922E+02  0.00000000000E+00 0. -1.
         25    1    1    2    0    0  0.00000000000E+00  0.00000000000E+00  0.26335903123E+03  0.29151840307E+03  0.12500000000E+03 0.  0.
<mgrwt>
<rscale>  0 0.12500000E+03</rscale>
<asrwt>0</asrwt>
<pdfrwt beam="1">  1       21 0.42682876E-01 0.12500000E+03</pdfrwt>
<pdfrwt beam="2">  1       21 0.21661057E-02 0.12500000E+03</pdfrwt>
<totfact> 0.56168478E+06</totfact>
</mgrwt>
</event>
<event>
 3    1  0.1594457E-001  0.1250000E+03  0.7546771E-02  0.1235069E+00
         21   -1    0    0  502  501  0.00000000000E+00  0.00000000000E+00  0.43535383291E+01  0.43535383291E+01  0.00000000000E+00 0. -1.
         21   -1    0    0  501  502 -0.00000000000E+00 -0.00000000000E+00 -0.89725866748E+03  0.89725866748E+03  0.00000000000E+00 0. -1.
         25    1    1    2    0    0  0.00000000000E+00  0.00000000000E+00 -0.89290512915E+03  0.90161220581E+03  0.12500000000E+03 0.  0.
<mgrwt>
<rscale>  0 0.12500000E+03</rscale>
<asrwt>0</asrwt>
<pdfrwt beam="1">  1       21 0.66977543E-03 0.12500000E+03</pdfrwt>
<pdfrwt beam="2">  1       21 0.13803973E+00 0.12500000E+03</pdfrwt>
<totfact> 0.26252821E+06</totfact>
</mgrwt>
</event>
<event>
 3    1  0.1594457E-001  0.1250000E+03  0.7546771E-02  0.1235069E+00
         21   -1    0    0  502  501  0.00000000000E+00  0.00000000000E+00  0.49938224347E+02  0.49938224347E+02  0.00000000000E+00 0. -1.
         21   -1    0    0  501  502 -0.00000000000E+00 -0.00000000000E+00 -0.78221643863E+02  0.78221643863E+02  0.00000000000E+00 0. -1.
         25    1    1    2    0    0  0.00000000000E+00  0.00000000000E+00 -0.28283419516E+02  0.12815986821E+03  0.12500000000E+03 0.  0.
<mgrwt>
<rscale>  0 0.12500000E+03</rscale>
<asrwt>0</asrwt>
<pdfrwt beam="1">  1       21 0.76828038E-02 0.12500000E+03</pdfrwt>
<pdfrwt beam="2">  1       21 0.12034099E-01 0.12500000E+03</pdfrwt>
<totfact> 0.73611974E+06</totfact>
</mgrwt>
</event>
<event>
 3    1  0.1594457E-001  0.1250000E+03  0.7546771E-02  0.1235069E+00
         21   -1    0    0  502  501  0.00000000000E+00  0.00000000000E+00  0.58690868323E+02  0.58690868323E+02  0.00000000000E+00 0.  1.
         21   -1    0    0  501  502 -0.00000000000E+00 -0.00000000000E+00 -0.66556350445E+02  0.66556350445E+02  0.00000000000E+00 0.  1.
         25    1    1    2    0    0  0.00000000000E+00  0.00000000000E+00 -0.78654821222E+01  0.12524721877E+03  0.12500000000E+03 0.  0.
<mgrwt>
<rscale>  0 0.12500000E+03</rscale>
<asrwt>0</asrwt>
<pdfrwt beam="1">  1       21 0.90293643E-02 0.12500000E+03</pdfrwt>
<pdfrwt beam="2">  1       21 0.10239439E-01 0.12500000E+03</pdfrwt>
<totfact> 0.74010197E+06</totfact>
</mgrwt>
</event>
<event>
 3    1  0.1594457E-001  0.1250000E+03  0.7546771E-02  0.1235069E+00
         21   -1    0    0  502  501  0.00000000000E+00  0.00000000000E+00  0.40292954335E+03  0.40292954335E+03  0.00000000000E+00 0. -1.
         21   -1    0    0  501  502 -0.00000000000E+00 -0.00000000000E+00 -0.96946229545E+01  0.96946229545E+01  0.00000000000E+00 0. -1.
         25    1    1    2    0    0  0.00000000000E+00  0.00000000000E+00  0.39323492039E+03  0.41262416630E+03  0.12500000000E+03 0.  0.
<mgrwt>
<rscale>  0 0.12500000E+03</rscale>
<asrwt>0</asrwt>
<pdfrwt beam="1">  1       21 0.61989148E-01 0.12500000E+03</pdfrwt>
<pdfrwt beam="2">  1       21 0.14914808E-02 0.12500000E+03</pdfrwt>
<totfact> 0.47215129E+06</totfact>
</mgrwt>
</event>
<event>
 3    1  0.1594457E-001  0.1250000E+03  0.7546771E-02  0.1235069E+00
         21   -1    0    0  502  501  0.00000000000E+00  0.00000000000E+00  0.98661248532E+02  0.98661248532E+02  0.00000000000E+00 0.  1.
         21   -1    0    0  501  502 -0.00000000000E+00 -0.00000000000E+00 -0.39592545788E+02  0.39592545788E+02  0.00000000000E+00 0.  1.
         25    1    1    2    0    0  0.00000000000E+00  0.00000000000E+00  0.59068702745E+02  0.13825379432E+03  0.12500000000E+03 0.  0.
<mgrwt>
<rscale>  0 0.12500000E+03</rscale>
<asrwt>0</asrwt>
<pdfrwt beam="1">  1       21 0.15178654E-01 0.12500000E+03</pdfrwt>
<pdfrwt beam="2">  1       21 0.60911609E-02 0.12500000E+03</pdfrwt>
<totfact> 0.72268099E+06</totfact>
</mgrwt>
</event>
<event>
 3    1  0.1594457E-001  0.1250000E+03  0.7546771E-02  0.1235069E+00
         21   -1    0    0  502  501  0.00000000000E+00  0.00000000000E+00  0.77543609980E+01  0.77543609980E+01  0.00000000000E+00 0.  1.
         21   -1    0    0  501  502 -0.00000000000E+00 -0.00000000000E+00 -0.50374879387E+03  0.50374879387E+03  0.00000000000E+00 0.  1.
         25    1    1    2    0    0  0.00000000000E+00  0.00000000000E+00 -0.49599443288E+03  0.51150315487E+03  0.12500000000E+03 0.  0.
<mgrwt>
<rscale>  0 0.12500000E+03</rscale>
<asrwt>0</asrwt>
<pdfrwt beam="1">  1       21 0.11929781E-02 0.12500000E+03</pdfrwt>
<pdfrwt beam="2">  1       21 0.77499845E-01 0.12500000E+03</pdfrwt>
<totfact> 0.41427011E+06</totfact>
</mgrwt>
</event>
<event>
 3    1  0.1594457E-001  0.1250000E+03  0.7546771E-02  0.1235069E+00
         21   -1    0    0  502  501  0.00000000000E+00  0.00000000000E+00  0.70573147940E+03  0.70573147940E+03  0.00000000000E+00 0.  1.
         21   -1    0    0  501  502 -0.00000000000E+00 -0.00000000000E+00 -0.55350372117E+01  0.55350372117E+01  0.00000000000E+00 0.  1.
         25    1    1    2    0    0  0.00000000000E+00  0.00000000000E+00  0.70019644219E+03  0.71126651662E+03  0.12500000000E+03 0.  0.
<mgrwt>
<rscale>  0 0.12500000E+03</rscale>
<asrwt>0</asrwt>
<pdfrwt beam="1">  1       21 0.10857400E+00 0.12500000E+03</pdfrwt>
<pdfrwt beam="2">  1       21 0.85154474E-03 0.12500000E+03</pdfrwt>
<totfact> 0.32480298E+06</totfact>
</mgrwt>
</event>
<event>
 3    1  0.1594457E-001  0.1250000E+03  0.7546771E-02  0.1235069E+00
         21   -1    0    0  502  501  0.00000000000E+00  0.00000000000E+00  0.71330418645E+01  0.71330418645E+01  0.00000000000E+00 0. -1.
         21   -1    0    0  501  502 -0.00000000000E+00 -0.00000000000E+00 -0.54762751631E+03  0.54762751631E+03  0.00000000000E+00 0. -1.
         25    1    1    2    0    0  0.00000000000E+00  0.00000000000E+00 -0.54049447444E+03  0.55476055817E+03  0.12500000000E+03 0.  0.
<mgrwt>
<rscale>  0 0.12500000E+03</rscale>
<asrwt>0</asrwt>
<pdfrwt beam="1">  1       21 0.10973912E-02 0.12500000E+03</pdfrwt>
<pdfrwt beam="2">  1       21 0.84250372E-01 0.12500000E+03</pdfrwt>
<totfact> 0.39221867E+06</totfact>
</mgrwt>
</event>
<event>
 3    1  0.1594457E-001  0.1250000E+03  0.7546771E-02  0.1235069E+00
         21   -1    0    0  502  501  0.00000000000E+00  0.00000000000E+00  0.26596070175E+03  0.26596070175E+03  0.00000000000E+00 0.  1.
         21   -1    0    0  501  502 -0.00000000000E+00 -0.00000000000E+00 -0.14687320248E+02  0.14687320248E+02  0.00000000000E+00 0.  1.
         25    1    1    2    0    0  0.00000000000E+00  0.00000000000E+00  0.25127338150E+03  0.28064802200E+03  0.12500000000E+03 0.  0.
<mgrwt>
<rscale>  0 0.12500000E+03</rscale>
<asrwt>0</asrwt>
<pdfrwt beam="1">  1       21 0.40917027E-01 0.12500000E+03</pdfrwt>
<pdfrwt beam="2">  1       21 0.22595879E-02 0.12500000E+03</pdfrwt>
<totfact> 0.57103748E+06</totfact>
</mgrwt>
</event>
<event>
 3    1  0.1594457E-001  0.1250000E+03  0.7546771E-02  0.1235069E+00
         21   -1    0    0  502  501  0.00000000000E+00  0.00000000000E+00  0.25808579982E+02  0.25808579982E+02  0.00000000000E+00 0. -1.
         21   -1    0    0  501  502 -0.00000000000E+00 -0.00000000000E+00 -0.15135470463E+03  0.15135470463E+03  0.00000000000E+00 0. -1.
         25    1    1    2    0    0  0.00000000000E+00  0.00000000000E+00 -0.12554612464E+03  0.17716328461E+03  0.12500000000E+03 0.  0.
<mgrwt>
<rscale>  0 0.12500000E+03</rscale>
<asrwt>0</asrwt>
<pdfrwt beam="1">  1       21 0.39705509E-02 0.12500000E+03</pdfrwt>
<pdfrwt beam="2">  1       21 0.23285339E-01 0.12500000E+03</pdfrwt>
<totfact> 0.67478455E+06</totfact>
</mgrwt>
</event>
<event>
 3    1  0.1594457E-001  0.1250000E+03  0.7546771E-02  0.1235069E+00
         21   -1    0    0  502  501  0.00000000000E+00  0.00000000000E+00  0.11082186968E+02  0.11082186968E+02  0.00000000000E+00 0.  1.
         21   -1    0    0  501  502 -0.00000000000E+00 -0.00000000000E+00 -0.35248006654E+03  0.35248006654E+03  0.00000000000E+00 0.  1.
         25    1    1    2    0    0  0.00000000000E+00  0.00000000000E+00 -0.34139787957E+03  0.36356225350E+03  0.12500000000E+03 0.  0.
<mgrwt>
<rscale>  0 0.12500000E+03</rscale>
<asrwt>0</asrwt>
<pdfrwt beam="1">  1       21 0.17049523E-02 0.12500000E+03</pdfrwt>
<pdfrwt beam="2">  1       21 0.54227689E-01 0.12500000E+03</pdfrwt>
<totfact> 0.50552160E+06</totfact>
</mgrwt>
</event>
<event>
 3    1  0.1594457E-001  0.1250000E+03  0.7546771E-02  0.1235069E+00
         21   -1    0    0  502  501  0.00000000000E+00  0.00000000000E+00  0.70217199810E+02  0.70217199810E+02  0.00000000000E+00 0.  1.
         21   -1    0    0  501  502 -0.00000000000E+00 -0.00000000000E+00 -0.55630956668E+02  0.55630956668E+02  0.00000000000E+00 0.  1.
         25    1    1    2    0    0  0.00000000000E+00  0.00000000000E+00  0.14586243142E+02  0.12584815648E+03  0.12500000000E+03 0.  0.
<mgrwt>
<rscale>  0 0.12500000E+03</rscale>
<asrwt>0</asrwt>
<pdfrwt beam="1">  1       21 0.10802646E-01 0.12500000E+03</pdfrwt>
<pdfrwt beam="2">  1       21 0.85586087E-02 0.12500000E+03</pdfrwt>
<totfact> 0.73927007E+06</totfact>
</mgrwt>
</event>
<event>
 3    1  0.1594457E-001  0.1250000E+03  0.7546771E-02  0.1235069E+00
         21   -1    0    0  502  501  0.00000000000E+00  0.00000000000E+00  0.10960051692E+03  0.10960051692E+03  0.00000000000E+00 0. -1.
         21   -1    0    0  501  502 -0.00000000000E+00 -0.00000000000E+00 -0.35640799056E+02  0.35640799056E+02  0.00000000000E+00 0. -1.
         25    1    1    2    0    0  0.00000000000E+00  0.00000000000E+00  0.73959717865E+02  0.14524131598E+03  0.12500000000E+03 0.  0.
<mgrwt>
<rscale>  0 0.12500000E+03</rscale>
<asrwt>0</asrwt>
<pdfrwt beam="1">  1       21 0.16861618E-01 0.12500000E+03</pdfrwt>
<pdfrwt beam="2">  1       21 0.54831999E-02 0.12500000E+03</pdfrwt>
<totfact> 0.71362231E+06</totfact>
</mgrwt>
</event>
<event>
 3    1  0.1594457E-001  0.1250000E+03  0.7546771E-02  0.1235069E+00
         21   -1    0    0  502  501  0.00000000000E+00  0.00000000000E+00  0.80036021728E+01  0.80036021728E+01  0.00000000000E+00 0. -1.
         21   -1    0    0  501  502 -0.00000000000E+00 -0.00000000000E+00 -0.48806148977E+03  0.48806148977E+03  0.00000000000E+00 0. -1.
         25    1    1    2    0    0  0.00000000000E+00  0.00000000000E+00 -0.48005788760E+03  0.49606509194E+03  0.12500000000E+03 0.  0.
<mgrwt>
<rscale>  0 0.12500000E+03</rscale>
<asrwt>0</asrwt>
<pdfrwt beam="1">  1       21 0.12313230E-02 0.12500000E+03</pdfrwt>
<pdfrwt beam="2">  1       21 0.75086407E-01 0.12500000E+03</pdfrwt>
<totfact> 0.42258268E+06</totfact>
</mgrwt>
</event>
<event>
 3    1  0.1594457E-001  0.1250000E+03  0.7546771E-02  0.1235069E+00
         21   -1    0    0  502  501  0.00000000000E+00  0.00000000000E+00  0.12358974345E+02  0.12358974345E+02  0.00000000000E+00 0. -1.
         21   -1    0    0  501  502 -0.00000000000E+00 -0.00000000000E+00 -0.31606587173E+03  0.31606587173E+03  0.00000000000E+00 0. -1.
         25    1    1    2    0    0  0.00000000000E+00  0.00000000000E+00 -0.30370689739E+03  0.32842484608E+03  0.12500000000E+03 0.  0.
<mgrwt>
<rscale>  0 0.12500000E+03</rscale>
<asrwt>0</asrwt>
<pdfrwt beam="1">  1       21 0.19013807E-02 0.12500000E+03</pdfrwt>
<pdfrwt beam="2">  1       21 0.48625519E-01 0.12500000E+03</pdfrwt>
<totfact> 0.53172397E+06</totfact>
</mgrwt>
</event>
<event>
 3    1  0.1594457E-001  0.1250000E+03  0.7546771E-02  0.1235069E+00
         21   -1    0    0  502  501  0.00000000000E+00  0.00000000000E+00  0.10963517122E+03  0.10963517122E+03  0.00000000000E+00 0.  1.
         21   -1    0    0  501  502 -0.00000000000E+00 -0.00000000000E+00 -0.35629533448E+02  0.35629533448E+02  0.00000000000E+00 0.  1.
         25    1    1    2    0    0  0.00000000000E+00  0.00000000000E+00  0.74005637771E+02  0.14526470467E+03  0.12500000000E+03 0.  0.
<mgrwt>
<rscale>  0 0.12500000E+03</rscale>
<asrwt>0</asrwt>
<pdfrwt beam="1">  1       21 0.16866949E-01 0.12500000E+03</pdfrwt>
<pdfrwt beam="2">  1       21 0.54814667E-02 0.12500000E+03</pdfrwt>
<totfact> 0.71359240E+06</totfact>
</mgrwt>
</event>
<event>
 3    1  0.1594457E-001  0.1250000E+03  0.7546771E-02  0.1235069E+00
         21   -1    0    0  502  501  0.00000000000E+00  0.00000000000E+00  0.65085634602E+02  0.65085634602E+02  0.00000000000E+00 0. -1.
         21   -1    0    0  501  502 -0.00000000000E+00 -0.00000000000E+00 -0.60017084014E+02  0.60017084014E+02  0.00000000000E+00 0. -1.
         25    1    1    2    0    0  0.00000000000E+00  0.00000000000E+00  0.50685505879E+01  0.12510271862E+03  0.12500000000E+03 0.  0.
<mgrwt>
<rscale>  0 0.12500000E+03</rscale>
<asrwt>0</asrwt>
<pdfrwt beam="1">  1       21 0.10013175E-01 0.12500000E+03</pdfrwt>
<pdfrwt beam="2">  1       21 0.92333975E-02 0.12500000E+03</pdfrwt>
<totfact> 0.74029708E+06</totfact>
</mgrwt>
</event>
<event>
 3    1  0.1594457E-001  0.1250000E+03  0.7546771E-02  0.1235069E+00
         21   -1    0    0  502  501  0.00000000000E+00  0.00000000000E+00  0.15894289708E+01  0.15894289708E+01  0.00000000000E+00 0.  1.
         21   -1    0    0  501  502 -0.00000000000E+00 -0.00000000000E+00 -0.24576436392E+04  0.24576436392E+04  0.00000000000E+00 0.  1.
         25    1    1    2    0    0  0.00000000000E+00  0.00000000000E+00 -0.24560542102E+04  0.24592330681E+04  0.12500000000E+03 0.  0.
<mgrwt>
<rscale>  0 0.12500000E+03</rscale>
<asrwt>0</asrwt>
<pdfrwt beam="1">  1       21 0.24452847E-03 0.12500000E+03</pdfrwt>
<pdfrwt beam="2">  1       21 0.37809757E+00 0.12500000E+03</pdfrwt>
<totfact> 0.42759131E+05</totfact>
</mgrwt>
</event>
<event>
 3    1  0.1594457E-001  0.1250000E+03  0.7546771E-02  0.1235069E+00
         21   -1    0    0  502  501  0.00000000000E+00  0.00000000000E+00  0.90453603365E+01  0.90453603365E+01  0.00000000000E+00 0.  1.
         21   -1    0    0  501  502 -0.00000000000E+00 -0.00000000000E+00 -0.43185123143E+03  0.43185123143E+03  0.00000000000E+00 0.  1.
         25    1    1    2    0    0  0.00000000000E+00  0.00000000000E+00 -0.42280587109E+03  0.44089659176E+03  0.12500000000E+03 0.  0.
<mgrwt>
<rscale>  0 0.12500000E+03</rscale>
<asrwt>0</asrwt>
<pdfrwt beam="1">  1       21 0.13915940E-02 0.12500000E+03</pdfrwt>
<pdfrwt beam="2">  1       21 0.66438645E-01 0.12500000E+03</pdfrwt>
<totfact> 0.45441965E+06</totfact>
</mgrwt>
</event>
<event>
 3    1  0.1594457E-001  0.1250000E+03  0.7546771E-02  0.1235069E+00
         21   -1    0    0  502  501  0.00000000000E+00  0.00000000000E+00  0.22293339409E+02  0.22293339409E+02  0.00000000000E+00 0. -1.
         21   -1    0    0  501  502 -0.00000000000E+00 -0.00000000000E+00 -0.17522049650E+03  0.17522049650E+03  0.00000000000E+00 0. -1.
         25    1    1    2    0    0  0.00000000000E+00  0.00000000000E+00 -0.15292715709E+03  0.19751383591E+03  0.12500000000E+03 0.  0.
<mgrwt>
<rscale>  0 0.12500000E+03</rscale>
<asrwt>0</asrwt>
<pdfrwt beam="1">  1       21 0.34297445E-02 0.12500000E+03</pdfrwt>
<pdfrwt beam="2">  1       21 0.26956999E-01 0.12500000E+03</pdfrwt>
<totfact> 0.65196936E+06</totfact>
</mgrwt>
</event>
<event>
 3    1  0.1594457E-001  0.1250000E+03  0.7546771E-02  0.1235069E+00
         21   -1    0    0  502  501  0.00000000000E+00  0.00000000000E+00  0.15437372902E+02  0.15437372902E+02  0.00000000000E+00 0.  1.
         21   -1    0    0  501  502 -0.00000000000E+00 -0.00000000000E+00 -0.25303852054E+03  0.25303852054E+03  0.00000000000E+00 0.  1.
         25    1    1    2    0    0  0.00000000000E+00  0.00000000000E+00 -0.23760114763E+03  0.26847589344E+03  0.12500000000E+03 0.  0.
<mgrwt>
<rscale>  0 0.12500000E+03</rscale>
<asrwt>0</asrwt>
<pdfrwt beam="1">  1       21 0.23749806E-02 0.12500000E+03</pdfrwt>
<pdfrwt beam="2">  1       21 0.38929001E-01 0.12500000E+03</pdfrwt>
<totfact> 0.58181015E+06</totfact>
</mgrwt>
</event>
<event>
 3    1  0.1594457E-001  0.1250000E+03  0.7546771E-02  0.1235069E+00
         21   -1    0    0  502  501  0.00000000000E+00  0.00000000000E+00  0.13689558741E+02  0.13689558741E+02  0.00000000000E+00 0. -1.
         21   -1    0    0  501  502 -0.00000000000E+00 -0.00000000000E+00 -0.28534520900E+03  0.28534520900E+03  0.00000000000E+00 0. -1.
         25    1    1    2    0    0  0.00000000000E+00  0.00000000000E+00 -0.27165565026E+03  0.29903476774E+03  0.12500000000E+03 0.  0.
<mgrwt>
<rscale>  0 0.12500000E+03</rscale>
<asrwt>0</asrwt>
<pdfrwt beam="1">  1       21 0.21060861E-02 0.12500000E+03</pdfrwt>
<pdfrwt beam="2">  1       21 0.43899261E-01 0.12500000E+03</pdfrwt>
<totfact> 0.55536484E+06</totfact>
</mgrwt>
</event>
<event>
 3    1  0.1594457E-001  0.1250000E+03  0.7546771E-02  0.1235069E+00
         21   -1    0    0  502  501  0.00000000000E+00  0.00000000000E+00  0.96246458110E+02  0.96246458110E+02  0.00000000000E+00 0.  1.
         21   -1    0    0  501  502 -0.00000000000E+00 -0.00000000000E+00 -0.40585909099E+02  0.40585909099E+02  0.00000000000E+00 0.  1.
         25    1    1    2    0    0  0.00000000000E+00  0.00000000000E+00  0.55660549011E+02  0.13683236721E+03  0.12500000000E+03 0.  0.
<mgrwt>
<rscale>  0 0.12500000E+03</rscale>
<asrwt>0</asrwt>
<pdfrwt beam="1">  1       21 0.14807147E-01 0.12500000E+03</pdfrwt>
<pdfrwt beam="2">  1       21 0.62439860E-02 0.12500000E+03</pdfrwt>
<totfact> 0.72454752E+06</totfact>
</mgrwt>
</event>
<event>
 3    1  0.1594457E-001  0.1250000E+03  0.7546771E-02  0.1235069E+00
         21   -1    0    0  502  501  0.00000000000E+00  0.00000000000E+00  0.22103686102E+03  0.22103686102E+03  0.00000000000E+00 0. -1.
         21   -1    0    0  501  502 -0.00000000000E+00 -0.00000000000E+00 -0.17672391754E+02  0.17672391754E+02  0.00000000000E+00 0. -1.
         25    1    1    2    0    0  0.00000000000E+00  0.00000000000E+00  0.20336446926E+03  0.23870925277E+03  0.12500000000E+03 0.  0.
<mgrwt>
<rscale>  0 0.12500000E+03</rscale>
<asrwt>0</asrwt>
<pdfrwt beam="1">  1       21 0.34005669E-01 0.12500000E+03</pdfrwt>
<pdfrwt beam="2">  1       21 0.27188297E-02 0.12500000E+03</pdfrwt>
<totfact> 0.60957790E+06</totfact>
</mgrwt>
</event>
<event>
 3    1  0.1594457E-001  0.1250000E+03  0.7546771E-02  0.1235069E+00
         21   -1    0    0  502  501  0.00000000000E+00  0.00000000000E+00  0.67800976849E+01  0.67800976849E+01  0.00000000000E+00 0.  1.
         21   -1    0    0  501  502 -0.00000000000E+00 -0.00000000000E+00 -0.57613476701E+03  0.57613476701E+03  0.00000000000E+00 0.  1.
         25    1    1    2    0    0  0.00000000000E+00  0.00000000000E+00 -0.56935466932E+03  0.58291486469E+03  0.12500000000E+03 0.  0.
<mgrwt>
<rscale>  0 0.12500000E+03</rscale>
<asrwt>0</asrwt>
<pdfrwt beam="1">  1       21 0.10430923E-02 0.12500000E+03</pdfrwt>
<pdfrwt beam="2">  1       21 0.88636092E-01 0.12500000E+03</pdfrwt>
<totfact> 0.37876868E+06</totfact>
</mgrwt>
</event>
<event>
 3    1  0.1594457E-001  0.1250000E+03  0.7546771E-02  0.1235069E+00
         21   -1    0    0  502  501  0.00000000000E+00  0.00000000000E+00  0.48230426312E+03  0.48230426312E+03  0.00000000000E+00 0.  1.
         21   -1    0    0  501  502 -0.00000000000E+00 -0.00000000000E+00 -0.80991405191E+01  0.80991405191E+01  0.00000000000E+00 0.  1.
         25    1    1    2    0    0  0.00000000000E+00  0.00000000000E+00  0.47420512260E+03  0.49040340364E+03  0.12500000000E+03 0.  0.
<mgrwt>
<rscale>  0 0.12500000E+03</rscale>
<asrwt>0</asrwt>
<pdfrwt beam="1">  1       21 0.74200634E-01 0.12500000E+03</pdfrwt>
<pdfrwt beam="2">  1       21 0.12460220E-02 0.12500000E+03</pdfrwt>
<totfact> 0.42569351E+06</totfact>
</mgrwt>
</event>
<event>
 3    1  0.1594457E-001  0.1250000E+03  0.7546771E-02  0.1235069E+00
         21   -1    0    0  502  501  0.00000000000E+00  0.00000000000E+00  0.12609309684E+03  0.12609309684E+03  0.00000000000E+00 0.  1.
         21   -1    0    0  501  502 -0.00000000000E+00 -0.00000000000E+00 -0.30979094795E+02  0.30979094795E+02  0.00000000000E+00 0.  1.
         25    1    1    2    0    0  0.00000000000E+00  0.00000000000E+00  0.95114002043E+02  0.15707219163E+03  0.12500000000E+03 0.  0.
<mgrwt>
<rscale>  0 0.12500000E+03</rscale>
<asrwt>0</asrwt>
<pdfrwt beam="1">  1       21 0.19398938E-01 0.12500000E+03</pdfrwt>
<pdfrwt beam="2">  1       21 0.47660147E-02 0.12500000E+03</pdfrwt>
<totfact> 0.69879023E+06</totfact>
</mgrwt>
</event>
<event>
 3    1  0.1594457E-001  0.1250000E+03  0.7546771E-02  0.1235069E+00
         21   -1    0    0  502  501  0.00000000000E+00  0.00000000000E+00  0.16982889323E+03  0.16982889323E+03  0.00000000000E+00 0.  1.
         21   -1    0    0  501  502 -0.00000000000E+00 -0.00000000000E+00 -0.23001092015E+02  0.23001092015E+02  0.00000000000E+00 0.  1.
         25    1    1    2    0    0  0.00000000000E+00  0.00000000000E+00  0.14682780121E+03  0.19282998524E+03  0.12500000000E+03 0.  0.
<mgrwt>
<rscale>  0 0.12500000E+03</rscale>
<asrwt>0</asrwt>
<pdfrwt beam="1">  1       21 0.26127521E-01 0.12500000E+03</pdfrwt>
<pdfrwt beam="2">  1       21 0.35386296E-02 0.12500000E+03</pdfrwt>
<totfact> 0.65709311E+06</totfact>
</mgrwt>
</event>
<event>
 3    1  0.1594457E-001  0.1250000E+03  0.7546771E-02  0.1235069E+00
         21   -1    0    0  502  501  0.00000000000E+00  0.00000000000E+00  0.38870150701E+03  0.38870150701E+03  0.00000000000E+00 0.  1.
         21   -1    0    0  501  502 -0.00000000000E+00 -0.00000000000E+00 -0.10049485092E+02  0.10049485092E+02  0.00000000000E+00 0.  1.
         25    1    1    2    0    0  0.00000000000E+00  0.00000000000E+00  0.37865202192E+03  0.39875099210E+03  0.12500000000E+03 0.  0.
<mgrwt>
<rscale>  0 0.12500000E+03</rscale>
<asrwt>0</asrwt>
<pdfrwt beam="1">  1       21 0.59800220E-01 0.12500000E+03</pdfrwt>
<pdfrwt beam="2">  1       21 0.15460749E-02 0.12500000E+03</pdfrwt>
<totfact> 0.48124311E+06</totfact>
</mgrwt>
</event>
<event>
 3    1  0.1594457E-001  0.1250000E+03  0.7546771E-02  0.1235069E+00
         21   -1    0    0  502  501  0.00000000000E+00  0.00000000000E+00  0.14314432080E+02  0.14314432080E+02  0.00000000000E+00 0. -1.
         21   -1    0    0  501  502 -0.00000000000E+00 -0.00000000000E+00 -0.27288892623E+03  0.27288892623E+03  0.00000000000E+00 0. -1.
         25    1    1    2    0    0  0.00000000000E+00  0.00000000000E+00 -0.25857449415E+03  0.28720335831E+03  0.12500000000E+03 0.  0.
<mgrwt>
<rscale>  0 0.12500000E+03</rscale>
<asrwt>0</asrwt>
<pdfrwt beam="1">  1       21 0.22022204E-02 0.12500000E+03</pdfrwt>
<pdfrwt beam="2">  1       21 0.41982911E-01 0.12500000E+03</pdfrwt>
<totfact> 0.56536679E+06</totfact>
</mgrwt>
</event>
<event>
 3    1  0.1594457E-001  0.1250000E+03  0.7546771E-02  0.1235069E+00
         21   -1    0    0  502  501  0.00000000000E+00  0.00000000000E+00  0.11311090357E+02  0.11311090357E+02  0.00000000000E+00 0. -1.
         21   -1    0    0  501  502 -0.00000000000E+00 -0.00000000000E+00 -0.34534690085E+03  0.34534690085E+03  0.00000000000E+00 0. -1.
         25    1    1    2    0    0  0.00000000000E+00  0.00000000000E+00 -0.33403581050E+03  0.35665799121E+03  0.12500000000E+03 0.  0.
<mgrwt>
<rscale>  0 0.12500000E+03</rscale>
<asrwt>0</asrwt>
<pdfrwt beam="1">  1       21 0.17401676E-02 0.12500000E+03</pdfrwt>
<pdfrwt beam="2">  1       21 0.53130296E-01 0.12500000E+03</pdfrwt>
<totfact> 0.51050447E+06</totfact>
</mgrwt>
</event>
<event>
 3    1  0.1594457E-001  0.1250000E+03  0.7546771E-02  0.1235069E+00
         21   -1    0    0  502  501  0.00000000000E+00  0.00000000000E+00  0.39839429329E+02  0.39839429329E+02  0.00000000000E+00 0. -1.
         21   -1    0    0  501  502 -0.00000000000E+00 -0.00000000000E+00 -0.98049848247E+02  0.98049848247E+02  0.00000000000E+00 0. -1.
         25    1    1    2    0    0  0.00000000000E+00  0.00000000000E+00 -0.58210418918E+02  0.13788927758E+03  0.12500000000E+03 0.  0.
<mgrwt>
<rscale>  0 0.12500000E+03</rscale>
<asrwt>0</asrwt>
<pdfrwt beam="1">  1       21 0.61291431E-02 0.12500000E+03</pdfrwt>
<pdfrwt beam="2">  1       21 0.15084592E-01 0.12500000E+03</pdfrwt>
<totfact> 0.72316071E+06</totfact>
</mgrwt>
</event>
<event>
 3    1  0.1594457E-001  0.1250000E+03  0.7546771E-02  0.1235069E+00
         21   -1    0    0  502  501  0.00000000000E+00  0.00000000000E+00  0.35321403528E+03  0.35321403528E+03  0.00000000000E+00 0. -1.
         21   -1    0    0  501  502 -0.00000000000E+00 -0.00000000000E+00 -0.11059158498E+02  0.11059158498E+02  0.00000000000E+00 0. -1.
         25    1    1    2    0    0  0.00000000000E+00  0.00000000000E+00  0.34215487678E+03  0.36427319378E+03  0.12500000000E+03 0.  0.
<mgrwt>
<rscale>  0 0.12500000E+03</rscale>
<asrwt>0</asrwt>
<pdfrwt beam="1">  1       21 0.54340612E-01 0.12500000E+03</pdfrwt>
<pdfrwt beam="2">  1       21 0.17014093E-02 0.12500000E+03</pdfrwt>
<totfact> 0.50501287E+06</totfact>
</mgrwt>
</event>
<event>
 3    1  0.1594457E-001  0.1250000E+03  0.7546771E-02  0.1235069E+00
         21   -1    0    0  502  501  0.00000000000E+00  0.00000000000E+00  0.61727043678E+03  0.61727043678E+03  0.00000000000E+00 0.  1.
         21   -1    0    0  501  502 -0.00000000000E+00 -0.00000000000E+00 -0.63282635410E+01  0.63282635410E+01  0.00000000000E+00 0.  1.
         25    1    1    2    0    0  0.00000000000E+00  0.00000000000E+00  0.61094217324E+03  0.62359870032E+03  0.12500000000E+03 0.  0.
<mgrwt>
<rscale>  0 0.12500000E+03</rscale>
<asrwt>0</asrwt>
<pdfrwt beam="1">  1       21 0.94964635E-01 0.12500000E+03</pdfrwt>
<pdfrwt beam="2">  1       21 0.97357949E-03 0.12500000E+03</pdfrwt>
<totfact> 0.36046711E+06</totfact>
</mgrwt>
</event>
<event>
 3    1  0.1594457E-001  0.1250000E+03  0.7546771E-02  0.1235069E+00
         21   -1    0    0  502  501  0.00000000000E+00  0.00000000000E+00  0.12622171292E+03  0.12622171292E+03  0.00000000000E+00 0.  1.
         21   -1    0    0  501  502 -0.00000000000E+00 -0.00000000000E+00 -0.30947528042E+02  0.30947528042E+02  0.00000000000E+00 0.  1.
         25    1    1    2    0    0  0.00000000000E+00  0.00000000000E+00  0.95274184875E+02  0.15716924096E+03  0.12500000000E+03 0.  0.
<mgrwt>
<rscale>  0 0.12500000E+03</rscale>
<asrwt>0</asrwt>
<pdfrwt beam="1">  1       21 0.19418725E-01 0.12500000E+03</pdfrwt>
<pdfrwt beam="2">  1       21 0.47611582E-02 0.12500000E+03</pdfrwt>
<totfact> 0.69867049E+06</totfact>
</mgrwt>
</event>
<event>
 3    1  0.1594457E-001  0.1250000E+03  0.7546771E-02  0.1235069E+00
         21   -1    0    0  502  501  0.00000000000E+00  0.00000000000E+00  0.40713837910E+01  0.40713837910E+01  0.00000000000E+00 0.  1.
         21   -1    0    0  501  502 -0.00000000000E+00 -0.00000000000E+00 -0.95944037716E+03  0.95944037716E+03  0.00000000000E+00 0.  1.
         25    1    1    2    0    0  0.00000000000E+00  0.00000000000E+00 -0.95536899337E+03  0.96351176095E+03  0.12500000000E+03 0.  0.
<mgrwt>
<rscale>  0 0.12500000E+03</rscale>
<asrwt>0</asrwt>
<pdfrwt beam="1">  1       21 0.62636598E-03 0.12500000E+03</pdfrwt>
<pdfrwt beam="2">  1       21 0.14760639E+00 0.12500000E+03</pdfrwt>
<totfact> 0.24553071E+06</totfact>
</mgrwt>
</event>
<event>
 3    1  0.1594457E-001  0.1250000E+03  0.7546771E-02  0.1235069E+00
         21   -1    0    0  502  501  0.00000000000E+00  0.00000000000E+00  0.63248355723E+01  0.63248355723E+01  0.00000000000E+00 0. -1.
         21   -1    0    0  501  502 -0.00000000000E+00 -0.00000000000E+00 -0.61760498836E+03  0.61760498836E+03  0.00000000000E+00 0. -1.
         25    1    1    2    0    0  0.00000000000E+00  0.00000000000E+00 -0.61128015279E+03  0.62392982394E+03  0.12500000000E+03 0.  0.
<mgrwt>
<rscale>  0 0.12500000E+03</rscale>
<asrwt>0</asrwt>
<pdfrwt beam="1">  1       21 0.97305168E-03 0.12500000E+03</pdfrwt>
<pdfrwt beam="2">  1       21 0.95016147E-01 0.12500000E+03</pdfrwt>
<totfact> 0.36032320E+06</totfact>
</mgrwt>
</event>
<event>
 3    1  0.1594457E-001  0.1250000E+03  0.7546771E-02  0.1235069E+00
         21   -1    0    0  502  501  0.00000000000E+00  0.00000000000E+00  0.48025570901E+02  0.48025570901E+02  0.00000000000E+00 0.  1.
         21   -1    0    0  501  502 -0.00000000000E+00 -0.00000000000E+00 -0.81336877974E+02  0.81336877974E+02  0.00000000000E+00 0.  1.
         25    1    1    2    0    0  0.00000000000E+00  0.00000000000E+00 -0.33311307073E+02  0.12936244887E+03  0.12500000000E+03 0.  0.
<mgrwt>
<rscale>  0 0.12500000E+03</rscale>
<asrwt>0</asrwt>
<pdfrwt beam="1">  1       21 0.73885494E-02 0.12500000E+03</pdfrwt>
<pdfrwt beam="2">  1       21 0.12513366E-01 0.12500000E+03</pdfrwt>
<totfact> 0.73450249E+06</totfact>
</mgrwt>
</event>
<event>
 3    1  0.1594457E-001  0.1250000E+03  0.7546771E-02  0.1235069E+00
         21   -1    0    0  502  501  0.00000000000E+00  0.00000000000E+00  0.64339725932E+01  0.64339725932E+01  0.00000000000E+00 0.  1.
         21   -1    0    0  501  502 -0.00000000000E+00 -0.00000000000E+00 -0.60712879072E+03  0.60712879072E+03  0.00000000000E+00 0.  1.
         25    1    1    2    0    0  0.00000000000E+00  0.00000000000E+00 -0.60069481812E+03  0.61356276331E+03  0.12500000000E+03 0.  0.
<mgrwt>
<rscale>  0 0.12500000E+03</rscale>
<asrwt>0</asrwt>
<pdfrwt beam="1">  1       21 0.98984206E-03 0.12500000E+03</pdfrwt>
<pdfrwt beam="2">  1       21 0.93404418E-01 0.12500000E+03</pdfrwt>
<totfact> 0.36486371E+06</totfact>
</mgrwt>
</event>
<event>
 3    1  0.1594457E-001  0.1250000E+03  0.7546771E-02  0.1235069E+00
         21   -1    0    0  502  501  0.00000000000E+00  0.00000000000E+00  0.75295289221E+01  0.75295289221E+01  0.00000000000E+00 0.  1.
         21   -1    0    0  501  502 -0.00000000000E+00 -0.00000000000E+00 -0.51879075576E+03  0.51879075576E+03  0.00000000000E+00 0.  1.
         25    1    1    2    0    0  0.00000000000E+00  0.00000000000E+00 -0.51126122684E+03  0.52632028468E+03  0.12500000000E+03 0.  0.
<mgrwt>
<rscale>  0 0.12500000E+03</rscale>
<asrwt>0</asrwt>
<pdfrwt beam="1">  1       21 0.11583892E-02 0.12500000E+03</pdfrwt>
<pdfrwt beam="2">  1       21 0.79813956E-01 0.12500000E+03</pdfrwt>
<totfact> 0.40651716E+06</totfact>
</mgrwt>
</event>
<event>
 3    1  0.1594457E-001  0.1250000E+03  0.7546771E-02  0.1235069E+00
         21   -1    0    0  502  501  0.00000000000E+00  0.00000000000E+00  0.54267386131E+02  0.54267386131E+02  0.00000000000E+00 0.  1.
         21   -1    0    0  501  502 -0.00000000000E+00 -0.00000000000E+00 -0.71981539530E+02  0.71981539530E+02  0.00000000000E+00 0.  1.
         25    1    1    2    0    0  0.00000000000E+00  0.00000000000E+00 -0.17714153398E+02  0.12624892566E+03  0.12500000000E+03 0.  0.
<mgrwt>
<rscale>  0 0.12500000E+03</rscale>
<asrwt>0</asrwt>
<pdfrwt beam="1">  1       21 0.83488286E-02 0.12500000E+03</pdfrwt>
<pdfrwt beam="2">  1       21 0.11074083E-01 0.12500000E+03</pdfrwt>
<totfact> 0.73871789E+06</totfact>
</mgrwt>
</event>
<event>
 3    1  0.1594457E-001  0.1250000E+03  0.7546771E-02  0.1235069E+00
         21   -1    0    0  502  501  0.00000000000E+00  0.00000000000E+00  0.26959684609E+02  0.26959684609E+02  0.00000000000E+00 0. -1.
         21   -1    0    0  501  502 -0.00000000000E+00 -0.00000000000E+00 -0.14489227366E+03  0.14489227366E+03  0.00000000000E+00 0. -1.
         25    1    1    2    0    0  0.00000000000E+00  0.00000000000E+00 -0.11793258905E+03  0.17185195826E+03  0.12500000000E+03 0.  0.
<mgrwt>
<rscale>  0 0.12500000E+03</rscale>
<asrwt>0</asrwt>
<pdfrwt beam="1">  1       21 0.41476439E-02 0.12500000E+03</pdfrwt>
<pdfrwt beam="2">  1       21 0.22291119E-01 0.12500000E+03</pdfrwt>
<totfact> 0.68098772E+06</totfact>
</mgrwt>
</event>
<event>
 3    1  0.1594457E-001  0.1250000E+03  0.7546771E-02  0.1235069E+00
         21   -1    0    0  502  501  0.00000000000E+00  0.00000000000E+00  0.20879410725E+02  0.20879410725E+02  0.00000000000E+00 0. -1.
         21   -1    0    0  501  502 -0.00000000000E+00 -0.00000000000E+00 -0.18708621864E+03  0.18708621864E+03  0.00000000000E+00 0. -1.
         25    1    1    2    0    0  0.00000000000E+00  0.00000000000E+00 -0.16620680791E+03  0.20796562936E+03  0.12500000000E+03 0.  0.
<mgrwt>
<rscale>  0 0.12500000E+03</rscale>
<asrwt>0</asrwt>
<pdfrwt beam="1">  1       21 0.32122172E-02 0.12500000E+03</pdfrwt>
<pdfrwt beam="2">  1       21 0.28782494E-01 0.12500000E+03</pdfrwt>
<totfact> 0.64074213E+06</totfact>
</mgrwt>
</event>
<event>
 3    1  0.1594457E-001  0.1250000E+03  0.7546771E-02  0.1235069E+00
         21   -1    0    0  502  501  0.00000000000E+00  0.00000000000E+00  0.11515802454E+03  0.11515802454E+03  0.00000000000E+00 0. -1.
         21   -1    0    0  501  502 -0.00000000000E+00 -0.00000000000E+00 -0.33920779865E+02  0.33920779865E+02  0.00000000000E+00 0. -1.
         25    1    1    2    0    0  0.00000000000E+00  0.00000000000E+00  0.81237244671E+02  0.14907880440E+03  0.12500000000E+03 0.  0.
<mgrwt>
<rscale>  0 0.12500000E+03</rscale>
<asrwt>0</asrwt>
<pdfrwt beam="1">  1       21 0.17716619E-01 0.12500000E+03</pdfrwt>
<pdfrwt beam="2">  1       21 0.52185816E-02 0.12500000E+03</pdfrwt>
<totfact> 0.70875112E+06</totfact>
</mgrwt>
</event>
<event>
 3    1  0.1594457E-001  0.1250000E+03  0.7546771E-02  0.1235069E+00
         21   -1    0    0  502  501  0.00000000000E+00  0.00000000000E+00  0.20989621371E+04  0.20989621371E+04  0.00000000000E+00 0.  1.
         21   -1    0    0  501  502 -0.00000000000E+00 -0.00000000000E+00 -0.18610388111E+01  0.18610388111E+01  0.00000000000E+00 0.  1.
         25    1    1    2    0    0  0.00000000000E+00  0.00000000000E+00  0.20971010982E+04  0.21008231759E+04  0.12500000000E+03 0.  0.
<mgrwt>
<rscale>  0 0.12500000E+03</rscale>
<asrwt>0</asrwt>
<pdfrwt beam="1">  1       21 0.32291536E+00 0.12500000E+03</pdfrwt>
<pdfrwt beam="2">  1       21 0.28631534E-03 0.12500000E+03</pdfrwt>
<totfact> 0.70062639E+05</totfact>
</mgrwt>
</event>
<event>
 3    1  0.1594457E-001  0.1250000E+03  0.7546771E-02  0.1235069E+00
         21   -1    0    0  502  501  0.00000000000E+00  0.00000000000E+00  0.29152766037E+03  0.29152766037E+03  0.00000000000E+00 0.  1.
         21   -1    0    0  501  502 -0.00000000000E+00 -0.00000000000E+00 -0.13399243128E+02  0.13399243128E+02  0.00000000000E+00 0.  1.
         25    1    1    2    0    0  0.00000000000E+00  0.00000000000E+00  0.27812841725E+03  0.30492690350E+03  0.12500000000E+03 0.  0.
<mgrwt>
<rscale>  0 0.12500000E+03</rscale>
<asrwt>0</asrwt>
<pdfrwt beam="1">  1       21 0.44850404E-01 0.12500000E+03</pdfrwt>
<pdfrwt beam="2">  1       21 0.20614222E-02 0.12500000E+03</pdfrwt>
<totfact> 0.55049200E+06</totfact>
</mgrwt>
</event>
<event>
 3    1  0.1594457E-001  0.1250000E+03  0.7546771E-02  0.1235069E+00
         21   -1    0    0  502  501  0.00000000000E+00  0.00000000000E+00  0.47279458076E+02  0.47279458076E+02  0.00000000000E+00 0. -1.
         21   -1    0    0  501  502 -0.00000000000E+00 -0.00000000000E+00 -0.82620447843E+02  0.82620447843E+02  0.00000000000E+00 0. -1.
         25    1    1    2    0    0  0.00000000000E+00  0.00000000000E+00 -0.35340989767E+02  0.12989990592E+03  0.12500000000E+03 0.  0.
<mgrwt>
<rscale>  0 0.12500000E+03</rscale>
<asrwt>0</asrwt>
<pdfrwt beam="1">  1       21 0.72737629E-02 0.12500000E+03</pdfrwt>
<pdfrwt beam="2">  1       21 0.12710838E-01 0.12500000E+03</pdfrwt>
<totfact> 0.73378295E+06</totfact>
</mgrwt>
</event>
<event>
 3    1  0.1594457E-001  0.1250000E+03  0.7546771E-02  0.1235069E+00
         21   -1    0    0  502  501  0.00000000000E+00  0.00000000000E+00  0.32490661955E+02  0.32490661955E+02  0.00000000000E+00 0. -1.
         21   -1    0    0  501  502 -0.00000000000E+00 -0.00000000000E+00 -0.12022685181E+03  0.12022685181E+03  0.00000000000E+00 0. -1.
         25    1    1    2    0    0  0.00000000000E+00  0.00000000000E+00 -0.87736189852E+02  0.15271751376E+03  0.12500000000E+03 0.  0.
<mgrwt>
<rscale>  0 0.12500000E+03</rscale>
<asrwt>0</asrwt>
<pdfrwt beam="1">  1       21 0.49985633E-02 0.12500000E+03</pdfrwt>
<pdfrwt beam="2">  1       21 0.18496439E-01 0.12500000E+03</pdfrwt>
<totfact> 0.70419478E+06</totfact>
</mgrwt>
</event>
<event>
 3    1  0.1594457E-001  0.1250000E+03  0.7546771E-02  0.1235069E+00
         21   -1    0    0  502  501  0.00000000000E+00  0.00000000000E+00  0.12737436967E+02  0.12737436967E+02  0.00000000000E+00 0. -1.
         21   -1    0    0  501  502 -0.00000000000E+00 -0.00000000000E+00 -0.30667472663E+03  0.30667472663E+03  0.00000000000E+00 0. -1.
         25    1    1    2    0    0  0.00000000000E+00  0.00000000000E+00 -0.29393728967E+03  0.31941216360E+03  0.12500000000E+03 0.  0.
<mgrwt>
<rscale>  0 0.12500000E+03</rscale>
<asrwt>0</asrwt>
<pdfrwt beam="1">  1       21 0.19596059E-02 0.12500000E+03</pdfrwt>
<pdfrwt beam="2">  1       21 0.47180723E-01 0.12500000E+03</pdfrwt>
<totfact> 0.53879961E+06</totfact>
</mgrwt>
</event>
<event>
 3    1  0.1594457E-001  0.1250000E+03  0.7546771E-02  0.1235069E+00
         21   -1    0    0  502  501  0.00000000000E+00  0.00000000000E+00  0.64297343700E+02  0.64297343700E+02  0.00000000000E+00 0. -1.
         21   -1    0    0  501  502 -0.00000000000E+00 -0.00000000000E+00 -0.60752898568E+02  0.60752898568E+02  0.00000000000E+00 0. -1.
         25    1    1    2    0    0  0.00000000000E+00  0.00000000000E+00  0.35444451311E+01  0.12505024227E+03  0.12500000000E+03 0.  0.
<mgrwt>
<rscale>  0 0.12500000E+03</rscale>
<asrwt>0</asrwt>
<pdfrwt beam="1">  1       21 0.98918990E-02 0.12500000E+03</pdfrwt>
<pdfrwt beam="2">  1       21 0.93465998E-02 0.12500000E+03</pdfrwt>
<totfact> 0.74036795E+06</totfact>
</mgrwt>
</event>
<event>
 3    1  0.1594457E-001  0.1250000E+03  0.7546771E-02  0.1235069E+00
         21   -1    0    0  502  501  0.00000000000E+00  0.00000000000E+00  0.44933817459E+02  0.44933817459E+02  0.00000000000E+00 0.  1.
         21   -1    0    0  501  502 -0.00000000000E+00 -0.00000000000E+00 -0.86933410534E+02  0.86933410534E+02  0.00000000000E+00 0.  1.
         25    1    1    2    0    0  0.00000000000E+00  0.00000000000E+00 -0.41999593075E+02  0.13186722799E+03  0.12500000000E+03 0.  0.
<mgrwt>
<rscale>  0 0.12500000E+03</rscale>
<asrwt>0</asrwt>
<pdfrwt beam="1">  1       21 0.69128951E-02 0.12500000E+03</pdfrwt>
<pdfrwt beam="2">  1       21 0.13374371E-01 0.12500000E+03</pdfrwt>
<totfact> 0.73114043E+06</totfact>
</mgrwt>
</event>
<event>
 3    1  0.1594457E-001  0.1250000E+03  0.7546771E-02  0.1235069E+00
         21   -1    0    0  502  501  0.00000000000E+00  0.00000000000E+00  0.45611572019E+02  0.45611572019E+02  0.00000000000E+00 0.  1.
         21   -1    0    0  501  502 -0.00000000000E+00 -0.00000000000E+00 -0.85641643713E+02  0.85641643713E+02  0.00000000000E+00 0.  1.
         25    1    1    2    0    0  0.00000000000E+00  0.00000000000E+00 -0.40030071694E+02  0.13125321573E+03  0.12500000000E+03 0.  0.
<mgrwt>
<rscale>  0 0.12500000E+03</rscale>
<asrwt>0</asrwt>
<pdfrwt beam="1">  1       21 0.70171650E-02 0.12500000E+03</pdfrwt>
<pdfrwt beam="2">  1       21 0.13175637E-01 0.12500000E+03</pdfrwt>
<totfact> 0.73196569E+06</totfact>
</mgrwt>
</event>
<event>
 3    1  0.1594457E-001  0.1250000E+03  0.7546771E-02  0.1235069E+00
         21   -1    0    0  502  501  0.00000000000E+00  0.00000000000E+00  0.50229317664E+02  0.50229317664E+02  0.00000000000E+00 0.  1.
         21   -1    0    0  501  502 -0.00000000000E+00 -0.00000000000E+00 -0.77768326978E+02  0.77768326978E+02  0.00000000000E+00 0.  1.
         25    1    1    2    0    0  0.00000000000E+00  0.00000000000E+00 -0.27539009313E+02  0.12799764464E+03  0.12500000000E+03 0.  0.
<mgrwt>
<rscale>  0 0.12500000E+03</rscale>
<asrwt>0</asrwt>
<pdfrwt beam="1">  1       21 0.77275874E-02 0.12500000E+03</pdfrwt>
<pdfrwt beam="2">  1       21 0.11964358E-01 0.12500000E+03</pdfrwt>
<totfact> 0.73633877E+06</totfact>
</mgrwt>
</event>
<event>
 3    1  0.1594457E-001  0.1250000E+03  0.7546771E-02  0.1235069E+00
         21   -1    0    0  502  501  0.00000000000E+00  0.00000000000E+00  0.14362169792E+01  0.14362169792E+01  0.00000000000E+00 0.  1.
         21   -1    0    0  501  502 -0.00000000000E+00 -0.00000000000E+00 -0.27198188412E+04  0.27198188412E+04  0.00000000000E+00 0.  1.
         25    1    1    2    0    0  0.00000000000E+00  0.00000000000E+00 -0.27183826242E+04  0.27212550582E+04  0.12500000000E+03 0.  0.
<mgrwt>
<rscale>  0 0.12500000E+03</rscale>
<asrwt>0</asrwt>
<pdfrwt beam="1">  1       21 0.22095622E-03 0.12500000E+03</pdfrwt>
<pdfrwt beam="2">  1       21 0.41843412E+00 0.12500000E+03</pdfrwt>
<totfact> 0.28319227E+05</totfact>
</mgrwt>
</event>
<event>
 3    1  0.1594457E-001  0.1250000E+03  0.7546771E-02  0.1235069E+00
         21   -1    0    0  502  501  0.00000000000E+00  0.00000000000E+00  0.19219756114E+03  0.19219756114E+03  0.00000000000E+00 0.  1.
         21   -1    0    0  501  502 -0.00000000000E+00 -0.00000000000E+00 -0.20324139271E+02  0.20324139271E+02  0.00000000000E+00 0.  1.
         25    1    1    2    0    0  0.00000000000E+00  0.00000000000E+00  0.17187342186E+03  0.21252170041E+03  0.12500000000E+03 0.  0.
<mgrwt>
<rscale>  0 0.12500000E+03</rscale>
<asrwt>0</asrwt>
<pdfrwt beam="1">  1       21 0.29568854E-01 0.12500000E+03</pdfrwt>
<pdfrwt beam="2">  1       21 0.31267908E-02 0.12500000E+03</pdfrwt>
<totfact> 0.63595197E+06</totfact>
</mgrwt>
</event>
<event>
 3    1  0.1594457E-001  0.1250000E+03  0.7546771E-02  0.1235069E+00
         21   -1    0    0  502  501  0.00000000000E+00  0.00000000000E+00  0.57609173901E+01  0.57609173901E+01  0.00000000000E+00 0.  1.
         21   -1    0    0  501  502 -0.00000000000E+00 -0.00000000000E+00 -0.67806040869E+03  0.67806040869E+03  0.00000000000E+00 0.  1.
         25    1    1    2    0    0  0.00000000000E+00  0.00000000000E+00 -0.67229949130E+03  0.68382132608E+03  0.12500000000E+03 0.  0.
<mgrwt>
<rscale>  0 0.12500000E+03</rscale>
<asrwt>0</asrwt>
<pdfrwt beam="1">  1       21 0.88629572E-03 0.12500000E+03</pdfrwt>
<pdfrwt beam="2">  1       21 0.10431690E+00 0.12500000E+03</pdfrwt>
<totfact> 0.33543291E+06</totfact>
</mgrwt>
</event>
<event>
 3    1  0.1594457E-001  0.1250000E+03  0.7546771E-02  0.1235069E+00
         21   -1    0    0  502  501  0.00000000000E+00  0.00000000000E+00  0.30137426605E+03  0.30137426605E+03  0.00000000000E+00 0.  1.
         21   -1    0    0  501  502 -0.00000000000E+00 -0.00000000000E+00 -0.12961458359E+02  0.12961458359E+02  0.00000000000E+00 0.  1.
         25    1    1    2    0    0  0.00000000000E+00  0.00000000000E+00  0.28841280769E+03  0.31433572441E+03  0.12500000000E+03 0.  0.
<mgrwt>
<rscale>  0 0.12500000E+03</rscale>
<asrwt>0</asrwt>
<pdfrwt beam="1">  1       21 0.46365266E-01 0.12500000E+03</pdfrwt>
<pdfrwt beam="2">  1       21 0.19940708E-02 0.12500000E+03</pdfrwt>
<totfact> 0.54285285E+06</totfact>
</mgrwt>
</event>
<event>
 3    1  0.1594457E-001  0.1250000E+03  0.7546771E-02  0.1235069E+00
         21   -1    0    0  502  501  0.00000000000E+00  0.00000000000E+00  0.28426416476E+01  0.28426416476E+01  0.00000000000E+00 0.  1.
         21   -1    0    0  501  502 -0.00000000000E+00 -0.00000000000E+00 -0.13741619536E+04  0.13741619536E+04  0.00000000000E+00 0.  1.
         25    1    1    2    0    0  0.00000000000E+00  0.00000000000E+00 -0.13713193120E+04  0.13770045953E+04  0.12500000000E+03 0.  0.
<mgrwt>
<rscale>  0 0.12500000E+03</rscale>
<asrwt>0</asrwt>
<pdfrwt beam="1">  1       21 0.43733005E-03 0.12500000E+03</pdfrwt>
<pdfrwt beam="2">  1       21 0.21140926E+00 0.12500000E+03</pdfrwt>
<totfact> 0.15923359E+06</totfact>
</mgrwt>
</event>
<event>
 3    1  0.1594457E-001  0.1250000E+03  0.7546771E-02  0.1235069E+00
         21   -1    0    0  502  501  0.00000000000E+00  0.00000000000E+00  0.11004987038E+03  0.11004987038E+03  0.00000000000E+00 0.  1.
         21   -1    0    0  501  502 -0.00000000000E+00 -0.00000000000E+00 -0.35495271248E+02  0.35495271248E+02  0.00000000000E+00 0.  1.
         25    1    1    2    0    0  0.00000000000E+00  0.00000000000E+00  0.74554599135E+02  0.14554514163E+03  0.12500000000E+03 0.  0.
<mgrwt>
<rscale>  0 0.12500000E+03</rscale>
<asrwt>0</asrwt>
<pdfrwt beam="1">  1       21 0.16930749E-01 0.12500000E+03</pdfrwt>
<pdfrwt beam="2">  1       21 0.54608110E-02 0.12500000E+03</pdfrwt>
<totfact> 0.71323407E+06</totfact>
</mgrwt>
</event>
<event>
 3    1  0.1594457E-001  0.1250000E+03  0.7546771E-02  0.1235069E+00
         21   -1    0    0  502  501  0.00000000000E+00  0.00000000000E+00  0.80263513983E+02  0.80263513983E+02  0.00000000000E+00 0. -1.
         21   -1    0    0  501  502 -0.00000000000E+00 -0.00000000000E+00 -0.48667816872E+02  0.48667816872E+02  0.00000000000E+00 0. -1.
         25    1    1    2    0    0  0.00000000000E+00  0.00000000000E+00  0.31595697111E+02  0.12893133085E+03  0.12500000000E+03 0.  0.
<mgrwt>
<rscale>  0 0.12500000E+03</rscale>
<asrwt>0</asrwt>
<pdfrwt beam="1">  1       21 0.12348233E-01 0.12500000E+03</pdfrwt>
<pdfrwt beam="2">  1       21 0.74873565E-02 0.12500000E+03</pdfrwt>
<totfact> 0.73508105E+06</totfact>
</mgrwt>
</event>
<event>
 3    1  0.1594457E-001  0.1250000E+03  0.7546771E-02  0.1235069E+00
         21   -1    0    0  502  501  0.00000000000E+00  0.00000000000E+00  0.86304994293E+01  0.86304994293E+01  0.00000000000E+00 0.  1.
         21   -1    0    0  501  502 -0.00000000000E+00 -0.00000000000E+00 -0.45260995983E+03  0.45260995983E+03  0.00000000000E+00 0.  1.
         25    1    1    2    0    0  0.00000000000E+00  0.00000000000E+00 -0.44397946040E+03  0.46124045926E+03  0.12500000000E+03 0.  0.
<mgrwt>
<rscale>  0 0.12500000E+03</rscale>
<asrwt>0</asrwt>
<pdfrwt beam="1">  1       21 0.13277690E-02 0.12500000E+03</pdfrwt>
<pdfrwt beam="2">  1       21 0.69632308E-01 0.12500000E+03</pdfrwt>
<totfact> 0.44227213E+06</totfact>
</mgrwt>
</event>
<event>
 3    1  0.1594457E-001  0.1250000E+03  0.7546771E-02  0.1235069E+00
         21   -1    0    0  502  501  0.00000000000E+00  0.00000000000E+00  0.81934784532E+02  0.81934784532E+02  0.00000000000E+00 0.  1.
         21   -1    0    0  501  502 -0.00000000000E+00 -0.00000000000E+00 -0.47675111643E+02  0.47675111643E+02  0.00000000000E+00 0.  1.
         25    1    1    2    0    0  0.00000000000E+00  0.00000000000E+00  0.34259672889E+02  0.12960989617E+03  0.12500000000E+03 0.  0.
<mgrwt>
<rscale>  0 0.12500000E+03</rscale>
<asrwt>0</asrwt>
<pdfrwt beam="1">  1       21 0.12605351E-01 0.12500000E+03</pdfrwt>
<pdfrwt beam="2">  1       21 0.73346326E-02 0.12500000E+03</pdfrwt>
<totfact> 0.73417099E+06</totfact>
</mgrwt>
</event>
<event>
 3    1  0.1594457E-001  0.1250000E+03  0.7546771E-02  0.1235069E+00
         21   -1    0    0  502  501  0.00000000000E+00  0.00000000000E+00  0.52847903667E+02  0.52847903667E+02  0.00000000000E+00 0. -1.
         21   -1    0    0  501  502 -0.00000000000E+00 -0.00000000000E+00 -0.73914947027E+02  0.73914947027E+02  0.00000000000E+00 0. -1.
         25    1    1    2    0    0  0.00000000000E+00  0.00000000000E+00 -0.21067043360E+02  0.12676285069E+03  0.12500000000E+03 0.  0.
<mgrwt>
<rscale>  0 0.12500000E+03</rscale>
<asrwt>0</asrwt>
<pdfrwt beam="1">  1       21 0.81304467E-02 0.12500000E+03</pdfrwt>
<pdfrwt beam="2">  1       21 0.11371530E-01 0.12500000E+03</pdfrwt>
<totfact> 0.73801456E+06</totfact>
</mgrwt>
</event>
<event>
 3    1  0.1594457E-001  0.1250000E+03  0.7546771E-02  0.1235069E+00
         21   -1    0    0  502  501  0.00000000000E+00  0.00000000000E+00  0.39364713985E+03  0.39364713985E+03  0.00000000000E+00 0. -1.
         21   -1    0    0  501  502 -0.00000000000E+00 -0.00000000000E+00 -0.99232271863E+01  0.99232271863E+01  0.00000000000E+00 0. -1.
         25    1    1    2    0    0  0.00000000000E+00  0.00000000000E+00  0.38372391267E+03  0.40357036704E+03  0.12500000000E+03 0.  0.
<mgrwt>
<rscale>  0 0.12500000E+03</rscale>
<asrwt>0</asrwt>
<pdfrwt beam="1">  1       21 0.60561086E-01 0.12500000E+03</pdfrwt>
<pdfrwt beam="2">  1       21 0.15266506E-02 0.12500000E+03</pdfrwt>
<totfact> 0.47805435E+06</totfact>
</mgrwt>
</event>
<event>
 3    1  0.1594457E-001  0.1250000E+03  0.7546771E-02  0.1235069E+00
         21   -1    0    0  502  501  0.00000000000E+00  0.00000000000E+00  0.37311324688E+01  0.37311324688E+01  0.00000000000E+00 0.  1.
         21   -1    0    0  501  502 -0.00000000000E+00 -0.00000000000E+00 -0.10469341501E+04  0.10469341501E+04  0.00000000000E+00 0.  1.
         25    1    1    2    0    0  0.00000000000E+00  0.00000000000E+00 -0.10432030176E+04  0.10506652825E+04  0.12500000000E+03 0.  0.
<mgrwt>
<rscale>  0 0.12500000E+03</rscale>
<asrwt>0</asrwt>
<pdfrwt beam="1">  1       21 0.57402026E-03 0.12500000E+03</pdfrwt>
<pdfrwt beam="2">  1       21 0.16106683E+00 0.12500000E+03</pdfrwt>
<totfact> 0.22383259E+06</totfact>
</mgrwt>
</event>
<event>
 3    1  0.1594457E-001  0.1250000E+03  0.7546771E-02  0.1235069E+00
         21   -1    0    0  502  501  0.00000000000E+00  0.00000000000E+00  0.17511316122E+03  0.17511316122E+03  0.00000000000E+00 0.  1.
         21   -1    0    0  501  502 -0.00000000000E+00 -0.00000000000E+00 -0.22307004069E+02  0.22307004069E+02  0.00000000000E+00 0.  1.
         25    1    1    2    0    0  0.00000000000E+00  0.00000000000E+00  0.15280615715E+03  0.19742016529E+03  0.12500000000E+03 0.  0.
<mgrwt>
<rscale>  0 0.12500000E+03</rscale>
<asrwt>0</asrwt>
<pdfrwt beam="1">  1       21 0.26940485E-01 0.12500000E+03</pdfrwt>
<pdfrwt beam="2">  1       21 0.34318469E-02 0.12500000E+03</pdfrwt>
<totfact> 0.65207112E+06</totfact>
</mgrwt>
</event>
<event>
 3    1  0.1594457E-001  0.1250000E+03  0.7546771E-02  0.1235069E+00
         21   -1    0    0  502  501  0.00000000000E+00  0.00000000000E+00  0.29420687794E+03  0.29420687794E+03  0.00000000000E+00 0.  1.
         21   -1    0    0  501  502 -0.00000000000E+00 -0.00000000000E+00 -0.13277221890E+02  0.13277221890E+02  0.00000000000E+00 0.  1.
         25    1    1    2    0    0  0.00000000000E+00  0.00000000000E+00  0.28092965605E+03  0.30748409983E+03  0.12500000000E+03 0.  0.
<mgrwt>
<rscale>  0 0.12500000E+03</rscale>
<asrwt>0</asrwt>
<pdfrwt beam="1">  1       21 0.45262592E-01 0.12500000E+03</pdfrwt>
<pdfrwt beam="2">  1       21 0.20426497E-02 0.12500000E+03</pdfrwt>
<totfact> 0.54839897E+06</totfact>
</mgrwt>
</event>
<event>
 3    1  0.1594457E-001  0.1250000E+03  0.7546771E-02  0.1235069E+00
         21   -1    0    0  502  501  0.00000000000E+00  0.00000000000E+00  0.39212950025E+03  0.39212950025E+03  0.00000000000E+00 0. -1.
         21   -1    0    0  501  502 -0.00000000000E+00 -0.00000000000E+00 -0.99616325666E+01  0.99616325666E+01  0.00000000000E+00 0. -1.
         25    1    1    2    0    0  0.00000000000E+00  0.00000000000E+00  0.38216786768E+03  0.40209113282E+03  0.12500000000E+03 0.  0.
<mgrwt>
<rscale>  0 0.12500000E+03</rscale>
<asrwt>0</asrwt>
<pdfrwt beam="1">  1       21 0.60327604E-01 0.12500000E+03</pdfrwt>
<pdfrwt beam="2">  1       21 0.15325592E-02 0.12500000E+03</pdfrwt>
<totfact> 0.47902962E+06</totfact>
</mgrwt>
</event>
<event>
 3    1  0.1594457E-001  0.1250000E+03  0.7546771E-02  0.1235069E+00
         21   -1    0    0  502  501  0.00000000000E+00  0.00000000000E+00  0.33813684634E+03  0.33813684634E+03  0.00000000000E+00 0.  1.
         21   -1    0    0  501  502 -0.00000000000E+00 -0.00000000000E+00 -0.11552275483E+02  0.11552275483E+02  0.00000000000E+00 0.  1.
         25    1    1    2    0    0  0.00000000000E+00  0.00000000000E+00  0.32658457086E+03  0.34968912182E+03  0.12500000000E+03 0.  0.
<mgrwt>
<rscale>  0 0.12500000E+03</rscale>
<asrwt>0</asrwt>
<pdfrwt beam="1">  1       21 0.52021046E-01 0.12500000E+03</pdfrwt>
<pdfrwt beam="2">  1       21 0.17772734E-02 0.12500000E+03</pdfrwt>
<totfact> 0.51561402E+06</totfact>
</mgrwt>
</event>
<event>
 3    1  0.1594457E-001  0.1250000E+03  0.7546771E-02  0.1235069E+00
         21   -1    0    0  502  501  0.00000000000E+00  0.00000000000E+00  0.58482288511E+02  0.58482288511E+02  0.00000000000E+00 0.  1.
         21   -1    0    0  501  502 -0.00000000000E+00 -0.00000000000E+00 -0.66793726776E+02  0.66793726776E+02  0.00000000000E+00 0.  1.
         25    1    1    2    0    0  0.00000000000E+00  0.00000000000E+00 -0.83114382649E+01  0.12527601529E+03  0.12500000000E+03 0.  0.
<mgrwt>
<rscale>  0 0.12500000E+03</rscale>
<asrwt>0</asrwt>
<pdfrwt beam="1">  1       21 0.89972752E-02 0.12500000E+03</pdfrwt>
<pdfrwt beam="2">  1       21 0.10275958E-01 0.12500000E+03</pdfrwt>
<totfact> 0.74006309E+06</totfact>
</mgrwt>
</event>
<event>
 3    1  0.1594457E-001  0.1250000E+03  0.7546771E-02  0.1235069E+00
         21   -1    0    0  502  501  0.00000000000E+00  0.00000000000E+00  0.23505552913E+02  0.23505552913E+02  0.00000000000E+00 0. -1.
         21   -1    0    0  501  502 -0.00000000000E+00 -0.00000000000E+00 -0.16618413591E+03  0.16618413591E+03  0.00000000000E+00 0. -1.
         25    1    1    2    0    0  0.00000000000E+00  0.00000000000E+00 -0.14267858300E+03  0.18968968883E+03  0.12500000000E+03 0.  0.
<mgrwt>
<rscale>  0 0.12500000E+03</rscale>
<asrwt>0</asrwt>
<pdfrwt beam="1">  1       21 0.36162389E-02 0.12500000E+03</pdfrwt>
<pdfrwt beam="2">  1       21 0.25566790E-01 0.12500000E+03</pdfrwt>
<totfact> 0.66056968E+06</totfact>
</mgrwt>
</event>
<event>
 3    1  0.1594457E-001  0.1250000E+03  0.7546771E-02  0.1235069E+00
         21   -1    0    0  502  501  0.00000000000E+00  0.00000000000E+00  0.57079192288E+02  0.57079192288E+02  0.00000000000E+00 0.  1.
         21   -1    0    0  501  502 -0.00000000000E+00 -0.00000000000E+00 -0.68435621518E+02  0.68435621518E+02  0.00000000000E+00 0.  1.
         25    1    1    2    0    0  0.00000000000E+00  0.00000000000E+00 -0.11356429230E+02  0.12551481381E+03  0.12500000000E+03 0.  0.
<mgrwt>
<rscale>  0 0.12500000E+03</rscale>
<asrwt>0</asrwt>
<pdfrwt beam="1">  1       21 0.87814142E-02 0.12500000E+03</pdfrwt>
<pdfrwt beam="2">  1       21 0.10528557E-01 0.12500000E+03</pdfrwt>
<totfact> 0.73973326E+06</totfact>
</mgrwt>
</event>
<event>
 3    1  0.1594457E-001  0.1250000E+03  0.7546771E-02  0.1235069E+00
         21   -1    0    0  502  501  0.00000000000E+00  0.00000000000E+00  0.54884891194E+02  0.54884891194E+02  0.00000000000E+00 0.  1.
         21   -1    0    0  501  502 -0.00000000000E+00 -0.00000000000E+00 -0.71171681587E+02  0.71171681587E+02  0.00000000000E+00 0.  1.
         25    1    1    2    0    0  0.00000000000E+00  0.00000000000E+00 -0.16286790393E+02  0.12605657278E+03  0.12500000000E+03 0.  0.
<mgrwt>
<rscale>  0 0.12500000E+03</rscale>
<asrwt>0</asrwt>
<pdfrwt beam="1">  1       21 0.84438294E-02 0.12500000E+03</pdfrwt>
<pdfrwt beam="2">  1       21 0.10949489E-01 0.12500000E+03</pdfrwt>
<totfact> 0.73898242E+06</totfact>
</mgrwt>
</event>
<event>
 3    1  0.1594457E-001  0.1250000E+03  0.7546771E-02  0.1235069E+00
         21   -1    0    0  502  501  0.00000000000E+00  0.00000000000E+00  0.20823447444E+02  0.20823447444E+02  0.00000000000E+00 0.  1.
         21   -1    0    0  501  502 -0.00000000000E+00 -0.00000000000E+00 -0.18758901524E+03  0.18758901524E+03  0.00000000000E+00 0.  1.
         25    1    1    2    0    0  0.00000000000E+00  0.00000000000E+00 -0.16676556780E+03  0.20841246269E+03  0.12500000000E+03 0.  0.
<mgrwt>
<rscale>  0 0.12500000E+03</rscale>
<asrwt>0</asrwt>
<pdfrwt beam="1">  1       21 0.32036073E-02 0.12500000E+03</pdfrwt>
<pdfrwt beam="2">  1       21 0.28859849E-01 0.12500000E+03</pdfrwt>
<totfact> 0.64026950E+06</totfact>
</mgrwt>
</event>
<event>
 3    1  0.1594457E-001  0.1250000E+03  0.7546771E-02  0.1235069E+00
         21   -1    0    0  502  501  0.00000000000E+00  0.00000000000E+00  0.16225462643E+03  0.16225462643E+03  0.00000000000E+00 0. -1.
         21   -1    0    0  501  502 -0.00000000000E+00 -0.00000000000E+00 -0.24074814296E+02  0.24074814296E+02  0.00000000000E+00 0. -1.
         25    1    1    2    0    0  0.00000000000E+00  0.00000000000E+00  0.13817981214E+03  0.18632944073E+03  0.12500000000E+03 0.  0.
<mgrwt>
<rscale>  0 0.12500000E+03</rscale>
<asrwt>0</asrwt>
<pdfrwt beam="1">  1       21 0.24962250E-01 0.12500000E+03</pdfrwt>
<pdfrwt beam="2">  1       21 0.37038177E-02 0.12500000E+03</pdfrwt>
<totfact> 0.66432756E+06</totfact>
</mgrwt>
</event>
<event>
 3    1  0.1594457E-001  0.1250000E+03  0.7546771E-02  0.1235069E+00
         21   -1    0    0  502  501  0.00000000000E+00  0.00000000000E+00  0.42683683292E+03  0.42683683292E+03  0.00000000000E+00 0.  1.
         21   -1    0    0  501  502 -0.00000000000E+00 -0.00000000000E+00 -0.91516235216E+01  0.91516235216E+01  0.00000000000E+00 0.  1.
         25    1    1    2    0    0  0.00000000000E+00  0.00000000000E+00  0.41768520939E+03  0.43598845644E+03  0.12500000000E+03 0.  0.
<mgrwt>
<rscale>  0 0.12500000E+03</rscale>
<asrwt>0</asrwt>
<pdfrwt beam="1">  1       21 0.65667190E-01 0.12500000E+03</pdfrwt>
<pdfrwt beam="2">  1       21 0.14079424E-02 0.12500000E+03</pdfrwt>
<totfact> 0.45742425E+06</totfact>
</mgrwt>
</event>
<event>
 3    1  0.1594457E-001  0.1250000E+03  0.7546771E-02  0.1235069E+00
         21   -1    0    0  502  501  0.00000000000E+00  0.00000000000E+00  0.43056041987E+02  0.43056041987E+02  0.00000000000E+00 0.  1.
         21   -1    0    0  501  502 -0.00000000000E+00 -0.00000000000E+00 -0.90724781464E+02  0.90724781464E+02  0.00000000000E+00 0.  1.
         25    1    1    2    0    0  0.00000000000E+00  0.00000000000E+00 -0.47668739477E+02  0.13378082345E+03  0.12500000000E+03 0.  0.
<mgrwt>
<rscale>  0 0.12500000E+03</rscale>
<asrwt>0</asrwt>
<pdfrwt beam="1">  1       21 0.66240066E-02 0.12500000E+03</pdfrwt>
<pdfrwt beam="2">  1       21 0.13957658E-01 0.12500000E+03</pdfrwt>
<totfact> 0.72858309E+06</totfact>
</mgrwt>
</event>
<event>
 3    1  0.1594457E-001  0.1250000E+03  0.7546771E-02  0.1235069E+00
         21   -1    0    0  502  501  0.00000000000E+00  0.00000000000E+00  0.30080174793E+02  0.30080174793E+02  0.00000000000E+00 0.  1.
         21   -1    0    0  501  502 -0.00000000000E+00 -0.00000000000E+00 -0.12986127996E+03  0.12986127996E+03  0.00000000000E+00 0.  1.
         25    1    1    2    0    0  0.00000000000E+00  0.00000000000E+00 -0.99781105168E+02  0.15994145475E+03  0.12500000000E+03 0.  0.
<mgrwt>
<rscale>  0 0.12500000E+03</rscale>
<asrwt>0</asrwt>
<pdfrwt beam="1">  1       21 0.46277193E-02 0.12500000E+03</pdfrwt>
<pdfrwt beam="2">  1       21 0.19978658E-01 0.12500000E+03</pdfrwt>
<totfact> 0.69526650E+06</totfact>
</mgrwt>
</event>
<event>
 3    1  0.1594457E-001  0.1250000E+03  0.7546771E-02  0.1235069E+00
         21   -1    0    0  502  501  0.00000000000E+00  0.00000000000E+00  0.19779644533E+02  0.19779644533E+02  0.00000000000E+00 0.  1.
         21   -1    0    0  501  502 -0.00000000000E+00 -0.00000000000E+00 -0.19748838224E+03  0.19748838224E+03  0.00000000000E+00 0.  1.
         25    1    1    2    0    0  0.00000000000E+00  0.00000000000E+00 -0.17770873771E+03  0.21726802677E+03  0.12500000000E+03 0.  0.
<mgrwt>
<rscale>  0 0.12500000E+03</rscale>
<asrwt>0</asrwt>
<pdfrwt beam="1">  1       21 0.30430222E-02 0.12500000E+03</pdfrwt>
<pdfrwt beam="2">  1       21 0.30382828E-01 0.12500000E+03</pdfrwt>
<totfact> 0.63102875E+06</totfact>
</mgrwt>
</event>
<event>
 3    1  0.1594457E-001  0.1250000E+03  0.7546771E-02  0.1235069E+00
         21   -1    0    0  502  501  0.00000000000E+00  0.00000000000E+00  0.29979284460E+02  0.29979284460E+02  0.00000000000E+00 0. -1.
         21   -1    0    0  501  502 -0.00000000000E+00 -0.00000000000E+00 -0.13029830666E+03  0.13029830666E+03  0.00000000000E+00 0. -1.
         25    1    1    2    0    0  0.00000000000E+00  0.00000000000E+00 -0.10031902220E+03  0.16027759112E+03  0.12500000000E+03 0.  0.
<mgrwt>
<rscale>  0 0.12500000E+03</rscale>
<asrwt>0</asrwt>
<pdfrwt beam="1">  1       21 0.46121976E-02 0.12500000E+03</pdfrwt>
<pdfrwt beam="2">  1       21 0.20045893E-01 0.12500000E+03</pdfrwt>
<totfact> 0.69485593E+06</totfact>
</mgrwt>
</event>
<event>
 3    1  0.1594457E-001  0.1250000E+03  0.7546771E-02  0.1235069E+00
         21   -1    0    0  502  501  0.00000000000E+00  0.00000000000E+00  0.14749836710E+03  0.14749836710E+03  0.00000000000E+00 0. -1.
         21   -1    0    0  501  502 -0.00000000000E+00 -0.00000000000E+00 -0.26483344031E+02  0.26483344031E+02  0.00000000000E+00 0. -1.
         25    1    1    2    0    0  0.00000000000E+00  0.00000000000E+00  0.12101502307E+03  0.17398171113E+03  0.12500000000E+03 0.  0.
<mgrwt>
<rscale>  0 0.12500000E+03</rscale>
<asrwt>0</asrwt>
<pdfrwt beam="1">  1       21 0.22692056E-01 0.12500000E+03</pdfrwt>
<pdfrwt beam="2">  1       21 0.40743607E-02 0.12500000E+03</pdfrwt>
<totfact> 0.67848733E+06</totfact>
</mgrwt>
</event>
<event>
 3    1  0.1594457E-001  0.1250000E+03  0.7546771E-02  0.1235069E+00
         21   -1    0    0  502  501  0.00000000000E+00  0.00000000000E+00  0.50931121385E+01  0.50931121385E+01  0.00000000000E+00 0. -1.
         21   -1    0    0  501  502 -0.00000000000E+00 -0.00000000000E+00 -0.76696720861E+03  0.76696720861E+03  0.00000000000E+00 0. -1.
         25    1    1    2    0    0  0.00000000000E+00  0.00000000000E+00 -0.76187409647E+03  0.77206032075E+03  0.12500000000E+03 0.  0.
<mgrwt>
<rscale>  0 0.12500000E+03</rscale>
<asrwt>0</asrwt>
<pdfrwt beam="1">  1       21 0.78355636E-03 0.12500000E+03</pdfrwt>
<pdfrwt beam="2">  1       21 0.11799486E+00 0.12500000E+03</pdfrwt>
<totfact> 0.30307722E+06</totfact>
</mgrwt>
</event>
<event>
 3    1  0.1594457E-001  0.1250000E+03  0.7546771E-02  0.1235069E+00
         21   -1    0    0  502  501  0.00000000000E+00  0.00000000000E+00  0.81691381508E+02  0.81691381508E+02  0.00000000000E+00 0.  1.
         21   -1    0    0  501  502 -0.00000000000E+00 -0.00000000000E+00 -0.47817161711E+02  0.47817161711E+02  0.00000000000E+00 0.  1.
         25    1    1    2    0    0  0.00000000000E+00  0.00000000000E+00  0.33874219797E+02  0.12950854322E+03  0.12500000000E+03 0.  0.
<mgrwt>
<rscale>  0 0.12500000E+03</rscale>
<asrwt>0</asrwt>
<pdfrwt beam="1">  1       21 0.12567905E-01 0.12500000E+03</pdfrwt>
<pdfrwt beam="2">  1       21 0.73564864E-02 0.12500000E+03</pdfrwt>
<totfact> 0.73430672E+06</totfact>
</mgrwt>
</event>
<event>
 3    1  0.1594457E-001  0.1250000E+03  0.7546771E-02  0.1235069E+00
         21   -1    0    0  502  501  0.00000000000E+00  0.00000000000E+00  0.11020854533E+02  0.11020854533E+02  0.00000000000E+00 0.  1.
         21   -1    0    0  501  502 -0.00000000000E+00 -0.00000000000E+00 -0.35444166224E+03  0.35444166224E+03  0.00000000000E+00 0.  1.
         25    1    1    2    0    0  0.00000000000E+00  0.00000000000E+00 -0.34342080771E+03  0.36546251678E+03  0.12500000000E+03 0.  0.
<mgrwt>
<rscale>  0 0.12500000E+03</rscale>
<asrwt>0</asrwt>
<pdfrwt beam="1">  1       21 0.16955164E-02 0.12500000E+03</pdfrwt>
<pdfrwt beam="2">  1       21 0.54529475E-01 0.12500000E+03</pdfrwt>
<totfact> 0.50416369E+06</totfact>
</mgrwt>
</event>
<event>
 3    1  0.1594457E-001  0.1250000E+03  0.7546771E-02  0.1235069E+00
         21   -1    0    0  502  501  0.00000000000E+00  0.00000000000E+00  0.54064385653E+02  0.54064385653E+02  0.00000000000E+00 0.  1.
         21   -1    0    0  501  502 -0.00000000000E+00 -0.00000000000E+00 -0.72251815180E+02  0.72251815180E+02  0.00000000000E+00 0.  1.
         25    1    1    2    0    0  0.00000000000E+00  0.00000000000E+00 -0.18187429528E+02  0.12631620083E+03  0.12500000000E+03 0.  0.
<mgrwt>
<rscale>  0 0.12500000E+03</rscale>
<asrwt>0</asrwt>
<pdfrwt beam="1">  1       21 0.83175977E-02 0.12500000E+03</pdfrwt>
<pdfrwt beam="2">  1       21 0.11115664E-01 0.12500000E+03</pdfrwt>
<totfact> 0.73862556E+06</totfact>
</mgrwt>
</event>
<event>
 3    1  0.1594457E-001  0.1250000E+03  0.7546771E-02  0.1235069E+00
         21   -1    0    0  502  501  0.00000000000E+00  0.00000000000E+00  0.46850780468E+02  0.46850780468E+02  0.00000000000E+00 0.  1.
         21   -1    0    0  501  502 -0.00000000000E+00 -0.00000000000E+00 -0.83376412537E+02  0.83376412537E+02  0.00000000000E+00 0.  1.
         25    1    1    2    0    0  0.00000000000E+00  0.00000000000E+00 -0.36525632069E+02  0.13022719301E+03  0.12500000000E+03 0.  0.
<mgrwt>
<rscale>  0 0.12500000E+03</rscale>
<asrwt>0</asrwt>
<pdfrwt beam="1">  1       21 0.72078124E-02 0.12500000E+03</pdfrwt>
<pdfrwt beam="2">  1       21 0.12827140E-01 0.12500000E+03</pdfrwt>
<totfact> 0.73334566E+06</totfact>
</mgrwt>
</event>
<event>
 3    1  0.1594457E-001  0.1250000E+03  0.7546771E-02  0.1235069E+00
         21   -1    0    0  502  501  0.00000000000E+00  0.00000000000E+00  0.14134336518E+03  0.14134336518E+03  0.00000000000E+00 0. -1.
         21   -1    0    0  501  502 -0.00000000000E+00 -0.00000000000E+00 -0.27636599673E+02  0.27636599673E+02  0.00000000000E+00 0. -1.
         25    1    1    2    0    0  0.00000000000E+00  0.00000000000E+00  0.11370676551E+03  0.16897996486E+03  0.12500000000E+03 0.  0.
<mgrwt>
<rscale>  0 0.12500000E+03</rscale>
<asrwt>0</asrwt>
<pdfrwt beam="1">  1       21 0.21745133E-01 0.12500000E+03</pdfrwt>
<pdfrwt beam="2">  1       21 0.42517847E-02 0.12500000E+03</pdfrwt>
<totfact> 0.68438548E+06</totfact>
</mgrwt>
</event>
<event>
 3    1  0.1594457E-001  0.1250000E+03  0.7546771E-02  0.1235069E+00
         21   -1    0    0  502  501  0.00000000000E+00  0.00000000000E+00  0.27600103298E+03  0.27600103298E+03  0.00000000000E+00 0.  1.
         21   -1    0    0  501  502 -0.00000000000E+00 -0.00000000000E+00 -0.14153026740E+02  0.14153026740E+02  0.00000000000E+00 0.  1.
         25    1    1    2    0    0  0.00000000000E+00  0.00000000000E+00  0.26184800624E+03  0.29015405972E+03  0.12500000000E+03 0.  0.
<mgrwt>
<rscale>  0 0.12500000E+03</rscale>
<asrwt>0</asrwt>
<pdfrwt beam="1">  1       21 0.42461693E-01 0.12500000E+03</pdfrwt>
<pdfrwt beam="2">  1       21 0.21773889E-02 0.12500000E+03</pdfrwt>
<totfact> 0.56284468E+06</totfact>
</mgrwt>
</event>
<event>
 3    1  0.1594457E-001  0.1250000E+03  0.7546771E-02  0.1235069E+00
         21   -1    0    0  502  501  0.00000000000E+00  0.00000000000E+00  0.74254783925E+01  0.74254783925E+01  0.00000000000E+00 0. -1.
         21   -1    0    0  501  502 -0.00000000000E+00 -0.00000000000E+00 -0.52606038204E+03  0.52606038204E+03  0.00000000000E+00 0. -1.
         25    1    1    2    0    0  0.00000000000E+00  0.00000000000E+00 -0.51863490365E+03  0.53348586043E+03  0.12500000000E+03 0.  0.
<mgrwt>
<rscale>  0 0.12500000E+03</rscale>
<asrwt>0</asrwt>
<pdfrwt beam="1">  1       21 0.11423815E-02 0.12500000E+03</pdfrwt>
<pdfrwt beam="2">  1       21 0.80932350E-01 0.12500000E+03</pdfrwt>
<totfact> 0.40284403E+06</totfact>
</mgrwt>
</event>
<event>
 3    1  0.1594457E-001  0.1250000E+03  0.7546771E-02  0.1235069E+00
         21   -1    0    0  502  501  0.00000000000E+00  0.00000000000E+00  0.37644611211E+01  0.37644611211E+01  0.00000000000E+00 0. -1.
         21   -1    0    0  501  502 -0.00000000000E+00 -0.00000000000E+00 -0.10376651197E+04  0.10376651197E+04  0.00000000000E+00 0. -1.
         25    1    1    2    0    0  0.00000000000E+00  0.00000000000E+00 -0.10339006586E+04  0.10414295809E+04  0.12500000000E+03 0.  0.
<mgrwt>
<rscale>  0 0.12500000E+03</rscale>
<asrwt>0</asrwt>
<pdfrwt beam="1">  1       21 0.57914749E-03 0.12500000E+03</pdfrwt>
<pdfrwt beam="2">  1       21 0.15964089E+00 0.12500000E+03</pdfrwt>
<totfact> 0.22603135E+06</totfact>
</mgrwt>
</event>
<event>
 3    1  0.1594457E-001  0.1250000E+03  0.7546771E-02  0.1235069E+00
         21   -1    0    0  502  501  0.00000000000E+00  0.00000000000E+00  0.24768367289E+03  0.24768367289E+03  0.00000000000E+00 0. -1.
         21   -1    0    0  501  502 -0.00000000000E+00 -0.00000000000E+00 -0.15771124332E+02  0.15771124332E+02  0.00000000000E+00 0. -1.
         25    1    1    2    0    0  0.00000000000E+00  0.00000000000E+00  0.23191254856E+03  0.26345479722E+03  0.12500000000E+03 0.  0.
<mgrwt>
<rscale>  0 0.12500000E+03</rscale>
<asrwt>0</asrwt>
<pdfrwt beam="1">  1       21 0.38105178E-01 0.12500000E+03</pdfrwt>
<pdfrwt beam="2">  1       21 0.24263270E-02 0.12500000E+03</pdfrwt>
<totfact> 0.58634062E+06</totfact>
</mgrwt>
</event>
<event>
 3    1  0.1594457E-001  0.1250000E+03  0.7546771E-02  0.1235069E+00
         21   -1    0    0  502  501  0.00000000000E+00  0.00000000000E+00  0.55993158792E+02  0.55993158792E+02  0.00000000000E+00 0. -1.
         21   -1    0    0  501  502 -0.00000000000E+00 -0.00000000000E+00 -0.69762986842E+02  0.69762986842E+02  0.00000000000E+00 0. -1.
         25    1    1    2    0    0  0.00000000000E+00  0.00000000000E+00 -0.13769828050E+02  0.12575614563E+03  0.12500000000E+03 0.  0.
<mgrwt>
<rscale>  0 0.12500000E+03</rscale>
<asrwt>0</asrwt>
<pdfrwt beam="1">  1       21 0.86143321E-02 0.12500000E+03</pdfrwt>
<pdfrwt beam="2">  1       21 0.10732767E-01 0.12500000E+03</pdfrwt>
<totfact> 0.73939748E+06</totfact>
</mgrwt>
</event>
<event>
 3    1  0.1594457E-001  0.1250000E+03  0.7546771E-02  0.1235069E+00
         21   -1    0    0  502  501  0.00000000000E+00  0.00000000000E+00  0.22853711278E+02  0.22853711278E+02  0.00000000000E+00 0. -1.
         21   -1    0    0  501  502 -0.00000000000E+00 -0.00000000000E+00 -0.17092409861E+03  0.17092409861E+03  0.00000000000E+00 0. -1.
         25    1    1    2    0    0  0.00000000000E+00  0.00000000000E+00 -0.14807038733E+03  0.19377780989E+03  0.12500000000E+03 0.  0.
<mgrwt>
<rscale>  0 0.12500000E+03</rscale>
<asrwt>0</asrwt>
<pdfrwt beam="1">  1       21 0.35159555E-02 0.12500000E+03</pdfrwt>
<pdfrwt beam="2">  1       21 0.26296016E-01 0.12500000E+03</pdfrwt>
<totfact> 0.65605036E+06</totfact>
</mgrwt>
</event>
<event>
 3    1  0.1594457E-001  0.1250000E+03  0.7546771E-02  0.1235069E+00
         21   -1    0    0  502  501  0.00000000000E+00  0.00000000000E+00  0.17468962119E+02  0.17468962119E+02  0.00000000000E+00 0.  1.
         21   -1    0    0  501  502 -0.00000000000E+00 -0.00000000000E+00 -0.22361088046E+03  0.22361088046E+03  0.00000000000E+00 0.  1.
         25    1    1    2    0    0  0.00000000000E+00  0.00000000000E+00 -0.20614191834E+03  0.24107984257E+03  0.12500000000E+03 0.  0.
<mgrwt>
<rscale>  0 0.12500000E+03</rscale>
<asrwt>0</asrwt>
<pdfrwt beam="1">  1       21 0.26875327E-02 0.12500000E+03</pdfrwt>
<pdfrwt beam="2">  1       21 0.34401673E-01 0.12500000E+03</pdfrwt>
<totfact> 0.60728326E+06</totfact>
</mgrwt>
</event>
<event>
 3    1  0.1594457E-001  0.1250000E+03  0.7546771E-02  0.1235069E+00
         21   -1    0    0  502  501  0.00000000000E+00  0.00000000000E+00  0.16863079444E+04  0.16863079444E+04  0.00000000000E+00 0. -1.
         21   -1    0    0  501  502 -0.00000000000E+00 -0.00000000000E+00 -0.23164511636E+01  0.23164511636E+01  0.00000000000E+00 0. -1.
         25    1    1    2    0    0  0.00000000000E+00  0.00000000000E+00  0.16839914932E+04  0.16886243955E+04  0.12500000000E+03 0.  0.
<mgrwt>
<rscale>  0 0.12500000E+03</rscale>
<asrwt>0</asrwt>
<pdfrwt beam="1">  1       21 0.25943101E+00 0.12500000E+03</pdfrwt>
<pdfrwt beam="2">  1       21 0.35637845E-03 0.12500000E+03</pdfrwt>
<totfact> 0.11412607E+06</totfact>
</mgrwt>
</event>
<event>
 3    1  0.1594457E-001  0.1250000E+03  0.7546771E-02  0.1235069E+00
         21   -1    0    0  502  501  0.00000000000E+00  0.00000000000E+00  0.35135530511E+01  0.35135530511E+01  0.00000000000E+00 0. -1.
         21   -1    0    0  501  502 -0.00000000000E+00 -0.00000000000E+00 -0.11117663354E+04  0.11117663354E+04  0.00000000000E+00 0. -1.
         25    1    1    2    0    0  0.00000000000E+00  0.00000000000E+00 -0.11082527824E+04  0.11152798885E+04  0.12500000000E+03 0.  0.
<mgrwt>
<rscale>  0 0.12500000E+03</rscale>
<asrwt>0</asrwt>
<pdfrwt beam="1">  1       21 0.54054638E-03 0.12500000E+03</pdfrwt>
<pdfrwt beam="2">  1       21 0.17104105E+00 0.12500000E+03</pdfrwt>
<totfact> 0.20914745E+06</totfact>
</mgrwt>
</event>
<event>
 3    1  0.1594457E-001  0.1250000E+03  0.7546771E-02  0.1235069E+00
         21   -1    0    0  502  501  0.00000000000E+00  0.00000000000E+00  0.61278466748E+02  0.61278466748E+02  0.00000000000E+00 0.  1.
         21   -1    0    0  501  502 -0.00000000000E+00 -0.00000000000E+00 -0.63745883462E+02  0.63745883462E+02  0.00000000000E+00 0.  1.
         25    1    1    2    0    0  0.00000000000E+00  0.00000000000E+00 -0.24674167139E+01  0.12502435021E+03  0.12500000000E+03 0.  0.
<mgrwt>
<rscale>  0 0.12500000E+03</rscale>
<asrwt>0</asrwt>
<pdfrwt beam="1">  1       21 0.94274565E-02 0.12500000E+03</pdfrwt>
<pdfrwt beam="2">  1       21 0.98070589E-02 0.12500000E+03</pdfrwt>
<totfact> 0.74040292E+06</totfact>
</mgrwt>
</event>
<event>
 3    1  0.1594457E-001  0.1250000E+03  0.7546771E-02  0.1235069E+00
         21   -1    0    0  502  501  0.00000000000E+00  0.00000000000E+00  0.17599122750E+02  0.17599122750E+02  0.00000000000E+00 0.  1.
         21   -1    0    0  501  502 -0.00000000000E+00 -0.00000000000E+00 -0.22195708590E+03  0.22195708590E+03  0.00000000000E+00 0.  1.
         25    1    1    2    0    0  0.00000000000E+00  0.00000000000E+00 -0.20435796315E+03  0.23955620865E+03  0.12500000000E+03 0.  0.
<mgrwt>
<rscale>  0 0.12500000E+03</rscale>
<asrwt>0</asrwt>
<pdfrwt beam="1">  1       21 0.27075575E-02 0.12500000E+03</pdfrwt>
<pdfrwt beam="2">  1       21 0.34147243E-01 0.12500000E+03</pdfrwt>
<totfact> 0.60875634E+06</totfact>
</mgrwt>
</event>
<event>
 3    1  0.1594457E-001  0.1250000E+03  0.7546771E-02  0.1235069E+00
         21   -1    0    0  502  501  0.00000000000E+00  0.00000000000E+00  0.13929278181E+03  0.13929278181E+03  0.00000000000E+00 0.  1.
         21   -1    0    0  501  502 -0.00000000000E+00 -0.00000000000E+00 -0.28043448837E+02  0.28043448837E+02  0.00000000000E+00 0.  1.
         25    1    1    2    0    0  0.00000000000E+00  0.00000000000E+00  0.11124933297E+03  0.16733623065E+03  0.12500000000E+03 0.  0.
<mgrwt>
<rscale>  0 0.12500000E+03</rscale>
<asrwt>0</asrwt>
<pdfrwt beam="1">  1       21 0.21429658E-01 0.12500000E+03</pdfrwt>
<pdfrwt beam="2">  1       21 0.43143768E-02 0.12500000E+03</pdfrwt>
<totfact> 0.68634013E+06</totfact>
</mgrwt>
</event>
<event>
 3    1  0.1594457E-001  0.1250000E+03  0.7546771E-02  0.1235069E+00
         21   -1    0    0  502  501  0.00000000000E+00  0.00000000000E+00  0.21247776471E+04  0.21247776471E+04  0.00000000000E+00 0. -1.
         21   -1    0    0  501  502 -0.00000000000E+00 -0.00000000000E+00 -0.18384276610E+01  0.18384276610E+01  0.00000000000E+00 0. -1.
         25    1    1    2    0    0  0.00000000000E+00  0.00000000000E+00  0.21229392195E+04  0.21266160748E+04  0.12500000000E+03 0.  0.
<mgrwt>
<rscale>  0 0.12500000E+03</rscale>
<asrwt>0</asrwt>
<pdfrwt beam="1">  1       21 0.32688690E+00 0.12500000E+03</pdfrwt>
<pdfrwt beam="2">  1       21 0.28283673E-03 0.12500000E+03</pdfrwt>
<totfact> 0.67781864E+05</totfact>
</mgrwt>
</event>
<event>
 3    1  0.1594457E-001  0.1250000E+03  0.7546771E-02  0.1235069E+00
         21   -1    0    0  502  501  0.00000000000E+00  0.00000000000E+00  0.18875259990E+04  0.18875259990E+04  0.00000000000E+00 0.  1.
         21   -1    0    0  501  502 -0.00000000000E+00 -0.00000000000E+00 -0.20695079178E+01  0.20695079178E+01  0.00000000000E+00 0.  1.
         25    1    1    2    0    0  0.00000000000E+00  0.00000000000E+00  0.18854564911E+04  0.18895955069E+04  0.12500000000E+03 0.  0.
<mgrwt>
<rscale>  0 0.12500000E+03</rscale>
<asrwt>0</asrwt>
<pdfrwt beam="1">  1       21 0.29038724E+00 0.12500000E+03</pdfrwt>
<pdfrwt beam="2">  1       21 0.31838734E-03 0.12500000E+03</pdfrwt>
<totfact> 0.90758836E+05</totfact>
</mgrwt>
</event>
<event>
 3    1  0.1594457E-001  0.1250000E+03  0.7546771E-02  0.1235069E+00
         21   -1    0    0  502  501  0.00000000000E+00  0.00000000000E+00  0.31568694065E+02  0.31568694065E+02  0.00000000000E+00 0.  1.
         21   -1    0    0  501  502 -0.00000000000E+00 -0.00000000000E+00 -0.12373809293E+03  0.12373809293E+03  0.00000000000E+00 0.  1.
         25    1    1    2    0    0  0.00000000000E+00  0.00000000000E+00 -0.92169398868E+02  0.15530678700E+03  0.12500000000E+03 0.  0.
<mgrwt>
<rscale>  0 0.12500000E+03</rscale>
<asrwt>0</asrwt>
<pdfrwt beam="1">  1       21 0.48567220E-02 0.12500000E+03</pdfrwt>
<pdfrwt beam="2">  1       21 0.19036630E-01 0.12500000E+03</pdfrwt>
<totfact> 0.70097549E+06</totfact>
</mgrwt>
</event>
<event>
 3    1  0.1594457E-001  0.1250000E+03  0.7546771E-02  0.1235069E+00
         21   -1    0    0  502  501  0.00000000000E+00  0.00000000000E+00  0.10069552626E+03  0.10069552626E+03  0.00000000000E+00 0. -1.
         21   -1    0    0  501  502 -0.00000000000E+00 -0.00000000000E+00 -0.38792686677E+02  0.38792686677E+02  0.00000000000E+00 0. -1.
         25    1    1    2    0    0  0.00000000000E+00  0.00000000000E+00  0.61902839582E+02  0.13948821294E+03  0.12500000000E+03 0.  0.
<mgrwt>
<rscale>  0 0.12500000E+03</rscale>
<asrwt>0</asrwt>
<pdfrwt beam="1">  1       21 0.15491619E-01 0.12500000E+03</pdfrwt>
<pdfrwt beam="2">  1       21 0.59681057E-02 0.12500000E+03</pdfrwt>
<totfact> 0.72106191E+06</totfact>
</mgrwt>
</event>
<event>
 3    1  0.1594457E-001  0.1250000E+03  0.7546771E-02  0.1235069E+00
         21   -1    0    0  502  501  0.00000000000E+00  0.00000000000E+00  0.33391072852E+01  0.33391072852E+01  0.00000000000E+00 0.  1.
         21   -1    0    0  501  502 -0.00000000000E+00 -0.00000000000E+00 -0.11698486051E+04  0.11698486051E+04  0.00000000000E+00 0.  1.
         25    1    1    2    0    0  0.00000000000E+00  0.00000000000E+00 -0.11665094978E+04  0.11731877124E+04  0.12500000000E+03 0.  0.
<mgrwt>
<rscale>  0 0.12500000E+03</rscale>
<asrwt>0</asrwt>
<pdfrwt beam="1">  1       21 0.51370802E-03 0.12500000E+03</pdfrwt>
<pdfrwt beam="2">  1       21 0.17997699E+00 0.12500000E+03</pdfrwt>
<totfact> 0.19685998E+06</totfact>
</mgrwt>
</event>
<event>
 3    1  0.1594457E-001  0.1250000E+03  0.7546771E-02  0.1235069E+00
         21   -1    0    0  502  501  0.00000000000E+00  0.00000000000E+00  0.23147431225E+03  0.23147431225E+03  0.00000000000E+00 0.  1.
         21   -1    0    0  501  502 -0.00000000000E+00 -0.00000000000E+00 -0.16875522653E+02  0.16875522653E+02  0.00000000000E+00 0.  1.
         25    1    1    2    0    0  0.00000000000E+00  0.00000000000E+00  0.21459878960E+03  0.24834983490E+03  0.12500000000E+03 0.  0.
<mgrwt>
<rscale>  0 0.12500000E+03</rscale>
<asrwt>0</asrwt>
<pdfrwt beam="1">  1       21 0.35611430E-01 0.12500000E+03</pdfrwt>
<pdfrwt beam="2">  1       21 0.25962344E-02 0.12500000E+03</pdfrwt>
<totfact> 0.60033899E+06</totfact>
</mgrwt>
</event>
<event>
 3    1  0.1594457E-001  0.1250000E+03  0.7546771E-02  0.1235069E+00
         21   -1    0    0  502  501  0.00000000000E+00  0.00000000000E+00  0.32757147071E+02  0.32757147071E+02  0.00000000000E+00 0. -1.
         21   -1    0    0  501  502 -0.00000000000E+00 -0.00000000000E+00 -0.11924878536E+03  0.11924878536E+03  0.00000000000E+00 0. -1.
         25    1    1    2    0    0  0.00000000000E+00  0.00000000000E+00 -0.86491638286E+02  0.15200593243E+03  0.12500000000E+03 0.  0.
<mgrwt>
<rscale>  0 0.12500000E+03</rscale>
<asrwt>0</asrwt>
<pdfrwt beam="1">  1       21 0.50395610E-02 0.12500000E+03</pdfrwt>
<pdfrwt beam="2">  1       21 0.18345967E-01 0.12500000E+03</pdfrwt>
<totfact> 0.70508120E+06</totfact>
</mgrwt>
</event>
<event>
 3    1  0.1594457E-001  0.1250000E+03  0.7546771E-02  0.1235069E+00
         21   -1    0    0  502  501  0.00000000000E+00  0.00000000000E+00  0.13748012672E+04  0.13748012672E+04  0.00000000000E+00 0.  1.
         21   -1    0    0  501  502 -0.00000000000E+00 -0.00000000000E+00 -0.28413197553E+01  0.28413197553E+01  0.00000000000E+00 0.  1.
         25    1    1    2    0    0  0.00000000000E+00  0.00000000000E+00  0.13719599474E+04  0.13776425869E+04  0.12500000000E+03 0.  0.
<mgrwt>
<rscale>  0 0.12500000E+03</rscale>
<asrwt>0</asrwt>
<pdfrwt beam="1">  1       21 0.21150736E+00 0.12500000E+03</pdfrwt>
<pdfrwt beam="2">  1       21 0.43712721E-03 0.12500000E+03</pdfrwt>
<totfact> 0.15912767E+06</totfact>
</mgrwt>
</event>
<event>
 3    1  0.1594457E-001  0.1250000E+03  0.7546771E-02  0.1235069E+00
         21   -1    0    0  502  501  0.00000000000E+00  0.00000000000E+00  0.15164356279E+03  0.15164356279E+03  0.00000000000E+00 0. -1.
         21   -1    0    0  501  502 -0.00000000000E+00 -0.00000000000E+00 -0.25759418521E+02  0.25759418521E+02  0.00000000000E+00 0. -1.
         25    1    1    2    0    0  0.00000000000E+00  0.00000000000E+00  0.12588414427E+03  0.17740298131E+03  0.12500000000E+03 0.  0.
<mgrwt>
<rscale>  0 0.12500000E+03</rscale>
<asrwt>0</asrwt>
<pdfrwt beam="1">  1       21 0.23329778E-01 0.12500000E+03</pdfrwt>
<pdfrwt beam="2">  1       21 0.39629875E-02 0.12500000E+03</pdfrwt>
<totfact> 0.67450714E+06</totfact>
</mgrwt>
</event>
<event>
 3    1  0.1594457E-001  0.1250000E+03  0.7546771E-02  0.1235069E+00
         21   -1    0    0  502  501  0.00000000000E+00  0.00000000000E+00  0.11926891919E+02  0.11926891919E+02  0.00000000000E+00 0.  1.
         21   -1    0    0  501  502 -0.00000000000E+00 -0.00000000000E+00 -0.32751617323E+03  0.32751617323E+03  0.00000000000E+00 0.  1.
         25    1    1    2    0    0  0.00000000000E+00  0.00000000000E+00 -0.31558928131E+03  0.33944306515E+03  0.12500000000E+03 0.  0.
<mgrwt>
<rscale>  0 0.12500000E+03</rscale>
<asrwt>0</asrwt>
<pdfrwt beam="1">  1       21 0.18349065E-02 0.12500000E+03</pdfrwt>
<pdfrwt beam="2">  1       21 0.50387101E-01 0.12500000E+03</pdfrwt>
<totfact> 0.52327669E+06</totfact>
</mgrwt>
</event>
<event>
 3    1  0.1594457E-001  0.1250000E+03  0.7546771E-02  0.1235069E+00
         21   -1    0    0  502  501  0.00000000000E+00  0.00000000000E+00  0.12203600672E+02  0.12203600672E+02  0.00000000000E+00 0. -1.
         21   -1    0    0  501  502 -0.00000000000E+00 -0.00000000000E+00 -0.32008995584E+03  0.32008995584E+03  0.00000000000E+00 0. -1.
         25    1    1    2    0    0  0.00000000000E+00  0.00000000000E+00 -0.30788635517E+03  0.33229355651E+03  0.12500000000E+03 0.  0.
<mgrwt>
<rscale>  0 0.12500000E+03</rscale>
<asrwt>0</asrwt>
<pdfrwt beam="1">  1       21 0.18774768E-02 0.12500000E+03</pdfrwt>
<pdfrwt beam="2">  1       21 0.49244615E-01 0.12500000E+03</pdfrwt>
<totfact> 0.52873293E+06</totfact>
</mgrwt>
</event>
<event>
 3    1  0.1594457E-001  0.1250000E+03  0.7546771E-02  0.1235069E+00
         21   -1    0    0  502  501  0.00000000000E+00  0.00000000000E+00  0.10450180226E+02  0.10450180226E+02  0.00000000000E+00 0.  1.
         21   -1    0    0  501  502 -0.00000000000E+00 -0.00000000000E+00 -0.37379738107E+03  0.37379738107E+03  0.00000000000E+00 0.  1.
         25    1    1    2    0    0  0.00000000000E+00  0.00000000000E+00 -0.36334720084E+03  0.38424756129E+03  0.12500000000E+03 0.  0.
<mgrwt>
<rscale>  0 0.12500000E+03</rscale>
<asrwt>0</asrwt>
<pdfrwt beam="1">  1       21 0.16077203E-02 0.12500000E+03</pdfrwt>
<pdfrwt beam="2">  1       21 0.57507279E-01 0.12500000E+03</pdfrwt>
<totfact> 0.49104053E+06</totfact>
</mgrwt>
</event>
<event>
 3    1  0.1594457E-001  0.1250000E+03  0.7546771E-02  0.1235069E+00
         21   -1    0    0  502  501  0.00000000000E+00  0.00000000000E+00  0.20886720295E+02  0.20886720295E+02  0.00000000000E+00 0. -1.
         21   -1    0    0  501  502 -0.00000000000E+00 -0.00000000000E+00 -0.18702074547E+03  0.18702074547E+03  0.00000000000E+00 0. -1.
         25    1    1    2    0    0  0.00000000000E+00  0.00000000000E+00 -0.16613402517E+03  0.20790746576E+03  0.12500000000E+03 0.  0.
<mgrwt>
<rscale>  0 0.12500000E+03</rscale>
<asrwt>0</asrwt>
<pdfrwt beam="1">  1       21 0.32133416E-02 0.12500000E+03</pdfrwt>
<pdfrwt beam="2">  1       21 0.28772422E-01 0.12500000E+03</pdfrwt>
<totfact> 0.64080369E+06</totfact>
</mgrwt>
</event>
<event>
 3    1  0.1594457E-001  0.1250000E+03  0.7546771E-02  0.1235069E+00
         21   -1    0    0  502  501  0.00000000000E+00  0.00000000000E+00  0.16691467847E+03  0.16691467847E+03  0.00000000000E+00 0.  1.
         21   -1    0    0  501  502 -0.00000000000E+00 -0.00000000000E+00 -0.23402675163E+02  0.23402675163E+02  0.00000000000E+00 0.  1.
         25    1    1    2    0    0  0.00000000000E+00  0.00000000000E+00  0.14351200330E+03  0.19031735363E+03  0.12500000000E+03 0.  0.
<mgrwt>
<rscale>  0 0.12500000E+03</rscale>
<asrwt>0</asrwt>
<pdfrwt beam="1">  1       21 0.25679181E-01 0.12500000E+03</pdfrwt>
<pdfrwt beam="2">  1       21 0.36004117E-02 0.12500000E+03</pdfrwt>
<totfact> 0.65987211E+06</totfact>
</mgrwt>
</event>
<event>
 3    1  0.1594457E-001  0.1250000E+03  0.7546771E-02  0.1235069E+00
         21   -1    0    0  502  501  0.00000000000E+00  0.00000000000E+00  0.11570085054E+04  0.11570085054E+04  0.00000000000E+00 0.  1.
         21   -1    0    0  501  502 -0.00000000000E+00 -0.00000000000E+00 -0.33761635993E+01  0.33761635993E+01  0.00000000000E+00 0.  1.
         25    1    1    2    0    0  0.00000000000E+00  0.00000000000E+00  0.11536323418E+04  0.11603846690E+04  0.12500000000E+03 0.  0.
<mgrwt>
<rscale>  0 0.12500000E+03</rscale>
<asrwt>0</asrwt>
<pdfrwt beam="1">  1       21 0.17800099E+00 0.12500000E+03</pdfrwt>
<pdfrwt beam="2">  1       21 0.51941071E-03 0.12500000E+03</pdfrwt>
<totfact> 0.19951219E+06</totfact>
</mgrwt>
</event>
<event>
 3    1  0.1594457E-001  0.1250000E+03  0.7546771E-02  0.1235069E+00
         21   -1    0    0  502  501  0.00000000000E+00  0.00000000000E+00  0.10333716540E+02  0.10333716540E+02  0.00000000000E+00 0. -1.
         21   -1    0    0  501  502 -0.00000000000E+00 -0.00000000000E+00 -0.37801017522E+03  0.37801017522E+03  0.00000000000E+00 0. -1.
         25    1    1    2    0    0  0.00000000000E+00  0.00000000000E+00 -0.36767645868E+03  0.38834389176E+03  0.12500000000E+03 0.  0.
<mgrwt>
<rscale>  0 0.12500000E+03</rscale>
<asrwt>0</asrwt>
<pdfrwt beam="1">  1       21 0.15898025E-02 0.12500000E+03</pdfrwt>
<pdfrwt beam="2">  1       21 0.58155414E-01 0.12500000E+03</pdfrwt>
<totfact> 0.48824219E+06</totfact>
</mgrwt>
</event>
<event>
 3    1  0.1594457E-001  0.1250000E+03  0.7546771E-02  0.1235069E+00
         21   -1    0    0  502  501  0.00000000000E+00  0.00000000000E+00  0.54341900601E+01  0.54341900601E+01  0.00000000000E+00 0.  1.
         21   -1    0    0  501  502 -0.00000000000E+00 -0.00000000000E+00 -0.71882837310E+03  0.71882837310E+03  0.00000000000E+00 0.  1.
         25    1    1    2    0    0  0.00000000000E+00  0.00000000000E+00 -0.71339418304E+03  0.72426256316E+03  0.12500000000E+03 0.  0.
<mgrwt>
<rscale>  0 0.12500000E+03</rscale>
<asrwt>0</asrwt>
<pdfrwt beam="1">  1       21 0.83602938E-03 0.12500000E+03</pdfrwt>
<pdfrwt beam="2">  1       21 0.11058896E+00 0.12500000E+03</pdfrwt>
<totfact> 0.31995471E+06</totfact>
</mgrwt>
</event>
<event>
 3    1  0.1594457E-001  0.1250000E+03  0.7546771E-02  0.1235069E+00
         21   -1    0    0  502  501  0.00000000000E+00  0.00000000000E+00  0.43048569429E+02  0.43048569429E+02  0.00000000000E+00 0. -1.
         21   -1    0    0  501  502 -0.00000000000E+00 -0.00000000000E+00 -0.90740529867E+02  0.90740529867E+02  0.00000000000E+00 0. -1.
         25    1    1    2    0    0  0.00000000000E+00  0.00000000000E+00 -0.47691960438E+02  0.13378909930E+03  0.12500000000E+03 0.  0.
<mgrwt>
<rscale>  0 0.12500000E+03</rscale>
<asrwt>0</asrwt>
<pdfrwt beam="1">  1       21 0.66228569E-02 0.12500000E+03</pdfrwt>
<pdfrwt beam="2">  1       21 0.13960081E-01 0.12500000E+03</pdfrwt>
<totfact> 0.72857207E+06</totfact>
</mgrwt>
</event>
<event>
 3    1  0.1594457E-001  0.1250000E+03  0.7546771E-02  0.1235069E+00
         21   -1    0    0  502  501  0.00000000000E+00  0.00000000000E+00  0.12002904154E+02  0.12002904154E+02  0.00000000000E+00 0. -1.
         21   -1    0    0  501  502 -0.00000000000E+00 -0.00000000000E+00 -0.32544207219E+03  0.32544207219E+03  0.00000000000E+00 0. -1.
         25    1    1    2    0    0  0.00000000000E+00  0.00000000000E+00 -0.31343916803E+03  0.33744497634E+03  0.12500000000E+03 0.  0.
<mgrwt>
<rscale>  0 0.12500000E+03</rscale>
<asrwt>0</asrwt>
<pdfrwt beam="1">  1       21 0.18466009E-02 0.12500000E+03</pdfrwt>
<pdfrwt beam="2">  1       21 0.50068005E-01 0.12500000E+03</pdfrwt>
<totfact> 0.52479239E+06</totfact>
</mgrwt>
</event>
<event>
 3    1  0.1594457E-001  0.1250000E+03  0.7546771E-02  0.1235069E+00
         21   -1    0    0  502  501  0.00000000000E+00  0.00000000000E+00  0.23879234315E+02  0.23879234315E+02  0.00000000000E+00 0. -1.
         21   -1    0    0  501  502 -0.00000000000E+00 -0.00000000000E+00 -0.16358355333E+03  0.16358355333E+03  0.00000000000E+00 0. -1.
         25    1    1    2    0    0  0.00000000000E+00  0.00000000000E+00 -0.13970431901E+03  0.18746278764E+03  0.12500000000E+03 0.  0.
<mgrwt>
<rscale>  0 0.12500000E+03</rscale>
<asrwt>0</asrwt>
<pdfrwt beam="1">  1       21 0.36737286E-02 0.12500000E+03</pdfrwt>
<pdfrwt beam="2">  1       21 0.25166699E-01 0.12500000E+03</pdfrwt>
<totfact> 0.66305568E+06</totfact>
</mgrwt>
</event>
<event>
 3    1  0.1594457E-001  0.1250000E+03  0.7546771E-02  0.1235069E+00
         21   -1    0    0  502  501  0.00000000000E+00  0.00000000000E+00  0.21141952173E+03  0.21141952173E+03  0.00000000000E+00 0. -1.
         21   -1    0    0  501  502 -0.00000000000E+00 -0.00000000000E+00 -0.18476297591E+02  0.18476297591E+02  0.00000000000E+00 0. -1.
         25    1    1    2    0    0  0.00000000000E+00  0.00000000000E+00  0.19294322414E+03  0.22989581932E+03  0.12500000000E+03 0.  0.
<mgrwt>
<rscale>  0 0.12500000E+03</rscale>
<asrwt>0</asrwt>
<pdfrwt beam="1">  1       21 0.32526079E-01 0.12500000E+03</pdfrwt>
<pdfrwt beam="2">  1       21 0.28425075E-02 0.12500000E+03</pdfrwt>
<totfact> 0.61824350E+06</totfact>
</mgrwt>
</event>
<event>
 3    1  0.1594457E-001  0.1250000E+03  0.7546771E-02  0.1235069E+00
         21   -1    0    0  502  501  0.00000000000E+00  0.00000000000E+00  0.30871283251E+02  0.30871283251E+02  0.00000000000E+00 0. -1.
         21   -1    0    0  501  502 -0.00000000000E+00 -0.00000000000E+00 -0.12653345079E+03  0.12653345079E+03  0.00000000000E+00 0. -1.
         25    1    1    2    0    0  0.00000000000E+00  0.00000000000E+00 -0.95662167538E+02  0.15740473404E+03  0.12500000000E+03 0.  0.
<mgrwt>
<rscale>  0 0.12500000E+03</rscale>
<asrwt>0</asrwt>
<pdfrwt beam="1">  1       21 0.47494281E-02 0.12500000E+03</pdfrwt>
<pdfrwt beam="2">  1       21 0.19466685E-01 0.12500000E+03</pdfrwt>
<totfact> 0.69838007E+06</totfact>
</mgrwt>
</event>
<event>
 3    1  0.1594457E-001  0.1250000E+03  0.7546771E-02  0.1235069E+00
         21   -1    0    0  502  501  0.00000000000E+00  0.00000000000E+00  0.51156755152E+02  0.51156755152E+02  0.00000000000E+00 0.  1.
         21   -1    0    0  501  502 -0.00000000000E+00 -0.00000000000E+00 -0.76358439631E+02  0.76358439631E+02  0.00000000000E+00 0.  1.
         25    1    1    2    0    0  0.00000000000E+00  0.00000000000E+00 -0.25201684479E+02  0.12751519478E+03  0.12500000000E+03 0.  0.
<mgrwt>
<rscale>  0 0.12500000E+03</rscale>
<asrwt>0</asrwt>
<pdfrwt beam="1">  1       21 0.78702701E-02 0.12500000E+03</pdfrwt>
<pdfrwt beam="2">  1       21 0.11747452E-01 0.12500000E+03</pdfrwt>
<totfact> 0.73699158E+06</totfact>
</mgrwt>
</event>
<event>
 3    1  0.1594457E-001  0.1250000E+03  0.7546771E-02  0.1235069E+00
         21   -1    0    0  502  501  0.00000000000E+00  0.00000000000E+00  0.13368926596E+02  0.13368926596E+02  0.00000000000E+00 0. -1.
         21   -1    0    0  501  502 -0.00000000000E+00 -0.00000000000E+00 -0.29218875368E+03  0.29218875368E+03  0.00000000000E+00 0. -1.
         25    1    1    2    0    0  0.00000000000E+00  0.00000000000E+00 -0.27881982709E+03  0.30555768028E+03  0.12500000000E+03 0.  0.
<mgrwt>
<rscale>  0 0.12500000E+03</rscale>
<asrwt>0</asrwt>
<pdfrwt beam="1">  1       21 0.20567582E-02 0.12500000E+03</pdfrwt>
<pdfrwt beam="2">  1       21 0.44952111E-01 0.12500000E+03</pdfrwt>
<totfact> 0.54997451E+06</totfact>
</mgrwt>
</event>
<event>
 3    1  0.1594457E-001  0.1250000E+03  0.7546771E-02  0.1235069E+00
         21   -1    0    0  502  501  0.00000000000E+00  0.00000000000E+00  0.13711507537E+02  0.13711507537E+02  0.00000000000E+00 0.  1.
         21   -1    0    0  501  502 -0.00000000000E+00 -0.00000000000E+00 -0.28488844057E+03  0.28488844057E+03  0.00000000000E+00 0.  1.
         25    1    1    2    0    0  0.00000000000E+00  0.00000000000E+00 -0.27117693303E+03  0.29859994810E+03  0.12500000000E+03 0.  0.
<mgrwt>
<rscale>  0 0.12500000E+03</rscale>
<asrwt>0</asrwt>
<pdfrwt beam="1">  1       21 0.21094628E-02 0.12500000E+03</pdfrwt>
<pdfrwt beam="2">  1       21 0.43828990E-01 0.12500000E+03</pdfrwt>
<totfact> 0.55572725E+06</totfact>
</mgrwt>
</event>
<event>
 3    1  0.1594457E-001  0.1250000E+03  0.7546771E-02  0.1235069E+00
         21   -1    0    0  502  501  0.00000000000E+00  0.00000000000E+00  0.66872438797E+03  0.66872438797E+03  0.00000000000E+00 0. -1.
         21   -1    0    0  501  502 -0.00000000000E+00 -0.00000000000E+00 -0.58413452092E+01  0.58413452092E+01  0.00000000000E+00 0. -1.
         25    1    1    2    0    0  0.00000000000E+00  0.00000000000E+00  0.66288304277E+03  0.67456573318E+03  0.12500000000E+03 0.  0.
<mgrwt>
<rscale>  0 0.12500000E+03</rscale>
<asrwt>0</asrwt>
<pdfrwt beam="1">  1       21 0.10288061E+00 0.12500000E+03</pdfrwt>
<pdfrwt beam="2">  1       21 0.89866902E-03 0.12500000E+03</pdfrwt>
<totfact> 0.33913984E+06</totfact>
</mgrwt>
</event>
<event>
 3    1  0.1594457E-001  0.1250000E+03  0.7546771E-02  0.1235069E+00
         21   -1    0    0  502  501  0.00000000000E+00  0.00000000000E+00  0.91240974576E+02  0.91240974576E+02  0.00000000000E+00 0. -1.
         21   -1    0    0  501  502 -0.00000000000E+00 -0.00000000000E+00 -0.42812453704E+02  0.42812453704E+02  0.00000000000E+00 0. -1.
         25    1    1    2    0    0  0.00000000000E+00  0.00000000000E+00  0.48428520872E+02  0.13405342828E+03  0.12500000000E+03 0.  0.
<mgrwt>
<rscale>  0 0.12500000E+03</rscale>
<asrwt>0</asrwt>
<pdfrwt beam="1">  1       21 0.14037073E-01 0.12500000E+03</pdfrwt>
<pdfrwt beam="2">  1       21 0.65865314E-02 0.12500000E+03</pdfrwt>
<totfact> 0.72822050E+06</totfact>
</mgrwt>
</event>
<event>
 3    1  0.1594457E-001  0.1250000E+03  0.7546771E-02  0.1235069E+00
         21   -1    0    0  502  501  0.00000000000E+00  0.00000000000E+00  0.46945301760E+01  0.46945301760E+01  0.00000000000E+00 0.  1.
         21   -1    0    0  501  502 -0.00000000000E+00 -0.00000000000E+00 -0.83208539589E+03  0.83208539589E+03  0.00000000000E+00 0.  1.
         25    1    1    2    0    0  0.00000000000E+00  0.00000000000E+00 -0.82739086572E+03  0.83677992607E+03  0.12500000000E+03 0.  0.
<mgrwt>
<rscale>  0 0.12500000E+03</rscale>
<asrwt>0</asrwt>
<pdfrwt beam="1">  1       21 0.72223565E-03 0.12500000E+03</pdfrwt>
<pdfrwt beam="2">  1       21 0.12801310E+00 0.12500000E+03</pdfrwt>
<totfact> 0.28179925E+06</totfact>
</mgrwt>
</event>
<event>
 3    1  0.1594457E-001  0.1250000E+03  0.7546771E-02  0.1235069E+00
         21   -1    0    0  502  501  0.00000000000E+00  0.00000000000E+00  0.79336066346E+02  0.79336066346E+02  0.00000000000E+00 0. -1.
         21   -1    0    0  501  502 -0.00000000000E+00 -0.00000000000E+00 -0.49236749185E+02  0.49236749185E+02  0.00000000000E+00 0. -1.
         25    1    1    2    0    0  0.00000000000E+00  0.00000000000E+00  0.30099317162E+02  0.12857281553E+03  0.12500000000E+03 0.  0.
<mgrwt>
<rscale>  0 0.12500000E+03</rscale>
<asrwt>0</asrwt>
<pdfrwt beam="1">  1       21 0.12205549E-01 0.12500000E+03</pdfrwt>
<pdfrwt beam="2">  1       21 0.75748845E-02 0.12500000E+03</pdfrwt>
<totfact> 0.73556318E+06</totfact>
</mgrwt>
</event>
<event>
 3    1  0.1594457E-001  0.1250000E+03  0.7546771E-02  0.1235069E+00
         21   -1    0    0  502  501  0.00000000000E+00  0.00000000000E+00  0.15071325127E+03  0.15071325127E+03  0.00000000000E+00 0. -1.
         21   -1    0    0  501  502 -0.00000000000E+00 -0.00000000000E+00 -0.25918424340E+02  0.25918424340E+02  0.00000000000E+00 0. -1.
         25    1    1    2    0    0  0.00000000000E+00  0.00000000000E+00  0.12479482693E+03  0.17663167561E+03  0.12500000000E+03 0.  0.
<mgrwt>
<rscale>  0 0.12500000E+03</rscale>
<asrwt>0</asrwt>
<pdfrwt beam="1">  1       21 0.23186654E-01 0.12500000E+03</pdfrwt>
<pdfrwt beam="2">  1       21 0.39874500E-02 0.12500000E+03</pdfrwt>
<totfact> 0.67540057E+06</totfact>
</mgrwt>
</event>
<event>
 3    1  0.1594457E-001  0.1250000E+03  0.7546771E-02  0.1235069E+00
         21   -1    0    0  502  501  0.00000000000E+00  0.00000000000E+00  0.98044715914E+03  0.98044715914E+03  0.00000000000E+00 0. -1.
         21   -1    0    0  501  502 -0.00000000000E+00 -0.00000000000E+00 -0.39841514799E+01  0.39841514799E+01  0.00000000000E+00 0. -1.
         25    1    1    2    0    0  0.00000000000E+00  0.00000000000E+00  0.97646300766E+03  0.98443131062E+03  0.12500000000E+03 0.  0.
<mgrwt>
<rscale>  0 0.12500000E+03</rscale>
<asrwt>0</asrwt>
<pdfrwt beam="1">  1       21 0.15083783E+00 0.12500000E+03</pdfrwt>
<pdfrwt beam="2">  1       21 0.61294716E-03 0.12500000E+03</pdfrwt>
<totfact> 0.24011679E+06</totfact>
</mgrwt>
</event>
<event>
 3    1  0.1594457E-001  0.1250000E+03  0.7546771E-02  0.1235069E+00
         21   -1    0    0  502  501  0.00000000000E+00  0.00000000000E+00  0.39890011100E+03  0.39890011100E+03  0.00000000000E+00 0. -1.
         21   -1    0    0  501  502 -0.00000000000E+00 -0.00000000000E+00 -0.97925517999E+01  0.97925517999E+01  0.00000000000E+00 0. -1.
         25    1    1    2    0    0  0.00000000000E+00  0.00000000000E+00  0.38910755920E+03  0.40869266280E+03  0.12500000000E+03 0.  0.
<mgrwt>
<rscale>  0 0.12500000E+03</rscale>
<asrwt>0</asrwt>
<pdfrwt beam="1">  1       21 0.61369235E-01 0.12500000E+03</pdfrwt>
<pdfrwt beam="2">  1       21 0.15065467E-02 0.12500000E+03</pdfrwt>
<totfact> 0.47470076E+06</totfact>
</mgrwt>
</event>
<event>
 3    1  0.1594457E-001  0.1250000E+03  0.7546771E-02  0.1235069E+00
         21   -1    0    0  502  501  0.00000000000E+00  0.00000000000E+00  0.31799931580E+02  0.31799931580E+02  0.00000000000E+00 0. -1.
         21   -1    0    0  501  502 -0.00000000000E+00 -0.00000000000E+00 -0.12283831461E+03  0.12283831461E+03  0.00000000000E+00 0. -1.
         25    1    1    2    0    0  0.00000000000E+00  0.00000000000E+00 -0.91038383030E+02  0.15463824619E+03  0.12500000000E+03 0.  0.
<mgrwt>
<rscale>  0 0.12500000E+03</rscale>
<asrwt>0</asrwt>
<pdfrwt beam="1">  1       21 0.48922972E-02 0.12500000E+03</pdfrwt>
<pdfrwt beam="2">  1       21 0.18898202E-01 0.12500000E+03</pdfrwt>
<totfact> 0.70180648E+06</totfact>
</mgrwt>
</event>
<event>
 3    1  0.1594457E-001  0.1250000E+03  0.7546771E-02  0.1235069E+00
         21   -1    0    0  502  501  0.00000000000E+00  0.00000000000E+00  0.28815116799E+01  0.28815116799E+01  0.00000000000E+00 0. -1.
         21   -1    0    0  501  502 -0.00000000000E+00 -0.00000000000E+00 -0.13556252530E+04  0.13556252530E+04  0.00000000000E+00 0. -1.
         25    1    1    2    0    0  0.00000000000E+00  0.00000000000E+00 -0.13527437413E+04  0.13585067647E+04  0.12500000000E+03 0.  0.
<mgrwt>
<rscale>  0 0.12500000E+03</rscale>
<asrwt>0</asrwt>
<pdfrwt beam="1">  1       21 0.44331031E-03 0.12500000E+03</pdfrwt>
<pdfrwt beam="2">  1       21 0.20855735E+00 0.12500000E+03</pdfrwt>
<totfact> 0.16233500E+06</totfact>
</mgrwt>
</event>
<event>
 3    1  0.1594457E-001  0.1250000E+03  0.7546771E-02  0.1235069E+00
         21   -1    0    0  502  501  0.00000000000E+00  0.00000000000E+00  0.33656411952E+02  0.33656411952E+02  0.00000000000E+00 0. -1.
         21   -1    0    0  501  502 -0.00000000000E+00 -0.00000000000E+00 -0.11606257986E+03  0.11606257986E+03  0.00000000000E+00 0. -1.
         25    1    1    2    0    0  0.00000000000E+00  0.00000000000E+00 -0.82406167910E+02  0.14971899181E+03  0.12500000000E+03 0.  0.
<mgrwt>
<rscale>  0 0.12500000E+03</rscale>
<asrwt>0</asrwt>
<pdfrwt beam="1">  1       21 0.51779095E-02 0.12500000E+03</pdfrwt>
<pdfrwt beam="2">  1       21 0.17855781E-01 0.12500000E+03</pdfrwt>
<totfact> 0.70794518E+06</totfact>
</mgrwt>
</event>
<event>
 3    1  0.1594457E-001  0.1250000E+03  0.7546771E-02  0.1235069E+00
         21   -1    0    0  502  501  0.00000000000E+00  0.00000000000E+00  0.10615210927E+03  0.10615210927E+03  0.00000000000E+00 0. -1.
         21   -1    0    0  501  502 -0.00000000000E+00 -0.00000000000E+00 -0.36798609342E+02  0.36798609342E+02  0.00000000000E+00 0. -1.
         25    1    1    2    0    0  0.00000000000E+00  0.00000000000E+00  0.69353499932E+02  0.14295071862E+03  0.12500000000E+03 0.  0.
<mgrwt>
<rscale>  0 0.12500000E+03</rscale>
<asrwt>0</asrwt>
<pdfrwt beam="1">  1       21 0.16331094E-01 0.12500000E+03</pdfrwt>
<pdfrwt beam="2">  1       21 0.56613246E-02 0.12500000E+03</pdfrwt>
<totfact> 0.71656400E+06</totfact>
</mgrwt>
</event>
<event>
 3    1  0.1594457E-001  0.1250000E+03  0.7546771E-02  0.1235069E+00
         21   -1    0    0  502  501  0.00000000000E+00  0.00000000000E+00  0.32940249899E+03  0.32940249899E+03  0.00000000000E+00 0.  1.
         21   -1    0    0  501  502 -0.00000000000E+00 -0.00000000000E+00 -0.11858592488E+02  0.11858592488E+02  0.00000000000E+00 0.  1.
         25    1    1    2    0    0  0.00000000000E+00  0.00000000000E+00  0.31754390651E+03  0.34126109148E+03  0.12500000000E+03 0.  0.
<mgrwt>
<rscale>  0 0.12500000E+03</rscale>
<asrwt>0</asrwt>
<pdfrwt beam="1">  1       21 0.50677301E-01 0.12500000E+03</pdfrwt>
<pdfrwt beam="2">  1       21 0.18243991E-02 0.12500000E+03</pdfrwt>
<totfact> 0.52190375E+06</totfact>
</mgrwt>
</event>
<event>
 3    1  0.1594457E-001  0.1250000E+03  0.7546771E-02  0.1235069E+00
         21   -1    0    0  502  501  0.00000000000E+00  0.00000000000E+00  0.15882495338E+03  0.15882495338E+03  0.00000000000E+00 0.  1.
         21   -1    0    0  501  502 -0.00000000000E+00 -0.00000000000E+00 -0.24594686898E+02  0.24594686898E+02  0.00000000000E+00 0.  1.
         25    1    1    2    0    0  0.00000000000E+00  0.00000000000E+00  0.13423026648E+03  0.18341964028E+03  0.12500000000E+03 0.  0.
<mgrwt>
<rscale>  0 0.12500000E+03</rscale>
<asrwt>0</asrwt>
<pdfrwt beam="1">  1       21 0.24434608E-01 0.12500000E+03</pdfrwt>
<pdfrwt beam="2">  1       21 0.37837981E-02 0.12500000E+03</pdfrwt>
<totfact> 0.66761396E+06</totfact>
</mgrwt>
</event>
<event>
 3    1  0.1594457E-001  0.1250000E+03  0.7546771E-02  0.1235069E+00
         21   -1    0    0  502  501  0.00000000000E+00  0.00000000000E+00  0.89628408708E+02  0.89628408708E+02  0.00000000000E+00 0.  1.
         21   -1    0    0  501  502 -0.00000000000E+00 -0.00000000000E+00 -0.43582721777E+02  0.43582721777E+02  0.00000000000E+00 0.  1.
         25    1    1    2    0    0  0.00000000000E+00  0.00000000000E+00  0.46045686931E+02  0.13321113048E+03  0.12500000000E+03 0.  0.
<mgrwt>
<rscale>  0 0.12500000E+03</rscale>
<asrwt>0</asrwt>
<pdfrwt beam="1">  1       21 0.13788986E-01 0.12500000E+03</pdfrwt>
<pdfrwt beam="2">  1       21 0.67050342E-02 0.12500000E+03</pdfrwt>
<totfact> 0.72934218E+06</totfact>
</mgrwt>
</event>
<event>
 3    1  0.1594457E-001  0.1250000E+03  0.7546771E-02  0.1235069E+00
         21   -1    0    0  502  501  0.00000000000E+00  0.00000000000E+00  0.10903211366E+03  0.10903211366E+03  0.00000000000E+00 0.  1.
         21   -1    0    0  501  502 -0.00000000000E+00 -0.00000000000E+00 -0.35826600704E+02  0.35826600704E+02  0.00000000000E+00 0.  1.
         25    1    1    2    0    0  0.00000000000E+00  0.00000000000E+00  0.73205512956E+02  0.14485871436E+03  0.12500000000E+03 0.  0.
<mgrwt>
<rscale>  0 0.12500000E+03</rscale>
<asrwt>0</asrwt>
<pdfrwt beam="1">  1       21 0.16774171E-01 0.12500000E+03</pdfrwt>
<pdfrwt beam="2">  1       21 0.55117848E-02 0.12500000E+03</pdfrwt>
<totfact> 0.71411184E+06</totfact>
</mgrwt>
</event>
<event>
 3    1  0.1594457E-001  0.1250000E+03  0.7546771E-02  0.1235069E+00
         21   -1    0    0  502  501  0.00000000000E+00  0.00000000000E+00  0.23141163579E+01  0.23141163579E+01  0.00000000000E+00 0. -1.
         21   -1    0    0  501  502 -0.00000000000E+00 -0.00000000000E+00 -0.16880093288E+04  0.16880093288E+04  0.00000000000E+00 0. -1.
         25    1    1    2    0    0  0.00000000000E+00  0.00000000000E+00 -0.16856952124E+04  0.16903234451E+04  0.12500000000E+03 0.  0.
<mgrwt>
<rscale>  0 0.12500000E+03</rscale>
<asrwt>0</asrwt>
<pdfrwt beam="1">  1       21 0.35601730E-03 0.12500000E+03</pdfrwt>
<pdfrwt beam="2">  1       21 0.25969418E+00 0.12500000E+03</pdfrwt>
<totfact> 0.11391074E+06</totfact>
</mgrwt>
</event>
<event>
 3    1  0.1594457E-001  0.1250000E+03  0.7546771E-02  0.1235069E+00
         21   -1    0    0  502  501  0.00000000000E+00  0.00000000000E+00  0.38667450647E+02  0.38667450647E+02  0.00000000000E+00 0.  1.
         21   -1    0    0  501  502 -0.00000000000E+00 -0.00000000000E+00 -0.10102165865E+03  0.10102165865E+03  0.00000000000E+00 0.  1.
         25    1    1    2    0    0  0.00000000000E+00  0.00000000000E+00 -0.62354208000E+02  0.13968910929E+03  0.12500000000E+03 0.  0.
<mgrwt>
<rscale>  0 0.12500000E+03</rscale>
<asrwt>0</asrwt>
<pdfrwt beam="1">  1       21 0.59488386E-02 0.12500000E+03</pdfrwt>
<pdfrwt beam="2">  1       21 0.15541793E-01 0.12500000E+03</pdfrwt>
<totfact> 0.72079920E+06</totfact>
</mgrwt>
</event>
<event>
 3    1  0.1594457E-001  0.1250000E+03  0.7546771E-02  0.1235069E+00
         21   -1    0    0  502  501  0.00000000000E+00  0.00000000000E+00  0.18672744548E+03  0.18672744548E+03  0.00000000000E+00 0. -1.
         21   -1    0    0  501  502 -0.00000000000E+00 -0.00000000000E+00 -0.20919527871E+02  0.20919527871E+02  0.00000000000E+00 0. -1.
         25    1    1    2    0    0  0.00000000000E+00  0.00000000000E+00  0.16580791761E+03  0.20764697335E+03  0.12500000000E+03 0.  0.
<mgrwt>
<rscale>  0 0.12500000E+03</rscale>
<asrwt>0</asrwt>
<pdfrwt beam="1">  1       21 0.28727298E-01 0.12500000E+03</pdfrwt>
<pdfrwt beam="2">  1       21 0.32183890E-02 0.12500000E+03</pdfrwt>
<totfact> 0.64107955E+06</totfact>
</mgrwt>
</event>
<event>
 3    1  0.1594457E-001  0.1250000E+03  0.7546771E-02  0.1235069E+00
         21   -1    0    0  502  501  0.00000000000E+00  0.00000000000E+00  0.10171987505E+04  0.10171987505E+04  0.00000000000E+00 0.  1.
         21   -1    0    0  501  502 -0.00000000000E+00 -0.00000000000E+00 -0.38402033017E+01  0.38402033017E+01  0.00000000000E+00 0.  1.
         25    1    1    2    0    0  0.00000000000E+00  0.00000000000E+00  0.10133585472E+04  0.10210389538E+04  0.12500000000E+03 0.  0.
<mgrwt>
<rscale>  0 0.12500000E+03</rscale>
<asrwt>0</asrwt>
<pdfrwt beam="1">  1       21 0.15649190E+00 0.12500000E+03</pdfrwt>
<pdfrwt beam="2">  1       21 0.59080131E-03 0.12500000E+03</pdfrwt>
<totfact> 0.23097926E+06</totfact>
</mgrwt>
</event>
<event>
 3    1  0.1594457E-001  0.1250000E+03  0.7546771E-02  0.1235069E+00
         21   -1    0    0  502  501  0.00000000000E+00  0.00000000000E+00  0.53393961776E+02  0.53393961776E+02  0.00000000000E+00 0.  1.
         21   -1    0    0  501  502 -0.00000000000E+00 -0.00000000000E+00 -0.73159021546E+02  0.73159021546E+02  0.00000000000E+00 0.  1.
         25    1    1    2    0    0  0.00000000000E+00  0.00000000000E+00 -0.19765059770E+02  0.12655298332E+03  0.12500000000E+03 0.  0.
<mgrwt>
<rscale>  0 0.12500000E+03</rscale>
<asrwt>0</asrwt>
<pdfrwt beam="1">  1       21 0.82144557E-02 0.12500000E+03</pdfrwt>
<pdfrwt beam="2">  1       21 0.11255234E-01 0.12500000E+03</pdfrwt>
<totfact> 0.73830125E+06</totfact>
</mgrwt>
</event>
<event>
 3    1  0.1594457E-001  0.1250000E+03  0.7546771E-02  0.1235069E+00
         21   -1    0    0  502  501  0.00000000000E+00  0.00000000000E+00  0.86293221131E+02  0.86293221131E+02  0.00000000000E+00 0. -1.
         21   -1    0    0  501  502 -0.00000000000E+00 -0.00000000000E+00 -0.45267171034E+02  0.45267171034E+02  0.00000000000E+00 0. -1.
         25    1    1    2    0    0  0.00000000000E+00  0.00000000000E+00  0.41026050098E+02  0.13156039217E+03  0.12500000000E+03 0.  0.
<mgrwt>
<rscale>  0 0.12500000E+03</rscale>
<asrwt>0</asrwt>
<pdfrwt beam="1">  1       21 0.13275880E-01 0.12500000E+03</pdfrwt>
<pdfrwt beam="2">  1       21 0.69641802E-02 0.12500000E+03</pdfrwt>
<totfact> 0.73155254E+06</totfact>
</mgrwt>
</event>
<event>
 3    1  0.1594457E-001  0.1250000E+03  0.7546771E-02  0.1235069E+00
         21   -1    0    0  502  501  0.00000000000E+00  0.00000000000E+00  0.29120710552E+03  0.29120710552E+03  0.00000000000E+00 0.  1.
         21   -1    0    0  501  502 -0.00000000000E+00 -0.00000000000E+00 -0.13413992742E+02  0.13413992742E+02  0.00000000000E+00 0.  1.
         25    1    1    2    0    0  0.00000000000E+00  0.00000000000E+00  0.27779311278E+03  0.30462109827E+03  0.12500000000E+03 0.  0.
<mgrwt>
<rscale>  0 0.12500000E+03</rscale>
<asrwt>0</asrwt>
<pdfrwt beam="1">  1       21 0.44801088E-01 0.12500000E+03</pdfrwt>
<pdfrwt beam="2">  1       21 0.20636914E-02 0.12500000E+03</pdfrwt>
<totfact> 0.55074318E+06</totfact>
</mgrwt>
</event>
<event>
 3    1  0.1594457E-001  0.1250000E+03  0.7546771E-02  0.1235069E+00
         21   -1    0    0  502  501  0.00000000000E+00  0.00000000000E+00  0.28572879491E+03  0.28572879491E+03  0.00000000000E+00 0. -1.
         21   -1    0    0  501  502 -0.00000000000E+00 -0.00000000000E+00 -0.13671180747E+02  0.13671180747E+02  0.00000000000E+00 0. -1.
         25    1    1    2    0    0  0.00000000000E+00  0.00000000000E+00  0.27205761417E+03  0.29939997566E+03  0.12500000000E+03 0.  0.
<mgrwt>
<rscale>  0 0.12500000E+03</rscale>
<asrwt>0</asrwt>
<pdfrwt beam="1">  1       21 0.43958272E-01 0.12500000E+03</pdfrwt>
<pdfrwt beam="2">  1       21 0.21032588E-02 0.12500000E+03</pdfrwt>
<totfact> 0.55506077E+06</totfact>
</mgrwt>
</event>
<event>
 3    1  0.1594457E-001  0.1250000E+03  0.7546771E-02  0.1235069E+00
         21   -1    0    0  502  501  0.00000000000E+00  0.00000000000E+00  0.33125180205E+02  0.33125180205E+02  0.00000000000E+00 0. -1.
         21   -1    0    0  501  502 -0.00000000000E+00 -0.00000000000E+00 -0.11792388678E+03  0.11792388678E+03  0.00000000000E+00 0. -1.
         25    1    1    2    0    0  0.00000000000E+00  0.00000000000E+00 -0.84798706572E+02  0.15104906698E+03  0.12500000000E+03 0.  0.
<mgrwt>
<rscale>  0 0.12500000E+03</rscale>
<asrwt>0</asrwt>
<pdfrwt beam="1">  1       21 0.50961815E-02 0.12500000E+03</pdfrwt>
<pdfrwt beam="2">  1       21 0.18142137E-01 0.12500000E+03</pdfrwt>
<totfact> 0.70627667E+06</totfact>
</mgrwt>
</event>
<event>
 3    1  0.1594457E-001  0.1250000E+03  0.7546771E-02  0.1235069E+00
         21   -1    0    0  502  501  0.00000000000E+00  0.00000000000E+00  0.13008879311E+03  0.13008879311E+03  0.00000000000E+00 0.  1.
         21   -1    0    0  501  502 -0.00000000000E+00 -0.00000000000E+00 -0.30027567377E+02  0.30027567377E+02  0.00000000000E+00 0.  1.
         25    1    1    2    0    0  0.00000000000E+00  0.00000000000E+00  0.10006122573E+03  0.16011636048E+03  0.12500000000E+03 0.  0.
<mgrwt>
<rscale>  0 0.12500000E+03</rscale>
<asrwt>0</asrwt>
<pdfrwt beam="1">  1       21 0.20013660E-01 0.12500000E+03</pdfrwt>
<pdfrwt beam="2">  1       21 0.46196258E-02 0.12500000E+03</pdfrwt>
<totfact> 0.69505281E+06</totfact>
</mgrwt>
</event>
<event>
 3    1  0.1594457E-001  0.1250000E+03  0.7546771E-02  0.1235069E+00
         21   -1    0    0  502  501  0.00000000000E+00  0.00000000000E+00  0.75555304489E+02  0.75555304489E+02  0.00000000000E+00 0.  1.
         21   -1    0    0  501  502 -0.00000000000E+00 -0.00000000000E+00 -0.51700539445E+02  0.51700539445E+02  0.00000000000E+00 0.  1.
         25    1    1    2    0    0  0.00000000000E+00  0.00000000000E+00  0.23854765045E+02  0.12725584393E+03  0.12500000000E+03 0.  0.
<mgrwt>
<rscale>  0 0.12500000E+03</rscale>
<asrwt>0</asrwt>
<pdfrwt beam="1">  1       21 0.11623893E-01 0.12500000E+03</pdfrwt>
<pdfrwt beam="2">  1       21 0.79539291E-02 0.12500000E+03</pdfrwt>
<totfact> 0.73734348E+06</totfact>
</mgrwt>
</event>
<event>
 3    1  0.1594457E-001  0.1250000E+03  0.7546771E-02  0.1235069E+00
         21   -1    0    0  502  501  0.00000000000E+00  0.00000000000E+00  0.16583725392E+04  0.16583725392E+04  0.00000000000E+00 0. -1.
         21   -1    0    0  501  502 -0.00000000000E+00 -0.00000000000E+00 -0.23554719508E+01  0.23554719508E+01  0.00000000000E+00 0. -1.
         25    1    1    2    0    0  0.00000000000E+00  0.00000000000E+00  0.16560170672E+04  0.16607280111E+04  0.12500000000E+03 0.  0.
<mgrwt>
<rscale>  0 0.12500000E+03</rscale>
<asrwt>0</asrwt>
<pdfrwt beam="1">  1       21 0.25513330E+00 0.12500000E+03</pdfrwt>
<pdfrwt beam="2">  1       21 0.36238163E-03 0.12500000E+03</pdfrwt>
<totfact> 0.11768724E+06</totfact>
</mgrwt>
</event>
<event>
 3    1  0.1594457E-001  0.1250000E+03  0.7546771E-02  0.1235069E+00
         21   -1    0    0  502  501  0.00000000000E+00  0.00000000000E+00  0.61738231835E+02  0.61738231835E+02  0.00000000000E+00 0.  1.
         21   -1    0    0  501  502 -0.00000000000E+00 -0.00000000000E+00 -0.63271167377E+02  0.63271167377E+02  0.00000000000E+00 0.  1.
         25    1    1    2    0    0  0.00000000000E+00  0.00000000000E+00 -0.15329355421E+01  0.12500939921E+03  0.12500000000E+03 0.  0.
<mgrwt>
<rscale>  0 0.12500000E+03</rscale>
<asrwt>0</asrwt>
<pdfrwt beam="1">  1       21 0.94981895E-02 0.12500000E+03</pdfrwt>
<pdfrwt beam="2">  1       21 0.97340257E-02 0.12500000E+03</pdfrwt>
<totfact> 0.74042312E+06</totfact>
</mgrwt>
</event>
<event>
 3    1  0.1594457E-001  0.1250000E+03  0.7546771E-02  0.1235069E+00
         21   -1    0    0  502  501  0.00000000000E+00  0.00000000000E+00  0.72021187955E+01  0.72021187955E+01  0.00000000000E+00 0. -1.
         21   -1    0    0  501  502 -0.00000000000E+00 -0.00000000000E+00 -0.54237511362E+03  0.54237511362E+03  0.00000000000E+00 0. -1.
         25    1    1    2    0    0  0.00000000000E+00  0.00000000000E+00 -0.53517299482E+03  0.54957723242E+03  0.12500000000E+03 0.  0.
<mgrwt>
<rscale>  0 0.12500000E+03</rscale>
<asrwt>0</asrwt>
<pdfrwt beam="1">  1       21 0.11080183E-02 0.12500000E+03</pdfrwt>
<pdfrwt beam="2">  1       21 0.83442326E-01 0.12500000E+03</pdfrwt>
<totfact> 0.39476973E+06</totfact>
</mgrwt>
</event>
<event>
 3    1  0.1594457E-001  0.1250000E+03  0.7546771E-02  0.1235069E+00
         21   -1    0    0  502  501  0.00000000000E+00  0.00000000000E+00  0.26343265351E+02  0.26343265351E+02  0.00000000000E+00 0.  1.
         21   -1    0    0  501  502 -0.00000000000E+00 -0.00000000000E+00 -0.14828268052E+03  0.14828268052E+03  0.00000000000E+00 0.  1.
         25    1    1    2    0    0  0.00000000000E+00  0.00000000000E+00 -0.12193941517E+03  0.17462594588E+03  0.12500000000E+03 0.  0.
<mgrwt>
<rscale>  0 0.12500000E+03</rscale>
<asrwt>0</asrwt>
<pdfrwt beam="1">  1       21 0.40528100E-02 0.12500000E+03</pdfrwt>
<pdfrwt beam="2">  1       21 0.22812721E-01 0.12500000E+03</pdfrwt>
<totfact> 0.67773443E+06</totfact>
</mgrwt>
</event>
<event>
 3    1  0.1594457E-001  0.1250000E+03  0.7546771E-02  0.1235069E+00
         21   -1    0    0  502  501  0.00000000000E+00  0.00000000000E+00  0.81368237267E+02  0.81368237267E+02  0.00000000000E+00 0. -1.
         21   -1    0    0  501  502 -0.00000000000E+00 -0.00000000000E+00 -0.48007061861E+02  0.48007061861E+02  0.00000000000E+00 0. -1.
         25    1    1    2    0    0  0.00000000000E+00  0.00000000000E+00  0.33361175406E+02  0.12937529913E+03  0.12500000000E+03 0.  0.
<mgrwt>
<rscale>  0 0.12500000E+03</rscale>
<asrwt>0</asrwt>
<pdfrwt beam="1">  1       21 0.12518190E-01 0.12500000E+03</pdfrwt>
<pdfrwt beam="2">  1       21 0.73857018E-02 0.12500000E+03</pdfrwt>
<totfact> 0.73448527E+06</totfact>
</mgrwt>
</event>
<event>
 3    1  0.1594457E-001  0.1250000E+03  0.7546771E-02  0.1235069E+00
         21   -1    0    0  502  501  0.00000000000E+00  0.00000000000E+00  0.27542209781E+02  0.27542209781E+02  0.00000000000E+00 0. -1.
         21   -1    0    0  501  502 -0.00000000000E+00 -0.00000000000E+00 -0.14182776295E+03  0.14182776295E+03  0.00000000000E+00 0. -1.
         25    1    1    2    0    0  0.00000000000E+00  0.00000000000E+00 -0.11428555317E+03  0.16936997273E+03  0.12500000000E+03 0.  0.
<mgrwt>
<rscale>  0 0.12500000E+03</rscale>
<asrwt>0</asrwt>
<pdfrwt beam="1">  1       21 0.42372630E-02 0.12500000E+03</pdfrwt>
<pdfrwt beam="2">  1       21 0.21819656E-01 0.12500000E+03</pdfrwt>
<totfact> 0.68392324E+06</totfact>
</mgrwt>
</event>
<event>
 3    1  0.1594457E-001  0.1250000E+03  0.7546771E-02  0.1235069E+00
         21   -1    0    0  502  501  0.00000000000E+00  0.00000000000E+00  0.14827603367E+03  0.14827603367E+03  0.00000000000E+00 0. -1.
         21   -1    0    0  501  502 -0.00000000000E+00 -0.00000000000E+00 -0.26344446255E+02  0.26344446255E+02  0.00000000000E+00 0. -1.
         25    1    1    2    0    0  0.00000000000E+00  0.00000000000E+00  0.12193158742E+03  0.17462047993E+03  0.12500000000E+03 0.  0.
<mgrwt>
<rscale>  0 0.12500000E+03</rscale>
<asrwt>0</asrwt>
<pdfrwt beam="1">  1       21 0.22811697E-01 0.12500000E+03</pdfrwt>
<pdfrwt beam="2">  1       21 0.40529918E-02 0.12500000E+03</pdfrwt>
<totfact> 0.67774081E+06</totfact>
</mgrwt>
</event>
<event>
 3    1  0.1594457E-001  0.1250000E+03  0.7546771E-02  0.1235069E+00
         21   -1    0    0  502  501  0.00000000000E+00  0.00000000000E+00  0.95151514284E+02  0.95151514284E+02  0.00000000000E+00 0.  1.
         21   -1    0    0  501  502 -0.00000000000E+00 -0.00000000000E+00 -0.41052946234E+02  0.41052946234E+02  0.00000000000E+00 0.  1.
         25    1    1    2    0    0  0.00000000000E+00  0.00000000000E+00  0.54098568050E+02  0.13620446052E+03  0.12500000000E+03 0.  0.
<mgrwt>
<rscale>  0 0.12500000E+03</rscale>
<asrwt>0</asrwt>
<pdfrwt beam="1">  1       21 0.14638694E-01 0.12500000E+03</pdfrwt>
<pdfrwt beam="2">  1       21 0.63158379E-02 0.12500000E+03</pdfrwt>
<totfact> 0.72537384E+06</totfact>
</mgrwt>
</event>
<event>
 3    1  0.1594457E-001  0.1250000E+03  0.7546771E-02  0.1235069E+00
         21   -1    0    0  502  501  0.00000000000E+00  0.00000000000E+00  0.26842807816E+03  0.26842807816E+03  0.00000000000E+00 0.  1.
         21   -1    0    0  501  502 -0.00000000000E+00 -0.00000000000E+00 -0.14552315193E+02  0.14552315193E+02  0.00000000000E+00 0.  1.
         25    1    1    2    0    0  0.00000000000E+00  0.00000000000E+00  0.25387576296E+03  0.28298039335E+03  0.12500000000E+03 0.  0.
<mgrwt>
<rscale>  0 0.12500000E+03</rscale>
<asrwt>0</asrwt>
<pdfrwt beam="1">  1       21 0.41296624E-01 0.12500000E+03</pdfrwt>
<pdfrwt beam="2">  1       21 0.22388179E-02 0.12500000E+03</pdfrwt>
<totfact> 0.56900910E+06</totfact>
</mgrwt>
</event>
<event>
 3    1  0.1594457E-001  0.1250000E+03  0.7546771E-02  0.1235069E+00
         21   -1    0    0  502  501  0.00000000000E+00  0.00000000000E+00  0.47284587707E+02  0.47284587707E+02  0.00000000000E+00 0. -1.
         21   -1    0    0  501  502 -0.00000000000E+00 -0.00000000000E+00 -0.82611484829E+02  0.82611484829E+02  0.00000000000E+00 0. -1.
         25    1    1    2    0    0  0.00000000000E+00  0.00000000000E+00 -0.35326897122E+02  0.12989607254E+03  0.12500000000E+03 0.  0.
<mgrwt>
<rscale>  0 0.12500000E+03</rscale>
<asrwt>0</asrwt>
<pdfrwt beam="1">  1       21 0.72745520E-02 0.12500000E+03</pdfrwt>
<pdfrwt beam="2">  1       21 0.12709459E-01 0.12500000E+03</pdfrwt>
<totfact> 0.73378808E+06</totfact>
</mgrwt>
</event>
<event>
 3    1  0.1594457E-001  0.1250000E+03  0.7546771E-02  0.1235069E+00
         21   -1    0    0  502  501  0.00000000000E+00  0.00000000000E+00  0.25630648458E+03  0.25630648458E+03  0.00000000000E+00 0. -1.
         21   -1    0    0  501  502 -0.00000000000E+00 -0.00000000000E+00 -0.15240543002E+02  0.15240543002E+02  0.00000000000E+00 0. -1.
         25    1    1    2    0    0  0.00000000000E+00  0.00000000000E+00  0.24106594157E+03  0.27154702758E+03  0.12500000000E+03 0.  0.
<mgrwt>
<rscale>  0 0.12500000E+03</rscale>
<asrwt>0</asrwt>
<pdfrwt beam="1">  1       21 0.39431764E-01 0.12500000E+03</pdfrwt>
<pdfrwt beam="2">  1       21 0.23446991E-02 0.12500000E+03</pdfrwt>
<totfact> 0.57906815E+06</totfact>
</mgrwt>
</event>
<event>
 3    1  0.1594457E-001  0.1250000E+03  0.7546771E-02  0.1235069E+00
         21   -1    0    0  502  501  0.00000000000E+00  0.00000000000E+00  0.25815580504E+03  0.25815580504E+03  0.00000000000E+00 0. -1.
         21   -1    0    0  501  502 -0.00000000000E+00 -0.00000000000E+00 -0.15131366112E+02  0.15131366112E+02  0.00000000000E+00 0. -1.
         25    1    1    2    0    0  0.00000000000E+00  0.00000000000E+00  0.24302443893E+03  0.27328717115E+03  0.12500000000E+03 0.  0.
<mgrwt>
<rscale>  0 0.12500000E+03</rscale>
<asrwt>0</asrwt>
<pdfrwt beam="1">  1       21 0.39716275E-01 0.12500000E+03</pdfrwt>
<pdfrwt beam="2">  1       21 0.23279027E-02 0.12500000E+03</pdfrwt>
<totfact> 0.57751835E+06</totfact>
</mgrwt>
</event>
<event>
 3    1  0.1594457E-001  0.1250000E+03  0.7546771E-02  0.1235069E+00
         21   -1    0    0  502  501  0.00000000000E+00  0.00000000000E+00  0.19599743750E+02  0.19599743750E+02  0.00000000000E+00 0.  1.
         21   -1    0    0  501  502 -0.00000000000E+00 -0.00000000000E+00 -0.19930107504E+03  0.19930107504E+03  0.00000000000E+00 0.  1.
         25    1    1    2    0    0  0.00000000000E+00  0.00000000000E+00 -0.17970133129E+03  0.21890081879E+03  0.12500000000E+03 0.  0.
<mgrwt>
<rscale>  0 0.12500000E+03</rscale>
<asrwt>0</asrwt>
<pdfrwt beam="1">  1       21 0.30153452E-02 0.12500000E+03</pdfrwt>
<pdfrwt beam="2">  1       21 0.30661704E-01 0.12500000E+03</pdfrwt>
<totfact> 0.62935063E+06</totfact>
</mgrwt>
</event>
<event>
 3    1  0.1594457E-001  0.1250000E+03  0.7546771E-02  0.1235069E+00
         21   -1    0    0  502  501  0.00000000000E+00  0.00000000000E+00  0.31644623910E+02  0.31644623910E+02  0.00000000000E+00 0.  1.
         21   -1    0    0  501  502 -0.00000000000E+00 -0.00000000000E+00 -0.12344118897E+03  0.12344118897E+03  0.00000000000E+00 0.  1.
         25    1    1    2    0    0  0.00000000000E+00  0.00000000000E+00 -0.91796565063E+02  0.15508581288E+03  0.12500000000E+03 0.  0.
<mgrwt>
<rscale>  0 0.12500000E+03</rscale>
<asrwt>0</asrwt>
<pdfrwt beam="1">  1       21 0.48684037E-02 0.12500000E+03</pdfrwt>
<pdfrwt beam="2">  1       21 0.18990952E-01 0.12500000E+03</pdfrwt>
<totfact> 0.70124995E+06</totfact>
</mgrwt>
</event>
<event>
 3    1  0.1594457E-001  0.1250000E+03  0.7546771E-02  0.1235069E+00
         21   -1    0    0  502  501  0.00000000000E+00  0.00000000000E+00  0.52555742049E+03  0.52555742049E+03  0.00000000000E+00 0. -1.
         21   -1    0    0  501  502 -0.00000000000E+00 -0.00000000000E+00 -0.74325846191E+01  0.74325846191E+01  0.00000000000E+00 0. -1.
         25    1    1    2    0    0  0.00000000000E+00  0.00000000000E+00  0.51812483588E+03  0.53299000511E+03  0.12500000000E+03 0.  0.
<mgrwt>
<rscale>  0 0.12500000E+03</rscale>
<asrwt>0</asrwt>
<pdfrwt beam="1">  1       21 0.80854959E-01 0.12500000E+03</pdfrwt>
<pdfrwt beam="2">  1       21 0.11434750E-02 0.12500000E+03</pdfrwt>
<totfact> 0.40309669E+06</totfact>
</mgrwt>
</event>
<event>
 3    1  0.1594457E-001  0.1250000E+03  0.7546771E-02  0.1235069E+00
         21   -1    0    0  502  501  0.00000000000E+00  0.00000000000E+00  0.39401891239E+02  0.39401891239E+02  0.00000000000E+00 0.  1.
         21   -1    0    0  501  502 -0.00000000000E+00 -0.00000000000E+00 -0.99138642263E+02  0.99138642263E+02  0.00000000000E+00 0.  1.
         25    1    1    2    0    0  0.00000000000E+00  0.00000000000E+00 -0.59736751024E+02  0.13854053350E+03  0.12500000000E+03 0.  0.
<mgrwt>
<rscale>  0 0.12500000E+03</rscale>
<asrwt>0</asrwt>
<pdfrwt beam="1">  1       21 0.60618294E-02 0.12500000E+03</pdfrwt>
<pdfrwt beam="2">  1       21 0.15252099E-01 0.12500000E+03</pdfrwt>
<totfact> 0.72230416E+06</totfact>
</mgrwt>
</event>
<event>
 3    1  0.1594457E-001  0.1250000E+03  0.7546771E-02  0.1235069E+00
         21   -1    0    0  502  501  0.00000000000E+00  0.00000000000E+00  0.29981934544E+02  0.29981934544E+02  0.00000000000E+00 0.  1.
         21   -1    0    0  501  502 -0.00000000000E+00 -0.00000000000E+00 -0.13028678968E+03  0.13028678968E+03  0.00000000000E+00 0.  1.
         25    1    1    2    0    0  0.00000000000E+00  0.00000000000E+00 -0.10030485513E+03  0.16026872422E+03  0.12500000000E+03 0.  0.
<mgrwt>
<rscale>  0 0.12500000E+03</rscale>
<asrwt>0</asrwt>
<pdfrwt beam="1">  1       21 0.46126054E-02 0.12500000E+03</pdfrwt>
<pdfrwt beam="2">  1       21 0.20044121E-01 0.12500000E+03</pdfrwt>
<totfact> 0.69486676E+06</totfact>
</mgrwt>
</event>
<event>
 3    1  0.1594457E-001  0.1250000E+03  0.7546771E-02  0.1235069E+00
         21   -1    0    0  502  501  0.00000000000E+00  0.00000000000E+00  0.93879016663E+01  0.93879016663E+01  0.00000000000E+00 0. -1.
         21   -1    0    0  501  502 -0.00000000000E+00 -0.00000000000E+00 -0.41609404730E+03  0.41609404730E+03  0.00000000000E+00 0. -1.
         25    1    1    2    0    0  0.00000000000E+00  0.00000000000E+00 -0.40670614564E+03  0.42548194897E+03  0.12500000000E+03 0.  0.
<mgrwt>
<rscale>  0 0.12500000E+03</rscale>
<asrwt>0</asrwt>
<pdfrwt beam="1">  1       21 0.14442926E-02 0.12500000E+03</pdfrwt>
<pdfrwt beam="2">  1       21 0.64014467E-01 0.12500000E+03</pdfrwt>
<totfact> 0.46395847E+06</totfact>
</mgrwt>
</event>
<event>
 3    1  0.1594457E-001  0.1250000E+03  0.7546771E-02  0.1235069E+00
         21   -1    0    0  502  501  0.00000000000E+00  0.00000000000E+00  0.23326886671E+02  0.23326886671E+02  0.00000000000E+00 0. -1.
         21   -1    0    0  501  502 -0.00000000000E+00 -0.00000000000E+00 -0.16745698023E+03  0.16745698023E+03  0.00000000000E+00 0. -1.
         25    1    1    2    0    0  0.00000000000E+00  0.00000000000E+00 -0.14413009355E+03  0.19078386690E+03  0.12500000000E+03 0.  0.
<mgrwt>
<rscale>  0 0.12500000E+03</rscale>
<asrwt>0</asrwt>
<pdfrwt beam="1">  1       21 0.35887517E-02 0.12500000E+03</pdfrwt>
<pdfrwt beam="2">  1       21 0.25762613E-01 0.12500000E+03</pdfrwt>
<totfact> 0.65935450E+06</totfact>
</mgrwt>
</event>
<event>
 3    1  0.1594457E-001  0.1250000E+03  0.7546771E-02  0.1235069E+00
         21   -1    0    0  502  501  0.00000000000E+00  0.00000000000E+00  0.52931319539E+02  0.52931319539E+02  0.00000000000E+00 0.  1.
         21   -1    0    0  501  502 -0.00000000000E+00 -0.00000000000E+00 -0.73798462499E+02  0.73798462499E+02  0.00000000000E+00 0.  1.
         25    1    1    2    0    0  0.00000000000E+00  0.00000000000E+00 -0.20867142961E+02  0.12672978204E+03  0.12500000000E+03 0.  0.
<mgrwt>
<rscale>  0 0.12500000E+03</rscale>
<asrwt>0</asrwt>
<pdfrwt beam="1">  1       21 0.81432799E-02 0.12500000E+03</pdfrwt>
<pdfrwt beam="2">  1       21 0.11353610E-01 0.12500000E+03</pdfrwt>
<totfact> 0.73805969E+06</totfact>
</mgrwt>
</event>
<event>
 3    1  0.1594457E-001  0.1250000E+03  0.7546771E-02  0.1235069E+00
         21   -1    0    0  502  501  0.00000000000E+00  0.00000000000E+00  0.36468132699E+02  0.36468132699E+02  0.00000000000E+00 0. -1.
         21   -1    0    0  501  502 -0.00000000000E+00 -0.00000000000E+00 -0.10711406674E+03  0.10711406674E+03  0.00000000000E+00 0. -1.
         25    1    1    2    0    0  0.00000000000E+00  0.00000000000E+00 -0.70645934045E+02  0.14358219944E+03  0.12500000000E+03 0.  0.
<mgrwt>
<rscale>  0 0.12500000E+03</rscale>
<asrwt>0</asrwt>
<pdfrwt beam="1">  1       21 0.56104819E-02 0.12500000E+03</pdfrwt>
<pdfrwt beam="2">  1       21 0.16479087E-01 0.12500000E+03</pdfrwt>
<totfact> 0.71575040E+06</totfact>
</mgrwt>
</event>
<event>
 3    1  0.1594457E-001  0.1250000E+03  0.7546771E-02  0.1235069E+00
         21   -1    0    0  502  501  0.00000000000E+00  0.00000000000E+00  0.18041340190E+03  0.18041340190E+03  0.00000000000E+00 0.  1.
         21   -1    0    0  501  502 -0.00000000000E+00 -0.00000000000E+00 -0.21651662010E+02  0.21651662010E+02  0.00000000000E+00 0.  1.
         25    1    1    2    0    0  0.00000000000E+00  0.00000000000E+00  0.15876173989E+03  0.20206506391E+03  0.12500000000E+03 0.  0.
<mgrwt>
<rscale>  0 0.12500000E+03</rscale>
<asrwt>0</asrwt>
<pdfrwt beam="1">  1       21 0.27755907E-01 0.12500000E+03</pdfrwt>
<pdfrwt beam="2">  1       21 0.33310251E-02 0.12500000E+03</pdfrwt>
<totfact> 0.64704174E+06</totfact>
</mgrwt>
</event>
<event>
 3    1  0.1594457E-001  0.1250000E+03  0.7546771E-02  0.1235069E+00
         21   -1    0    0  502  501  0.00000000000E+00  0.00000000000E+00  0.92911429568E+02  0.92911429568E+02  0.00000000000E+00 0.  1.
         21   -1    0    0  501  502 -0.00000000000E+00 -0.00000000000E+00 -0.42042728415E+02  0.42042728415E+02  0.00000000000E+00 0.  1.
         25    1    1    2    0    0  0.00000000000E+00  0.00000000000E+00  0.50868701153E+02  0.13495415798E+03  0.12500000000E+03 0.  0.
<mgrwt>
<rscale>  0 0.12500000E+03</rscale>
<asrwt>0</asrwt>
<pdfrwt beam="1">  1       21 0.14294066E-01 0.12500000E+03</pdfrwt>
<pdfrwt beam="2">  1       21 0.64681121E-02 0.12500000E+03</pdfrwt>
<totfact> 0.72702542E+06</totfact>
</mgrwt>
</event>
<event>
 3    1  0.1594457E-001  0.1250000E+03  0.7546771E-02  0.1235069E+00
         21   -1    0    0  502  501  0.00000000000E+00  0.00000000000E+00  0.27499046185E+02  0.27499046185E+02  0.00000000000E+00 0. -1.
         21   -1    0    0  501  502 -0.00000000000E+00 -0.00000000000E+00 -0.14205038145E+03  0.14205038145E+03  0.00000000000E+00 0. -1.
         25    1    1    2    0    0  0.00000000000E+00  0.00000000000E+00 -0.11455133526E+03  0.16954942763E+03  0.12500000000E+03 0.  0.
<mgrwt>
<rscale>  0 0.12500000E+03</rscale>
<asrwt>0</asrwt>
<pdfrwt beam="1">  1       21 0.42306225E-02 0.12500000E+03</pdfrwt>
<pdfrwt beam="2">  1       21 0.21853905E-01 0.12500000E+03</pdfrwt>
<totfact> 0.68371075E+06</totfact>
</mgrwt>
</event>
<event>
 3    1  0.1594457E-001  0.1250000E+03  0.7546771E-02  0.1235069E+00
         21   -1    0    0  502  501  0.00000000000E+00  0.00000000000E+00  0.63400133526E+03  0.63400133526E+03  0.00000000000E+00 0. -1.
         21   -1    0    0  501  502 -0.00000000000E+00 -0.00000000000E+00 -0.61612646263E+01  0.61612646263E+01  0.00000000000E+00 0. -1.
         25    1    1    2    0    0  0.00000000000E+00  0.00000000000E+00  0.62784007064E+03  0.64016259989E+03  0.12500000000E+03 0.  0.
<mgrwt>
<rscale>  0 0.12500000E+03</rscale>
<asrwt>0</asrwt>
<pdfrwt beam="1">  1       21 0.97538615E-01 0.12500000E+03</pdfrwt>
<pdfrwt beam="2">  1       21 0.94788737E-03 0.12500000E+03</pdfrwt>
<totfact> 0.35337016E+06</totfact>
</mgrwt>
</event>
<event>
 3    1  0.1594457E-001  0.1250000E+03  0.7546771E-02  0.1235069E+00
         21   -1    0    0  502  501  0.00000000000E+00  0.00000000000E+00  0.13030981504E+03  0.13030981504E+03  0.00000000000E+00 0. -1.
         21   -1    0    0  501  502 -0.00000000000E+00 -0.00000000000E+00 -0.29976636824E+02  0.29976636824E+02  0.00000000000E+00 0. -1.
         25    1    1    2    0    0  0.00000000000E+00  0.00000000000E+00  0.10033317821E+03  0.16028645186E+03  0.12500000000E+03 0.  0.
<mgrwt>
<rscale>  0 0.12500000E+03</rscale>
<asrwt>0</asrwt>
<pdfrwt beam="1">  1       21 0.20047664E-01 0.12500000E+03</pdfrwt>
<pdfrwt beam="2">  1       21 0.46117904E-02 0.12500000E+03</pdfrwt>
<totfact> 0.69484512E+06</totfact>
</mgrwt>
</event>
<event>
 3    1  0.1594457E-001  0.1250000E+03  0.7546771E-02  0.1235069E+00
         21   -1    0    0  502  501  0.00000000000E+00  0.00000000000E+00  0.12751224900E+02  0.12751224900E+02  0.00000000000E+00 0.  1.
         21   -1    0    0  501  502 -0.00000000000E+00 -0.00000000000E+00 -0.30634311845E+03  0.30634311845E+03  0.00000000000E+00 0.  1.
         25    1    1    2    0    0  0.00000000000E+00  0.00000000000E+00 -0.29359189355E+03  0.31909434335E+03  0.12500000000E+03 0.  0.
<mgrwt>
<rscale>  0 0.12500000E+03</rscale>
<asrwt>0</asrwt>
<pdfrwt beam="1">  1       21 0.19617271E-02 0.12500000E+03</pdfrwt>
<pdfrwt beam="2">  1       21 0.47129707E-01 0.12500000E+03</pdfrwt>
<totfact> 0.53905191E+06</totfact>
</mgrwt>
</event>
<event>
 3    1  0.1594457E-001  0.1250000E+03  0.7546771E-02  0.1235069E+00
         21   -1    0    0  502  501  0.00000000000E+00  0.00000000000E+00  0.10199396700E+03  0.10199396700E+03  0.00000000000E+00 0.  1.
         21   -1    0    0  501  502 -0.00000000000E+00 -0.00000000000E+00 -0.38298833892E+02  0.38298833892E+02  0.00000000000E+00 0.  1.
         25    1    1    2    0    0  0.00000000000E+00  0.00000000000E+00  0.63695133105E+02  0.14029280089E+03  0.12500000000E+03 0.  0.
<mgrwt>
<rscale>  0 0.12500000E+03</rscale>
<asrwt>0</asrwt>
<pdfrwt beam="1">  1       21 0.15691379E-01 0.12500000E+03</pdfrwt>
<pdfrwt beam="2">  1       21 0.58921283E-02 0.12500000E+03</pdfrwt>
<totfact> 0.72001107E+06</totfact>
</mgrwt>
</event>
<event>
 3    1  0.1594457E-001  0.1250000E+03  0.7546771E-02  0.1235069E+00
         21   -1    0    0  502  501  0.00000000000E+00  0.00000000000E+00  0.23038255060E+01  0.23038255060E+01  0.00000000000E+00 0. -1.
         21   -1    0    0  501  502 -0.00000000000E+00 -0.00000000000E+00 -0.16955494198E+04  0.16955494198E+04  0.00000000000E+00 0. -1.
         25    1    1    2    0    0  0.00000000000E+00  0.00000000000E+00 -0.16932455943E+04  0.16978532453E+04  0.12500000000E+03 0.  0.
<mgrwt>
<rscale>  0 0.12500000E+03</rscale>
<asrwt>0</asrwt>
<pdfrwt beam="1">  1       21 0.35443506E-03 0.12500000E+03</pdfrwt>
<pdfrwt beam="2">  1       21 0.26085348E+00 0.12500000E+03</pdfrwt>
<totfact> 0.11296593E+06</totfact>
</mgrwt>
</event>
<event>
 3    1  0.1594457E-001  0.1250000E+03  0.7546771E-02  0.1235069E+00
         21   -1    0    0  502  501  0.00000000000E+00  0.00000000000E+00  0.15025970757E+03  0.15025970757E+03  0.00000000000E+00 0. -1.
         21   -1    0    0  501  502 -0.00000000000E+00 -0.00000000000E+00 -0.25996656476E+02  0.25996656476E+02  0.00000000000E+00 0. -1.
         25    1    1    2    0    0  0.00000000000E+00  0.00000000000E+00  0.12426305110E+03  0.17625636405E+03  0.12500000000E+03 0.  0.
<mgrwt>
<rscale>  0 0.12500000E+03</rscale>
<asrwt>0</asrwt>
<pdfrwt beam="1">  1       21 0.23116878E-01 0.12500000E+03</pdfrwt>
<pdfrwt beam="2">  1       21 0.39994857E-02 0.12500000E+03</pdfrwt>
<totfact> 0.67583611E+06</totfact>
</mgrwt>
</event>
<event>
 3    1  0.1594457E-001  0.1250000E+03  0.7546771E-02  0.1235069E+00
         21   -1    0    0  502  501  0.00000000000E+00  0.00000000000E+00  0.13991503451E+03  0.13991503451E+03  0.00000000000E+00 0.  1.
         21   -1    0    0  501  502 -0.00000000000E+00 -0.00000000000E+00 -0.27918729489E+02  0.27918729489E+02  0.00000000000E+00 0.  1.
         25    1    1    2    0    0  0.00000000000E+00  0.00000000000E+00  0.11199630503E+03  0.16783376400E+03  0.12500000000E+03 0.  0.
<mgrwt>
<rscale>  0 0.12500000E+03</rscale>
<asrwt>0</asrwt>
<pdfrwt beam="1">  1       21 0.21525390E-01 0.12500000E+03</pdfrwt>
<pdfrwt beam="2">  1       21 0.42951892E-02 0.12500000E+03</pdfrwt>
<totfact> 0.68574738E+06</totfact>
</mgrwt>
</event>
<event>
 3    1  0.1594457E-001  0.1250000E+03  0.7546771E-02  0.1235069E+00
         21   -1    0    0  502  501  0.00000000000E+00  0.00000000000E+00  0.98276464842E+02  0.98276464842E+02  0.00000000000E+00 0.  1.
         21   -1    0    0  501  502 -0.00000000000E+00 -0.00000000000E+00 -0.39747563227E+02  0.39747563227E+02  0.00000000000E+00 0.  1.
         25    1    1    2    0    0  0.00000000000E+00  0.00000000000E+00  0.58528901616E+02  0.13802402807E+03  0.12500000000E+03 0.  0.
<mgrwt>
<rscale>  0 0.12500000E+03</rscale>
<asrwt>0</asrwt>
<pdfrwt beam="1">  1       21 0.15119456E-01 0.12500000E+03</pdfrwt>
<pdfrwt beam="2">  1       21 0.61150098E-02 0.12500000E+03</pdfrwt>
<totfact> 0.72298329E+06</totfact>
</mgrwt>
</event>
<event>
 3    1  0.1594457E-001  0.1250000E+03  0.7546771E-02  0.1235069E+00
         21   -1    0    0  502  501  0.00000000000E+00  0.00000000000E+00  0.26777776020E+02  0.26777776020E+02  0.00000000000E+00 0.  1.
         21   -1    0    0  501  502 -0.00000000000E+00 -0.00000000000E+00 -0.14587656559E+03  0.14587656559E+03  0.00000000000E+00 0.  1.
         25    1    1    2    0    0  0.00000000000E+00  0.00000000000E+00 -0.11909878957E+03  0.17265434161E+03  0.12500000000E+03 0.  0.
<mgrwt>
<rscale>  0 0.12500000E+03</rscale>
<asrwt>0</asrwt>
<pdfrwt beam="1">  1       21 0.41196578E-02 0.12500000E+03</pdfrwt>
<pdfrwt beam="2">  1       21 0.22442549E-01 0.12500000E+03</pdfrwt>
<totfact> 0.68004363E+06</totfact>
</mgrwt>
</event>
<event>
 3    1  0.1594457E-001  0.1250000E+03  0.7546771E-02  0.1235069E+00
         21   -1    0    0  502  501  0.00000000000E+00  0.00000000000E+00  0.45653799907E+03  0.45653799907E+03  0.00000000000E+00 0.  1.
         21   -1    0    0  501  502 -0.00000000000E+00 -0.00000000000E+00 -0.85562428713E+01  0.85562428713E+01  0.00000000000E+00 0.  1.
         25    1    1    2    0    0  0.00000000000E+00  0.00000000000E+00  0.44798175620E+03  0.46509424194E+03  0.12500000000E+03 0.  0.
<mgrwt>
<rscale>  0 0.12500000E+03</rscale>
<asrwt>0</asrwt>
<pdfrwt beam="1">  1       21 0.70236596E-01 0.12500000E+03</pdfrwt>
<pdfrwt beam="2">  1       21 0.13163454E-02 0.12500000E+03</pdfrwt>
<totfact> 0.44002633E+06</totfact>
</mgrwt>
</event>
<event>
 3    1  0.1594457E-001  0.1250000E+03  0.7546771E-02  0.1235069E+00
         21   -1    0    0  502  501  0.00000000000E+00  0.00000000000E+00  0.34558277234E+03  0.34558277234E+03  0.00000000000E+00 0.  1.
         21   -1    0    0  501  502 -0.00000000000E+00 -0.00000000000E+00 -0.11303370170E+02  0.11303370170E+02  0.00000000000E+00 0.  1.
         25    1    1    2    0    0  0.00000000000E+00  0.00000000000E+00  0.33427940217E+03  0.35688614251E+03  0.12500000000E+03 0.  0.
<mgrwt>
<rscale>  0 0.12500000E+03</rscale>
<asrwt>0</asrwt>
<pdfrwt beam="1">  1       21 0.53166572E-01 0.12500000E+03</pdfrwt>
<pdfrwt beam="2">  1       21 0.17389803E-02 0.12500000E+03</pdfrwt>
<totfact> 0.51033861E+06</totfact>
</mgrwt>
</event>
<event>
 3    1  0.1594457E-001  0.1250000E+03  0.7546771E-02  0.1235069E+00
         21   -1    0    0  502  501  0.00000000000E+00  0.00000000000E+00  0.21166720127E+02  0.21166720127E+02  0.00000000000E+00 0.  1.
         21   -1    0    0  501  502 -0.00000000000E+00 -0.00000000000E+00 -0.18454677798E+03  0.18454677798E+03  0.00000000000E+00 0.  1.
         25    1    1    2    0    0  0.00000000000E+00  0.00000000000E+00 -0.16338005786E+03  0.20571349811E+03  0.12500000000E+03 0.  0.
<mgrwt>
<rscale>  0 0.12500000E+03</rscale>
<asrwt>0</asrwt>
<pdfrwt beam="1">  1       21 0.32564185E-02 0.12500000E+03</pdfrwt>
<pdfrwt beam="2">  1       21 0.28391811E-01 0.12500000E+03</pdfrwt>
<totfact> 0.64313366E+06</totfact>
</mgrwt>
</event>
<event>
 3    1  0.1594457E-001  0.1250000E+03  0.7546771E-02  0.1235069E+00
         21   -1    0    0  502  501  0.00000000000E+00  0.00000000000E+00  0.16287899289E+03  0.16287899289E+03  0.00000000000E+00 0. -1.
         21   -1    0    0  501  502 -0.00000000000E+00 -0.00000000000E+00 -0.23982527953E+02  0.23982527953E+02  0.00000000000E+00 0. -1.
         25    1    1    2    0    0  0.00000000000E+00  0.00000000000E+00  0.13889646494E+03  0.18686152085E+03  0.12500000000E+03 0.  0.
<mgrwt>
<rscale>  0 0.12500000E+03</rscale>
<asrwt>0</asrwt>
<pdfrwt beam="1">  1       21 0.25058306E-01 0.12500000E+03</pdfrwt>
<pdfrwt beam="2">  1       21 0.36896198E-02 0.12500000E+03</pdfrwt>
<totfact> 0.66372988E+06</totfact>
</mgrwt>
</event>
<event>
 3    1  0.1594457E-001  0.1250000E+03  0.7546771E-02  0.1235069E+00
         21   -1    0    0  502  501  0.00000000000E+00  0.00000000000E+00  0.14416957736E+02  0.14416957736E+02  0.00000000000E+00 0. -1.
         21   -1    0    0  501  502 -0.00000000000E+00 -0.00000000000E+00 -0.27094828684E+03  0.27094828684E+03  0.00000000000E+00 0. -1.
         25    1    1    2    0    0  0.00000000000E+00  0.00000000000E+00 -0.25653132911E+03  0.28536524458E+03  0.12500000000E+03 0.  0.
<mgrwt>
<rscale>  0 0.12500000E+03</rscale>
<asrwt>0</asrwt>
<pdfrwt beam="1">  1       21 0.22179936E-02 0.12500000E+03</pdfrwt>
<pdfrwt beam="2">  1       21 0.41684349E-01 0.12500000E+03</pdfrwt>
<totfact> 0.56694741E+06</totfact>
</mgrwt>
</event>
<event>
 3    1  0.1594457E-001  0.1250000E+03  0.7546771E-02  0.1235069E+00
         21   -1    0    0  502  501  0.00000000000E+00  0.00000000000E+00  0.12786739402E+03  0.12786739402E+03  0.00000000000E+00 0.  1.
         21   -1    0    0  501  502 -0.00000000000E+00 -0.00000000000E+00 -0.30549226641E+02  0.30549226641E+02  0.00000000000E+00 0.  1.
         25    1    1    2    0    0  0.00000000000E+00  0.00000000000E+00  0.97318167380E+02  0.15841662066E+03  0.12500000000E+03 0.  0.
<mgrwt>
<rscale>  0 0.12500000E+03</rscale>
<asrwt>0</asrwt>
<pdfrwt beam="1">  1       21 0.19671906E-01 0.12500000E+03</pdfrwt>
<pdfrwt beam="2">  1       21 0.46998811E-02 0.12500000E+03</pdfrwt>
<totfact> 0.69713487E+06</totfact>
</mgrwt>
</event>
<event>
 3    1  0.1594457E-001  0.1250000E+03  0.7546771E-02  0.1235069E+00
         21   -1    0    0  502  501  0.00000000000E+00  0.00000000000E+00  0.35201521266E+03  0.35201521266E+03  0.00000000000E+00 0. -1.
         21   -1    0    0  501  502 -0.00000000000E+00 -0.00000000000E+00 -0.11096821556E+02  0.11096821556E+02  0.00000000000E+00 0. -1.
         25    1    1    2    0    0  0.00000000000E+00  0.00000000000E+00  0.34091839110E+03  0.36311203421E+03  0.12500000000E+03 0.  0.
<mgrwt>
<rscale>  0 0.12500000E+03</rscale>
<asrwt>0</asrwt>
<pdfrwt beam="1">  1       21 0.54156178E-01 0.12500000E+03</pdfrwt>
<pdfrwt beam="2">  1       21 0.17072036E-02 0.12500000E+03</pdfrwt>
<totfact> 0.50584415E+06</totfact>
</mgrwt>
</event>
<event>
 3    1  0.1594457E-001  0.1250000E+03  0.7546771E-02  0.1235069E+00
         21   -1    0    0  502  501  0.00000000000E+00  0.00000000000E+00  0.30536947542E+01  0.30536947542E+01  0.00000000000E+00 0.  1.
         21   -1    0    0  501  502 -0.00000000000E+00 -0.00000000000E+00 -0.12791881031E+04  0.12791881031E+04  0.00000000000E+00 0.  1.
         25    1    1    2    0    0  0.00000000000E+00  0.00000000000E+00 -0.12761344083E+04  0.12822417978E+04  0.12500000000E+03 0.  0.
<mgrwt>
<rscale>  0 0.12500000E+03</rscale>
<asrwt>0</asrwt>
<pdfrwt beam="1">  1       21 0.46979899E-03 0.12500000E+03</pdfrwt>
<pdfrwt beam="2">  1       21 0.19679826E+00 0.12500000E+03</pdfrwt>
<totfact> 0.17574233E+06</totfact>
</mgrwt>
</event>
<event>
 3    1  0.1594457E-001  0.1250000E+03  0.7546771E-02  0.1235069E+00
         21   -1    0    0  502  501  0.00000000000E+00  0.00000000000E+00  0.42974883275E+03  0.42974883275E+03  0.00000000000E+00 0. -1.
         21   -1    0    0  501  502 -0.00000000000E+00 -0.00000000000E+00 -0.90896116576E+01  0.90896116576E+01  0.00000000000E+00 0. -1.
         25    1    1    2    0    0  0.00000000000E+00  0.00000000000E+00  0.42065922109E+03  0.43883844441E+03  0.12500000000E+03 0.  0.
<mgrwt>
<rscale>  0 0.12500000E+03</rscale>
<asrwt>0</asrwt>
<pdfrwt beam="1">  1       21 0.66115189E-01 0.12500000E+03</pdfrwt>
<pdfrwt beam="2">  1       21 0.13984021E-02 0.12500000E+03</pdfrwt>
<totfact> 0.45567594E+06</totfact>
</mgrwt>
</event>
<event>
 3    1  0.1594457E-001  0.1250000E+03  0.7546771E-02  0.1235069E+00
         21   -1    0    0  502  501  0.00000000000E+00  0.00000000000E+00  0.10972798064E+03  0.10972798064E+03  0.00000000000E+00 0. -1.
         21   -1    0    0  501  502 -0.00000000000E+00 -0.00000000000E+00 -0.35599397502E+02  0.35599397502E+02  0.00000000000E+00 0. -1.
         25    1    1    2    0    0  0.00000000000E+00  0.00000000000E+00  0.74128583142E+02  0.14532737815E+03  0.12500000000E+03 0.  0.
<mgrwt>
<rscale>  0 0.12500000E+03</rscale>
<asrwt>0</asrwt>
<pdfrwt beam="1">  1       21 0.16881228E-01 0.12500000E+03</pdfrwt>
<pdfrwt beam="2">  1       21 0.54768304E-02 0.12500000E+03</pdfrwt>
<totfact> 0.71351229E+06</totfact>
</mgrwt>
</event>
<event>
 3    1  0.1594457E-001  0.1250000E+03  0.7546771E-02  0.1235069E+00
         21   -1    0    0  502  501  0.00000000000E+00  0.00000000000E+00  0.12035723593E+03  0.12035723593E+03  0.00000000000E+00 0.  1.
         21   -1    0    0  501  502 -0.00000000000E+00 -0.00000000000E+00 -0.32455464516E+02  0.32455464516E+02  0.00000000000E+00 0.  1.
         25    1    1    2    0    0  0.00000000000E+00  0.00000000000E+00  0.87901771414E+02  0.15281270045E+03  0.12500000000E+03 0.  0.
<mgrwt>
<rscale>  0 0.12500000E+03</rscale>
<asrwt>0</asrwt>
<pdfrwt beam="1">  1       21 0.18516498E-01 0.12500000E+03</pdfrwt>
<pdfrwt beam="2">  1       21 0.49931485E-02 0.12500000E+03</pdfrwt>
<totfact> 0.70407637E+06</totfact>
</mgrwt>
</event>
<event>
 3    1  0.1594457E-001  0.1250000E+03  0.7546771E-02  0.1235069E+00
         21   -1    0    0  502  501  0.00000000000E+00  0.00000000000E+00  0.24019673929E+03  0.24019673929E+03  0.00000000000E+00 0.  1.
         21   -1    0    0  501  502 -0.00000000000E+00 -0.00000000000E+00 -0.16262710358E+02  0.16262710358E+02  0.00000000000E+00 0.  1.
         25    1    1    2    0    0  0.00000000000E+00  0.00000000000E+00  0.22393402894E+03  0.25645944965E+03  0.12500000000E+03 0.  0.
<mgrwt>
<rscale>  0 0.12500000E+03</rscale>
<asrwt>0</asrwt>
<pdfrwt beam="1">  1       21 0.36953342E-01 0.12500000E+03</pdfrwt>
<pdfrwt beam="2">  1       21 0.25019556E-02 0.12500000E+03</pdfrwt>
<totfact> 0.59275317E+06</totfact>
</mgrwt>
</event>
<event>
 3    1  0.1594457E-001  0.1250000E+03  0.7546771E-02  0.1235069E+00
         21   -1    0    0  502  501  0.00000000000E+00  0.00000000000E+00  0.20820748057E+02  0.20820748057E+02  0.00000000000E+00 0.  1.
         21   -1    0    0  501  502 -0.00000000000E+00 -0.00000000000E+00 -0.18761333595E+03  0.18761333595E+03  0.00000000000E+00 0.  1.
         25    1    1    2    0    0  0.00000000000E+00  0.00000000000E+00 -0.16679258789E+03  0.20843408401E+03  0.12500000000E+03 0.  0.
<mgrwt>
<rscale>  0 0.12500000E+03</rscale>
<asrwt>0</asrwt>
<pdfrwt beam="1">  1       21 0.32031920E-02 0.12500000E+03</pdfrwt>
<pdfrwt beam="2">  1       21 0.28863591E-01 0.12500000E+03</pdfrwt>
<totfact> 0.64024665E+06</totfact>
</mgrwt>
</event>
<event>
 3    1  0.1594457E-001  0.1250000E+03  0.7546771E-02  0.1235069E+00
         21   -1    0    0  502  501  0.00000000000E+00  0.00000000000E+00  0.51450556382E+02  0.51450556382E+02  0.00000000000E+00 0. -1.
         21   -1    0    0  501  502 -0.00000000000E+00 -0.00000000000E+00 -0.75922405406E+02  0.75922405406E+02  0.00000000000E+00 0. -1.
         25    1    1    2    0    0  0.00000000000E+00  0.00000000000E+00 -0.24471849024E+02  0.12737296179E+03  0.12500000000E+03 0.  0.
<mgrwt>
<rscale>  0 0.12500000E+03</rscale>
<asrwt>0</asrwt>
<pdfrwt beam="1">  1       21 0.79154702E-02 0.12500000E+03</pdfrwt>
<pdfrwt beam="2">  1       21 0.11680370E-01 0.12500000E+03</pdfrwt>
<totfact> 0.73718448E+06</totfact>
</mgrwt>
</event>
<event>
 3    1  0.1594457E-001  0.1250000E+03  0.7546771E-02  0.1235069E+00
         21   -1    0    0  502  501  0.00000000000E+00  0.00000000000E+00  0.16343258643E+03  0.16343258643E+03  0.00000000000E+00 0. -1.
         21   -1    0    0  501  502 -0.00000000000E+00 -0.00000000000E+00 -0.23901292181E+02  0.23901292181E+02  0.00000000000E+00 0. -1.
         25    1    1    2    0    0  0.00000000000E+00  0.00000000000E+00  0.13953129425E+03  0.18733387861E+03  0.12500000000E+03 0.  0.
<mgrwt>
<rscale>  0 0.12500000E+03</rscale>
<asrwt>0</asrwt>
<pdfrwt beam="1">  1       21 0.25143474E-01 0.12500000E+03</pdfrwt>
<pdfrwt beam="2">  1       21 0.36771220E-02 0.12500000E+03</pdfrwt>
<totfact> 0.66320012E+06</totfact>
</mgrwt>
</event>
<event>
 3    1  0.1594457E-001  0.1250000E+03  0.7546771E-02  0.1235069E+00
         21   -1    0    0  502  501  0.00000000000E+00  0.00000000000E+00  0.38087186677E+02  0.38087186677E+02  0.00000000000E+00 0.  1.
         21   -1    0    0  501  502 -0.00000000000E+00 -0.00000000000E+00 -0.10256073868E+03  0.10256073868E+03  0.00000000000E+00 0.  1.
         25    1    1    2    0    0  0.00000000000E+00  0.00000000000E+00 -0.64473552007E+02  0.14064792536E+03  0.12500000000E+03 0.  0.
<mgrwt>
<rscale>  0 0.12500000E+03</rscale>
<asrwt>0</asrwt>
<pdfrwt beam="1">  1       21 0.58595672E-02 0.12500000E+03</pdfrwt>
<pdfrwt beam="2">  1       21 0.15778575E-01 0.12500000E+03</pdfrwt>
<totfact> 0.71954836E+06</totfact>
</mgrwt>
</event>
<event>
 3    1  0.1594457E-001  0.1250000E+03  0.7546771E-02  0.1235069E+00
         21   -1    0    0  502  501  0.00000000000E+00  0.00000000000E+00  0.31237445209E+03  0.31237445209E+03  0.00000000000E+00 0.  1.
         21   -1    0    0  501  502 -0.00000000000E+00 -0.00000000000E+00 -0.12505023935E+02  0.12505023935E+02  0.00000000000E+00 0.  1.
         25    1    1    2    0    0  0.00000000000E+00  0.00000000000E+00  0.29986942815E+03  0.32487947602E+03  0.12500000000E+03 0.  0.
<mgrwt>
<rscale>  0 0.12500000E+03</rscale>
<asrwt>0</asrwt>
<pdfrwt beam="1">  1       21 0.48057602E-01 0.12500000E+03</pdfrwt>
<pdfrwt beam="2">  1       21 0.19238501E-02 0.12500000E+03</pdfrwt>
<totfact> 0.53448923E+06</totfact>
</mgrwt>
</event>
<event>
 3    1  0.1594457E-001  0.1250000E+03  0.7546771E-02  0.1235069E+00
         21   -1    0    0  502  501  0.00000000000E+00  0.00000000000E+00  0.30033093728E+02  0.30033093728E+02  0.00000000000E+00 0.  1.
         21   -1    0    0  501  502 -0.00000000000E+00 -0.00000000000E+00 -0.13006485563E+03  0.13006485563E+03  0.00000000000E+00 0.  1.
         25    1    1    2    0    0  0.00000000000E+00  0.00000000000E+00 -0.10003176191E+03  0.16009794936E+03  0.12500000000E+03 0.  0.
<mgrwt>
<rscale>  0 0.12500000E+03</rscale>
<asrwt>0</asrwt>
<pdfrwt beam="1">  1       21 0.46204759E-02 0.12500000E+03</pdfrwt>
<pdfrwt beam="2">  1       21 0.20009978E-01 0.12500000E+03</pdfrwt>
<totfact> 0.69507529E+06</totfact>
</mgrwt>
</event>
<event>
 3    1  0.1594457E-001  0.1250000E+03  0.7546771E-02  0.1235069E+00
         21   -1    0    0  502  501  0.00000000000E+00  0.00000000000E+00  0.54252861112E+03  0.54252861112E+03  0.00000000000E+00 0. -1.
         21   -1    0    0  501  502 -0.00000000000E+00 -0.00000000000E+00 -0.72000811016E+01  0.72000811016E+01  0.00000000000E+00 0. -1.
         25    1    1    2    0    0  0.00000000000E+00  0.00000000000E+00  0.53532853002E+03  0.54972869222E+03  0.12500000000E+03 0.  0.
<mgrwt>
<rscale>  0 0.12500000E+03</rscale>
<asrwt>0</asrwt>
<pdfrwt beam="1">  1       21 0.83465908E-01 0.12500000E+03</pdfrwt>
<pdfrwt beam="2">  1       21 0.11077052E-02 0.12500000E+03</pdfrwt>
<totfact> 0.39469495E+06</totfact>
</mgrwt>
</event>
<event>
 3    1  0.1594457E-001  0.1250000E+03  0.7546771E-02  0.1235069E+00
         21   -1    0    0  502  501  0.00000000000E+00  0.00000000000E+00  0.10978127138E+02  0.10978127138E+02  0.00000000000E+00 0.  1.
         21   -1    0    0  501  502 -0.00000000000E+00 -0.00000000000E+00 -0.35582116611E+03  0.35582116611E+03  0.00000000000E+00 0.  1.
         25    1    1    2    0    0  0.00000000000E+00  0.00000000000E+00 -0.34484303897E+03  0.36679929324E+03  0.12500000000E+03 0.  0.
<mgrwt>
<rscale>  0 0.12500000E+03</rscale>
<asrwt>0</asrwt>
<pdfrwt beam="1">  1       21 0.16889424E-02 0.12500000E+03</pdfrwt>
<pdfrwt beam="2">  1       21 0.54741725E-01 0.12500000E+03</pdfrwt>
<totfact> 0.50321183E+06</totfact>
</mgrwt>
</event>
<event>
 3    1  0.1594457E-001  0.1250000E+03  0.7546771E-02  0.1235069E+00
         21   -1    0    0  502  501  0.00000000000E+00  0.00000000000E+00  0.25102569380E+02  0.25102569380E+02  0.00000000000E+00 0. -1.
         21   -1    0    0  501  502 -0.00000000000E+00 -0.00000000000E+00 -0.15561156075E+03  0.15561156075E+03  0.00000000000E+00 0. -1.
         25    1    1    2    0    0  0.00000000000E+00  0.00000000000E+00 -0.13050899137E+03  0.18071413013E+03  0.12500000000E+03 0.  0.
<mgrwt>
<rscale>  0 0.12500000E+03</rscale>
<asrwt>0</asrwt>
<pdfrwt beam="1">  1       21 0.38619339E-02 0.12500000E+03</pdfrwt>
<pdfrwt beam="2">  1       21 0.23940239E-01 0.12500000E+03</pdfrwt>
<totfact> 0.67069708E+06</totfact>
</mgrwt>
</event>
<event>
 3    1  0.1594457E-001  0.1250000E+03  0.7546771E-02  0.1235069E+00
         21   -1    0    0  502  501  0.00000000000E+00  0.00000000000E+00  0.22479544691E+02  0.22479544691E+02  0.00000000000E+00 0.  1.
         21   -1    0    0  501  502 -0.00000000000E+00 -0.00000000000E+00 -0.17376908891E+03  0.17376908891E+03  0.00000000000E+00 0.  1.
         25    1    1    2    0    0  0.00000000000E+00  0.00000000000E+00 -0.15128954422E+03  0.19624863360E+03  0.12500000000E+03 0.  0.
<mgrwt>
<rscale>  0 0.12500000E+03</rscale>
<asrwt>0</asrwt>
<pdfrwt beam="1">  1       21 0.34583916E-02 0.12500000E+03</pdfrwt>
<pdfrwt beam="2">  1       21 0.26733705E-01 0.12500000E+03</pdfrwt>
<totfact> 0.65334623E+06</totfact>
</mgrwt>
</event>
<event>
 3    1  0.1594457E-001  0.1250000E+03  0.7546771E-02  0.1235069E+00
         21   -1    0    0  502  501  0.00000000000E+00  0.00000000000E+00  0.19840251946E+02  0.19840251946E+02  0.00000000000E+00 0.  1.
         21   -1    0    0  501  502 -0.00000000000E+00 -0.00000000000E+00 -0.19688510059E+03  0.19688510059E+03  0.00000000000E+00 0.  1.
         25    1    1    2    0    0  0.00000000000E+00  0.00000000000E+00 -0.17704484864E+03  0.21672535253E+03  0.12500000000E+03 0.  0.
<mgrwt>
<rscale>  0 0.12500000E+03</rscale>
<asrwt>0</asrwt>
<pdfrwt beam="1">  1       21 0.30523465E-02 0.12500000E+03</pdfrwt>
<pdfrwt beam="2">  1       21 0.30290015E-01 0.12500000E+03</pdfrwt>
<totfact> 0.63158824E+06</totfact>
</mgrwt>
</event>
<event>
 3    1  0.1594457E-001  0.1250000E+03  0.7546771E-02  0.1235069E+00
         21   -1    0    0  502  501  0.00000000000E+00  0.00000000000E+00  0.81472863946E+02  0.81472863946E+02  0.00000000000E+00 0.  1.
         21   -1    0    0  501  502 -0.00000000000E+00 -0.00000000000E+00 -0.47945411647E+02  0.47945411647E+02  0.00000000000E+00 0.  1.
         25    1    1    2    0    0  0.00000000000E+00  0.00000000000E+00  0.33527452299E+02  0.12941827559E+03  0.12500000000E+03 0.  0.
<mgrwt>
<rscale>  0 0.12500000E+03</rscale>
<asrwt>0</asrwt>
<pdfrwt beam="1">  1       21 0.12534287E-01 0.12500000E+03</pdfrwt>
<pdfrwt beam="2">  1       21 0.73762172E-02 0.12500000E+03</pdfrwt>
<totfact> 0.73442767E+06</totfact>
</mgrwt>
</event>
<event>
 3    1  0.1594457E-001  0.1250000E+03  0.7546771E-02  0.1235069E+00
         21   -1    0    0  502  501  0.00000000000E+00  0.00000000000E+00  0.34826684376E+01  0.34826684376E+01  0.00000000000E+00 0. -1.
         21   -1    0    0  501  502 -0.00000000000E+00 -0.00000000000E+00 -0.11216255782E+04  0.11216255782E+04  0.00000000000E+00 0. -1.
         25    1    1    2    0    0  0.00000000000E+00  0.00000000000E+00 -0.11181429098E+04  0.11251082466E+04  0.12500000000E+03 0.  0.
<mgrwt>
<rscale>  0 0.12500000E+03</rscale>
<asrwt>0</asrwt>
<pdfrwt beam="1">  1       21 0.53579466E-03 0.12500000E+03</pdfrwt>
<pdfrwt beam="2">  1       21 0.17255794E+00 0.12500000E+03</pdfrwt>
<totfact> 0.20701462E+06</totfact>
</mgrwt>
</event>
<event>
 3    1  0.1594457E-001  0.1250000E+03  0.7546771E-02  0.1235069E+00
         21   -1    0    0  502  501  0.00000000000E+00  0.00000000000E+00  0.49154990589E+01  0.49154990589E+01  0.00000000000E+00 0. -1.
         21   -1    0    0  501  502 -0.00000000000E+00 -0.00000000000E+00 -0.79468024573E+03  0.79468024573E+03  0.00000000000E+00 0. -1.
         25    1    1    2    0    0  0.00000000000E+00  0.00000000000E+00 -0.78976474667E+03  0.79959574479E+03  0.12500000000E+03 0.  0.
<mgrwt>
<rscale>  0 0.12500000E+03</rscale>
<asrwt>0</asrwt>
<pdfrwt beam="1">  1       21 0.75623003E-03 0.12500000E+03</pdfrwt>
<pdfrwt beam="2">  1       21 0.12225860E+00 0.12500000E+03</pdfrwt>
<totfact> 0.29376193E+06</totfact>
</mgrwt>
</event>
<event>
 3    1  0.1594457E-001  0.1250000E+03  0.7546771E-02  0.1235069E+00
         21   -1    0    0  502  501  0.00000000000E+00  0.00000000000E+00  0.36794923066E+02  0.36794923066E+02  0.00000000000E+00 0. -1.
         21   -1    0    0  501  502 -0.00000000000E+00 -0.00000000000E+00 -0.10616274406E+03  0.10616274406E+03  0.00000000000E+00 0. -1.
         25    1    1    2    0    0  0.00000000000E+00  0.00000000000E+00 -0.69367820990E+02  0.14295766712E+03  0.12500000000E+03 0.  0.
<mgrwt>
<rscale>  0 0.12500000E+03</rscale>
<asrwt>0</asrwt>
<pdfrwt beam="1">  1       21 0.56607574E-02 0.12500000E+03</pdfrwt>
<pdfrwt beam="2">  1       21 0.16332730E-01 0.12500000E+03</pdfrwt>
<totfact> 0.71655504E+06</totfact>
</mgrwt>
</event>
<event>
 3    1  0.1594457E-001  0.1250000E+03  0.7546771E-02  0.1235069E+00
         21   -1    0    0  502  501  0.00000000000E+00  0.00000000000E+00  0.18675071556E+02  0.18675071556E+02  0.00000000000E+00 0.  1.
         21   -1    0    0  501  502 -0.00000000000E+00 -0.00000000000E+00 -0.20916921192E+03  0.20916921192E+03  0.00000000000E+00 0.  1.
         25    1    1    2    0    0  0.00000000000E+00  0.00000000000E+00 -0.19049414036E+03  0.22784428348E+03  0.12500000000E+03 0.  0.
<mgrwt>
<rscale>  0 0.12500000E+03</rscale>
<asrwt>0</asrwt>
<pdfrwt beam="1">  1       21 0.28730880E-02 0.12500000E+03</pdfrwt>
<pdfrwt beam="2">  1       21 0.32179878E-01 0.12500000E+03</pdfrwt>
<totfact> 0.62029167E+06</totfact>
</mgrwt>
</event>
<event>
 3    1  0.1594457E-001  0.1250000E+03  0.7546771E-02  0.1235069E+00
         21   -1    0    0  502  501  0.00000000000E+00  0.00000000000E+00  0.59461816087E+02  0.59461816087E+02  0.00000000000E+00 0.  1.
         21   -1    0    0  501  502 -0.00000000000E+00 -0.00000000000E+00 -0.65693419022E+02  0.65693419022E+02  0.00000000000E+00 0.  1.
         25    1    1    2    0    0  0.00000000000E+00  0.00000000000E+00 -0.62316029347E+01  0.12515523511E+03  0.12500000000E+03 0.  0.
<mgrwt>
<rscale>  0 0.12500000E+03</rscale>
<asrwt>0</asrwt>
<pdfrwt beam="1">  1       21 0.91479717E-02 0.12500000E+03</pdfrwt>
<pdfrwt beam="2">  1       21 0.10106680E-01 0.12500000E+03</pdfrwt>
<totfact> 0.74022616E+06</totfact>
</mgrwt>
</event>
<event>
 3    1  0.1594457E-001  0.1250000E+03  0.7546771E-02  0.1235069E+00
         21   -1    0    0  502  501  0.00000000000E+00  0.00000000000E+00  0.15314659585E+03  0.15314659585E+03  0.00000000000E+00 0.  1.
         21   -1    0    0  501  502 -0.00000000000E+00 -0.00000000000E+00 -0.25506606780E+02  0.25506606780E+02  0.00000000000E+00 0.  1.
         25    1    1    2    0    0  0.00000000000E+00  0.00000000000E+00  0.12763998907E+03  0.17865320263E+03  0.12500000000E+03 0.  0.
<mgrwt>
<rscale>  0 0.12500000E+03</rscale>
<asrwt>0</asrwt>
<pdfrwt beam="1">  1       21 0.23561014E-01 0.12500000E+03</pdfrwt>
<pdfrwt beam="2">  1       21 0.39240935E-02 0.12500000E+03</pdfrwt>
<totfact> 0.67306374E+06</totfact>
</mgrwt>
</event>
<event>
 3    1  0.1594457E-001  0.1250000E+03  0.7546771E-02  0.1235069E+00
         21   -1    0    0  502  501  0.00000000000E+00  0.00000000000E+00  0.67167281514E+02  0.67167281514E+02  0.00000000000E+00 0.  1.
         21   -1    0    0  501  502 -0.00000000000E+00 -0.00000000000E+00 -0.58157035865E+02  0.58157035865E+02  0.00000000000E+00 0.  1.
         25    1    1    2    0    0  0.00000000000E+00  0.00000000000E+00  0.90102456492E+01  0.12532431738E+03  0.12500000000E+03 0.  0.
<mgrwt>
<rscale>  0 0.12500000E+03</rscale>
<asrwt>0</asrwt>
<pdfrwt beam="1">  1       21 0.10333428E-01 0.12500000E+03</pdfrwt>
<pdfrwt beam="2">  1       21 0.89472363E-02 0.12500000E+03</pdfrwt>
<totfact> 0.73999789E+06</totfact>
</mgrwt>
</event>
<event>
 3    1  0.1594457E-001  0.1250000E+03  0.7546771E-02  0.1235069E+00
         21   -1    0    0  502  501  0.00000000000E+00  0.00000000000E+00  0.55661562315E+01  0.55661562315E+01  0.00000000000E+00 0. -1.
         21   -1    0    0  501  502 -0.00000000000E+00 -0.00000000000E+00 -0.70178590710E+03  0.70178590710E+03  0.00000000000E+00 0. -1.
         25    1    1    2    0    0  0.00000000000E+00  0.00000000000E+00 -0.69621975087E+03  0.70735206333E+03  0.12500000000E+03 0.  0.
<mgrwt>
<rscale>  0 0.12500000E+03</rscale>
<asrwt>0</asrwt>
<pdfrwt beam="1">  1       21 0.85633184E-03 0.12500000E+03</pdfrwt>
<pdfrwt beam="2">  1       21 0.10796705E+00 0.12500000E+03</pdfrwt>
<totfact> 0.32628617E+06</totfact>
</mgrwt>
</event>
<event>
 3    1  0.1594457E-001  0.1250000E+03  0.7546771E-02  0.1235069E+00
         21   -1    0    0  502  501  0.00000000000E+00  0.00000000000E+00  0.30036075456E+02  0.30036075456E+02  0.00000000000E+00 0.  1.
         21   -1    0    0  501  502 -0.00000000000E+00 -0.00000000000E+00 -0.13005194390E+03  0.13005194390E+03  0.00000000000E+00 0.  1.
         25    1    1    2    0    0  0.00000000000E+00  0.00000000000E+00 -0.10001586844E+03  0.16008801935E+03  0.12500000000E+03 0.  0.
<mgrwt>
<rscale>  0 0.12500000E+03</rscale>
<asrwt>0</asrwt>
<pdfrwt beam="1">  1       21 0.46209348E-02 0.12500000E+03</pdfrwt>
<pdfrwt beam="2">  1       21 0.20007991E-01 0.12500000E+03</pdfrwt>
<totfact> 0.69508743E+06</totfact>
</mgrwt>
</event>
<event>
 3    1  0.1594457E-001  0.1250000E+03  0.7546771E-02  0.1235069E+00
         21   -1    0    0  502  501  0.00000000000E+00  0.00000000000E+00  0.18846934570E+02  0.18846934570E+02  0.00000000000E+00 0.  1.
         21   -1    0    0  501  502 -0.00000000000E+00 -0.00000000000E+00 -0.20726182211E+03  0.20726182211E+03  0.00000000000E+00 0.  1.
         25    1    1    2    0    0  0.00000000000E+00  0.00000000000E+00 -0.18841488754E+03  0.22610875668E+03  0.12500000000E+03 0.  0.
<mgrwt>
<rscale>  0 0.12500000E+03</rscale>
<asrwt>0</asrwt>
<pdfrwt beam="1">  1       21 0.28995284E-02 0.12500000E+03</pdfrwt>
<pdfrwt beam="2">  1       21 0.31886434E-01 0.12500000E+03</pdfrwt>
<totfact> 0.62203370E+06</totfact>
</mgrwt>
</event>
<event>
 3    1  0.1594457E-001  0.1250000E+03  0.7546771E-02  0.1235069E+00
         21   -1    0    0  502  501  0.00000000000E+00  0.00000000000E+00  0.38041733290E+02  0.38041733290E+02  0.00000000000E+00 0. -1.
         21   -1    0    0  501  502 -0.00000000000E+00 -0.00000000000E+00 -0.10268328128E+03  0.10268328128E+03  0.00000000000E+00 0. -1.
         25    1    1    2    0    0  0.00000000000E+00  0.00000000000E+00 -0.64641547995E+02  0.14072501458E+03  0.12500000000E+03 0.  0.
<mgrwt>
<rscale>  0 0.12500000E+03</rscale>
<asrwt>0</asrwt>
<pdfrwt beam="1">  1       21 0.58525744E-02 0.12500000E+03</pdfrwt>
<pdfrwt beam="2">  1       21 0.15797428E-01 0.12500000E+03</pdfrwt>
<totfact> 0.71944800E+06</totfact>
</mgrwt>
</event>
<event>
 3    1  0.1594457E-001  0.1250000E+03  0.7546771E-02  0.1235069E+00
         21   -1    0    0  502  501  0.00000000000E+00  0.00000000000E+00  0.20050201894E+01  0.20050201894E+01  0.00000000000E+00 0.  1.
         21   -1    0    0  501  502 -0.00000000000E+00 -0.00000000000E+00 -0.19482347463E+04  0.19482347463E+04  0.00000000000E+00 0.  1.
         25    1    1    2    0    0  0.00000000000E+00  0.00000000000E+00 -0.19462297261E+04  0.19502397665E+04  0.12500000000E+03 0.  0.
<mgrwt>
<rscale>  0 0.12500000E+03</rscale>
<asrwt>0</asrwt>
<pdfrwt beam="1">  1       21 0.30846486E-03 0.12500000E+03</pdfrwt>
<pdfrwt beam="2">  1       21 0.29972821E+00 0.12500000E+03</pdfrwt>
<totfact> 0.84435044E+05</totfact>
</mgrwt>
</event>
<event>
 3    1  0.1594457E-001  0.1250000E+03  0.7546771E-02  0.1235069E+00
         21   -1    0    0  502  501  0.00000000000E+00  0.00000000000E+00  0.19503061889E+03  0.19503061889E+03  0.00000000000E+00 0.  1.
         21   -1    0    0  501  502 -0.00000000000E+00 -0.00000000000E+00 -0.20028906344E+02  0.20028906344E+02  0.00000000000E+00 0.  1.
         25    1    1    2    0    0  0.00000000000E+00  0.00000000000E+00  0.17500171255E+03  0.21505952523E+03  0.12500000000E+03 0.  0.
<mgrwt>
<rscale>  0 0.12500000E+03</rscale>
<asrwt>0</asrwt>
<pdfrwt beam="1">  1       21 0.30004709E-01 0.12500000E+03</pdfrwt>
<pdfrwt beam="2">  1       21 0.30813703E-02 0.12500000E+03</pdfrwt>
<totfact> 0.63331117E+06</totfact>
</mgrwt>
</event>
<event>
 3    1  0.1594457E-001  0.1250000E+03  0.7546771E-02  0.1235069E+00
         21   -1    0    0  502  501  0.00000000000E+00  0.00000000000E+00  0.36582503174E+02  0.36582503174E+02  0.00000000000E+00 0. -1.
         21   -1    0    0  501  502 -0.00000000000E+00 -0.00000000000E+00 -0.10677918844E+03  0.10677918844E+03  0.00000000000E+00 0. -1.
         25    1    1    2    0    0  0.00000000000E+00  0.00000000000E+00 -0.70196685267E+02  0.14336169161E+03  0.12500000000E+03 0.  0.
<mgrwt>
<rscale>  0 0.12500000E+03</rscale>
<asrwt>0</asrwt>
<pdfrwt beam="1">  1       21 0.56280775E-02 0.12500000E+03</pdfrwt>
<pdfrwt beam="2">  1       21 0.16427567E-01 0.12500000E+03</pdfrwt>
<totfact> 0.71603427E+06</totfact>
</mgrwt>
</event>
<event>
 3    1  0.1594457E-001  0.1250000E+03  0.7546771E-02  0.1235069E+00
         21   -1    0    0  502  501  0.00000000000E+00  0.00000000000E+00  0.69930625646E+03  0.69930625646E+03  0.00000000000E+00 0.  1.
         21   -1    0    0  501  502 -0.00000000000E+00 -0.00000000000E+00 -0.55858931104E+01  0.55858931104E+01  0.00000000000E+00 0.  1.
         25    1    1    2    0    0  0.00000000000E+00  0.00000000000E+00  0.69372036335E+03  0.70489214957E+03  0.12500000000E+03 0.  0.
<mgrwt>
<rscale>  0 0.12500000E+03</rscale>
<asrwt>0</asrwt>
<pdfrwt beam="1">  1       21 0.10758551E+00 0.12500000E+03</pdfrwt>
<pdfrwt beam="2">  1       21 0.85936872E-03 0.12500000E+03</pdfrwt>
<totfact> 0.32722399E+06</totfact>
</mgrwt>
</event>
<event>
 3    1  0.1594457E-001  0.1250000E+03  0.7546771E-02  0.1235069E+00
         21   -1    0    0  502  501  0.00000000000E+00  0.00000000000E+00  0.32797562382E+03  0.32797562382E+03  0.00000000000E+00 0.  1.
         21   -1    0    0  501  502 -0.00000000000E+00 -0.00000000000E+00 -0.11910183917E+02  0.11910183917E+02  0.00000000000E+00 0.  1.
         25    1    1    2    0    0  0.00000000000E+00  0.00000000000E+00  0.31606543990E+03  0.33988580773E+03  0.12500000000E+03 0.  0.
<mgrwt>
<rscale>  0 0.12500000E+03</rscale>
<asrwt>0</asrwt>
<pdfrwt beam="1">  1       21 0.50457781E-01 0.12500000E+03</pdfrwt>
<pdfrwt beam="2">  1       21 0.18323362E-02 0.12500000E+03</pdfrwt>
<totfact> 0.52294182E+06</totfact>
</mgrwt>
</event>
<event>
 3    1  0.1594457E-001  0.1250000E+03  0.7546771E-02  0.1235069E+00
         21   -1    0    0  502  501  0.00000000000E+00  0.00000000000E+00  0.62696745162E+02  0.62696745162E+02  0.00000000000E+00 0. -1.
         21   -1    0    0  501  502 -0.00000000000E+00 -0.00000000000E+00 -0.62303872233E+02  0.62303872233E+02  0.00000000000E+00 0. -1.
         25    1    1    2    0    0  0.00000000000E+00  0.00000000000E+00  0.39287292944E+00  0.12500061740E+03  0.12500000000E+03 0.  0.
<mgrwt>
<rscale>  0 0.12500000E+03</rscale>
<asrwt>0</asrwt>
<pdfrwt beam="1">  1       21 0.96456531E-02 0.12500000E+03</pdfrwt>
<pdfrwt beam="2">  1       21 0.95852111E-02 0.12500000E+03</pdfrwt>
<totfact> 0.74043498E+06</totfact>
</mgrwt>
</event>
<event>
 3    1  0.1594457E-001  0.1250000E+03  0.7546771E-02  0.1235069E+00
         21   -1    0    0  502  501  0.00000000000E+00  0.00000000000E+00  0.21256765195E+02  0.21256765195E+02  0.00000000000E+00 0. -1.
         21   -1    0    0  501  502 -0.00000000000E+00 -0.00000000000E+00 -0.18376502559E+03  0.18376502559E+03  0.00000000000E+00 0. -1.
         25    1    1    2    0    0  0.00000000000E+00  0.00000000000E+00 -0.16250826039E+03  0.20502179078E+03  0.12500000000E+03 0.  0.
<mgrwt>
<rscale>  0 0.12500000E+03</rscale>
<asrwt>0</asrwt>
<pdfrwt beam="1">  1       21 0.32702716E-02 0.12500000E+03</pdfrwt>
<pdfrwt beam="2">  1       21 0.28271542E-01 0.12500000E+03</pdfrwt>
<totfact> 0.64387136E+06</totfact>
</mgrwt>
</event>
<event>
 3    1  0.1594457E-001  0.1250000E+03  0.7546771E-02  0.1235069E+00
         21   -1    0    0  502  501  0.00000000000E+00  0.00000000000E+00  0.19266300953E+02  0.19266300953E+02  0.00000000000E+00 0. -1.
         21   -1    0    0  501  502 -0.00000000000E+00 -0.00000000000E+00 -0.20275038834E+03  0.20275038834E+03  0.00000000000E+00 0. -1.
         25    1    1    2    0    0  0.00000000000E+00  0.00000000000E+00 -0.18348408738E+03  0.22201668929E+03  0.12500000000E+03 0.  0.
<mgrwt>
<rscale>  0 0.12500000E+03</rscale>
<asrwt>0</asrwt>
<pdfrwt beam="1">  1       21 0.29640463E-02 0.12500000E+03</pdfrwt>
<pdfrwt beam="2">  1       21 0.31192367E-01 0.12500000E+03</pdfrwt>
<totfact> 0.62616996E+06</totfact>
</mgrwt>
</event>
<event>
 3    1  0.1594457E-001  0.1250000E+03  0.7546771E-02  0.1235069E+00
         21   -1    0    0  502  501  0.00000000000E+00  0.00000000000E+00  0.23993743552E+02  0.23993743552E+02  0.00000000000E+00 0. -1.
         21   -1    0    0  501  502 -0.00000000000E+00 -0.00000000000E+00 -0.16280285698E+03  0.16280285698E+03  0.00000000000E+00 0. -1.
         25    1    1    2    0    0  0.00000000000E+00  0.00000000000E+00 -0.13880911343E+03  0.18679660054E+03  0.12500000000E+03 0.  0.
<mgrwt>
<rscale>  0 0.12500000E+03</rscale>
<asrwt>0</asrwt>
<pdfrwt beam="1">  1       21 0.36913453E-02 0.12500000E+03</pdfrwt>
<pdfrwt beam="2">  1       21 0.25046593E-01 0.12500000E+03</pdfrwt>
<totfact> 0.66380275E+06</totfact>
</mgrwt>
</event>
<event>
 3    1  0.1594457E-001  0.1250000E+03  0.7546771E-02  0.1235069E+00
         21   -1    0    0  502  501  0.00000000000E+00  0.00000000000E+00  0.59747598555E+03  0.59747598555E+03  0.00000000000E+00 0.  1.
         21   -1    0    0  501  502 -0.00000000000E+00 -0.00000000000E+00 -0.65379196729E+01  0.65379196729E+01  0.00000000000E+00 0.  1.
         25    1    1    2    0    0  0.00000000000E+00  0.00000000000E+00  0.59093806588E+03  0.60401390522E+03  0.12500000000E+03 0.  0.
<mgrwt>
<rscale>  0 0.12500000E+03</rscale>
<asrwt>0</asrwt>
<pdfrwt beam="1">  1       21 0.91919339E-01 0.12500000E+03</pdfrwt>
<pdfrwt beam="2">  1       21 0.10058343E-02 0.12500000E+03</pdfrwt>
<totfact> 0.36911747E+06</totfact>
</mgrwt>
</event>
<event>
 3    1  0.1594457E-001  0.1250000E+03  0.7546771E-02  0.1235069E+00
         21   -1    0    0  502  501  0.00000000000E+00  0.00000000000E+00  0.83104441445E+02  0.83104441445E+02  0.00000000000E+00 0. -1.
         21   -1    0    0  501  502 -0.00000000000E+00 -0.00000000000E+00 -0.47004106304E+02  0.47004106304E+02  0.00000000000E+00 0. -1.
         25    1    1    2    0    0  0.00000000000E+00  0.00000000000E+00  0.36100335141E+02  0.13010854775E+03  0.12500000000E+03 0.  0.
<mgrwt>
<rscale>  0 0.12500000E+03</rscale>
<asrwt>0</asrwt>
<pdfrwt beam="1">  1       21 0.12785299E-01 0.12500000E+03</pdfrwt>
<pdfrwt beam="2">  1       21 0.72314010E-02 0.12500000E+03</pdfrwt>
<totfact> 0.73350411E+06</totfact>
</mgrwt>
</event>
<event>
 3    1  0.1594457E-001  0.1250000E+03  0.7546771E-02  0.1235069E+00
         21   -1    0    0  502  501  0.00000000000E+00  0.00000000000E+00  0.26865318671E+02  0.26865318671E+02  0.00000000000E+00 0. -1.
         21   -1    0    0  501  502 -0.00000000000E+00 -0.00000000000E+00 -0.14540121589E+03  0.14540121589E+03  0.00000000000E+00 0. -1.
         25    1    1    2    0    0  0.00000000000E+00  0.00000000000E+00 -0.11853589722E+03  0.17226653456E+03  0.12500000000E+03 0.  0.
<mgrwt>
<rscale>  0 0.12500000E+03</rscale>
<asrwt>0</asrwt>
<pdfrwt beam="1">  1       21 0.41331260E-02 0.12500000E+03</pdfrwt>
<pdfrwt beam="2">  1       21 0.22369417E-01 0.12500000E+03</pdfrwt>
<totfact> 0.68049962E+06</totfact>
</mgrwt>
</event>
<event>
 3    1  0.1594457E-001  0.1250000E+03  0.7546771E-02  0.1235069E+00
         21   -1    0    0  502  501  0.00000000000E+00  0.00000000000E+00  0.19837184857E+02  0.19837184857E+02  0.00000000000E+00 0. -1.
         21   -1    0    0  501  502 -0.00000000000E+00 -0.00000000000E+00 -0.19691554161E+03  0.19691554161E+03  0.00000000000E+00 0. -1.
         25    1    1    2    0    0  0.00000000000E+00  0.00000000000E+00 -0.17707835675E+03  0.21675272646E+03  0.12500000000E+03 0.  0.
<mgrwt>
<rscale>  0 0.12500000E+03</rscale>
<asrwt>0</asrwt>
<pdfrwt beam="1">  1       21 0.30518747E-02 0.12500000E+03</pdfrwt>
<pdfrwt beam="2">  1       21 0.30294698E-01 0.12500000E+03</pdfrwt>
<totfact> 0.63156001E+06</totfact>
</mgrwt>
</event>
<event>
 3    1  0.1594457E-001  0.1250000E+03  0.7546771E-02  0.1235069E+00
         21   -1    0    0  502  501  0.00000000000E+00  0.00000000000E+00  0.25473566708E+03  0.25473566708E+03  0.00000000000E+00 0. -1.
         21   -1    0    0  501  502 -0.00000000000E+00 -0.00000000000E+00 -0.15334523213E+02  0.15334523213E+02  0.00000000000E+00 0. -1.
         25    1    1    2    0    0  0.00000000000E+00  0.00000000000E+00  0.23940114387E+03  0.27007019030E+03  0.12500000000E+03 0.  0.
<mgrwt>
<rscale>  0 0.12500000E+03</rscale>
<asrwt>0</asrwt>
<pdfrwt beam="1">  1       21 0.39190100E-01 0.12500000E+03</pdfrwt>
<pdfrwt beam="2">  1       21 0.23591576E-02 0.12500000E+03</pdfrwt>
<totfact> 0.58038399E+06</totfact>
</mgrwt>
</event>
<event>
 3    1  0.1594457E-001  0.1250000E+03  0.7546771E-02  0.1235069E+00
         21   -1    0    0  502  501  0.00000000000E+00  0.00000000000E+00  0.12976621639E+03  0.12976621639E+03  0.00000000000E+00 0. -1.
         21   -1    0    0  501  502 -0.00000000000E+00 -0.00000000000E+00 -0.30102210796E+02  0.30102210796E+02  0.00000000000E+00 0. -1.
         25    1    1    2    0    0  0.00000000000E+00  0.00000000000E+00  0.99664005596E+02  0.15986842719E+03  0.12500000000E+03 0.  0.
<mgrwt>
<rscale>  0 0.12500000E+03</rscale>
<asrwt>0</asrwt>
<pdfrwt beam="1">  1       21 0.19964033E-01 0.12500000E+03</pdfrwt>
<pdfrwt beam="2">  1       21 0.46311094E-02 0.12500000E+03</pdfrwt>
<totfact> 0.69535576E+06</totfact>
</mgrwt>
</event>
<event>
 3    1  0.1594457E-001  0.1250000E+03  0.7546771E-02  0.1235069E+00
         21   -1    0    0  502  501  0.00000000000E+00  0.00000000000E+00  0.91925200701E+03  0.91925200701E+03  0.00000000000E+00 0. -1.
         21   -1    0    0  501  502 -0.00000000000E+00 -0.00000000000E+00 -0.42493788104E+01  0.42493788104E+01  0.00000000000E+00 0. -1.
         25    1    1    2    0    0  0.00000000000E+00  0.00000000000E+00  0.91500262820E+03  0.92350138582E+03  0.12500000000E+03 0.  0.
<mgrwt>
<rscale>  0 0.12500000E+03</rscale>
<asrwt>0</asrwt>
<pdfrwt beam="1">  1       21 0.14142323E+00 0.12500000E+03</pdfrwt>
<pdfrwt beam="2">  1       21 0.65375132E-03 0.12500000E+03</pdfrwt>
<totfact> 0.25634559E+06</totfact>
</mgrwt>
</event>
<event>
 3    1  0.1594457E-001  0.1250000E+03  0.7546771E-02  0.1235069E+00
         21   -1    0    0  502  501  0.00000000000E+00  0.00000000000E+00  0.16928579934E+03  0.16928579934E+03  0.00000000000E+00 0. -1.
         21   -1    0    0  501  502 -0.00000000000E+00 -0.00000000000E+00 -0.23074882922E+02  0.23074882922E+02  0.00000000000E+00 0. -1.
         25    1    1    2    0    0  0.00000000000E+00  0.00000000000E+00  0.14621091642E+03  0.19236068226E+03  0.12500000000E+03 0.  0.
<mgrwt>
<rscale>  0 0.12500000E+03</rscale>
<asrwt>0</asrwt>
<pdfrwt beam="1">  1       21 0.26043968E-01 0.12500000E+03</pdfrwt>
<pdfrwt beam="2">  1       21 0.35499821E-02 0.12500000E+03</pdfrwt>
<totfact> 0.65761053E+06</totfact>
</mgrwt>
</event>
<event>
 3    1  0.1594457E-001  0.1250000E+03  0.7546771E-02  0.1235069E+00
         21   -1    0    0  502  501  0.00000000000E+00  0.00000000000E+00  0.11964506035E+02  0.11964506035E+02  0.00000000000E+00 0.  1.
         21   -1    0    0  501  502 -0.00000000000E+00 -0.00000000000E+00 -0.32648652511E+03  0.32648652511E+03  0.00000000000E+00 0.  1.
         25    1    1    2    0    0  0.00000000000E+00  0.00000000000E+00 -0.31452201908E+03  0.33845103115E+03  0.12500000000E+03 0.  0.
<mgrwt>
<rscale>  0 0.12500000E+03</rscale>
<asrwt>0</asrwt>
<pdfrwt beam="1">  1       21 0.18406935E-02 0.12500000E+03</pdfrwt>
<pdfrwt beam="2">  1       21 0.50228689E-01 0.12500000E+03</pdfrwt>
<totfact> 0.52402836E+06</totfact>
</mgrwt>
</event>
<event>
 3    1  0.1594457E-001  0.1250000E+03  0.7546771E-02  0.1235069E+00
         21   -1    0    0  502  501  0.00000000000E+00  0.00000000000E+00  0.54742020808E+01  0.54742020808E+01  0.00000000000E+00 0.  1.
         21   -1    0    0  501  502 -0.00000000000E+00 -0.00000000000E+00 -0.71357431501E+03  0.71357431501E+03  0.00000000000E+00 0.  1.
         25    1    1    2    0    0  0.00000000000E+00  0.00000000000E+00 -0.70810011293E+03  0.71904851709E+03  0.12500000000E+03 0.  0.
<mgrwt>
<rscale>  0 0.12500000E+03</rscale>
<asrwt>0</asrwt>
<pdfrwt beam="1">  1       21 0.84218515E-03 0.12500000E+03</pdfrwt>
<pdfrwt beam="2">  1       21 0.10978064E+00 0.12500000E+03</pdfrwt>
<totfact> 0.32188580E+06</totfact>
</mgrwt>
</event>
<event>
 3    1  0.1594457E-001  0.1250000E+03  0.7546771E-02  0.1235069E+00
         21   -1    0    0  502  501  0.00000000000E+00  0.00000000000E+00  0.89775129094E+03  0.89775129094E+03  0.00000000000E+00 0.  1.
         21   -1    0    0  501  502 -0.00000000000E+00 -0.00000000000E+00 -0.43511494101E+01  0.43511494101E+01  0.00000000000E+00 0.  1.
         25    1    1    2    0    0  0.00000000000E+00  0.00000000000E+00  0.89340014153E+03  0.90210244035E+03  0.12500000000E+03 0.  0.
<mgrwt>
<rscale>  0 0.12500000E+03</rscale>
<asrwt>0</asrwt>
<pdfrwt beam="1">  1       21 0.13811544E+00 0.12500000E+03</pdfrwt>
<pdfrwt beam="2">  1       21 0.66940831E-03 0.12500000E+03</pdfrwt>
<totfact> 0.26238778E+06</totfact>
</mgrwt>
</event>
<event>
 3    1  0.1594457E-001  0.1250000E+03  0.7546771E-02  0.1235069E+00
         21   -1    0    0  502  501  0.00000000000E+00  0.00000000000E+00  0.10597196409E+03  0.10597196409E+03  0.00000000000E+00 0.  1.
         21   -1    0    0  501  502 -0.00000000000E+00 -0.00000000000E+00 -0.36861164494E+02  0.36861164494E+02  0.00000000000E+00 0.  1.
         25    1    1    2    0    0  0.00000000000E+00  0.00000000000E+00  0.69110799593E+02  0.14283312858E+03  0.12500000000E+03 0.  0.
<mgrwt>
<rscale>  0 0.12500000E+03</rscale>
<asrwt>0</asrwt>
<pdfrwt beam="1">  1       21 0.16303379E-01 0.12500000E+03</pdfrwt>
<pdfrwt beam="2">  1       21 0.56709485E-02 0.12500000E+03</pdfrwt>
<totfact> 0.71671573E+06</totfact>
</mgrwt>
</event>
<event>
 3    1  0.1594457E-001  0.1250000E+03  0.7546771E-02  0.1235069E+00
         21   -1    0    0  502  501  0.00000000000E+00  0.00000000000E+00  0.25896097470E+03  0.25896097470E+03  0.00000000000E+00 0. -1.
         21   -1    0    0  501  502 -0.00000000000E+00 -0.00000000000E+00 -0.15084319189E+02  0.15084319189E+02  0.00000000000E+00 0. -1.
         25    1    1    2    0    0  0.00000000000E+00  0.00000000000E+00  0.24387665551E+03  0.27404529389E+03  0.12500000000E+03 0.  0.
<mgrwt>
<rscale>  0 0.12500000E+03</rscale>
<asrwt>0</asrwt>
<pdfrwt beam="1">  1       21 0.39840147E-01 0.12500000E+03</pdfrwt>
<pdfrwt beam="2">  1       21 0.23206647E-02 0.12500000E+03</pdfrwt>
<totfact> 0.57684523E+06</totfact>
</mgrwt>
</event>
<event>
 3    1  0.1594457E-001  0.1250000E+03  0.7546771E-02  0.1235069E+00
         21   -1    0    0  502  501  0.00000000000E+00  0.00000000000E+00  0.77890736449E+02  0.77890736449E+02  0.00000000000E+00 0. -1.
         21   -1    0    0  501  502 -0.00000000000E+00 -0.00000000000E+00 -0.50150379597E+02  0.50150379597E+02  0.00000000000E+00 0. -1.
         25    1    1    2    0    0  0.00000000000E+00  0.00000000000E+00  0.27740356853E+02  0.12804111605E+03  0.12500000000E+03 0.  0.
<mgrwt>
<rscale>  0 0.12500000E+03</rscale>
<asrwt>0</asrwt>
<pdfrwt beam="1">  1       21 0.11983190E-01 0.12500000E+03</pdfrwt>
<pdfrwt beam="2">  1       21 0.77154430E-02 0.12500000E+03</pdfrwt>
<totfact> 0.73628006E+06</totfact>
</mgrwt>
</event>
<event>
 3    1  0.1594457E-001  0.1250000E+03  0.7546771E-02  0.1235069E+00
         21   -1    0    0  502  501  0.00000000000E+00  0.00000000000E+00  0.12539431617E+03  0.12539431617E+03  0.00000000000E+00 0.  1.
         21   -1    0    0  501  502 -0.00000000000E+00 -0.00000000000E+00 -0.31151730950E+02  0.31151730950E+02  0.00000000000E+00 0.  1.
         25    1    1    2    0    0  0.00000000000E+00  0.00000000000E+00  0.94242585223E+02  0.15654604712E+03  0.12500000000E+03 0.  0.
<mgrwt>
<rscale>  0 0.12500000E+03</rscale>
<asrwt>0</asrwt>
<pdfrwt beam="1">  1       21 0.19291433E-01 0.12500000E+03</pdfrwt>
<pdfrwt beam="2">  1       21 0.47925741E-02 0.12500000E+03</pdfrwt>
<totfact> 0.69944013E+06</totfact>
</mgrwt>
</event>
<event>
 3    1  0.1594457E-001  0.1250000E+03  0.7546771E-02  0.1235069E+00
         21   -1    0    0  502  501  0.00000000000E+00  0.00000000000E+00  0.52672786365E+02  0.52672786365E+02  0.00000000000E+00 0.  1.
         21   -1    0    0  501  502 -0.00000000000E+00 -0.00000000000E+00 -0.74160686562E+02  0.74160686562E+02  0.00000000000E+00 0.  1.
         25    1    1    2    0    0  0.00000000000E+00  0.00000000000E+00 -0.21487900197E+02  0.12683347293E+03  0.12500000000E+03 0.  0.
<mgrwt>
<rscale>  0 0.12500000E+03</rscale>
<asrwt>0</asrwt>
<pdfrwt beam="1">  1       21 0.81035056E-02 0.12500000E+03</pdfrwt>
<pdfrwt beam="2">  1       21 0.11409336E-01 0.12500000E+03</pdfrwt>
<totfact> 0.73791823E+06</totfact>
</mgrwt>
</event>
<event>
 3    1  0.1594457E-001  0.1250000E+03  0.7546771E-02  0.1235069E+00
         21   -1    0    0  502  501  0.00000000000E+00  0.00000000000E+00  0.24091770120E+03  0.24091770120E+03  0.00000000000E+00 0.  1.
         21   -1    0    0  501  502 -0.00000000000E+00 -0.00000000000E+00 -0.16214043138E+02  0.16214043138E+02  0.00000000000E+00 0.  1.
         25    1    1    2    0    0  0.00000000000E+00  0.00000000000E+00  0.22470365806E+03  0.25713174433E+03  0.12500000000E+03 0.  0.
<mgrwt>
<rscale>  0 0.12500000E+03</rscale>
<asrwt>0</asrwt>
<pdfrwt beam="1">  1       21 0.37064259E-01 0.12500000E+03</pdfrwt>
<pdfrwt beam="2">  1       21 0.24944683E-02 0.12500000E+03</pdfrwt>
<totfact> 0.59213170E+06</totfact>
</mgrwt>
</event>
<event>
 3    1  0.1594457E-001  0.1250000E+03  0.7546771E-02  0.1235069E+00
         21   -1    0    0  502  501  0.00000000000E+00  0.00000000000E+00  0.25057241182E+03  0.25057241182E+03  0.00000000000E+00 0. -1.
         21   -1    0    0  501  502 -0.00000000000E+00 -0.00000000000E+00 -0.15589305988E+02  0.15589305988E+02  0.00000000000E+00 0. -1.
         25    1    1    2    0    0  0.00000000000E+00  0.00000000000E+00  0.23498310583E+03  0.26616171780E+03  0.12500000000E+03 0.  0.
<mgrwt>
<rscale>  0 0.12500000E+03</rscale>
<asrwt>0</asrwt>
<pdfrwt beam="1">  1       21 0.38549599E-01 0.12500000E+03</pdfrwt>
<pdfrwt beam="2">  1       21 0.23983550E-02 0.12500000E+03</pdfrwt>
<totfact> 0.58389082E+06</totfact>
</mgrwt>
</event>
<event>
 3    1  0.1594457E-001  0.1250000E+03  0.7546771E-02  0.1235069E+00
         21   -1    0    0  502  501  0.00000000000E+00  0.00000000000E+00  0.10765640792E+03  0.10765640792E+03  0.00000000000E+00 0. -1.
         21   -1    0    0  501  502 -0.00000000000E+00 -0.00000000000E+00 -0.36284417020E+02  0.36284417020E+02  0.00000000000E+00 0. -1.
         25    1    1    2    0    0  0.00000000000E+00  0.00000000000E+00  0.71371990903E+02  0.14394082494E+03  0.12500000000E+03 0.  0.
<mgrwt>
<rscale>  0 0.12500000E+03</rscale>
<asrwt>0</asrwt>
<pdfrwt beam="1">  1       21 0.16562524E-01 0.12500000E+03</pdfrwt>
<pdfrwt beam="2">  1       21 0.55822180E-02 0.12500000E+03</pdfrwt>
<totfact> 0.71528924E+06</totfact>
</mgrwt>
</event>
<event>
 3    1  0.1594457E-001  0.1250000E+03  0.7546771E-02  0.1235069E+00
         21   -1    0    0  502  501  0.00000000000E+00  0.00000000000E+00  0.58730374864E+02  0.58730374864E+02  0.00000000000E+00 0.  1.
         21   -1    0    0  501  502 -0.00000000000E+00 -0.00000000000E+00 -0.66511579554E+02  0.66511579554E+02  0.00000000000E+00 0.  1.
         25    1    1    2    0    0  0.00000000000E+00  0.00000000000E+00 -0.77812046903E+01  0.12524195442E+03  0.12500000000E+03 0.  0.
<mgrwt>
<rscale>  0 0.12500000E+03</rscale>
<asrwt>0</asrwt>
<pdfrwt beam="1">  1       21 0.90354423E-02 0.12500000E+03</pdfrwt>
<pdfrwt beam="2">  1       21 0.10232551E-01 0.12500000E+03</pdfrwt>
<totfact> 0.74010908E+06</totfact>
</mgrwt>
</event>
<event>
 3    1  0.1594457E-001  0.1250000E+03  0.7546771E-02  0.1235069E+00
         21   -1    0    0  502  501  0.00000000000E+00  0.00000000000E+00  0.39887185401E+03  0.39887185401E+03  0.00000000000E+00 0.  1.
         21   -1    0    0  501  502 -0.00000000000E+00 -0.00000000000E+00 -0.97932455268E+01  0.97932455268E+01  0.00000000000E+00 0.  1.
         25    1    1    2    0    0  0.00000000000E+00  0.00000000000E+00  0.38907860848E+03  0.40866509953E+03  0.12500000000E+03 0.  0.
<mgrwt>
<rscale>  0 0.12500000E+03</rscale>
<asrwt>0</asrwt>
<pdfrwt beam="1">  1       21 0.61364888E-01 0.12500000E+03</pdfrwt>
<pdfrwt beam="2">  1       21 0.15066535E-02 0.12500000E+03</pdfrwt>
<totfact> 0.47471871E+06</totfact>
</mgrwt>
</event>
<event>
 3    1  0.1594457E-001  0.1250000E+03  0.7546771E-02  0.1235069E+00
         21   -1    0    0  502  501  0.00000000000E+00  0.00000000000E+00  0.13384451405E+04  0.13384451405E+04  0.00000000000E+00 0. -1.
         21   -1    0    0  501  502 -0.00000000000E+00 -0.00000000000E+00 -0.29184983992E+01  0.29184983992E+01  0.00000000000E+00 0. -1.
         25    1    1    2    0    0  0.00000000000E+00  0.00000000000E+00  0.13355266421E+04  0.13413636389E+04  0.12500000000E+03 0.  0.
<mgrwt>
<rscale>  0 0.12500000E+03</rscale>
<asrwt>0</asrwt>
<pdfrwt beam="1">  1       21 0.20591415E+00 0.12500000E+03</pdfrwt>
<pdfrwt beam="2">  1       21 0.44900082E-03 0.12500000E+03</pdfrwt>
<totfact> 0.16525671E+06</totfact>
</mgrwt>
</event>
<event>
 3    1  0.1594457E-001  0.1250000E+03  0.7546771E-02  0.1235069E+00
         21   -1    0    0  502  501  0.00000000000E+00  0.00000000000E+00  0.34003457542E+02  0.34003457542E+02  0.00000000000E+00 0. -1.
         21   -1    0    0  501  502 -0.00000000000E+00 -0.00000000000E+00 -0.11487802366E+03  0.11487802366E+03  0.00000000000E+00 0. -1.
         25    1    1    2    0    0  0.00000000000E+00  0.00000000000E+00 -0.80874566116E+02  0.14888148120E+03  0.12500000000E+03 0.  0.
<mgrwt>
<rscale>  0 0.12500000E+03</rscale>
<asrwt>0</asrwt>
<pdfrwt beam="1">  1       21 0.52313010E-02 0.12500000E+03</pdfrwt>
<pdfrwt beam="2">  1       21 0.17673543E-01 0.12500000E+03</pdfrwt>
<totfact> 0.70899991E+06</totfact>
</mgrwt>
</event>
<event>
 3    1  0.1594457E-001  0.1250000E+03  0.7546771E-02  0.1235069E+00
         21   -1    0    0  502  501  0.00000000000E+00  0.00000000000E+00  0.65907316745E+02  0.65907316745E+02  0.00000000000E+00 0. -1.
         21   -1    0    0  501  502 -0.00000000000E+00 -0.00000000000E+00 -0.59268836799E+02  0.59268836799E+02  0.00000000000E+00 0. -1.
         25    1    1    2    0    0  0.00000000000E+00  0.00000000000E+00  0.66384799455E+01  0.12517615354E+03  0.12500000000E+03 0.  0.
<mgrwt>
<rscale>  0 0.12500000E+03</rscale>
<asrwt>0</asrwt>
<pdfrwt beam="1">  1       21 0.10139587E-01 0.12500000E+03</pdfrwt>
<pdfrwt beam="2">  1       21 0.91182826E-02 0.12500000E+03</pdfrwt>
<totfact> 0.74019792E+06</totfact>
</mgrwt>
</event>
<event>
 3    1  0.1594457E-001  0.1250000E+03  0.7546771E-02  0.1235069E+00
         21   -1    0    0  502  501  0.00000000000E+00  0.00000000000E+00  0.47575174236E+01  0.47575174236E+01  0.00000000000E+00 0. -1.
         21   -1    0    0  501  502 -0.00000000000E+00 -0.00000000000E+00 -0.82106898455E+03  0.82106898455E+03  0.00000000000E+00 0. -1.
         25    1    1    2    0    0  0.00000000000E+00  0.00000000000E+00 -0.81631146712E+03  0.82582650197E+03  0.12500000000E+03 0.  0.
<mgrwt>
<rscale>  0 0.12500000E+03</rscale>
<asrwt>0</asrwt>
<pdfrwt beam="1">  1       21 0.73192627E-03 0.12500000E+03</pdfrwt>
<pdfrwt beam="2">  1       21 0.12631822E+00 0.12500000E+03</pdfrwt>
<totfact> 0.28524834E+06</totfact>
</mgrwt>
</event>
<event>
 3    1  0.1594457E-001  0.1250000E+03  0.7546771E-02  0.1235069E+00
         21   -1    0    0  502  501  0.00000000000E+00  0.00000000000E+00  0.53690614428E+02  0.53690614428E+02  0.00000000000E+00 0. -1.
         21   -1    0    0  501  502 -0.00000000000E+00 -0.00000000000E+00 -0.72754801591E+02  0.72754801591E+02  0.00000000000E+00 0. -1.
         25    1    1    2    0    0  0.00000000000E+00  0.00000000000E+00 -0.19064187163E+02  0.12644541602E+03  0.12500000000E+03 0.  0.
<mgrwt>
<rscale>  0 0.12500000E+03</rscale>
<asrwt>0</asrwt>
<pdfrwt beam="1">  1       21 0.82600945E-02 0.12500000E+03</pdfrwt>
<pdfrwt beam="2">  1       21 0.11193046E-01 0.12500000E+03</pdfrwt>
<totfact> 0.73844846E+06</totfact>
</mgrwt>
</event>
<event>
 3    1  0.1594457E-001  0.1250000E+03  0.7546771E-02  0.1235069E+00
         21   -1    0    0  502  501  0.00000000000E+00  0.00000000000E+00  0.45067773766E+03  0.45067773766E+03  0.00000000000E+00 0. -1.
         21   -1    0    0  501  502 -0.00000000000E+00 -0.00000000000E+00 -0.86675015728E+01  0.86675015728E+01  0.00000000000E+00 0. -1.
         25    1    1    2    0    0  0.00000000000E+00  0.00000000000E+00  0.44201023609E+03  0.45934523923E+03  0.12500000000E+03 0.  0.
<mgrwt>
<rscale>  0 0.12500000E+03</rscale>
<asrwt>0</asrwt>
<pdfrwt beam="1">  1       21 0.69335018E-01 0.12500000E+03</pdfrwt>
<pdfrwt beam="2">  1       21 0.13334621E-02 0.12500000E+03</pdfrwt>
<totfact> 0.44338307E+06</totfact>
</mgrwt>
</event>
<event>
 3    1  0.1594457E-001  0.1250000E+03  0.7546771E-02  0.1235069E+00
         21   -1    0    0  502  501  0.00000000000E+00  0.00000000000E+00  0.34971896086E+02  0.34971896086E+02  0.00000000000E+00 0.  1.
         21   -1    0    0  501  502 -0.00000000000E+00 -0.00000000000E+00 -0.11169683195E+03  0.11169683195E+03  0.00000000000E+00 0.  1.
         25    1    1    2    0    0  0.00000000000E+00  0.00000000000E+00 -0.76724935860E+02  0.14666872803E+03  0.12500000000E+03 0.  0.
<mgrwt>
<rscale>  0 0.12500000E+03</rscale>
<asrwt>0</asrwt>
<pdfrwt beam="1">  1       21 0.53802918E-02 0.12500000E+03</pdfrwt>
<pdfrwt beam="2">  1       21 0.17184128E-01 0.12500000E+03</pdfrwt>
<totfact> 0.71180222E+06</totfact>
</mgrwt>
</event>
<event>
 3    1  0.1594457E-001  0.1250000E+03  0.7546771E-02  0.1235069E+00
         21   -1    0    0  502  501  0.00000000000E+00  0.00000000000E+00  0.18748872637E+02  0.18748872637E+02  0.00000000000E+00 0.  1.
         21   -1    0    0  501  502 -0.00000000000E+00 -0.00000000000E+00 -0.20834586034E+03  0.20834586034E+03  0.00000000000E+00 0.  1.
         25    1    1    2    0    0  0.00000000000E+00  0.00000000000E+00 -0.18959698770E+03  0.22709473297E+03  0.12500000000E+03 0.  0.
<mgrwt>
<rscale>  0 0.12500000E+03</rscale>
<asrwt>0</asrwt>
<pdfrwt beam="1">  1       21 0.28844417E-02 0.12500000E+03</pdfrwt>
<pdfrwt beam="2">  1       21 0.32053212E-01 0.12500000E+03</pdfrwt>
<totfact> 0.62104296E+06</totfact>
</mgrwt>
</event>
<event>
 3    1  0.1594457E-001  0.1250000E+03  0.7546771E-02  0.1235069E+00
         21   -1    0    0  502  501  0.00000000000E+00  0.00000000000E+00  0.10136122158E+04  0.10136122158E+04  0.00000000000E+00 0. -1.
         21   -1    0    0  501  502 -0.00000000000E+00 -0.00000000000E+00 -0.38537913605E+01  0.38537913605E+01  0.00000000000E+00 0. -1.
         25    1    1    2    0    0  0.00000000000E+00  0.00000000000E+00  0.10097584244E+04  0.10174660071E+04  0.12500000000E+03 0.  0.
<mgrwt>
<rscale>  0 0.12500000E+03</rscale>
<asrwt>0</asrwt>
<pdfrwt beam="1">  1       21 0.15594013E+00 0.12500000E+03</pdfrwt>
<pdfrwt beam="2">  1       21 0.59289178E-03 0.12500000E+03</pdfrwt>
<totfact> 0.23185946E+06</totfact>
</mgrwt>
</event>
<event>
 3    1  0.1594457E-001  0.1250000E+03  0.7546771E-02  0.1235069E+00
         21   -1    0    0  502  501  0.00000000000E+00  0.00000000000E+00  0.43414178846E+01  0.43414178846E+01  0.00000000000E+00 0. -1.
         21   -1    0    0  501  502 -0.00000000000E+00 -0.00000000000E+00 -0.89976364953E+03  0.89976364953E+03  0.00000000000E+00 0. -1.
         25    1    1    2    0    0  0.00000000000E+00  0.00000000000E+00 -0.89542223164E+03  0.90410506741E+03  0.12500000000E+03 0.  0.
<mgrwt>
<rscale>  0 0.12500000E+03</rscale>
<asrwt>0</asrwt>
<pdfrwt beam="1">  1       21 0.66791164E-03 0.12500000E+03</pdfrwt>
<pdfrwt beam="2">  1       21 0.13842493E+00 0.12500000E+03</pdfrwt>
<totfact> 0.26181469E+06</totfact>
</mgrwt>
</event>
<event>
 3    1  0.1594457E-001  0.1250000E+03  0.7546771E-02  0.1235069E+00
         21   -1    0    0  502  501  0.00000000000E+00  0.00000000000E+00  0.44390794949E+03  0.44390794949E+03  0.00000000000E+00 0. -1.
         21   -1    0    0  501  502 -0.00000000000E+00 -0.00000000000E+00 -0.87996847195E+01  0.87996847195E+01  0.00000000000E+00 0. -1.
         25    1    1    2    0    0  0.00000000000E+00  0.00000000000E+00  0.43510826477E+03  0.45270763421E+03  0.12500000000E+03 0.  0.
<mgrwt>
<rscale>  0 0.12500000E+03</rscale>
<asrwt>0</asrwt>
<pdfrwt beam="1">  1       21 0.68293513E-01 0.12500000E+03</pdfrwt>
<pdfrwt beam="2">  1       21 0.13537980E-02 0.12500000E+03</pdfrwt>
<totfact> 0.44730699E+06</totfact>
</mgrwt>
</event>
<event>
 3    1  0.1594457E-001  0.1250000E+03  0.7546771E-02  0.1235069E+00
         21   -1    0    0  502  501  0.00000000000E+00  0.00000000000E+00  0.10796551835E+02  0.10796551835E+02  0.00000000000E+00 0.  1.
         21   -1    0    0  501  502 -0.00000000000E+00 -0.00000000000E+00 -0.36180533005E+03  0.36180533005E+03  0.00000000000E+00 0.  1.
         25    1    1    2    0    0  0.00000000000E+00  0.00000000000E+00 -0.35100877822E+03  0.37260188189E+03  0.12500000000E+03 0.  0.
<mgrwt>
<rscale>  0 0.12500000E+03</rscale>
<asrwt>0</asrwt>
<pdfrwt beam="1">  1       21 0.16610079E-02 0.12500000E+03</pdfrwt>
<pdfrwt beam="2">  1       21 0.55662360E-01 0.12500000E+03</pdfrwt>
<totfact> 0.49911319E+06</totfact>
</mgrwt>
</event>
<event>
 3    1  0.1594457E-001  0.1250000E+03  0.7546771E-02  0.1235069E+00
         21   -1    0    0  502  501  0.00000000000E+00  0.00000000000E+00  0.79848125382E+01  0.79848125382E+01  0.00000000000E+00 0. -1.
         21   -1    0    0  501  502 -0.00000000000E+00 -0.00000000000E+00 -0.48920998224E+03  0.48920998224E+03  0.00000000000E+00 0. -1.
         25    1    1    2    0    0  0.00000000000E+00  0.00000000000E+00 -0.48122516970E+03  0.49719479478E+03  0.12500000000E+03 0.  0.
<mgrwt>
<rscale>  0 0.12500000E+03</rscale>
<asrwt>0</asrwt>
<pdfrwt beam="1">  1       21 0.12284325E-02 0.12500000E+03</pdfrwt>
<pdfrwt beam="2">  1       21 0.75263089E-01 0.12500000E+03</pdfrwt>
<totfact> 0.42196607E+06</totfact>
</mgrwt>
</event>
<event>
 3    1  0.1594457E-001  0.1250000E+03  0.7546771E-02  0.1235069E+00
         21   -1    0    0  502  501  0.00000000000E+00  0.00000000000E+00  0.70522350042E+01  0.70522350042E+01  0.00000000000E+00 0.  1.
         21   -1    0    0  501  502 -0.00000000000E+00 -0.00000000000E+00 -0.55390241501E+03  0.55390241501E+03  0.00000000000E+00 0.  1.
         25    1    1    2    0    0  0.00000000000E+00  0.00000000000E+00 -0.54685018000E+03  0.56095465001E+03  0.12500000000E+03 0.  0.
<mgrwt>
<rscale>  0 0.12500000E+03</rscale>
<asrwt>0</asrwt>
<pdfrwt beam="1">  1       21 0.10849594E-02 0.12500000E+03</pdfrwt>
<pdfrwt beam="2">  1       21 0.85215745E-01 0.12500000E+03</pdfrwt>
<totfact> 0.38920125E+06</totfact>
</mgrwt>
</event>
<event>
 3    1  0.1594457E-001  0.1250000E+03  0.7546771E-02  0.1235069E+00
         21   -1    0    0  502  501  0.00000000000E+00  0.00000000000E+00  0.12105341226E+04  0.12105341226E+04  0.00000000000E+00 0. -1.
         21   -1    0    0  501  502 -0.00000000000E+00 -0.00000000000E+00 -0.32268813635E+01  0.32268813635E+01  0.00000000000E+00 0. -1.
         25    1    1    2    0    0  0.00000000000E+00  0.00000000000E+00  0.12073072412E+04  0.12137610039E+04  0.12500000000E+03 0.  0.
<mgrwt>
<rscale>  0 0.12500000E+03</rscale>
<asrwt>0</asrwt>
<pdfrwt beam="1">  1       21 0.18623566E+00 0.12500000E+03</pdfrwt>
<pdfrwt beam="2">  1       21 0.49644425E-03 0.12500000E+03</pdfrwt>
<totfact> 0.18871325E+06</totfact>
</mgrwt>
</event>
<event>
 3    1  0.1594457E-001  0.1250000E+03  0.7546771E-02  0.1235069E+00
         21   -1    0    0  502  501  0.00000000000E+00  0.00000000000E+00  0.32278790085E+03  0.32278790085E+03  0.00000000000E+00 0.  1.
         21   -1    0    0  501  502 -0.00000000000E+00 -0.00000000000E+00 -0.12101599811E+02  0.12101599811E+02  0.00000000000E+00 0.  1.
         25    1    1    2    0    0  0.00000000000E+00  0.00000000000E+00  0.31068630104E+03  0.33488950066E+03  0.12500000000E+03 0.  0.
<mgrwt>
<rscale>  0 0.12500000E+03</rscale>
<asrwt>0</asrwt>
<pdfrwt beam="1">  1       21 0.49659671E-01 0.12500000E+03</pdfrwt>
<pdfrwt beam="2">  1       21 0.18617848E-02 0.12500000E+03</pdfrwt>
<totfact> 0.52674126E+06</totfact>
</mgrwt>
</event>
<event>
 3    1  0.1594457E-001  0.1250000E+03  0.7546771E-02  0.1235069E+00
         21   -1    0    0  502  501  0.00000000000E+00  0.00000000000E+00  0.65902634830E+02  0.65902634830E+02  0.00000000000E+00 0. -1.
         21   -1    0    0  501  502 -0.00000000000E+00 -0.00000000000E+00 -0.59273047429E+02  0.59273047429E+02  0.00000000000E+00 0. -1.
         25    1    1    2    0    0  0.00000000000E+00  0.00000000000E+00  0.66295874004E+01  0.12517568226E+03  0.12500000000E+03 0.  0.
<mgrwt>
<rscale>  0 0.12500000E+03</rscale>
<asrwt>0</asrwt>
<pdfrwt beam="1">  1       21 0.10138867E-01 0.12500000E+03</pdfrwt>
<pdfrwt beam="2">  1       21 0.91189304E-02 0.12500000E+03</pdfrwt>
<totfact> 0.74019855E+06</totfact>
</mgrwt>
</event>
<event>
 3    1  0.1594457E-001  0.1250000E+03  0.7546771E-02  0.1235069E+00
         21   -1    0    0  502  501  0.00000000000E+00  0.00000000000E+00  0.88645770190E+03  0.88645770190E+03  0.00000000000E+00 0. -1.
         21   -1    0    0  501  502 -0.00000000000E+00 -0.00000000000E+00 -0.44065836324E+01  0.44065836324E+01  0.00000000000E+00 0. -1.
         25    1    1    2    0    0  0.00000000000E+00  0.00000000000E+00  0.88205111826E+03  0.89086428553E+03  0.12500000000E+03 0.  0.
<mgrwt>
<rscale>  0 0.12500000E+03</rscale>
<asrwt>0</asrwt>
<pdfrwt beam="1">  1       21 0.13637797E+00 0.12500000E+03</pdfrwt>
<pdfrwt beam="2">  1       21 0.67793665E-03 0.12500000E+03</pdfrwt>
<totfact> 0.26562493E+06</totfact>
</mgrwt>
</event>
<event>
 3    1  0.1594457E-001  0.1250000E+03  0.7546771E-02  0.1235069E+00
         21   -1    0    0  502  501  0.00000000000E+00  0.00000000000E+00  0.32968386671E+01  0.32968386671E+01  0.00000000000E+00 0. -1.
         21   -1    0    0  501  502 -0.00000000000E+00 -0.00000000000E+00 -0.11848471807E+04  0.11848471807E+04  0.00000000000E+00 0. -1.
         25    1    1    2    0    0  0.00000000000E+00  0.00000000000E+00 -0.11815503420E+04  0.11881440194E+04  0.12500000000E+03 0.  0.
<mgrwt>
<rscale>  0 0.12500000E+03</rscale>
<asrwt>0</asrwt>
<pdfrwt beam="1">  1       21 0.50720577E-03 0.12500000E+03</pdfrwt>
<pdfrwt beam="2">  1       21 0.18228424E+00 0.12500000E+03</pdfrwt>
<totfact> 0.19381243E+06</totfact>
</mgrwt>
</event>
<event>
 3    1  0.1594457E-001  0.1250000E+03  0.7546771E-02  0.1235069E+00
         21   -1    0    0  502  501  0.00000000000E+00  0.00000000000E+00  0.18580459448E+04  0.18580459448E+04  0.00000000000E+00 0. -1.
         21   -1    0    0  501  502 -0.00000000000E+00 -0.00000000000E+00 -0.21023430615E+01  0.21023430615E+01  0.00000000000E+00 0. -1.
         25    1    1    2    0    0  0.00000000000E+00  0.00000000000E+00  0.18559436018E+04  0.18601482879E+04  0.12500000000E+03 0.  0.
<mgrwt>
<rscale>  0 0.12500000E+03</rscale>
<asrwt>0</asrwt>
<pdfrwt beam="1">  1       21 0.28585191E+00 0.12500000E+03</pdfrwt>
<pdfrwt beam="2">  1       21 0.32343888E-03 0.12500000E+03</pdfrwt>
<totfact> 0.93947380E+05</totfact>
</mgrwt>
</event>
<event>
 3    1  0.1594457E-001  0.1250000E+03  0.7546771E-02  0.1235069E+00
         21   -1    0    0  502  501  0.00000000000E+00  0.00000000000E+00  0.60315027554E+01  0.60315027554E+01  0.00000000000E+00 0. -1.
         21   -1    0    0  501  502 -0.00000000000E+00 -0.00000000000E+00 -0.64764125267E+03  0.64764125267E+03  0.00000000000E+00 0. -1.
         25    1    1    2    0    0  0.00000000000E+00  0.00000000000E+00 -0.64160974991E+03  0.65367275543E+03  0.12500000000E+03 0.  0.
<mgrwt>
<rscale>  0 0.12500000E+03</rscale>
<asrwt>0</asrwt>
<pdfrwt beam="1">  1       21 0.92792306E-03 0.12500000E+03</pdfrwt>
<pdfrwt beam="2">  1       21 0.99637163E-01 0.12500000E+03</pdfrwt>
<totfact> 0.34772233E+06</totfact>
</mgrwt>
</event>
<event>
 3    1  0.1594457E-001  0.1250000E+03  0.7546771E-02  0.1235069E+00
         21   -1    0    0  502  501  0.00000000000E+00  0.00000000000E+00  0.31538411434E+02  0.31538411434E+02  0.00000000000E+00 0. -1.
         21   -1    0    0  501  502 -0.00000000000E+00 -0.00000000000E+00 -0.12385690409E+03  0.12385690409E+03  0.00000000000E+00 0. -1.
         25    1    1    2    0    0  0.00000000000E+00  0.00000000000E+00 -0.92318492653E+02  0.15539531552E+03  0.12500000000E+03 0.  0.
<mgrwt>
<rscale>  0 0.12500000E+03</rscale>
<asrwt>0</asrwt>
<pdfrwt beam="1">  1       21 0.48520632E-02 0.12500000E+03</pdfrwt>
<pdfrwt beam="2">  1       21 0.19054909E-01 0.12500000E+03</pdfrwt>
<totfact> 0.70086559E+06</totfact>
</mgrwt>
</event>
<event>
 3    1  0.1594457E-001  0.1250000E+03  0.7546771E-02  0.1235069E+00
         21   -1    0    0  502  501  0.00000000000E+00  0.00000000000E+00  0.14477720815E+03  0.14477720815E+03  0.00000000000E+00 0. -1.
         21   -1    0    0  501  502 -0.00000000000E+00 -0.00000000000E+00 -0.26981111530E+02  0.26981111530E+02  0.00000000000E+00 0. -1.
         25    1    1    2    0    0  0.00000000000E+00  0.00000000000E+00  0.11779609662E+03  0.17175831968E+03  0.12500000000E+03 0.  0.
<mgrwt>
<rscale>  0 0.12500000E+03</rscale>
<asrwt>0</asrwt>
<pdfrwt beam="1">  1       21 0.22273416E-01 0.12500000E+03</pdfrwt>
<pdfrwt beam="2">  1       21 0.41509403E-02 0.12500000E+03</pdfrwt>
<totfact> 0.68109806E+06</totfact>
</mgrwt>
</event>
<event>
 3    1  0.1594457E-001  0.1250000E+03  0.7546771E-02  0.1235069E+00
         21   -1    0    0  502  501  0.00000000000E+00  0.00000000000E+00  0.85540625159E+03  0.85540625159E+03  0.00000000000E+00 0.  1.
         21   -1    0    0  501  502 -0.00000000000E+00 -0.00000000000E+00 -0.45665436659E+01  0.45665436659E+01  0.00000000000E+00 0.  1.
         25    1    1    2    0    0  0.00000000000E+00  0.00000000000E+00  0.85083970793E+03  0.85997279526E+03  0.12500000000E+03 0.  0.
<mgrwt>
<rscale>  0 0.12500000E+03</rscale>
<asrwt>0</asrwt>
<pdfrwt beam="1">  1       21 0.13160083E+00 0.12500000E+03</pdfrwt>
<pdfrwt beam="2">  1       21 0.70254586E-03 0.12500000E+03</pdfrwt>
<totfact> 0.27469492E+06</totfact>
</mgrwt>
</event>
<event>
 3    1  0.1594457E-001  0.1250000E+03  0.7546771E-02  0.1235069E+00
         21   -1    0    0  502  501  0.00000000000E+00  0.00000000000E+00  0.54988552916E+02  0.54988552916E+02  0.00000000000E+00 0.  1.
         21   -1    0    0  501  502 -0.00000000000E+00 -0.00000000000E+00 -0.71037512225E+02  0.71037512225E+02  0.00000000000E+00 0.  1.
         25    1    1    2    0    0  0.00000000000E+00  0.00000000000E+00 -0.16048959309E+02  0.12602606514E+03  0.12500000000E+03 0.  0.
<mgrwt>
<rscale>  0 0.12500000E+03</rscale>
<asrwt>0</asrwt>
<pdfrwt beam="1">  1       21 0.84597774E-02 0.12500000E+03</pdfrwt>
<pdfrwt beam="2">  1       21 0.10928848E-01 0.12500000E+03</pdfrwt>
<totfact> 0.73902445E+06</totfact>
</mgrwt>
</event>
<event>
 3    1  0.1594457E-001  0.1250000E+03  0.7546771E-02  0.1235069E+00
         21   -1    0    0  502  501  0.00000000000E+00  0.00000000000E+00  0.85868278402E+02  0.85868278402E+02  0.00000000000E+00 0. -1.
         21   -1    0    0  501  502 -0.00000000000E+00 -0.00000000000E+00 -0.45491188046E+02  0.45491188046E+02  0.00000000000E+00 0. -1.
         25    1    1    2    0    0  0.00000000000E+00  0.00000000000E+00  0.40377090356E+02  0.13135946645E+03  0.12500000000E+03 0.  0.
<mgrwt>
<rscale>  0 0.12500000E+03</rscale>
<asrwt>0</asrwt>
<pdfrwt beam="1">  1       21 0.13210504E-01 0.12500000E+03</pdfrwt>
<pdfrwt beam="2">  1       21 0.69986443E-02 0.12500000E+03</pdfrwt>
<totfact> 0.73182271E+06</totfact>
</mgrwt>
</event>
<event>
 3    1  0.1594457E-001  0.1250000E+03  0.7546771E-02  0.1235069E+00
         21   -1    0    0  502  501  0.00000000000E+00  0.00000000000E+00  0.11542131257E+02  0.11542131257E+02  0.00000000000E+00 0.  1.
         21   -1    0    0  501  502 -0.00000000000E+00 -0.00000000000E+00 -0.33843403033E+03  0.33843403033E+03  0.00000000000E+00 0.  1.
         25    1    1    2    0    0  0.00000000000E+00  0.00000000000E+00 -0.32689189907E+03  0.34997616159E+03  0.12500000000E+03 0.  0.
<mgrwt>
<rscale>  0 0.12500000E+03</rscale>
<asrwt>0</asrwt>
<pdfrwt beam="1">  1       21 0.17757124E-02 0.12500000E+03</pdfrwt>
<pdfrwt beam="2">  1       21 0.52066776E-01 0.12500000E+03</pdfrwt>
<totfact> 0.51540191E+06</totfact>
</mgrwt>
</event>
<event>
 3    1  0.1594457E-001  0.1250000E+03  0.7546771E-02  0.1235069E+00
         21   -1    0    0  502  501  0.00000000000E+00  0.00000000000E+00  0.57704110462E+02  0.57704110462E+02  0.00000000000E+00 0.  1.
         21   -1    0    0  501  502 -0.00000000000E+00 -0.00000000000E+00 -0.67694484305E+02  0.67694484305E+02  0.00000000000E+00 0.  1.
         25    1    1    2    0    0  0.00000000000E+00  0.00000000000E+00 -0.99903738422E+01  0.12539859477E+03  0.12500000000E+03 0.  0.
<mgrwt>
<rscale>  0 0.12500000E+03</rscale>
<asrwt>0</asrwt>
<pdfrwt beam="1">  1       21 0.88775555E-02 0.12500000E+03</pdfrwt>
<pdfrwt beam="2">  1       21 0.10414536E-01 0.12500000E+03</pdfrwt>
<totfact> 0.73989609E+06</totfact>
</mgrwt>
</event>
<event>
 3    1  0.1594457E-001  0.1250000E+03  0.7546771E-02  0.1235069E+00
         21   -1    0    0  502  501  0.00000000000E+00  0.00000000000E+00  0.13981957173E+02  0.13981957173E+02  0.00000000000E+00 0. -1.
         21   -1    0    0  501  502 -0.00000000000E+00 -0.00000000000E+00 -0.27937791195E+03  0.27937791195E+03  0.00000000000E+00 0. -1.
         25    1    1    2    0    0  0.00000000000E+00  0.00000000000E+00 -0.26539595478E+03  0.29335986913E+03  0.12500000000E+03 0.  0.
<mgrwt>
<rscale>  0 0.12500000E+03</rscale>
<asrwt>0</asrwt>
<pdfrwt beam="1">  1       21 0.21510705E-02 0.12500000E+03</pdfrwt>
<pdfrwt beam="2">  1       21 0.42981215E-01 0.12500000E+03</pdfrwt>
<totfact> 0.56012549E+06</totfact>
</mgrwt>
</event>
<event>
 3    1  0.1594457E-001  0.1250000E+03  0.7546771E-02  0.1235069E+00
         21   -1    0    0  502  501  0.00000000000E+00  0.00000000000E+00  0.30867513954E+02  0.30867513954E+02  0.00000000000E+00 0. -1.
         21   -1    0    0  501  502 -0.00000000000E+00 -0.00000000000E+00 -0.12654890205E+03  0.12654890205E+03  0.00000000000E+00 0. -1.
         25    1    1    2    0    0  0.00000000000E+00  0.00000000000E+00 -0.95681388101E+02  0.15741641601E+03  0.12500000000E+03 0.  0.
<mgrwt>
<rscale>  0 0.12500000E+03</rscale>
<asrwt>0</asrwt>
<pdfrwt beam="1">  1       21 0.47488483E-02 0.12500000E+03</pdfrwt>
<pdfrwt beam="2">  1       21 0.19469062E-01 0.12500000E+03</pdfrwt>
<totfact> 0.69836568E+06</totfact>
</mgrwt>
</event>
<event>
 3    1  0.1594457E-001  0.1250000E+03  0.7546771E-02  0.1235069E+00
         21   -1    0    0  502  501  0.00000000000E+00  0.00000000000E+00  0.81903307233E+02  0.81903307233E+02  0.00000000000E+00 0. -1.
         21   -1    0    0  501  502 -0.00000000000E+00 -0.00000000000E+00 -0.47693434270E+02  0.47693434270E+02  0.00000000000E+00 0. -1.
         25    1    1    2    0    0  0.00000000000E+00  0.00000000000E+00  0.34209872964E+02  0.12959674150E+03  0.12500000000E+03 0.  0.
<mgrwt>
<rscale>  0 0.12500000E+03</rscale>
<asrwt>0</asrwt>
<pdfrwt beam="1">  1       21 0.12600509E-01 0.12500000E+03</pdfrwt>
<pdfrwt beam="2">  1       21 0.73374514E-02 0.12500000E+03</pdfrwt>
<totfact> 0.73418860E+06</totfact>
</mgrwt>
</event>
<event>
 3    1  0.1594457E-001  0.1250000E+03  0.7546771E-02  0.1235069E+00
         21   -1    0    0  502  501  0.00000000000E+00  0.00000000000E+00  0.60925152758E+02  0.60925152758E+02  0.00000000000E+00 0. -1.
         21   -1    0    0  501  502 -0.00000000000E+00 -0.00000000000E+00 -0.64115555286E+02  0.64115555286E+02  0.00000000000E+00 0. -1.
         25    1    1    2    0    0  0.00000000000E+00  0.00000000000E+00 -0.31904025278E+01  0.12504070804E+03  0.12500000000E+03 0.  0.
<mgrwt>
<rscale>  0 0.12500000E+03</rscale>
<asrwt>0</asrwt>
<pdfrwt beam="1">  1       21 0.93731004E-02 0.12500000E+03</pdfrwt>
<pdfrwt beam="2">  1       21 0.98639316E-02 0.12500000E+03</pdfrwt>
<totfact> 0.74038083E+06</totfact>
</mgrwt>
</event>
<event>
 3    1  0.1594457E-001  0.1250000E+03  0.7546771E-02  0.1235069E+00
         21   -1    0    0  502  501  0.00000000000E+00  0.00000000000E+00  0.95537019502E+03  0.95537019502E+03  0.00000000000E+00 0. -1.
         21   -1    0    0  501  502 -0.00000000000E+00 -0.00000000000E+00 -0.40887291862E+01  0.40887291862E+01  0.00000000000E+00 0. -1.
         25    1    1    2    0    0  0.00000000000E+00  0.00000000000E+00  0.95128146583E+03  0.95945892420E+03  0.12500000000E+03 0.  0.
<mgrwt>
<rscale>  0 0.12500000E+03</rscale>
<asrwt>0</asrwt>
<pdfrwt beam="1">  1       21 0.14697985E+00 0.12500000E+03</pdfrwt>
<pdfrwt beam="2">  1       21 0.62903602E-03 0.12500000E+03</pdfrwt>
<totfact> 0.24659882E+06</totfact>
</mgrwt>
</event>
<event>
 3    1  0.1594457E-001  0.1250000E+03  0.7546771E-02  0.1235069E+00
         21   -1    0    0  502  501  0.00000000000E+00  0.00000000000E+00  0.36277037496E+02  0.36277037496E+02  0.00000000000E+00 0. -1.
         21   -1    0    0  501  502 -0.00000000000E+00 -0.00000000000E+00 -0.10767830754E+03  0.10767830754E+03  0.00000000000E+00 0. -1.
         25    1    1    2    0    0  0.00000000000E+00  0.00000000000E+00 -0.71401270040E+02  0.14395534503E+03  0.12500000000E+03 0.  0.
<mgrwt>
<rscale>  0 0.12500000E+03</rscale>
<asrwt>0</asrwt>
<pdfrwt beam="1">  1       21 0.55810828E-02 0.12500000E+03</pdfrwt>
<pdfrwt beam="2">  1       21 0.16565893E-01 0.12500000E+03</pdfrwt>
<totfact> 0.71527058E+06</totfact>
</mgrwt>
</event>
<event>
 3    1  0.1594457E-001  0.1250000E+03  0.7546771E-02  0.1235069E+00
         21   -1    0    0  502  501  0.00000000000E+00  0.00000000000E+00  0.24138195968E+03  0.24138195968E+03  0.00000000000E+00 0. -1.
         21   -1    0    0  501  502 -0.00000000000E+00 -0.00000000000E+00 -0.16182858094E+02  0.16182858094E+02  0.00000000000E+00 0. -1.
         25    1    1    2    0    0  0.00000000000E+00  0.00000000000E+00  0.22519910158E+03  0.25756481777E+03  0.12500000000E+03 0.  0.
<mgrwt>
<rscale>  0 0.12500000E+03</rscale>
<asrwt>0</asrwt>
<pdfrwt beam="1">  1       21 0.37135683E-01 0.12500000E+03</pdfrwt>
<pdfrwt beam="2">  1       21 0.24896707E-02 0.12500000E+03</pdfrwt>
<totfact> 0.59173195E+06</totfact>
</mgrwt>
</event>
<event>
 3    1  0.1594457E-001  0.1250000E+03  0.7546771E-02  0.1235069E+00
         21   -1    0    0  502  501  0.00000000000E+00  0.00000000000E+00  0.22373323178E+03  0.22373323178E+03  0.00000000000E+00 0. -1.
         21   -1    0    0  501  502 -0.00000000000E+00 -0.00000000000E+00 -0.17459408998E+02  0.17459408998E+02  0.00000000000E+00 0. -1.
         25    1    1    2    0    0  0.00000000000E+00  0.00000000000E+00  0.20627382278E+03  0.24119264077E+03  0.12500000000E+03 0.  0.
<mgrwt>
<rscale>  0 0.12500000E+03</rscale>
<asrwt>0</asrwt>
<pdfrwt beam="1">  1       21 0.34420495E-01 0.12500000E+03</pdfrwt>
<pdfrwt beam="2">  1       21 0.26860631E-02 0.12500000E+03</pdfrwt>
<totfact> 0.60717445E+06</totfact>
</mgrwt>
</event>
<event>
 3    1  0.1594457E-001  0.1250000E+03  0.7546771E-02  0.1235069E+00
         21   -1    0    0  502  501  0.00000000000E+00  0.00000000000E+00  0.46619564858E+01  0.46619564858E+01  0.00000000000E+00 0. -1.
         21   -1    0    0  501  502 -0.00000000000E+00 -0.00000000000E+00 -0.83789928368E+03  0.83789928368E+03  0.00000000000E+00 0. -1.
         25    1    1    2    0    0  0.00000000000E+00  0.00000000000E+00 -0.83323732719E+03  0.84256124017E+03  0.12500000000E+03 0.  0.
<mgrwt>
<rscale>  0 0.12500000E+03</rscale>
<asrwt>0</asrwt>
<pdfrwt beam="1">  1       21 0.71722347E-03 0.12500000E+03</pdfrwt>
<pdfrwt beam="2">  1       21 0.12890769E+00 0.12500000E+03</pdfrwt>
<totfact> 0.28000313E+06</totfact>
</mgrwt>
</event>
<event>
 3    1  0.1594457E-001  0.1250000E+03  0.7546771E-02  0.1235069E+00
         21   -1    0    0  502  501  0.00000000000E+00  0.00000000000E+00  0.10682785809E+03  0.10682785809E+03  0.00000000000E+00 0.  1.
         21   -1    0    0  501  502 -0.00000000000E+00 -0.00000000000E+00 -0.36565836571E+02  0.36565836571E+02  0.00000000000E+00 0.  1.
         25    1    1    2    0    0  0.00000000000E+00  0.00000000000E+00  0.70262021515E+02  0.14339369466E+03  0.12500000000E+03 0.  0.
<mgrwt>
<rscale>  0 0.12500000E+03</rscale>
<asrwt>0</asrwt>
<pdfrwt beam="1">  1       21 0.16435055E-01 0.12500000E+03</pdfrwt>
<pdfrwt beam="2">  1       21 0.56255134E-02 0.12500000E+03</pdfrwt>
<totfact> 0.71599306E+06</totfact>
</mgrwt>
</event>
<event>
 3    1  0.1594457E-001  0.1250000E+03  0.7546771E-02  0.1235069E+00
         21   -1    0    0  502  501  0.00000000000E+00  0.00000000000E+00  0.21306162100E+02  0.21306162100E+02  0.00000000000E+00 0.  1.
         21   -1    0    0  501  502 -0.00000000000E+00 -0.00000000000E+00 -0.18333897873E+03  0.18333897873E+03  0.00000000000E+00 0.  1.
         25    1    1    2    0    0  0.00000000000E+00  0.00000000000E+00 -0.16203281663E+03  0.20464514083E+03  0.12500000000E+03 0.  0.
<mgrwt>
<rscale>  0 0.12500000E+03</rscale>
<asrwt>0</asrwt>
<pdfrwt beam="1">  1       21 0.32778710E-02 0.12500000E+03</pdfrwt>
<pdfrwt beam="2">  1       21 0.28205997E-01 0.12500000E+03</pdfrwt>
<totfact> 0.64427369E+06</totfact>
</mgrwt>
</event>
<event>
 3    1  0.1594457E-001  0.1250000E+03  0.7546771E-02  0.1235069E+00
         21   -1    0    0  502  501  0.00000000000E+00  0.00000000000E+00  0.44556925754E+03  0.44556925754E+03  0.00000000000E+00 0.  1.
         21   -1    0    0  501  502 -0.00000000000E+00 -0.00000000000E+00 -0.87668750344E+01  0.87668750344E+01  0.00000000000E+00 0.  1.
         25    1    1    2    0    0  0.00000000000E+00  0.00000000000E+00  0.43680238250E+03  0.45433613257E+03  0.12500000000E+03 0.  0.
<mgrwt>
<rscale>  0 0.12500000E+03</rscale>
<asrwt>0</asrwt>
<pdfrwt beam="1">  1       21 0.68549099E-01 0.12500000E+03</pdfrwt>
<pdfrwt beam="2">  1       21 0.13487504E-02 0.12500000E+03</pdfrwt>
<totfact> 0.44633943E+06</totfact>
</mgrwt>
</event>
<event>
 3    1  0.1594457E-001  0.1250000E+03  0.7546771E-02  0.1235069E+00
         21   -1    0    0  502  501  0.00000000000E+00  0.00000000000E+00  0.11040961373E+04  0.11040961373E+04  0.00000000000E+00 0. -1.
         21   -1    0    0  501  502 -0.00000000000E+00 -0.00000000000E+00 -0.35379618387E+01  0.35379618387E+01  0.00000000000E+00 0. -1.
         25    1    1    2    0    0  0.00000000000E+00  0.00000000000E+00  0.11005581755E+04  0.11076340991E+04  0.12500000000E+03 0.  0.
<mgrwt>
<rscale>  0 0.12500000E+03</rscale>
<asrwt>0</asrwt>
<pdfrwt beam="1">  1       21 0.16986067E+00 0.12500000E+03</pdfrwt>
<pdfrwt beam="2">  1       21 0.54430270E-03 0.12500000E+03</pdfrwt>
<totfact> 0.21082462E+06</totfact>
</mgrwt>
</event>
<event>
 3    1  0.1594457E-001  0.1250000E+03  0.7546771E-02  0.1235069E+00
         21   -1    0    0  502  501  0.00000000000E+00  0.00000000000E+00  0.32242077029E+02  0.32242077029E+02  0.00000000000E+00 0.  1.
         21   -1    0    0  501  502 -0.00000000000E+00 -0.00000000000E+00 -0.12115379529E+03  0.12115379529E+03  0.00000000000E+00 0.  1.
         25    1    1    2    0    0  0.00000000000E+00  0.00000000000E+00 -0.88911718260E+02  0.15339587232E+03  0.12500000000E+03 0.  0.
<mgrwt>
<rscale>  0 0.12500000E+03</rscale>
<asrwt>0</asrwt>
<pdfrwt beam="1">  1       21 0.49603195E-02 0.12500000E+03</pdfrwt>
<pdfrwt beam="2">  1       21 0.18639045E-01 0.12500000E+03</pdfrwt>
<totfact> 0.70335178E+06</totfact>
</mgrwt>
</event>
<event>
 3    1  0.1594457E-001  0.1250000E+03  0.7546771E-02  0.1235069E+00
         21   -1    0    0  502  501  0.00000000000E+00  0.00000000000E+00  0.37146099907E+02  0.37146099907E+02  0.00000000000E+00 0.  1.
         21   -1    0    0  501  502 -0.00000000000E+00 -0.00000000000E+00 -0.10515908830E+03  0.10515908830E+03  0.00000000000E+00 0.  1.
         25    1    1    2    0    0  0.00000000000E+00  0.00000000000E+00 -0.68012988391E+02  0.14230518820E+03  0.12500000000E+03 0.  0.
<mgrwt>
<rscale>  0 0.12500000E+03</rscale>
<asrwt>0</asrwt>
<pdfrwt beam="1">  1       21 0.57147846E-02 0.12500000E+03</pdfrwt>
<pdfrwt beam="2">  1       21 0.16178321E-01 0.12500000E+03</pdfrwt>
<totfact> 0.71739781E+06</totfact>
</mgrwt>
</event>
<event>
 3    1  0.1594457E-001  0.1250000E+03  0.7546771E-02  0.1235069E+00
         21   -1    0    0  502  501  0.00000000000E+00  0.00000000000E+00  0.68286997866E+02  0.68286997866E+02  0.00000000000E+00 0.  1.
         21   -1    0    0  501  502 -0.00000000000E+00 -0.00000000000E+00 -0.57203422644E+02  0.57203422644E+02  0.00000000000E+00 0.  1.
         25    1    1    2    0    0  0.00000000000E+00  0.00000000000E+00  0.11083575221E+02  0.12549042051E+03  0.12500000000E+03 0.  0.
<mgrwt>
<rscale>  0 0.12500000E+03</rscale>
<asrwt>0</asrwt>
<pdfrwt beam="1">  1       21 0.10505692E-01 0.12500000E+03</pdfrwt>
<pdfrwt beam="2">  1       21 0.88005265E-02 0.12500000E+03</pdfrwt>
<totfact> 0.73976736E+06</totfact>
</mgrwt>
</event>
<event>
 3    1  0.1594457E-001  0.1250000E+03  0.7546771E-02  0.1235069E+00
         21   -1    0    0  502  501  0.00000000000E+00  0.00000000000E+00  0.76875081424E+03  0.76875081424E+03  0.00000000000E+00 0.  1.
         21   -1    0    0  501  502 -0.00000000000E+00 -0.00000000000E+00 -0.50812954311E+01  0.50812954311E+01  0.00000000000E+00 0.  1.
         25    1    1    2    0    0  0.00000000000E+00  0.00000000000E+00  0.76366951881E+03  0.77383210967E+03  0.12500000000E+03 0.  0.
<mgrwt>
<rscale>  0 0.12500000E+03</rscale>
<asrwt>0</asrwt>
<pdfrwt beam="1">  1       21 0.11826926E+00 0.12500000E+03</pdfrwt>
<pdfrwt beam="2">  1       21 0.78173837E-03 0.12500000E+03</pdfrwt>
<totfact> 0.30247817E+06</totfact>
</mgrwt>
</event>
<event>
 3    1  0.1594457E-001  0.1250000E+03  0.7546771E-02  0.1235069E+00
         21   -1    0    0  502  501  0.00000000000E+00  0.00000000000E+00  0.43807438481E+03  0.43807438481E+03  0.00000000000E+00 0.  1.
         21   -1    0    0  501  502 -0.00000000000E+00 -0.00000000000E+00 -0.89168646592E+01  0.89168646592E+01  0.00000000000E+00 0.  1.
         25    1    1    2    0    0  0.00000000000E+00  0.00000000000E+00  0.42915752015E+03  0.44699124947E+03  0.12500000000E+03 0.  0.
<mgrwt>
<rscale>  0 0.12500000E+03</rscale>
<asrwt>0</asrwt>
<pdfrwt beam="1">  1       21 0.67396043E-01 0.12500000E+03</pdfrwt>
<pdfrwt beam="2">  1       21 0.13718257E-02 0.12500000E+03</pdfrwt>
<totfact> 0.45072861E+06</totfact>
</mgrwt>
</event>
<event>
 3    1  0.1594457E-001  0.1250000E+03  0.7546771E-02  0.1235069E+00
         21   -1    0    0  502  501  0.00000000000E+00  0.00000000000E+00  0.20728388275E+03  0.20728388275E+03  0.00000000000E+00 0. -1.
         21   -1    0    0  501  502 -0.00000000000E+00 -0.00000000000E+00 -0.18844928743E+02  0.18844928743E+02  0.00000000000E+00 0. -1.
         25    1    1    2    0    0  0.00000000000E+00  0.00000000000E+00  0.18843895400E+03  0.22612881149E+03  0.12500000000E+03 0.  0.
<mgrwt>
<rscale>  0 0.12500000E+03</rscale>
<asrwt>0</asrwt>
<pdfrwt beam="1">  1       21 0.31889826E-01 0.12500000E+03</pdfrwt>
<pdfrwt beam="2">  1       21 0.28992200E-02 0.12500000E+03</pdfrwt>
<totfact> 0.62201353E+06</totfact>
</mgrwt>
</event>
<event>
 3    1  0.1594457E-001  0.1250000E+03  0.7546771E-02  0.1235069E+00
         21   -1    0    0  502  501  0.00000000000E+00  0.00000000000E+00  0.79613652039E+03  0.79613652039E+03  0.00000000000E+00 0.  1.
         21   -1    0    0  501  502 -0.00000000000E+00 -0.00000000000E+00 -0.49065077408E+01  0.49065077408E+01  0.00000000000E+00 0.  1.
         25    1    1    2    0    0  0.00000000000E+00  0.00000000000E+00  0.79123001265E+03  0.80104302813E+03  0.12500000000E+03 0.  0.
<mgrwt>
<rscale>  0 0.12500000E+03</rscale>
<asrwt>0</asrwt>
<pdfrwt beam="1">  1       21 0.12248244E+00 0.12500000E+03</pdfrwt>
<pdfrwt beam="2">  1       21 0.75484798E-03 0.12500000E+03</pdfrwt>
<totfact> 0.29328307E+06</totfact>
</mgrwt>
</event>
<event>
 3    1  0.1594457E-001  0.1250000E+03  0.7546771E-02  0.1235069E+00
         21   -1    0    0  502  501  0.00000000000E+00  0.00000000000E+00  0.16498690891E+02  0.16498690891E+02  0.00000000000E+00 0.  1.
         21   -1    0    0  501  502 -0.00000000000E+00 -0.00000000000E+00 -0.23676120886E+03  0.23676120886E+03  0.00000000000E+00 0.  1.
         25    1    1    2    0    0  0.00000000000E+00  0.00000000000E+00 -0.22026251797E+03  0.25325989975E+03  0.12500000000E+03 0.  0.
<mgrwt>
<rscale>  0 0.12500000E+03</rscale>
<asrwt>0</asrwt>
<pdfrwt beam="1">  1       21 0.25382603E-02 0.12500000E+03</pdfrwt>
<pdfrwt beam="2">  1       21 0.36424799E-01 0.12500000E+03</pdfrwt>
<totfact> 0.59572626E+06</totfact>
</mgrwt>
</event>
<event>
 3    1  0.1594457E-001  0.1250000E+03  0.7546771E-02  0.1235069E+00
         21   -1    0    0  502  501  0.00000000000E+00  0.00000000000E+00  0.92965720244E+02  0.92965720244E+02  0.00000000000E+00 0. -1.
         21   -1    0    0  501  502 -0.00000000000E+00 -0.00000000000E+00 -0.42018176052E+02  0.42018176052E+02  0.00000000000E+00 0. -1.
         25    1    1    2    0    0  0.00000000000E+00  0.00000000000E+00  0.50947544192E+02  0.13498389630E+03  0.12500000000E+03 0.  0.
<mgrwt>
<rscale>  0 0.12500000E+03</rscale>
<asrwt>0</asrwt>
<pdfrwt beam="1">  1       21 0.14302418E-01 0.12500000E+03</pdfrwt>
<pdfrwt beam="2">  1       21 0.64643348E-02 0.12500000E+03</pdfrwt>
<totfact> 0.72698604E+06</totfact>
</mgrwt>
</event>
<event>
 3    1  0.1594457E-001  0.1250000E+03  0.7546771E-02  0.1235069E+00
         21   -1    0    0  502  501  0.00000000000E+00  0.00000000000E+00  0.15141040843E+03  0.15141040843E+03  0.00000000000E+00 0. -1.
         21   -1    0    0  501  502 -0.00000000000E+00 -0.00000000000E+00 -0.25799085019E+02  0.25799085019E+02  0.00000000000E+00 0. -1.
         25    1    1    2    0    0  0.00000000000E+00  0.00000000000E+00  0.12561132341E+03  0.17720949345E+03  0.12500000000E+03 0.  0.
<mgrwt>
<rscale>  0 0.12500000E+03</rscale>
<asrwt>0</asrwt>
<pdfrwt beam="1">  1       21 0.23293908E-01 0.12500000E+03</pdfrwt>
<pdfrwt beam="2">  1       21 0.39690901E-02 0.12500000E+03</pdfrwt>
<totfact> 0.67473105E+06</totfact>
</mgrwt>
</event>
<event>
 3    1  0.1594457E-001  0.1250000E+03  0.7546771E-02  0.1235069E+00
         21   -1    0    0  502  501  0.00000000000E+00  0.00000000000E+00  0.15918739270E+02  0.15918739270E+02  0.00000000000E+00 0. -1.
         21   -1    0    0  501  502 -0.00000000000E+00 -0.00000000000E+00 -0.24538689488E+03  0.24538689488E+03  0.00000000000E+00 0. -1.
         25    1    1    2    0    0  0.00000000000E+00  0.00000000000E+00 -0.22946815561E+03  0.26130563415E+03  0.12500000000E+03 0.  0.
<mgrwt>
<rscale>  0 0.12500000E+03</rscale>
<asrwt>0</asrwt>
<pdfrwt beam="1">  1       21 0.24490368E-02 0.12500000E+03</pdfrwt>
<pdfrwt beam="2">  1       21 0.37751830E-01 0.12500000E+03</pdfrwt>
<totfact> 0.58829808E+06</totfact>
</mgrwt>
</event>
<event>
 3    1  0.1594457E-001  0.1250000E+03  0.7546771E-02  0.1235069E+00
         21   -1    0    0  502  501  0.00000000000E+00  0.00000000000E+00  0.37541109945E+03  0.37541109945E+03  0.00000000000E+00 0.  1.
         21   -1    0    0  501  502 -0.00000000000E+00 -0.00000000000E+00 -0.10405259742E+02  0.10405259742E+02  0.00000000000E+00 0.  1.
         25    1    1    2    0    0  0.00000000000E+00  0.00000000000E+00  0.36500583971E+03  0.38581635919E+03  0.12500000000E+03 0.  0.
<mgrwt>
<rscale>  0 0.12500000E+03</rscale>
<asrwt>0</asrwt>
<pdfrwt beam="1">  1       21 0.57755543E-01 0.12500000E+03</pdfrwt>
<pdfrwt beam="2">  1       21 0.16008095E-02 0.12500000E+03</pdfrwt>
<totfact> 0.48996592E+06</totfact>
</mgrwt>
</event>
<event>
 3    1  0.1594457E-001  0.1250000E+03  0.7546771E-02  0.1235069E+00
         21   -1    0    0  502  501  0.00000000000E+00  0.00000000000E+00  0.61807782382E+02  0.61807782382E+02  0.00000000000E+00 0.  1.
         21   -1    0    0  501  502 -0.00000000000E+00 -0.00000000000E+00 -0.63199970125E+02  0.63199970125E+02  0.00000000000E+00 0.  1.
         25    1    1    2    0    0  0.00000000000E+00  0.00000000000E+00 -0.13921877430E+01  0.12500775251E+03  0.12500000000E+03 0.  0.
<mgrwt>
<rscale>  0 0.12500000E+03</rscale>
<asrwt>0</asrwt>
<pdfrwt beam="1">  1       21 0.95088896E-02 0.12500000E+03</pdfrwt>
<pdfrwt beam="2">  1       21 0.97230724E-02 0.12500000E+03</pdfrwt>
<totfact> 0.74042534E+06</totfact>
</mgrwt>
</event>
<event>
 3    1  0.1594457E-001  0.1250000E+03  0.7546771E-02  0.1235069E+00
         21   -1    0    0  502  501  0.00000000000E+00  0.00000000000E+00  0.13650036463E+02  0.13650036463E+02  0.00000000000E+00 0. -1.
         21   -1    0    0  501  502 -0.00000000000E+00 -0.00000000000E+00 -0.28617139672E+03  0.28617139672E+03  0.00000000000E+00 0. -1.
         25    1    1    2    0    0  0.00000000000E+00  0.00000000000E+00 -0.27252136026E+03  0.29982143319E+03  0.12500000000E+03 0.  0.
<mgrwt>
<rscale>  0 0.12500000E+03</rscale>
<asrwt>0</asrwt>
<pdfrwt beam="1">  1       21 0.21000058E-02 0.12500000E+03</pdfrwt>
<pdfrwt beam="2">  1       21 0.44026366E-01 0.12500000E+03</pdfrwt>
<totfact> 0.55471018E+06</totfact>
</mgrwt>
</event>
<event>
 3    1  0.1594457E-001  0.1250000E+03  0.7546771E-02  0.1235069E+00
         21   -1    0    0  502  501  0.00000000000E+00  0.00000000000E+00  0.99609980259E+01  0.99609980259E+01  0.00000000000E+00 0.  1.
         21   -1    0    0  501  502 -0.00000000000E+00 -0.00000000000E+00 -0.39215447989E+03  0.39215447989E+03  0.00000000000E+00 0.  1.
         25    1    1    2    0    0  0.00000000000E+00  0.00000000000E+00 -0.38219348186E+03  0.40211547791E+03  0.12500000000E+03 0.  0.
<mgrwt>
<rscale>  0 0.12500000E+03</rscale>
<asrwt>0</asrwt>
<pdfrwt beam="1">  1       21 0.15324611E-02 0.12500000E+03</pdfrwt>
<pdfrwt beam="2">  1       21 0.60331465E-01 0.12500000E+03</pdfrwt>
<totfact> 0.47901346E+06</totfact>
</mgrwt>
</event>
<event>
 3    1  0.1594457E-001  0.1250000E+03  0.7546771E-02  0.1235069E+00
         21   -1    0    0  502  501  0.00000000000E+00  0.00000000000E+00  0.13133433866E+03  0.13133433866E+03  0.00000000000E+00 0. -1.
         21   -1    0    0  501  502 -0.00000000000E+00 -0.00000000000E+00 -0.29742792631E+02  0.29742792631E+02  0.00000000000E+00 0. -1.
         25    1    1    2    0    0  0.00000000000E+00  0.00000000000E+00  0.10159154603E+03  0.16107713129E+03  0.12500000000E+03 0.  0.
<mgrwt>
<rscale>  0 0.12500000E+03</rscale>
<asrwt>0</asrwt>
<pdfrwt beam="1">  1       21 0.20205282E-01 0.12500000E+03</pdfrwt>
<pdfrwt beam="2">  1       21 0.45758143E-02 0.12500000E+03</pdfrwt>
<totfact> 0.69388121E+06</totfact>
</mgrwt>
</event>
<event>
 3    1  0.1594457E-001  0.1250000E+03  0.7546771E-02  0.1235069E+00
         21   -1    0    0  502  501  0.00000000000E+00  0.00000000000E+00  0.23596620697E+03  0.23596620697E+03  0.00000000000E+00 0.  1.
         21   -1    0    0  501  502 -0.00000000000E+00 -0.00000000000E+00 -0.16554277200E+02  0.16554277200E+02  0.00000000000E+00 0.  1.
         25    1    1    2    0    0  0.00000000000E+00  0.00000000000E+00  0.21941192977E+03  0.25252048417E+03  0.12500000000E+03 0.  0.
<mgrwt>
<rscale>  0 0.12500000E+03</rscale>
<asrwt>0</asrwt>
<pdfrwt beam="1">  1       21 0.36302491E-01 0.12500000E+03</pdfrwt>
<pdfrwt beam="2">  1       21 0.25468121E-02 0.12500000E+03</pdfrwt>
<totfact> 0.59641699E+06</totfact>
</mgrwt>
</event>
<event>
 3    1  0.1594457E-001  0.1250000E+03  0.7546771E-02  0.1235069E+00
         21   -1    0    0  502  501  0.00000000000E+00  0.00000000000E+00  0.29049588540E+02  0.29049588540E+02  0.00000000000E+00 0. -1.
         21   -1    0    0  501  502 -0.00000000000E+00 -0.00000000000E+00 -0.13446834177E+03  0.13446834177E+03  0.00000000000E+00 0. -1.
         25    1    1    2    0    0  0.00000000000E+00  0.00000000000E+00 -0.10541875323E+03  0.16351793031E+03  0.12500000000E+03 0.  0.
<mgrwt>
<rscale>  0 0.12500000E+03</rscale>
<asrwt>0</asrwt>
<pdfrwt beam="1">  1       21 0.44691674E-02 0.12500000E+03</pdfrwt>
<pdfrwt beam="2">  1       21 0.20687438E-01 0.12500000E+03</pdfrwt>
<totfact> 0.69092177E+06</totfact>
</mgrwt>
</event>
<event>
 3    1  0.1594457E-001  0.1250000E+03  0.7546771E-02  0.1235069E+00
         21   -1    0    0  502  501  0.00000000000E+00  0.00000000000E+00  0.85567083524E+03  0.85567083524E+03  0.00000000000E+00 0. -1.
         21   -1    0    0  501  502 -0.00000000000E+00 -0.00000000000E+00 -0.45651316361E+01  0.45651316361E+01  0.00000000000E+00 0. -1.
         25    1    1    2    0    0  0.00000000000E+00  0.00000000000E+00  0.85110570360E+03  0.86023596687E+03  0.12500000000E+03 0.  0.
<mgrwt>
<rscale>  0 0.12500000E+03</rscale>
<asrwt>0</asrwt>
<pdfrwt beam="1">  1       21 0.13164154E+00 0.12500000E+03</pdfrwt>
<pdfrwt beam="2">  1       21 0.70232862E-03 0.12500000E+03</pdfrwt>
<totfact> 0.27461580E+06</totfact>
</mgrwt>
</event>
<event>
 3    1  0.1594457E-001  0.1250000E+03  0.7546771E-02  0.1235069E+00
         21   -1    0    0  502  501  0.00000000000E+00  0.00000000000E+00  0.34705752349E+02  0.34705752349E+02  0.00000000000E+00 0. -1.
         21   -1    0    0  501  502 -0.00000000000E+00 -0.00000000000E+00 -0.11255338771E+03  0.11255338771E+03  0.00000000000E+00 0. -1.
         25    1    1    2    0    0  0.00000000000E+00  0.00000000000E+00 -0.77847635363E+02  0.14725914006E+03  0.12500000000E+03 0.  0.
<mgrwt>
<rscale>  0 0.12500000E+03</rscale>
<asrwt>0</asrwt>
<pdfrwt beam="1">  1       21 0.53393466E-02 0.12500000E+03</pdfrwt>
<pdfrwt beam="2">  1       21 0.17315906E-01 0.12500000E+03</pdfrwt>
<totfact> 0.71105225E+06</totfact>
</mgrwt>
</event>
<event>
 3    1  0.1594457E-001  0.1250000E+03  0.7546771E-02  0.1235069E+00
         21   -1    0    0  502  501  0.00000000000E+00  0.00000000000E+00  0.20799974130E+02  0.20799974130E+02  0.00000000000E+00 0. -1.
         21   -1    0    0  501  502 -0.00000000000E+00 -0.00000000000E+00 -0.18780071434E+03  0.18780071434E+03  0.00000000000E+00 0. -1.
         25    1    1    2    0    0  0.00000000000E+00  0.00000000000E+00 -0.16700074021E+03  0.20860068847E+03  0.12500000000E+03 0.  0.
<mgrwt>
<rscale>  0 0.12500000E+03</rscale>
<asrwt>0</asrwt>
<pdfrwt beam="1">  1       21 0.31999960E-02 0.12500000E+03</pdfrwt>
<pdfrwt beam="2">  1       21 0.28892417E-01 0.12500000E+03</pdfrwt>
<totfact> 0.64007060E+06</totfact>
</mgrwt>
</event>
<event>
 3    1  0.1594457E-001  0.1250000E+03  0.7546771E-02  0.1235069E+00
         21   -1    0    0  502  501  0.00000000000E+00  0.00000000000E+00  0.13905625492E+03  0.13905625492E+03  0.00000000000E+00 0. -1.
         21   -1    0    0  501  502 -0.00000000000E+00 -0.00000000000E+00 -0.28091149170E+02  0.28091149170E+02  0.00000000000E+00 0. -1.
         25    1    1    2    0    0  0.00000000000E+00  0.00000000000E+00  0.11096510575E+03  0.16714740409E+03  0.12500000000E+03 0.  0.
<mgrwt>
<rscale>  0 0.12500000E+03</rscale>
<asrwt>0</asrwt>
<pdfrwt beam="1">  1       21 0.21393270E-01 0.12500000E+03</pdfrwt>
<pdfrwt beam="2">  1       21 0.43217153E-02 0.12500000E+03</pdfrwt>
<totfact> 0.68656535E+06</totfact>
</mgrwt>
</event>
<event>
 3    1  0.1594457E-001  0.1250000E+03  0.7546771E-02  0.1235069E+00
         21   -1    0    0  502  501  0.00000000000E+00  0.00000000000E+00  0.26458534772E+03  0.26458534772E+03  0.00000000000E+00 0. -1.
         21   -1    0    0  501  502 -0.00000000000E+00 -0.00000000000E+00 -0.14763667125E+02  0.14763667125E+02  0.00000000000E+00 0. -1.
         25    1    1    2    0    0  0.00000000000E+00  0.00000000000E+00  0.24982168060E+03  0.27934901485E+03  0.12500000000E+03 0.  0.
<mgrwt>
<rscale>  0 0.12500000E+03</rscale>
<asrwt>0</asrwt>
<pdfrwt beam="1">  1       21 0.40705435E-01 0.12500000E+03</pdfrwt>
<pdfrwt beam="2">  1       21 0.22713336E-02 0.12500000E+03</pdfrwt>
<totfact> 0.57217239E+06</totfact>
</mgrwt>
</event>
<event>
 3    1  0.1594457E-001  0.1250000E+03  0.7546771E-02  0.1235069E+00
         21   -1    0    0  502  501  0.00000000000E+00  0.00000000000E+00  0.10585800940E+03  0.10585800940E+03  0.00000000000E+00 0.  1.
         21   -1    0    0  501  502 -0.00000000000E+00 -0.00000000000E+00 -0.36900845030E+02  0.36900845030E+02  0.00000000000E+00 0.  1.
         25    1    1    2    0    0  0.00000000000E+00  0.00000000000E+00  0.68957164370E+02  0.14275885443E+03  0.12500000000E+03 0.  0.
<mgrwt>
<rscale>  0 0.12500000E+03</rscale>
<asrwt>0</asrwt>
<pdfrwt beam="1">  1       21 0.16285848E-01 0.12500000E+03</pdfrwt>
<pdfrwt beam="2">  1       21 0.56770531E-02 0.12500000E+03</pdfrwt>
<totfact> 0.71681161E+06</totfact>
</mgrwt>
</event>
<event>
 3    1  0.1594457E-001  0.1250000E+03  0.7546771E-02  0.1235069E+00
         21   -1    0    0  502  501  0.00000000000E+00  0.00000000000E+00  0.50326897026E+02  0.50326897026E+02  0.00000000000E+00 0. -1.
         21   -1    0    0  501  502 -0.00000000000E+00 -0.00000000000E+00 -0.77617541133E+02  0.77617541133E+02  0.00000000000E+00 0. -1.
         25    1    1    2    0    0  0.00000000000E+00  0.00000000000E+00 -0.27290644107E+02  0.12794443816E+03  0.12500000000E+03 0.  0.
<mgrwt>
<rscale>  0 0.12500000E+03</rscale>
<asrwt>0</asrwt>
<pdfrwt beam="1">  1       21 0.77425996E-02 0.12500000E+03</pdfrwt>
<pdfrwt beam="2">  1       21 0.11941160E-01 0.12500000E+03</pdfrwt>
<totfact> 0.73641066E+06</totfact>
</mgrwt>
</event>
<event>
 3    1  0.1594457E-001  0.1250000E+03  0.7546771E-02  0.1235069E+00
         21   -1    0    0  502  501  0.00000000000E+00  0.00000000000E+00  0.14512101042E+03  0.14512101042E+03  0.00000000000E+00 0. -1.
         21   -1    0    0  501  502 -0.00000000000E+00 -0.00000000000E+00 -0.26917191305E+02  0.26917191305E+02  0.00000000000E+00 0. -1.
         25    1    1    2    0    0  0.00000000000E+00  0.00000000000E+00  0.11820381912E+03  0.17203820173E+03  0.12500000000E+03 0.  0.
<mgrwt>
<rscale>  0 0.12500000E+03</rscale>
<asrwt>0</asrwt>
<pdfrwt beam="1">  1       21 0.22326309E-01 0.12500000E+03</pdfrwt>
<pdfrwt beam="2">  1       21 0.41411064E-02 0.12500000E+03</pdfrwt>
<totfact> 0.68076836E+06</totfact>
</mgrwt>
</event>
<event>
 3    1  0.1594457E-001  0.1250000E+03  0.7546771E-02  0.1235069E+00
         21   -1    0    0  502  501  0.00000000000E+00  0.00000000000E+00  0.27790216410E+03  0.27790216410E+03  0.00000000000E+00 0. -1.
         21   -1    0    0  501  502 -0.00000000000E+00 -0.00000000000E+00 -0.14056205761E+02  0.14056205761E+02  0.00000000000E+00 0. -1.
         25    1    1    2    0    0  0.00000000000E+00  0.00000000000E+00  0.26384595834E+03  0.29195836986E+03  0.12500000000E+03 0.  0.
<mgrwt>
<rscale>  0 0.12500000E+03</rscale>
<asrwt>0</asrwt>
<pdfrwt beam="1">  1       21 0.42754175E-01 0.12500000E+03</pdfrwt>
<pdfrwt beam="2">  1       21 0.21624934E-02 0.12500000E+03</pdfrwt>
<totfact> 0.56131158E+06</totfact>
</mgrwt>
</event>
<event>
 3    1  0.1594457E-001  0.1250000E+03  0.7546771E-02  0.1235069E+00
         21   -1    0    0  502  501  0.00000000000E+00  0.00000000000E+00  0.13974466624E+02  0.13974466624E+02  0.00000000000E+00 0. -1.
         21   -1    0    0  501  502 -0.00000000000E+00 -0.00000000000E+00 -0.27952766320E+03  0.27952766320E+03  0.00000000000E+00 0. -1.
         25    1    1    2    0    0  0.00000000000E+00  0.00000000000E+00 -0.26555319658E+03  0.29350212983E+03  0.12500000000E+03 0.  0.
<mgrwt>
<rscale>  0 0.12500000E+03</rscale>
<asrwt>0</asrwt>
<pdfrwt beam="1">  1       21 0.21499180E-02 0.12500000E+03</pdfrwt>
<pdfrwt beam="2">  1       21 0.43004255E-01 0.12500000E+03</pdfrwt>
<totfact> 0.56000532E+06</totfact>
</mgrwt>
</event>
<event>
 3    1  0.1594457E-001  0.1250000E+03  0.7546771E-02  0.1235069E+00
         21   -1    0    0  502  501  0.00000000000E+00  0.00000000000E+00  0.41615266881E+02  0.41615266881E+02  0.00000000000E+00 0. -1.
         21   -1    0    0  501  502 -0.00000000000E+00 -0.00000000000E+00 -0.93865792359E+02  0.93865792359E+02  0.00000000000E+00 0. -1.
         25    1    1    2    0    0  0.00000000000E+00  0.00000000000E+00 -0.52250525478E+02  0.13548105924E+03  0.12500000000E+03 0.  0.
<mgrwt>
<rscale>  0 0.12500000E+03</rscale>
<asrwt>0</asrwt>
<pdfrwt beam="1">  1       21 0.64023487E-02 0.12500000E+03</pdfrwt>
<pdfrwt beam="2">  1       21 0.14440891E-01 0.12500000E+03</pdfrwt>
<totfact> 0.72632839E+06</totfact>
</mgrwt>
</event>
<event>
 3    1  0.1594457E-001  0.1250000E+03  0.7546771E-02  0.1235069E+00
         21   -1    0    0  502  501  0.00000000000E+00  0.00000000000E+00  0.24421636790E+03  0.24421636790E+03  0.00000000000E+00 0. -1.
         21   -1    0    0  501  502 -0.00000000000E+00 -0.00000000000E+00 -0.15995037653E+02  0.15995037653E+02  0.00000000000E+00 0. -1.
         25    1    1    2    0    0  0.00000000000E+00  0.00000000000E+00  0.22822133024E+03  0.26021140555E+03  0.12500000000E+03 0.  0.
<mgrwt>
<rscale>  0 0.12500000E+03</rscale>
<asrwt>0</asrwt>
<pdfrwt beam="1">  1       21 0.37571746E-01 0.12500000E+03</pdfrwt>
<pdfrwt beam="2">  1       21 0.24607752E-02 0.12500000E+03</pdfrwt>
<totfact> 0.58929901E+06</totfact>
</mgrwt>
</event>
<event>
 3    1  0.1594457E-001  0.1250000E+03  0.7546771E-02  0.1235069E+00
         21   -1    0    0  502  501  0.00000000000E+00  0.00000000000E+00  0.16899241131E+03  0.16899241131E+03  0.00000000000E+00 0.  1.
         21   -1    0    0  501  502 -0.00000000000E+00 -0.00000000000E+00 -0.23114943267E+02  0.23114943267E+02  0.00000000000E+00 0.  1.
         25    1    1    2    0    0  0.00000000000E+00  0.00000000000E+00  0.14587746804E+03  0.19210735458E+03  0.12500000000E+03 0.  0.
<mgrwt>
<rscale>  0 0.12500000E+03</rscale>
<asrwt>0</asrwt>
<pdfrwt beam="1">  1       21 0.25998832E-01 0.12500000E+03</pdfrwt>
<pdfrwt beam="2">  1       21 0.35561452E-02 0.12500000E+03</pdfrwt>
<totfact> 0.65789014E+06</totfact>
</mgrwt>
</event>
<event>
 3    1  0.1594457E-001  0.1250000E+03  0.7546771E-02  0.1235069E+00
         21   -1    0    0  502  501  0.00000000000E+00  0.00000000000E+00  0.21026711800E+02  0.21026711800E+02  0.00000000000E+00 0. -1.
         21   -1    0    0  501  502 -0.00000000000E+00 -0.00000000000E+00 -0.18577559997E+03  0.18577559997E+03  0.00000000000E+00 0. -1.
         25    1    1    2    0    0  0.00000000000E+00  0.00000000000E+00 -0.16474888817E+03  0.20680231177E+03  0.12500000000E+03 0.  0.
<mgrwt>
<rscale>  0 0.12500000E+03</rscale>
<asrwt>0</asrwt>
<pdfrwt beam="1">  1       21 0.32348789E-02 0.12500000E+03</pdfrwt>
<pdfrwt beam="2">  1       21 0.28580860E-01 0.12500000E+03</pdfrwt>
<totfact> 0.64197548E+06</totfact>
</mgrwt>
</event>
<event>
 3    1  0.1594457E-001  0.1250000E+03  0.7546771E-02  0.1235069E+00
         21   -1    0    0  502  501  0.00000000000E+00  0.00000000000E+00  0.48979114561E+03  0.48979114561E+03  0.00000000000E+00 0.  1.
         21   -1    0    0  501  502 -0.00000000000E+00 -0.00000000000E+00 -0.79753381314E+01  0.79753381314E+01  0.00000000000E+00 0.  1.
         25    1    1    2    0    0  0.00000000000E+00  0.00000000000E+00  0.48181580748E+03  0.49776648374E+03  0.12500000000E+03 0.  0.
<mgrwt>
<rscale>  0 0.12500000E+03</rscale>
<asrwt>0</asrwt>
<pdfrwt beam="1">  1       21 0.75352461E-01 0.12500000E+03</pdfrwt>
<pdfrwt beam="2">  1       21 0.12269755E-02 0.12500000E+03</pdfrwt>
<totfact> 0.42165467E+06</totfact>
</mgrwt>
</event>
<event>
 3    1  0.1594457E-001  0.1250000E+03  0.7546771E-02  0.1235069E+00
         21   -1    0    0  502  501  0.00000000000E+00  0.00000000000E+00  0.18006505467E+02  0.18006505467E+02  0.00000000000E+00 0. -1.
         21   -1    0    0  501  502 -0.00000000000E+00 -0.00000000000E+00 -0.21693548518E+03  0.21693548518E+03  0.00000000000E+00 0. -1.
         25    1    1    2    0    0  0.00000000000E+00  0.00000000000E+00 -0.19892897972E+03  0.23494199065E+03  0.12500000000E+03 0.  0.
<mgrwt>
<rscale>  0 0.12500000E+03</rscale>
<asrwt>0</asrwt>
<pdfrwt beam="1">  1       21 0.27702315E-02 0.12500000E+03</pdfrwt>
<pdfrwt beam="2">  1       21 0.33374691E-01 0.12500000E+03</pdfrwt>
<totfact> 0.61325576E+06</totfact>
</mgrwt>
</event>
<event>
 3    1  0.1594457E-001  0.1250000E+03  0.7546771E-02  0.1235069E+00
         21   -1    0    0  502  501  0.00000000000E+00  0.00000000000E+00  0.94747226001E+02  0.94747226001E+02  0.00000000000E+00 0.  1.
         21   -1    0    0  501  502 -0.00000000000E+00 -0.00000000000E+00 -0.41228119966E+02  0.41228119966E+02  0.00000000000E+00 0.  1.
         25    1    1    2    0    0  0.00000000000E+00  0.00000000000E+00  0.53519106035E+02  0.13597534597E+03  0.12500000000E+03 0.  0.
<mgrwt>
<rscale>  0 0.12500000E+03</rscale>
<asrwt>0</asrwt>
<pdfrwt beam="1">  1       21 0.14576496E-01 0.12500000E+03</pdfrwt>
<pdfrwt beam="2">  1       21 0.63427877E-02 0.12500000E+03</pdfrwt>
<totfact> 0.72567586E+06</totfact>
</mgrwt>
</event>
<event>
 3    1  0.1594457E-001  0.1250000E+03  0.7546771E-02  0.1235069E+00
         21   -1    0    0  502  501  0.00000000000E+00  0.00000000000E+00  0.80568358684E+03  0.80568358684E+03  0.00000000000E+00 0.  1.
         21   -1    0    0  501  502 -0.00000000000E+00 -0.00000000000E+00 -0.48483673539E+01  0.48483673539E+01  0.00000000000E+00 0.  1.
         25    1    1    2    0    0  0.00000000000E+00  0.00000000000E+00  0.80083521949E+03  0.81053195419E+03  0.12500000000E+03 0.  0.
<mgrwt>
<rscale>  0 0.12500000E+03</rscale>
<asrwt>0</asrwt>
<pdfrwt beam="1">  1       21 0.12395121E+00 0.12500000E+03</pdfrwt>
<pdfrwt beam="2">  1       21 0.74590331E-03 0.12500000E+03</pdfrwt>
<totfact> 0.29016845E+06</totfact>
</mgrwt>
</event>
<event>
 3    1  0.1594457E-001  0.1250000E+03  0.7546771E-02  0.1235069E+00
         21   -1    0    0  502  501  0.00000000000E+00  0.00000000000E+00  0.55821694925E+02  0.55821694925E+02  0.00000000000E+00 0.  1.
         21   -1    0    0  501  502 -0.00000000000E+00 -0.00000000000E+00 -0.69977273267E+02  0.69977273267E+02  0.00000000000E+00 0.  1.
         25    1    1    2    0    0  0.00000000000E+00  0.00000000000E+00 -0.14155578342E+02  0.12579896819E+03  0.12500000000E+03 0.  0.
<mgrwt>
<rscale>  0 0.12500000E+03</rscale>
<asrwt>0</asrwt>
<pdfrwt beam="1">  1       21 0.85879531E-02 0.12500000E+03</pdfrwt>
<pdfrwt beam="2">  1       21 0.10765734E-01 0.12500000E+03</pdfrwt>
<totfact> 0.73933815E+06</totfact>
</mgrwt>
</event>
<event>
 3    1  0.1594457E-001  0.1250000E+03  0.7546771E-02  0.1235069E+00
         21   -1    0    0  502  501  0.00000000000E+00  0.00000000000E+00  0.68850757217E+02  0.68850757217E+02  0.00000000000E+00 0.  1.
         21   -1    0    0  501  502 -0.00000000000E+00 -0.00000000000E+00 -0.56735033250E+02  0.56735033250E+02  0.00000000000E+00 0.  1.
         25    1    1    2    0    0  0.00000000000E+00  0.00000000000E+00  0.12115723967E+02  0.12558579047E+03  0.12500000000E+03 0.  0.
<mgrwt>
<rscale>  0 0.12500000E+03</rscale>
<asrwt>0</asrwt>
<pdfrwt beam="1">  1       21 0.10592424E-01 0.12500000E+03</pdfrwt>
<pdfrwt beam="2">  1       21 0.87284667E-02 0.12500000E+03</pdfrwt>
<totfact> 0.73963422E+06</totfact>
</mgrwt>
</event>
<event>
 3    1  0.1594457E-001  0.1250000E+03  0.7546771E-02  0.1235069E+00
         21   -1    0    0  502  501  0.00000000000E+00  0.00000000000E+00  0.25848059840E+02  0.25848059840E+02  0.00000000000E+00 0.  1.
         21   -1    0    0  501  502 -0.00000000000E+00 -0.00000000000E+00 -0.15112352819E+03  0.15112352819E+03  0.00000000000E+00 0.  1.
         25    1    1    2    0    0  0.00000000000E+00  0.00000000000E+00 -0.12527546835E+03  0.17697158803E+03  0.12500000000E+03 0.  0.
<mgrwt>
<rscale>  0 0.12500000E+03</rscale>
<asrwt>0</asrwt>
<pdfrwt beam="1">  1       21 0.39766246E-02 0.12500000E+03</pdfrwt>
<pdfrwt beam="2">  1       21 0.23249773E-01 0.12500000E+03</pdfrwt>
<totfact> 0.67500656E+06</totfact>
</mgrwt>
</event>
<event>
 3    1  0.1594457E-001  0.1250000E+03  0.7546771E-02  0.1235069E+00
         21   -1    0    0  502  501  0.00000000000E+00  0.00000000000E+00  0.89395400766E+01  0.89395400766E+01  0.00000000000E+00 0. -1.
         21   -1    0    0  501  502 -0.00000000000E+00 -0.00000000000E+00 -0.43696319571E+03  0.43696319571E+03  0.00000000000E+00 0. -1.
         25    1    1    2    0    0  0.00000000000E+00  0.00000000000E+00 -0.42802365563E+03  0.44590273578E+03  0.12500000000E+03 0.  0.
<mgrwt>
<rscale>  0 0.12500000E+03</rscale>
<asrwt>0</asrwt>
<pdfrwt beam="1">  1       21 0.13753141E-02 0.12500000E+03</pdfrwt>
<pdfrwt beam="2">  1       21 0.67225093E-01 0.12500000E+03</pdfrwt>
<totfact> 0.45138464E+06</totfact>
</mgrwt>
</event>
<event>
 3    1  0.1594457E-001  0.1250000E+03  0.7546771E-02  0.1235069E+00
         21   -1    0    0  502  501  0.00000000000E+00  0.00000000000E+00  0.30373968765E+02  0.30373968765E+02  0.00000000000E+00 0. -1.
         21   -1    0    0  501  502 -0.00000000000E+00 -0.00000000000E+00 -0.12860518921E+03  0.12860518921E+03  0.00000000000E+00 0. -1.
         25    1    1    2    0    0  0.00000000000E+00  0.00000000000E+00 -0.98231220443E+02  0.15897915797E+03  0.12500000000E+03 0.  0.
<mgrwt>
<rscale>  0 0.12500000E+03</rscale>
<asrwt>0</asrwt>
<pdfrwt beam="1">  1       21 0.46729183E-02 0.12500000E+03</pdfrwt>
<pdfrwt beam="2">  1       21 0.19785414E-01 0.12500000E+03</pdfrwt>
<totfact> 0.69644447E+06</totfact>
</mgrwt>
</event>
<event>
 3    1  0.1594457E-001  0.1250000E+03  0.7546771E-02  0.1235069E+00
         21   -1    0    0  502  501  0.00000000000E+00  0.00000000000E+00  0.30865199748E+03  0.30865199748E+03  0.00000000000E+00 0.  1.
         21   -1    0    0  501  502 -0.00000000000E+00 -0.00000000000E+00 -0.12655839042E+02  0.12655839042E+02  0.00000000000E+00 0.  1.
         25    1    1    2    0    0  0.00000000000E+00  0.00000000000E+00  0.29599615844E+03  0.32130783652E+03  0.12500000000E+03 0.  0.
<mgrwt>
<rscale>  0 0.12500000E+03</rscale>
<asrwt>0</asrwt>
<pdfrwt beam="1">  1       21 0.47484917E-01 0.12500000E+03</pdfrwt>
<pdfrwt beam="2">  1       21 0.19470524E-02 0.12500000E+03</pdfrwt>
<totfact> 0.53729868E+06</totfact>
</mgrwt>
</event>
<event>
 3    1  0.1594457E-001  0.1250000E+03  0.7546771E-02  0.1235069E+00
         21   -1    0    0  502  501  0.00000000000E+00  0.00000000000E+00  0.74766757501E+03  0.74766757501E+03  0.00000000000E+00 0.  1.
         21   -1    0    0  501  502 -0.00000000000E+00 -0.00000000000E+00 -0.52245812585E+01  0.52245812585E+01  0.00000000000E+00 0.  1.
         25    1    1    2    0    0  0.00000000000E+00  0.00000000000E+00  0.74244299375E+03  0.75289215626E+03  0.12500000000E+03 0.  0.
<mgrwt>
<rscale>  0 0.12500000E+03</rscale>
<asrwt>0</asrwt>
<pdfrwt beam="1">  1       21 0.11502570E+00 0.12500000E+03</pdfrwt>
<pdfrwt beam="2">  1       21 0.80378232E-03 0.12500000E+03</pdfrwt>
<totfact> 0.30967418E+06</totfact>
</mgrwt>
</event>
<event>
 3    1  0.1594457E-001  0.1250000E+03  0.7546771E-02  0.1235069E+00
         21   -1    0    0  502  501  0.00000000000E+00  0.00000000000E+00  0.78992073904E+02  0.78992073904E+02  0.00000000000E+00 0. -1.
         21   -1    0    0  501  502 -0.00000000000E+00 -0.00000000000E+00 -0.49451163983E+02  0.49451163983E+02  0.00000000000E+00 0. -1.
         25    1    1    2    0    0  0.00000000000E+00  0.00000000000E+00  0.29540909921E+02  0.12844323789E+03  0.12500000000E+03 0.  0.
<mgrwt>
<rscale>  0 0.12500000E+03</rscale>
<asrwt>0</asrwt>
<pdfrwt beam="1">  1       21 0.12152627E-01 0.12500000E+03</pdfrwt>
<pdfrwt beam="2">  1       21 0.76078714E-02 0.12500000E+03</pdfrwt>
<totfact> 0.73573767E+06</totfact>
</mgrwt>
</event>
<event>
 3    1  0.1594457E-001  0.1250000E+03  0.7546771E-02  0.1235069E+00
         21   -1    0    0  502  501  0.00000000000E+00  0.00000000000E+00  0.85481182080E+01  0.85481182080E+01  0.00000000000E+00 0.  1.
         21   -1    0    0  501  502 -0.00000000000E+00 -0.00000000000E+00 -0.45697192118E+03  0.45697192118E+03  0.00000000000E+00 0.  1.
         25    1    1    2    0    0  0.00000000000E+00  0.00000000000E+00 -0.44842380297E+03  0.46552003939E+03  0.12500000000E+03 0.  0.
<mgrwt>
<rscale>  0 0.12500000E+03</rscale>
<asrwt>0</asrwt>
<pdfrwt beam="1">  1       21 0.13150950E-02 0.12500000E+03</pdfrwt>
<pdfrwt beam="2">  1       21 0.70303376E-01 0.12500000E+03</pdfrwt>
<totfact> 0.43977915E+06</totfact>
</mgrwt>
</event>
<event>
 3    1  0.1594457E-001  0.1250000E+03  0.7546771E-02  0.1235069E+00
         21   -1    0    0  502  501  0.00000000000E+00  0.00000000000E+00  0.22444298911E+02  0.22444298911E+02  0.00000000000E+00 0. -1.
         21   -1    0    0  501  502 -0.00000000000E+00 -0.00000000000E+00 -0.17404197010E+03  0.17404197010E+03  0.00000000000E+00 0. -1.
         25    1    1    2    0    0  0.00000000000E+00  0.00000000000E+00 -0.15159767119E+03  0.19648626901E+03  0.12500000000E+03 0.  0.
<mgrwt>
<rscale>  0 0.12500000E+03</rscale>
<asrwt>0</asrwt>
<pdfrwt beam="1">  1       21 0.34529690E-02 0.12500000E+03</pdfrwt>
<pdfrwt beam="2">  1       21 0.26775688E-01 0.12500000E+03</pdfrwt>
<totfact> 0.65308721E+06</totfact>
</mgrwt>
</event>
<event>
 3    1  0.1594457E-001  0.1250000E+03  0.7546771E-02  0.1235069E+00
         21   -1    0    0  502  501  0.00000000000E+00  0.00000000000E+00  0.62325025898E+02  0.62325025898E+02  0.00000000000E+00 0.  1.
         21   -1    0    0  501  502 -0.00000000000E+00 -0.00000000000E+00 -0.62675465332E+02  0.62675465332E+02  0.00000000000E+00 0.  1.
         25    1    1    2    0    0  0.00000000000E+00  0.00000000000E+00 -0.35043943336E+00  0.12500049123E+03  0.12500000000E+03 0.  0.
<mgrwt>
<rscale>  0 0.12500000E+03</rscale>
<asrwt>0</asrwt>
<pdfrwt beam="1">  1       21 0.95884655E-02 0.12500000E+03</pdfrwt>
<pdfrwt beam="2">  1       21 0.96423793E-02 0.12500000E+03</pdfrwt>
<totfact> 0.74043515E+06</totfact>
</mgrwt>
</event>
<event>
 3    1  0.1594457E-001  0.1250000E+03  0.7546771E-02  0.1235069E+00
         21   -1    0    0  502  501  0.00000000000E+00  0.00000000000E+00  0.44805712286E+01  0.44805712286E+01  0.00000000000E+00 0. -1.
         21   -1    0    0  501  502 -0.00000000000E+00 -0.00000000000E+00 -0.87181964101E+03  0.87181964101E+03  0.00000000000E+00 0. -1.
         25    1    1    2    0    0  0.00000000000E+00  0.00000000000E+00 -0.86733906978E+03  0.87630021223E+03  0.12500000000E+03 0.  0.
<mgrwt>
<rscale>  0 0.12500000E+03</rscale>
<asrwt>0</asrwt>
<pdfrwt beam="1">  1       21 0.68931817E-03 0.12500000E+03</pdfrwt>
<pdfrwt beam="2">  1       21 0.13412619E+00 0.12500000E+03</pdfrwt>
<totfact> 0.26984729E+06</totfact>
</mgrwt>
</event>
<event>
 3    1  0.1594457E-001  0.1250000E+03  0.7546771E-02  0.1235069E+00
         21   -1    0    0  502  501  0.00000000000E+00  0.00000000000E+00  0.38059292955E+03  0.38059292955E+03  0.00000000000E+00 0.  1.
         21   -1    0    0  501  502 -0.00000000000E+00 -0.00000000000E+00 -0.10263590563E+02  0.10263590563E+02  0.00000000000E+00 0.  1.
         25    1    1    2    0    0  0.00000000000E+00  0.00000000000E+00  0.37032933899E+03  0.39085652011E+03  0.12500000000E+03 0.  0.
<mgrwt>
<rscale>  0 0.12500000E+03</rscale>
<asrwt>0</asrwt>
<pdfrwt beam="1">  1       21 0.58552747E-01 0.12500000E+03</pdfrwt>
<pdfrwt beam="2">  1       21 0.15790142E-02 0.12500000E+03</pdfrwt>
<totfact> 0.48653804E+06</totfact>
</mgrwt>
</event>
<event>
 3    1  0.1594457E-001  0.1250000E+03  0.7546771E-02  0.1235069E+00
         21   -1    0    0  502  501  0.00000000000E+00  0.00000000000E+00  0.11508414355E+02  0.11508414355E+02  0.00000000000E+00 0. -1.
         21   -1    0    0  501  502 -0.00000000000E+00 -0.00000000000E+00 -0.33942556110E+03  0.33942556110E+03  0.00000000000E+00 0. -1.
         25    1    1    2    0    0  0.00000000000E+00  0.00000000000E+00 -0.32791714675E+03  0.35093397546E+03  0.12500000000E+03 0.  0.
<mgrwt>
<rscale>  0 0.12500000E+03</rscale>
<asrwt>0</asrwt>
<pdfrwt beam="1">  1       21 0.17705250E-02 0.12500000E+03</pdfrwt>
<pdfrwt beam="2">  1       21 0.52219325E-01 0.12500000E+03</pdfrwt>
<totfact> 0.51469525E+06</totfact>
</mgrwt>
</event>
<event>
 3    1  0.1594457E-001  0.1250000E+03  0.7546771E-02  0.1235069E+00
         21   -1    0    0  502  501  0.00000000000E+00  0.00000000000E+00  0.39998603481E+02  0.39998603481E+02  0.00000000000E+00 0. -1.
         21   -1    0    0  501  502 -0.00000000000E+00 -0.00000000000E+00 -0.97659659589E+02  0.97659659589E+02  0.00000000000E+00 0. -1.
         25    1    1    2    0    0  0.00000000000E+00  0.00000000000E+00 -0.57661056107E+02  0.13765826307E+03  0.12500000000E+03 0.  0.
<mgrwt>
<rscale>  0 0.12500000E+03</rscale>
<asrwt>0</asrwt>
<pdfrwt beam="1">  1       21 0.61536313E-02 0.12500000E+03</pdfrwt>
<pdfrwt beam="2">  1       21 0.15024563E-01 0.12500000E+03</pdfrwt>
<totfact> 0.72346375E+06</totfact>
</mgrwt>
</event>
<event>
 3    1  0.1594457E-001  0.1250000E+03  0.7546771E-02  0.1235069E+00
         21   -1    0    0  502  501  0.00000000000E+00  0.00000000000E+00  0.17656050895E+03  0.17656050895E+03  0.00000000000E+00 0. -1.
         21   -1    0    0  501  502 -0.00000000000E+00 -0.00000000000E+00 -0.22124143294E+02  0.22124143294E+02  0.00000000000E+00 0. -1.
         25    1    1    2    0    0  0.00000000000E+00  0.00000000000E+00  0.15443636566E+03  0.19868465224E+03  0.12500000000E+03 0.  0.
<mgrwt>
<rscale>  0 0.12500000E+03</rscale>
<asrwt>0</asrwt>
<pdfrwt beam="1">  1       21 0.27163154E-01 0.12500000E+03</pdfrwt>
<pdfrwt beam="2">  1       21 0.34037145E-02 0.12500000E+03</pdfrwt>
<totfact> 0.65069987E+06</totfact>
</mgrwt>
</event>
<event>
 3    1  0.1594457E-001  0.1250000E+03  0.7546771E-02  0.1235069E+00
         21   -1    0    0  502  501  0.00000000000E+00  0.00000000000E+00  0.11487230230E+03  0.11487230230E+03  0.00000000000E+00 0. -1.
         21   -1    0    0  501  502 -0.00000000000E+00 -0.00000000000E+00 -0.34005151128E+02  0.34005151128E+02  0.00000000000E+00 0. -1.
         25    1    1    2    0    0  0.00000000000E+00  0.00000000000E+00  0.80867151167E+02  0.14887745342E+03  0.12500000000E+03 0.  0.
<mgrwt>
<rscale>  0 0.12500000E+03</rscale>
<asrwt>0</asrwt>
<pdfrwt beam="1">  1       21 0.17672662E-01 0.12500000E+03</pdfrwt>
<pdfrwt beam="2">  1       21 0.52315618E-02 0.12500000E+03</pdfrwt>
<totfact> 0.70900499E+06</totfact>
</mgrwt>
</event>
<event>
 3    1  0.1594457E-001  0.1250000E+03  0.7546771E-02  0.1235069E+00
         21   -1    0    0  502  501  0.00000000000E+00  0.00000000000E+00  0.43420298238E+02  0.43420298238E+02  0.00000000000E+00 0. -1.
         21   -1    0    0  501  502 -0.00000000000E+00 -0.00000000000E+00 -0.89963684234E+02  0.89963684234E+02  0.00000000000E+00 0. -1.
         25    1    1    2    0    0  0.00000000000E+00  0.00000000000E+00 -0.46543385997E+02  0.13338398247E+03  0.12500000000E+03 0.  0.
<mgrwt>
<rscale>  0 0.12500000E+03</rscale>
<asrwt>0</asrwt>
<pdfrwt beam="1">  1       21 0.66800460E-02 0.12500000E+03</pdfrwt>
<pdfrwt beam="2">  1       21 0.13840567E-01 0.12500000E+03</pdfrwt>
<totfact> 0.72911167E+06</totfact>
</mgrwt>
</event>
<event>
 3    1  0.1594457E-001  0.1250000E+03  0.7546771E-02  0.1235069E+00
         21   -1    0    0  502  501  0.00000000000E+00  0.00000000000E+00  0.47569660630E+01  0.47569660630E+01  0.00000000000E+00 0.  1.
         21   -1    0    0  501  502 -0.00000000000E+00 -0.00000000000E+00 -0.82116415133E+03  0.82116415133E+03  0.00000000000E+00 0.  1.
         25    1    1    2    0    0  0.00000000000E+00  0.00000000000E+00 -0.81640718527E+03  0.82592111739E+03  0.12500000000E+03 0.  0.
<mgrwt>
<rscale>  0 0.12500000E+03</rscale>
<asrwt>0</asrwt>
<pdfrwt beam="1">  1       21 0.73183999E-03 0.12500000E+03</pdfrwt>
<pdfrwt beam="2">  1       21 0.12633311E+00 0.12500000E+03</pdfrwt>
<totfact> 0.28521777E+06</totfact>
</mgrwt>
</event>
<event>
 3    1  0.1594457E-001  0.1250000E+03  0.7546771E-02  0.1235069E+00
         21   -1    0    0  502  501  0.00000000000E+00  0.00000000000E+00  0.79834078794E+03  0.79834078794E+03  0.00000000000E+00 0.  1.
         21   -1    0    0  501  502 -0.00000000000E+00 -0.00000000000E+00 -0.48929605740E+01  0.48929605740E+01  0.00000000000E+00 0.  1.
         25    1    1    2    0    0  0.00000000000E+00  0.00000000000E+00  0.79344782736E+03  0.80323374851E+03  0.12500000000E+03 0.  0.
<mgrwt>
<rscale>  0 0.12500000E+03</rscale>
<asrwt>0</asrwt>
<pdfrwt beam="1">  1       21 0.12282156E+00 0.12500000E+03</pdfrwt>
<pdfrwt beam="2">  1       21 0.75276380E-03 0.12500000E+03</pdfrwt>
<totfact> 0.29255973E+06</totfact>
</mgrwt>
</event>
<event>
 3    1  0.1594457E-001  0.1250000E+03  0.7546771E-02  0.1235069E+00
         21   -1    0    0  502  501  0.00000000000E+00  0.00000000000E+00  0.19687547745E+02  0.19687547745E+02  0.00000000000E+00 0. -1.
         21   -1    0    0  501  502 -0.00000000000E+00 -0.00000000000E+00 -0.19841221724E+03  0.19841221724E+03  0.00000000000E+00 0. -1.
         25    1    1    2    0    0  0.00000000000E+00  0.00000000000E+00 -0.17872466949E+03  0.21809976498E+03  0.12500000000E+03 0.  0.
<mgrwt>
<rscale>  0 0.12500000E+03</rscale>
<asrwt>0</asrwt>
<pdfrwt beam="1">  1       21 0.30288534E-02 0.12500000E+03</pdfrwt>
<pdfrwt beam="2">  1       21 0.30524957E-01 0.12500000E+03</pdfrwt>
<totfact> 0.63017294E+06</totfact>
</mgrwt>
</event>
<event>
 3    1  0.1594457E-001  0.1250000E+03  0.7546771E-02  0.1235069E+00
         21   -1    0    0  502  501  0.00000000000E+00  0.00000000000E+00  0.12894064389E+02  0.12894064389E+02  0.00000000000E+00 0. -1.
         21   -1    0    0  501  502 -0.00000000000E+00 -0.00000000000E+00 -0.30294947212E+03  0.30294947212E+03  0.00000000000E+00 0. -1.
         25    1    1    2    0    0  0.00000000000E+00  0.00000000000E+00 -0.29005540773E+03  0.31584353651E+03  0.12500000000E+03 0.  0.
<mgrwt>
<rscale>  0 0.12500000E+03</rscale>
<asrwt>0</asrwt>
<pdfrwt beam="1">  1       21 0.19837020E-02 0.12500000E+03</pdfrwt>
<pdfrwt beam="2">  1       21 0.46607615E-01 0.12500000E+03</pdfrwt>
<totfact> 0.54164371E+06</totfact>
</mgrwt>
</event>
<event>
 3    1  0.1594457E-001  0.1250000E+03  0.7546771E-02  0.1235069E+00
         21   -1    0    0  502  501  0.00000000000E+00  0.00000000000E+00  0.38683916551E+03  0.38683916551E+03  0.00000000000E+00 0. -1.
         21   -1    0    0  501  502 -0.00000000000E+00 -0.00000000000E+00 -0.10097865853E+02  0.10097865853E+02  0.00000000000E+00 0. -1.
         25    1    1    2    0    0  0.00000000000E+00  0.00000000000E+00  0.37674129966E+03  0.39693703136E+03  0.12500000000E+03 0.  0.
<mgrwt>
<rscale>  0 0.12500000E+03</rscale>
<asrwt>0</asrwt>
<pdfrwt beam="1">  1       21 0.59513706E-01 0.12500000E+03</pdfrwt>
<pdfrwt beam="2">  1       21 0.15535181E-02 0.12500000E+03</pdfrwt>
<totfact> 0.48245184E+06</totfact>
</mgrwt>
</event>
<event>
 3    1  0.1594457E-001  0.1250000E+03  0.7546771E-02  0.1235069E+00
         21   -1    0    0  502  501  0.00000000000E+00  0.00000000000E+00  0.10743216965E+02  0.10743216965E+02  0.00000000000E+00 0. -1.
         21   -1    0    0  501  502 -0.00000000000E+00 -0.00000000000E+00 -0.36360151830E+03  0.36360151830E+03  0.00000000000E+00 0. -1.
         25    1    1    2    0    0  0.00000000000E+00  0.00000000000E+00 -0.35285830134E+03  0.37434473527E+03  0.12500000000E+03 0.  0.
<mgrwt>
<rscale>  0 0.12500000E+03</rscale>
<asrwt>0</asrwt>
<pdfrwt beam="1">  1       21 0.16528028E-02 0.12500000E+03</pdfrwt>
<pdfrwt beam="2">  1       21 0.55938690E-01 0.12500000E+03</pdfrwt>
<totfact> 0.49789244E+06</totfact>
</mgrwt>
</event>
<event>
 3    1  0.1594457E-001  0.1250000E+03  0.7546771E-02  0.1235069E+00
         21   -1    0    0  502  501  0.00000000000E+00  0.00000000000E+00  0.12914339564E+03  0.12914339564E+03  0.00000000000E+00 0. -1.
         21   -1    0    0  501  502 -0.00000000000E+00 -0.00000000000E+00 -0.30247384938E+02  0.30247384938E+02  0.00000000000E+00 0. -1.
         25    1    1    2    0    0  0.00000000000E+00  0.00000000000E+00  0.98896010700E+02  0.15939078057E+03  0.12500000000E+03 0.  0.
<mgrwt>
<rscale>  0 0.12500000E+03</rscale>
<asrwt>0</asrwt>
<pdfrwt beam="1">  1       21 0.19868214E-01 0.12500000E+03</pdfrwt>
<pdfrwt beam="2">  1       21 0.46534439E-02 0.12500000E+03</pdfrwt>
<totfact> 0.69594013E+06</totfact>
</mgrwt>
</event>
<event>
 3    1  0.1594457E-001  0.1250000E+03  0.7546771E-02  0.1235069E+00
         21   -1    0    0  502  501  0.00000000000E+00  0.00000000000E+00  0.77095268341E+02  0.77095268341E+02  0.00000000000E+00 0.  1.
         21   -1    0    0  501  502 -0.00000000000E+00 -0.00000000000E+00 -0.50667830647E+02  0.50667830647E+02  0.00000000000E+00 0.  1.
         25    1    1    2    0    0  0.00000000000E+00  0.00000000000E+00  0.26427437695E+02  0.12776309899E+03  0.12500000000E+03 0.  0.
<mgrwt>
<rscale>  0 0.12500000E+03</rscale>
<asrwt>0</asrwt>
<pdfrwt beam="1">  1       21 0.11860811E-01 0.12500000E+03</pdfrwt>
<pdfrwt beam="2">  1       21 0.77950509E-02 0.12500000E+03</pdfrwt>
<totfact> 0.73665586E+06</totfact>
</mgrwt>
</event>
<event>
 3    1  0.1594457E-001  0.1250000E+03  0.7546771E-02  0.1235069E+00
         21   -1    0    0  502  501  0.00000000000E+00  0.00000000000E+00  0.20266400112E+02  0.20266400112E+02  0.00000000000E+00 0.  1.
         21   -1    0    0  501  502 -0.00000000000E+00 -0.00000000000E+00 -0.19274513374E+03  0.19274513374E+03  0.00000000000E+00 0.  1.
         25    1    1    2    0    0  0.00000000000E+00  0.00000000000E+00 -0.17247873363E+03  0.21301153385E+03  0.12500000000E+03 0.  0.
<mgrwt>
<rscale>  0 0.12500000E+03</rscale>
<asrwt>0</asrwt>
<pdfrwt beam="1">  1       21 0.31179077E-02 0.12500000E+03</pdfrwt>
<pdfrwt beam="2">  1       21 0.29653097E-01 0.12500000E+03</pdfrwt>
<totfact> 0.63544074E+06</totfact>
</mgrwt>
</event>
<event>
 3    1  0.1594457E-001  0.1250000E+03  0.7546771E-02  0.1235069E+00
         21   -1    0    0  502  501  0.00000000000E+00  0.00000000000E+00  0.55490636485E+02  0.55490636485E+02  0.00000000000E+00 0. -1.
         21   -1    0    0  501  502 -0.00000000000E+00 -0.00000000000E+00 -0.70394759323E+02  0.70394759323E+02  0.00000000000E+00 0. -1.
         25    1    1    2    0    0  0.00000000000E+00  0.00000000000E+00 -0.14904122838E+02  0.12588539581E+03  0.12500000000E+03 0.  0.
<mgrwt>
<rscale>  0 0.12500000E+03</rscale>
<asrwt>0</asrwt>
<pdfrwt beam="1">  1       21 0.85370209E-02 0.12500000E+03</pdfrwt>
<pdfrwt beam="2">  1       21 0.10829963E-01 0.12500000E+03</pdfrwt>
<totfact> 0.73921858E+06</totfact>
</mgrwt>
</event>
<event>
 3    1  0.1594457E-001  0.1250000E+03  0.7546771E-02  0.1235069E+00
         21   -1    0    0  502  501  0.00000000000E+00  0.00000000000E+00  0.44038293530E+03  0.44038293530E+03  0.00000000000E+00 0. -1.
         21   -1    0    0  501  502 -0.00000000000E+00 -0.00000000000E+00 -0.88701211762E+01  0.88701211762E+01  0.00000000000E+00 0. -1.
         25    1    1    2    0    0  0.00000000000E+00  0.00000000000E+00  0.43151281412E+03  0.44925305647E+03  0.12500000000E+03 0.  0.
<mgrwt>
<rscale>  0 0.12500000E+03</rscale>
<asrwt>0</asrwt>
<pdfrwt beam="1">  1       21 0.67751204E-01 0.12500000E+03</pdfrwt>
<pdfrwt beam="2">  1       21 0.13646344E-02 0.12500000E+03</pdfrwt>
<totfact> 0.44937004E+06</totfact>
</mgrwt>
</event>
<event>
 3    1  0.1594457E-001  0.1250000E+03  0.7546771E-02  0.1235069E+00
         21   -1    0    0  502  501  0.00000000000E+00  0.00000000000E+00  0.10314883914E+03  0.10314883914E+03  0.00000000000E+00 0. -1.
         21   -1    0    0  501  502 -0.00000000000E+00 -0.00000000000E+00 -0.37870033561E+02  0.37870033561E+02  0.00000000000E+00 0. -1.
         25    1    1    2    0    0  0.00000000000E+00  0.00000000000E+00  0.65278805579E+02  0.14101887270E+03  0.12500000000E+03 0.  0.
<mgrwt>
<rscale>  0 0.12500000E+03</rscale>
<asrwt>0</asrwt>
<pdfrwt beam="1">  1       21 0.15869052E-01 0.12500000E+03</pdfrwt>
<pdfrwt beam="2">  1       21 0.58261590E-02 0.12500000E+03</pdfrwt>
<totfact> 0.71906574E+06</totfact>
</mgrwt>
</event>
<event>
 3    1  0.1594457E-001  0.1250000E+03  0.7546771E-02  0.1235069E+00
         21   -1    0    0  502  501  0.00000000000E+00  0.00000000000E+00  0.17789675693E+03  0.17789675693E+03  0.00000000000E+00 0.  1.
         21   -1    0    0  501  502 -0.00000000000E+00 -0.00000000000E+00 -0.21957960715E+02  0.21957960715E+02  0.00000000000E+00 0.  1.
         25    1    1    2    0    0  0.00000000000E+00  0.00000000000E+00  0.15593879621E+03  0.19985471764E+03  0.12500000000E+03 0.  0.
<mgrwt>
<rscale>  0 0.12500000E+03</rscale>
<asrwt>0</asrwt>
<pdfrwt beam="1">  1       21 0.27368731E-01 0.12500000E+03</pdfrwt>
<pdfrwt beam="2">  1       21 0.33781479E-02 0.12500000E+03</pdfrwt>
<totfact> 0.64942998E+06</totfact>
</mgrwt>
</event>
<event>
 3    1  0.1594457E-001  0.1250000E+03  0.7546771E-02  0.1235069E+00
         21   -1    0    0  502  501  0.00000000000E+00  0.00000000000E+00  0.56519732653E+02  0.56519732653E+02  0.00000000000E+00 0.  1.
         21   -1    0    0  501  502 -0.00000000000E+00 -0.00000000000E+00 -0.69113030382E+02  0.69113030382E+02  0.00000000000E+00 0.  1.
         25    1    1    2    0    0  0.00000000000E+00  0.00000000000E+00 -0.12593297729E+02  0.12563276303E+03  0.12500000000E+03 0.  0.
<mgrwt>
<rscale>  0 0.12500000E+03</rscale>
<asrwt>0</asrwt>
<pdfrwt beam="1">  1       21 0.86953435E-02 0.12500000E+03</pdfrwt>
<pdfrwt beam="2">  1       21 0.10632774E-01 0.12500000E+03</pdfrwt>
<totfact> 0.73956882E+06</totfact>
</mgrwt>
</event>
<event>
 3    1  0.1594457E-001  0.1250000E+03  0.7546771E-02  0.1235069E+00
         21   -1    0    0  502  501  0.00000000000E+00  0.00000000000E+00  0.54822167184E+02  0.54822167184E+02  0.00000000000E+00 0.  1.
         21   -1    0    0  501  502 -0.00000000000E+00 -0.00000000000E+00 -0.71253111663E+02  0.71253111663E+02  0.00000000000E+00 0.  1.
         25    1    1    2    0    0  0.00000000000E+00  0.00000000000E+00 -0.16430944479E+02  0.12607527885E+03  0.12500000000E+03 0.  0.
<mgrwt>
<rscale>  0 0.12500000E+03</rscale>
<asrwt>0</asrwt>
<pdfrwt beam="1">  1       21 0.84341796E-02 0.12500000E+03</pdfrwt>
<pdfrwt beam="2">  1       21 0.10962017E-01 0.12500000E+03</pdfrwt>
<totfact> 0.73895666E+06</totfact>
</mgrwt>
</event>
<event>
 3    1  0.1594457E-001  0.1250000E+03  0.7546771E-02  0.1235069E+00
         21   -1    0    0  502  501  0.00000000000E+00  0.00000000000E+00  0.23217347400E+02  0.23217347400E+02  0.00000000000E+00 0.  1.
         21   -1    0    0  501  502 -0.00000000000E+00 -0.00000000000E+00 -0.16824704100E+03  0.16824704100E+03  0.00000000000E+00 0.  1.
         25    1    1    2    0    0  0.00000000000E+00  0.00000000000E+00 -0.14502969360E+03  0.19146438840E+03  0.12500000000E+03 0.  0.
<mgrwt>
<rscale>  0 0.12500000E+03</rscale>
<asrwt>0</asrwt>
<pdfrwt beam="1">  1       21 0.35718995E-02 0.12500000E+03</pdfrwt>
<pdfrwt beam="2">  1       21 0.25884161E-01 0.12500000E+03</pdfrwt>
<totfact> 0.65860079E+06</totfact>
</mgrwt>
</event>
<event>
 3    1  0.1594457E-001  0.1250000E+03  0.7546771E-02  0.1235069E+00
         21   -1    0    0  502  501  0.00000000000E+00  0.00000000000E+00  0.41483870884E+01  0.41483870884E+01  0.00000000000E+00 0. -1.
         21   -1    0    0  501  502 -0.00000000000E+00 -0.00000000000E+00 -0.94163102834E+03  0.94163102834E+03  0.00000000000E+00 0. -1.
         25    1    1    2    0    0  0.00000000000E+00  0.00000000000E+00 -0.93748264125E+03  0.94577941542E+03  0.12500000000E+03 0.  0.
<mgrwt>
<rscale>  0 0.12500000E+03</rscale>
<asrwt>0</asrwt>
<pdfrwt beam="1">  1       21 0.63821311E-03 0.12500000E+03</pdfrwt>
<pdfrwt beam="2">  1       21 0.14486638E+00 0.12500000E+03</pdfrwt>
<totfact> 0.25024736E+06</totfact>
</mgrwt>
</event>
<event>
 3    1  0.1594457E-001  0.1250000E+03  0.7546771E-02  0.1235069E+00
         21   -1    0    0  502  501  0.00000000000E+00  0.00000000000E+00  0.35763993167E+03  0.35763993167E+03  0.00000000000E+00 0.  1.
         21   -1    0    0  501  502 -0.00000000000E+00 -0.00000000000E+00 -0.10922298251E+02  0.10922298251E+02  0.00000000000E+00 0.  1.
         25    1    1    2    0    0  0.00000000000E+00  0.00000000000E+00  0.34671763342E+03  0.36856222992E+03  0.12500000000E+03 0.  0.
<mgrwt>
<rscale>  0 0.12500000E+03</rscale>
<asrwt>0</asrwt>
<pdfrwt beam="1">  1       21 0.55021519E-01 0.12500000E+03</pdfrwt>
<pdfrwt beam="2">  1       21 0.16803538E-02 0.12500000E+03</pdfrwt>
<totfact> 0.50196104E+06</totfact>
</mgrwt>
</event>
<event>
 3    1  0.1594457E-001  0.1250000E+03  0.7546771E-02  0.1235069E+00
         21   -1    0    0  502  501  0.00000000000E+00  0.00000000000E+00  0.55292777355E+03  0.55292777355E+03  0.00000000000E+00 0. -1.
         21   -1    0    0  501  502 -0.00000000000E+00 -0.00000000000E+00 -0.70646659235E+01  0.70646659235E+01  0.00000000000E+00 0. -1.
         25    1    1    2    0    0  0.00000000000E+00  0.00000000000E+00  0.54586310763E+03  0.55999243948E+03  0.12500000000E+03 0.  0.
<mgrwt>
<rscale>  0 0.12500000E+03</rscale>
<asrwt>0</asrwt>
<pdfrwt beam="1">  1       21 0.85065778E-01 0.12500000E+03</pdfrwt>
<pdfrwt beam="2">  1       21 0.10868721E-02 0.12500000E+03</pdfrwt>
<totfact> 0.38966785E+06</totfact>
</mgrwt>
</event>
<event>
 3    1  0.1594457E-001  0.1250000E+03  0.7546771E-02  0.1235069E+00
         21   -1    0    0  502  501  0.00000000000E+00  0.00000000000E+00  0.26727680513E+03  0.26727680513E+03  0.00000000000E+00 0.  1.
         21   -1    0    0  501  502 -0.00000000000E+00 -0.00000000000E+00 -0.14614998103E+02  0.14614998103E+02  0.00000000000E+00 0.  1.
         25    1    1    2    0    0  0.00000000000E+00  0.00000000000E+00  0.25266180702E+03  0.28189180323E+03  0.12500000000E+03 0.  0.
<mgrwt>
<rscale>  0 0.12500000E+03</rscale>
<asrwt>0</asrwt>
<pdfrwt beam="1">  1       21 0.41119505E-01 0.12500000E+03</pdfrwt>
<pdfrwt beam="2">  1       21 0.22484614E-02 0.12500000E+03</pdfrwt>
<totfact> 0.56995432E+06</totfact>
</mgrwt>
</event>
<event>
 3    1  0.1594457E-001  0.1250000E+03  0.7546771E-02  0.1235069E+00
         21   -1    0    0  502  501  0.00000000000E+00  0.00000000000E+00  0.10180913492E+02  0.10180913492E+02  0.00000000000E+00 0.  1.
         21   -1    0    0  501  502 -0.00000000000E+00 -0.00000000000E+00 -0.38368364521E+03  0.38368364521E+03  0.00000000000E+00 0.  1.
         25    1    1    2    0    0  0.00000000000E+00  0.00000000000E+00 -0.37350273172E+03  0.39386455870E+03  0.12500000000E+03 0.  0.
<mgrwt>
<rscale>  0 0.12500000E+03</rscale>
<asrwt>0</asrwt>
<pdfrwt beam="1">  1       21 0.15662945E-02 0.12500000E+03</pdfrwt>
<pdfrwt beam="2">  1       21 0.59028249E-01 0.12500000E+03</pdfrwt>
<totfact> 0.48450990E+06</totfact>
</mgrwt>
</event>
<event>
 3    1  0.1594457E-001  0.1250000E+03  0.7546771E-02  0.1235069E+00
         21   -1    0    0  502  501  0.00000000000E+00  0.00000000000E+00  0.17523474052E+03  0.17523474052E+03  0.00000000000E+00 0. -1.
         21   -1    0    0  501  502 -0.00000000000E+00 -0.00000000000E+00 -0.22291527287E+02  0.22291527287E+02  0.00000000000E+00 0. -1.
         25    1    1    2    0    0  0.00000000000E+00  0.00000000000E+00  0.15294321324E+03  0.19752626781E+03  0.12500000000E+03 0.  0.
<mgrwt>
<rscale>  0 0.12500000E+03</rscale>
<asrwt>0</asrwt>
<pdfrwt beam="1">  1       21 0.26959190E-01 0.12500000E+03</pdfrwt>
<pdfrwt beam="2">  1       21 0.34294658E-02 0.12500000E+03</pdfrwt>
<totfact> 0.65195586E+06</totfact>
</mgrwt>
</event>
<event>
 3    1  0.1594457E-001  0.1250000E+03  0.7546771E-02  0.1235069E+00
         21   -1    0    0  502  501  0.00000000000E+00  0.00000000000E+00  0.76421536390E+03  0.76421536390E+03  0.00000000000E+00 0. -1.
         21   -1    0    0  501  502 -0.00000000000E+00 -0.00000000000E+00 -0.51114518034E+01  0.51114518034E+01  0.00000000000E+00 0. -1.
         25    1    1    2    0    0  0.00000000000E+00  0.00000000000E+00  0.75910391209E+03  0.76932681570E+03  0.12500000000E+03 0.  0.
<mgrwt>
<rscale>  0 0.12500000E+03</rscale>
<asrwt>0</asrwt>
<pdfrwt beam="1">  1       21 0.11757150E+00 0.12500000E+03</pdfrwt>
<pdfrwt beam="2">  1       21 0.78637781E-03 0.12500000E+03</pdfrwt>
<totfact> 0.30400487E+06</totfact>
</mgrwt>
</event>
<event>
 3    1  0.1594457E-001  0.1250000E+03  0.7546771E-02  0.1235069E+00
         21   -1    0    0  502  501  0.00000000000E+00  0.00000000000E+00  0.73611981772E+03  0.73611981772E+03  0.00000000000E+00 0. -1.
         21   -1    0    0  501  502 -0.00000000000E+00 -0.00000000000E+00 -0.53065410086E+01  0.53065410086E+01  0.00000000000E+00 0. -1.
         25    1    1    2    0    0  0.00000000000E+00  0.00000000000E+00  0.73081327671E+03  0.74142635873E+03  0.12500000000E+03 0.  0.
<mgrwt>
<rscale>  0 0.12500000E+03</rscale>
<asrwt>0</asrwt>
<pdfrwt beam="1">  1       21 0.11324912E+00 0.12500000E+03</pdfrwt>
<pdfrwt beam="2">  1       21 0.81639151E-03 0.12500000E+03</pdfrwt>
<totfact> 0.31372748E+06</totfact>
</mgrwt>
</event>
<event>
 3    1  0.1594457E-001  0.1250000E+03  0.7546771E-02  0.1235069E+00
         21   -1    0    0  502  501  0.00000000000E+00  0.00000000000E+00  0.27141889804E+02  0.27141889804E+02  0.00000000000E+00 0.  1.
         21   -1    0    0  501  502 -0.00000000000E+00 -0.00000000000E+00 -0.14391960280E+03  0.14391960280E+03  0.00000000000E+00 0.  1.
         25    1    1    2    0    0  0.00000000000E+00  0.00000000000E+00 -0.11677771300E+03  0.17106149261E+03  0.12500000000E+03 0.  0.
<mgrwt>
<rscale>  0 0.12500000E+03</rscale>
<asrwt>0</asrwt>
<pdfrwt beam="1">  1       21 0.41756754E-02 0.12500000E+03</pdfrwt>
<pdfrwt beam="2">  1       21 0.22141477E-01 0.12500000E+03</pdfrwt>
<totfact> 0.68192024E+06</totfact>
</mgrwt>
</event>
<event>
 3    1  0.1594457E-001  0.1250000E+03  0.7546771E-02  0.1235069E+00
         21   -1    0    0  502  501  0.00000000000E+00  0.00000000000E+00  0.27990778387E+03  0.27990778387E+03  0.00000000000E+00 0.  1.
         21   -1    0    0  501  502 -0.00000000000E+00 -0.00000000000E+00 -0.13955489004E+02  0.13955489004E+02  0.00000000000E+00 0.  1.
         25    1    1    2    0    0  0.00000000000E+00  0.00000000000E+00  0.26595229487E+03  0.29386327288E+03  0.12500000000E+03 0.  0.
<mgrwt>
<rscale>  0 0.12500000E+03</rscale>
<asrwt>0</asrwt>
<pdfrwt beam="1">  1       21 0.43062732E-01 0.12500000E+03</pdfrwt>
<pdfrwt beam="2">  1       21 0.21469985E-02 0.12500000E+03</pdfrwt>
<totfact> 0.55970048E+06</totfact>
</mgrwt>
</event>
<event>
 3    1  0.1594457E-001  0.1250000E+03  0.7546771E-02  0.1235069E+00
         21   -1    0    0  502  501  0.00000000000E+00  0.00000000000E+00  0.24665599980E+02  0.24665599980E+02  0.00000000000E+00 0.  1.
         21   -1    0    0  501  502 -0.00000000000E+00 -0.00000000000E+00 -0.15836833497E+03  0.15836833497E+03  0.00000000000E+00 0.  1.
         25    1    1    2    0    0  0.00000000000E+00  0.00000000000E+00 -0.13370273499E+03  0.18303393495E+03  0.12500000000E+03 0.  0.
<mgrwt>
<rscale>  0 0.12500000E+03</rscale>
<asrwt>0</asrwt>
<pdfrwt beam="1">  1       21 0.37947076E-02 0.12500000E+03</pdfrwt>
<pdfrwt beam="2">  1       21 0.24364360E-01 0.12500000E+03</pdfrwt>
<totfact> 0.66805186E+06</totfact>
</mgrwt>
</event>
<event>
 3    1  0.1594457E-001  0.1250000E+03  0.7546771E-02  0.1235069E+00
         21   -1    0    0  502  501  0.00000000000E+00  0.00000000000E+00  0.27855061506E+03  0.27855061506E+03  0.00000000000E+00 0.  1.
         21   -1    0    0  501  502 -0.00000000000E+00 -0.00000000000E+00 -0.14023483665E+02  0.14023483665E+02  0.00000000000E+00 0.  1.
         25    1    1    2    0    0  0.00000000000E+00  0.00000000000E+00  0.26452713139E+03  0.29257409872E+03  0.12500000000E+03 0.  0.
<mgrwt>
<rscale>  0 0.12500000E+03</rscale>
<asrwt>0</asrwt>
<pdfrwt beam="1">  1       21 0.42853937E-01 0.12500000E+03</pdfrwt>
<pdfrwt beam="2">  1       21 0.21574592E-02 0.12500000E+03</pdfrwt>
<totfact> 0.56078998E+06</totfact>
</mgrwt>
</event>
<event>
 3    1  0.1594457E-001  0.1250000E+03  0.7546771E-02  0.1235069E+00
         21   -1    0    0  502  501  0.00000000000E+00  0.00000000000E+00  0.38564429260E+02  0.38564429260E+02  0.00000000000E+00 0.  1.
         21   -1    0    0  501  502 -0.00000000000E+00 -0.00000000000E+00 -0.10129152888E+03  0.10129152888E+03  0.00000000000E+00 0.  1.
         25    1    1    2    0    0  0.00000000000E+00  0.00000000000E+00 -0.62727099616E+02  0.13985595814E+03  0.12500000000E+03 0.  0.
<mgrwt>
<rscale>  0 0.12500000E+03</rscale>
<asrwt>0</asrwt>
<pdfrwt beam="1">  1       21 0.59329892E-02 0.12500000E+03</pdfrwt>
<pdfrwt beam="2">  1       21 0.15583312E-01 0.12500000E+03</pdfrwt>
<totfact> 0.72058118E+06</totfact>
</mgrwt>
</event>
<event>
 3    1  0.1594457E-001  0.1250000E+03  0.7546771E-02  0.1235069E+00
         21   -1    0    0  502  501  0.00000000000E+00  0.00000000000E+00  0.12118207886E+03  0.12118207886E+03  0.00000000000E+00 0. -1.
         21   -1    0    0  501  502 -0.00000000000E+00 -0.00000000000E+00 -0.32234551814E+02  0.32234551814E+02  0.00000000000E+00 0. -1.
         25    1    1    2    0    0  0.00000000000E+00  0.00000000000E+00  0.88947527049E+02  0.15341663068E+03  0.12500000000E+03 0.  0.
<mgrwt>
<rscale>  0 0.12500000E+03</rscale>
<asrwt>0</asrwt>
<pdfrwt beam="1">  1       21 0.18643396E-01 0.12500000E+03</pdfrwt>
<pdfrwt beam="2">  1       21 0.49591619E-02 0.12500000E+03</pdfrwt>
<totfact> 0.70332602E+06</totfact>
</mgrwt>
</event>
<event>
 3    1  0.1594457E-001  0.1250000E+03  0.7546771E-02  0.1235069E+00
         21   -1    0    0  502  501  0.00000000000E+00  0.00000000000E+00  0.67539194025E+01  0.67539194025E+01  0.00000000000E+00 0.  1.
         21   -1    0    0  501  502 -0.00000000000E+00 -0.00000000000E+00 -0.57836787311E+03  0.57836787311E+03  0.00000000000E+00 0.  1.
         25    1    1    2    0    0  0.00000000000E+00  0.00000000000E+00 -0.57161395371E+03  0.58512179251E+03  0.12500000000E+03 0.  0.
<mgrwt>
<rscale>  0 0.12500000E+03</rscale>
<asrwt>0</asrwt>
<pdfrwt beam="1">  1       21 0.10390643E-02 0.12500000E+03</pdfrwt>
<pdfrwt beam="2">  1       21 0.88979692E-01 0.12500000E+03</pdfrwt>
<totfact> 0.37774234E+06</totfact>
</mgrwt>
</event>
<event>
 3    1  0.1594457E-001  0.1250000E+03  0.7546771E-02  0.1235069E+00
         21   -1    0    0  502  501  0.00000000000E+00  0.00000000000E+00  0.15910279546E+03  0.15910279546E+03  0.00000000000E+00 0.  1.
         21   -1    0    0  501  502 -0.00000000000E+00 -0.00000000000E+00 -0.24551737062E+02  0.24551737062E+02  0.00000000000E+00 0.  1.
         25    1    1    2    0    0  0.00000000000E+00  0.00000000000E+00  0.13455105840E+03  0.18365453252E+03  0.12500000000E+03 0.  0.
<mgrwt>
<rscale>  0 0.12500000E+03</rscale>
<asrwt>0</asrwt>
<pdfrwt beam="1">  1       21 0.24477353E-01 0.12500000E+03</pdfrwt>
<pdfrwt beam="2">  1       21 0.37771904E-02 0.12500000E+03</pdfrwt>
<totfact> 0.66734754E+06</totfact>
</mgrwt>
</event>
<event>
 3    1  0.1594457E-001  0.1250000E+03  0.7546771E-02  0.1235069E+00
         21   -1    0    0  502  501  0.00000000000E+00  0.00000000000E+00  0.50422168804E+02  0.50422168804E+02  0.00000000000E+00 0. -1.
         21   -1    0    0  501  502 -0.00000000000E+00 -0.00000000000E+00 -0.77470884190E+02  0.77470884190E+02  0.00000000000E+00 0. -1.
         25    1    1    2    0    0  0.00000000000E+00  0.00000000000E+00 -0.27048715387E+02  0.12789305299E+03  0.12500000000E+03 0.  0.
<mgrwt>
<rscale>  0 0.12500000E+03</rscale>
<asrwt>0</asrwt>
<pdfrwt beam="1">  1       21 0.77572567E-02 0.12500000E+03</pdfrwt>
<pdfrwt beam="2">  1       21 0.11918598E-01 0.12500000E+03</pdfrwt>
<totfact> 0.73648011E+06</totfact>
</mgrwt>
</event>
<event>
 3    1  0.1594457E-001  0.1250000E+03  0.7546771E-02  0.1235069E+00
         21   -1    0    0  502  501  0.00000000000E+00  0.00000000000E+00  0.73630481354E+01  0.73630481354E+01  0.00000000000E+00 0. -1.
         21   -1    0    0  501  502 -0.00000000000E+00 -0.00000000000E+00 -0.53052077457E+03  0.53052077457E+03  0.00000000000E+00 0. -1.
         25    1    1    2    0    0  0.00000000000E+00  0.00000000000E+00 -0.52315772644E+03  0.53788382271E+03  0.12500000000E+03 0.  0.
<mgrwt>
<rscale>  0 0.12500000E+03</rscale>
<asrwt>0</asrwt>
<pdfrwt beam="1">  1       21 0.11327770E-02 0.12500000E+03</pdfrwt>
<pdfrwt beam="2">  1       21 0.81618557E-01 0.12500000E+03</pdfrwt>
<totfact> 0.40061360E+06</totfact>
</mgrwt>
</event>
<event>
 3    1  0.1594457E-001  0.1250000E+03  0.7546771E-02  0.1235069E+00
         21   -1    0    0  502  501  0.00000000000E+00  0.00000000000E+00  0.86299766079E+02  0.86299766079E+02  0.00000000000E+00 0.  1.
         21   -1    0    0  501  502 -0.00000000000E+00 -0.00000000000E+00 -0.45263737985E+02  0.45263737985E+02  0.00000000000E+00 0.  1.
         25    1    1    2    0    0  0.00000000000E+00  0.00000000000E+00  0.41036028094E+02  0.13156350406E+03  0.12500000000E+03 0.  0.
<mgrwt>
<rscale>  0 0.12500000E+03</rscale>
<asrwt>0</asrwt>
<pdfrwt beam="1">  1       21 0.13276887E-01 0.12500000E+03</pdfrwt>
<pdfrwt beam="2">  1       21 0.69636520E-02 0.12500000E+03</pdfrwt>
<totfact> 0.73154835E+06</totfact>
</mgrwt>
</event>
<event>
 3    1  0.1594457E-001  0.1250000E+03  0.7546771E-02  0.1235069E+00
         21   -1    0    0  502  501  0.00000000000E+00  0.00000000000E+00  0.27354777784E+02  0.27354777784E+02  0.00000000000E+00 0. -1.
         21   -1    0    0  501  502 -0.00000000000E+00 -0.00000000000E+00 -0.14279955154E+03  0.14279955154E+03  0.00000000000E+00 0. -1.
         25    1    1    2    0    0  0.00000000000E+00  0.00000000000E+00 -0.11544477375E+03  0.17015432932E+03  0.12500000000E+03 0.  0.
<mgrwt>
<rscale>  0 0.12500000E+03</rscale>
<asrwt>0</asrwt>
<pdfrwt beam="1">  1       21 0.42084274E-02 0.12500000E+03</pdfrwt>
<pdfrwt beam="2">  1       21 0.21969162E-01 0.12500000E+03</pdfrwt>
<totfact> 0.68299345E+06</totfact>
</mgrwt>
</event>
<event>
 3    1  0.1594457E-001  0.1250000E+03  0.7546771E-02  0.1235069E+00
         21   -1    0    0  502  501  0.00000000000E+00  0.00000000000E+00  0.11955791246E+03  0.11955791246E+03  0.00000000000E+00 0.  1.
         21   -1    0    0  501  502 -0.00000000000E+00 -0.00000000000E+00 -0.32672450695E+02  0.32672450695E+02  0.00000000000E+00 0.  1.
         25    1    1    2    0    0  0.00000000000E+00  0.00000000000E+00  0.86885461761E+02  0.15223036315E+03  0.12500000000E+03 0.  0.
<mgrwt>
<rscale>  0 0.12500000E+03</rscale>
<asrwt>0</asrwt>
<pdfrwt beam="1">  1       21 0.18393525E-01 0.12500000E+03</pdfrwt>
<pdfrwt beam="2">  1       21 0.50265309E-02 0.12500000E+03</pdfrwt>
<totfact> 0.70480139E+06</totfact>
</mgrwt>
</event>
<event>
 3    1  0.1594457E-001  0.1250000E+03  0.7546771E-02  0.1235069E+00
         21   -1    0    0  502  501  0.00000000000E+00  0.00000000000E+00  0.13902860805E+03  0.13902860805E+03  0.00000000000E+00 0. -1.
         21   -1    0    0  501  502 -0.00000000000E+00 -0.00000000000E+00 -0.28096735304E+02  0.28096735304E+02  0.00000000000E+00 0. -1.
         25    1    1    2    0    0  0.00000000000E+00  0.00000000000E+00  0.11093187275E+03  0.16712534335E+03  0.12500000000E+03 0.  0.
<mgrwt>
<rscale>  0 0.12500000E+03</rscale>
<asrwt>0</asrwt>
<pdfrwt beam="1">  1       21 0.21389016E-01 0.12500000E+03</pdfrwt>
<pdfrwt beam="2">  1       21 0.43225747E-02 0.12500000E+03</pdfrwt>
<totfact> 0.68659168E+06</totfact>
</mgrwt>
</event>
<event>
 3    1  0.1594457E-001  0.1250000E+03  0.7546771E-02  0.1235069E+00
         21   -1    0    0  502  501  0.00000000000E+00  0.00000000000E+00  0.41582197870E+02  0.41582197870E+02  0.00000000000E+00 0.  1.
         21   -1    0    0  501  502 -0.00000000000E+00 -0.00000000000E+00 -0.93940440864E+02  0.93940440864E+02  0.00000000000E+00 0.  1.
         25    1    1    2    0    0  0.00000000000E+00  0.00000000000E+00 -0.52358242994E+02  0.13552263873E+03  0.12500000000E+03 0.  0.
<mgrwt>
<rscale>  0 0.12500000E+03</rscale>
<asrwt>0</asrwt>
<pdfrwt beam="1">  1       21 0.63972613E-02 0.12500000E+03</pdfrwt>
<pdfrwt beam="2">  1       21 0.14452375E-01 0.12500000E+03</pdfrwt>
<totfact> 0.72627345E+06</totfact>
</mgrwt>
</event>
<event>
 3    1  0.1594457E-001  0.1250000E+03  0.7546771E-02  0.1235069E+00
         21   -1    0    0  502  501  0.00000000000E+00  0.00000000000E+00  0.30875083068E+02  0.30875083068E+02  0.00000000000E+00 0.  1.
         21   -1    0    0  501  502 -0.00000000000E+00 -0.00000000000E+00 -0.12651787823E+03  0.12651787823E+03  0.00000000000E+00 0.  1.
         25    1    1    2    0    0  0.00000000000E+00  0.00000000000E+00 -0.95642795163E+02  0.15739296130E+03  0.12500000000E+03 0.  0.
<mgrwt>
<rscale>  0 0.12500000E+03</rscale>
<asrwt>0</asrwt>
<pdfrwt beam="1">  1       21 0.47500129E-02 0.12500000E+03</pdfrwt>
<pdfrwt beam="2">  1       21 0.19464289E-01 0.12500000E+03</pdfrwt>
<totfact> 0.69839459E+06</totfact>
</mgrwt>
</event>
<event>
 3    1  0.1594457E-001  0.1250000E+03  0.7546771E-02  0.1235069E+00
         21   -1    0    0  502  501  0.00000000000E+00  0.00000000000E+00  0.20352162116E+02  0.20352162116E+02  0.00000000000E+00 0.  1.
         21   -1    0    0  501  502 -0.00000000000E+00 -0.00000000000E+00 -0.19193292475E+03  0.19193292475E+03  0.00000000000E+00 0.  1.
         25    1    1    2    0    0  0.00000000000E+00  0.00000000000E+00 -0.17158076264E+03  0.21228508687E+03  0.12500000000E+03 0.  0.
<mgrwt>
<rscale>  0 0.12500000E+03</rscale>
<asrwt>0</asrwt>
<pdfrwt beam="1">  1       21 0.31311018E-02 0.12500000E+03</pdfrwt>
<pdfrwt beam="2">  1       21 0.29528143E-01 0.12500000E+03</pdfrwt>
<totfact> 0.63619917E+06</totfact>
</mgrwt>
</event>
<event>
 3    1  0.1594457E-001  0.1250000E+03  0.7546771E-02  0.1235069E+00
         21   -1    0    0  502  501  0.00000000000E+00  0.00000000000E+00  0.10663558386E+04  0.10663558386E+04  0.00000000000E+00 0.  1.
         21   -1    0    0  501  502 -0.00000000000E+00 -0.00000000000E+00 -0.36631768294E+01  0.36631768294E+01  0.00000000000E+00 0.  1.
         25    1    1    2    0    0  0.00000000000E+00  0.00000000000E+00  0.10626926618E+04  0.10700190155E+04  0.12500000000E+03 0.  0.
<mgrwt>
<rscale>  0 0.12500000E+03</rscale>
<asrwt>0</asrwt>
<pdfrwt beam="1">  1       21 0.16405450E+00 0.12500000E+03</pdfrwt>
<pdfrwt beam="2">  1       21 0.56356652E-03 0.12500000E+03</pdfrwt>
<totfact> 0.21930839E+06</totfact>
</mgrwt>
</event>
<event>
 3    1  0.1594457E-001  0.1250000E+03  0.7546771E-02  0.1235069E+00
         21   -1    0    0  502  501  0.00000000000E+00  0.00000000000E+00  0.48074155823E+03  0.48074155823E+03  0.00000000000E+00 0. -1.
         21   -1    0    0  501  502 -0.00000000000E+00 -0.00000000000E+00 -0.81254676929E+01  0.81254676929E+01  0.00000000000E+00 0. -1.
         25    1    1    2    0    0  0.00000000000E+00  0.00000000000E+00  0.47261609053E+03  0.48886702592E+03  0.12500000000E+03 0.  0.
<mgrwt>
<rscale>  0 0.12500000E+03</rscale>
<asrwt>0</asrwt>
<pdfrwt beam="1">  1       21 0.73960218E-01 0.12500000E+03</pdfrwt>
<pdfrwt beam="2">  1       21 0.12500723E-02 0.12500000E+03</pdfrwt>
<totfact> 0.42654352E+06</totfact>
</mgrwt>
</event>
<event>
 3    1  0.1594457E-001  0.1250000E+03  0.7546771E-02  0.1235069E+00
         21   -1    0    0  502  501  0.00000000000E+00  0.00000000000E+00  0.27394393573E+02  0.27394393573E+02  0.00000000000E+00 0. -1.
         21   -1    0    0  501  502 -0.00000000000E+00 -0.00000000000E+00 -0.14259304516E+03  0.14259304516E+03  0.00000000000E+00 0. -1.
         25    1    1    2    0    0  0.00000000000E+00  0.00000000000E+00 -0.11519865159E+03  0.16998743874E+03  0.12500000000E+03 0.  0.
<mgrwt>
<rscale>  0 0.12500000E+03</rscale>
<asrwt>0</asrwt>
<pdfrwt beam="1">  1       21 0.42145221E-02 0.12500000E+03</pdfrwt>
<pdfrwt beam="2">  1       21 0.21937392E-01 0.12500000E+03</pdfrwt>
<totfact> 0.68319124E+06</totfact>
</mgrwt>
</event>
<event>
 3    1  0.1594457E-001  0.1250000E+03  0.7546771E-02  0.1235069E+00
         21   -1    0    0  502  501  0.00000000000E+00  0.00000000000E+00  0.30281163994E+02  0.30281163994E+02  0.00000000000E+00 0. -1.
         21   -1    0    0  501  502 -0.00000000000E+00 -0.00000000000E+00 -0.12899933440E+03  0.12899933440E+03  0.00000000000E+00 0. -1.
         25    1    1    2    0    0  0.00000000000E+00  0.00000000000E+00 -0.98718170402E+02  0.15928049839E+03  0.12500000000E+03 0.  0.
<mgrwt>
<rscale>  0 0.12500000E+03</rscale>
<asrwt>0</asrwt>
<pdfrwt beam="1">  1       21 0.46586406E-02 0.12500000E+03</pdfrwt>
<pdfrwt beam="2">  1       21 0.19846051E-01 0.12500000E+03</pdfrwt>
<totfact> 0.69607518E+06</totfact>
</mgrwt>
</event>
<event>
 3    1  0.1594457E-001  0.1250000E+03  0.7546771E-02  0.1235069E+00
         21   -1    0    0  502  501  0.00000000000E+00  0.00000000000E+00  0.60292776513E+03  0.60292776513E+03  0.00000000000E+00 0. -1.
         21   -1    0    0  501  502 -0.00000000000E+00 -0.00000000000E+00 -0.64788026459E+01  0.64788026459E+01  0.00000000000E+00 0. -1.
         25    1    1    2    0    0  0.00000000000E+00  0.00000000000E+00  0.59644896248E+03  0.60940656777E+03  0.12500000000E+03 0.  0.
<mgrwt>
<rscale>  0 0.12500000E+03</rscale>
<asrwt>0</asrwt>
<pdfrwt beam="1">  1       21 0.92758074E-01 0.12500000E+03</pdfrwt>
<pdfrwt beam="2">  1       21 0.99673934E-03 0.12500000E+03</pdfrwt>
<totfact> 0.36670670E+06</totfact>
</mgrwt>
</event>
<event>
 3    1  0.1594457E-001  0.1250000E+03  0.7546771E-02  0.1235069E+00
         21   -1    0    0  502  501  0.00000000000E+00  0.00000000000E+00  0.45649048601E+03  0.45649048601E+03  0.00000000000E+00 0. -1.
         21   -1    0    0  501  502 -0.00000000000E+00 -0.00000000000E+00 -0.85571334336E+01  0.85571334336E+01  0.00000000000E+00 0. -1.
         25    1    1    2    0    0  0.00000000000E+00  0.00000000000E+00  0.44793335258E+03  0.46504761945E+03  0.12500000000E+03 0.  0.
<mgrwt>
<rscale>  0 0.12500000E+03</rscale>
<asrwt>0</asrwt>
<pdfrwt beam="1">  1       21 0.70229287E-01 0.12500000E+03</pdfrwt>
<pdfrwt beam="2">  1       21 0.13164824E-02 0.12500000E+03</pdfrwt>
<totfact> 0.44005339E+06</totfact>
</mgrwt>
</event>
<event>
 3    1  0.1594457E-001  0.1250000E+03  0.7546771E-02  0.1235069E+00
         21   -1    0    0  502  501  0.00000000000E+00  0.00000000000E+00  0.15656801453E+02  0.15656801453E+02  0.00000000000E+00 0. -1.
         21   -1    0    0  501  502 -0.00000000000E+00 -0.00000000000E+00 -0.24949221025E+03  0.24949221025E+03  0.00000000000E+00 0. -1.
         25    1    1    2    0    0  0.00000000000E+00  0.00000000000E+00 -0.23383540879E+03  0.26514901170E+03  0.12500000000E+03 0.  0.
<mgrwt>
<rscale>  0 0.12500000E+03</rscale>
<asrwt>0</asrwt>
<pdfrwt beam="1">  1       21 0.24087388E-02 0.12500000E+03</pdfrwt>
<pdfrwt beam="2">  1       21 0.38383415E-01 0.12500000E+03</pdfrwt>
<totfact> 0.58480529E+06</totfact>
</mgrwt>
</event>
<event>
 3    1  0.1594457E-001  0.1250000E+03  0.7546771E-02  0.1235069E+00
         21   -1    0    0  502  501  0.00000000000E+00  0.00000000000E+00  0.36757849345E+02  0.36757849345E+02  0.00000000000E+00 0.  1.
         21   -1    0    0  501  502 -0.00000000000E+00 -0.00000000000E+00 -0.10626981909E+03  0.10626981909E+03  0.00000000000E+00 0.  1.
         25    1    1    2    0    0  0.00000000000E+00  0.00000000000E+00 -0.69511969746E+02  0.14302766843E+03  0.12500000000E+03 0.  0.
<mgrwt>
<rscale>  0 0.12500000E+03</rscale>
<asrwt>0</asrwt>
<pdfrwt beam="1">  1       21 0.56550539E-02 0.12500000E+03</pdfrwt>
<pdfrwt beam="2">  1       21 0.16349203E-01 0.12500000E+03</pdfrwt>
<totfact> 0.71646475E+06</totfact>
</mgrwt>
</event>
<event>
 3    1  0.1594457E-001  0.1250000E+03  0.7546771E-02  0.1235069E+00
         21   -1    0    0  502  501  0.00000000000E+00  0.00000000000E+00  0.38719915954E+03  0.38719915954E+03  0.00000000000E+00 0.  1.
         21   -1    0    0  501  502 -0.00000000000E+00 -0.00000000000E+00 -0.10088477477E+02  0.10088477477E+02  0.00000000000E+00 0.  1.
         25    1    1    2    0    0  0.00000000000E+00  0.00000000000E+00  0.37711068206E+03  0.39728763702E+03  0.12500000000E+03 0.  0.
<mgrwt>
<rscale>  0 0.12500000E+03</rscale>
<asrwt>0</asrwt>
<pdfrwt beam="1">  1       21 0.59569090E-01 0.12500000E+03</pdfrwt>
<pdfrwt beam="2">  1       21 0.15520738E-02 0.12500000E+03</pdfrwt>
<totfact> 0.48221785E+06</totfact>
</mgrwt>
</event>
<event>
 3    1  0.1594457E-001  0.1250000E+03  0.7546771E-02  0.1235069E+00
         21   -1    0    0  502  501  0.00000000000E+00  0.00000000000E+00  0.13611074077E+03  0.13611074077E+03  0.00000000000E+00 0.  1.
         21   -1    0    0  501  502 -0.00000000000E+00 -0.00000000000E+00 -0.28699057678E+02  0.28699057678E+02  0.00000000000E+00 0.  1.
         25    1    1    2    0    0  0.00000000000E+00  0.00000000000E+00  0.10741168309E+03  0.16480979845E+03  0.12500000000E+03 0.  0.
<mgrwt>
<rscale>  0 0.12500000E+03</rscale>
<asrwt>0</asrwt>
<pdfrwt beam="1">  1       21 0.20940114E-01 0.12500000E+03</pdfrwt>
<pdfrwt beam="2">  1       21 0.44152397E-02 0.12500000E+03</pdfrwt>
<totfact> 0.68936515E+06</totfact>
</mgrwt>
</event>
<event>
 3    1  0.1594457E-001  0.1250000E+03  0.7546771E-02  0.1235069E+00
         21   -1    0    0  502  501  0.00000000000E+00  0.00000000000E+00  0.17385615489E+02  0.17385615489E+02  0.00000000000E+00 0.  1.
         21   -1    0    0  501  502 -0.00000000000E+00 -0.00000000000E+00 -0.22468287088E+03  0.22468287088E+03  0.00000000000E+00 0.  1.
         25    1    1    2    0    0  0.00000000000E+00  0.00000000000E+00 -0.20729725539E+03  0.24206848637E+03  0.12500000000E+03 0.  0.
<mgrwt>
<rscale>  0 0.12500000E+03</rscale>
<asrwt>0</asrwt>
<pdfrwt beam="1">  1       21 0.26747099E-02 0.12500000E+03</pdfrwt>
<pdfrwt beam="2">  1       21 0.34566598E-01 0.12500000E+03</pdfrwt>
<totfact> 0.60633071E+06</totfact>
</mgrwt>
</event>
<event>
 3    1  0.1594457E-001  0.1250000E+03  0.7546771E-02  0.1235069E+00
         21   -1    0    0  502  501  0.00000000000E+00  0.00000000000E+00  0.11396919272E+03  0.11396919272E+03  0.00000000000E+00 0.  1.
         21   -1    0    0  501  502 -0.00000000000E+00 -0.00000000000E+00 -0.34274613224E+02  0.34274613224E+02  0.00000000000E+00 0.  1.
         25    1    1    2    0    0  0.00000000000E+00  0.00000000000E+00  0.79694579498E+02  0.14824380595E+03  0.12500000000E+03 0.  0.
<mgrwt>
<rscale>  0 0.12500000E+03</rscale>
<asrwt>0</asrwt>
<pdfrwt beam="1">  1       21 0.17533722E-01 0.12500000E+03</pdfrwt>
<pdfrwt beam="2">  1       21 0.52730175E-02 0.12500000E+03</pdfrwt>
<totfact> 0.70980514E+06</totfact>
</mgrwt>
</event>
<event>
 3    1  0.1594457E-001  0.1250000E+03  0.7546771E-02  0.1235069E+00
         21   -1    0    0  502  501  0.00000000000E+00  0.00000000000E+00  0.27848532961E+02  0.27848532961E+02  0.00000000000E+00 0. -1.
         21   -1    0    0  501  502 -0.00000000000E+00 -0.00000000000E+00 -0.14026771197E+03  0.14026771197E+03  0.00000000000E+00 0. -1.
         25    1    1    2    0    0  0.00000000000E+00  0.00000000000E+00 -0.11241917900E+03  0.16811624493E+03  0.12500000000E+03 0.  0.
<mgrwt>
<rscale>  0 0.12500000E+03</rscale>
<asrwt>0</asrwt>
<pdfrwt beam="1">  1       21 0.42843897E-02 0.12500000E+03</pdfrwt>
<pdfrwt beam="2">  1       21 0.21579648E-01 0.12500000E+03</pdfrwt>
<totfact> 0.68541126E+06</totfact>
</mgrwt>
</event>
<event>
 3    1  0.1594457E-001  0.1250000E+03  0.7546771E-02  0.1235069E+00
         21   -1    0    0  502  501  0.00000000000E+00  0.00000000000E+00  0.14354044308E+03  0.14354044308E+03  0.00000000000E+00 0.  1.
         21   -1    0    0  501  502 -0.00000000000E+00 -0.00000000000E+00 -0.27213584661E+02  0.27213584661E+02  0.00000000000E+00 0.  1.
         25    1    1    2    0    0  0.00000000000E+00  0.00000000000E+00  0.11632685842E+03  0.17075402774E+03  0.12500000000E+03 0.  0.
<mgrwt>
<rscale>  0 0.12500000E+03</rscale>
<asrwt>0</asrwt>
<pdfrwt beam="1">  1       21 0.22083145E-01 0.12500000E+03</pdfrwt>
<pdfrwt beam="2">  1       21 0.41867054E-02 0.12500000E+03</pdfrwt>
<totfact> 0.68228362E+06</totfact>
</mgrwt>
</event>
<event>
 3    1  0.1594457E-001  0.1250000E+03  0.7546771E-02  0.1235069E+00
         21   -1    0    0  502  501  0.00000000000E+00  0.00000000000E+00  0.14045839849E+03  0.14045839849E+03  0.00000000000E+00 0. -1.
         21   -1    0    0  501  502 -0.00000000000E+00 -0.00000000000E+00 -0.27810725753E+02  0.27810725753E+02  0.00000000000E+00 0. -1.
         25    1    1    2    0    0  0.00000000000E+00  0.00000000000E+00  0.11264767273E+03  0.16826912424E+03  0.12500000000E+03 0.  0.
<mgrwt>
<rscale>  0 0.12500000E+03</rscale>
<asrwt>0</asrwt>
<pdfrwt beam="1">  1       21 0.21608984E-01 0.12500000E+03</pdfrwt>
<pdfrwt beam="2">  1       21 0.42785733E-02 0.12500000E+03</pdfrwt>
<totfact> 0.68522949E+06</totfact>
</mgrwt>
</event>
<event>
 3    1  0.1594457E-001  0.1250000E+03  0.7546771E-02  0.1235069E+00
         21   -1    0    0  502  501  0.00000000000E+00  0.00000000000E+00  0.80854417810E+03  0.80854417810E+03  0.00000000000E+00 0.  1.
         21   -1    0    0  501  502 -0.00000000000E+00 -0.00000000000E+00 -0.48312140583E+01  0.48312140583E+01  0.00000000000E+00 0.  1.
         25    1    1    2    0    0  0.00000000000E+00  0.00000000000E+00  0.80371296404E+03  0.81337539215E+03  0.12500000000E+03 0.  0.
<mgrwt>
<rscale>  0 0.12500000E+03</rscale>
<asrwt>0</asrwt>
<pdfrwt beam="1">  1       21 0.12439130E+00 0.12500000E+03</pdfrwt>
<pdfrwt beam="2">  1       21 0.74326435E-03 0.12500000E+03</pdfrwt>
<totfact> 0.28924445E+06</totfact>
</mgrwt>
</event>
<event>
 3    1  0.1594457E-001  0.1250000E+03  0.7546771E-02  0.1235069E+00
         21   -1    0    0  502  501  0.00000000000E+00  0.00000000000E+00  0.80753825250E+02  0.80753825250E+02  0.00000000000E+00 0. -1.
         21   -1    0    0  501  502 -0.00000000000E+00 -0.00000000000E+00 -0.48372321533E+02  0.48372321533E+02  0.00000000000E+00 0. -1.
         25    1    1    2    0    0  0.00000000000E+00  0.00000000000E+00  0.32381503717E+02  0.12912614678E+03  0.12500000000E+03 0.  0.
<mgrwt>
<rscale>  0 0.12500000E+03</rscale>
<asrwt>0</asrwt>
<pdfrwt beam="1">  1       21 0.12423665E-01 0.12500000E+03</pdfrwt>
<pdfrwt beam="2">  1       21 0.74418956E-02 0.12500000E+03</pdfrwt>
<totfact> 0.73481945E+06</totfact>
</mgrwt>
</event>
<event>
 3    1  0.1594457E-001  0.1250000E+03  0.7546771E-02  0.1235069E+00
         21   -1    0    0  502  501  0.00000000000E+00  0.00000000000E+00  0.71197821298E+01  0.71197821298E+01  0.00000000000E+00 0. -1.
         21   -1    0    0  501  502 -0.00000000000E+00 -0.00000000000E+00 -0.54864740645E+03  0.54864740645E+03  0.00000000000E+00 0. -1.
         25    1    1    2    0    0  0.00000000000E+00  0.00000000000E+00 -0.54152762432E+03  0.55576718858E+03  0.12500000000E+03 0.  0.
<mgrwt>
<rscale>  0 0.12500000E+03</rscale>
<asrwt>0</asrwt>
<pdfrwt beam="1">  1       21 0.10953508E-02 0.12500000E+03</pdfrwt>
<pdfrwt beam="2">  1       21 0.84407314E-01 0.12500000E+03</pdfrwt>
<totfact> 0.39172589E+06</totfact>
</mgrwt>
</event>
<event>
 3    1  0.1594457E-001  0.1250000E+03  0.7546771E-02  0.1235069E+00
         21   -1    0    0  502  501  0.00000000000E+00  0.00000000000E+00  0.14877663927E+03  0.14877663927E+03  0.00000000000E+00 0.  1.
         21   -1    0    0  501  502 -0.00000000000E+00 -0.00000000000E+00 -0.26255802115E+02  0.26255802115E+02  0.00000000000E+00 0.  1.
         25    1    1    2    0    0  0.00000000000E+00  0.00000000000E+00  0.12252083716E+03  0.17503244139E+03  0.12500000000E+03 0.  0.
<mgrwt>
<rscale>  0 0.12500000E+03</rscale>
<asrwt>0</asrwt>
<pdfrwt beam="1">  1       21 0.22888713E-01 0.12500000E+03</pdfrwt>
<pdfrwt beam="2">  1       21 0.40393543E-02 0.12500000E+03</pdfrwt>
<totfact> 0.67726019E+06</totfact>
</mgrwt>
</event>
<event>
 3    1  0.1594457E-001  0.1250000E+03  0.7546771E-02  0.1235069E+00
         21   -1    0    0  502  501  0.00000000000E+00  0.00000000000E+00  0.99831000424E+02  0.99831000424E+02  0.00000000000E+00 0. -1.
         21   -1    0    0  501  502 -0.00000000000E+00 -0.00000000000E+00 -0.39128627214E+02  0.39128627214E+02  0.00000000000E+00 0. -1.
         25    1    1    2    0    0  0.00000000000E+00  0.00000000000E+00  0.60702373210E+02  0.13895962764E+03  0.12500000000E+03 0.  0.
<mgrwt>
<rscale>  0 0.12500000E+03</rscale>
<asrwt>0</asrwt>
<pdfrwt beam="1">  1       21 0.15358615E-01 0.12500000E+03</pdfrwt>
<pdfrwt beam="2">  1       21 0.60197888E-02 0.12500000E+03</pdfrwt>
<totfact> 0.72175419E+06</totfact>
</mgrwt>
</event>
<event>
 3    1  0.1594457E-001  0.1250000E+03  0.7546771E-02  0.1235069E+00
         21   -1    0    0  502  501  0.00000000000E+00  0.00000000000E+00  0.17677610908E+03  0.17677610908E+03  0.00000000000E+00 0. -1.
         21   -1    0    0  501  502 -0.00000000000E+00 -0.00000000000E+00 -0.22097160189E+02  0.22097160189E+02  0.00000000000E+00 0. -1.
         25    1    1    2    0    0  0.00000000000E+00  0.00000000000E+00  0.15467894889E+03  0.19887326927E+03  0.12500000000E+03 0.  0.
<mgrwt>
<rscale>  0 0.12500000E+03</rscale>
<asrwt>0</asrwt>
<pdfrwt beam="1">  1       21 0.27196324E-01 0.12500000E+03</pdfrwt>
<pdfrwt beam="2">  1       21 0.33995632E-02 0.12500000E+03</pdfrwt>
<totfact> 0.65049545E+06</totfact>
</mgrwt>
</event>
<event>
 3    1  0.1594457E-001  0.1250000E+03  0.7546771E-02  0.1235069E+00
         21   -1    0    0  502  501  0.00000000000E+00  0.00000000000E+00  0.14944049758E+02  0.14944049758E+02  0.00000000000E+00 0.  1.
         21   -1    0    0  501  502 -0.00000000000E+00 -0.00000000000E+00 -0.26139166178E+03  0.26139166178E+03  0.00000000000E+00 0.  1.
         25    1    1    2    0    0  0.00000000000E+00  0.00000000000E+00 -0.24644761202E+03  0.27633571154E+03  0.12500000000E+03 0.  0.
<mgrwt>
<rscale>  0 0.12500000E+03</rscale>
<asrwt>0</asrwt>
<pdfrwt beam="1">  1       21 0.22990846E-02 0.12500000E+03</pdfrwt>
<pdfrwt beam="2">  1       21 0.40214102E-01 0.12500000E+03</pdfrwt>
<totfact> 0.57481948E+06</totfact>
</mgrwt>
</event>
<event>
 3    1  0.1594457E-001  0.1250000E+03  0.7546771E-02  0.1235069E+00
         21   -1    0    0  502  501  0.00000000000E+00  0.00000000000E+00  0.13745143815E+03  0.13745143815E+03  0.00000000000E+00 0.  1.
         21   -1    0    0  501  502 -0.00000000000E+00 -0.00000000000E+00 -0.28419127893E+02  0.28419127893E+02  0.00000000000E+00 0.  1.
         25    1    1    2    0    0  0.00000000000E+00  0.00000000000E+00  0.10903231026E+03  0.16587056605E+03  0.12500000000E+03 0.  0.
<mgrwt>
<rscale>  0 0.12500000E+03</rscale>
<asrwt>0</asrwt>
<pdfrwt beam="1">  1       21 0.21146375E-01 0.12500000E+03</pdfrwt>
<pdfrwt beam="2">  1       21 0.43721736E-02 0.12500000E+03</pdfrwt>
<totfact> 0.68809196E+06</totfact>
</mgrwt>
</event>
<event>
 3    1  0.1594457E-001  0.1250000E+03  0.7546771E-02  0.1235069E+00
         21   -1    0    0  502  501  0.00000000000E+00  0.00000000000E+00  0.11011986645E+02  0.11011986645E+02  0.00000000000E+00 0.  1.
         21   -1    0    0  501  502 -0.00000000000E+00 -0.00000000000E+00 -0.35472709204E+03  0.35472709204E+03  0.00000000000E+00 0.  1.
         25    1    1    2    0    0  0.00000000000E+00  0.00000000000E+00 -0.34371510540E+03  0.36573907868E+03  0.12500000000E+03 0.  0.
<mgrwt>
<rscale>  0 0.12500000E+03</rscale>
<asrwt>0</asrwt>
<pdfrwt beam="1">  1       21 0.16941519E-02 0.12500000E+03</pdfrwt>
<pdfrwt beam="2">  1       21 0.54573396E-01 0.12500000E+03</pdfrwt>
<totfact> 0.50396651E+06</totfact>
</mgrwt>
</event>
<event>
 3    1  0.1594457E-001  0.1250000E+03  0.7546771E-02  0.1235069E+00
         21   -1    0    0  502  501  0.00000000000E+00  0.00000000000E+00  0.83797358426E+02  0.83797358426E+02  0.00000000000E+00 0.  1.
         21   -1    0    0  501  502 -0.00000000000E+00 -0.00000000000E+00 -0.46615431243E+02  0.46615431243E+02  0.00000000000E+00 0.  1.
         25    1    1    2    0    0  0.00000000000E+00  0.00000000000E+00  0.37181927183E+02  0.13041278967E+03  0.12500000000E+03 0.  0.
<mgrwt>
<rscale>  0 0.12500000E+03</rscale>
<asrwt>0</asrwt>
<pdfrwt beam="1">  1       21 0.12891901E-01 0.12500000E+03</pdfrwt>
<pdfrwt beam="2">  1       21 0.71716048E-02 0.12500000E+03</pdfrwt>
<totfact> 0.73309797E+06</totfact>
</mgrwt>
</event>
<event>
 3    1  0.1594457E-001  0.1250000E+03  0.7546771E-02  0.1235069E+00
         21   -1    0    0  502  501  0.00000000000E+00  0.00000000000E+00  0.38459690068E+02  0.38459690068E+02  0.00000000000E+00 0. -1.
         21   -1    0    0  501  502 -0.00000000000E+00 -0.00000000000E+00 -0.10156738115E+03  0.10156738115E+03  0.00000000000E+00 0. -1.
         25    1    1    2    0    0  0.00000000000E+00  0.00000000000E+00 -0.63107691081E+02  0.14002707122E+03  0.12500000000E+03 0.  0.
<mgrwt>
<rscale>  0 0.12500000E+03</rscale>
<asrwt>0</asrwt>
<pdfrwt beam="1">  1       21 0.59168755E-02 0.12500000E+03</pdfrwt>
<pdfrwt beam="2">  1       21 0.15625751E-01 0.12500000E+03</pdfrwt>
<totfact> 0.72035774E+06</totfact>
</mgrwt>
</event>
<event>
 3    1  0.1594457E-001  0.1250000E+03  0.7546771E-02  0.1235069E+00
         21   -1    0    0  502  501  0.00000000000E+00  0.00000000000E+00  0.26273207404E+02  0.26273207404E+02  0.00000000000E+00 0. -1.
         21   -1    0    0  501  502 -0.00000000000E+00 -0.00000000000E+00 -0.14867807877E+03  0.14867807877E+03  0.00000000000E+00 0. -1.
         25    1    1    2    0    0  0.00000000000E+00  0.00000000000E+00 -0.12240487137E+03  0.17495128617E+03  0.12500000000E+03 0.  0.
<mgrwt>
<rscale>  0 0.12500000E+03</rscale>
<asrwt>0</asrwt>
<pdfrwt beam="1">  1       21 0.40420319E-02 0.12500000E+03</pdfrwt>
<pdfrwt beam="2">  1       21 0.22873551E-01 0.12500000E+03</pdfrwt>
<totfact> 0.67735482E+06</totfact>
</mgrwt>
</event>
<event>
 3    1  0.1594457E-001  0.1250000E+03  0.7546771E-02  0.1235069E+00
         21   -1    0    0  502  501  0.00000000000E+00  0.00000000000E+00  0.89035927347E+01  0.89035927347E+01  0.00000000000E+00 0. -1.
         21   -1    0    0  501  502 -0.00000000000E+00 -0.00000000000E+00 -0.43872738976E+03  0.43872738976E+03  0.00000000000E+00 0. -1.
         25    1    1    2    0    0  0.00000000000E+00  0.00000000000E+00 -0.42982379703E+03  0.44763098250E+03  0.12500000000E+03 0.  0.
<mgrwt>
<rscale>  0 0.12500000E+03</rscale>
<asrwt>0</asrwt>
<pdfrwt beam="1">  1       21 0.13697837E-02 0.12500000E+03</pdfrwt>
<pdfrwt beam="2">  1       21 0.67496511E-01 0.12500000E+03</pdfrwt>
<totfact> 0.45034370E+06</totfact>
</mgrwt>
</event>
<event>
 3    1  0.1594457E-001  0.1250000E+03  0.7546771E-02  0.1235069E+00
         21   -1    0    0  502  501  0.00000000000E+00  0.00000000000E+00  0.11539363784E+03  0.11539363784E+03  0.00000000000E+00 0. -1.
         21   -1    0    0  501  502 -0.00000000000E+00 -0.00000000000E+00 -0.33851519661E+02  0.33851519661E+02  0.00000000000E+00 0. -1.
         25    1    1    2    0    0  0.00000000000E+00  0.00000000000E+00  0.81542118178E+02  0.14924515750E+03  0.12500000000E+03 0.  0.
<mgrwt>
<rscale>  0 0.12500000E+03</rscale>
<asrwt>0</asrwt>
<pdfrwt beam="1">  1       21 0.17752867E-01 0.12500000E+03</pdfrwt>
<pdfrwt beam="2">  1       21 0.52079261E-02 0.12500000E+03</pdfrwt>
<totfact> 0.70854152E+06</totfact>
</mgrwt>
</event>
<event>
 3    1  0.1594457E-001  0.1250000E+03  0.7546771E-02  0.1235069E+00
         21   -1    0    0  502  501  0.00000000000E+00  0.00000000000E+00  0.38207871967E+03  0.38207871967E+03  0.00000000000E+00 0.  1.
         21   -1    0    0  501  502 -0.00000000000E+00 -0.00000000000E+00 -0.10223678522E+02  0.10223678522E+02  0.00000000000E+00 0.  1.
         25    1    1    2    0    0  0.00000000000E+00  0.00000000000E+00  0.37185504114E+03  0.39230239819E+03  0.12500000000E+03 0.  0.
<mgrwt>
<rscale>  0 0.12500000E+03</rscale>
<asrwt>0</asrwt>
<pdfrwt beam="1">  1       21 0.58781331E-01 0.12500000E+03</pdfrwt>
<pdfrwt beam="2">  1       21 0.15728739E-02 0.12500000E+03</pdfrwt>
<totfact> 0.48556155E+06</totfact>
</mgrwt>
</event>
<event>
 3    1  0.1594457E-001  0.1250000E+03  0.7546771E-02  0.1235069E+00
         21   -1    0    0  502  501  0.00000000000E+00  0.00000000000E+00  0.12923187302E+03  0.12923187302E+03  0.00000000000E+00 0. -1.
         21   -1    0    0  501  502 -0.00000000000E+00 -0.00000000000E+00 -0.30226676352E+02  0.30226676352E+02  0.00000000000E+00 0. -1.
         25    1    1    2    0    0  0.00000000000E+00  0.00000000000E+00  0.99005196665E+02  0.15945854937E+03  0.12500000000E+03 0.  0.
<mgrwt>
<rscale>  0 0.12500000E+03</rscale>
<asrwt>0</asrwt>
<pdfrwt beam="1">  1       21 0.19881826E-01 0.12500000E+03</pdfrwt>
<pdfrwt beam="2">  1       21 0.46502580E-02 0.12500000E+03</pdfrwt>
<totfact> 0.69585716E+06</totfact>
</mgrwt>
</event>
<event>
 3    1  0.1594457E-001  0.1250000E+03  0.7546771E-02  0.1235069E+00
         21   -1    0    0  502  501  0.00000000000E+00  0.00000000000E+00  0.81658603647E+03  0.81658603647E+03  0.00000000000E+00 0.  1.
         21   -1    0    0  501  502 -0.00000000000E+00 -0.00000000000E+00 -0.47836355578E+01  0.47836355578E+01  0.00000000000E+00 0.  1.
         25    1    1    2    0    0  0.00000000000E+00  0.00000000000E+00  0.81180240091E+03  0.82136967202E+03  0.12500000000E+03 0.  0.
<mgrwt>
<rscale>  0 0.12500000E+03</rscale>
<asrwt>0</asrwt>
<pdfrwt beam="1">  1       21 0.12562851E+00 0.12500000E+03</pdfrwt>
<pdfrwt beam="2">  1       21 0.73594458E-03 0.12500000E+03</pdfrwt>
<totfact> 0.28666945E+06</totfact>
</mgrwt>
</event>
<event>
 3    1  0.1594457E-001  0.1250000E+03  0.7546771E-02  0.1235069E+00
         21   -1    0    0  502  501  0.00000000000E+00  0.00000000000E+00  0.16397014026E+03  0.16397014026E+03  0.00000000000E+00 0. -1.
         21   -1    0    0  501  502 -0.00000000000E+00 -0.00000000000E+00 -0.23822935041E+02  0.23822935041E+02  0.00000000000E+00 0. -1.
         25    1    1    2    0    0  0.00000000000E+00  0.00000000000E+00  0.14014720522E+03  0.18779307530E+03  0.12500000000E+03 0.  0.
<mgrwt>
<rscale>  0 0.12500000E+03</rscale>
<asrwt>0</asrwt>
<pdfrwt beam="1">  1       21 0.25226175E-01 0.12500000E+03</pdfrwt>
<pdfrwt beam="2">  1       21 0.36650670E-02 0.12500000E+03</pdfrwt>
<totfact> 0.66268587E+06</totfact>
</mgrwt>
</event>
<event>
 3    1  0.1594457E-001  0.1250000E+03  0.7546771E-02  0.1235069E+00
         21   -1    0    0  502  501  0.00000000000E+00  0.00000000000E+00  0.10674554829E+04  0.10674554829E+04  0.00000000000E+00 0.  1.
         21   -1    0    0  501  502 -0.00000000000E+00 -0.00000000000E+00 -0.36594031905E+01  0.36594031905E+01  0.00000000000E+00 0.  1.
         25    1    1    2    0    0  0.00000000000E+00  0.00000000000E+00  0.10637960797E+04  0.10711148861E+04  0.12500000000E+03 0.  0.
<mgrwt>
<rscale>  0 0.12500000E+03</rscale>
<asrwt>0</asrwt>
<pdfrwt beam="1">  1       21 0.16422367E+00 0.12500000E+03</pdfrwt>
<pdfrwt beam="2">  1       21 0.56298596E-03 0.12500000E+03</pdfrwt>
<totfact> 0.21905551E+06</totfact>
</mgrwt>
</event>
<event>
 3    1  0.1594457E-001  0.1250000E+03  0.7546771E-02  0.1235069E+00
         21   -1    0    0  502  501  0.00000000000E+00  0.00000000000E+00  0.46482373514E+02  0.46482373514E+02  0.00000000000E+00 0. -1.
         21   -1    0    0  501  502 -0.00000000000E+00 -0.00000000000E+00 -0.84037231851E+02  0.84037231851E+02  0.00000000000E+00 0. -1.
         25    1    1    2    0    0  0.00000000000E+00  0.00000000000E+00 -0.37554858337E+02  0.13051960537E+03  0.12500000000E+03 0.  0.
<mgrwt>
<rscale>  0 0.12500000E+03</rscale>
<asrwt>0</asrwt>
<pdfrwt beam="1">  1       21 0.71511344E-02 0.12500000E+03</pdfrwt>
<pdfrwt beam="2">  1       21 0.12928805E-01 0.12500000E+03</pdfrwt>
<totfact> 0.73295483E+06</totfact>
</mgrwt>
</event>
<event>
 3    1  0.1594457E-001  0.1250000E+03  0.7546771E-02  0.1235069E+00
         21   -1    0    0  502  501  0.00000000000E+00  0.00000000000E+00  0.84077983960E+03  0.84077983960E+03  0.00000000000E+00 0.  1.
         21   -1    0    0  501  502 -0.00000000000E+00 -0.00000000000E+00 -0.46459843779E+01  0.46459843779E+01  0.00000000000E+00 0.  1.
         25    1    1    2    0    0  0.00000000000E+00  0.00000000000E+00  0.83613385522E+03  0.84542582397E+03  0.12500000000E+03 0.  0.
<mgrwt>
<rscale>  0 0.12500000E+03</rscale>
<asrwt>0</asrwt>
<pdfrwt beam="1">  1       21 0.12935062E+00 0.12500000E+03</pdfrwt>
<pdfrwt beam="2">  1       21 0.71476750E-03 0.12500000E+03</pdfrwt>
<totfact> 0.27911997E+06</totfact>
</mgrwt>
</event>
<event>
 3    1  0.1594457E-001  0.1250000E+03  0.7546771E-02  0.1235069E+00
         21   -1    0    0  502  501  0.00000000000E+00  0.00000000000E+00  0.72847198104E+03  0.72847198104E+03  0.00000000000E+00 0. -1.
         21   -1    0    0  501  502 -0.00000000000E+00 -0.00000000000E+00 -0.53622515370E+01  0.53622515370E+01  0.00000000000E+00 0. -1.
         25    1    1    2    0    0  0.00000000000E+00  0.00000000000E+00  0.72310972950E+03  0.73383423258E+03  0.12500000000E+03 0.  0.
<mgrwt>
<rscale>  0 0.12500000E+03</rscale>
<asrwt>0</asrwt>
<pdfrwt beam="1">  1       21 0.11207253E+00 0.12500000E+03</pdfrwt>
<pdfrwt beam="2">  1       21 0.82496235E-03 0.12500000E+03</pdfrwt>
<totfact> 0.31645792E+06</totfact>
</mgrwt>
</event>
<event>
 3    1  0.1594457E-001  0.1250000E+03  0.7546771E-02  0.1235069E+00
         21   -1    0    0  502  501  0.00000000000E+00  0.00000000000E+00  0.68291288665E+02  0.68291288665E+02  0.00000000000E+00 0.  1.
         21   -1    0    0  501  502 -0.00000000000E+00 -0.00000000000E+00 -0.57199828504E+02  0.57199828504E+02  0.00000000000E+00 0.  1.
         25    1    1    2    0    0  0.00000000000E+00  0.00000000000E+00  0.11091460161E+02  0.12549111717E+03  0.12500000000E+03 0.  0.
<mgrwt>
<rscale>  0 0.12500000E+03</rscale>
<asrwt>0</asrwt>
<pdfrwt beam="1">  1       21 0.10506352E-01 0.12500000E+03</pdfrwt>
<pdfrwt beam="2">  1       21 0.87999736E-02 0.12500000E+03</pdfrwt>
<totfact> 0.73976639E+06</totfact>
</mgrwt>
</event>
<event>
 3    1  0.1594457E-001  0.1250000E+03  0.7546771E-02  0.1235069E+00
         21   -1    0    0  502  501  0.00000000000E+00  0.00000000000E+00  0.47385815083E+01  0.47385815083E+01  0.00000000000E+00 0. -1.
         21   -1    0    0  501  502 -0.00000000000E+00 -0.00000000000E+00 -0.82435007041E+03  0.82435007041E+03  0.00000000000E+00 0. -1.
         25    1    1    2    0    0  0.00000000000E+00  0.00000000000E+00 -0.81961148890E+03  0.82908865192E+03  0.12500000000E+03 0.  0.
<mgrwt>
<rscale>  0 0.12500000E+03</rscale>
<asrwt>0</asrwt>
<pdfrwt beam="1">  1       21 0.72901285E-03 0.12500000E+03</pdfrwt>
<pdfrwt beam="2">  1       21 0.12682303E+00 0.12500000E+03</pdfrwt>
<totfact> 0.28421465E+06</totfact>
</mgrwt>
</event>
<event>
 3    1  0.1594457E-001  0.1250000E+03  0.7546771E-02  0.1235069E+00
         21   -1    0    0  502  501  0.00000000000E+00  0.00000000000E+00  0.17315699737E+02  0.17315699737E+02  0.00000000000E+00 0.  1.
         21   -1    0    0  501  502 -0.00000000000E+00 -0.00000000000E+00 -0.22559007487E+03  0.22559007487E+03  0.00000000000E+00 0.  1.
         25    1    1    2    0    0  0.00000000000E+00  0.00000000000E+00 -0.20827437513E+03  0.24290577461E+03  0.12500000000E+03 0.  0.
<mgrwt>
<rscale>  0 0.12500000E+03</rscale>
<asrwt>0</asrwt>
<pdfrwt beam="1">  1       21 0.26639538E-02 0.12500000E+03</pdfrwt>
<pdfrwt beam="2">  1       21 0.34706166E-01 0.12500000E+03</pdfrwt>
<totfact> 0.60552605E+06</totfact>
</mgrwt>
</event>
<event>
 3    1  0.1594457E-001  0.1250000E+03  0.7546771E-02  0.1235069E+00
         21   -1    0    0  502  501  0.00000000000E+00  0.00000000000E+00  0.14338638099E+03  0.14338638099E+03  0.00000000000E+00 0. -1.
         21   -1    0    0  501  502 -0.00000000000E+00 -0.00000000000E+00 -0.27242824408E+02  0.27242824408E+02  0.00000000000E+00 0. -1.
         25    1    1    2    0    0  0.00000000000E+00  0.00000000000E+00  0.11614355659E+03  0.17062920540E+03  0.12500000000E+03 0.  0.
<mgrwt>
<rscale>  0 0.12500000E+03</rscale>
<asrwt>0</asrwt>
<pdfrwt beam="1">  1       21 0.22059443E-01 0.12500000E+03</pdfrwt>
<pdfrwt beam="2">  1       21 0.41912038E-02 0.12500000E+03</pdfrwt>
<totfact> 0.68243125E+06</totfact>
</mgrwt>
</event>
<event>
 3    1  0.1594457E-001  0.1250000E+03  0.7546771E-02  0.1235069E+00
         21   -1    0    0  502  501  0.00000000000E+00  0.00000000000E+00  0.33730054989E+03  0.33730054989E+03  0.00000000000E+00 0.  1.
         21   -1    0    0  501  502 -0.00000000000E+00 -0.00000000000E+00 -0.11580917971E+02  0.11580917971E+02  0.00000000000E+00 0.  1.
         25    1    1    2    0    0  0.00000000000E+00  0.00000000000E+00  0.32571963192E+03  0.34888146786E+03  0.12500000000E+03 0.  0.
<mgrwt>
<rscale>  0 0.12500000E+03</rscale>
<asrwt>0</asrwt>
<pdfrwt beam="1">  1       21 0.51892385E-01 0.12500000E+03</pdfrwt>
<pdfrwt beam="2">  1       21 0.17816799E-02 0.12500000E+03</pdfrwt>
<totfact> 0.51621148E+06</totfact>
</mgrwt>
</event>
<event>
 3    1  0.1594457E-001  0.1250000E+03  0.7546771E-02  0.1235069E+00
         21   -1    0    0  502  501  0.00000000000E+00  0.00000000000E+00  0.22451954993E+04  0.22451954993E+04  0.00000000000E+00 0. -1.
         21   -1    0    0  501  502 -0.00000000000E+00 -0.00000000000E+00 -0.17398262206E+01  0.17398262206E+01  0.00000000000E+00 0. -1.
         25    1    1    2    0    0  0.00000000000E+00  0.00000000000E+00  0.22434556731E+04  0.22469353255E+04  0.12500000000E+03 0.  0.
<mgrwt>
<rscale>  0 0.12500000E+03</rscale>
<asrwt>0</asrwt>
<pdfrwt beam="1">  1       21 0.34541238E+00 0.12500000E+03</pdfrwt>
<pdfrwt beam="2">  1       21 0.26766737E-03 0.12500000E+03</pdfrwt>
<totfact> 0.57811581E+05</totfact>
</mgrwt>
</event>
<event>
 3    1  0.1594457E-001  0.1250000E+03  0.7546771E-02  0.1235069E+00
         21   -1    0    0  502  501  0.00000000000E+00  0.00000000000E+00  0.52997085048E+02  0.52997085048E+02  0.00000000000E+00 0. -1.
         21   -1    0    0  501  502 -0.00000000000E+00 -0.00000000000E+00 -0.73706884000E+02  0.73706884000E+02  0.00000000000E+00 0. -1.
         25    1    1    2    0    0  0.00000000000E+00  0.00000000000E+00 -0.20709798952E+02  0.12670396905E+03  0.12500000000E+03 0.  0.
<mgrwt>
<rscale>  0 0.12500000E+03</rscale>
<asrwt>0</asrwt>
<pdfrwt beam="1">  1       21 0.81533977E-02 0.12500000E+03</pdfrwt>
<pdfrwt beam="2">  1       21 0.11339521E-01 0.12500000E+03</pdfrwt>
<totfact> 0.73809493E+06</totfact>
</mgrwt>
</event>
<event>
 3    1  0.1594457E-001  0.1250000E+03  0.7546771E-02  0.1235069E+00
         21   -1    0    0  502  501  0.00000000000E+00  0.00000000000E+00  0.16573873702E+02  0.16573873702E+02  0.00000000000E+00 0.  1.
         21   -1    0    0  501  502 -0.00000000000E+00 -0.00000000000E+00 -0.23568720688E+03  0.23568720688E+03  0.00000000000E+00 0.  1.
         25    1    1    2    0    0  0.00000000000E+00  0.00000000000E+00 -0.21911333318E+03  0.25226108058E+03  0.12500000000E+03 0.  0.
<mgrwt>
<rscale>  0 0.12500000E+03</rscale>
<asrwt>0</asrwt>
<pdfrwt beam="1">  1       21 0.25498267E-02 0.12500000E+03</pdfrwt>
<pdfrwt beam="2">  1       21 0.36259570E-01 0.12500000E+03</pdfrwt>
<totfact> 0.59665962E+06</totfact>
</mgrwt>
</event>
<event>
 3    1  0.1594457E-001  0.1250000E+03  0.7546771E-02  0.1235069E+00
         21   -1    0    0  502  501  0.00000000000E+00  0.00000000000E+00  0.65722063400E+03  0.65722063400E+03  0.00000000000E+00 0.  1.
         21   -1    0    0  501  502 -0.00000000000E+00 -0.00000000000E+00 -0.59435900182E+01  0.59435900182E+01  0.00000000000E+00 0.  1.
         25    1    1    2    0    0  0.00000000000E+00  0.00000000000E+00  0.65127704398E+03  0.66316422401E+03  0.12500000000E+03 0.  0.
<mgrwt>
<rscale>  0 0.12500000E+03</rscale>
<asrwt>0</asrwt>
<pdfrwt beam="1">  1       21 0.10111081E+00 0.12500000E+03</pdfrwt>
<pdfrwt beam="2">  1       21 0.91439899E-03 0.12500000E+03</pdfrwt>
<totfact> 0.34379153E+06</totfact>
</mgrwt>
</event>
<event>
 3    1  0.1594457E-001  0.1250000E+03  0.7546771E-02  0.1235069E+00
         21   -1    0    0  502  501  0.00000000000E+00  0.00000000000E+00  0.81059992273E+01  0.81059992273E+01  0.00000000000E+00 0.  1.
         21   -1    0    0  501  502 -0.00000000000E+00 -0.00000000000E+00 -0.48189617226E+03  0.48189617226E+03  0.00000000000E+00 0.  1.
         25    1    1    2    0    0  0.00000000000E+00  0.00000000000E+00 -0.47379017303E+03  0.49000217149E+03  0.12500000000E+03 0.  0.
<mgrwt>
<rscale>  0 0.12500000E+03</rscale>
<asrwt>0</asrwt>
<pdfrwt beam="1">  1       21 0.12470766E-02 0.12500000E+03</pdfrwt>
<pdfrwt beam="2">  1       21 0.74137886E-01 0.12500000E+03</pdfrwt>
<totfact> 0.42591513E+06</totfact>
</mgrwt>
</event>
<event>
 3    1  0.1594457E-001  0.1250000E+03  0.7546771E-02  0.1235069E+00
         21   -1    0    0  502  501  0.00000000000E+00  0.00000000000E+00  0.75618534505E+01  0.75618534505E+01  0.00000000000E+00 0. -1.
         21   -1    0    0  501  502 -0.00000000000E+00 -0.00000000000E+00 -0.51657308960E+03  0.51657308960E+03  0.00000000000E+00 0. -1.
         25    1    1    2    0    0  0.00000000000E+00  0.00000000000E+00 -0.50901123615E+03  0.52413494305E+03  0.12500000000E+03 0.  0.
<mgrwt>
<rscale>  0 0.12500000E+03</rscale>
<asrwt>0</asrwt>
<pdfrwt beam="1">  1       21 0.11633624E-02 0.12500000E+03</pdfrwt>
<pdfrwt beam="2">  1       21 0.79472757E-01 0.12500000E+03</pdfrwt>
<totfact> 0.40764722E+06</totfact>
</mgrwt>
</event>
<event>
 3    1  0.1594457E-001  0.1250000E+03  0.7546771E-02  0.1235069E+00
         21   -1    0    0  502  501  0.00000000000E+00  0.00000000000E+00  0.18137335812E+02  0.18137335812E+02  0.00000000000E+00 0. -1.
         21   -1    0    0  501  502 -0.00000000000E+00 -0.00000000000E+00 -0.21537066086E+03  0.21537066086E+03  0.00000000000E+00 0. -1.
         25    1    1    2    0    0  0.00000000000E+00  0.00000000000E+00 -0.19723332505E+03  0.23350799667E+03  0.12500000000E+03 0.  0.
<mgrwt>
<rscale>  0 0.12500000E+03</rscale>
<asrwt>0</asrwt>
<pdfrwt beam="1">  1       21 0.27903594E-02 0.12500000E+03</pdfrwt>
<pdfrwt beam="2">  1       21 0.33133948E-01 0.12500000E+03</pdfrwt>
<totfact> 0.61466595E+06</totfact>
</mgrwt>
</event>
<event>
 3    1  0.1594457E-001  0.1250000E+03  0.7546771E-02  0.1235069E+00
         21   -1    0    0  502  501  0.00000000000E+00  0.00000000000E+00  0.62974088728E+01  0.62974088728E+01  0.00000000000E+00 0. -1.
         21   -1    0    0  501  502 -0.00000000000E+00 -0.00000000000E+00 -0.62029480361E+03  0.62029480361E+03  0.00000000000E+00 0. -1.
         25    1    1    2    0    0  0.00000000000E+00  0.00000000000E+00 -0.61399739474E+03  0.62659221248E+03  0.12500000000E+03 0.  0.
<mgrwt>
<rscale>  0 0.12500000E+03</rscale>
<asrwt>0</asrwt>
<pdfrwt beam="1">  1       21 0.96883239E-03 0.12500000E+03</pdfrwt>
<pdfrwt beam="2">  1       21 0.95429944E-01 0.12500000E+03</pdfrwt>
<totfact> 0.35916998E+06</totfact>
</mgrwt>
</event>
<event>
 3    1  0.1594457E-001  0.1250000E+03  0.7546771E-02  0.1235069E+00
         21   -1    0    0  502  501  0.00000000000E+00  0.00000000000E+00  0.69096840902E+01  0.69096840902E+01  0.00000000000E+00 0. -1.
         21   -1    0    0  501  502 -0.00000000000E+00 -0.00000000000E+00 -0.56532975300E+03  0.56532975300E+03  0.00000000000E+00 0. -1.
         25    1    1    2    0    0  0.00000000000E+00  0.00000000000E+00 -0.55842006891E+03  0.57223943709E+03  0.12500000000E+03 0.  0.
<mgrwt>
<rscale>  0 0.12500000E+03</rscale>
<asrwt>0</asrwt>
<pdfrwt beam="1">  1       21 0.10630286E-02 0.12500000E+03</pdfrwt>
<pdfrwt beam="2">  1       21 0.86973789E-01 0.12500000E+03</pdfrwt>
<totfact> 0.38378940E+06</totfact>
</mgrwt>
</event>
<event>
 3    1  0.1594457E-001  0.1250000E+03  0.7546771E-02  0.1235069E+00
         21   -1    0    0  502  501  0.00000000000E+00  0.00000000000E+00  0.85367988615E+01  0.85367988615E+01  0.00000000000E+00 0. -1.
         21   -1    0    0  501  502 -0.00000000000E+00 -0.00000000000E+00 -0.45757784193E+03  0.45757784193E+03  0.00000000000E+00 0. -1.
         25    1    1    2    0    0  0.00000000000E+00  0.00000000000E+00 -0.44904104307E+03  0.46611464079E+03  0.12500000000E+03 0.  0.
<mgrwt>
<rscale>  0 0.12500000E+03</rscale>
<asrwt>0</asrwt>
<pdfrwt beam="1">  1       21 0.13133540E-02 0.12500000E+03</pdfrwt>
<pdfrwt beam="2">  1       21 0.70396574E-01 0.12500000E+03</pdfrwt>
<totfact> 0.43943453E+06</totfact>
</mgrwt>
</event>
<event>
 3    1  0.1594457E-001  0.1250000E+03  0.7546771E-02  0.1235069E+00
         21   -1    0    0  502  501  0.00000000000E+00  0.00000000000E+00  0.33579538180E+03  0.33579538180E+03  0.00000000000E+00 0.  1.
         21   -1    0    0  501  502 -0.00000000000E+00 -0.00000000000E+00 -0.11632828239E+02  0.11632828239E+02  0.00000000000E+00 0.  1.
         25    1    1    2    0    0  0.00000000000E+00  0.00000000000E+00  0.32416255356E+03  0.34742821003E+03  0.12500000000E+03 0.  0.
<mgrwt>
<rscale>  0 0.12500000E+03</rscale>
<asrwt>0</asrwt>
<pdfrwt beam="1">  1       21 0.51660821E-01 0.12500000E+03</pdfrwt>
<pdfrwt beam="2">  1       21 0.17896661E-02 0.12500000E+03</pdfrwt>
<totfact> 0.51728931E+06</totfact>
</mgrwt>
</event>
<event>
 3    1  0.1594457E-001  0.1250000E+03  0.7546771E-02  0.1235069E+00
         21   -1    0    0  502  501  0.00000000000E+00  0.00000000000E+00  0.13254286241E+04  0.13254286241E+04  0.00000000000E+00 0.  1.
         21   -1    0    0  501  502 -0.00000000000E+00 -0.00000000000E+00 -0.29471598313E+01  0.29471598313E+01  0.00000000000E+00 0.  1.
         25    1    1    2    0    0  0.00000000000E+00  0.00000000000E+00  0.13224814642E+04  0.13283757839E+04  0.12500000000E+03 0.  0.
<mgrwt>
<rscale>  0 0.12500000E+03</rscale>
<asrwt>0</asrwt>
<pdfrwt beam="1">  1       21 0.20391162E+00 0.12500000E+03</pdfrwt>
<pdfrwt beam="2">  1       21 0.45341026E-03 0.12500000E+03</pdfrwt>
<totfact> 0.16750488E+06</totfact>
</mgrwt>
</event>
<event>
 3    1  0.1594457E-001  0.1250000E+03  0.7546771E-02  0.1235069E+00
         21   -1    0    0  502  501  0.00000000000E+00  0.00000000000E+00  0.11797001671E+01  0.11797001671E+01  0.00000000000E+00 0. -1.
         21   -1    0    0  501  502 -0.00000000000E+00 -0.00000000000E+00 -0.33112227233E+04  0.33112227233E+04  0.00000000000E+00 0. -1.
         25    1    1    2    0    0  0.00000000000E+00  0.00000000000E+00 -0.33100430232E+04  0.33124024235E+04  0.12500000000E+03 0.  0.
<mgrwt>
<rscale>  0 0.12500000E+03</rscale>
<asrwt>0</asrwt>
<pdfrwt beam="1">  1       21 0.18149178E-03 0.12500000E+03</pdfrwt>
<pdfrwt beam="2">  1       21 0.50942043E+00 0.12500000E+03</pdfrwt>
<totfact> 0.94371904E+04</totfact>
</mgrwt>
</event>
<event>
 3    1  0.1594457E-001  0.1250000E+03  0.7546771E-02  0.1235069E+00
         21   -1    0    0  502  501  0.00000000000E+00  0.00000000000E+00  0.64268424845E+03  0.64268424845E+03  0.00000000000E+00 0.  1.
         21   -1    0    0  501  502 -0.00000000000E+00 -0.00000000000E+00 -0.60780235542E+01  0.60780235542E+01  0.00000000000E+00 0.  1.
         25    1    1    2    0    0  0.00000000000E+00  0.00000000000E+00  0.63660622490E+03  0.64876227200E+03  0.12500000000E+03 0.  0.
<mgrwt>
<rscale>  0 0.12500000E+03</rscale>
<asrwt>0</asrwt>
<pdfrwt beam="1">  1       21 0.98874446E-01 0.12500000E+03</pdfrwt>
<pdfrwt beam="2">  1       21 0.93508105E-03 0.12500000E+03</pdfrwt>
<totfact> 0.34976075E+06</totfact>
</mgrwt>
</event>
<event>
 3    1  0.1594457E-001  0.1250000E+03  0.7546771E-02  0.1235069E+00
         21   -1    0    0  502  501  0.00000000000E+00  0.00000000000E+00  0.56272106005E+03  0.56272106005E+03  0.00000000000E+00 0. -1.
         21   -1    0    0  501  502 -0.00000000000E+00 -0.00000000000E+00 -0.69417163802E+01  0.69417163802E+01  0.00000000000E+00 0. -1.
         25    1    1    2    0    0  0.00000000000E+00  0.00000000000E+00  0.55577934367E+03  0.56966277643E+03  0.12500000000E+03 0.  0.
<mgrwt>
<rscale>  0 0.12500000E+03</rscale>
<asrwt>0</asrwt>
<pdfrwt beam="1">  1       21 0.86572435E-01 0.12500000E+03</pdfrwt>
<pdfrwt beam="2">  1       21 0.10679568E-02 0.12500000E+03</pdfrwt>
<totfact> 0.38501557E+06</totfact>
</mgrwt>
</event>
<event>
 3    1  0.1594457E-001  0.1250000E+03  0.7546771E-02  0.1235069E+00
         21   -1    0    0  502  501  0.00000000000E+00  0.00000000000E+00  0.69657581021E+02  0.69657581021E+02  0.00000000000E+00 0.  1.
         21   -1    0    0  501  502 -0.00000000000E+00 -0.00000000000E+00 -0.56077887615E+02  0.56077887615E+02  0.00000000000E+00 0.  1.
         25    1    1    2    0    0  0.00000000000E+00  0.00000000000E+00  0.13579693406E+02  0.12573546864E+03  0.12500000000E+03 0.  0.
<mgrwt>
<rscale>  0 0.12500000E+03</rscale>
<asrwt>0</asrwt>
<pdfrwt beam="1">  1       21 0.10716551E-01 0.12500000E+03</pdfrwt>
<pdfrwt beam="2">  1       21 0.86273674E-02 0.12500000E+03</pdfrwt>
<totfact> 0.73942615E+06</totfact>
</mgrwt>
</event>
<event>
 3    1  0.1594457E-001  0.1250000E+03  0.7546771E-02  0.1235069E+00
         21   -1    0    0  502  501  0.00000000000E+00  0.00000000000E+00  0.97285765695E+02  0.97285765695E+02  0.00000000000E+00 0. -1.
         21   -1    0    0  501  502 -0.00000000000E+00 -0.00000000000E+00 -0.40152328268E+02  0.40152328268E+02  0.00000000000E+00 0. -1.
         25    1    1    2    0    0  0.00000000000E+00  0.00000000000E+00  0.57133437427E+02  0.13743809396E+03  0.12500000000E+03 0.  0.
<mgrwt>
<rscale>  0 0.12500000E+03</rscale>
<asrwt>0</asrwt>
<pdfrwt beam="1">  1       21 0.14967041E-01 0.12500000E+03</pdfrwt>
<pdfrwt beam="2">  1       21 0.61772813E-02 0.12500000E+03</pdfrwt>
<totfact> 0.72375233E+06</totfact>
</mgrwt>
</event>
<event>
 3    1  0.1594457E-001  0.1250000E+03  0.7546771E-02  0.1235069E+00
         21   -1    0    0  502  501  0.00000000000E+00  0.00000000000E+00  0.28774510670E+03  0.28774510670E+03  0.00000000000E+00 0. -1.
         21   -1    0    0  501  502 -0.00000000000E+00 -0.00000000000E+00 -0.13575382896E+02  0.13575382896E+02  0.00000000000E+00 0. -1.
         25    1    1    2    0    0  0.00000000000E+00  0.00000000000E+00  0.27416972380E+03  0.30132048960E+03  0.12500000000E+03 0.  0.
<mgrwt>
<rscale>  0 0.12500000E+03</rscale>
<asrwt>0</asrwt>
<pdfrwt beam="1">  1       21 0.44268474E-01 0.12500000E+03</pdfrwt>
<pdfrwt beam="2">  1       21 0.20885207E-02 0.12500000E+03</pdfrwt>
<totfact> 0.55346616E+06</totfact>
</mgrwt>
</event>
<event>
 3    1  0.1594457E-001  0.1250000E+03  0.7546771E-02  0.1235069E+00
         21   -1    0    0  502  501  0.00000000000E+00  0.00000000000E+00  0.27636946604E+03  0.27636946604E+03  0.00000000000E+00 0. -1.
         21   -1    0    0  501  502 -0.00000000000E+00 -0.00000000000E+00 -0.14134159088E+02  0.14134159088E+02  0.00000000000E+00 0. -1.
         25    1    1    2    0    0  0.00000000000E+00  0.00000000000E+00  0.26223530695E+03  0.29050362513E+03  0.12500000000E+03 0.  0.
<mgrwt>
<rscale>  0 0.12500000E+03</rscale>
<asrwt>0</asrwt>
<pdfrwt beam="1">  1       21 0.42518375E-01 0.12500000E+03</pdfrwt>
<pdfrwt beam="2">  1       21 0.21744862E-02 0.12500000E+03</pdfrwt>
<totfact> 0.56254712E+06</totfact>
</mgrwt>
</event>
<event>
 3    1  0.1594457E-001  0.1250000E+03  0.7546771E-02  0.1235069E+00
         21   -1    0    0  502  501  0.00000000000E+00  0.00000000000E+00  0.16928045515E+04  0.16928045515E+04  0.00000000000E+00 0. -1.
         21   -1    0    0  501  502 -0.00000000000E+00 -0.00000000000E+00 -0.23075611396E+01  0.23075611396E+01  0.00000000000E+00 0. -1.
         25    1    1    2    0    0  0.00000000000E+00  0.00000000000E+00  0.16904969904E+04  0.16951121127E+04  0.12500000000E+03 0.  0.
<mgrwt>
<rscale>  0 0.12500000E+03</rscale>
<asrwt>0</asrwt>
<pdfrwt beam="1">  1       21 0.26043048E+00 0.12500000E+03</pdfrwt>
<pdfrwt beam="2">  1       21 0.35501076E-03 0.12500000E+03</pdfrwt>
<totfact> 0.11330998E+06</totfact>
</mgrwt>
</event>
<event>
 3    1  0.1594457E-001  0.1250000E+03  0.7546771E-02  0.1235069E+00
         21   -1    0    0  502  501  0.00000000000E+00  0.00000000000E+00  0.14159030719E+02  0.14159030719E+02  0.00000000000E+00 0. -1.
         21   -1    0    0  501  502 -0.00000000000E+00 -0.00000000000E+00 -0.27588399781E+03  0.27588399781E+03  0.00000000000E+00 0. -1.
         25    1    1    2    0    0  0.00000000000E+00  0.00000000000E+00 -0.26172496709E+03  0.29004302853E+03  0.12500000000E+03 0.  0.
<mgrwt>
<rscale>  0 0.12500000E+03</rscale>
<asrwt>0</asrwt>
<pdfrwt beam="1">  1       21 0.21783125E-02 0.12500000E+03</pdfrwt>
<pdfrwt beam="2">  1       21 0.42443690E-01 0.12500000E+03</pdfrwt>
<totfact> 0.56293923E+06</totfact>
</mgrwt>
</event>
<event>
 3    1  0.1594457E-001  0.1250000E+03  0.7546771E-02  0.1235069E+00
         21   -1    0    0  502  501  0.00000000000E+00  0.00000000000E+00  0.32456528182E+02  0.32456528182E+02  0.00000000000E+00 0. -1.
         21   -1    0    0  501  502 -0.00000000000E+00 -0.00000000000E+00 -0.12035329158E+03  0.12035329158E+03  0.00000000000E+00 0. -1.
         25    1    1    2    0    0  0.00000000000E+00  0.00000000000E+00 -0.87896763397E+02  0.15280981976E+03  0.12500000000E+03 0.  0.
<mgrwt>
<rscale>  0 0.12500000E+03</rscale>
<asrwt>0</asrwt>
<pdfrwt beam="1">  1       21 0.49933120E-02 0.12500000E+03</pdfrwt>
<pdfrwt beam="2">  1       21 0.18515891E-01 0.12500000E+03</pdfrwt>
<totfact> 0.70407995E+06</totfact>
</mgrwt>
</event>
<event>
 3    1  0.1594457E-001  0.1250000E+03  0.7546771E-02  0.1235069E+00
         21   -1    0    0  502  501  0.00000000000E+00  0.00000000000E+00  0.47341668080E+03  0.47341668080E+03  0.00000000000E+00 0.  1.
         21   -1    0    0  501  502 -0.00000000000E+00 -0.00000000000E+00 -0.82511879248E+01  0.82511879248E+01  0.00000000000E+00 0.  1.
         25    1    1    2    0    0  0.00000000000E+00  0.00000000000E+00  0.46516549287E+03  0.48166786872E+03  0.12500000000E+03 0.  0.
<mgrwt>
<rscale>  0 0.12500000E+03</rscale>
<asrwt>0</asrwt>
<pdfrwt beam="1">  1       21 0.72833314E-01 0.12500000E+03</pdfrwt>
<pdfrwt beam="2">  1       21 0.12694139E-02 0.12500000E+03</pdfrwt>
<totfact> 0.43056045E+06</totfact>
</mgrwt>
</event>
<event>
 3    1  0.1594457E-001  0.1250000E+03  0.7546771E-02  0.1235069E+00
         21   -1    0    0  502  501  0.00000000000E+00  0.00000000000E+00  0.68343314487E+01  0.68343314487E+01  0.00000000000E+00 0. -1.
         21   -1    0    0  501  502 -0.00000000000E+00 -0.00000000000E+00 -0.57156285575E+03  0.57156285575E+03  0.00000000000E+00 0. -1.
         25    1    1    2    0    0  0.00000000000E+00  0.00000000000E+00 -0.56472852430E+03  0.57839718720E+03  0.12500000000E+03 0.  0.
<mgrwt>
<rscale>  0 0.12500000E+03</rscale>
<asrwt>0</asrwt>
<pdfrwt beam="1">  1       21 0.10514353E-02 0.12500000E+03</pdfrwt>
<pdfrwt beam="2">  1       21 0.87932775E-01 0.12500000E+03</pdfrwt>
<totfact> 0.38088167E+06</totfact>
</mgrwt>
</event>
<event>
 3    1  0.1594457E-001  0.1250000E+03  0.7546771E-02  0.1235069E+00
         21   -1    0    0  502  501  0.00000000000E+00  0.00000000000E+00  0.70309979945E+03  0.70309979945E+03  0.00000000000E+00 0. -1.
         21   -1    0    0  501  502 -0.00000000000E+00 -0.00000000000E+00 -0.55557546782E+01  0.55557546782E+01  0.00000000000E+00 0. -1.
         25    1    1    2    0    0  0.00000000000E+00  0.00000000000E+00  0.69754404477E+03  0.70865555413E+03  0.12500000000E+03 0.  0.
<mgrwt>
<rscale>  0 0.12500000E+03</rscale>
<asrwt>0</asrwt>
<pdfrwt beam="1">  1       21 0.10816913E+00 0.12500000E+03</pdfrwt>
<pdfrwt beam="2">  1       21 0.85473204E-03 0.12500000E+03</pdfrwt>
<totfact> 0.32579117E+06</totfact>
</mgrwt>
</event>
<event>
 3    1  0.1594457E-001  0.1250000E+03  0.7546771E-02  0.1235069E+00
         21   -1    0    0  502  501  0.00000000000E+00  0.00000000000E+00  0.92846053336E+01  0.92846053336E+01  0.00000000000E+00 0. -1.
         21   -1    0    0  501  502 -0.00000000000E+00 -0.00000000000E+00 -0.42072332206E+03  0.42072332206E+03  0.00000000000E+00 0. -1.
         25    1    1    2    0    0  0.00000000000E+00  0.00000000000E+00 -0.41143871673E+03  0.43000792740E+03  0.12500000000E+03 0.  0.
<mgrwt>
<rscale>  0 0.12500000E+03</rscale>
<asrwt>0</asrwt>
<pdfrwt beam="1">  1       21 0.14284011E-02 0.12500000E+03</pdfrwt>
<pdfrwt beam="2">  1       21 0.64726653E-01 0.12500000E+03</pdfrwt>
<totfact> 0.46112634E+06</totfact>
</mgrwt>
</event>
<event>
 3    1  0.1594457E-001  0.1250000E+03  0.7546771E-02  0.1235069E+00
         21   -1    0    0  502  501  0.00000000000E+00  0.00000000000E+00  0.45250684705E+01  0.45250684705E+01  0.00000000000E+00 0. -1.
         21   -1    0    0  501  502 -0.00000000000E+00 -0.00000000000E+00 -0.86324660621E+03  0.86324660621E+03  0.00000000000E+00 0. -1.
         25    1    1    2    0    0  0.00000000000E+00  0.00000000000E+00 -0.85872153774E+03  0.86777167468E+03  0.12500000000E+03 0.  0.
<mgrwt>
<rscale>  0 0.12500000E+03</rscale>
<asrwt>0</asrwt>
<pdfrwt beam="1">  1       21 0.69616483E-03 0.12500000E+03</pdfrwt>
<pdfrwt beam="2">  1       21 0.13280709E+00 0.12500000E+03</pdfrwt>
<totfact> 0.27236417E+06</totfact>
</mgrwt>
</event>
<event>
 3    1  0.1594457E-001  0.1250000E+03  0.7546771E-02  0.1235069E+00
         21   -1    0    0  502  501  0.00000000000E+00  0.00000000000E+00  0.43357214639E+02  0.43357214639E+02  0.00000000000E+00 0. -1.
         21   -1    0    0  501  502 -0.00000000000E+00 -0.00000000000E+00 -0.90094579010E+02  0.90094579010E+02  0.00000000000E+00 0. -1.
         25    1    1    2    0    0  0.00000000000E+00  0.00000000000E+00 -0.46737364371E+02  0.13345179365E+03  0.12500000000E+03 0.  0.
<mgrwt>
<rscale>  0 0.12500000E+03</rscale>
<asrwt>0</asrwt>
<pdfrwt beam="1">  1       21 0.66703407E-02 0.12500000E+03</pdfrwt>
<pdfrwt beam="2">  1       21 0.13860704E-01 0.12500000E+03</pdfrwt>
<totfact> 0.72902128E+06</totfact>
</mgrwt>
</event>
<event>
 3    1  0.1594457E-001  0.1250000E+03  0.7546771E-02  0.1235069E+00
         21   -1    0    0  502  501  0.00000000000E+00  0.00000000000E+00  0.36520818017E+02  0.36520818017E+02  0.00000000000E+00 0. -1.
         21   -1    0    0  501  502 -0.00000000000E+00 -0.00000000000E+00 -0.10695954286E+03  0.10695954286E+03  0.00000000000E+00 0. -1.
         25    1    1    2    0    0  0.00000000000E+00  0.00000000000E+00 -0.70438724845E+02  0.14348036088E+03  0.12500000000E+03 0.  0.
<mgrwt>
<rscale>  0 0.12500000E+03</rscale>
<asrwt>0</asrwt>
<pdfrwt beam="1">  1       21 0.56185876E-02 0.12500000E+03</pdfrwt>
<pdfrwt beam="2">  1       21 0.16455314E-01 0.12500000E+03</pdfrwt>
<totfact> 0.71588147E+06</totfact>
</mgrwt>
</event>
<event>
 3    1  0.1594457E-001  0.1250000E+03  0.7546771E-02  0.1235069E+00
         21   -1    0    0  502  501  0.00000000000E+00  0.00000000000E+00  0.47630736596E+02  0.47630736596E+02  0.00000000000E+00 0. -1.
         21   -1    0    0  501  502 -0.00000000000E+00 -0.00000000000E+00 -0.82011118853E+02  0.82011118853E+02  0.00000000000E+00 0. -1.
         25    1    1    2    0    0  0.00000000000E+00  0.00000000000E+00 -0.34380382257E+02  0.12964185545E+03  0.12500000000E+03 0.  0.
<mgrwt>
<rscale>  0 0.12500000E+03</rscale>
<asrwt>0</asrwt>
<pdfrwt beam="1">  1       21 0.73278057E-02 0.12500000E+03</pdfrwt>
<pdfrwt beam="2">  1       21 0.12617095E-01 0.12500000E+03</pdfrwt>
<totfact> 0.73412820E+06</totfact>
</mgrwt>
</event>
<event>
 3    1  0.1594457E-001  0.1250000E+03  0.7546771E-02  0.1235069E+00
         21   -1    0    0  502  501  0.00000000000E+00  0.00000000000E+00  0.10003160700E+02  0.10003160700E+02  0.00000000000E+00 0. -1.
         21   -1    0    0  501  502 -0.00000000000E+00 -0.00000000000E+00 -0.39050157415E+03  0.39050157415E+03  0.00000000000E+00 0. -1.
         25    1    1    2    0    0  0.00000000000E+00  0.00000000000E+00 -0.38049841345E+03  0.40050473485E+03  0.12500000000E+03 0.  0.
<mgrwt>
<rscale>  0 0.12500000E+03</rscale>
<asrwt>0</asrwt>
<pdfrwt beam="1">  1       21 0.15389480E-02 0.12500000E+03</pdfrwt>
<pdfrwt beam="2">  1       21 0.60077158E-01 0.12500000E+03</pdfrwt>
<totfact> 0.48007893E+06</totfact>
</mgrwt>
</event>
<event>
 3    1  0.1594457E-001  0.1250000E+03  0.7546771E-02  0.1235069E+00
         21   -1    0    0  502  501  0.00000000000E+00  0.00000000000E+00  0.38222768282E+03  0.38222768282E+03  0.00000000000E+00 0.  1.
         21   -1    0    0  501  502 -0.00000000000E+00 -0.00000000000E+00 -0.10219694113E+02  0.10219694113E+02  0.00000000000E+00 0.  1.
         25    1    1    2    0    0  0.00000000000E+00  0.00000000000E+00  0.37200798871E+03  0.39244737694E+03  0.12500000000E+03 0.  0.
<mgrwt>
<rscale>  0 0.12500000E+03</rscale>
<asrwt>0</asrwt>
<pdfrwt beam="1">  1       21 0.58804248E-01 0.12500000E+03</pdfrwt>
<pdfrwt beam="2">  1       21 0.15722609E-02 0.12500000E+03</pdfrwt>
<totfact> 0.48546380E+06</totfact>
</mgrwt>
</event>
<event>
 3    1  0.1594457E-001  0.1250000E+03  0.7546771E-02  0.1235069E+00
         21   -1    0    0  502  501  0.00000000000E+00  0.00000000000E+00  0.33001827636E+03  0.33001827636E+03  0.00000000000E+00 0.  1.
         21   -1    0    0  501  502 -0.00000000000E+00 -0.00000000000E+00 -0.11836465674E+02  0.11836465674E+02  0.00000000000E+00 0.  1.
         25    1    1    2    0    0  0.00000000000E+00  0.00000000000E+00  0.31818181068E+03  0.34185474203E+03  0.12500000000E+03 0.  0.
<mgrwt>
<rscale>  0 0.12500000E+03</rscale>
<asrwt>0</asrwt>
<pdfrwt beam="1">  1       21 0.50772035E-01 0.12500000E+03</pdfrwt>
<pdfrwt beam="2">  1       21 0.18209950E-02 0.12500000E+03</pdfrwt>
<totfact> 0.52145668E+06</totfact>
</mgrwt>
</event>
<event>
 3    1  0.1594457E-001  0.1250000E+03  0.7546771E-02  0.1235069E+00
         21   -1    0    0  502  501  0.00000000000E+00  0.00000000000E+00  0.13453399055E+03  0.13453399055E+03  0.00000000000E+00 0.  1.
         21   -1    0    0  501  502 -0.00000000000E+00 -0.00000000000E+00 -0.29035413162E+02  0.29035413162E+02  0.00000000000E+00 0.  1.
         25    1    1    2    0    0  0.00000000000E+00  0.00000000000E+00  0.10549857739E+03  0.16356940371E+03  0.12500000000E+03 0.  0.
<mgrwt>
<rscale>  0 0.12500000E+03</rscale>
<asrwt>0</asrwt>
<pdfrwt beam="1">  1       21 0.20697537E-01 0.12500000E+03</pdfrwt>
<pdfrwt beam="2">  1       21 0.44669867E-02 0.12500000E+03</pdfrwt>
<totfact> 0.69085963E+06</totfact>
</mgrwt>
</event>
<event>
 3    1  0.1594457E-001  0.1250000E+03  0.7546771E-02  0.1235069E+00
         21   -1    0    0  502  501  0.00000000000E+00  0.00000000000E+00  0.10341309501E+03  0.10341309501E+03  0.00000000000E+00 0. -1.
         21   -1    0    0  501  502 -0.00000000000E+00 -0.00000000000E+00 -0.37773262656E+02  0.37773262656E+02  0.00000000000E+00 0. -1.
         25    1    1    2    0    0  0.00000000000E+00  0.00000000000E+00  0.65639832358E+02  0.14118635767E+03  0.12500000000E+03 0.  0.
<mgrwt>
<rscale>  0 0.12500000E+03</rscale>
<asrwt>0</asrwt>
<pdfrwt beam="1">  1       21 0.15909707E-01 0.12500000E+03</pdfrwt>
<pdfrwt beam="2">  1       21 0.58112712E-02 0.12500000E+03</pdfrwt>
<totfact> 0.71884808E+06</totfact>
</mgrwt>
</event>
<event>
 3    1  0.1594457E-001  0.1250000E+03  0.7546771E-02  0.1235069E+00
         21   -1    0    0  502  501  0.00000000000E+00  0.00000000000E+00  0.10155006875E+02  0.10155006875E+02  0.00000000000E+00 0. -1.
         21   -1    0    0  501  502 -0.00000000000E+00 -0.00000000000E+00 -0.38466246731E+03  0.38466246731E+03  0.00000000000E+00 0. -1.
         25    1    1    2    0    0  0.00000000000E+00  0.00000000000E+00 -0.37450746044E+03  0.39481747418E+03  0.12500000000E+03 0.  0.
<mgrwt>
<rscale>  0 0.12500000E+03</rscale>
<asrwt>0</asrwt>
<pdfrwt beam="1">  1       21 0.15623088E-02 0.12500000E+03</pdfrwt>
<pdfrwt beam="2">  1       21 0.59178841E-01 0.12500000E+03</pdfrwt>
<totfact> 0.48387012E+06</totfact>
</mgrwt>
</event>
<event>
 3    1  0.1594457E-001  0.1250000E+03  0.7546771E-02  0.1235069E+00
         21   -1    0    0  502  501  0.00000000000E+00  0.00000000000E+00  0.12889932236E+03  0.12889932236E+03  0.00000000000E+00 0.  1.
         21   -1    0    0  501  502 -0.00000000000E+00 -0.00000000000E+00 -0.30304658927E+02  0.30304658927E+02  0.00000000000E+00 0.  1.
         25    1    1    2    0    0  0.00000000000E+00  0.00000000000E+00  0.98594663431E+02  0.15920398129E+03  0.12500000000E+03 0.  0.
<mgrwt>
<rscale>  0 0.12500000E+03</rscale>
<asrwt>0</asrwt>
<pdfrwt beam="1">  1       21 0.19830665E-01 0.12500000E+03</pdfrwt>
<pdfrwt beam="2">  1       21 0.46622553E-02 0.12500000E+03</pdfrwt>
<totfact> 0.69616892E+06</totfact>
</mgrwt>
</event>
<event>
 3    1  0.1594457E-001  0.1250000E+03  0.7546771E-02  0.1235069E+00
         21   -1    0    0  502  501  0.00000000000E+00  0.00000000000E+00  0.84190086993E+01  0.84190086993E+01  0.00000000000E+00 0. -1.
         21   -1    0    0  501  502 -0.00000000000E+00 -0.00000000000E+00 -0.46397980327E+03  0.46397980327E+03  0.00000000000E+00 0. -1.
         25    1    1    2    0    0  0.00000000000E+00  0.00000000000E+00 -0.45556079457E+03  0.47239881196E+03  0.12500000000E+03 0.  0.
<mgrwt>
<rscale>  0 0.12500000E+03</rscale>
<asrwt>0</asrwt>
<pdfrwt beam="1">  1       21 0.12952325E-02 0.12500000E+03</pdfrwt>
<pdfrwt beam="2">  1       21 0.71381485E-01 0.12500000E+03</pdfrwt>
<totfact> 0.43581626E+06</totfact>
</mgrwt>
</event>
<event>
 3    1  0.1594457E-001  0.1250000E+03  0.7546771E-02  0.1235069E+00
         21   -1    0    0  502  501  0.00000000000E+00  0.00000000000E+00  0.61755344991E+01  0.61755344991E+01  0.00000000000E+00 0.  1.
         21   -1    0    0  501  502 -0.00000000000E+00 -0.00000000000E+00 -0.63253634169E+03  0.63253634169E+03  0.00000000000E+00 0.  1.
         25    1    1    2    0    0  0.00000000000E+00  0.00000000000E+00 -0.62636080719E+03  0.63871187619E+03  0.12500000000E+03 0.  0.
<mgrwt>
<rscale>  0 0.12500000E+03</rscale>
<asrwt>0</asrwt>
<pdfrwt beam="1">  1       21 0.95008284E-03 0.12500000E+03</pdfrwt>
<pdfrwt beam="2">  1       21 0.97313221E-01 0.12500000E+03</pdfrwt>
<totfact> 0.35398416E+06</totfact>
</mgrwt>
</event>
<event>
 3    1  0.1594457E-001  0.1250000E+03  0.7546771E-02  0.1235069E+00
         21   -1    0    0  502  501  0.00000000000E+00  0.00000000000E+00  0.89308295705E+02  0.89308295705E+02  0.00000000000E+00 0.  1.
         21   -1    0    0  501  502 -0.00000000000E+00 -0.00000000000E+00 -0.43738937902E+02  0.43738937902E+02  0.00000000000E+00 0.  1.
         25    1    1    2    0    0  0.00000000000E+00  0.00000000000E+00  0.45569357802E+02  0.13304723361E+03  0.12500000000E+03 0.  0.
<mgrwt>
<rscale>  0 0.12500000E+03</rscale>
<asrwt>0</asrwt>
<pdfrwt beam="1">  1       21 0.13739738E-01 0.12500000E+03</pdfrwt>
<pdfrwt beam="2">  1       21 0.67290673E-02 0.12500000E+03</pdfrwt>
<totfact> 0.72956092E+06</totfact>
</mgrwt>
</event>
<event>
 3    1  0.1594457E-001  0.1250000E+03  0.7546771E-02  0.1235069E+00
         21   -1    0    0  502  501  0.00000000000E+00  0.00000000000E+00  0.24298518557E+02  0.24298518557E+02  0.00000000000E+00 0. -1.
         21   -1    0    0  501  502 -0.00000000000E+00 -0.00000000000E+00 -0.16076082955E+03  0.16076082955E+03  0.00000000000E+00 0. -1.
         25    1    1    2    0    0  0.00000000000E+00  0.00000000000E+00 -0.13646231099E+03  0.18505934811E+03  0.12500000000E+03 0.  0.
<mgrwt>
<rscale>  0 0.12500000E+03</rscale>
<asrwt>0</asrwt>
<pdfrwt beam="1">  1       21 0.37382335E-02 0.12500000E+03</pdfrwt>
<pdfrwt beam="2">  1       21 0.24732436E-01 0.12500000E+03</pdfrwt>
<totfact> 0.66575830E+06</totfact>
</mgrwt>
</event>
<event>
 3    1  0.1594457E-001  0.1250000E+03  0.7546771E-02  0.1235069E+00
         21   -1    0    0  502  501  0.00000000000E+00  0.00000000000E+00  0.14437815482E+02  0.14437815482E+02  0.00000000000E+00 0. -1.
         21   -1    0    0  501  502 -0.00000000000E+00 -0.00000000000E+00 -0.27055685847E+03  0.27055685847E+03  0.00000000000E+00 0. -1.
         25    1    1    2    0    0  0.00000000000E+00  0.00000000000E+00 -0.25611904299E+03  0.28499467395E+03  0.12500000000E+03 0.  0.
<mgrwt>
<rscale>  0 0.12500000E+03</rscale>
<asrwt>0</asrwt>
<pdfrwt beam="1">  1       21 0.22212027E-02 0.12500000E+03</pdfrwt>
<pdfrwt beam="2">  1       21 0.41624127E-01 0.12500000E+03</pdfrwt>
<totfact> 0.56726696E+06</totfact>
</mgrwt>
</event>
<event>
 3    1  0.1594457E-001  0.1250000E+03  0.7546771E-02  0.1235069E+00
         21   -1    0    0  502  501  0.00000000000E+00  0.00000000000E+00  0.81268125099E+01  0.81268125099E+01  0.00000000000E+00 0.  1.
         21   -1    0    0  501  502 -0.00000000000E+00 -0.00000000000E+00 -0.48066200558E+03  0.48066200558E+03  0.00000000000E+00 0.  1.
         25    1    1    2    0    0  0.00000000000E+00  0.00000000000E+00 -0.47253519307E+03  0.48878881809E+03  0.12500000000E+03 0.  0.
<mgrwt>
<rscale>  0 0.12500000E+03</rscale>
<asrwt>0</asrwt>
<pdfrwt beam="1">  1       21 0.12502784E-02 0.12500000E+03</pdfrwt>
<pdfrwt beam="2">  1       21 0.73948025E-01 0.12500000E+03</pdfrwt>
<totfact> 0.42658669E+06</totfact>
</mgrwt>
</event>
<event>
 3    1  0.1594457E-001  0.1250000E+03  0.7546771E-02  0.1235069E+00
         21   -1    0    0  502  501  0.00000000000E+00  0.00000000000E+00  0.13265609169E+03  0.13265609169E+03  0.00000000000E+00 0.  1.
         21   -1    0    0  501  502 -0.00000000000E+00 -0.00000000000E+00 -0.29446442679E+02  0.29446442679E+02  0.00000000000E+00 0.  1.
         25    1    1    2    0    0  0.00000000000E+00  0.00000000000E+00  0.10320964901E+03  0.16210253437E+03  0.12500000000E+03 0.  0.
<mgrwt>
<rscale>  0 0.12500000E+03</rscale>
<asrwt>0</asrwt>
<pdfrwt beam="1">  1       21 0.20408629E-01 0.12500000E+03</pdfrwt>
<pdfrwt beam="2">  1       21 0.45302220E-02 0.12500000E+03</pdfrwt>
<totfact> 0.69263497E+06</totfact>
</mgrwt>
</event>
<event>
 3    1  0.1594457E-001  0.1250000E+03  0.7546771E-02  0.1235069E+00
         21   -1    0    0  502  501  0.00000000000E+00  0.00000000000E+00  0.58058108830E+01  0.58058108830E+01  0.00000000000E+00 0.  1.
         21   -1    0    0  501  502 -0.00000000000E+00 -0.00000000000E+00 -0.67281729955E+03  0.67281729955E+03  0.00000000000E+00 0.  1.
         25    1    1    2    0    0  0.00000000000E+00  0.00000000000E+00 -0.66701148867E+03  0.67862311044E+03  0.12500000000E+03 0.  0.
<mgrwt>
<rscale>  0 0.12500000E+03</rscale>
<asrwt>0</asrwt>
<pdfrwt beam="1">  1       21 0.89320241E-03 0.12500000E+03</pdfrwt>
<pdfrwt beam="2">  1       21 0.10351027E+00 0.12500000E+03</pdfrwt>
<totfact> 0.33750724E+06</totfact>
</mgrwt>
</event>
<event>
 3    1  0.1594457E-001  0.1250000E+03  0.7546771E-02  0.1235069E+00
         21   -1    0    0  502  501  0.00000000000E+00  0.00000000000E+00  0.64419351802E+02  0.64419351802E+02  0.00000000000E+00 0. -1.
         21   -1    0    0  501  502 -0.00000000000E+00 -0.00000000000E+00 -0.60637834606E+02  0.60637834606E+02  0.00000000000E+00 0. -1.
         25    1    1    2    0    0  0.00000000000E+00  0.00000000000E+00  0.37815171967E+01  0.12505718641E+03  0.12500000000E+03 0.  0.
<mgrwt>
<rscale>  0 0.12500000E+03</rscale>
<asrwt>0</asrwt>
<pdfrwt beam="1">  1       21 0.99106695E-02 0.12500000E+03</pdfrwt>
<pdfrwt beam="2">  1       21 0.93288976E-02 0.12500000E+03</pdfrwt>
<totfact> 0.74035857E+06</totfact>
</mgrwt>
</event>
<event>
 3    1  0.1594457E-001  0.1250000E+03  0.7546771E-02  0.1235069E+00
         21   -1    0    0  502  501  0.00000000000E+00  0.00000000000E+00  0.11688373961E+03  0.11688373961E+03  0.00000000000E+00 0. -1.
         21   -1    0    0  501  502 -0.00000000000E+00 -0.00000000000E+00 -0.33419960835E+02  0.33419960835E+02  0.00000000000E+00 0. -1.
         25    1    1    2    0    0  0.00000000000E+00  0.00000000000E+00  0.83463778773E+02  0.15030370044E+03  0.12500000000E+03 0.  0.
<mgrwt>
<rscale>  0 0.12500000E+03</rscale>
<asrwt>0</asrwt>
<pdfrwt beam="1">  1       21 0.17982114E-01 0.12500000E+03</pdfrwt>
<pdfrwt beam="2">  1       21 0.51415325E-02 0.12500000E+03</pdfrwt>
<totfact> 0.70721072E+06</totfact>
</mgrwt>
</event>
<event>
 3    1  0.1594457E-001  0.1250000E+03  0.7546771E-02  0.1235069E+00
         21   -1    0    0  502  501  0.00000000000E+00  0.00000000000E+00  0.10466189647E+03  0.10466189647E+03  0.00000000000E+00 0. -1.
         21   -1    0    0  501  502 -0.00000000000E+00 -0.00000000000E+00 -0.37322560852E+02  0.37322560852E+02  0.00000000000E+00 0. -1.
         25    1    1    2    0    0  0.00000000000E+00  0.00000000000E+00  0.67339335620E+02  0.14198445732E+03  0.12500000000E+03 0.  0.
<mgrwt>
<rscale>  0 0.12500000E+03</rscale>
<asrwt>0</asrwt>
<pdfrwt beam="1">  1       21 0.16101830E-01 0.12500000E+03</pdfrwt>
<pdfrwt beam="2">  1       21 0.57419325E-02 0.12500000E+03</pdfrwt>
<totfact> 0.71781289E+06</totfact>
</mgrwt>
</event>
<event>
 3    1  0.1594457E-001  0.1250000E+03  0.7546771E-02  0.1235069E+00
         21   -1    0    0  502  501  0.00000000000E+00  0.00000000000E+00  0.13272258488E+03  0.13272258488E+03  0.00000000000E+00 0.  1.
         21   -1    0    0  501  502 -0.00000000000E+00 -0.00000000000E+00 -0.29431690195E+02  0.29431690195E+02  0.00000000000E+00 0.  1.
         25    1    1    2    0    0  0.00000000000E+00  0.00000000000E+00  0.10329089469E+03  0.16215427507E+03  0.12500000000E+03 0.  0.
<mgrwt>
<rscale>  0 0.12500000E+03</rscale>
<asrwt>0</asrwt>
<pdfrwt beam="1">  1       21 0.20418859E-01 0.12500000E+03</pdfrwt>
<pdfrwt beam="2">  1       21 0.45279524E-02 0.12500000E+03</pdfrwt>
<totfact> 0.69257220E+06</totfact>
</mgrwt>
</event>
<event>
 3    1  0.1594457E-001  0.1250000E+03  0.7546771E-02  0.1235069E+00
         21   -1    0    0  502  501  0.00000000000E+00  0.00000000000E+00  0.94798864036E+02  0.94798864036E+02  0.00000000000E+00 0.  1.
         21   -1    0    0  501  502 -0.00000000000E+00 -0.00000000000E+00 -0.41205662533E+02  0.41205662533E+02  0.00000000000E+00 0.  1.
         25    1    1    2    0    0  0.00000000000E+00  0.00000000000E+00  0.53593201503E+02  0.13600452657E+03  0.12500000000E+03 0.  0.
<mgrwt>
<rscale>  0 0.12500000E+03</rscale>
<asrwt>0</asrwt>
<pdfrwt beam="1">  1       21 0.14584441E-01 0.12500000E+03</pdfrwt>
<pdfrwt beam="2">  1       21 0.63393327E-02 0.12500000E+03</pdfrwt>
<totfact> 0.72563738E+06</totfact>
</mgrwt>
</event>
<event>
 3    1  0.1594457E-001  0.1250000E+03  0.7546771E-02  0.1235069E+00
         21   -1    0    0  502  501  0.00000000000E+00  0.00000000000E+00  0.71907420973E+02  0.71907420973E+02  0.00000000000E+00 0.  1.
         21   -1    0    0  501  502 -0.00000000000E+00 -0.00000000000E+00 -0.54323322227E+02  0.54323322227E+02  0.00000000000E+00 0.  1.
         25    1    1    2    0    0  0.00000000000E+00  0.00000000000E+00  0.17584098747E+02  0.12623074320E+03  0.12500000000E+03 0.  0.
<mgrwt>
<rscale>  0 0.12500000E+03</rscale>
<asrwt>0</asrwt>
<pdfrwt beam="1">  1       21 0.11062680E-01 0.12500000E+03</pdfrwt>
<pdfrwt beam="2">  1       21 0.83574341E-02 0.12500000E+03</pdfrwt>
<totfact> 0.73874286E+06</totfact>
</mgrwt>
</event>
<event>
 3    1  0.1594457E-001  0.1250000E+03  0.7546771E-02  0.1235069E+00
         21   -1    0    0  502  501  0.00000000000E+00  0.00000000000E+00  0.90961222008E+01  0.90961222008E+01  0.00000000000E+00 0. -1.
         21   -1    0    0  501  502 -0.00000000000E+00 -0.00000000000E+00 -0.42944124032E+03  0.42944124032E+03  0.00000000000E+00 0. -1.
         25    1    1    2    0    0  0.00000000000E+00  0.00000000000E+00 -0.42034511812E+03  0.43853736252E+03  0.12500000000E+03 0.  0.
<mgrwt>
<rscale>  0 0.12500000E+03</rscale>
<asrwt>0</asrwt>
<pdfrwt beam="1">  1       21 0.13994035E-02 0.12500000E+03</pdfrwt>
<pdfrwt beam="2">  1       21 0.66067877E-01 0.12500000E+03</pdfrwt>
<totfact> 0.45586012E+06</totfact>
</mgrwt>
</event>
<event>
 3    1  0.1594457E-001  0.1250000E+03  0.7546771E-02  0.1235069E+00
         21   -1    0    0  502  501  0.00000000000E+00  0.00000000000E+00  0.10678458685E+03  0.10678458685E+03  0.00000000000E+00 0.  1.
         21   -1    0    0  501  502 -0.00000000000E+00 -0.00000000000E+00 -0.36580653775E+02  0.36580653775E+02  0.00000000000E+00 0.  1.
         25    1    1    2    0    0  0.00000000000E+00  0.00000000000E+00  0.70203933074E+02  0.14336524062E+03  0.12500000000E+03 0.  0.
<mgrwt>
<rscale>  0 0.12500000E+03</rscale>
<asrwt>0</asrwt>
<pdfrwt beam="1">  1       21 0.16428398E-01 0.12500000E+03</pdfrwt>
<pdfrwt beam="2">  1       21 0.56277929E-02 0.12500000E+03</pdfrwt>
<totfact> 0.71602970E+06</totfact>
</mgrwt>
</event>
<event>
 3    1  0.1594457E-001  0.1250000E+03  0.7546771E-02  0.1235069E+00
         21   -1    0    0  502  501  0.00000000000E+00  0.00000000000E+00  0.61237807599E+03  0.61237807599E+03  0.00000000000E+00 0.  1.
         21   -1    0    0  501  502 -0.00000000000E+00 -0.00000000000E+00 -0.63788207860E+01  0.63788207860E+01  0.00000000000E+00 0.  1.
         25    1    1    2    0    0  0.00000000000E+00  0.00000000000E+00  0.60599925520E+03  0.61875689677E+03  0.12500000000E+03 0.  0.
<mgrwt>
<rscale>  0 0.12500000E+03</rscale>
<asrwt>0</asrwt>
<pdfrwt beam="1">  1       21 0.94211965E-01 0.12500000E+03</pdfrwt>
<pdfrwt beam="2">  1       21 0.98135753E-03 0.12500000E+03</pdfrwt>
<totfact> 0.36257895E+06</totfact>
</mgrwt>
</event>
<event>
 3    1  0.1594457E-001  0.1250000E+03  0.7546771E-02  0.1235069E+00
         21   -1    0    0  502  501  0.00000000000E+00  0.00000000000E+00  0.10265188579E+02  0.10265188579E+02  0.00000000000E+00 0.  1.
         21   -1    0    0  501  502 -0.00000000000E+00 -0.00000000000E+00 -0.38053368136E+03  0.38053368136E+03  0.00000000000E+00 0.  1.
         25    1    1    2    0    0  0.00000000000E+00  0.00000000000E+00 -0.37026849278E+03  0.39079886994E+03  0.12500000000E+03 0.  0.
<mgrwt>
<rscale>  0 0.12500000E+03</rscale>
<asrwt>0</asrwt>
<pdfrwt beam="1">  1       21 0.15792597E-02 0.12500000E+03</pdfrwt>
<pdfrwt beam="2">  1       21 0.58543646E-01 0.12500000E+03</pdfrwt>
<totfact> 0.48657698E+06</totfact>
</mgrwt>
</event>
<event>
 3    1  0.1594457E-001  0.1250000E+03  0.7546771E-02  0.1235069E+00
         21   -1    0    0  502  501  0.00000000000E+00  0.00000000000E+00  0.23118849978E+03  0.23118849978E+03  0.00000000000E+00 0. -1.
         21   -1    0    0  501  502 -0.00000000000E+00 -0.00000000000E+00 -0.16896385433E+02  0.16896385433E+02  0.00000000000E+00 0. -1.
         25    1    1    2    0    0  0.00000000000E+00  0.00000000000E+00  0.21429211435E+03  0.24808488521E+03  0.12500000000E+03 0.  0.
<mgrwt>
<rscale>  0 0.12500000E+03</rscale>
<asrwt>0</asrwt>
<pdfrwt beam="1">  1       21 0.35567459E-01 0.12500000E+03</pdfrwt>
<pdfrwt beam="2">  1       21 0.25994441E-02 0.12500000E+03</pdfrwt>
<totfact> 0.60058965E+06</totfact>
</mgrwt>
</event>
<event>
 3    1  0.1594457E-001  0.1250000E+03  0.7546771E-02  0.1235069E+00
         21   -1    0    0  502  501  0.00000000000E+00  0.00000000000E+00  0.18995611442E+01  0.18995611442E+01  0.00000000000E+00 0. -1.
         21   -1    0    0  501  502 -0.00000000000E+00 -0.00000000000E+00 -0.20563960323E+04  0.20563960323E+04  0.00000000000E+00 0. -1.
         25    1    1    2    0    0  0.00000000000E+00  0.00000000000E+00 -0.20544964711E+04  0.20582955934E+04  0.12500000000E+03 0.  0.
<mgrwt>
<rscale>  0 0.12500000E+03</rscale>
<asrwt>0</asrwt>
<pdfrwt beam="1">  1       21 0.29224074E-03 0.12500000E+03</pdfrwt>
<pdfrwt beam="2">  1       21 0.31636801E+00 0.12500000E+03</pdfrwt>
<totfact> 0.73934796E+05</totfact>
</mgrwt>
</event>
<event>
 3    1  0.1594457E-001  0.1250000E+03  0.7546771E-02  0.1235069E+00
         21   -1    0    0  502  501  0.00000000000E+00  0.00000000000E+00  0.75250663307E+03  0.75250663307E+03  0.00000000000E+00 0. -1.
         21   -1    0    0  501  502 -0.00000000000E+00 -0.00000000000E+00 -0.51909841433E+01  0.51909841433E+01  0.00000000000E+00 0. -1.
         25    1    1    2    0    0  0.00000000000E+00  0.00000000000E+00  0.74731564893E+03  0.75769761721E+03  0.12500000000E+03 0.  0.
<mgrwt>
<rscale>  0 0.12500000E+03</rscale>
<asrwt>0</asrwt>
<pdfrwt beam="1">  1       21 0.11577016E+00 0.12500000E+03</pdfrwt>
<pdfrwt beam="2">  1       21 0.79861354E-03 0.12500000E+03</pdfrwt>
<totfact> 0.30799977E+06</totfact>
</mgrwt>
</event>
<event>
 3    1  0.1594457E-001  0.1250000E+03  0.7546771E-02  0.1235069E+00
         21   -1    0    0  502  501  0.00000000000E+00  0.00000000000E+00  0.34690277301E+01  0.34690277301E+01  0.00000000000E+00 0. -1.
         21   -1    0    0  501  502 -0.00000000000E+00 -0.00000000000E+00 -0.11260359685E+04  0.11260359685E+04  0.00000000000E+00 0. -1.
         25    1    1    2    0    0  0.00000000000E+00  0.00000000000E+00 -0.11225669408E+04  0.11295049963E+04  0.12500000000E+03 0.  0.
<mgrwt>
<rscale>  0 0.12500000E+03</rscale>
<asrwt>0</asrwt>
<pdfrwt beam="1">  1       21 0.53369630E-03 0.12500000E+03</pdfrwt>
<pdfrwt beam="2">  1       21 0.17323639E+00 0.12500000E+03</pdfrwt>
<totfact> 0.20606868E+06</totfact>
</mgrwt>
</event>
<event>
 3    1  0.1594457E-001  0.1250000E+03  0.7546771E-02  0.1235069E+00
         21   -1    0    0  502  501  0.00000000000E+00  0.00000000000E+00  0.25124620491E+03  0.25124620491E+03  0.00000000000E+00 0.  1.
         21   -1    0    0  501  502 -0.00000000000E+00 -0.00000000000E+00 -0.15547498524E+02  0.15547498524E+02  0.00000000000E+00 0.  1.
         25    1    1    2    0    0  0.00000000000E+00  0.00000000000E+00  0.23569870639E+03  0.26679370344E+03  0.12500000000E+03 0.  0.
<mgrwt>
<rscale>  0 0.12500000E+03</rscale>
<asrwt>0</asrwt>
<pdfrwt beam="1">  1       21 0.38653259E-01 0.12500000E+03</pdfrwt>
<pdfrwt beam="2">  1       21 0.23919230E-02 0.12500000E+03</pdfrwt>
<totfact> 0.58332135E+06</totfact>
</mgrwt>
</event>
<event>
 3    1  0.1594457E-001  0.1250000E+03  0.7546771E-02  0.1235069E+00
         21   -1    0    0  502  501  0.00000000000E+00  0.00000000000E+00  0.10635509919E+02  0.10635509919E+02  0.00000000000E+00 0. -1.
         21   -1    0    0  501  502 -0.00000000000E+00 -0.00000000000E+00 -0.36728375319E+03  0.36728375319E+03  0.00000000000E+00 0. -1.
         25    1    1    2    0    0  0.00000000000E+00  0.00000000000E+00 -0.35664824327E+03  0.37791926310E+03  0.12500000000E+03 0.  0.
<mgrwt>
<rscale>  0 0.12500000E+03</rscale>
<asrwt>0</asrwt>
<pdfrwt beam="1">  1       21 0.16362329E-02 0.12500000E+03</pdfrwt>
<pdfrwt beam="2">  1       21 0.56505174E-01 0.12500000E+03</pdfrwt>
<totfact> 0.49540338E+06</totfact>
</mgrwt>
</event>
<event>
 3    1  0.1594457E-001  0.1250000E+03  0.7546771E-02  0.1235069E+00
         21   -1    0    0  502  501  0.00000000000E+00  0.00000000000E+00  0.39776557828E+03  0.39776557828E+03  0.00000000000E+00 0.  1.
         21   -1    0    0  501  502 -0.00000000000E+00 -0.00000000000E+00 -0.98204827499E+01  0.98204827499E+01  0.00000000000E+00 0.  1.
         25    1    1    2    0    0  0.00000000000E+00  0.00000000000E+00  0.38794509553E+03  0.40758606103E+03  0.12500000000E+03 0.  0.
<mgrwt>
<rscale>  0 0.12500000E+03</rscale>
<asrwt>0</asrwt>
<pdfrwt beam="1">  1       21 0.61194692E-01 0.12500000E+03</pdfrwt>
<pdfrwt beam="2">  1       21 0.15108438E-02 0.12500000E+03</pdfrwt>
<totfact> 0.47542218E+06</totfact>
</mgrwt>
</event>
<event>
 3    1  0.1594457E-001  0.1250000E+03  0.7546771E-02  0.1235069E+00
         21   -1    0    0  502  501  0.00000000000E+00  0.00000000000E+00  0.12919070147E+03  0.12919070147E+03  0.00000000000E+00 0.  1.
         21   -1    0    0  501  502 -0.00000000000E+00 -0.00000000000E+00 -0.30236309236E+02  0.30236309236E+02  0.00000000000E+00 0.  1.
         25    1    1    2    0    0  0.00000000000E+00  0.00000000000E+00  0.98954392234E+02  0.15942701071E+03  0.12500000000E+03 0.  0.
<mgrwt>
<rscale>  0 0.12500000E+03</rscale>
<asrwt>0</asrwt>
<pdfrwt beam="1">  1       21 0.19875492E-01 0.12500000E+03</pdfrwt>
<pdfrwt beam="2">  1       21 0.46517399E-02 0.12500000E+03</pdfrwt>
<totfact> 0.69589577E+06</totfact>
</mgrwt>
</event>
<event>
 3    1  0.1594457E-001  0.1250000E+03  0.7546771E-02  0.1235069E+00
         21   -1    0    0  502  501  0.00000000000E+00  0.00000000000E+00  0.22457751663E+03  0.22457751663E+03  0.00000000000E+00 0. -1.
         21   -1    0    0  501  502 -0.00000000000E+00 -0.00000000000E+00 -0.17393771463E+02  0.17393771463E+02  0.00000000000E+00 0. -1.
         25    1    1    2    0    0  0.00000000000E+00  0.00000000000E+00  0.20718374517E+03  0.24197128810E+03  0.12500000000E+03 0.  0.
<mgrwt>
<rscale>  0 0.12500000E+03</rscale>
<asrwt>0</asrwt>
<pdfrwt beam="1">  1       21 0.34550385E-01 0.12500000E+03</pdfrwt>
<pdfrwt beam="2">  1       21 0.26759650E-02 0.12500000E+03</pdfrwt>
<totfact> 0.60642426E+06</totfact>
</mgrwt>
</event>
<event>
 3    1  0.1594457E-001  0.1250000E+03  0.7546771E-02  0.1235069E+00
         21   -1    0    0  502  501  0.00000000000E+00  0.00000000000E+00  0.24130315341E+03  0.24130315341E+03  0.00000000000E+00 0.  1.
         21   -1    0    0  501  502 -0.00000000000E+00 -0.00000000000E+00 -0.16188143191E+02  0.16188143191E+02  0.00000000000E+00 0.  1.
         25    1    1    2    0    0  0.00000000000E+00  0.00000000000E+00  0.22511501022E+03  0.25749129661E+03  0.12500000000E+03 0.  0.
<mgrwt>
<rscale>  0 0.12500000E+03</rscale>
<asrwt>0</asrwt>
<pdfrwt beam="1">  1       21 0.37123559E-01 0.12500000E+03</pdfrwt>
<pdfrwt beam="2">  1       21 0.24904837E-02 0.12500000E+03</pdfrwt>
<totfact> 0.59179978E+06</totfact>
</mgrwt>
</event>
<event>
 3    1  0.1594457E-001  0.1250000E+03  0.7546771E-02  0.1235069E+00
         21   -1    0    0  502  501  0.00000000000E+00  0.00000000000E+00  0.38977218529E+01  0.38977218529E+01  0.00000000000E+00 0. -1.
         21   -1    0    0  501  502 -0.00000000000E+00 -0.00000000000E+00 -0.10021879825E+04  0.10021879825E+04  0.00000000000E+00 0. -1.
         25    1    1    2    0    0  0.00000000000E+00  0.00000000000E+00 -0.99829026062E+03  0.10060857043E+04  0.12500000000E+03 0.  0.
<mgrwt>
<rscale>  0 0.12500000E+03</rscale>
<asrwt>0</asrwt>
<pdfrwt beam="1">  1       21 0.59964894E-03 0.12500000E+03</pdfrwt>
<pdfrwt beam="2">  1       21 0.15418291E+00 0.12500000E+03</pdfrwt>
<totfact> 0.23467279E+06</totfact>
</mgrwt>
</event>
<event>
 3    1  0.1594457E-001  0.1250000E+03  0.7546771E-02  0.1235069E+00
         21   -1    0    0  502  501  0.00000000000E+00  0.00000000000E+00  0.22952060009E+03  0.22952060009E+03  0.00000000000E+00 0.  1.
         21   -1    0    0  501  502 -0.00000000000E+00 -0.00000000000E+00 -0.17019169514E+02  0.17019169514E+02  0.00000000000E+00 0.  1.
         25    1    1    2    0    0  0.00000000000E+00  0.00000000000E+00  0.21250143058E+03  0.24653976961E+03  0.12500000000E+03 0.  0.
<mgrwt>
<rscale>  0 0.12500000E+03</rscale>
<asrwt>0</asrwt>
<pdfrwt beam="1">  1       21 0.35310859E-01 0.12500000E+03</pdfrwt>
<pdfrwt beam="2">  1       21 0.26183339E-02 0.12500000E+03</pdfrwt>
<totfact> 0.60205504E+06</totfact>
</mgrwt>
</event>
<event>
 3    1  0.1594457E-001  0.1250000E+03  0.7546771E-02  0.1235069E+00
         21   -1    0    0  502  501  0.00000000000E+00  0.00000000000E+00  0.14551765729E+02  0.14551765729E+02  0.00000000000E+00 0.  1.
         21   -1    0    0  501  502 -0.00000000000E+00 -0.00000000000E+00 -0.26843821380E+03  0.26843821380E+03  0.00000000000E+00 0.  1.
         25    1    1    2    0    0  0.00000000000E+00  0.00000000000E+00 -0.25388644807E+03  0.28298997953E+03  0.12500000000E+03 0.  0.
<mgrwt>
<rscale>  0 0.12500000E+03</rscale>
<asrwt>0</asrwt>
<pdfrwt beam="1">  1       21 0.22387331E-02 0.12500000E+03</pdfrwt>
<pdfrwt beam="2">  1       21 0.41298189E-01 0.12500000E+03</pdfrwt>
<totfact> 0.56900076E+06</totfact>
</mgrwt>
</event>
<event>
 3    1  0.1594457E-001  0.1250000E+03  0.7546771E-02  0.1235069E+00
         21   -1    0    0  502  501  0.00000000000E+00  0.00000000000E+00  0.20054650936E+04  0.20054650936E+04  0.00000000000E+00 0.  1.
         21   -1    0    0  501  502 -0.00000000000E+00 -0.00000000000E+00 -0.19478025384E+01  0.19478025384E+01  0.00000000000E+00 0.  1.
         25    1    1    2    0    0  0.00000000000E+00  0.00000000000E+00  0.20035172910E+04  0.20074128961E+04  0.12500000000E+03 0.  0.
<mgrwt>
<rscale>  0 0.12500000E+03</rscale>
<asrwt>0</asrwt>
<pdfrwt beam="1">  1       21 0.30853144E+00 0.12500000E+03</pdfrwt>
<pdfrwt beam="2">  1       21 0.29966353E-03 0.12500000E+03</pdfrwt>
<totfact> 0.78759725E+05</totfact>
</mgrwt>
</event>
<event>
 3    1  0.1594457E-001  0.1250000E+03  0.7546771E-02  0.1235069E+00
         21   -1    0    0  502  501  0.00000000000E+00  0.00000000000E+00  0.83905025207E+02  0.83905025207E+02  0.00000000000E+00 0. -1.
         21   -1    0    0  501  502 -0.00000000000E+00 -0.00000000000E+00 -0.46555614403E+02  0.46555614403E+02  0.00000000000E+00 0. -1.
         25    1    1    2    0    0  0.00000000000E+00  0.00000000000E+00  0.37349410804E+02  0.13046063961E+03  0.12500000000E+03 0.  0.
<mgrwt>
<rscale>  0 0.12500000E+03</rscale>
<asrwt>0</asrwt>
<pdfrwt beam="1">  1       21 0.12908465E-01 0.12500000E+03</pdfrwt>
<pdfrwt beam="2">  1       21 0.71624022E-02 0.12500000E+03</pdfrwt>
<totfact> 0.73303414E+06</totfact>
</mgrwt>
</event>
<event>
 3    1  0.1594457E-001  0.1250000E+03  0.7546771E-02  0.1235069E+00
         21   -1    0    0  502  501  0.00000000000E+00  0.00000000000E+00  0.36463581386E+02  0.36463581386E+02  0.00000000000E+00 0. -1.
         21   -1    0    0  501  502 -0.00000000000E+00 -0.00000000000E+00 -0.10712743651E+03  0.10712743651E+03  0.00000000000E+00 0. -1.
         25    1    1    2    0    0  0.00000000000E+00  0.00000000000E+00 -0.70663855129E+02  0.14359101790E+03  0.12500000000E+03 0.  0.
<mgrwt>
<rscale>  0 0.12500000E+03</rscale>
<asrwt>0</asrwt>
<pdfrwt beam="1">  1       21 0.56097818E-02 0.12500000E+03</pdfrwt>
<pdfrwt beam="2">  1       21 0.16481144E-01 0.12500000E+03</pdfrwt>
<totfact> 0.71573905E+06</totfact>
</mgrwt>
</event>
<event>
 3    1  0.1594457E-001  0.1250000E+03  0.7546771E-02  0.1235069E+00
         21   -1    0    0  502  501  0.00000000000E+00  0.00000000000E+00  0.69905721007E+01  0.69905721007E+01  0.00000000000E+00 0.  1.
         21   -1    0    0  501  502 -0.00000000000E+00 -0.00000000000E+00 -0.55878831428E+03  0.55878831428E+03  0.00000000000E+00 0.  1.
         25    1    1    2    0    0  0.00000000000E+00  0.00000000000E+00 -0.55179774218E+03  0.56577888638E+03  0.12500000000E+03 0.  0.
<mgrwt>
<rscale>  0 0.12500000E+03</rscale>
<asrwt>0</asrwt>
<pdfrwt beam="1">  1       21 0.10754730E-02 0.12500000E+03</pdfrwt>
<pdfrwt beam="2">  1       21 0.85967402E-01 0.12500000E+03</pdfrwt>
<totfact> 0.38687438E+06</totfact>
</mgrwt>
</event>
<event>
 3    1  0.1594457E-001  0.1250000E+03  0.7546771E-02  0.1235069E+00
         21   -1    0    0  502  501  0.00000000000E+00  0.00000000000E+00  0.21516604568E+02  0.21516604568E+02  0.00000000000E+00 0. -1.
         21   -1    0    0  501  502 -0.00000000000E+00 -0.00000000000E+00 -0.18154583767E+03  0.18154583767E+03  0.00000000000E+00 0. -1.
         25    1    1    2    0    0  0.00000000000E+00  0.00000000000E+00 -0.16002923310E+03  0.20306244223E+03  0.12500000000E+03 0.  0.
<mgrwt>
<rscale>  0 0.12500000E+03</rscale>
<asrwt>0</asrwt>
<pdfrwt beam="1">  1       21 0.33102470E-02 0.12500000E+03</pdfrwt>
<pdfrwt beam="2">  1       21 0.27930128E-01 0.12500000E+03</pdfrwt>
<totfact> 0.64596920E+06</totfact>
</mgrwt>
</event>
<event>
 3    1  0.1594457E-001  0.1250000E+03  0.7546771E-02  0.1235069E+00
         21   -1    0    0  502  501  0.00000000000E+00  0.00000000000E+00  0.66927898080E+02  0.66927898080E+02  0.00000000000E+00 0.  1.
         21   -1    0    0  501  502 -0.00000000000E+00 -0.00000000000E+00 -0.58365048240E+02  0.58365048240E+02  0.00000000000E+00 0.  1.
         25    1    1    2    0    0  0.00000000000E+00  0.00000000000E+00  0.85628498398E+01  0.12529294632E+03  0.12500000000E+03 0.  0.
<mgrwt>
<rscale>  0 0.12500000E+03</rscale>
<asrwt>0</asrwt>
<pdfrwt beam="1">  1       21 0.10296600E-01 0.12500000E+03</pdfrwt>
<pdfrwt beam="2">  1       21 0.89792382E-02 0.12500000E+03</pdfrwt>
<totfact> 0.74004024E+06</totfact>
</mgrwt>
</event>
<event>
 3    1  0.1594457E-001  0.1250000E+03  0.7546771E-02  0.1235069E+00
         21   -1    0    0  502  501  0.00000000000E+00  0.00000000000E+00  0.19656917790E+02  0.19656917790E+02  0.00000000000E+00 0. -1.
         21   -1    0    0  501  502 -0.00000000000E+00 -0.00000000000E+00 -0.19872138866E+03  0.19872138866E+03  0.00000000000E+00 0. -1.
         25    1    1    2    0    0  0.00000000000E+00  0.00000000000E+00 -0.17906447087E+03  0.21837830645E+03  0.12500000000E+03 0.  0.
<mgrwt>
<rscale>  0 0.12500000E+03</rscale>
<asrwt>0</asrwt>
<pdfrwt beam="1">  1       21 0.30241412E-02 0.12500000E+03</pdfrwt>
<pdfrwt beam="2">  1       21 0.30572521E-01 0.12500000E+03</pdfrwt>
<totfact> 0.62988679E+06</totfact>
</mgrwt>
</event>
<event>
 3    1  0.1594457E-001  0.1250000E+03  0.7546771E-02  0.1235069E+00
         21   -1    0    0  502  501  0.00000000000E+00  0.00000000000E+00  0.43942484855E+03  0.43942484855E+03  0.00000000000E+00 0.  1.
         21   -1    0    0  501  502 -0.00000000000E+00 -0.00000000000E+00 -0.88894608779E+01  0.88894608779E+01  0.00000000000E+00 0.  1.
         25    1    1    2    0    0  0.00000000000E+00  0.00000000000E+00  0.43053538768E+03  0.44831430943E+03  0.12500000000E+03 0.  0.
<mgrwt>
<rscale>  0 0.12500000E+03</rscale>
<asrwt>0</asrwt>
<pdfrwt beam="1">  1       21 0.67603806E-01 0.12500000E+03</pdfrwt>
<pdfrwt beam="2">  1       21 0.13676097E-02 0.12500000E+03</pdfrwt>
<totfact> 0.44993315E+06</totfact>
</mgrwt>
</event>
<event>
 3    1  0.1594457E-001  0.1250000E+03  0.7546771E-02  0.1235069E+00
         21   -1    0    0  502  501  0.00000000000E+00  0.00000000000E+00  0.31668782476E+02  0.31668782476E+02  0.00000000000E+00 0. -1.
         21   -1    0    0  501  502 -0.00000000000E+00 -0.00000000000E+00 -0.12334702172E+03  0.12334702172E+03  0.00000000000E+00 0. -1.
         25    1    1    2    0    0  0.00000000000E+00  0.00000000000E+00 -0.91678239245E+02  0.15501580420E+03  0.12500000000E+03 0.  0.
<mgrwt>
<rscale>  0 0.12500000E+03</rscale>
<asrwt>0</asrwt>
<pdfrwt beam="1">  1       21 0.48721204E-02 0.12500000E+03</pdfrwt>
<pdfrwt beam="2">  1       21 0.18976465E-01 0.12500000E+03</pdfrwt>
<totfact> 0.70133695E+06</totfact>
</mgrwt>
</event>
<event>
 3    1  0.1594457E-001  0.1250000E+03  0.7546771E-02  0.1235069E+00
         21   -1    0    0  502  501  0.00000000000E+00  0.00000000000E+00  0.18407732943E+02  0.18407732943E+02  0.00000000000E+00 0.  1.
         21   -1    0    0  501  502 -0.00000000000E+00 -0.00000000000E+00 -0.21220701170E+03  0.21220701170E+03  0.00000000000E+00 0.  1.
         25    1    1    2    0    0  0.00000000000E+00  0.00000000000E+00 -0.19379927875E+03  0.23061474464E+03  0.12500000000E+03 0.  0.
<mgrwt>
<rscale>  0 0.12500000E+03</rscale>
<asrwt>0</asrwt>
<pdfrwt beam="1">  1       21 0.28319588E-02 0.12500000E+03</pdfrwt>
<pdfrwt beam="2">  1       21 0.32647234E-01 0.12500000E+03</pdfrwt>
<totfact> 0.61752854E+06</totfact>
</mgrwt>
</event>
<event>
 3    1  0.1594457E-001  0.1250000E+03  0.7546771E-02  0.1235069E+00
         21   -1    0    0  502  501  0.00000000000E+00  0.00000000000E+00  0.32182816424E+02  0.32182816424E+02  0.00000000000E+00 0. -1.
         21   -1    0    0  501  502 -0.00000000000E+00 -0.00000000000E+00 -0.12137688475E+03  0.12137688475E+03  0.00000000000E+00 0. -1.
         25    1    1    2    0    0  0.00000000000E+00  0.00000000000E+00 -0.89194068323E+02  0.15355970117E+03  0.12500000000E+03 0.  0.
<mgrwt>
<rscale>  0 0.12500000E+03</rscale>
<asrwt>0</asrwt>
<pdfrwt beam="1">  1       21 0.49512024E-02 0.12500000E+03</pdfrwt>
<pdfrwt beam="2">  1       21 0.18673367E-01 0.12500000E+03</pdfrwt>
<totfact> 0.70314849E+06</totfact>
</mgrwt>
</event>
<event>
 3    1  0.1594457E-001  0.1250000E+03  0.7546771E-02  0.1235069E+00
         21   -1    0    0  502  501  0.00000000000E+00  0.00000000000E+00  0.50162481158E+02  0.50162481158E+02  0.00000000000E+00 0.  1.
         21   -1    0    0  501  502 -0.00000000000E+00 -0.00000000000E+00 -0.77871945522E+02  0.77871945522E+02  0.00000000000E+00 0.  1.
         25    1    1    2    0    0  0.00000000000E+00  0.00000000000E+00 -0.27709464364E+02  0.12803442668E+03  0.12500000000E+03 0.  0.
<mgrwt>
<rscale>  0 0.12500000E+03</rscale>
<asrwt>0</asrwt>
<pdfrwt beam="1">  1       21 0.77173049E-02 0.12500000E+03</pdfrwt>
<pdfrwt beam="2">  1       21 0.11980299E-01 0.12500000E+03</pdfrwt>
<totfact> 0.73628909E+06</totfact>
</mgrwt>
</event>
<event>
 3    1  0.1594457E-001  0.1250000E+03  0.7546771E-02  0.1235069E+00
         21   -1    0    0  502  501  0.00000000000E+00  0.00000000000E+00  0.84148303469E+01  0.84148303469E+01  0.00000000000E+00 0.  1.
         21   -1    0    0  501  502 -0.00000000000E+00 -0.00000000000E+00 -0.46421019070E+03  0.46421019070E+03  0.00000000000E+00 0.  1.
         25    1    1    2    0    0  0.00000000000E+00  0.00000000000E+00 -0.45579536035E+03  0.47262502104E+03  0.12500000000E+03 0.  0.
<mgrwt>
<rscale>  0 0.12500000E+03</rscale>
<asrwt>0</asrwt>
<pdfrwt beam="1">  1       21 0.12945892E-02 0.12500000E+03</pdfrwt>
<pdfrwt beam="2">  1       21 0.71416960E-01 0.12500000E+03</pdfrwt>
<totfact> 0.43568674E+06</totfact>
</mgrwt>
</event>
<event>
 3    1  0.1594457E-001  0.1250000E+03  0.7546771E-02  0.1235069E+00
         21   -1    0    0  502  501  0.00000000000E+00  0.00000000000E+00  0.10474789203E+03  0.10474789203E+03  0.00000000000E+00 0.  1.
         21   -1    0    0  501  502 -0.00000000000E+00 -0.00000000000E+00 -0.37291919908E+02  0.37291919908E+02  0.00000000000E+00 0.  1.
         25    1    1    2    0    0  0.00000000000E+00  0.00000000000E+00  0.67455972120E+02  0.14203981194E+03  0.12500000000E+03 0.  0.
<mgrwt>
<rscale>  0 0.12500000E+03</rscale>
<asrwt>0</asrwt>
<pdfrwt beam="1">  1       21 0.16115060E-01 0.12500000E+03</pdfrwt>
<pdfrwt beam="2">  1       21 0.57372185E-02 0.12500000E+03</pdfrwt>
<totfact> 0.71774122E+06</totfact>
</mgrwt>
</event>
<event>
 3    1  0.1594457E-001  0.1250000E+03  0.7546771E-02  0.1235069E+00
         21   -1    0    0  502  501  0.00000000000E+00  0.00000000000E+00  0.32083540376E+03  0.32083540376E+03  0.00000000000E+00 0. -1.
         21   -1    0    0  501  502 -0.00000000000E+00 -0.00000000000E+00 -0.12175246105E+02  0.12175246105E+02  0.00000000000E+00 0. -1.
         25    1    1    2    0    0  0.00000000000E+00  0.00000000000E+00  0.30866015765E+03  0.33301064986E+03  0.12500000000E+03 0.  0.
<mgrwt>
<rscale>  0 0.12500000E+03</rscale>
<asrwt>0</asrwt>
<pdfrwt beam="1">  1       21 0.49359286E-01 0.12500000E+03</pdfrwt>
<pdfrwt beam="2">  1       21 0.18731150E-02 0.12500000E+03</pdfrwt>
<totfact> 0.52818159E+06</totfact>
</mgrwt>
</event>
<event>
 3    1  0.1594457E-001  0.1250000E+03  0.7546771E-02  0.1235069E+00
         21   -1    0    0  502  501  0.00000000000E+00  0.00000000000E+00  0.41131274420E+02  0.41131274420E+02  0.00000000000E+00 0. -1.
         21   -1    0    0  501  502 -0.00000000000E+00 -0.00000000000E+00 -0.94970312859E+02  0.94970312859E+02  0.00000000000E+00 0. -1.
         25    1    1    2    0    0  0.00000000000E+00  0.00000000000E+00 -0.53839038439E+02  0.13610158728E+03  0.12500000000E+03 0.  0.
<mgrwt>
<rscale>  0 0.12500000E+03</rscale>
<asrwt>0</asrwt>
<pdfrwt beam="1">  1       21 0.63278885E-02 0.12500000E+03</pdfrwt>
<pdfrwt beam="2">  1       21 0.14610817E-01 0.12500000E+03</pdfrwt>
<totfact> 0.72550942E+06</totfact>
</mgrwt>
</event>
<event>
 3    1  0.1594457E-001  0.1250000E+03  0.7546771E-02  0.1235069E+00
         21   -1    0    0  502  501  0.00000000000E+00  0.00000000000E+00  0.11565696831E+03  0.11565696831E+03  0.00000000000E+00 0. -1.
         21   -1    0    0  501  502 -0.00000000000E+00 -0.00000000000E+00 -0.33774445734E+02  0.33774445734E+02  0.00000000000E+00 0. -1.
         25    1    1    2    0    0  0.00000000000E+00  0.00000000000E+00  0.81882522576E+02  0.14943141404E+03  0.12500000000E+03 0.  0.
<mgrwt>
<rscale>  0 0.12500000E+03</rscale>
<asrwt>0</asrwt>
<pdfrwt beam="1">  1       21 0.17793380E-01 0.12500000E+03</pdfrwt>
<pdfrwt beam="2">  1       21 0.51960686E-02 0.12500000E+03</pdfrwt>
<totfact> 0.70830699E+06</totfact>
</mgrwt>
</event>
<event>
 3    1  0.1594457E-001  0.1250000E+03  0.7546771E-02  0.1235069E+00
         21   -1    0    0  502  501  0.00000000000E+00  0.00000000000E+00  0.61249404524E+01  0.61249404524E+01  0.00000000000E+00 0. -1.
         21   -1    0    0  501  502 -0.00000000000E+00 -0.00000000000E+00 -0.63776130240E+03  0.63776130240E+03  0.00000000000E+00 0. -1.
         25    1    1    2    0    0  0.00000000000E+00  0.00000000000E+00 -0.63163636194E+03  0.64388624285E+03  0.12500000000E+03 0.  0.
<mgrwt>
<rscale>  0 0.12500000E+03</rscale>
<asrwt>0</asrwt>
<pdfrwt beam="1">  1       21 0.94229890E-03 0.12500000E+03</pdfrwt>
<pdfrwt beam="2">  1       21 0.98117085E-01 0.12500000E+03</pdfrwt>
<totfact> 0.35180094E+06</totfact>
</mgrwt>
</event>
<event>
 3    1  0.1594457E-001  0.1250000E+03  0.7546771E-02  0.1235069E+00
         21   -1    0    0  502  501  0.00000000000E+00  0.00000000000E+00  0.50522975133E+02  0.50522975133E+02  0.00000000000E+00 0.  1.
         21   -1    0    0  501  502 -0.00000000000E+00 -0.00000000000E+00 -0.77316309852E+02  0.77316309852E+02  0.00000000000E+00 0.  1.
         25    1    1    2    0    0  0.00000000000E+00  0.00000000000E+00 -0.26793334719E+02  0.12783928498E+03  0.12500000000E+03 0.  0.
<mgrwt>
<rscale>  0 0.12500000E+03</rscale>
<asrwt>0</asrwt>
<pdfrwt beam="1">  1       21 0.77727655E-02 0.12500000E+03</pdfrwt>
<pdfrwt beam="2">  1       21 0.11894817E-01 0.12500000E+03</pdfrwt>
<totfact> 0.73655281E+06</totfact>
</mgrwt>
</event>
<event>
 3    1  0.1594457E-001  0.1250000E+03  0.7546771E-02  0.1235069E+00
         21   -1    0    0  502  501  0.00000000000E+00  0.00000000000E+00  0.16994426803E+02  0.16994426803E+02  0.00000000000E+00 0. -1.
         21   -1    0    0  501  502 -0.00000000000E+00 -0.00000000000E+00 -0.22985476623E+03  0.22985476623E+03  0.00000000000E+00 0. -1.
         25    1    1    2    0    0  0.00000000000E+00  0.00000000000E+00 -0.21286033943E+03  0.24684919303E+03  0.12500000000E+03 0.  0.
<mgrwt>
<rscale>  0 0.12500000E+03</rscale>
<asrwt>0</asrwt>
<pdfrwt beam="1">  1       21 0.26145274E-02 0.12500000E+03</pdfrwt>
<pdfrwt beam="2">  1       21 0.35362269E-01 0.12500000E+03</pdfrwt>
<totfact> 0.60176109E+06</totfact>
</mgrwt>
</event>
<event>
 3    1  0.1594457E-001  0.1250000E+03  0.7546771E-02  0.1235069E+00
         21   -1    0    0  502  501  0.00000000000E+00  0.00000000000E+00  0.59557316421E+01  0.59557316421E+01  0.00000000000E+00 0.  1.
         21   -1    0    0  501  502 -0.00000000000E+00 -0.00000000000E+00 -0.65588079429E+03  0.65588079429E+03  0.00000000000E+00 0.  1.
         25    1    1    2    0    0  0.00000000000E+00  0.00000000000E+00 -0.64992506265E+03  0.66183652593E+03  0.12500000000E+03 0.  0.
<mgrwt>
<rscale>  0 0.12500000E+03</rscale>
<asrwt>0</asrwt>
<pdfrwt beam="1">  1       21 0.91626680E-03 0.12500000E+03</pdfrwt>
<pdfrwt beam="2">  1       21 0.10090469E+00 0.12500000E+03</pdfrwt>
<totfact> 0.34433929E+06</totfact>
</mgrwt>
</event>
<event>
 3    1  0.1594457E-001  0.1250000E+03  0.7546771E-02  0.1235069E+00
         21   -1    0    0  502  501  0.00000000000E+00  0.00000000000E+00  0.24387505078E+01  0.24387505078E+01  0.00000000000E+00 0.  1.
         21   -1    0    0  501  502 -0.00000000000E+00 -0.00000000000E+00 -0.16017423626E+04  0.16017423626E+04  0.00000000000E+00 0.  1.
         25    1    1    2    0    0  0.00000000000E+00  0.00000000000E+00 -0.15993036121E+04  0.16041811131E+04  0.12500000000E+03 0.  0.
<mgrwt>
<rscale>  0 0.12500000E+03</rscale>
<asrwt>0</asrwt>
<pdfrwt beam="1">  1       21 0.37519195E-03 0.12500000E+03</pdfrwt>
<pdfrwt beam="2">  1       21 0.24642219E+00 0.12500000E+03</pdfrwt>
<totfact> 0.12517057E+06</totfact>
</mgrwt>
</event>
<event>
 3    1  0.1594457E-001  0.1250000E+03  0.7546771E-02  0.1235069E+00
         21   -1    0    0  502  501  0.00000000000E+00  0.00000000000E+00  0.11721152767E+03  0.11721152767E+03  0.00000000000E+00 0. -1.
         21   -1    0    0  501  502 -0.00000000000E+00 -0.00000000000E+00 -0.33326500198E+02  0.33326500198E+02  0.00000000000E+00 0. -1.
         25    1    1    2    0    0  0.00000000000E+00  0.00000000000E+00  0.83885027470E+02  0.15053802787E+03  0.12500000000E+03 0.  0.
<mgrwt>
<rscale>  0 0.12500000E+03</rscale>
<asrwt>0</asrwt>
<pdfrwt beam="1">  1       21 0.18032543E-01 0.12500000E+03</pdfrwt>
<pdfrwt beam="2">  1       21 0.51271539E-02 0.12500000E+03</pdfrwt>
<totfact> 0.70691680E+06</totfact>
</mgrwt>
</event>
<event>
 3    1  0.1594457E-001  0.1250000E+03  0.7546771E-02  0.1235069E+00
         21   -1    0    0  502  501  0.00000000000E+00  0.00000000000E+00  0.48457424580E+03  0.48457424580E+03  0.00000000000E+00 0.  1.
         21   -1    0    0  501  502 -0.00000000000E+00 -0.00000000000E+00 -0.80612001853E+01  0.80612001853E+01  0.00000000000E+00 0.  1.
         25    1    1    2    0    0  0.00000000000E+00  0.00000000000E+00  0.47651304561E+03  0.49263544598E+03  0.12500000000E+03 0.  0.
<mgrwt>
<rscale>  0 0.12500000E+03</rscale>
<asrwt>0</asrwt>
<pdfrwt beam="1">  1       21 0.74549861E-01 0.12500000E+03</pdfrwt>
<pdfrwt beam="2">  1       21 0.12401850E-02 0.12500000E+03</pdfrwt>
<totfact> 0.42446311E+06</totfact>
</mgrwt>
</event>
<event>
 3    1  0.1594457E-001  0.1250000E+03  0.7546771E-02  0.1235069E+00
         21   -1    0    0  502  501  0.00000000000E+00  0.00000000000E+00  0.31385982007E+01  0.31385982007E+01  0.00000000000E+00 0. -1.
         21   -1    0    0  501  502 -0.00000000000E+00 -0.00000000000E+00 -0.12445842858E+04  0.12445842858E+04  0.00000000000E+00 0. -1.
         25    1    1    2    0    0  0.00000000000E+00  0.00000000000E+00 -0.12414456876E+04  0.12477228840E+04  0.12500000000E+03 0.  0.
<mgrwt>
<rscale>  0 0.12500000E+03</rscale>
<asrwt>0</asrwt>
<pdfrwt beam="1">  1       21 0.48286145E-03 0.12500000E+03</pdfrwt>
<pdfrwt beam="2">  1       21 0.19147443E+00 0.12500000E+03</pdfrwt>
<totfact> 0.18217560E+06</totfact>
</mgrwt>
</event>
<event>
 3    1  0.1594457E-001  0.1250000E+03  0.7546771E-02  0.1235069E+00
         21   -1    0    0  502  501  0.00000000000E+00  0.00000000000E+00  0.14669307380E+02  0.14669307380E+02  0.00000000000E+00 0. -1.
         21   -1    0    0  501  502 -0.00000000000E+00 -0.00000000000E+00 -0.26628728261E+03  0.26628728261E+03  0.00000000000E+00 0. -1.
         25    1    1    2    0    0  0.00000000000E+00  0.00000000000E+00 -0.25161797523E+03  0.28095658999E+03  0.12500000000E+03 0.  0.
<mgrwt>
<rscale>  0 0.12500000E+03</rscale>
<asrwt>0</asrwt>
<pdfrwt beam="1">  1       21 0.22568168E-02 0.12500000E+03</pdfrwt>
<pdfrwt beam="2">  1       21 0.40967268E-01 0.12500000E+03</pdfrwt>
<totfact> 0.57076845E+06</totfact>
</mgrwt>
</event>
<event>
 3    1  0.1594457E-001  0.1250000E+03  0.7546771E-02  0.1235069E+00
         21   -1    0    0  502  501  0.00000000000E+00  0.00000000000E+00  0.39924013179E+02  0.39924013179E+02  0.00000000000E+00 0. -1.
         21   -1    0    0  501  502 -0.00000000000E+00 -0.00000000000E+00 -0.97842117787E+02  0.97842117787E+02  0.00000000000E+00 0. -1.
         25    1    1    2    0    0  0.00000000000E+00  0.00000000000E+00 -0.57918104607E+02  0.13776613097E+03  0.12500000000E+03 0.  0.
<mgrwt>
<rscale>  0 0.12500000E+03</rscale>
<asrwt>0</asrwt>
<pdfrwt beam="1">  1       21 0.61421559E-02 0.12500000E+03</pdfrwt>
<pdfrwt beam="2">  1       21 0.15052633E-01 0.12500000E+03</pdfrwt>
<totfact> 0.72332246E+06</totfact>
</mgrwt>
</event>
<event>
 3    1  0.1594457E-001  0.1250000E+03  0.7546771E-02  0.1235069E+00
         21   -1    0    0  502  501  0.00000000000E+00  0.00000000000E+00  0.12818021426E+02  0.12818021426E+02  0.00000000000E+00 0. -1.
         21   -1    0    0  501  502 -0.00000000000E+00 -0.00000000000E+00 -0.30474672106E+03  0.30474672106E+03  0.00000000000E+00 0. -1.
         25    1    1    2    0    0  0.00000000000E+00  0.00000000000E+00 -0.29192869964E+03  0.31756474249E+03  0.12500000000E+03 0.  0.
<mgrwt>
<rscale>  0 0.12500000E+03</rscale>
<asrwt>0</asrwt>
<pdfrwt beam="1">  1       21 0.19720032E-02 0.12500000E+03</pdfrwt>
<pdfrwt beam="2">  1       21 0.46884114E-01 0.12500000E+03</pdfrwt>
<totfact> 0.54026889E+06</totfact>
</mgrwt>
</event>
<event>
 3    1  0.1594457E-001  0.1250000E+03  0.7546771E-02  0.1235069E+00
         21   -1    0    0  502  501  0.00000000000E+00  0.00000000000E+00  0.15311926140E+02  0.15311926140E+02  0.00000000000E+00 0.  1.
         21   -1    0    0  501  502 -0.00000000000E+00 -0.00000000000E+00 -0.25511160152E+03  0.25511160152E+03  0.00000000000E+00 0.  1.
         25    1    1    2    0    0  0.00000000000E+00  0.00000000000E+00 -0.23979967538E+03  0.27042352766E+03  0.12500000000E+03 0.  0.
<mgrwt>
<rscale>  0 0.12500000E+03</rscale>
<asrwt>0</asrwt>
<pdfrwt beam="1">  1       21 0.23556810E-02 0.12500000E+03</pdfrwt>
<pdfrwt beam="2">  1       21 0.39247938E-01 0.12500000E+03</pdfrwt>
<totfact> 0.58006870E+06</totfact>
</mgrwt>
</event>
<event>
 3    1  0.1594457E-001  0.1250000E+03  0.7546771E-02  0.1235069E+00
         21   -1    0    0  502  501  0.00000000000E+00  0.00000000000E+00  0.18624005618E+02  0.18624005618E+02  0.00000000000E+00 0. -1.
         21   -1    0    0  501  502 -0.00000000000E+00 -0.00000000000E+00 -0.20974274171E+03  0.20974274171E+03  0.00000000000E+00 0. -1.
         25    1    1    2    0    0  0.00000000000E+00  0.00000000000E+00 -0.19111873609E+03  0.22836674733E+03  0.12500000000E+03 0.  0.
<mgrwt>
<rscale>  0 0.12500000E+03</rscale>
<asrwt>0</asrwt>
<pdfrwt beam="1">  1       21 0.28652319E-02 0.12500000E+03</pdfrwt>
<pdfrwt beam="2">  1       21 0.32268111E-01 0.12500000E+03</pdfrwt>
<totfact> 0.61976894E+06</totfact>
</mgrwt>
</event>
<event>
 3    1  0.1594457E-001  0.1250000E+03  0.7546771E-02  0.1235069E+00
         21   -1    0    0  502  501  0.00000000000E+00  0.00000000000E+00  0.45817896304E+01  0.45817896304E+01  0.00000000000E+00 0.  1.
         21   -1    0    0  501  502 -0.00000000000E+00 -0.00000000000E+00 -0.85255987619E+03  0.85255987619E+03  0.00000000000E+00 0.  1.
         25    1    1    2    0    0  0.00000000000E+00  0.00000000000E+00 -0.84797808656E+03  0.85714166582E+03  0.12500000000E+03 0.  0.
<mgrwt>
<rscale>  0 0.12500000E+03</rscale>
<asrwt>0</asrwt>
<pdfrwt beam="1">  1       21 0.70489146E-03 0.12500000E+03</pdfrwt>
<pdfrwt beam="2">  1       21 0.13116292E+00 0.12500000E+03</pdfrwt>
<totfact> 0.27554812E+06</totfact>
</mgrwt>
</event>
<event>
 3    1  0.1594457E-001  0.1250000E+03  0.7546771E-02  0.1235069E+00
         21   -1    0    0  502  501  0.00000000000E+00  0.00000000000E+00  0.18213355334E+04  0.18213355334E+04  0.00000000000E+00 0. -1.
         21   -1    0    0  501  502 -0.00000000000E+00 -0.00000000000E+00 -0.21447173946E+01  0.21447173946E+01  0.00000000000E+00 0. -1.
         25    1    1    2    0    0  0.00000000000E+00  0.00000000000E+00  0.18191908161E+04  0.18234802508E+04  0.12500000000E+03 0.  0.
<mgrwt>
<rscale>  0 0.12500000E+03</rscale>
<asrwt>0</asrwt>
<pdfrwt beam="1">  1       21 0.28020423E+00 0.12500000E+03</pdfrwt>
<pdfrwt beam="2">  1       21 0.32995798E-03 0.12500000E+03</pdfrwt>
<totfact> 0.98024510E+05</totfact>
</mgrwt>
</event>
<event>
 3    1  0.1594457E-001  0.1250000E+03  0.7546771E-02  0.1235069E+00
         21   -1    0    0  502  501  0.00000000000E+00  0.00000000000E+00  0.83117496048E+02  0.83117496048E+02  0.00000000000E+00 0.  1.
         21   -1    0    0  501  502 -0.00000000000E+00 -0.00000000000E+00 -0.46996723743E+02  0.46996723743E+02  0.00000000000E+00 0.  1.
         25    1    1    2    0    0  0.00000000000E+00  0.00000000000E+00  0.36120772305E+02  0.13011421979E+03  0.12500000000E+03 0.  0.
<mgrwt>
<rscale>  0 0.12500000E+03</rscale>
<asrwt>0</asrwt>
<pdfrwt beam="1">  1       21 0.12787307E-01 0.12500000E+03</pdfrwt>
<pdfrwt beam="2">  1       21 0.72302652E-02 0.12500000E+03</pdfrwt>
<totfact> 0.73349653E+06</totfact>
</mgrwt>
</event>
<event>
 3    1  0.1594457E-001  0.1250000E+03  0.7546771E-02  0.1235069E+00
         21   -1    0    0  502  501  0.00000000000E+00  0.00000000000E+00  0.27346194491E+02  0.27346194491E+02  0.00000000000E+00 0. -1.
         21   -1    0    0  501  502 -0.00000000000E+00 -0.00000000000E+00 -0.14284437278E+03  0.14284437278E+03  0.00000000000E+00 0. -1.
         25    1    1    2    0    0  0.00000000000E+00  0.00000000000E+00 -0.11549817829E+03  0.17019056727E+03  0.12500000000E+03 0.  0.
<mgrwt>
<rscale>  0 0.12500000E+03</rscale>
<asrwt>0</asrwt>
<pdfrwt beam="1">  1       21 0.42071069E-02 0.12500000E+03</pdfrwt>
<pdfrwt beam="2">  1       21 0.21976057E-01 0.12500000E+03</pdfrwt>
<totfact> 0.68295052E+06</totfact>
</mgrwt>
</event>
<event>
 3    1  0.1594457E-001  0.1250000E+03  0.7546771E-02  0.1235069E+00
         21   -1    0    0  502  501  0.00000000000E+00  0.00000000000E+00  0.49752564485E+02  0.49752564485E+02  0.00000000000E+00 0.  1.
         21   -1    0    0  501  502 -0.00000000000E+00 -0.00000000000E+00 -0.78513540768E+02  0.78513540768E+02  0.00000000000E+00 0.  1.
         25    1    1    2    0    0  0.00000000000E+00  0.00000000000E+00 -0.28760976283E+02  0.12826610525E+03  0.12500000000E+03 0.  0.
<mgrwt>
<rscale>  0 0.12500000E+03</rscale>
<asrwt>0</asrwt>
<pdfrwt beam="1">  1       21 0.76542407E-02 0.12500000E+03</pdfrwt>
<pdfrwt beam="2">  1       21 0.12079006E-01 0.12500000E+03</pdfrwt>
<totfact> 0.73597643E+06</totfact>
</mgrwt>
</event>
<event>
 3    1  0.1594457E-001  0.1250000E+03  0.7546771E-02  0.1235069E+00
         21   -1    0    0  502  501  0.00000000000E+00  0.00000000000E+00  0.81191495476E+01  0.81191495476E+01  0.00000000000E+00 0. -1.
         21   -1    0    0  501  502 -0.00000000000E+00 -0.00000000000E+00 -0.48111566083E+03  0.48111566083E+03  0.00000000000E+00 0. -1.
         25    1    1    2    0    0  0.00000000000E+00  0.00000000000E+00 -0.47299651129E+03  0.48923481038E+03  0.12500000000E+03 0.  0.
<mgrwt>
<rscale>  0 0.12500000E+03</rscale>
<asrwt>0</asrwt>
<pdfrwt beam="1">  1       21 0.12490996E-02 0.12500000E+03</pdfrwt>
<pdfrwt beam="2">  1       21 0.74017813E-01 0.12500000E+03</pdfrwt>
<totfact> 0.42633967E+06</totfact>
</mgrwt>
</event>
<event>
 3    1  0.1594457E-001  0.1250000E+03  0.7546771E-02  0.1235069E+00
         21   -1    0    0  502  501  0.00000000000E+00  0.00000000000E+00  0.63615833398E+02  0.63615833398E+02  0.00000000000E+00 0.  1.
         21   -1    0    0  501  502 -0.00000000000E+00 -0.00000000000E+00 -0.61403738525E+02  0.61403738525E+02  0.00000000000E+00 0.  1.
         25    1    1    2    0    0  0.00000000000E+00  0.00000000000E+00  0.22120948732E+01  0.12501957192E+03  0.12500000000E+03 0.  0.
<mgrwt>
<rscale>  0 0.12500000E+03</rscale>
<asrwt>0</asrwt>
<pdfrwt beam="1">  1       21 0.97870512E-02 0.12500000E+03</pdfrwt>
<pdfrwt beam="2">  1       21 0.94467291E-02 0.12500000E+03</pdfrwt>
<totfact> 0.74040938E+06</totfact>
</mgrwt>
</event>
<event>
 3    1  0.1594457E-001  0.1250000E+03  0.7546771E-02  0.1235069E+00
         21   -1    0    0  502  501  0.00000000000E+00  0.00000000000E+00  0.22412763305E+02  0.22412763305E+02  0.00000000000E+00 0. -1.
         21   -1    0    0  501  502 -0.00000000000E+00 -0.00000000000E+00 -0.17428685373E+03  0.17428685373E+03  0.00000000000E+00 0. -1.
         25    1    1    2    0    0  0.00000000000E+00  0.00000000000E+00 -0.15187409043E+03  0.19669961704E+03  0.12500000000E+03 0.  0.
<mgrwt>
<rscale>  0 0.12500000E+03</rscale>
<asrwt>0</asrwt>
<pdfrwt beam="1">  1       21 0.34481176E-02 0.12500000E+03</pdfrwt>
<pdfrwt beam="2">  1       21 0.26813361E-01 0.12500000E+03</pdfrwt>
<totfact> 0.65285484E+06</totfact>
</mgrwt>
</event>
<event>
 3    1  0.1594457E-001  0.1250000E+03  0.7546771E-02  0.1235069E+00
         21   -1    0    0  502  501  0.00000000000E+00  0.00000000000E+00  0.58091399794E+02  0.58091399794E+02  0.00000000000E+00 0. -1.
         21   -1    0    0  501  502 -0.00000000000E+00 -0.00000000000E+00 -0.67243172205E+02  0.67243172205E+02  0.00000000000E+00 0. -1.
         25    1    1    2    0    0  0.00000000000E+00  0.00000000000E+00 -0.91517724111E+01  0.12533457200E+03  0.12500000000E+03 0.  0.
<mgrwt>
<rscale>  0 0.12500000E+03</rscale>
<asrwt>0</asrwt>
<pdfrwt beam="1">  1       21 0.89371384E-02 0.12500000E+03</pdfrwt>
<pdfrwt beam="2">  1       21 0.10345103E-01 0.12500000E+03</pdfrwt>
<totfact> 0.73998405E+06</totfact>
</mgrwt>
</event>
<event>
 3    1  0.1594457E-001  0.1250000E+03  0.7546771E-02  0.1235069E+00
         21   -1    0    0  502  501  0.00000000000E+00  0.00000000000E+00  0.31448250322E+02  0.31448250322E+02  0.00000000000E+00 0. -1.
         21   -1    0    0  501  502 -0.00000000000E+00 -0.00000000000E+00 -0.12421199781E+03  0.12421199781E+03  0.00000000000E+00 0. -1.
         25    1    1    2    0    0  0.00000000000E+00  0.00000000000E+00 -0.92763747486E+02  0.15566024813E+03  0.12500000000E+03 0.  0.
<mgrwt>
<rscale>  0 0.12500000E+03</rscale>
<asrwt>0</asrwt>
<pdfrwt beam="1">  1       21 0.48381924E-02 0.12500000E+03</pdfrwt>
<pdfrwt beam="2">  1       21 0.19109538E-01 0.12500000E+03</pdfrwt>
<totfact> 0.70053691E+06</totfact>
</mgrwt>
</event>
<event>
 3    1  0.1594457E-001  0.1250000E+03  0.7546771E-02  0.1235069E+00
         21   -1    0    0  502  501  0.00000000000E+00  0.00000000000E+00  0.43562925078E+03  0.43562925078E+03  0.00000000000E+00 0. -1.
         21   -1    0    0  501  502 -0.00000000000E+00 -0.00000000000E+00 -0.89669139367E+01  0.89669139367E+01  0.00000000000E+00 0. -1.
         25    1    1    2    0    0  0.00000000000E+00  0.00000000000E+00  0.42666233684E+03  0.44459616471E+03  0.12500000000E+03 0.  0.
<mgrwt>
<rscale>  0 0.12500000E+03</rscale>
<asrwt>0</asrwt>
<pdfrwt beam="1">  1       21 0.67019868E-01 0.12500000E+03</pdfrwt>
<pdfrwt beam="2">  1       21 0.13795256E-02 0.12500000E+03</pdfrwt>
<totfact> 0.45217403E+06</totfact>
</mgrwt>
</event>
<event>
 3    1  0.1594457E-001  0.1250000E+03  0.7546771E-02  0.1235069E+00
         21   -1    0    0  502  501  0.00000000000E+00  0.00000000000E+00  0.99225572829E+03  0.99225572829E+03  0.00000000000E+00 0. -1.
         21   -1    0    0  501  502 -0.00000000000E+00 -0.00000000000E+00 -0.39367371623E+01  0.39367371623E+01  0.00000000000E+00 0. -1.
         25    1    1    2    0    0  0.00000000000E+00  0.00000000000E+00  0.98831899112E+03  0.99619246545E+03  0.12500000000E+03 0.  0.
<mgrwt>
<rscale>  0 0.12500000E+03</rscale>
<asrwt>0</asrwt>
<pdfrwt beam="1">  1       21 0.15265453E+00 0.12500000E+03</pdfrwt>
<pdfrwt beam="2">  1       21 0.60565266E-03 0.12500000E+03</pdfrwt>
<totfact> 0.23714065E+06</totfact>
</mgrwt>
</event>
<event>
 3    1  0.1594457E-001  0.1250000E+03  0.7546771E-02  0.1235069E+00
         21   -1    0    0  502  501  0.00000000000E+00  0.00000000000E+00  0.41947165147E+01  0.41947165147E+01  0.00000000000E+00 0.  1.
         21   -1    0    0  501  502 -0.00000000000E+00 -0.00000000000E+00 -0.93123098697E+03  0.93123098697E+03  0.00000000000E+00 0.  1.
         25    1    1    2    0    0  0.00000000000E+00  0.00000000000E+00 -0.92703627045E+03  0.93542570348E+03  0.12500000000E+03 0.  0.
<mgrwt>
<rscale>  0 0.12500000E+03</rscale>
<asrwt>0</asrwt>
<pdfrwt beam="1">  1       21 0.64534082E-03 0.12500000E+03</pdfrwt>
<pdfrwt beam="2">  1       21 0.14326635E+00 0.12500000E+03</pdfrwt>
<totfact> 0.25305710E+06</totfact>
</mgrwt>
</event>
<event>
 3    1  0.1594457E-001  0.1250000E+03  0.7546771E-02  0.1235069E+00
         21   -1    0    0  502  501  0.00000000000E+00  0.00000000000E+00  0.38989501334E+03  0.38989501334E+03  0.00000000000E+00 0.  1.
         21   -1    0    0  501  502 -0.00000000000E+00 -0.00000000000E+00 -0.10018722647E+02  0.10018722647E+02  0.00000000000E+00 0.  1.
         25    1    1    2    0    0  0.00000000000E+00  0.00000000000E+00  0.37987629069E+03  0.39991373599E+03  0.12500000000E+03 0.  0.
<mgrwt>
<rscale>  0 0.12500000E+03</rscale>
<asrwt>0</asrwt>
<pdfrwt beam="1">  1       21 0.59983837E-01 0.12500000E+03</pdfrwt>
<pdfrwt beam="2">  1       21 0.15413422E-02 0.12500000E+03</pdfrwt>
<totfact> 0.48047078E+06</totfact>
</mgrwt>
</event>
<event>
 3    1  0.1594457E-001  0.1250000E+03  0.7546771E-02  0.1235069E+00
         21   -1    0    0  502  501  0.00000000000E+00  0.00000000000E+00  0.35953908767E+02  0.35953908767E+02  0.00000000000E+00 0.  1.
         21   -1    0    0  501  502 -0.00000000000E+00 -0.00000000000E+00 -0.10864604528E+03  0.10864604528E+03  0.00000000000E+00 0.  1.
         25    1    1    2    0    0  0.00000000000E+00  0.00000000000E+00 -0.72692136515E+02  0.14459995405E+03  0.12500000000E+03 0.  0.
<mgrwt>
<rscale>  0 0.12500000E+03</rscale>
<asrwt>0</asrwt>
<pdfrwt beam="1">  1       21 0.55313705E-02 0.12500000E+03</pdfrwt>
<pdfrwt beam="2">  1       21 0.16714776E-01 0.12500000E+03</pdfrwt>
<totfact> 0.71444334E+06</totfact>
</mgrwt>
</event>
<event>
 3    1  0.1594457E-001  0.1250000E+03  0.7546771E-02  0.1235069E+00
         21   -1    0    0  502  501  0.00000000000E+00  0.00000000000E+00  0.37504705536E+02  0.37504705536E+02  0.00000000000E+00 0. -1.
         21   -1    0    0  501  502 -0.00000000000E+00 -0.00000000000E+00 -0.10415359737E+03  0.10415359737E+03  0.00000000000E+00 0. -1.
         25    1    1    2    0    0  0.00000000000E+00  0.00000000000E+00 -0.66648891837E+02  0.14165830291E+03  0.12500000000E+03 0.  0.
<mgrwt>
<rscale>  0 0.12500000E+03</rscale>
<asrwt>0</asrwt>
<pdfrwt beam="1">  1       21 0.57699547E-02 0.12500000E+03</pdfrwt>
<pdfrwt beam="2">  1       21 0.16023630E-01 0.12500000E+03</pdfrwt>
<totfact> 0.71823553E+06</totfact>
</mgrwt>
</event>
<event>
 3    1  0.1594457E-001  0.1250000E+03  0.7546771E-02  0.1235069E+00
         21   -1    0    0  502  501  0.00000000000E+00  0.00000000000E+00  0.27307982015E+03  0.27307982015E+03  0.00000000000E+00 0. -1.
         21   -1    0    0  501  502 -0.00000000000E+00 -0.00000000000E+00 -0.14304425709E+02  0.14304425709E+02  0.00000000000E+00 0. -1.
         25    1    1    2    0    0  0.00000000000E+00  0.00000000000E+00  0.25877539444E+03  0.28738424586E+03  0.12500000000E+03 0.  0.
<mgrwt>
<rscale>  0 0.12500000E+03</rscale>
<asrwt>0</asrwt>
<pdfrwt beam="1">  1       21 0.42012276E-01 0.12500000E+03</pdfrwt>
<pdfrwt beam="2">  1       21 0.22006811E-02 0.12500000E+03</pdfrwt>
<totfact> 0.56521165E+06</totfact>
</mgrwt>
</event>
<event>
 3    1  0.1594457E-001  0.1250000E+03  0.7546771E-02  0.1235069E+00
         21   -1    0    0  502  501  0.00000000000E+00  0.00000000000E+00  0.57253689873E+02  0.57253689873E+02  0.00000000000E+00 0.  1.
         21   -1    0    0  501  502 -0.00000000000E+00 -0.00000000000E+00 -0.68227043683E+02  0.68227043683E+02  0.00000000000E+00 0.  1.
         25    1    1    2    0    0  0.00000000000E+00  0.00000000000E+00 -0.10973353809E+02  0.12548073356E+03  0.12500000000E+03 0.  0.
<mgrwt>
<rscale>  0 0.12500000E+03</rscale>
<asrwt>0</asrwt>
<pdfrwt beam="1">  1       21 0.88082600E-02 0.12500000E+03</pdfrwt>
<pdfrwt beam="2">  1       21 0.10496468E-01 0.12500000E+03</pdfrwt>
<totfact> 0.73978091E+06</totfact>
</mgrwt>
</event>
<event>
 3    1  0.1594457E-001  0.1250000E+03  0.7546771E-02  0.1235069E+00
         21   -1    0    0  502  501  0.00000000000E+00  0.00000000000E+00  0.43251947522E+02  0.43251947522E+02  0.00000000000E+00 0. -1.
         21   -1    0    0  501  502 -0.00000000000E+00 -0.00000000000E+00 -0.90313852296E+02  0.90313852296E+02  0.00000000000E+00 0. -1.
         25    1    1    2    0    0  0.00000000000E+00  0.00000000000E+00 -0.47061904775E+02  0.13356579982E+03  0.12500000000E+03 0.  0.
<mgrwt>
<rscale>  0 0.12500000E+03</rscale>
<asrwt>0</asrwt>
<pdfrwt beam="1">  1       21 0.66541459E-02 0.12500000E+03</pdfrwt>
<pdfrwt beam="2">  1       21 0.13894439E-01 0.12500000E+03</pdfrwt>
<totfact> 0.72886938E+06</totfact>
</mgrwt>
</event>
<event>
 3    1  0.1594457E-001  0.1250000E+03  0.7546771E-02  0.1235069E+00
         21   -1    0    0  502  501  0.00000000000E+00  0.00000000000E+00  0.22967008628E+03  0.22967008628E+03  0.00000000000E+00 0.  1.
         21   -1    0    0  501  502 -0.00000000000E+00 -0.00000000000E+00 -0.17008092187E+02  0.17008092187E+02  0.00000000000E+00 0.  1.
         25    1    1    2    0    0  0.00000000000E+00  0.00000000000E+00  0.21266199409E+03  0.24667817847E+03  0.12500000000E+03 0.  0.
<mgrwt>
<rscale>  0 0.12500000E+03</rscale>
<asrwt>0</asrwt>
<pdfrwt beam="1">  1       21 0.35333857E-01 0.12500000E+03</pdfrwt>
<pdfrwt beam="2">  1       21 0.26166297E-02 0.12500000E+03</pdfrwt>
<totfact> 0.60192352E+06</totfact>
</mgrwt>
</event>
<event>
 3    1  0.1594457E-001  0.1250000E+03  0.7546771E-02  0.1235069E+00
         21   -1    0    0  502  501  0.00000000000E+00  0.00000000000E+00  0.39576377829E+03  0.39576377829E+03  0.00000000000E+00 0. -1.
         21   -1    0    0  501  502 -0.00000000000E+00 -0.00000000000E+00 -0.98701554167E+01  0.98701554167E+01  0.00000000000E+00 0. -1.
         25    1    1    2    0    0  0.00000000000E+00  0.00000000000E+00  0.38589362287E+03  0.40563393370E+03  0.12500000000E+03 0.  0.
<mgrwt>
<rscale>  0 0.12500000E+03</rscale>
<asrwt>0</asrwt>
<pdfrwt beam="1">  1       21 0.60886723E-01 0.12500000E+03</pdfrwt>
<pdfrwt beam="2">  1       21 0.15184858E-02 0.12500000E+03</pdfrwt>
<totfact> 0.47669895E+06</totfact>
</mgrwt>
</event>
<event>
 3    1  0.1594457E-001  0.1250000E+03  0.7546771E-02  0.1235069E+00
         21   -1    0    0  502  501  0.00000000000E+00  0.00000000000E+00  0.26441736494E+02  0.26441736494E+02  0.00000000000E+00 0. -1.
         21   -1    0    0  501  502 -0.00000000000E+00 -0.00000000000E+00 -0.14773046396E+03  0.14773046396E+03  0.00000000000E+00 0. -1.
         25    1    1    2    0    0  0.00000000000E+00  0.00000000000E+00 -0.12128872746E+03  0.17417220045E+03  0.12500000000E+03 0.  0.
<mgrwt>
<rscale>  0 0.12500000E+03</rscale>
<asrwt>0</asrwt>
<pdfrwt beam="1">  1       21 0.40679594E-02 0.12500000E+03</pdfrwt>
<pdfrwt beam="2">  1       21 0.22727764E-01 0.12500000E+03</pdfrwt>
<totfact> 0.67826454E+06</totfact>
</mgrwt>
</event>
<event>
 3    1  0.1594457E-001  0.1250000E+03  0.7546771E-02  0.1235069E+00
         21   -1    0    0  502  501  0.00000000000E+00  0.00000000000E+00  0.21516967474E+03  0.21516967474E+03  0.00000000000E+00 0. -1.
         21   -1    0    0  501  502 -0.00000000000E+00 -0.00000000000E+00 -0.18154277570E+02  0.18154277570E+02  0.00000000000E+00 0. -1.
         25    1    1    2    0    0  0.00000000000E+00  0.00000000000E+00  0.19701539717E+03  0.23332395231E+03  0.12500000000E+03 0.  0.
<mgrwt>
<rscale>  0 0.12500000E+03</rscale>
<asrwt>0</asrwt>
<pdfrwt beam="1">  1       21 0.33103025E-01 0.12500000E+03</pdfrwt>
<pdfrwt beam="2">  1       21 0.27929659E-02 0.12500000E+03</pdfrwt>
<totfact> 0.61484736E+06</totfact>
</mgrwt>
</event>
<event>
 3    1  0.1594457E-001  0.1250000E+03  0.7546771E-02  0.1235069E+00
         21   -1    0    0  502  501  0.00000000000E+00  0.00000000000E+00  0.38193488280E+02  0.38193488280E+02  0.00000000000E+00 0.  1.
         21   -1    0    0  501  502 -0.00000000000E+00 -0.00000000000E+00 -0.10227528765E+03  0.10227528765E+03  0.00000000000E+00 0.  1.
         25    1    1    2    0    0  0.00000000000E+00  0.00000000000E+00 -0.64081799365E+02  0.14046877592E+03  0.12500000000E+03 0.  0.
<mgrwt>
<rscale>  0 0.12500000E+03</rscale>
<asrwt>0</asrwt>
<pdfrwt beam="1">  1       21 0.58759214E-02 0.12500000E+03</pdfrwt>
<pdfrwt beam="2">  1       21 0.15734659E-01 0.12500000E+03</pdfrwt>
<totfact> 0.71978170E+06</totfact>
</mgrwt>
</event>
<event>
 3    1  0.1594457E-001  0.1250000E+03  0.7546771E-02  0.1235069E+00
         21   -1    0    0  502  501  0.00000000000E+00  0.00000000000E+00  0.30703892479E+02  0.30703892479E+02  0.00000000000E+00 0.  1.
         21   -1    0    0  501  502 -0.00000000000E+00 -0.00000000000E+00 -0.12722328293E+03  0.12722328293E+03  0.00000000000E+00 0.  1.
         25    1    1    2    0    0  0.00000000000E+00  0.00000000000E+00 -0.96519390456E+02  0.15792717541E+03  0.12500000000E+03 0.  0.
<mgrwt>
<rscale>  0 0.12500000E+03</rscale>
<asrwt>0</asrwt>
<pdfrwt beam="1">  1       21 0.47236758E-02 0.12500000E+03</pdfrwt>
<pdfrwt beam="2">  1       21 0.19572813E-01 0.12500000E+03</pdfrwt>
<totfact> 0.69773664E+06</totfact>
</mgrwt>
</event>
<event>
 3    1  0.1594457E-001  0.1250000E+03  0.7546771E-02  0.1235069E+00
         21   -1    0    0  502  501  0.00000000000E+00  0.00000000000E+00  0.11040072153E+02  0.11040072153E+02  0.00000000000E+00 0. -1.
         21   -1    0    0  501  502 -0.00000000000E+00 -0.00000000000E+00 -0.35382468029E+03  0.35382468029E+03  0.00000000000E+00 0. -1.
         25    1    1    2    0    0  0.00000000000E+00  0.00000000000E+00 -0.34278460814E+03  0.36486475245E+03  0.12500000000E+03 0.  0.
<mgrwt>
<rscale>  0 0.12500000E+03</rscale>
<asrwt>0</asrwt>
<pdfrwt beam="1">  1       21 0.16984726E-02 0.12500000E+03</pdfrwt>
<pdfrwt beam="2">  1       21 0.54434569E-01 0.12500000E+03</pdfrwt>
<totfact> 0.50459016E+06</totfact>
</mgrwt>
</event>
<event>
 3    1  0.1594457E-001  0.1250000E+03  0.7546771E-02  0.1235069E+00
         21   -1    0    0  502  501  0.00000000000E+00  0.00000000000E+00  0.98918915471E+01  0.98918915471E+01  0.00000000000E+00 0. -1.
         21   -1    0    0  501  502 -0.00000000000E+00 -0.00000000000E+00 -0.39489413945E+03  0.39489413945E+03  0.00000000000E+00 0. -1.
         25    1    1    2    0    0  0.00000000000E+00  0.00000000000E+00 -0.38500224790E+03  0.40478603100E+03  0.12500000000E+03 0.  0.
<mgrwt>
<rscale>  0 0.12500000E+03</rscale>
<asrwt>0</asrwt>
<pdfrwt beam="1">  1       21 0.15218295E-02 0.12500000E+03</pdfrwt>
<pdfrwt beam="2">  1       21 0.60752942E-01 0.12500000E+03</pdfrwt>
<totfact> 0.47725511E+06</totfact>
</mgrwt>
</event>
<event>
 3    1  0.1594457E-001  0.1250000E+03  0.7546771E-02  0.1235069E+00
         21   -1    0    0  502  501  0.00000000000E+00  0.00000000000E+00  0.11441522370E+03  0.11441522370E+03  0.00000000000E+00 0. -1.
         21   -1    0    0  501  502 -0.00000000000E+00 -0.00000000000E+00 -0.34140998670E+02  0.34140998670E+02  0.00000000000E+00 0. -1.
         25    1    1    2    0    0  0.00000000000E+00  0.00000000000E+00  0.80274225026E+02  0.14855622237E+03  0.12500000000E+03 0.  0.
<mgrwt>
<rscale>  0 0.12500000E+03</rscale>
<asrwt>0</asrwt>
<pdfrwt beam="1">  1       21 0.17602342E-01 0.12500000E+03</pdfrwt>
<pdfrwt beam="2">  1       21 0.52524614E-02 0.12500000E+03</pdfrwt>
<totfact> 0.70941040E+06</totfact>
</mgrwt>
</event>
<event>
 3    1  0.1594457E-001  0.1250000E+03  0.7546771E-02  0.1235069E+00
         21   -1    0    0  502  501  0.00000000000E+00  0.00000000000E+00  0.78986556629E+01  0.78986556629E+01  0.00000000000E+00 0.  1.
         21   -1    0    0  501  502 -0.00000000000E+00 -0.00000000000E+00 -0.49454618187E+03  0.49454618187E+03  0.00000000000E+00 0.  1.
         25    1    1    2    0    0  0.00000000000E+00  0.00000000000E+00 -0.48664752621E+03  0.50244483753E+03  0.12500000000E+03 0.  0.
<mgrwt>
<rscale>  0 0.12500000E+03</rscale>
<asrwt>0</asrwt>
<pdfrwt beam="1">  1       21 0.12151778E-02 0.12500000E+03</pdfrwt>
<pdfrwt beam="2">  1       21 0.76084029E-01 0.12500000E+03</pdfrwt>
<totfact> 0.41911791E+06</totfact>
</mgrwt>
</event>
<event>
 3    1  0.1594457E-001  0.1250000E+03  0.7546771E-02  0.1235069E+00
         21   -1    0    0  502  501  0.00000000000E+00  0.00000000000E+00  0.18872131994E+03  0.18872131994E+03  0.00000000000E+00 0. -1.
         21   -1    0    0  501  502 -0.00000000000E+00 -0.00000000000E+00 -0.20698509322E+02  0.20698509322E+02  0.00000000000E+00 0. -1.
         25    1    1    2    0    0  0.00000000000E+00  0.00000000000E+00  0.16802281062E+03  0.20941982926E+03  0.12500000000E+03 0.  0.
<mgrwt>
<rscale>  0 0.12500000E+03</rscale>
<asrwt>0</asrwt>
<pdfrwt beam="1">  1       21 0.29034048E-01 0.12500000E+03</pdfrwt>
<pdfrwt beam="2">  1       21 0.31843862E-02 0.12500000E+03</pdfrwt>
<totfact> 0.63920628E+06</totfact>
</mgrwt>
</event>
<event>
 3    1  0.1594457E-001  0.1250000E+03  0.7546771E-02  0.1235069E+00
         21   -1    0    0  502  501  0.00000000000E+00  0.00000000000E+00  0.49996357677E+02  0.49996357677E+02  0.00000000000E+00 0.  1.
         21   -1    0    0  501  502 -0.00000000000E+00 -0.00000000000E+00 -0.78130691544E+02  0.78130691544E+02  0.00000000000E+00 0.  1.
         25    1    1    2    0    0  0.00000000000E+00  0.00000000000E+00 -0.28134333867E+02  0.12812704922E+03  0.12500000000E+03 0.  0.
<mgrwt>
<rscale>  0 0.12500000E+03</rscale>
<asrwt>0</asrwt>
<pdfrwt beam="1">  1       21 0.76917473E-02 0.12500000E+03</pdfrwt>
<pdfrwt beam="2">  1       21 0.12020106E-01 0.12500000E+03</pdfrwt>
<totfact> 0.73616404E+06</totfact>
</mgrwt>
</event>
<event>
 3    1  0.1594457E-001  0.1250000E+03  0.7546771E-02  0.1235069E+00
         21   -1    0    0  502  501  0.00000000000E+00  0.00000000000E+00  0.12009045119E+04  0.12009045119E+04  0.00000000000E+00 0. -1.
         21   -1    0    0  501  502 -0.00000000000E+00 -0.00000000000E+00 -0.32527565360E+01  0.32527565360E+01  0.00000000000E+00 0. -1.
         25    1    1    2    0    0  0.00000000000E+00  0.00000000000E+00  0.11976517553E+04  0.12041572684E+04  0.12500000000E+03 0.  0.
<mgrwt>
<rscale>  0 0.12500000E+03</rscale>
<asrwt>0</asrwt>
<pdfrwt beam="1">  1       21 0.18475419E+00 0.12500000E+03</pdfrwt>
<pdfrwt beam="2">  1       21 0.50042504E-03 0.12500000E+03</pdfrwt>
<totfact> 0.19060759E+06</totfact>
</mgrwt>
</event>
<event>
 3    1  0.1594457E-001  0.1250000E+03  0.7546771E-02  0.1235069E+00
         21   -1    0    0  502  501  0.00000000000E+00  0.00000000000E+00  0.30952534950E+02  0.30952534950E+02  0.00000000000E+00 0. -1.
         21   -1    0    0  501  502 -0.00000000000E+00 -0.00000000000E+00 -0.12620129519E+03  0.12620129519E+03  0.00000000000E+00 0. -1.
         25    1    1    2    0    0  0.00000000000E+00  0.00000000000E+00 -0.95248760236E+02  0.15715383014E+03  0.12500000000E+03 0.  0.
<mgrwt>
<rscale>  0 0.12500000E+03</rscale>
<asrwt>0</asrwt>
<pdfrwt beam="1">  1       21 0.47619285E-02 0.12500000E+03</pdfrwt>
<pdfrwt beam="2">  1       21 0.19415584E-01 0.12500000E+03</pdfrwt>
<totfact> 0.69868950E+06</totfact>
</mgrwt>
</event>
<event>
 3    1  0.1594457E-001  0.1250000E+03  0.7546771E-02  0.1235069E+00
         21   -1    0    0  502  501  0.00000000000E+00  0.00000000000E+00  0.16086401876E+03  0.16086401876E+03  0.00000000000E+00 0.  1.
         21   -1    0    0  501  502 -0.00000000000E+00 -0.00000000000E+00 -0.24282931822E+02  0.24282931822E+02  0.00000000000E+00 0.  1.
         25    1    1    2    0    0  0.00000000000E+00  0.00000000000E+00  0.13658108693E+03  0.18514695058E+03  0.12500000000E+03 0.  0.
<mgrwt>
<rscale>  0 0.12500000E+03</rscale>
<asrwt>0</asrwt>
<pdfrwt beam="1">  1       21 0.24748310E-01 0.12500000E+03</pdfrwt>
<pdfrwt beam="2">  1       21 0.37358358E-02 0.12500000E+03</pdfrwt>
<totfact> 0.66565944E+06</totfact>
</mgrwt>
</event>
<event>
 3    1  0.1594457E-001  0.1250000E+03  0.7546771E-02  0.1235069E+00
         21   -1    0    0  502  501  0.00000000000E+00  0.00000000000E+00  0.21871641943E+02  0.21871641943E+02  0.00000000000E+00 0.  1.
         21   -1    0    0  501  502 -0.00000000000E+00 -0.00000000000E+00 -0.17859884549E+03  0.17859884549E+03  0.00000000000E+00 0.  1.
         25    1    1    2    0    0  0.00000000000E+00  0.00000000000E+00 -0.15672720355E+03  0.20047048743E+03  0.12500000000E+03 0.  0.
<mgrwt>
<rscale>  0 0.12500000E+03</rscale>
<asrwt>0</asrwt>
<pdfrwt beam="1">  1       21 0.33648679E-02 0.12500000E+03</pdfrwt>
<pdfrwt beam="2">  1       21 0.27476746E-01 0.12500000E+03</pdfrwt>
<totfact> 0.64876307E+06</totfact>
</mgrwt>
</event>
<event>
 3    1  0.1594457E-001  0.1250000E+03  0.7546771E-02  0.1235069E+00
         21   -1    0    0  502  501  0.00000000000E+00  0.00000000000E+00  0.29311330048E+02  0.29311330048E+02  0.00000000000E+00 0.  1.
         21   -1    0    0  501  502 -0.00000000000E+00 -0.00000000000E+00 -0.13326757925E+03  0.13326757925E+03  0.00000000000E+00 0.  1.
         25    1    1    2    0    0  0.00000000000E+00  0.00000000000E+00 -0.10395624920E+03  0.16257890930E+03  0.12500000000E+03 0.  0.
<mgrwt>
<rscale>  0 0.12500000E+03</rscale>
<asrwt>0</asrwt>
<pdfrwt beam="1">  1       21 0.45094353E-02 0.12500000E+03</pdfrwt>
<pdfrwt beam="2">  1       21 0.20502705E-01 0.12500000E+03</pdfrwt>
<totfact> 0.69205746E+06</totfact>
</mgrwt>
</event>
<event>
 3    1  0.1594457E-001  0.1250000E+03  0.7546771E-02  0.1235069E+00
         21   -1    0    0  502  501  0.00000000000E+00  0.00000000000E+00  0.99148795242E+02  0.99148795242E+02  0.00000000000E+00 0. -1.
         21   -1    0    0  501  502 -0.00000000000E+00 -0.00000000000E+00 -0.39397856428E+02  0.39397856428E+02  0.00000000000E+00 0. -1.
         25    1    1    2    0    0  0.00000000000E+00  0.00000000000E+00  0.59750938814E+02  0.13854665167E+03  0.12500000000E+03 0.  0.
<mgrwt>
<rscale>  0 0.12500000E+03</rscale>
<asrwt>0</asrwt>
<pdfrwt beam="1">  1       21 0.15253661E-01 0.12500000E+03</pdfrwt>
<pdfrwt beam="2">  1       21 0.60612087E-02 0.12500000E+03</pdfrwt>
<totfact> 0.72229612E+06</totfact>
</mgrwt>
</event>
<event>
 3    1  0.1594457E-001  0.1250000E+03  0.7546771E-02  0.1235069E+00
         21   -1    0    0  502  501  0.00000000000E+00  0.00000000000E+00  0.19363082643E+03  0.19363082643E+03  0.00000000000E+00 0.  1.
         21   -1    0    0  501  502 -0.00000000000E+00 -0.00000000000E+00 -0.20173698951E+02  0.20173698951E+02  0.00000000000E+00 0.  1.
         25    1    1    2    0    0  0.00000000000E+00  0.00000000000E+00  0.17345712748E+03  0.21380452538E+03  0.12500000000E+03 0.  0.
<mgrwt>
<rscale>  0 0.12500000E+03</rscale>
<asrwt>0</asrwt>
<pdfrwt beam="1">  1       21 0.29789357E-01 0.12500000E+03</pdfrwt>
<pdfrwt beam="2">  1       21 0.31036461E-02 0.12500000E+03</pdfrwt>
<totfact> 0.63461467E+06</totfact>
</mgrwt>
</event>
<event>
 3    1  0.1594457E-001  0.1250000E+03  0.7546771E-02  0.1235069E+00
         21   -1    0    0  502  501  0.00000000000E+00  0.00000000000E+00  0.38356689618E+03  0.38356689618E+03  0.00000000000E+00 0. -1.
         21   -1    0    0  501  502 -0.00000000000E+00 -0.00000000000E+00 -0.10184012330E+02  0.10184012330E+02  0.00000000000E+00 0. -1.
         25    1    1    2    0    0  0.00000000000E+00  0.00000000000E+00  0.37338288385E+03  0.39375090851E+03  0.12500000000E+03 0.  0.
<mgrwt>
<rscale>  0 0.12500000E+03</rscale>
<asrwt>0</asrwt>
<pdfrwt beam="1">  1       21 0.59010281E-01 0.12500000E+03</pdfrwt>
<pdfrwt beam="2">  1       21 0.15667714E-02 0.12500000E+03</pdfrwt>
<totfact> 0.48458631E+06</totfact>
</mgrwt>
</event>
<event>
 3    1  0.1594457E-001  0.1250000E+03  0.7546771E-02  0.1235069E+00
         21   -1    0    0  502  501  0.00000000000E+00  0.00000000000E+00  0.11942573284E+02  0.11942573284E+02  0.00000000000E+00 0. -1.
         21   -1    0    0  501  502 -0.00000000000E+00 -0.00000000000E+00 -0.32708612349E+03  0.32708612349E+03  0.00000000000E+00 0. -1.
         25    1    1    2    0    0  0.00000000000E+00  0.00000000000E+00 -0.31514355020E+03  0.33902869677E+03  0.12500000000E+03 0.  0.
<mgrwt>
<rscale>  0 0.12500000E+03</rscale>
<asrwt>0</asrwt>
<pdfrwt beam="1">  1       21 0.18373188E-02 0.12500000E+03</pdfrwt>
<pdfrwt beam="2">  1       21 0.50320946E-01 0.12500000E+03</pdfrwt>
<totfact> 0.52359041E+06</totfact>
</mgrwt>
</event>
<event>
 3    1  0.1594457E-001  0.1250000E+03  0.7546771E-02  0.1235069E+00
         21   -1    0    0  502  501  0.00000000000E+00  0.00000000000E+00  0.23582246429E+03  0.23582246429E+03  0.00000000000E+00 0. -1.
         21   -1    0    0  501  502 -0.00000000000E+00 -0.00000000000E+00 -0.16564367656E+02  0.16564367656E+02  0.00000000000E+00 0. -1.
         25    1    1    2    0    0  0.00000000000E+00  0.00000000000E+00  0.21925809664E+03  0.25238683195E+03  0.12500000000E+03 0.  0.
<mgrwt>
<rscale>  0 0.12500000E+03</rscale>
<asrwt>0</asrwt>
<pdfrwt beam="1">  1       21 0.36280377E-01 0.12500000E+03</pdfrwt>
<pdfrwt beam="2">  1       21 0.25483644E-02 0.12500000E+03</pdfrwt>
<totfact> 0.59654199E+06</totfact>
</mgrwt>
</event>
<event>
 3    1  0.1594457E-001  0.1250000E+03  0.7546771E-02  0.1235069E+00
         21   -1    0    0  502  501  0.00000000000E+00  0.00000000000E+00  0.70960920454E+03  0.70960920454E+03  0.00000000000E+00 0. -1.
         21   -1    0    0  501  502 -0.00000000000E+00 -0.00000000000E+00 -0.55047904889E+01  0.55047904889E+01  0.00000000000E+00 0. -1.
         25    1    1    2    0    0  0.00000000000E+00  0.00000000000E+00  0.70410441405E+03  0.71511399503E+03  0.12500000000E+03 0.  0.
<mgrwt>
<rscale>  0 0.12500000E+03</rscale>
<asrwt>0</asrwt>
<pdfrwt beam="1">  1       21 0.10917057E+00 0.12500000E+03</pdfrwt>
<pdfrwt beam="2">  1       21 0.84689140E-03 0.12500000E+03</pdfrwt>
<totfact> 0.32335549E+06</totfact>
</mgrwt>
</event>
<event>
 3    1  0.1594457E-001  0.1250000E+03  0.7546771E-02  0.1235069E+00
         21   -1    0    0  502  501  0.00000000000E+00  0.00000000000E+00  0.12889761340E+02  0.12889761340E+02  0.00000000000E+00 0. -1.
         21   -1    0    0  501  502 -0.00000000000E+00 -0.00000000000E+00 -0.30305060714E+03  0.30305060714E+03  0.00000000000E+00 0. -1.
         25    1    1    2    0    0  0.00000000000E+00  0.00000000000E+00 -0.29016084580E+03  0.31594036848E+03  0.12500000000E+03 0.  0.
<mgrwt>
<rscale>  0 0.12500000E+03</rscale>
<asrwt>0</asrwt>
<pdfrwt beam="1">  1       21 0.19830402E-02 0.12500000E+03</pdfrwt>
<pdfrwt beam="2">  1       21 0.46623171E-01 0.12500000E+03</pdfrwt>
<totfact> 0.54156623E+06</totfact>
</mgrwt>
</event>
<event>
 3    1  0.1594457E-001  0.1250000E+03  0.7546771E-02  0.1235069E+00
         21   -1    0    0  502  501  0.00000000000E+00  0.00000000000E+00  0.47094284778E+03  0.47094284778E+03  0.00000000000E+00 0.  1.
         21   -1    0    0  501  502 -0.00000000000E+00 -0.00000000000E+00 -0.82945308936E+01  0.82945308936E+01  0.00000000000E+00 0.  1.
         25    1    1    2    0    0  0.00000000000E+00  0.00000000000E+00  0.46264831688E+03  0.47923737867E+03  0.12500000000E+03 0.  0.
<mgrwt>
<rscale>  0 0.12500000E+03</rscale>
<asrwt>0</asrwt>
<pdfrwt beam="1">  1       21 0.72452725E-01 0.12500000E+03</pdfrwt>
<pdfrwt beam="2">  1       21 0.12760820E-02 0.12500000E+03</pdfrwt>
<totfact> 0.43192937E+06</totfact>
</mgrwt>
</event>
<event>
 3    1  0.1594457E-001  0.1250000E+03  0.7546771E-02  0.1235069E+00
         21   -1    0    0  502  501  0.00000000000E+00  0.00000000000E+00  0.14561329565E+02  0.14561329565E+02  0.00000000000E+00 0. -1.
         21   -1    0    0  501  502 -0.00000000000E+00 -0.00000000000E+00 -0.26826190442E+03  0.26826190442E+03  0.00000000000E+00 0. -1.
         25    1    1    2    0    0  0.00000000000E+00  0.00000000000E+00 -0.25370057486E+03  0.28282323399E+03  0.12500000000E+03 0.  0.
<mgrwt>
<rscale>  0 0.12500000E+03</rscale>
<asrwt>0</asrwt>
<pdfrwt beam="1">  1       21 0.22402046E-02 0.12500000E+03</pdfrwt>
<pdfrwt beam="2">  1       21 0.41271061E-01 0.12500000E+03</pdfrwt>
<totfact> 0.56914539E+06</totfact>
</mgrwt>
</event>
<event>
 3    1  0.1594457E-001  0.1250000E+03  0.7546771E-02  0.1235069E+00
         21   -1    0    0  502  501  0.00000000000E+00  0.00000000000E+00  0.33405060330E+02  0.33405060330E+02  0.00000000000E+00 0. -1.
         21   -1    0    0  501  502 -0.00000000000E+00 -0.00000000000E+00 -0.11693587622E+03  0.11693587622E+03  0.00000000000E+00 0. -1.
         25    1    1    2    0    0  0.00000000000E+00  0.00000000000E+00 -0.83530815894E+02  0.15034093655E+03  0.12500000000E+03 0.  0.
<mgrwt>
<rscale>  0 0.12500000E+03</rscale>
<asrwt>0</asrwt>
<pdfrwt beam="1">  1       21 0.51392400E-02 0.12500000E+03</pdfrwt>
<pdfrwt beam="2">  1       21 0.17990135E-01 0.12500000E+03</pdfrwt>
<totfact> 0.70716399E+06</totfact>
</mgrwt>
</event>
<event>
 3    1  0.1594457E-001  0.1250000E+03  0.7546771E-02  0.1235069E+00
         21   -1    0    0  502  501  0.00000000000E+00  0.00000000000E+00  0.22872588923E+03  0.22872588923E+03  0.00000000000E+00 0.  1.
         21   -1    0    0  501  502 -0.00000000000E+00 -0.00000000000E+00 -0.17078302824E+02  0.17078302824E+02  0.00000000000E+00 0.  1.
         25    1    1    2    0    0  0.00000000000E+00  0.00000000000E+00  0.21164758641E+03  0.24580419206E+03  0.12500000000E+03 0.  0.
<mgrwt>
<rscale>  0 0.12500000E+03</rscale>
<asrwt>0</asrwt>
<pdfrwt beam="1">  1       21 0.35188596E-01 0.12500000E+03</pdfrwt>
<pdfrwt beam="2">  1       21 0.26274314E-02 0.12500000E+03</pdfrwt>
<totfact> 0.60275484E+06</totfact>
</mgrwt>
</event>
<event>
 3    1  0.1594457E-001  0.1250000E+03  0.7546771E-02  0.1235069E+00
         21   -1    0    0  502  501  0.00000000000E+00  0.00000000000E+00  0.19147682377E+02  0.19147682377E+02  0.00000000000E+00 0. -1.
         21   -1    0    0  501  502 -0.00000000000E+00 -0.00000000000E+00 -0.20400641305E+03  0.20400641305E+03  0.00000000000E+00 0. -1.
         25    1    1    2    0    0  0.00000000000E+00  0.00000000000E+00 -0.18485873067E+03  0.22315409543E+03  0.12500000000E+03 0.  0.
<mgrwt>
<rscale>  0 0.12500000E+03</rscale>
<asrwt>0</asrwt>
<pdfrwt beam="1">  1       21 0.29457973E-02 0.12500000E+03</pdfrwt>
<pdfrwt beam="2">  1       21 0.31385602E-01 0.12500000E+03</pdfrwt>
<totfact> 0.62501592E+06</totfact>
</mgrwt>
</event>
<event>
 3    1  0.1594457E-001  0.1250000E+03  0.7546771E-02  0.1235069E+00
         21   -1    0    0  502  501  0.00000000000E+00  0.00000000000E+00  0.72837020743E+01  0.72837020743E+01  0.00000000000E+00 0. -1.
         21   -1    0    0  501  502 -0.00000000000E+00 -0.00000000000E+00 -0.53630007929E+03  0.53630007929E+03  0.00000000000E+00 0. -1.
         25    1    1    2    0    0  0.00000000000E+00  0.00000000000E+00 -0.52901637722E+03  0.54358378136E+03  0.12500000000E+03 0.  0.
<mgrwt>
<rscale>  0 0.12500000E+03</rscale>
<asrwt>0</asrwt>
<pdfrwt beam="1">  1       21 0.11205692E-02 0.12500000E+03</pdfrwt>
<pdfrwt beam="2">  1       21 0.82507732E-01 0.12500000E+03</pdfrwt>
<totfact> 0.39774936E+06</totfact>
</mgrwt>
</event>
<event>
 3    1  0.1594457E-001  0.1250000E+03  0.7546771E-02  0.1235069E+00
         21   -1    0    0  502  501  0.00000000000E+00  0.00000000000E+00  0.94340130998E+02  0.94340130998E+02  0.00000000000E+00 0. -1.
         21   -1    0    0  501  502 -0.00000000000E+00 -0.00000000000E+00 -0.41406026880E+02  0.41406026880E+02  0.00000000000E+00 0. -1.
         25    1    1    2    0    0  0.00000000000E+00  0.00000000000E+00  0.52934104118E+02  0.13574615788E+03  0.12500000000E+03 0.  0.
<mgrwt>
<rscale>  0 0.12500000E+03</rscale>
<asrwt>0</asrwt>
<pdfrwt beam="1">  1       21 0.14513866E-01 0.12500000E+03</pdfrwt>
<pdfrwt beam="2">  1       21 0.63701580E-02 0.12500000E+03</pdfrwt>
<totfact> 0.72597826E+06</totfact>
</mgrwt>
</event>
<event>
 3    1  0.1594457E-001  0.1250000E+03  0.7546771E-02  0.1235069E+00
         21   -1    0    0  502  501  0.00000000000E+00  0.00000000000E+00  0.14121435691E+03  0.14121435691E+03  0.00000000000E+00 0.  1.
         21   -1    0    0  501  502 -0.00000000000E+00 -0.00000000000E+00 -0.27661847461E+02  0.27661847461E+02  0.00000000000E+00 0.  1.
         25    1    1    2    0    0  0.00000000000E+00  0.00000000000E+00  0.11355250945E+03  0.16887620437E+03  0.12500000000E+03 0.  0.
<mgrwt>
<rscale>  0 0.12500000E+03</rscale>
<asrwt>0</asrwt>
<pdfrwt beam="1">  1       21 0.21725285E-01 0.12500000E+03</pdfrwt>
<pdfrwt beam="2">  1       21 0.42556689E-02 0.12500000E+03</pdfrwt>
<totfact> 0.68450856E+06</totfact>
</mgrwt>
</event>
<event>
 3    1  0.1594457E-001  0.1250000E+03  0.7546771E-02  0.1235069E+00
         21   -1    0    0  502  501  0.00000000000E+00  0.00000000000E+00  0.60121821256E+03  0.60121821256E+03  0.00000000000E+00 0.  1.
         21   -1    0    0  501  502 -0.00000000000E+00 -0.00000000000E+00 -0.64972249982E+01  0.64972249982E+01  0.00000000000E+00 0.  1.
         25    1    1    2    0    0  0.00000000000E+00  0.00000000000E+00  0.59472098756E+03  0.60771543756E+03  0.12500000000E+03 0.  0.
<mgrwt>
<rscale>  0 0.12500000E+03</rscale>
<asrwt>0</asrwt>
<pdfrwt beam="1">  1       21 0.92495066E-01 0.12500000E+03</pdfrwt>
<pdfrwt beam="2">  1       21 0.99957355E-03 0.12500000E+03</pdfrwt>
<totfact> 0.36746031E+06</totfact>
</mgrwt>
</event>
<event>
 3    1  0.1594457E-001  0.1250000E+03  0.7546771E-02  0.1235069E+00
         21   -1    0    0  502  501  0.00000000000E+00  0.00000000000E+00  0.59303292071E+03  0.59303292071E+03  0.00000000000E+00 0.  1.
         21   -1    0    0  501  502 -0.00000000000E+00 -0.00000000000E+00 -0.65869024528E+01  0.65869024528E+01  0.00000000000E+00 0.  1.
         25    1    1    2    0    0  0.00000000000E+00  0.00000000000E+00  0.58644601826E+03  0.59961982316E+03  0.12500000000E+03 0.  0.
<mgrwt>
<rscale>  0 0.12500000E+03</rscale>
<asrwt>0</asrwt>
<pdfrwt beam="1">  1       21 0.91235792E-01 0.12500000E+03</pdfrwt>
<pdfrwt beam="2">  1       21 0.10133701E-02 0.12500000E+03</pdfrwt>
<totfact> 0.37109842E+06</totfact>
</mgrwt>
</event>
<event>
 3    1  0.1594457E-001  0.1250000E+03  0.7546771E-02  0.1235069E+00
         21   -1    0    0  502  501  0.00000000000E+00  0.00000000000E+00  0.94441386332E+03  0.94441386332E+03  0.00000000000E+00 0. -1.
         21   -1    0    0  501  502 -0.00000000000E+00 -0.00000000000E+00 -0.41361633408E+01  0.41361633408E+01  0.00000000000E+00 0. -1.
         25    1    1    2    0    0  0.00000000000E+00  0.00000000000E+00  0.94027769998E+03  0.94855002666E+03  0.12500000000E+03 0.  0.
<mgrwt>
<rscale>  0 0.12500000E+03</rscale>
<asrwt>0</asrwt>
<pdfrwt beam="1">  1       21 0.14529427E+00 0.12500000E+03</pdfrwt>
<pdfrwt beam="2">  1       21 0.63633358E-03 0.12500000E+03</pdfrwt>
<totfact> 0.24950295E+06</totfact>
</mgrwt>
</event>
<event>
 3    1  0.1594457E-001  0.1250000E+03  0.7546771E-02  0.1235069E+00
         21   -1    0    0  502  501  0.00000000000E+00  0.00000000000E+00  0.97792589501E+03  0.97792589501E+03  0.00000000000E+00 0.  1.
         21   -1    0    0  501  502 -0.00000000000E+00 -0.00000000000E+00 -0.39944233197E+01  0.39944233197E+01  0.00000000000E+00 0.  1.
         25    1    1    2    0    0  0.00000000000E+00  0.00000000000E+00  0.97393147169E+03  0.98192031833E+03  0.12500000000E+03 0.  0.
<mgrwt>
<rscale>  0 0.12500000E+03</rscale>
<asrwt>0</asrwt>
<pdfrwt beam="1">  1       21 0.15044995E+00 0.12500000E+03</pdfrwt>
<pdfrwt beam="2">  1       21 0.61452744E-03 0.12500000E+03</pdfrwt>
<totfact> 0.24075841E+06</totfact>
</mgrwt>
</event>
<event>
 3    1  0.1594457E-001  0.1250000E+03  0.7546771E-02  0.1235069E+00
         21   -1    0    0  502  501  0.00000000000E+00  0.00000000000E+00  0.31185081709E+03  0.31185081709E+03  0.00000000000E+00 0. -1.
         21   -1    0    0  501  502 -0.00000000000E+00 -0.00000000000E+00 -0.12526021373E+02  0.12526021373E+02  0.00000000000E+00 0. -1.
         25    1    1    2    0    0  0.00000000000E+00  0.00000000000E+00  0.29932479572E+03  0.32437683847E+03  0.12500000000E+03 0.  0.
<mgrwt>
<rscale>  0 0.12500000E+03</rscale>
<asrwt>0</asrwt>
<pdfrwt beam="1">  1       21 0.47977043E-01 0.12500000E+03</pdfrwt>
<pdfrwt beam="2">  1       21 0.19270804E-02 0.12500000E+03</pdfrwt>
<totfact> 0.53488316E+06</totfact>
</mgrwt>
</event>
<event>
 3    1  0.1594457E-001  0.1250000E+03  0.7546771E-02  0.1235069E+00
         21   -1    0    0  502  501  0.00000000000E+00  0.00000000000E+00  0.10708083343E+04  0.10708083343E+04  0.00000000000E+00 0. -1.
         21   -1    0    0  501  502 -0.00000000000E+00 -0.00000000000E+00 -0.36479450850E+01  0.36479450850E+01  0.00000000000E+00 0. -1.
         25    1    1    2    0    0  0.00000000000E+00  0.00000000000E+00  0.10671603892E+04  0.10744562794E+04  0.12500000000E+03 0.  0.
<mgrwt>
<rscale>  0 0.12500000E+03</rscale>
<asrwt>0</asrwt>
<pdfrwt beam="1">  1       21 0.16473949E+00 0.12500000E+03</pdfrwt>
<pdfrwt beam="2">  1       21 0.56122317E-03 0.12500000E+03</pdfrwt>
<totfact> 0.21828663E+06</totfact>
</mgrwt>
</event>
<event>
 3    1  0.1594457E-001  0.1250000E+03  0.7546771E-02  0.1235069E+00
         21   -1    0    0  502  501  0.00000000000E+00  0.00000000000E+00  0.16527218596E+03  0.16527218596E+03  0.00000000000E+00 0.  1.
         21   -1    0    0  501  502 -0.00000000000E+00 -0.00000000000E+00 -0.23635253430E+02  0.23635253430E+02  0.00000000000E+00 0.  1.
         25    1    1    2    0    0  0.00000000000E+00  0.00000000000E+00  0.14163693253E+03  0.18890743939E+03  0.12500000000E+03 0.  0.
<mgrwt>
<rscale>  0 0.12500000E+03</rscale>
<asrwt>0</asrwt>
<pdfrwt beam="1">  1       21 0.25426489E-01 0.12500000E+03</pdfrwt>
<pdfrwt beam="2">  1       21 0.36361929E-02 0.12500000E+03</pdfrwt>
<totfact> 0.66144098E+06</totfact>
</mgrwt>
</event>
<event>
 3    1  0.1594457E-001  0.1250000E+03  0.7546771E-02  0.1235069E+00
         21   -1    0    0  502  501  0.00000000000E+00  0.00000000000E+00  0.21638689694E+03  0.21638689694E+03  0.00000000000E+00 0. -1.
         21   -1    0    0  501  502 -0.00000000000E+00 -0.00000000000E+00 -0.18052155908E+02  0.18052155908E+02  0.00000000000E+00 0. -1.
         25    1    1    2    0    0  0.00000000000E+00  0.00000000000E+00  0.19833474103E+03  0.23443905284E+03  0.12500000000E+03 0.  0.
<mgrwt>
<rscale>  0 0.12500000E+03</rscale>
<asrwt>0</asrwt>
<pdfrwt beam="1">  1       21 0.33290290E-01 0.12500000E+03</pdfrwt>
<pdfrwt beam="2">  1       21 0.27772549E-02 0.12500000E+03</pdfrwt>
<totfact> 0.61374972E+06</totfact>
</mgrwt>
</event>
<event>
 3    1  0.1594457E-001  0.1250000E+03  0.7546771E-02  0.1235069E+00
         21   -1    0    0  502  501  0.00000000000E+00  0.00000000000E+00  0.36688688382E+02  0.36688688382E+02  0.00000000000E+00 0.  1.
         21   -1    0    0  501  502 -0.00000000000E+00 -0.00000000000E+00 -0.10647014577E+03  0.10647014577E+03  0.00000000000E+00 0.  1.
         25    1    1    2    0    0  0.00000000000E+00  0.00000000000E+00 -0.69781457385E+02  0.14315883415E+03  0.12500000000E+03 0.  0.
<mgrwt>
<rscale>  0 0.12500000E+03</rscale>
<asrwt>0</asrwt>
<pdfrwt beam="1">  1       21 0.56444136E-02 0.12500000E+03</pdfrwt>
<pdfrwt beam="2">  1       21 0.16380022E-01 0.12500000E+03</pdfrwt>
<totfact> 0.71629564E+06</totfact>
</mgrwt>
</event>
<event>
 3    1  0.1594457E-001  0.1250000E+03  0.7546771E-02  0.1235069E+00
         21   -1    0    0  502  501  0.00000000000E+00  0.00000000000E+00  0.38475165843E+02  0.38475165843E+02  0.00000000000E+00 0. -1.
         21   -1    0    0  501  502 -0.00000000000E+00 -0.00000000000E+00 -0.10152652794E+03  0.10152652794E+03  0.00000000000E+00 0. -1.
         25    1    1    2    0    0  0.00000000000E+00  0.00000000000E+00 -0.63051362098E+02  0.14000169378E+03  0.12500000000E+03 0.  0.
<mgrwt>
<rscale>  0 0.12500000E+03</rscale>
<asrwt>0</asrwt>
<pdfrwt beam="1">  1       21 0.59192564E-02 0.12500000E+03</pdfrwt>
<pdfrwt beam="2">  1       21 0.15619466E-01 0.12500000E+03</pdfrwt>
<totfact> 0.72039087E+06</totfact>
</mgrwt>
</event>
<event>
 3    1  0.1594457E-001  0.1250000E+03  0.7546771E-02  0.1235069E+00
         21   -1    0    0  502  501  0.00000000000E+00  0.00000000000E+00  0.50807444121E+01  0.50807444121E+01  0.00000000000E+00 0.  1.
         21   -1    0    0  501  502 -0.00000000000E+00 -0.00000000000E+00 -0.76883418711E+03  0.76883418711E+03  0.00000000000E+00 0.  1.
         25    1    1    2    0    0  0.00000000000E+00  0.00000000000E+00 -0.76375344270E+03  0.77391493152E+03  0.12500000000E+03 0.  0.
<mgrwt>
<rscale>  0 0.12500000E+03</rscale>
<asrwt>0</asrwt>
<pdfrwt beam="1">  1       21 0.78165296E-03 0.12500000E+03</pdfrwt>
<pdfrwt beam="2">  1       21 0.11828219E+00 0.12500000E+03</pdfrwt>
<totfact> 0.30245000E+06</totfact>
</mgrwt>
</event>
<event>
 3    1  0.1594457E-001  0.1250000E+03  0.7546771E-02  0.1235069E+00
         21   -1    0    0  502  501  0.00000000000E+00  0.00000000000E+00  0.24985147038E+02  0.24985147038E+02  0.00000000000E+00 0.  1.
         21   -1    0    0  501  502 -0.00000000000E+00 -0.00000000000E+00 -0.15634288620E+03  0.15634288620E+03  0.00000000000E+00 0.  1.
         25    1    1    2    0    0  0.00000000000E+00  0.00000000000E+00 -0.13135773916E+03  0.18132803324E+03  0.12500000000E+03 0.  0.
<mgrwt>
<rscale>  0 0.12500000E+03</rscale>
<asrwt>0</asrwt>
<pdfrwt beam="1">  1       21 0.38438688E-02 0.12500000E+03</pdfrwt>
<pdfrwt beam="2">  1       21 0.24052752E-01 0.12500000E+03</pdfrwt>
<totfact> 0.66999514E+06</totfact>
</mgrwt>
</event>
<event>
 3    1  0.1594457E-001  0.1250000E+03  0.7546771E-02  0.1235069E+00
         21   -1    0    0  502  501  0.00000000000E+00  0.00000000000E+00  0.10088022165E+04  0.10088022165E+04  0.00000000000E+00 0. -1.
         21   -1    0    0  501  502 -0.00000000000E+00 -0.00000000000E+00 -0.38721663534E+01  0.38721663534E+01  0.00000000000E+00 0. -1.
         25    1    1    2    0    0  0.00000000000E+00  0.00000000000E+00  0.10049300502E+04  0.10126743829E+04  0.12500000000E+03 0.  0.
<mgrwt>
<rscale>  0 0.12500000E+03</rscale>
<asrwt>0</asrwt>
<pdfrwt beam="1">  1       21 0.15520013E+00 0.12500000E+03</pdfrwt>
<pdfrwt beam="2">  1       21 0.59571870E-03 0.12500000E+03</pdfrwt>
<totfact> 0.23304614E+06</totfact>
</mgrwt>
</event>
<event>
 3    1  0.1594457E-001  0.1250000E+03  0.7546771E-02  0.1235069E+00
         21   -1    0    0  502  501  0.00000000000E+00  0.00000000000E+00  0.14892421205E+03  0.14892421205E+03  0.00000000000E+00 0.  1.
         21   -1    0    0  501  502 -0.00000000000E+00 -0.00000000000E+00 -0.26229784575E+02  0.26229784575E+02  0.00000000000E+00 0.  1.
         25    1    1    2    0    0  0.00000000000E+00  0.00000000000E+00  0.12269442747E+03  0.17515399662E+03  0.12500000000E+03 0.  0.
<mgrwt>
<rscale>  0 0.12500000E+03</rscale>
<asrwt>0</asrwt>
<pdfrwt beam="1">  1       21 0.22911417E-01 0.12500000E+03</pdfrwt>
<pdfrwt beam="2">  1       21 0.40353516E-02 0.12500000E+03</pdfrwt>
<totfact> 0.67711850E+06</totfact>
</mgrwt>
</event>
<event>
 3    1  0.1594457E-001  0.1250000E+03  0.7546771E-02  0.1235069E+00
         21   -1    0    0  502  501  0.00000000000E+00  0.00000000000E+00  0.49240428080E+03  0.49240428080E+03  0.00000000000E+00 0. -1.
         21   -1    0    0  501  502 -0.00000000000E+00 -0.00000000000E+00 -0.79330138918E+01  0.79330138918E+01  0.00000000000E+00 0. -1.
         25    1    1    2    0    0  0.00000000000E+00  0.00000000000E+00  0.48447126691E+03  0.50033729469E+03  0.12500000000E+03 0.  0.
<mgrwt>
<rscale>  0 0.12500000E+03</rscale>
<asrwt>0</asrwt>
<pdfrwt beam="1">  1       21 0.75754481E-01 0.12500000E+03</pdfrwt>
<pdfrwt beam="2">  1       21 0.12204641E-02 0.12500000E+03</pdfrwt>
<totfact> 0.42025792E+06</totfact>
</mgrwt>
</event>
<event>
 3    1  0.1594457E-001  0.1250000E+03  0.7546771E-02  0.1235069E+00
         21   -1    0    0  502  501  0.00000000000E+00  0.00000000000E+00  0.13635415496E+03  0.13635415496E+03  0.00000000000E+00 0. -1.
         21   -1    0    0  501  502 -0.00000000000E+00 -0.00000000000E+00 -0.28647825225E+02  0.28647825225E+02  0.00000000000E+00 0. -1.
         25    1    1    2    0    0  0.00000000000E+00  0.00000000000E+00  0.10770632974E+03  0.16500198019E+03  0.12500000000E+03 0.  0.
<mgrwt>
<rscale>  0 0.12500000E+03</rscale>
<asrwt>0</asrwt>
<pdfrwt beam="1">  1       21 0.20977562E-01 0.12500000E+03</pdfrwt>
<pdfrwt beam="2">  1       21 0.44073578E-02 0.12500000E+03</pdfrwt>
<totfact> 0.68913415E+06</totfact>
</mgrwt>
</event>
<event>
 3    1  0.1594457E-001  0.1250000E+03  0.7546771E-02  0.1235069E+00
         21   -1    0    0  502  501  0.00000000000E+00  0.00000000000E+00  0.13419048376E+03  0.13419048376E+03  0.00000000000E+00 0. -1.
         21   -1    0    0  501  502 -0.00000000000E+00 -0.00000000000E+00 -0.29109739309E+02  0.29109739309E+02  0.00000000000E+00 0. -1.
         25    1    1    2    0    0  0.00000000000E+00  0.00000000000E+00  0.10508074445E+03  0.16330022307E+03  0.12500000000E+03 0.  0.
<mgrwt>
<rscale>  0 0.12500000E+03</rscale>
<asrwt>0</asrwt>
<pdfrwt beam="1">  1       21 0.20644689E-01 0.12500000E+03</pdfrwt>
<pdfrwt beam="2">  1       21 0.44784215E-02 0.12500000E+03</pdfrwt>
<totfact> 0.69118476E+06</totfact>
</mgrwt>
</event>
<event>
 3    1  0.1594457E-001  0.1250000E+03  0.7546771E-02  0.1235069E+00
         21   -1    0    0  502  501  0.00000000000E+00  0.00000000000E+00  0.73201451642E+02  0.73201451642E+02  0.00000000000E+00 0.  1.
         21   -1    0    0  501  502 -0.00000000000E+00 -0.00000000000E+00 -0.53363012787E+02  0.53363012787E+02  0.00000000000E+00 0.  1.
         25    1    1    2    0    0  0.00000000000E+00  0.00000000000E+00  0.19838438854E+02  0.12656446443E+03  0.12500000000E+03 0.  0.
<mgrwt>
<rscale>  0 0.12500000E+03</rscale>
<asrwt>0</asrwt>
<pdfrwt beam="1">  1       21 0.11261762E-01 0.12500000E+03</pdfrwt>
<pdfrwt beam="2">  1       21 0.82096943E-02 0.12500000E+03</pdfrwt>
<totfact> 0.73828554E+06</totfact>
</mgrwt>
</event>
<event>
 3    1  0.1594457E-001  0.1250000E+03  0.7546771E-02  0.1235069E+00
         21   -1    0    0  502  501  0.00000000000E+00  0.00000000000E+00  0.22716098854E+03  0.22716098854E+03  0.00000000000E+00 0.  1.
         21   -1    0    0  501  502 -0.00000000000E+00 -0.00000000000E+00 -0.17195954398E+02  0.17195954398E+02  0.00000000000E+00 0.  1.
         25    1    1    2    0    0  0.00000000000E+00  0.00000000000E+00  0.20996503414E+03  0.24435694294E+03  0.12500000000E+03 0.  0.
<mgrwt>
<rscale>  0 0.12500000E+03</rscale>
<asrwt>0</asrwt>
<pdfrwt beam="1">  1       21 0.34947842E-01 0.12500000E+03</pdfrwt>
<pdfrwt beam="2">  1       21 0.26455316E-02 0.12500000E+03</pdfrwt>
<totfact> 0.60413582E+06</totfact>
</mgrwt>
</event>
<event>
 3    1  0.1594457E-001  0.1250000E+03  0.7546771E-02  0.1235069E+00
         21   -1    0    0  502  501  0.00000000000E+00  0.00000000000E+00  0.31809309199E+02  0.31809309199E+02  0.00000000000E+00 0.  1.
         21   -1    0    0  501  502 -0.00000000000E+00 -0.00000000000E+00 -0.12280210097E+03  0.12280210097E+03  0.00000000000E+00 0.  1.
         25    1    1    2    0    0  0.00000000000E+00  0.00000000000E+00 -0.90992791770E+02  0.15461141017E+03  0.12500000000E+03 0.  0.
<mgrwt>
<rscale>  0 0.12500000E+03</rscale>
<asrwt>0</asrwt>
<pdfrwt beam="1">  1       21 0.48937399E-02 0.12500000E+03</pdfrwt>
<pdfrwt beam="2">  1       21 0.18892631E-01 0.12500000E+03</pdfrwt>
<totfact> 0.70183988E+06</totfact>
</mgrwt>
</event>
