<event>
 6    1  0.8739326E-004  0.5308329E+03  0.7818608E-02  0.1006046E+00
         21   -1    0    0  501  502  0.00000000000E+00  0.00000000000E+00  0.52522569602E+03  0.52522569602E+03  0.00000000000E+00 0. -1.
         21   -1    0    0  502  503 -0.00000000000E+00 -0.00000000000E+00 -0.68431363395E+03  0.68431363395E+03  0.00000000000E+00 0.  1.
    9000007    2    1    2  501    0 -0.20489317713E+03 -0.28249317134E+03  0.20178792280E+03  0.56765538973E+03  0.39966319547E+03 0.  0.
    9000005    1    3    3    0    0  0.58783978334E+02 -0.25182914015E+03  0.55238096345E+02  0.26443471636E+03  0.99999687468E+00 0.  0.
          4    1    3    3  501    0 -0.26367715547E+03 -0.30664031192E+02  0.14654982645E+03  0.30322067337E+03  0.00000000000E+00 0.  1.
   -9000007    1    1    2    0  503  0.20489317713E+03  0.28249317134E+03 -0.36087586072E+03  0.64188394024E+03  0.40000000000E+03 0. -1.
<mgrwt>
<rscale>  2 0.53076949E+03</rscale>
<asrwt>0</asrwt>
<pdfrwt beam="1">  1       21 0.80803953E-01 0.53083294E+03</pdfrwt>
<pdfrwt beam="2">  1       21 0.10527902E+00 0.53083294E+03</pdfrwt>
<totfact> 0.80065925E+02</totfact>
</mgrwt>
</event>
<event>
 6    1  0.8739326E-004  0.5787147E+03  0.7818608E-02  0.9950911E-01
         21   -1    0    0  501  502  0.00000000000E+00  0.00000000000E+00  0.78921182855E+03  0.78921182855E+03  0.00000000000E+00 0.  1.
         21   -1    0    0  502  503 -0.00000000000E+00 -0.00000000000E+00 -0.65925157213E+03  0.65925157213E+03  0.00000000000E+00 0. -1.
    9000007    2    1    2  501    0 -0.26883158646E+03  0.31926594483E+03  0.49771534595E+03  0.76330285652E+03  0.40088591865E+03 0.  0.
    9000005    1    3    3    0    0 -0.65532895851E+02 -0.91654511556E+02  0.15147212195E+03  0.18878536397E+03  0.99999687468E+00 0.  0.
          4    1    3    3  501    0 -0.20329869061E+03  0.41092045639E+03  0.34624322400E+03  0.57451749255E+03  0.00000000000E+00 0.  1.
   -9000007    1    1    2    0  503  0.26883158646E+03 -0.31926594483E+03 -0.36775508952E+03  0.68516054416E+03  0.40000000000E+03 0. -1.
<mgrwt>
<rscale>  2 0.57856129E+03</rscale>
<asrwt>0</asrwt>
<pdfrwt beam="1">  1       21 0.12141720E+00 0.57871468E+03</pdfrwt>
<pdfrwt beam="2">  1       21 0.10142332E+00 0.57871468E+03</pdfrwt>
<totfact> 0.31975354E+02</totfact>
</mgrwt>
</event>
<event>
 6    1  0.8739326E-004  0.5194897E+03  0.7818608E-02  0.1008994E+00
         21   -1    0    0  501  502  0.00000000000E+00  0.00000000000E+00  0.23579624936E+03  0.23579624936E+03  0.00000000000E+00 0.  1.
         21   -1    0    0  502  503 -0.00000000000E+00 -0.00000000000E+00 -0.17961962151E+04  0.17961962151E+04  0.00000000000E+00 0. -1.
    9000007    2    1    2  501    0  0.28299256593E+03 -0.17258248874E+03 -0.16384578505E+03  0.54194780492E+03  0.39622275830E+03 0.  0.
    9000005    1    3    3    0    0  0.16816217860E+02 -0.22487622284E+03 -0.90536748465E+00  0.22550813836E+03  0.99999687468E+00 0.  0.
          4    1    3    3  501    0  0.26617634807E+03  0.52293734105E+02 -0.16294041757E+03  0.31643966656E+03  0.00000000000E+00 0.  1.
   -9000007    1    1    2    0  503 -0.28299256593E+03  0.17258248874E+03 -0.13965541806E+04  0.14900446595E+04  0.40000000000E+03 0. -1.
<mgrwt>
<rscale>  2 0.51876243E+03</rscale>
<asrwt>0</asrwt>
<pdfrwt beam="1">  1       21 0.36276346E-01 0.51948966E+03</pdfrwt>
<pdfrwt beam="2">  1       21 0.27633788E+00 0.51948966E+03</pdfrwt>
<totfact> 0.26196174E+02</totfact>
</mgrwt>
</event>
<event>
 6    1  0.8739326E-004  0.6606535E+03  0.7818608E-02  0.9789026E-01
         21   -1    0    0  501  502  0.00000000000E+00  0.00000000000E+00  0.43429463521E+03  0.43429463521E+03  0.00000000000E+00 0.  1.
         21   -1    0    0  502  503 -0.00000000000E+00 -0.00000000000E+00 -0.12626374506E+04  0.12626374506E+04  0.00000000000E+00 0. -1.
    9000007    2    1    2  501    0 -0.93588645958E+02  0.51740146339E+03 -0.24854443070E+02  0.65671255444E+03  0.39267101605E+03 0.  0.
    9000005    1    3    3    0    0  0.91122678858E+02  0.44791520093E+03  0.49978802802E+01  0.45711852799E+03  0.99999687468E+00 0.  0.
          4    1    3    3  501    0 -0.18471132482E+03  0.69486262461E+02 -0.29852323350E+02  0.19959402645E+03  0.00000000000E+00 0.  1.
   -9000007    1    1    2    0  503  0.93588645958E+02 -0.51740146339E+03 -0.80348837230E+03  0.10402195313E+04  0.40000000000E+03 0. -1.
<mgrwt>
<rscale>  2 0.65954790E+03</rscale>
<asrwt>0</asrwt>
<pdfrwt beam="1">  1       21 0.66814561E-01 0.66065355E+03</pdfrwt>
<pdfrwt beam="2">  1       21 0.19425191E+00 0.66065355E+03</pdfrwt>
<totfact> 0.22320049E+02</totfact>
</mgrwt>
</event>
<event>
 6    1  0.8739326E-004  0.4510547E+03  0.7818608E-02  0.1027458E+00
         21   -1    0    0  501  502  0.00000000000E+00  0.00000000000E+00  0.39028173200E+03  0.39028173200E+03  0.00000000000E+00 0. -1.
         21   -1    0    0  502  503 -0.00000000000E+00 -0.00000000000E+00 -0.53196012750E+03  0.53196012750E+03  0.00000000000E+00 0. -1.
    9000007    2    1    2  501    0  0.39963645478E+02  0.20458056025E+03 -0.31696048473E+01  0.45039974217E+03  0.39924877302E+03 0.  0.
    9000005    1    3    3    0    0  0.12650112857E+03  0.29095368807E+03 -0.46556596306E+02  0.32066353205E+03  0.99999687468E+00 0.  0.
          4    1    3    3  501    0 -0.86537483088E+02 -0.86373127822E+02  0.43386991459E+02  0.12973621012E+03  0.00000000000E+00 0.  1.
   -9000007    1    1    2    0  503 -0.39963645478E+02 -0.20458056025E+03 -0.13850879066E+03  0.47184211733E+03  0.40000000000E+03 0. -1.
<mgrwt>
<rscale>  2 0.45088804E+03</rscale>
<asrwt>0</asrwt>
<pdfrwt beam="1">  1       21 0.60043343E-01 0.45105465E+03</pdfrwt>
<pdfrwt beam="2">  1       21 0.81840020E-01 0.45105465E+03</pdfrwt>
<totfact> 0.29403189E+03</totfact>
</mgrwt>
</event>
<event>
 6    1  0.8739326E-004  0.4525002E+03  0.7818608E-02  0.1027065E+00
         21   -1    0    0  501  502  0.00000000000E+00  0.00000000000E+00  0.25553548585E+03  0.25553548585E+03  0.00000000000E+00 0. -1.
         21   -1    0    0  502  503 -0.00000000000E+00 -0.00000000000E+00 -0.13111221923E+04  0.13111221923E+04  0.00000000000E+00 0. -1.
    9000007    2    1    2  501    0 -0.20873122062E+03 -0.34463141692E+02 -0.37932916618E+02  0.45293613910E+03  0.39869262514E+03 0.  0.
    9000005    1    3    3    0    0 -0.89838495581E+02 -0.18920960972E+03 -0.11981853533E+03  0.24130626411E+03  0.99999687468E+00 0.  0.
          4    1    3    3  501    0 -0.11889272504E+03  0.15474646802E+03  0.81885618713E+02  0.21162987498E+03  0.00000000000E+00 0.  1.
   -9000007    1    1    2    0  503  0.20873122062E+03  0.34463141692E+02 -0.10176537898E+04  0.11137215391E+04  0.40000000000E+03 0. -1.
<mgrwt>
<rscale>  2 0.45221110E+03</rscale>
<asrwt>0</asrwt>
<pdfrwt beam="1">  1       21 0.39313151E-01 0.45250020E+03</pdfrwt>
<pdfrwt beam="2">  1       21 0.20171111E+00 0.45250020E+03</pdfrwt>
<totfact> 0.67525575E+02</totfact>
</mgrwt>
</event>
<event>
 6    1  0.8739326E-004  0.4060410E+03  0.7818608E-02  0.1041713E+00
         21   -1    0    0  501  502  0.00000000000E+00  0.00000000000E+00  0.11372207712E+04  0.11372207712E+04  0.00000000000E+00 0. -1.
         21   -1    0    0  502  503 -0.00000000000E+00 -0.00000000000E+00 -0.23164554605E+03  0.23164554605E+03  0.00000000000E+00 0. -1.
    9000007    2    1    2  501    0 -0.63934021872E+02  0.27960100468E+02  0.87147362940E+03  0.96139577210E+03  0.39993276623E+03 0.  0.
    9000005    1    3    3    0    0  0.14935081661E+03 -0.61760979657E+02  0.48197336465E+03  0.50834969190E+03  0.99999687468E+00 0.  0.
          4    1    3    3  501    0 -0.21328483848E+03  0.89721080125E+02  0.38950026475E+03  0.45304608020E+03  0.00000000000E+00 0.  1.
   -9000007    1    1    2    0  503  0.63934021872E+02 -0.27960100468E+02  0.34101595797E+02  0.40747054520E+03  0.40000000000E+03 0. -1.
<mgrwt>
<rscale>  2 0.40602448E+03</rscale>
<asrwt>0</asrwt>
<pdfrwt beam="1">  1       21 0.17495704E+00 0.40604104E+03</pdfrwt>
<pdfrwt beam="2">  1       21 0.35637777E-01 0.40604104E+03</pdfrwt>
<totfact> 0.12878587E+03</totfact>
</mgrwt>
</event>
<event>
 6    1  0.8739326E-004  0.5079938E+03  0.7818608E-02  0.1011742E+00
         21   -1    0    0  501  502  0.00000000000E+00  0.00000000000E+00  0.26580132791E+03  0.26580132791E+03  0.00000000000E+00 0. -1.
         21   -1    0    0  502  503 -0.00000000000E+00 -0.00000000000E+00 -0.13716213231E+04  0.13716213231E+04  0.00000000000E+00 0.  1.
    9000007    2    1    2  501    0 -0.31279931055E+03 -0.14639449283E+02 -0.10972008308E+03  0.51926668825E+03  0.39942668256E+03 0.  0.
    9000005    1    3    3    0    0 -0.26006143037E+03 -0.63164382520E+02  0.10910160758E+03  0.28900838666E+03  0.99999687468E+00 0.  0.
          4    1    3    3  501    0 -0.52737880181E+02  0.48524933237E+02 -0.21882169066E+03  0.23025830160E+03  0.00000000000E+00 0.  1.
   -9000007    1    1    2    0  503  0.31279931055E+03  0.14639449283E+02 -0.99609991215E+03  0.11181559628E+04  0.40000000000E+03 0.  1.
<mgrwt>
<rscale>  2 0.50788095E+03</rscale>
<asrwt>0</asrwt>
<pdfrwt beam="1">  1       21 0.40892513E-01 0.50799382E+03</pdfrwt>
<pdfrwt beam="2">  1       21 0.21101866E+00 0.50799382E+03</pdfrwt>
<totfact> 0.52702505E+02</totfact>
</mgrwt>
</event>
<event>
 6    1  0.8739326E-004  0.4995421E+03  0.7818608E-02  0.1014169E+00
         21   -1    0    0  501  502  0.00000000000E+00  0.00000000000E+00  0.12827870670E+04  0.12827870670E+04  0.00000000000E+00 0.  1.
         21   -1    0    0  502  503 -0.00000000000E+00 -0.00000000000E+00 -0.67584761469E+03  0.67584761469E+03  0.00000000000E+00 0.  1.
    9000007    2    1    2  501    0 -0.12177452531E+03  0.27333722248E+03  0.11309278476E+04  0.12346829495E+04  0.39484416786E+03 0.  0.
    9000005    1    3    3    0    0 -0.58144437166E+02 -0.40339855862E+02  0.66883481023E+03  0.67256901722E+03  0.99999687468E+00 0.  0.
          4    1    3    3  501    0 -0.63630088142E+02  0.31367707835E+03  0.46209303740E+03  0.56211393224E+03  0.00000000000E+00 0.  1.
   -9000007    1    1    2    0  503  0.12177452531E+03 -0.27333722248E+03 -0.52398839531E+03  0.72395173225E+03  0.40000000000E+03 0.  1.
<mgrwt>
<rscale>  2 0.49850916E+03</rscale>
<asrwt>0</asrwt>
<pdfrwt beam="1">  1       21 0.19735186E+00 0.49954206E+03</pdfrwt>
<pdfrwt beam="2">  1       21 0.10397656E+00 0.49954206E+03</pdfrwt>
<totfact> 0.80571536E+01</totfact>
</mgrwt>
</event>
<event>
 6    1  0.8739326E-004  0.4528838E+03  0.7818608E-02  0.1026884E+00
         21   -1    0    0  501  502  0.00000000000E+00  0.00000000000E+00  0.20446232553E+04  0.20446232553E+04  0.00000000000E+00 0. -1.
         21   -1    0    0  502  503 -0.00000000000E+00 -0.00000000000E+00 -0.16333318009E+03  0.16333318009E+03  0.00000000000E+00 0. -1.
    9000007    2    1    2  501    0  0.69989396382E+02  0.19994591468E+03  0.16268484642E+04  0.16887094635E+04  0.40028345250E+03 0.  0.
    9000005    1    3    3    0    0 -0.82352175872E+02  0.26274684616E+03  0.81348849405E+03  0.85882612675E+03  0.99999687468E+00 0.  0.
          4    1    3    3  501    0  0.15234157225E+03 -0.62800931475E+02  0.81335997011E+03  0.82988333675E+03  0.00000000000E+00 0.  1.
   -9000007    1    1    2    0  503 -0.69989396382E+02 -0.19994591468E+03  0.25444161108E+03  0.51924697193E+03  0.40000000000E+03 0. -1.
<mgrwt>
<rscale>  2 0.45282115E+03</rscale>
<asrwt>0</asrwt>
<pdfrwt beam="1">  1       21 0.31455741E+00 0.45288379E+03</pdfrwt>
<pdfrwt beam="2">  1       21 0.25128183E-01 0.45288379E+03</pdfrwt>
<totfact> 0.33173931E+02</totfact>
</mgrwt>
</event>
<event>
 6    1  0.8739326E-004  0.5133741E+03  0.7818608E-02  0.1010430E+00
         21   -1    0    0  501  502  0.00000000000E+00  0.00000000000E+00  0.94047192108E+03  0.94047192108E+03  0.00000000000E+00 0. -1.
         21   -1    0    0  502  503 -0.00000000000E+00 -0.00000000000E+00 -0.30323616288E+03  0.30323616288E+03  0.00000000000E+00 0. -1.
    9000007    2    1    2  501    0  0.31931044399E+03  0.15276207776E+02  0.49293881695E+03  0.71171736090E+03  0.40169690364E+03 0.  0.
    9000005    1    3    3    0    0  0.35197979198E+03 -0.13962062556E+01  0.54454829719E+03  0.64840232211E+03  0.99999687468E+00 0.  0.
          4    1    3    3  501    0 -0.32669347986E+02  0.16672414031E+02 -0.51609480237E+02  0.63315038797E+02  0.00000000000E+00 0.  1.
   -9000007    1    1    2    0  503 -0.31931044399E+03 -0.15276207776E+02  0.14429694126E+03  0.53199072306E+03  0.40000000000E+03 0. -1.
<mgrwt>
<rscale>  2 0.51304207E+03</rscale>
<asrwt>0</asrwt>
<pdfrwt beam="1">  1       21 0.14468799E+00 0.51337406E+03</pdfrwt>
<pdfrwt beam="2">  1       21 0.46651718E-01 0.51337406E+03</pdfrwt>
<totfact> 0.11970852E+03</totfact>
</mgrwt>
</event>
<event>
 6    1  0.8739326E-004  0.4086488E+03  0.7818608E-02  0.1040966E+00
         21   -1    0    0  501  502  0.00000000000E+00  0.00000000000E+00  0.58957844856E+03  0.58957844856E+03  0.00000000000E+00 0. -1.
         21   -1    0    0  502  503 -0.00000000000E+00 -0.00000000000E+00 -0.28474425320E+03  0.28474425320E+03  0.00000000000E+00 0. -1.
    9000007    2    1    2  501    0  0.83137762330E+02 -0.90546257613E+01  0.19429128310E+03  0.45098641791E+03  0.39830361870E+03 0.  0.
    9000005    1    3    3    0    0  0.19843572828E+03 -0.11692296101E+03  0.47018485059E+02  0.23507329708E+03  0.99999687468E+00 0.  0.
          4    1    3    3  501    0 -0.11529796595E+03  0.10786833525E+03  0.14727279804E+03  0.21591312083E+03  0.00000000000E+00 0.  1.
   -9000007    1    1    2    0  503 -0.83137762330E+02  0.90546257613E+01  0.11054291226E+03  0.42333628385E+03  0.40000000000E+03 0. -1.
<mgrwt>
<rscale>  2 0.40823312E+03</rscale>
<asrwt>0</asrwt>
<pdfrwt beam="1">  1       21 0.90704376E-01 0.40864884E+03</pdfrwt>
<pdfrwt beam="2">  1       21 0.43806808E-01 0.40864884E+03</pdfrwt>
<totfact> 0.45985652E+03</totfact>
</mgrwt>
</event>
<event>
 6    1  0.8739326E-004  0.4077265E+03  0.7818608E-02  0.1041141E+00
         21   -1    0    0  501  502  0.00000000000E+00  0.00000000000E+00  0.10015900980E+04  0.10015900980E+04  0.00000000000E+00 0.  1.
         21   -1    0    0  502  503 -0.00000000000E+00 -0.00000000000E+00 -0.33147098501E+03  0.33147098501E+03  0.00000000000E+00 0.  1.
    9000007    2    1    2  501    0  0.39442054693E+02 -0.68164388088E+02  0.80606173366E+03  0.90331411609E+03  0.40004851504E+03 0.  0.
    9000005    1    3    3    0    0 -0.10607949878E+03  0.28804505686E+02  0.39104038654E+02  0.11667341361E+03  0.99999687468E+00 0.  0.
          4    1    3    3  501    0  0.14552155347E+03 -0.96968893774E+02  0.76695769500E+03  0.78664070249E+03  0.00000000000E+00 0.  1.
   -9000007    1    1    2    0  503 -0.39442054693E+02  0.68164388088E+02 -0.13594262065E+03  0.42974696694E+03  0.40000000000E+03 0.  1.
<mgrwt>
<rscale>  2 0.40771457E+03</rscale>
<asrwt>0</asrwt>
<pdfrwt beam="1">  1       21 0.15409078E+00 0.40772647E+03</pdfrwt>
<pdfrwt beam="2">  1       21 0.50995537E-01 0.40772647E+03</pdfrwt>
<totfact> 0.87334556E+02</totfact>
</mgrwt>
</event>
<event>
 6    1  0.8739326E-004  0.4195742E+03  0.7818608E-02  0.1037207E+00
         21   -1    0    0  501  502  0.00000000000E+00  0.00000000000E+00  0.43441620032E+03  0.43441620032E+03  0.00000000000E+00 0.  1.
         21   -1    0    0  502  503 -0.00000000000E+00 -0.00000000000E+00 -0.69794166469E+03  0.69794166469E+03  0.00000000000E+00 0.  1.
    9000007    2    1    2  501    0  0.71974710090E+02 -0.10413078504E+03  0.23490358499E+03  0.48085568041E+03  0.40002363912E+03 0.  0.
    9000005    1    3    3    0    0  0.23349452461E+03 -0.70549460773E+02  0.86054672524E+02  0.25865677276E+03  0.99999687468E+00 0.  0.
          4    1    3    3  501    0 -0.16151981452E+03 -0.33581324268E+02  0.14884891247E+03  0.22219890766E+03  0.00000000000E+00 0.  1.
   -9000007    1    1    2    0  503 -0.71974710090E+02  0.10413078504E+03 -0.49842904936E+03  0.65150218459E+03  0.40000000000E+03 0.  1.
<mgrwt>
<rscale>  2 0.41956854E+03</rscale>
<asrwt>0</asrwt>
<pdfrwt beam="1">  1       21 0.66833261E-01 0.41957418E+03</pdfrwt>
<pdfrwt beam="2">  1       21 0.10737564E+00 0.41957418E+03</pdfrwt>
<totfact> 0.12270051E+03</totfact>
</mgrwt>
</event>
<event>
 6    1  0.8739326E-004  0.4290087E+03  0.7818608E-02  0.1034661E+00
         21   -1    0    0  501  502  0.00000000000E+00  0.00000000000E+00  0.14173601259E+03  0.14173601259E+03  0.00000000000E+00 0.  1.
         21   -1    0    0  502  503 -0.00000000000E+00 -0.00000000000E+00 -0.14406601824E+04  0.14406601824E+04  0.00000000000E+00 0.  1.
    9000007    2    1    2  501    0 -0.13007832728E+03  0.43902730339E+02 -0.38948480945E+03  0.57943668876E+03  0.40644881415E+03 0.  0.
    9000005    1    3    3    0    0 -0.97394621320E+02  0.21055068656E+03 -0.12072797098E+03  0.26152159919E+03  0.99999687468E+00 0.  0.
          4    1    3    3  501    0 -0.32683705963E+02 -0.16664795622E+03 -0.26875683847E+03  0.31791508956E+03  0.00000000000E+00 0.  1.
   -9000007    1    1    2    0  503  0.13007832728E+03 -0.43902730339E+02 -0.90943936031E+03  0.10029595062E+04  0.40000000000E+03 0.  1.
<mgrwt>
<rscale>  2 0.42747432E+03</rscale>
<asrwt>0</asrwt>
<pdfrwt beam="1">  1       21 0.21805539E-01 0.42900869E+03</pdfrwt>
<pdfrwt beam="2">  1       21 0.22164004E+00 0.42900869E+03</pdfrwt>
<totfact> 0.16299256E+03</totfact>
</mgrwt>
</event>
<event>
 6    1  0.8739326E-004  0.4105104E+03  0.7818608E-02  0.1040230E+00
         21   -1    0    0  501  502  0.00000000000E+00  0.00000000000E+00  0.43493343983E+03  0.43493343983E+03  0.00000000000E+00 0.  1.
         21   -1    0    0  502  503 -0.00000000000E+00 -0.00000000000E+00 -0.47737762589E+03  0.47737762589E+03  0.00000000000E+00 0.  1.
    9000007    2    1    2  501    0 -0.28606288374E+02  0.86061848423E+02  0.17711549384E+03  0.44708916756E+03  0.40036716162E+03 0.  0.
    9000005    1    3    3    0    0 -0.89652535327E+02  0.19589739273E+03 -0.16717535157E+02  0.21608757841E+03  0.99999687468E+00 0.  0.
          4    1    3    3  501    0  0.61046246953E+02 -0.10983554430E+03  0.19383302900E+03  0.23100158915E+03  0.00000000000E+00 0.  1.
   -9000007    1    1    2    0  503  0.28606288374E+02 -0.86061848423E+02 -0.21955967990E+03  0.46522189816E+03  0.40000000000E+03 0.  1.
<mgrwt>
<rscale>  2 0.41042090E+03</rscale>
<asrwt>0</asrwt>
<pdfrwt beam="1">  1       21 0.66912836E-01 0.41051045E+03</pdfrwt>
<pdfrwt beam="2">  1       21 0.73442712E-01 0.41051045E+03</pdfrwt>
<totfact> 0.30113064E+03</totfact>
</mgrwt>
</event>
<event>
 6    1  0.8739326E-004  0.6194332E+03  0.7818608E-02  0.9866052E-01
         21   -1    0    0  501  502  0.00000000000E+00  0.00000000000E+00  0.11733010300E+04  0.11733010300E+04  0.00000000000E+00 0. -1.
         21   -1    0    0  502  503 -0.00000000000E+00 -0.00000000000E+00 -0.33758285322E+03  0.33758285322E+03  0.00000000000E+00 0. -1.
    9000007    2    1    2  501    0 -0.14199636480E+03  0.45069909622E+03  0.28327410901E+03  0.68113266088E+03  0.40050572771E+03 0.  0.
    9000005    1    3    3    0    0 -0.21611973187E+03  0.40357284837E+03  0.86850488757E+02  0.46596436542E+03  0.99999687468E+00 0.  0.
          4    1    3    3  501    0  0.74123367066E+02  0.47126247851E+02  0.19642362025E+03  0.21516829547E+03  0.00000000000E+00 0.  1.
   -9000007    1    1    2    0  503  0.14199636480E+03 -0.45069909622E+03  0.55244406774E+03  0.82975122232E+03  0.40000000000E+03 0. -1.
<mgrwt>
<rscale>  2 0.61935146E+03</rscale>
<asrwt>0</asrwt>
<pdfrwt beam="1">  1       21 0.18050785E+00 0.61943319E+03</pdfrwt>
<pdfrwt beam="2">  1       21 0.51935824E-01 0.61943319E+03</pdfrwt>
<totfact> 0.49174225E+02</totfact>
</mgrwt>
</event>
<event>
 6    1  0.8739326E-004  0.5933252E+03  0.7818608E-02  0.9919919E-01
         21   -1    0    0  501  502  0.00000000000E+00  0.00000000000E+00  0.62906129913E+03  0.62906129913E+03  0.00000000000E+00 0. -1.
         21   -1    0    0  502  503 -0.00000000000E+00 -0.00000000000E+00 -0.88260508439E+03  0.88260508439E+03  0.00000000000E+00 0. -1.
    9000007    2    1    2  501    0  0.93974152713E+02 -0.42802298232E+03  0.33124944814E+03  0.67858899180E+03  0.39839930738E+03 0.  0.
    9000005    1    3    3    0    0  0.22158858194E+03 -0.40240132442E+03  0.23033636483E+03  0.51389120103E+03  0.99999687468E+00 0.  0.
          4    1    3    3  501    0 -0.12761442922E+03 -0.25621657896E+02  0.10091308331E+03  0.16469779076E+03  0.00000000000E+00 0.  1.
   -9000007    1    1    2    0  503 -0.93974152713E+02  0.42802298232E+03 -0.58479323341E+03  0.83307739173E+03  0.40000000000E+03 0. -1.
<mgrwt>
<rscale>  2 0.59305555E+03</rscale>
<asrwt>0</asrwt>
<pdfrwt beam="1">  1       21 0.96778662E-01 0.59332522E+03</pdfrwt>
<pdfrwt beam="2">  1       21 0.13578540E+00 0.59332522E+03</pdfrwt>
<totfact> 0.26636148E+02</totfact>
</mgrwt>
</event>
<event>
 6    1  0.8739326E-004  0.5029754E+03  0.7818608E-02  0.1013034E+00
         21   -1    0    0  501  502  0.00000000000E+00  0.00000000000E+00  0.13615234270E+04  0.13615234270E+04  0.00000000000E+00 0.  1.
         21   -1    0    0  502  503 -0.00000000000E+00 -0.00000000000E+00 -0.24574524033E+03  0.24574524033E+03  0.00000000000E+00 0.  1.
    9000007    2    1    2  501    0  0.24006023545E+03  0.18803023328E+03  0.95512413266E+03  0.10792591879E+04  0.39944211183E+03 0.  0.
    9000005    1    3    3    0    0 -0.16153090119E+02  0.20585656013E+03  0.64136822031E+03  0.67378931402E+03  0.99999687468E+00 0.  0.
          4    1    3    3  501    0  0.25621332557E+03 -0.17826326855E+02  0.31375591235E+03  0.40546987393E+03  0.00000000000E+00 0.  1.
   -9000007    1    1    2    0  503 -0.24006023545E+03 -0.18803023328E+03  0.16065405403E+03  0.52800947941E+03  0.40000000000E+03 0.  1.
<mgrwt>
<rscale>  2 0.50286451E+03</rscale>
<asrwt>0</asrwt>
<pdfrwt beam="1">  1       21 0.20946514E+00 0.50297543E+03</pdfrwt>
<pdfrwt beam="2">  1       21 0.37806961E-01 0.50297543E+03</pdfrwt>
<totfact> 0.63552081E+02</totfact>
</mgrwt>
</event>
<event>
 6    1  0.8739326E-004  0.4606430E+03  0.7818608E-02  0.1024598E+00
         21   -1    0    0  501  502  0.00000000000E+00  0.00000000000E+00  0.54069275342E+03  0.54069275342E+03  0.00000000000E+00 0. -1.
         21   -1    0    0  502  503 -0.00000000000E+00 -0.00000000000E+00 -0.19958886680E+04  0.19958886680E+04  0.00000000000E+00 0. -1.
    9000007    2    1    2  501    0  0.22287745872E+03 -0.50176041370E+02  0.40920182300E+03  0.61612029956E+03  0.39995761632E+03 0.  0.
    9000005    1    3    3    0    0  0.41319796078E+02  0.84432176848E+01  0.42275374744E+03  0.42485332109E+03  0.99999687468E+00 0.  0.
          4    1    3    3  501    0  0.18155766264E+03 -0.58619259055E+02 -0.13551924441E+02  0.19126697847E+03  0.00000000000E+00 0.  1.
   -9000007    1    1    2    0  503 -0.22287745872E+03  0.50176041370E+02 -0.18643977376E+04  0.19204611219E+04  0.40000000000E+03 0. -1.
<mgrwt>
<rscale>  2 0.46063382E+03</rscale>
<asrwt>0</asrwt>
<pdfrwt beam="1">  1       21 0.83183501E-01 0.46064303E+03</pdfrwt>
<pdfrwt beam="2">  1       21 0.30705979E+00 0.46064303E+03</pdfrwt>
<totfact> 0.29204588E+01</totfact>
</mgrwt>
</event>
<event>
 6    1  0.8739326E-004  0.4343745E+03  0.7818608E-02  0.1032629E+00
         21   -1    0    0  501  502  0.00000000000E+00  0.00000000000E+00  0.28168070309E+03  0.28168070309E+03  0.00000000000E+00 0.  1.
         21   -1    0    0  502  503 -0.00000000000E+00 -0.00000000000E+00 -0.69026216215E+03  0.69026216215E+03  0.00000000000E+00 0. -1.
    9000007    2    1    2  501    0 -0.10410337973E+03 -0.12752963664E+03 -0.29385459341E+03  0.52443468028E+03  0.40197001122E+03 0.  0.
    9000005    1    3    3    0    0  0.83526577501E+02 -0.16274929417E+03 -0.11105489082E+02  0.18327125738E+03  0.99999687468E+00 0.  0.
          4    1    3    3  501    0 -0.18762995724E+03  0.35219657526E+02 -0.28274910432E+03  0.34116342290E+03  0.00000000000E+00 0.  1.
   -9000007    1    1    2    0  503  0.10410337973E+03  0.12752963664E+03 -0.11472686566E+03  0.44750818495E+03  0.40000000000E+03 0.  1.
<mgrwt>
<rscale>  2 0.43391819E+03</rscale>
<asrwt>0</asrwt>
<pdfrwt beam="1">  1       21 0.43335493E-01 0.43437451E+03</pdfrwt>
<pdfrwt beam="2">  1       21 0.10619418E+00 0.43437451E+03</pdfrwt>
<totfact> 0.31838413E+03</totfact>
</mgrwt>
</event>
<event>
 6    1  0.8739326E-004  0.8075420E+03  0.7818608E-02  0.9549184E-01
         21   -1    0    0  501  502  0.00000000000E+00  0.00000000000E+00  0.80545841076E+03  0.80545841076E+03  0.00000000000E+00 0.  1.
         21   -1    0    0  502  503 -0.00000000000E+00 -0.00000000000E+00 -0.85748866382E+03  0.85748866382E+03  0.00000000000E+00 0. -1.
    9000007    2    1    2  501    0  0.45579177718E+03 -0.53318681288E+03  0.17052947297E+03  0.82535101846E+03  0.40011208549E+03 0.  0.
    9000005    1    3    3    0    0  0.29051476807E+03 -0.42747713910E+03  0.29294718250E+03  0.59409981203E+03  0.99999687468E+00 0.  0.
          4    1    3    3  501    0  0.16527700912E+03 -0.10570967378E+03 -0.12241770953E+03  0.23125120644E+03  0.00000000000E+00 0.  1.
   -9000007    1    1    2    0  503 -0.45579177718E+03  0.53318681288E+03 -0.22255972604E+03  0.83759605612E+03  0.40000000000E+03 0.  1.
<mgrwt>
<rscale>  2 0.80752807E+03</rscale>
<asrwt>0</asrwt>
<pdfrwt beam="1">  1       21 0.12391668E+00 0.80754195E+03</pdfrwt>
<pdfrwt beam="2">  1       21 0.13192133E+00 0.80754195E+03</pdfrwt>
<totfact> 0.14442709E+02</totfact>
</mgrwt>
</event>
<event>
 6    1  0.8739326E-004  0.5505925E+03  0.7818608E-02  0.1001377E+00
         21   -1    0    0  501  502  0.00000000000E+00  0.00000000000E+00  0.56524221030E+03  0.56524221030E+03  0.00000000000E+00 0.  1.
         21   -1    0    0  502  503 -0.00000000000E+00 -0.00000000000E+00 -0.72657584008E+03  0.72657584008E+03  0.00000000000E+00 0.  1.
    9000007    2    1    2  501    0 -0.33116860934E+03  0.18297388554E+03  0.25016476200E+03  0.60444404953E+03  0.39952235265E+03 0.  0.
    9000005    1    3    3    0    0 -0.13429225574E+03 -0.11130515193E+03  0.16539649979E+03  0.24037522530E+03  0.99999687468E+00 0.  0.
          4    1    3    3  501    0 -0.19687635359E+03  0.29427903748E+03  0.84768262212E+02  0.36406882424E+03  0.00000000000E+00 0.  1.
   -9000007    1    1    2    0  503  0.33116860934E+03 -0.18297388554E+03 -0.41149839179E+03  0.68737400085E+03  0.40000000000E+03 0.  1.
<mgrwt>
<rscale>  2 0.55050574E+03</rscale>
<asrwt>0</asrwt>
<pdfrwt beam="1">  1       21 0.86960341E-01 0.55059249E+03</pdfrwt>
<pdfrwt beam="2">  1       21 0.11178090E+00 0.55059249E+03</pdfrwt>
<totfact> 0.57665937E+02</totfact>
</mgrwt>
</event>
<event>
 6    1  0.8739326E-004  0.4068074E+03  0.7818608E-02  0.1041463E+00
         21   -1    0    0  501  502  0.00000000000E+00  0.00000000000E+00  0.27917029116E+04  0.27917029116E+04  0.00000000000E+00 0. -1.
         21   -1    0    0  502  503 -0.00000000000E+00 -0.00000000000E+00 -0.80588851623E+02  0.80588851623E+02  0.00000000000E+00 0. -1.
    9000007    2    1    2  501    0  0.66589086777E+02  0.30213703064E+02  0.20947099410E+04  0.21338467671E+04  0.40018160187E+03 0.  0.
    9000005    1    3    3    0    0  0.40209488893E+02  0.32971006016E+02  0.21048196146E+04  0.21054620634E+04  0.99999687468E+00 0.  0.
          4    1    3    3  501    0  0.26379597884E+02 -0.27573029520E+01 -0.10109673676E+02  0.28384703731E+02  0.00000000000E+00 0.  1.
   -9000007    1    1    2    0  503 -0.66589086777E+02 -0.30213703064E+02  0.61640411905E+03  0.73844499613E+03  0.40000000000E+03 0. -1.
<mgrwt>
<rscale>  2 0.40676277E+03</rscale>
<asrwt>0</asrwt>
<pdfrwt beam="1">  1       21 0.42949268E+00 0.40680743E+03</pdfrwt>
<pdfrwt beam="2">  1       21 0.12398287E-01 0.40680743E+03</pdfrwt>
<totfact> 0.24644699E+02</totfact>
</mgrwt>
</event>
<event>
 6    1  0.8739326E-004  0.6404469E+03  0.7818608E-02  0.9824937E-01
         21   -1    0    0  501  502  0.00000000000E+00  0.00000000000E+00  0.39878064833E+04  0.39878064833E+04  0.00000000000E+00 0.  1.
         21   -1    0    0  502  503 -0.00000000000E+00 -0.00000000000E+00 -0.26365821094E+03  0.26365821094E+03  0.00000000000E+00 0. -1.
    9000007    2    1    2  501    0  0.65238487289E+02 -0.49572386123E+03  0.35223595219E+04  0.35801101630E+04  0.40021740444E+03 0.  0.
    9000005    1    3    3    0    0  0.19336720118E+02  0.21523104693E+02  0.12022675742E+04  0.12026160953E+04  0.99999687468E+00 0.  0.
          4    1    3    3  501    0  0.45901767172E+02 -0.51724696593E+03  0.23200919478E+04  0.23774940677E+04  0.00000000000E+00 0.  1.
   -9000007    1    1    2    0  503 -0.65238487289E+02  0.49572386123E+03  0.20178875047E+03  0.67135453125E+03  0.40000000000E+03 0. -1.
<mgrwt>
<rscale>  2 0.64041290E+03</rscale>
<asrwt>0</asrwt>
<pdfrwt beam="1">  1       21 0.61350865E+00 0.64044686E+03</pdfrwt>
<pdfrwt beam="2">  1       21 0.40562805E-01 0.64044686E+03</pdfrwt>
<totfact> 0.96844268E-01</totfact>
</mgrwt>
</event>
<event>
 6    1  0.8739326E-004  0.5679845E+03  0.7818608E-02  0.9974231E-01
         21   -1    0    0  501  502  0.00000000000E+00  0.00000000000E+00  0.37878248749E+03  0.37878248749E+03  0.00000000000E+00 0.  1.
         21   -1    0    0  502  503 -0.00000000000E+00 -0.00000000000E+00 -0.86985269785E+03  0.86985269785E+03  0.00000000000E+00 0.  1.
    9000007    2    1    2  501    0 -0.39926685968E+03  0.54997604324E+02 -0.15481204807E+03  0.58870464851E+03  0.40020948419E+03 0.  0.
    9000005    1    3    3    0    0  0.38333738004E+02  0.10961622779E+03  0.13007532134E+02  0.11685627391E+03  0.99999687468E+00 0.  0.
          4    1    3    3  501    0 -0.43760059768E+03 -0.54618623469E+02 -0.16781958020E+03  0.47184837461E+03  0.00000000000E+00 0.  1.
   -9000007    1    1    2    0  503  0.39926685968E+03 -0.54997604324E+02 -0.33625816229E+03  0.65993053682E+03  0.40000000000E+03 0.  1.
<mgrwt>
<rscale>  2 0.56794760E+03</rscale>
<asrwt>0</asrwt>
<pdfrwt beam="1">  1       21 0.58274230E-01 0.56798450E+03</pdfrwt>
<pdfrwt beam="2">  1       21 0.13382349E+00 0.56798450E+03</pdfrwt>
<totfact> 0.89673325E+02</totfact>
</mgrwt>
</event>
<event>
 6    1  0.8739326E-004  0.4527677E+03  0.7818608E-02  0.1026911E+00
         21   -1    0    0  501  502  0.00000000000E+00  0.00000000000E+00  0.23347179404E+03  0.23347179404E+03  0.00000000000E+00 0.  1.
         21   -1    0    0  502  503 -0.00000000000E+00 -0.00000000000E+00 -0.16804906632E+04  0.16804906632E+04  0.00000000000E+00 0.  1.
    9000007    2    1    2  501    0 -0.63783993630E+02 -0.20231201566E+03 -0.62031710271E+02  0.45684613388E+03  0.39982734703E+03 0.  0.
    9000005    1    3    3    0    0  0.12202194151E+03 -0.17099271444E+03 -0.14051062046E+03  0.25272929600E+03  0.99999687468E+00 0.  0.
          4    1    3    3  501    0 -0.18580593514E+03 -0.31319301221E+02  0.78478910190E+02  0.20411683788E+03  0.00000000000E+00 0.  1.
   -9000007    1    1    2    0  503  0.63783993630E+02  0.20231201566E+03 -0.13849871589E+04  0.14571163234E+04  0.40000000000E+03 0.  1.
<mgrwt>
<rscale>  2 0.45272952E+03</rscale>
<asrwt>0</asrwt>
<pdfrwt beam="1">  1       21 0.35918738E-01 0.45276766E+03</pdfrwt>
<pdfrwt beam="2">  1       21 0.25853702E+00 0.45276766E+03</pdfrwt>
<totfact> 0.35517146E+02</totfact>
</mgrwt>
</event>
<event>
 6    1  0.8739326E-004  0.4019788E+03  0.7818608E-02  0.1043234E+00
         21   -1    0    0  501  502  0.00000000000E+00  0.00000000000E+00  0.46681850712E+03  0.46681850712E+03  0.00000000000E+00 0.  1.
         21   -1    0    0  502  503 -0.00000000000E+00 -0.00000000000E+00 -0.60027833048E+03  0.60027833048E+03  0.00000000000E+00 0.  1.
    9000007    2    1    2  501    0 -0.11721420447E+02  0.13000831817E+02  0.28128876915E+03  0.49062237301E+03  0.40159747002E+03 0.  0.
    9000005    1    3    3    0    0  0.15309595711E+03  0.89575972505E+02  0.24949854665E+03  0.30612538560E+03  0.99999687468E+00 0.  0.
          4    1    3    3  501    0 -0.16481737756E+03 -0.76575140688E+02  0.31790222494E+02  0.18449698741E+03  0.00000000000E+00 0.  1.
   -9000007    1    1    2    0  503  0.11721420447E+02 -0.13000831817E+02 -0.41474859251E+03  0.57647446458E+03  0.40000000000E+03 0.  1.
<mgrwt>
<rscale>  2 0.40157920E+03</rscale>
<asrwt>0</asrwt>
<pdfrwt beam="1">  1       21 0.71818232E-01 0.40197878E+03</pdfrwt>
<pdfrwt beam="2">  1       21 0.92350512E-01 0.40197878E+03</pdfrwt>
<totfact> 0.15158374E+03</totfact>
</mgrwt>
</event>
<event>
 6    1  0.8739326E-004  0.4136960E+03  0.7818608E-02  0.1039140E+00
         21   -1    0    0  501  502  0.00000000000E+00  0.00000000000E+00  0.84333285638E+03  0.84333285638E+03  0.00000000000E+00 0. -1.
         21   -1    0    0  502  503 -0.00000000000E+00 -0.00000000000E+00 -0.20293454304E+03  0.20293454304E+03  0.00000000000E+00 0. -1.
    9000007    2    1    2  501    0  0.10526879118E+03  0.61936720044E+01  0.31636339991E+03  0.52079760476E+03  0.40003057927E+03 0.  0.
    9000005    1    3    3    0    0  0.12841470325E+03 -0.15843585000E+03  0.28683298721E+03  0.35194661118E+03  0.99999687468E+00 0.  0.
          4    1    3    3  501    0 -0.23145912062E+02  0.16462952200E+03  0.29530412698E+02  0.16885099358E+03  0.00000000000E+00 0.  1.
   -9000007    1    1    2    0  503 -0.10526879118E+03 -0.61936720044E+01  0.32403491344E+03  0.52546979466E+03  0.40000000000E+03 0. -1.
<mgrwt>
<rscale>  2 0.41368856E+03</rscale>
<asrwt>0</asrwt>
<pdfrwt beam="1">  1       21 0.12974351E+00 0.41369596E+03</pdfrwt>
<pdfrwt beam="2">  1       21 0.31220700E-01 0.41369596E+03</pdfrwt>
<totfact> 0.37748011E+03</totfact>
</mgrwt>
</event>
<event>
 6    1  0.8739326E-004  0.4707848E+03  0.7818608E-02  0.1021708E+00
         21   -1    0    0  501  502  0.00000000000E+00  0.00000000000E+00  0.83253397765E+02  0.83253397765E+02  0.00000000000E+00 0.  1.
         21   -1    0    0  502  503 -0.00000000000E+00 -0.00000000000E+00 -0.26726507398E+04  0.26726507398E+04  0.00000000000E+00 0.  1.
    9000007    2    1    2  501    0 -0.24303256859E+03 -0.50729870967E+02 -0.13835074564E+04  0.14613738113E+04  0.39985270462E+03 0.  0.
    9000005    1    3    3    0    0 -0.12433791180E+03  0.10080574892E+03 -0.17314332297E+03  0.23579933335E+03  0.99999687468E+00 0.  0.
          4    1    3    3  501    0 -0.11869465679E+03 -0.15153561988E+03 -0.12103641334E+04  0.12255744780E+04  0.00000000000E+00 0.  1.
   -9000007    1    1    2    0  503  0.24303256859E+03  0.50729870967E+02 -0.12058898857E+04  0.12945303262E+04  0.40000000000E+03 0. -1.
<mgrwt>
<rscale>  2 0.47075353E+03</rscale>
<asrwt>0</asrwt>
<pdfrwt beam="1">  1       21 0.12808216E-01 0.47078482E+03</pdfrwt>
<pdfrwt beam="2">  1       21 0.41117699E+00 0.47078482E+03</pdfrwt>
<totfact> 0.29304153E+02</totfact>
</mgrwt>
</event>
<event>
 6    1  0.8739326E-004  0.4191012E+03  0.7818608E-02  0.1037397E+00
         21   -1    0    0  501  502  0.00000000000E+00  0.00000000000E+00  0.66505188237E+03  0.66505188237E+03  0.00000000000E+00 0. -1.
         21   -1    0    0  502  503 -0.00000000000E+00 -0.00000000000E+00 -0.28936964416E+03  0.28936964416E+03  0.00000000000E+00 0. -1.
    9000007    2    1    2  501    0 -0.65425973581E+02 -0.10475625265E+03  0.46120315557E+02  0.42163123820E+03  0.40048893496E+03 0.  0.
    9000005    1    3    3    0    0  0.24954641283E+02 -0.24768357492E+03  0.42120965918E+02  0.25247784689E+03  0.99999687468E+00 0.  0.
          4    1    3    3  501    0 -0.90380614864E+02  0.14292732227E+03  0.39993496383E+01  0.16915339131E+03  0.00000000000E+00 0.  1.
   -9000007    1    1    2    0  503  0.65425973581E+02  0.10475625265E+03  0.32956192265E+03  0.53279028834E+03  0.40000000000E+03 0. -1.
<mgrwt>
<rscale>  2 0.41898435E+03</rscale>
<asrwt>0</asrwt>
<pdfrwt beam="1">  1       21 0.10231567E+00 0.41910120E+03</pdfrwt>
<pdfrwt beam="2">  1       21 0.44518407E-01 0.41910120E+03</pdfrwt>
<totfact> 0.33166081E+03</totfact>
</mgrwt>
</event>
<event>
 6    1  0.8739326E-004  0.4187513E+03  0.7818608E-02  0.1037488E+00
         21   -1    0    0  501  502  0.00000000000E+00  0.00000000000E+00  0.37942375302E+03  0.37942375302E+03  0.00000000000E+00 0.  1.
         21   -1    0    0  502  503 -0.00000000000E+00 -0.00000000000E+00 -0.53391831262E+03  0.53391831262E+03  0.00000000000E+00 0.  1.
    9000007    2    1    2  501    0 -0.11901856463E+03 -0.34456703824E+02  0.90411011182E+02  0.42823236489E+03  0.39982011484E+03 0.  0.
    9000005    1    3    3    0    0  0.86488482253E+02 -0.11080383581E+03  0.14537233831E+03  0.20221736901E+03  0.99999687468E+00 0.  0.
          4    1    3    3  501    0 -0.20550704688E+03  0.76347131983E+02 -0.54961327127E+02  0.22601499588E+03  0.00000000000E+00 0.  1.
   -9000007    1    1    2    0  503  0.11901856463E+03  0.34456703824E+02 -0.24490557078E+03  0.48510970075E+03  0.40000000000E+03 0.  1.
<mgrwt>
<rscale>  2 0.41870837E+03</rscale>
<asrwt>0</asrwt>
<pdfrwt beam="1">  1       21 0.58372885E-01 0.41875134E+03</pdfrwt>
<pdfrwt beam="2">  1       21 0.82141279E-01 0.41875134E+03</pdfrwt>
<totfact> 0.31376006E+03</totfact>
</mgrwt>
</event>
<event>
 6    1  0.8739326E-004  0.6822431E+03  0.7818608E-02  0.9749607E-01
         21   -1    0    0  501  502  0.00000000000E+00  0.00000000000E+00  0.21204145437E+04  0.21204145437E+04  0.00000000000E+00 0. -1.
         21   -1    0    0  502  503 -0.00000000000E+00 -0.00000000000E+00 -0.47933334724E+03  0.47933334724E+03  0.00000000000E+00 0. -1.
    9000007    2    1    2  501    0  0.54172032916E+03  0.10952042004E+03  0.17786417520E+04  0.19037747996E+04  0.39412735044E+03 0.  0.
    9000005    1    3    3    0    0  0.52568937464E+03 -0.37570043466E+02  0.14668423484E+04  0.15586495121E+04  0.99999687468E+00 0.  0.
          4    1    3    3  501    0  0.16030954519E+02  0.14709046351E+03  0.31179940362E+03  0.34512528748E+03  0.00000000000E+00 0.  1.
   -9000007    1    1    2    0  503 -0.54172032916E+03 -0.10952042004E+03 -0.13756055551E+03  0.69597309133E+03  0.40000000000E+03 0. -1.
<mgrwt>
<rscale>  2 0.68138486E+03</rscale>
<asrwt>0</asrwt>
<pdfrwt beam="1">  1       21 0.32621762E+00 0.68224309E+03</pdfrwt>
<pdfrwt beam="2">  1       21 0.73743593E-01 0.68224309E+03</pdfrwt>
<totfact> 0.26054322E+01</totfact>
</mgrwt>
</event>
<event>
 6    1  0.8739326E-004  0.4312300E+03  0.7818608E-02  0.1033532E+00
         21   -1    0    0  501  502  0.00000000000E+00  0.00000000000E+00  0.77967084110E+03  0.77967084110E+03  0.00000000000E+00 0.  1.
         21   -1    0    0  502  503 -0.00000000000E+00 -0.00000000000E+00 -0.25926522391E+03  0.25926522391E+03  0.00000000000E+00 0. -1.
    9000007    2    1    2  501    0  0.13070723791E+03 -0.90668933558E+02  0.40886883445E+03  0.59425000558E+03  0.40081680078E+03 0.  0.
    9000005    1    3    3    0    0  0.24298304329E+03  0.15590504353E+02  0.13153425994E+03  0.27674190988E+03  0.99999687468E+00 0.  0.
          4    1    3    3  501    0 -0.11227580537E+03 -0.10625943791E+03  0.27733457451E+03  0.31750809570E+03  0.00000000000E+00 0.  1.
   -9000007    1    1    2    0  503 -0.13070723791E+03  0.90668933558E+02  0.11153678274E+03  0.44468605944E+03  0.40000000000E+03 0. -1.
<mgrwt>
<rscale>  2 0.43104014E+03</rscale>
<asrwt>0</asrwt>
<pdfrwt beam="1">  1       21 0.11994936E+00 0.43123004E+03</pdfrwt>
<pdfrwt beam="2">  1       21 0.39886958E-01 0.43123004E+03</pdfrwt>
<totfact> 0.27934348E+03</totfact>
</mgrwt>
</event>
<event>
 6    1  0.8739326E-004  0.5384737E+03  0.7818608E-02  0.1004198E+00
         21   -1    0    0  501  502  0.00000000000E+00  0.00000000000E+00  0.52637327254E+03  0.52637327254E+03  0.00000000000E+00 0.  1.
         21   -1    0    0  502  503 -0.00000000000E+00 -0.00000000000E+00 -0.55085041407E+03  0.55085041407E+03  0.00000000000E+00 0. -1.
    9000007    2    1    2  501    0  0.54570885964E+02  0.35633682695E+03 -0.11468113181E+02  0.53859287552E+03  0.39999606512E+03 0.  0.
    9000005    1    3    3    0    0 -0.16525043870E+03  0.95838134213E+02  0.36168475214E+02  0.19442688614E+03  0.99999687468E+00 0.  0.
          4    1    3    3  501    0  0.21982132467E+03  0.26049869274E+03 -0.47636588396E+02  0.34416598938E+03  0.00000000000E+00 0.  1.
   -9000007    1    1    2    0  503 -0.54570885964E+02 -0.35633682695E+03 -0.13009028343E+02  0.53863081109E+03  0.40000000000E+03 0.  1.
<mgrwt>
<rscale>  2 0.53847296E+03</rscale>
<asrwt>0</asrwt>
<pdfrwt beam="1">  1       21 0.80980503E-01 0.53847369E+03</pdfrwt>
<pdfrwt beam="2">  1       21 0.84746218E-01 0.53847369E+03</pdfrwt>
<totfact> 0.13396159E+03</totfact>
</mgrwt>
</event>
<event>
 6    1  0.8739326E-004  0.4365143E+03  0.7818608E-02  0.1031907E+00
         21   -1    0    0  501  502  0.00000000000E+00  0.00000000000E+00  0.16175348522E+03  0.16175348522E+03  0.00000000000E+00 0.  1.
         21   -1    0    0  502  503 -0.00000000000E+00 -0.00000000000E+00 -0.17753156595E+04  0.17753156595E+04  0.00000000000E+00 0.  1.
    9000007    2    1    2  501    0  0.17046877898E+03 -0.38536939242E+02 -0.13693018462E+04  0.14368613797E+04  0.39879616121E+03 0.  0.
    9000005    1    3    3    0    0  0.13907771686E+03 -0.19578849467E+03 -0.52303986719E+03  0.57554100518E+03  0.99999687468E+00 0.  0.
          4    1    3    3  501    0  0.31391062118E+02  0.15725155543E+03 -0.84626197901E+03  0.86132037453E+03  0.00000000000E+00 0.  1.
   -9000007    1    1    2    0  503 -0.17046877898E+03  0.38536939242E+02 -0.24426032806E+03  0.50020776499E+03  0.40000000000E+03 0.  1.
<mgrwt>
<rscale>  2 0.43623828E+03</rscale>
<asrwt>0</asrwt>
<pdfrwt beam="1">  1       21 0.24885151E-01 0.43651426E+03</pdfrwt>
<pdfrwt beam="2">  1       21 0.27312550E+00 0.43651426E+03</pdfrwt>
<totfact> 0.60588104E+02</totfact>
</mgrwt>
</event>
<event>
 6    1  0.8739326E-004  0.4717196E+03  0.7818608E-02  0.1021441E+00
         21   -1    0    0  501  502  0.00000000000E+00  0.00000000000E+00  0.12989107189E+03  0.12989107189E+03  0.00000000000E+00 0.  1.
         21   -1    0    0  502  503 -0.00000000000E+00 -0.00000000000E+00 -0.18433453358E+04  0.18433453358E+04  0.00000000000E+00 0.  1.
    9000007    2    1    2  501    0  0.13239372983E+03 -0.21196155928E+03 -0.11192639134E+04  0.12146073976E+04  0.40007951730E+03 0.  0.
    9000005    1    3    3    0    0  0.15578797083E+03  0.79784335647E+02 -0.34477134049E+03  0.38665709523E+03  0.99999687468E+00 0.  0.
          4    1    3    3  501    0 -0.23394240997E+02 -0.29174589492E+03 -0.77449257293E+03  0.82795030240E+03  0.00000000000E+00 0.  1.
   -9000007    1    1    2    0  503 -0.13239372983E+03  0.21196155928E+03 -0.59419035054E+03  0.75862901011E+03  0.40000000000E+03 0.  1.
<mgrwt>
<rscale>  2 0.47170278E+03</rscale>
<asrwt>0</asrwt>
<pdfrwt beam="1">  1       21 0.19983242E-01 0.47171964E+03</pdfrwt>
<pdfrwt beam="2">  1       21 0.28359159E+00 0.47171964E+03</pdfrwt>
<totfact> 0.78413972E+02</totfact>
</mgrwt>
</event>
<event>
 6    1  0.8739326E-004  0.4142880E+03  0.7818608E-02  0.1039012E+00
         21   -1    0    0  501  502  0.00000000000E+00  0.00000000000E+00  0.14504375273E+03  0.14504375273E+03  0.00000000000E+00 0. -1.
         21   -1    0    0  502  503 -0.00000000000E+00 -0.00000000000E+00 -0.12595878706E+04  0.12595878706E+04  0.00000000000E+00 0. -1.
    9000007    2    1    2  501    0 -0.56617060720E+02 -0.91809777342E+02 -0.38121014089E+03  0.56236489089E+03  0.39912225220E+03 0.  0.
    9000005    1    3    3    0    0 -0.92929833831E+01 -0.14087064546E+03  0.31010721421E+02  0.14454605885E+03  0.99999687468E+00 0.  0.
          4    1    3    3  501    0 -0.47324077337E+02  0.49060868120E+02 -0.41222086231E+03  0.41781883204E+03  0.00000000000E+00 0.  1.
   -9000007    1    1    2    0  503  0.56617060720E+02  0.91809777342E+02 -0.73333397695E+03  0.84226673241E+03  0.40000000000E+03 0. -1.
<mgrwt>
<rscale>  2 0.41407596E+03</rscale>
<asrwt>0</asrwt>
<pdfrwt beam="1">  1       21 0.22314424E-01 0.41428798E+03</pdfrwt>
<pdfrwt beam="2">  1       21 0.19378275E+00 0.41428798E+03</pdfrwt>
<totfact> 0.23886331E+03</totfact>
</mgrwt>
</event>
<event>
 6    1  0.8739326E-004  0.6762896E+03  0.7818608E-02  0.9758748E-01
         21   -1    0    0  501  502  0.00000000000E+00  0.00000000000E+00  0.67160060719E+03  0.67160060719E+03  0.00000000000E+00 0. -1.
         21   -1    0    0  502  503 -0.00000000000E+00 -0.00000000000E+00 -0.73234571044E+03  0.73234571044E+03  0.00000000000E+00 0.  1.
    9000007    2    1    2  501    0  0.38107132384E+02  0.54398111551E+03  0.15583595571E+03  0.69382311517E+03  0.39967244399E+03 0.  0.
    9000005    1    3    3    0    0  0.59890438549E+02  0.52247980159E+03  0.25899591758E+03  0.58621829809E+03  0.99999687468E+00 0.  0.
          4    1    3    3  501    0 -0.21783306165E+02  0.21501313919E+02 -0.10315996187E+03  0.10760481708E+03  0.00000000000E+00 0.  1.
   -9000007    1    1    2    0  503 -0.38107132384E+02 -0.54398111551E+03 -0.21658105897E+03  0.71012320246E+03  0.40000000000E+03 0.  1.
<mgrwt>
<rscale>  2 0.67624116E+03</rscale>
<asrwt>0</asrwt>
<pdfrwt beam="1">  1       21 0.10332317E+00 0.67628959E+03</pdfrwt>
<pdfrwt beam="2">  1       21 0.11266857E+00 0.67628959E+03</pdfrwt>
<totfact> 0.35762658E+02</totfact>
</mgrwt>
</event>
<event>
 6    1  0.8739326E-004  0.5617932E+03  0.7818608E-02  0.9988458E-01
         21   -1    0    0  501  502  0.00000000000E+00  0.00000000000E+00  0.16450303969E+04  0.16450303969E+04  0.00000000000E+00 0.  1.
         21   -1    0    0  502  503 -0.00000000000E+00 -0.00000000000E+00 -0.24717203386E+03  0.24717203386E+03  0.00000000000E+00 0. -1.
    9000007    2    1    2  501    0  0.11424133391E+03  0.37757179694E+03  0.24986735675E+03  0.61411992374E+03  0.39887095726E+03 0.  0.
    9000005    1    3    3    0    0  0.14965151115E+03 -0.29288890641E+02  0.62868025950E+02  0.16494484710E+03  0.99999687468E+00 0.  0.
          4    1    3    3  501    0 -0.35410177243E+02  0.40686068758E+03  0.18699933080E+03  0.44917507664E+03  0.00000000000E+00 0.  1.
   -9000007    1    1    2    0  503 -0.11424133391E+03 -0.37757179694E+03  0.11479910063E+04  0.12780825070E+04  0.40000000000E+03 0.  1.
<mgrwt>
<rscale>  2 0.56159221E+03</rscale>
<asrwt>0</asrwt>
<pdfrwt beam="1">  1       21 0.25308159E+00 0.56179315E+03</pdfrwt>
<pdfrwt beam="2">  1       21 0.38026468E-01 0.56179315E+03</pdfrwt>
<totfact> 0.32383096E+02</totfact>
</mgrwt>
</event>
<event>
 6    1  0.8739326E-004  0.4121269E+03  0.7818608E-02  0.1039660E+00
         21   -1    0    0  501  502  0.00000000000E+00  0.00000000000E+00  0.11788799354E+04  0.11788799354E+04  0.00000000000E+00 0. -1.
         21   -1    0    0  502  503 -0.00000000000E+00 -0.00000000000E+00 -0.14871781969E+03  0.14871781969E+03  0.00000000000E+00 0. -1.
    9000007    2    1    2  501    0  0.98884396156E+02 -0.83918034108E+01  0.39780204918E+03  0.57279460201E+03  0.39999829949E+03 0.  0.
    9000005    1    3    3    0    0  0.15933513326E+03  0.33161043601E+01 -0.10649305177E+02  0.15972817201E+03  0.99999687468E+00 0.  0.
          4    1    3    3  501    0 -0.60450737100E+02 -0.11707907771E+02  0.40845135436E+03  0.41306643000E+03  0.00000000000E+00 0.  1.
   -9000007    1    1    2    0  503 -0.98884396156E+02  0.83918034108E+01  0.63236006657E+03  0.75480315312E+03  0.40000000000E+03 0. -1.
<mgrwt>
<rscale>  2 0.41212644E+03</rscale>
<asrwt>0</asrwt>
<pdfrwt beam="1">  1       21 0.18136614E+00 0.41212686E+03</pdfrwt>
<pdfrwt beam="2">  1       21 0.22879665E-01 0.41212686E+03</pdfrwt>
<totfact> 0.27728896E+03</totfact>
</mgrwt>
</event>
<event>
 6    1  0.8739326E-004  0.4487127E+03  0.7818608E-02  0.1028145E+00
         21   -1    0    0  501  502  0.00000000000E+00  0.00000000000E+00  0.22231783727E+03  0.22231783727E+03  0.00000000000E+00 0. -1.
         21   -1    0    0  502  503 -0.00000000000E+00 -0.00000000000E+00 -0.92314802712E+03  0.92314802712E+03  0.00000000000E+00 0. -1.
    9000007    2    1    2  501    0  0.87979727041E+02  0.18204661332E+03 -0.26946339955E+03  0.52340581137E+03  0.40057673159E+03 0.  0.
    9000005    1    3    3    0    0  0.15304598486E+03  0.26252288585E+03 -0.28753274018E+03  0.41835082854E+03  0.99999687468E+00 0.  0.
          4    1    3    3  501    0 -0.65066257819E+02 -0.80476272529E+02  0.18069340625E+02  0.10505498283E+03  0.00000000000E+00 0.  1.
   -9000007    1    1    2    0  503 -0.87979727041E+02 -0.18204661332E+03 -0.43136679029E+03  0.62206005302E+03  0.40000000000E+03 0. -1.
<mgrwt>
<rscale>  2 0.44858398E+03</rscale>
<asrwt>0</asrwt>
<pdfrwt beam="1">  1       21 0.34202744E-01 0.44871274E+03</pdfrwt>
<pdfrwt beam="2">  1       21 0.14202277E+00 0.44871274E+03</pdfrwt>
<totfact> 0.24459590E+03</totfact>
</mgrwt>
</event>
<event>
 6    1  0.8739326E-004  0.4370414E+03  0.7818608E-02  0.1031659E+00
         21   -1    0    0  501  502  0.00000000000E+00  0.00000000000E+00  0.58884940688E+03  0.58884940688E+03  0.00000000000E+00 0. -1.
         21   -1    0    0  502  503 -0.00000000000E+00 -0.00000000000E+00 -0.35964830280E+03  0.35964830280E+03  0.00000000000E+00 0. -1.
    9000007    2    1    2  501    0 -0.14980003558E+03  0.92547899154E+02 -0.33943758806E+02  0.43835029651E+03  0.39999204916E+03 0.  0.
    9000005    1    3    3    0    0 -0.10664453545E+02 -0.10835589143E+03 -0.13539864754E+03  0.17374844899E+03  0.99999687468E+00 0.  0.
          4    1    3    3  501    0 -0.13913558203E+03  0.20090379059E+03  0.10145488874E+03  0.26460184752E+03  0.00000000000E+00 0.  1.
   -9000007    1    1    2    0  503  0.14980003558E+03 -0.92547899154E+02  0.26314486289E+03  0.51014741317E+03  0.40000000000E+03 0. -1.
<mgrwt>
<rscale>  2 0.43703956E+03</rscale>
<asrwt>0</asrwt>
<pdfrwt beam="1">  1       21 0.90592216E-01 0.43704138E+03</pdfrwt>
<pdfrwt beam="2">  1       21 0.55330508E-01 0.43704138E+03</pdfrwt>
<totfact> 0.27818937E+03</totfact>
</mgrwt>
</event>
<event>
 6    1  0.8739326E-004  0.4945427E+03  0.7818608E-02  0.1015217E+00
         21   -1    0    0  501  502  0.00000000000E+00  0.00000000000E+00  0.11663985699E+04  0.11663985699E+04  0.00000000000E+00 0.  1.
         21   -1    0    0  502  503 -0.00000000000E+00 -0.00000000000E+00 -0.22802206210E+03  0.22802206210E+03  0.00000000000E+00 0.  1.
    9000007    2    1    2  501    0 -0.56999921553E+02 -0.28507499329E+03  0.66707452595E+03  0.83039801882E+03  0.40006962349E+03 0.  0.
    9000005    1    3    3    0    0  0.22054466156E+02  0.74511217463E+02  0.30226471039E+03  0.31209497937E+03  0.99999687468E+00 0.  0.
          4    1    3    3  501    0 -0.79054387710E+02 -0.35958621075E+03  0.36480981555E+03  0.51830303945E+03  0.00000000000E+00 0.  1.
   -9000007    1    1    2    0  503  0.56999921553E+02  0.28507499329E+03  0.27130198189E+03  0.56402261323E+03  0.40000000000E+03 0.  1.
<mgrwt>
<rscale>  2 0.49452858E+03</rscale>
<asrwt>0</asrwt>
<pdfrwt beam="1">  1       21 0.17944593E+00 0.49454266E+03</pdfrwt>
<pdfrwt beam="2">  1       21 0.35080318E-01 0.49454266E+03</pdfrwt>
<totfact> 0.11885730E+03</totfact>
</mgrwt>
</event>
<event>
 6    1  0.8739326E-004  0.4295025E+03  0.7818608E-02  0.1034023E+00
         21   -1    0    0  501  502  0.00000000000E+00  0.00000000000E+00  0.81394095341E+03  0.81394095341E+03  0.00000000000E+00 0. -1.
         21   -1    0    0  502  503 -0.00000000000E+00 -0.00000000000E+00 -0.82856807972E+03  0.82856807972E+03  0.00000000000E+00 0. -1.
    9000007    2    1    2  501    0  0.38717255968E+01 -0.15638852550E+03  0.69268815393E+03  0.81500237646E+03  0.39992453523E+03 0.  0.
    9000005    1    3    3    0    0  0.13231910003E+03 -0.23787486850E+03  0.50225555086E+03  0.57127439611E+03  0.99999687468E+00 0.  0.
          4    1    3    3  501    0 -0.12844737443E+03  0.81486342998E+02  0.19043260307E+03  0.24372798035E+03  0.00000000000E+00 0.  1.
   -9000007    1    1    2    0  503 -0.38717255968E+01  0.15638852550E+03 -0.70731528024E+03  0.82750665666E+03  0.40000000000E+03 0. -1.
<mgrwt>
<rscale>  2 0.42948489E+03</rscale>
<asrwt>0</asrwt>
<pdfrwt beam="1">  1       21 0.12522169E+00 0.42950246E+03</pdfrwt>
<pdfrwt beam="2">  1       21 0.12747201E+00 0.42950246E+03</pdfrwt>
<totfact> 0.17767783E+02</totfact>
</mgrwt>
</event>
<event>
 6    1  0.8739326E-004  0.5394544E+03  0.7818608E-02  0.1004050E+00
         21   -1    0    0  501  502  0.00000000000E+00  0.00000000000E+00  0.67779889309E+03  0.67779889309E+03  0.00000000000E+00 0.  1.
         21   -1    0    0  502  503 -0.00000000000E+00 -0.00000000000E+00 -0.98956194372E+03  0.98956194372E+03  0.00000000000E+00 0.  1.
    9000007    2    1    2  501    0 -0.17281141729E+03 -0.31803660889E+03  0.47212262961E+03  0.71578959395E+03  0.39805011604E+03 0.  0.
    9000005    1    3    3    0    0 -0.19341449512E+03  0.19861296756E+02  0.12629525206E+03  0.23185152300E+03  0.99999687468E+00 0.  0.
          4    1    3    3  501    0  0.20603077825E+02 -0.33789790564E+03  0.34582737755E+03  0.48393807095E+03  0.00000000000E+00 0.  1.
   -9000007    1    1    2    0  503  0.17281141729E+03  0.31803660889E+03 -0.78388568024E+03  0.95157124285E+03  0.40000000000E+03 0.  1.
<mgrwt>
<rscale>  2 0.53909300E+03</rscale>
<asrwt>0</asrwt>
<pdfrwt beam="1">  1       21 0.10427675E+00 0.53945442E+03</pdfrwt>
<pdfrwt beam="2">  1       21 0.15224030E+00 0.53945442E+03</pdfrwt>
<totfact> 0.16643744E+02</totfact>
</mgrwt>
</event>
<event>
 6    1  0.8739326E-004  0.4033446E+03  0.7818608E-02  0.1042695E+00
         21   -1    0    0  501  502  0.00000000000E+00  0.00000000000E+00  0.12200954060E+04  0.12200954060E+04  0.00000000000E+00 0.  1.
         21   -1    0    0  502  503 -0.00000000000E+00 -0.00000000000E+00 -0.15540218883E+03  0.15540218883E+03  0.00000000000E+00 0.  1.
    9000007    2    1    2  501    0  0.43613968348E+02  0.12466026846E+02  0.79343688093E+03  0.89007244096E+03  0.40078583567E+03 0.  0.
    9000005    1    3    3    0    0  0.15880006152E+03  0.14793866290E+03  0.34409049371E+03  0.40682007740E+03  0.99999687468E+00 0.  0.
          4    1    3    3  501    0 -0.11518609317E+03 -0.13547263605E+03  0.44934638722E+03  0.48325236356E+03  0.00000000000E+00 0.  1.
   -9000007    1    1    2    0  503 -0.43613968348E+02 -0.12466026846E+02  0.27125633624E+03  0.48542515387E+03  0.40000000000E+03 0.  1.
<mgrwt>
<rscale>  2 0.40314925E+03</rscale>
<asrwt>0</asrwt>
<pdfrwt beam="1">  1       21 0.18770698E+00 0.40334460E+03</pdfrwt>
<pdfrwt beam="2">  1       21 0.23908030E-01 0.40334460E+03</pdfrwt>
<totfact> 0.23117708E+03</totfact>
</mgrwt>
</event>
<event>
 6    1  0.8739326E-004  0.4287652E+03  0.7818608E-02  0.1034290E+00
         21   -1    0    0  501  502  0.00000000000E+00  0.00000000000E+00  0.57773409088E+03  0.57773409088E+03  0.00000000000E+00 0. -1.
         21   -1    0    0  502  503 -0.00000000000E+00 -0.00000000000E+00 -0.34150592598E+03  0.34150592598E+03  0.00000000000E+00 0. -1.
    9000007    2    1    2  501    0  0.70461572818E+02 -0.13738531989E+03 -0.29489243550E+01  0.42827643432E+03  0.39946520333E+03 0.  0.
    9000005    1    3    3    0    0  0.27604622853E+02 -0.26572660807E+02 -0.19702603415E+03  0.20071965433E+03  0.99999687468E+00 0.  0.
          4    1    3    3  501    0  0.42856949966E+02 -0.11081265908E+03  0.19407710980E+03  0.22755677999E+03  0.00000000000E+00 0.  1.
   -9000007    1    1    2    0  503 -0.70461572818E+02  0.13738531989E+03  0.23917708925E+03  0.49096358255E+03  0.40000000000E+03 0. -1.
<mgrwt>
<rscale>  2 0.42864038E+03</rscale>
<asrwt>0</asrwt>
<pdfrwt beam="1">  1       21 0.88882168E-01 0.42876516E+03</pdfrwt>
<pdfrwt beam="2">  1       21 0.52539373E-01 0.42876516E+03</pdfrwt>
<totfact> 0.32626500E+03</totfact>
</mgrwt>
</event>
<event>
 6    1  0.8739326E-004  0.7845366E+03  0.7818608E-02  0.9582694E-01
         21   -1    0    0  501  502  0.00000000000E+00  0.00000000000E+00  0.66665452000E+03  0.66665452000E+03  0.00000000000E+00 0.  1.
         21   -1    0    0  502  503 -0.00000000000E+00 -0.00000000000E+00 -0.12457097482E+04  0.12457097482E+04  0.00000000000E+00 0.  1.
    9000007    2    1    2  501    0  0.43925284649E+03  0.51240081114E+03 -0.77604468248E+03  0.11034745974E+04  0.39989146476E+03 0.  0.
    9000005    1    3    3    0    0  0.71777173378E+00  0.16709031634E+01  0.43135225183E+02  0.43185121963E+02  0.99999687468E+00 0.  0.
          4    1    3    3  501    0  0.43853507476E+03  0.51072990798E+03 -0.81917990767E+03  0.10602894755E+04  0.00000000000E+00 0.  1.
   -9000007    1    1    2    0  503 -0.43925284649E+03 -0.51240081114E+03  0.19698945425E+03  0.80888967078E+03  0.40000000000E+03 0.  1.
<mgrwt>
<rscale>  2 0.78452275E+03</rscale>
<asrwt>0</asrwt>
<pdfrwt beam="1">  1       21 0.10256223E+00 0.78453659E+03</pdfrwt>
<pdfrwt beam="2">  1       21 0.19164765E+00 0.78453659E+03</pdfrwt>
<totfact> 0.81348155E+01</totfact>
</mgrwt>
</event>
<event>
 6    1  0.8739326E-004  0.5309550E+03  0.7818608E-02  0.1006017E+00
         21   -1    0    0  501  502  0.00000000000E+00  0.00000000000E+00  0.12815358795E+04  0.12815358795E+04  0.00000000000E+00 0.  1.
         21   -1    0    0  502  503 -0.00000000000E+00 -0.00000000000E+00 -0.22151258507E+03  0.22151258507E+03  0.00000000000E+00 0. -1.
    9000007    2    1    2  501    0 -0.10005440323E+03  0.33409669891E+03  0.46544380149E+03  0.70608155105E+03  0.40035201580E+03 0.  0.
    9000005    1    3    3    0    0 -0.15524902465E+03  0.40884189800E+03  0.39739226768E+03  0.59091079836E+03  0.99999687468E+00 0.  0.
          4    1    3    3  501    0  0.55194621426E+02 -0.74745199085E+02  0.68051533819E+02  0.11517075269E+03  0.00000000000E+00 0.  1.
   -9000007    1    1    2    0  503  0.10005440323E+03 -0.33409669891E+03  0.59457949295E+03  0.79696691354E+03  0.40000000000E+03 0.  1.
<mgrwt>
<rscale>  2 0.53088865E+03</rscale>
<asrwt>0</asrwt>
<pdfrwt beam="1">  1       21 0.19715936E+00 0.53095501E+03</pdfrwt>
<pdfrwt beam="2">  1       21 0.34078860E-01 0.53095501E+03</pdfrwt>
<totfact> 0.93740708E+02</totfact>
</mgrwt>
</event>
<event>
 6    1  0.8739326E-004  0.4304451E+03  0.7818608E-02  0.1033748E+00
         21   -1    0    0  501  502  0.00000000000E+00  0.00000000000E+00  0.65615203930E+03  0.65615203930E+03  0.00000000000E+00 0. -1.
         21   -1    0    0  502  503 -0.00000000000E+00 -0.00000000000E+00 -0.28300800589E+03  0.28300800589E+03  0.00000000000E+00 0. -1.
    9000007    2    1    2  501    0  0.15033578209E+03 -0.51789484338E+02  0.21247021015E+03  0.47970485092E+03  0.39961250698E+03 0.  0.
    9000005    1    3    3    0    0 -0.47396601291E+02 -0.18339123156E+03  0.65679390485E+02  0.20048332588E+03  0.99999687468E+00 0.  0.
          4    1    3    3  501    0  0.19773238338E+03  0.13160174722E+03  0.14679081967E+03  0.27922152504E+03  0.00000000000E+00 0.  1.
   -9000007    1    1    2    0  503 -0.15033578209E+03  0.51789484338E+02  0.16067382325E+03  0.45945519427E+03  0.40000000000E+03 0. -1.
<mgrwt>
<rscale>  2 0.43035507E+03</rscale>
<asrwt>0</asrwt>
<pdfrwt beam="1">  1       21 0.10094647E+00 0.43044512E+03</pdfrwt>
<pdfrwt beam="2">  1       21 0.43539693E-01 0.43044512E+03</pdfrwt>
<totfact> 0.35750788E+03</totfact>
</mgrwt>
</event>
<event>
 6    1  0.8739326E-004  0.5365048E+03  0.7818608E-02  0.1004686E+00
         21   -1    0    0  501  502  0.00000000000E+00  0.00000000000E+00  0.97282751346E+03  0.97282751346E+03  0.00000000000E+00 0. -1.
         21   -1    0    0  502  503 -0.00000000000E+00 -0.00000000000E+00 -0.71729162889E+03  0.71729162889E+03  0.00000000000E+00 0.  1.
    9000007    2    1    2  501    0 -0.56056633542E+02  0.35312189535E+03  0.77561629741E+03  0.94291029942E+03  0.39957699236E+03 0.  0.
    9000005    1    3    3    0    0 -0.13441654062E+03  0.33371508967E+03  0.32407615767E+03  0.48421061888E+03  0.99999687468E+00 0.  0.
          4    1    3    3  501    0  0.78359907073E+02  0.19406805672E+02  0.45154013973E+03  0.45869968055E+03  0.00000000000E+00 0.  1.
   -9000007    1    1    2    0  503  0.56056633542E+02 -0.35312189535E+03 -0.52008041284E+03  0.74720884293E+03  0.40000000000E+03 0.  1.
<mgrwt>
<rscale>  2 0.53642597E+03</rscale>
<asrwt>0</asrwt>
<pdfrwt beam="1">  1       21 0.14966577E+00 0.53650482E+03</pdfrwt>
<pdfrwt beam="2">  1       21 0.11035256E+00 0.53650482E+03</pdfrwt>
<totfact> 0.15171070E+02</totfact>
</mgrwt>
</event>
<event>
 6    1  0.8739326E-004  0.4299816E+03  0.7818608E-02  0.1034035E+00
         21   -1    0    0  501  502  0.00000000000E+00  0.00000000000E+00  0.26677614092E+04  0.26677614092E+04  0.00000000000E+00 0.  1.
         21   -1    0    0  502  503 -0.00000000000E+00 -0.00000000000E+00 -0.51365658405E+03  0.51365658405E+03  0.00000000000E+00 0.  1.
    9000007    2    1    2  501    0  0.13925838090E+03  0.74102975778E+02  0.25567764790E+04  0.25923266519E+04  0.39770260110E+03 0.  0.
    9000005    1    3    3    0    0 -0.27813680106E+02  0.26705216696E+02  0.21460179486E+04  0.21463645555E+04  0.99999687468E+00 0.  0.
          4    1    3    3  501    0  0.16707206100E+03  0.47397759081E+02  0.41075853043E+03  0.44596209644E+03  0.00000000000E+00 0.  1.
   -9000007    1    1    2    0  503 -0.13925838090E+03 -0.74102975778E+02 -0.40267165384E+03  0.58909134137E+03  0.40000000000E+03 0.  1.
<mgrwt>
<rscale>  2 0.42944647E+03</rscale>
<asrwt>0</asrwt>
<pdfrwt beam="1">  1       21 0.41042482E+00 0.42998157E+03</pdfrwt>
<pdfrwt beam="2">  1       21 0.79024091E-01 0.42998157E+03</pdfrwt>
<totfact> 0.77040421E+00</totfact>
</mgrwt>
</event>
<event>
 6    1  0.8739326E-004  0.4645397E+03  0.7818608E-02  0.1023476E+00
         21   -1    0    0  501  502  0.00000000000E+00  0.00000000000E+00  0.42937040343E+03  0.42937040343E+03  0.00000000000E+00 0. -1.
         21   -1    0    0  502  503 -0.00000000000E+00 -0.00000000000E+00 -0.75367700445E+03  0.75367700445E+03  0.00000000000E+00 0. -1.
    9000007    2    1    2  501    0 -0.10971917355E+03 -0.20909860779E+03  0.17929345915E+03  0.49793898914E+03  0.40004570687E+03 0.  0.
    9000005    1    3    3    0    0 -0.15796109887E+03 -0.30863524568E+03  0.17215123046E+03  0.38709749389E+03  0.99999687468E+00 0.  0.
          4    1    3    3  501    0  0.48241925323E+02  0.99536637882E+02  0.71422286895E+01  0.11084149525E+03  0.00000000000E+00 0.  1.
   -9000007    1    1    2    0  503  0.10971917355E+03  0.20909860779E+03 -0.50360006017E+03  0.68510841874E+03  0.40000000000E+03 0. -1.
<mgrwt>
<rscale>  2 0.46452982E+03</rscale>
<asrwt>0</asrwt>
<pdfrwt beam="1">  1       21 0.66056986E-01 0.46453966E+03</pdfrwt>
<pdfrwt beam="2">  1       21 0.11595031E+00 0.46453966E+03</pdfrwt>
<totfact> 0.10210735E+03</totfact>
</mgrwt>
</event>
<event>
 6    1  0.8739326E-004  0.4056828E+03  0.7818608E-02  0.1041857E+00
         21   -1    0    0  501  502  0.00000000000E+00  0.00000000000E+00  0.16939626210E+03  0.16939626210E+03  0.00000000000E+00 0.  1.
         21   -1    0    0  502  503 -0.00000000000E+00 -0.00000000000E+00 -0.10062716920E+04  0.10062716920E+04  0.00000000000E+00 0.  1.
    9000007    2    1    2  501    0  0.64064420009E+02 -0.14678186100E+02 -0.30822271771E+03  0.50948975784E+03  0.40032345744E+03 0.  0.
    9000005    1    3    3    0    0 -0.14183229963E+03  0.95565170272E+02 -0.14897234023E+03  0.22681018746E+03  0.99999687468E+00 0.  0.
          4    1    3    3  501    0  0.20589671964E+03 -0.11024335637E+03 -0.15925037748E+03  0.28267957038E+03  0.00000000000E+00 0.  1.
   -9000007    1    1    2    0  503 -0.64064420009E+02  0.14678186100E+02 -0.52865271216E+03  0.66617819623E+03  0.40000000000E+03 0.  1.
<mgrwt>
<rscale>  2 0.40560302E+03</rscale>
<asrwt>0</asrwt>
<pdfrwt beam="1">  1       21 0.26060964E-01 0.40568284E+03</pdfrwt>
<pdfrwt beam="2">  1       21 0.15481103E+00 0.40568284E+03</pdfrwt>
<totfact> 0.33803972E+03</totfact>
</mgrwt>
</event>
<event>
 6    1  0.8739326E-004  0.4207581E+03  0.7818608E-02  0.1037019E+00
         21   -1    0    0  501  502  0.00000000000E+00  0.00000000000E+00  0.43623326367E+03  0.43623326367E+03  0.00000000000E+00 0.  1.
         21   -1    0    0  502  503 -0.00000000000E+00 -0.00000000000E+00 -0.45392484258E+03  0.45392484258E+03  0.00000000000E+00 0.  1.
    9000007    2    1    2  501    0 -0.75170193908E+02  0.10670896711E+03  0.13954831335E+03  0.44097913809E+03  0.39743113461E+03 0.  0.
    9000005    1    3    3    0    0 -0.21649769171E+03 -0.10664242783E+01  0.24554386763E+01  0.21651655121E+03  0.99999687468E+00 0.  0.
          4    1    3    3  501    0  0.14132749780E+03  0.10777539139E+03  0.13709287468E+03  0.22446258688E+03  0.00000000000E+00 0.  1.
   -9000007    1    1    2    0  503  0.75170193908E+02 -0.10670896711E+03 -0.15723989227E+03  0.44917896816E+03  0.40000000000E+03 0.  1.
<mgrwt>
<rscale>  2 0.42014640E+03</rscale>
<asrwt>0</asrwt>
<pdfrwt beam="1">  1       21 0.67112810E-01 0.42075808E+03</pdfrwt>
<pdfrwt beam="2">  1       21 0.69834591E-01 0.42075808E+03</pdfrwt>
<totfact> 0.33386159E+03</totfact>
</mgrwt>
</event>
<event>
 6    1  0.8739326E-004  0.5059097E+03  0.7818608E-02  0.1012456E+00
         21   -1    0    0  501  502  0.00000000000E+00  0.00000000000E+00  0.54802207201E+03  0.54802207201E+03  0.00000000000E+00 0.  1.
         21   -1    0    0  502  503 -0.00000000000E+00 -0.00000000000E+00 -0.76473687114E+03  0.76473687114E+03  0.00000000000E+00 0. -1.
    9000007    2    1    2  501    0 -0.61221839404E+02 -0.30363870491E+03  0.30343060427E+03  0.58715862795E+03  0.39590471838E+03 0.  0.
    9000005    1    3    3    0    0 -0.17617736120E+03 -0.30215024973E+03  0.11828463970E+03  0.36922282161E+03  0.99999687468E+00 0.  0.
          4    1    3    3  501    0  0.11495552179E+03 -0.14884551710E+01  0.18514596458E+03  0.21793580635E+03  0.00000000000E+00 0.  1.
   -9000007    1    1    2    0  503  0.61221839404E+02  0.30363870491E+03 -0.52014540340E+03  0.72560031520E+03  0.40000000000E+03 0. -1.
<mgrwt>
<rscale>  2 0.50509978E+03</rscale>
<asrwt>0</asrwt>
<pdfrwt beam="1">  1       21 0.84311088E-01 0.50590965E+03</pdfrwt>
<pdfrwt beam="2">  1       21 0.11765183E+00 0.50590965E+03</pdfrwt>
<totfact> 0.55456193E+02</totfact>
</mgrwt>
</event>
<event>
 6    1  0.8739326E-004  0.4071346E+03  0.7818608E-02  0.1041434E+00
         21   -1    0    0  501  502  0.00000000000E+00  0.00000000000E+00  0.32814241555E+03  0.32814241555E+03  0.00000000000E+00 0. -1.
         21   -1    0    0  502  503 -0.00000000000E+00 -0.00000000000E+00 -0.66255615897E+03  0.66255615897E+03  0.00000000000E+00 0. -1.
    9000007    2    1    2  501    0  0.39328802234E+02 -0.64898819330E+02  0.75508381538E+02  0.41294883634E+03  0.39883156133E+03 0.  0.
    9000005    1    3    3    0    0  0.38448990549E+02 -0.22646409614E+03  0.98159452199E+02  0.24980110040E+03  0.99999687468E+00 0.  0.
          4    1    3    3  501    0  0.87981168558E+00  0.16156527681E+03 -0.22651070661E+02  0.16314773593E+03  0.00000000000E+00 0.  1.
   -9000007    1    1    2    0  503 -0.39328802234E+02  0.64898819330E+02 -0.40992212496E+03  0.57774973818E+03  0.40000000000E+03 0. -1.
<mgrwt>
<rscale>  2 0.40684736E+03</rscale>
<asrwt>0</asrwt>
<pdfrwt beam="1">  1       21 0.50483449E-01 0.40713464E+03</pdfrwt>
<pdfrwt beam="2">  1       21 0.10193172E+00 0.40713464E+03</pdfrwt>
<totfact> 0.25802958E+03</totfact>
</mgrwt>
</event>
<event>
 6    1  0.8739326E-004  0.5545326E+03  0.7818608E-02  0.1000469E+00
         21   -1    0    0  501  502  0.00000000000E+00  0.00000000000E+00  0.25450539909E+04  0.25450539909E+04  0.00000000000E+00 0. -1.
         21   -1    0    0  502  503 -0.00000000000E+00 -0.00000000000E+00 -0.62174798891E+03  0.62174798891E+03  0.00000000000E+00 0.  1.
    9000007    2    1    2  501    0 -0.29097992324E+03 -0.25067335149E+03  0.23829447693E+04  0.24465421369E+04  0.39954500256E+03 0.  0.
    9000005    1    3    3    0    0 -0.10179590250E+03 -0.86270914249E+02  0.18787904028E+04  0.18835231493E+04  0.99999687468E+00 0.  0.
          4    1    3    3  501    0 -0.18918402074E+03 -0.16440243724E+03  0.50415436654E+03  0.56301898758E+03  0.00000000000E+00 0.  1.
   -9000007    1    1    2    0  503  0.29097992324E+03  0.25067335149E+03 -0.45963876734E+03  0.72025984292E+03  0.40000000000E+03 0.  1.
<mgrwt>
<rscale>  2 0.55445059E+03</rscale>
<asrwt>0</asrwt>
<pdfrwt beam="1">  1       21 0.39154676E+00 0.55453264E+03</pdfrwt>
<pdfrwt beam="2">  1       21 0.95653538E-01 0.55453264E+03</pdfrwt>
<totfact> 0.59121926E+00</totfact>
</mgrwt>
</event>
<event>
 6    1  0.8739326E-004  0.4157717E+03  0.7818608E-02  0.1038458E+00
         21   -1    0    0  501  502  0.00000000000E+00  0.00000000000E+00  0.12713181220E+04  0.12713181220E+04  0.00000000000E+00 0.  1.
         21   -1    0    0  502  503 -0.00000000000E+00 -0.00000000000E+00 -0.19236195924E+03  0.19236195924E+03  0.00000000000E+00 0.  1.
    9000007    2    1    2  501    0 -0.94120592091E+02 -0.63304259403E+02  0.93576725159E+03  0.10239424556E+04  0.39991460107E+03 0.  0.
    9000005    1    3    3    0    0  0.12064931747E+03  0.90917037168E+02  0.32470950139E+03  0.35813325138E+03  0.99999687468E+00 0.  0.
          4    1    3    3  501    0 -0.21476990957E+03 -0.15422129657E+03  0.61105775020E+03  0.66580920424E+03  0.00000000000E+00 0.  1.
   -9000007    1    1    2    0  503  0.94120592091E+02  0.63304259403E+02  0.14318891117E+03  0.43973762563E+03  0.40000000000E+03 0.  1.
<mgrwt>
<rscale>  2 0.41575117E+03</rscale>
<asrwt>0</asrwt>
<pdfrwt beam="1">  1       21 0.19558740E+00 0.41577171E+03</pdfrwt>
<pdfrwt beam="2">  1       21 0.29594148E-01 0.41577171E+03</pdfrwt>
<totfact> 0.13386788E+03</totfact>
</mgrwt>
</event>
<event>
 6    1  0.8739326E-004  0.4080713E+03  0.7818608E-02  0.1041147E+00
         21   -1    0    0  501  502  0.00000000000E+00  0.00000000000E+00  0.11917856583E+04  0.11917856583E+04  0.00000000000E+00 0. -1.
         21   -1    0    0  502  503 -0.00000000000E+00 -0.00000000000E+00 -0.18324845902E+03  0.18324845902E+03  0.00000000000E+00 0. -1.
    9000007    2    1    2  501    0 -0.30396949964E+01  0.72715080389E+02  0.84201261945E+03  0.93568555599E+03  0.40152893509E+03 0.  0.
    9000005    1    3    3    0    0  0.15636624670E+03  0.79867468378E+02  0.16788735457E+03  0.24293287021E+03  0.99999687468E+00 0.  0.
          4    1    3    3  501    0 -0.15940594169E+03 -0.71523879891E+01  0.67412526488E+03  0.69275268578E+03  0.00000000000E+00 0.  1.
   -9000007    1    1    2    0  503  0.30396949964E+01 -0.72715080389E+02  0.16652457983E+03  0.43934856134E+03  0.40000000000E+03 0. -1.
<mgrwt>
<rscale>  2 0.40769472E+03</rscale>
<asrwt>0</asrwt>
<pdfrwt beam="1">  1       21 0.18335163E+00 0.40807133E+03</pdfrwt>
<pdfrwt beam="2">  1       21 0.28192071E-01 0.40807133E+03</pdfrwt>
<totfact> 0.17924315E+03</totfact>
</mgrwt>
</event>
<event>
 6    1  0.8739326E-004  0.4465456E+03  0.7818608E-02  0.1028758E+00
         21   -1    0    0  501  502  0.00000000000E+00  0.00000000000E+00  0.11116436613E+04  0.11116436613E+04  0.00000000000E+00 0.  1.
         21   -1    0    0  502  503 -0.00000000000E+00 -0.00000000000E+00 -0.20036731548E+03  0.20036731548E+03  0.00000000000E+00 0.  1.
    9000007    2    1    2  501    0 -0.13712049497E+03  0.14350351260E+03  0.24329695482E+03  0.50852373042E+03  0.40000960977E+03 0.  0.
    9000005    1    3    3    0    0 -0.10199037515E+03 -0.12634466449E+03  0.14941261988E+03  0.22065842799E+03  0.99999687468E+00 0.  0.
          4    1    3    3  501    0 -0.35130119819E+02  0.26984817709E+03  0.93884334935E+02  0.28786530243E+03  0.00000000000E+00 0.  1.
   -9000007    1    1    2    0  503  0.13712049497E+03 -0.14350351260E+03  0.66797939101E+03  0.80348724638E+03  0.40000000000E+03 0.  1.
<mgrwt>
<rscale>  2 0.44654345E+03</rscale>
<asrwt>0</asrwt>
<pdfrwt beam="1">  1       21 0.17102210E+00 0.44654560E+03</pdfrwt>
<pdfrwt beam="2">  1       21 0.30825741E-01 0.44654560E+03</pdfrwt>
<totfact> 0.18064833E+03</totfact>
</mgrwt>
</event>
<event>
 6    1  0.8739326E-004  0.4561869E+03  0.7818608E-02  0.1025896E+00
         21   -1    0    0  501  502  0.00000000000E+00  0.00000000000E+00  0.21325693618E+03  0.21325693618E+03  0.00000000000E+00 0.  1.
         21   -1    0    0  502  503 -0.00000000000E+00 -0.00000000000E+00 -0.25497204375E+04  0.25497204375E+04  0.00000000000E+00 0.  1.
    9000007    2    1    2  501    0 -0.12696360870E+03 -0.17873643531E+03 -0.82831163362E+02  0.46364590869E+03  0.40005006659E+03 0.  0.
    9000005    1    3    3    0    0  0.90488866843E+02  0.63273855037E+02  0.37707237398E+02  0.11668183877E+03  0.99999687468E+00 0.  0.
          4    1    3    3  501    0 -0.21745247555E+03 -0.24201029034E+03 -0.12053840076E+03  0.34696406991E+03  0.00000000000E+00 0.  1.
   -9000007    1    1    2    0  503  0.12696360870E+03  0.17873643531E+03 -0.22536323380E+04  0.22993314650E+04  0.40000000000E+03 0.  1.
<mgrwt>
<rscale>  2 0.45617597E+03</rscale>
<asrwt>0</asrwt>
<pdfrwt beam="1">  1       21 0.32808759E-01 0.45618694E+03</pdfrwt>
<pdfrwt beam="2">  1       21 0.39226469E+00 0.45618694E+03</pdfrwt>
<totfact> 0.64785070E+01</totfact>
</mgrwt>
</event>
<event>
 6    1  0.8739326E-004  0.4098819E+03  0.7818608E-02  0.1040517E+00
         21   -1    0    0  501  502  0.00000000000E+00  0.00000000000E+00  0.85328891245E+03  0.85328891245E+03  0.00000000000E+00 0.  1.
         21   -1    0    0  502  503 -0.00000000000E+00 -0.00000000000E+00 -0.78008929564E+03  0.78008929564E+03  0.00000000000E+00 0.  1.
    9000007    2    1    2  501    0 -0.23535891166E+02  0.80093416939E+02  0.74312526061E+03  0.84866854087E+03  0.40129072465E+03 0.  0.
    9000005    1    3    3    0    0 -0.14581032699E+02  0.64060643983E+02 -0.32167590177E+02  0.73158229022E+02  0.99999687468E+00 0.  0.
          4    1    3    3  501    0 -0.89548584664E+01  0.16032772956E+02  0.77529285078E+03  0.77551031184E+03  0.00000000000E+00 0.  1.
   -9000007    1    1    2    0  503  0.23535891166E+02 -0.80093416939E+02 -0.66992564380E+03  0.78470966722E+03  0.40000000000E+03 0.  1.
<mgrwt>
<rscale>  2 0.40956560E+03</rscale>
<asrwt>0</asrwt>
<pdfrwt beam="1">  1       21 0.13127522E+00 0.40988186E+03</pdfrwt>
<pdfrwt beam="2">  1       21 0.12001374E+00 0.40988186E+03</pdfrwt>
<totfact> 0.18554174E+02</totfact>
</mgrwt>
</event>
<event>
 6    1  0.8739326E-004  0.4352018E+03  0.7818608E-02  0.1032333E+00
         21   -1    0    0  501  502  0.00000000000E+00  0.00000000000E+00  0.10720884184E+04  0.10720884184E+04  0.00000000000E+00 0.  1.
         21   -1    0    0  502  503 -0.00000000000E+00 -0.00000000000E+00 -0.23343074082E+03  0.23343074082E+03  0.00000000000E+00 0.  1.
    9000007    2    1    2  501    0  0.13764405378E+03 -0.96432788052E+02  0.74323502030E+03  0.86127750012E+03  0.40144173756E+03 0.  0.
    9000005    1    3    3    0    0  0.26624473559E+02 -0.18646535282E+03  0.12341596575E+03  0.22519034391E+03  0.99999687468E+00 0.  0.
          4    1    3    3  501    0  0.11101958022E+03  0.90032564766E+02  0.61981905455E+03  0.63608715621E+03  0.00000000000E+00 0.  1.
   -9000007    1    1    2    0  503 -0.13764405378E+03  0.96432788052E+02  0.95422657266E+02  0.44424165909E+03  0.40000000000E+03 0.  1.
<mgrwt>
<rscale>  2 0.43486907E+03</rscale>
<asrwt>0</asrwt>
<pdfrwt beam="1">  1       21 0.16493668E+00 0.43520183E+03</pdfrwt>
<pdfrwt beam="2">  1       21 0.35912422E-01 0.43520183E+03</pdfrwt>
<totfact> 0.14795263E+03</totfact>
</mgrwt>
</event>
<event>
 6    1  0.8739326E-004  0.5567336E+03  0.7818608E-02  0.9999507E-01
         21   -1    0    0  501  502  0.00000000000E+00  0.00000000000E+00  0.45298534139E+03  0.45298534139E+03  0.00000000000E+00 0.  1.
         21   -1    0    0  502  503 -0.00000000000E+00 -0.00000000000E+00 -0.12657631898E+04  0.12657631898E+04  0.00000000000E+00 0.  1.
    9000007    2    1    2  501    0  0.38282653695E+03 -0.57701167561E+02  0.17612589578E+03  0.58392863472E+03  0.40008341274E+03 0.  0.
    9000005    1    3    3    0    0  0.54541420767E+02 -0.42544193877E+02 -0.12197934353E+03  0.14023100675E+03  0.99999687468E+00 0.  0.
          4    1    3    3  501    0  0.32828511618E+03 -0.15156973683E+02  0.29810523932E+03  0.44369762797E+03  0.00000000000E+00 0.  1.
   -9000007    1    1    2    0  503 -0.38282653695E+03  0.57701167561E+02 -0.98890374415E+03  0.11348198964E+04  0.40000000000E+03 0.  1.
<mgrwt>
<rscale>  2 0.55671863E+03</rscale>
<asrwt>0</asrwt>
<pdfrwt beam="1">  1       21 0.69690053E-01 0.55673362E+03</pdfrwt>
<pdfrwt beam="2">  1       21 0.19473280E+00 0.55673362E+03</pdfrwt>
<totfact> 0.20955384E+02</totfact>
</mgrwt>
</event>
<event>
 6    1  0.8739326E-004  0.5169037E+03  0.7818608E-02  0.1009510E+00
         21   -1    0    0  501  502  0.00000000000E+00  0.00000000000E+00  0.40890839027E+03  0.40890839027E+03  0.00000000000E+00 0.  1.
         21   -1    0    0  502  503 -0.00000000000E+00 -0.00000000000E+00 -0.65362805368E+03  0.65362805368E+03  0.00000000000E+00 0.  1.
    9000007    2    1    2  501    0 -0.91842467196E+02  0.31425217924E+03 -0.99012317267E+02  0.52548886537E+03  0.39893061767E+03 0.  0.
    9000005    1    3    3    0    0 -0.17198821890E+03 -0.19221979521E+02 -0.36478097283E+02  0.17686459090E+03  0.99999687468E+00 0.  0.
          4    1    3    3  501    0  0.80145751707E+02  0.33347415877E+03 -0.62534219984E+02  0.34862427447E+03  0.00000000000E+00 0.  1.
   -9000007    1    1    2    0  503  0.91842467196E+02 -0.31425217924E+03 -0.14570734614E+03  0.53704757858E+03  0.40000000000E+03 0.  1.
<mgrwt>
<rscale>  2 0.51669684E+03</rscale>
<asrwt>0</asrwt>
<pdfrwt beam="1">  1       21 0.62908983E-01 0.51690373E+03</pdfrwt>
<pdfrwt beam="2">  1       21 0.10055816E+00 0.51690373E+03</pdfrwt>
<totfact> 0.15892189E+03</totfact>
</mgrwt>
</event>
<event>
 6    1  0.8739326E-004  0.4658444E+03  0.7818608E-02  0.1023155E+00
         21   -1    0    0  501  502  0.00000000000E+00  0.00000000000E+00  0.17920731521E+04  0.17920731521E+04  0.00000000000E+00 0. -1.
         21   -1    0    0  502  503 -0.00000000000E+00 -0.00000000000E+00 -0.12897116673E+03  0.12897116673E+03  0.00000000000E+00 0.  1.
    9000007    2    1    2  501    0 -0.23739546587E+03 -0.25581992463E+02  0.59055513590E+03  0.75169929282E+03  0.39910576635E+03 0.  0.
    9000005    1    3    3    0    0 -0.24447628090E+03 -0.20755382053E+01  0.64618675572E+03  0.69089165796E+03  0.99999687468E+00 0.  0.
          4    1    3    3  501    0  0.70808150319E+01 -0.23506454258E+02 -0.55631619817E+02  0.60807634856E+02  0.00000000000E+00 0.  1.
   -9000007    1    1    2    0  503  0.23739546587E+03  0.25581992463E+02  0.10725468494E+04  0.11693450260E+04  0.40000000000E+03 0. -1.
<mgrwt>
<rscale>  2 0.46565242E+03</rscale>
<asrwt>0</asrwt>
<pdfrwt beam="1">  1       21 0.27570354E+00 0.46584444E+03</pdfrwt>
<pdfrwt beam="2">  1       21 0.19841719E-01 0.46584444E+03</pdfrwt>
<totfact> 0.88963378E+02</totfact>
</mgrwt>
</event>
<event>
 6    1  0.8739326E-004  0.1128473E+04  0.7818608E-02  0.9177897E-01
         21   -1    0    0  501  502  0.00000000000E+00  0.00000000000E+00  0.74467073652E+03  0.74467073652E+03  0.00000000000E+00 0. -1.
         21   -1    0    0  502  503 -0.00000000000E+00 -0.00000000000E+00 -0.18465352550E+04  0.18465352550E+04  0.00000000000E+00 0.  1.
    9000007    2    1    2  501    0 -0.58118840603E+03 -0.88061212348E+03 -0.19859214543E+03  0.11458137765E+04  0.40024079616E+03 0.  0.
    9000005    1    3    3    0    0 -0.97731949532E+02 -0.23490420367E+02  0.73847047205E+02  0.12473059041E+03  0.99999687468E+00 0.  0.
          4    1    3    3  501    0 -0.48345645650E+03 -0.85712170311E+03 -0.27243919263E+03  0.10210831861E+04  0.00000000000E+00 0.  1.
   -9000007    1    1    2    0  503  0.58118840603E+03  0.88061212348E+03 -0.90327237309E+03  0.14453922150E+04  0.40000000000E+03 0.  1.
<mgrwt>
<rscale>  2 0.11284512E+04</rscale>
<asrwt>0</asrwt>
<pdfrwt beam="1">  1       21 0.11456473E+00 0.11284726E+04</pdfrwt>
<pdfrwt beam="2">  1       21 0.28408234E+00 0.11284726E+04</pdfrwt>
<totfact> 0.14019166E+01</totfact>
</mgrwt>
</event>
<event>
 6    1  0.8739326E-004  0.4619561E+03  0.7818608E-02  0.1024240E+00
         21   -1    0    0  501  502  0.00000000000E+00  0.00000000000E+00  0.75453660913E+02  0.75453660913E+02  0.00000000000E+00 0. -1.
         21   -1    0    0  502  503 -0.00000000000E+00 -0.00000000000E+00 -0.36905603848E+04  0.36905603848E+04  0.00000000000E+00 0. -1.
    9000007    2    1    2  501    0 -0.95467603954E+02 -0.21045033255E+03 -0.89575468789E+03  0.10077031674E+04  0.39960706549E+03 0.  0.
    9000005    1    3    3    0    0  0.55745518133E+02 -0.27984657739E+03 -0.66107836785E+03  0.72003283127E+03  0.99999687468E+00 0.  0.
          4    1    3    3  501    0 -0.15121312209E+03  0.69396244842E+02 -0.23467632003E+03  0.28767033610E+03  0.00000000000E+00 0.  1.
   -9000007    1    1    2    0  503  0.95467603954E+02  0.21045033255E+03 -0.27193520360E+04  0.27583108784E+04  0.40000000000E+03 0. -1.
<mgrwt>
<rscale>  2 0.46187099E+03</rscale>
<asrwt>0</asrwt>
<pdfrwt beam="1">  1       21 0.11608257E-01 0.46195606E+03</pdfrwt>
<pdfrwt beam="2">  1       21 0.56777844E+00 0.46195606E+03</pdfrwt>
<totfact> 0.27660593E+01</totfact>
</mgrwt>
</event>
<event>
 6    1  0.8739326E-004  0.5823061E+03  0.7818608E-02  0.9943183E-01
         21   -1    0    0  501  502  0.00000000000E+00  0.00000000000E+00  0.58725965944E+03  0.58725965944E+03  0.00000000000E+00 0.  1.
         21   -1    0    0  502  503 -0.00000000000E+00 -0.00000000000E+00 -0.64875753710E+03  0.64875753710E+03  0.00000000000E+00 0.  1.
    9000007    2    1    2  501    0  0.38783459693E+03  0.16930649132E+03 -0.23668311627E+03  0.62792984229E+03  0.39899451968E+03 0.  0.
    9000005    1    3    3    0    0  0.19908226614E+03 -0.12271684156E+03 -0.98504237675E+02  0.25376614575E+03  0.99999687468E+00 0.  0.
          4    1    3    3  501    0  0.18875233079E+03  0.29202333288E+03 -0.13817887859E+03  0.37416369654E+03  0.00000000000E+00 0.  1.
   -9000007    1    1    2    0  503 -0.38783459693E+03 -0.16930649132E+03  0.17518523860E+03  0.60808735425E+03  0.40000000000E+03 0.  1.
<mgrwt>
<rscale>  2 0.58213344E+03</rscale>
<asrwt>0</asrwt>
<pdfrwt beam="1">  1       21 0.90347640E-01 0.58230607E+03</pdfrwt>
<pdfrwt beam="2">  1       21 0.99808851E-01 0.58230607E+03</pdfrwt>
<totfact> 0.68977230E+02</totfact>
</mgrwt>
</event>
<event>
 6    1  0.8739326E-004  0.4817489E+03  0.7818608E-02  0.1018668E+00
         21   -1    0    0  501  502  0.00000000000E+00  0.00000000000E+00  0.13084074076E+04  0.13084074076E+04  0.00000000000E+00 0. -1.
         21   -1    0    0  502  503 -0.00000000000E+00 -0.00000000000E+00 -0.19704778177E+03  0.19704778177E+03  0.00000000000E+00 0.  1.
    9000007    2    1    2  501    0 -0.55295664354E+02 -0.26239797732E+03  0.79399375860E+03  0.92871313029E+03  0.40021454333E+03 0.  0.
    9000005    1    3    3    0    0  0.15859569618E+03 -0.29497258940E+02  0.32850281441E+03  0.36597511145E+03  0.99999687468E+00 0.  0.
          4    1    3    3  501    0 -0.21389136053E+03 -0.23290071838E+03  0.46549094418E+03  0.56273801884E+03  0.00000000000E+00 0.  1.
   -9000007    1    1    2    0  503  0.55295664354E+02  0.26239797732E+03  0.31736586720E+03  0.57674205904E+03  0.40000000000E+03 0.  1.
<mgrwt>
<rscale>  2 0.48170433E+03</rscale>
<asrwt>0</asrwt>
<pdfrwt beam="1">  1       21 0.20129344E+00 0.48174889E+03</pdfrwt>
<pdfrwt beam="2">  1       21 0.30315044E-01 0.48174889E+03</pdfrwt>
<totfact> 0.11344543E+03</totfact>
</mgrwt>
</event>
<event>
 6    1  0.8739326E-004  0.7333365E+03  0.7818608E-02  0.9661930E-01
         21   -1    0    0  501  502  0.00000000000E+00  0.00000000000E+00  0.14029672394E+04  0.14029672394E+04  0.00000000000E+00 0. -1.
         21   -1    0    0  502  503 -0.00000000000E+00 -0.00000000000E+00 -0.43906854915E+03  0.43906854915E+03  0.00000000000E+00 0. -1.
    9000007    2    1    2  501    0 -0.57896758222E+03 -0.20574597022E+03  0.81044863552E+03  0.10929818621E+04  0.40030924851E+03 0.  0.
    9000005    1    3    3    0    0 -0.37994389335E+03 -0.30023298336E+02  0.20701114415E+03  0.43372038727E+03  0.99999687468E+00 0.  0.
          4    1    3    3  501    0 -0.19902368887E+03 -0.17572267189E+03  0.60343749137E+03  0.65926147479E+03  0.00000000000E+00 0.  1.
   -9000007    1    1    2    0  503  0.57896758222E+03  0.20574597022E+03  0.15345005477E+03  0.74905392652E+03  0.40000000000E+03 0. -1.
<mgrwt>
<rscale>  2 0.73329426E+03</rscale>
<asrwt>0</asrwt>
<pdfrwt beam="1">  1       21 0.21584111E+00 0.73333646E+03</pdfrwt>
<pdfrwt beam="2">  1       21 0.67549008E-01 0.73333646E+03</pdfrwt>
<totfact> 0.15217342E+02</totfact>
</mgrwt>
</event>
<event>
 6    1  0.8739326E-004  0.4119895E+03  0.7818608E-02  0.1039809E+00
         21   -1    0    0  501  502  0.00000000000E+00  0.00000000000E+00  0.31225174259E+03  0.31225174259E+03  0.00000000000E+00 0. -1.
         21   -1    0    0  502  503 -0.00000000000E+00 -0.00000000000E+00 -0.89151282890E+03  0.89151282890E+03  0.00000000000E+00 0. -1.
    9000007    2    1    2  501    0  0.49675794267E+02  0.85250556063E+02  0.87519821528E+02  0.41997115426E+03  0.39872385106E+03 0.  0.
    9000005    1    3    3    0    0 -0.73839050242E+02  0.10646751939E+03 -0.12061297268E+03  0.17701984973E+03  0.99999687468E+00 0.  0.
          4    1    3    3  501    0  0.12351484451E+03 -0.21216963325E+02  0.20813279421E+03  0.24295130453E+03  0.00000000000E+00 0.  1.
   -9000007    1    1    2    0  503 -0.49675794267E+02 -0.85250556063E+02 -0.66678090783E+03  0.78379341723E+03  0.40000000000E+03 0. -1.
<mgrwt>
<rscale>  2 0.41167942E+03</rscale>
<asrwt>0</asrwt>
<pdfrwt beam="1">  1       21 0.48038729E-01 0.41198949E+03</pdfrwt>
<pdfrwt beam="2">  1       21 0.13715582E+00 0.41198949E+03</pdfrwt>
<totfact> 0.13519320E+03</totfact>
</mgrwt>
</event>
<event>
 6    1  0.8739326E-004  0.4170521E+03  0.7818608E-02  0.1038037E+00
         21   -1    0    0  501  502  0.00000000000E+00  0.00000000000E+00  0.78066992687E+03  0.78066992687E+03  0.00000000000E+00 0.  1.
         21   -1    0    0  502  503 -0.00000000000E+00 -0.00000000000E+00 -0.35672799855E+03  0.35672799855E+03  0.00000000000E+00 0.  1.
    9000007    2    1    2  501    0  0.10971678037E+03 -0.42656304568E+02  0.56050647730E+03  0.69864149156E+03  0.40009385201E+03 0.  0.
    9000005    1    3    3    0    0 -0.93466387658E+02 -0.15740571913E+03  0.26569206924E+03  0.32265430679E+03  0.99999687468E+00 0.  0.
          4    1    3    3  501    0  0.20318316803E+03  0.11474941456E+03  0.29481440806E+03  0.37598718478E+03  0.00000000000E+00 0.  1.
   -9000007    1    1    2    0  503 -0.10971678037E+03  0.42656304568E+02 -0.13656454899E+03  0.43875643386E+03  0.40000000000E+03 0.  1.
<mgrwt>
<rscale>  2 0.41702955E+03</rscale>
<asrwt>0</asrwt>
<pdfrwt beam="1">  1       21 0.12010307E+00 0.41705206E+03</pdfrwt>
<pdfrwt beam="2">  1       21 0.54881231E-01 0.41705206E+03</pdfrwt>
<totfact> 0.14306468E+03</totfact>
</mgrwt>
</event>
<event>
 6    1  0.8739326E-004  0.4447814E+03  0.7818608E-02  0.1029311E+00
         21   -1    0    0  501  502  0.00000000000E+00  0.00000000000E+00  0.82779836522E+03  0.82779836522E+03  0.00000000000E+00 0.  1.
         21   -1    0    0  502  503 -0.00000000000E+00 -0.00000000000E+00 -0.23883460103E+03  0.23883460103E+03  0.00000000000E+00 0.  1.
    9000007    2    1    2  501    0 -0.34544461733E+01  0.19382296684E+03  0.29628414434E+03  0.53442940036E+03  0.40031389448E+03 0.  0.
    9000005    1    3    3    0    0  0.17118447466E+03  0.64111197746E+02  0.25380267314E+03  0.31277974188E+03  0.99999687468E+00 0.  0.
          4    1    3    3  501    0 -0.17463892083E+03  0.12971176909E+03  0.42481471198E+02  0.22164965848E+03  0.00000000000E+00 0.  1.
   -9000007    1    1    2    0  503  0.34544461733E+01 -0.19382296684E+03  0.29267961985E+03  0.53220356589E+03  0.40000000000E+03 0.  1.
<mgrwt>
<rscale>  2 0.44471076E+03</rscale>
<asrwt>0</asrwt>
<pdfrwt beam="1">  1       21 0.12735359E+00 0.44478140E+03</pdfrwt>
<pdfrwt beam="2">  1       21 0.36743785E-01 0.44478140E+03</pdfrwt>
<totfact> 0.28195159E+03</totfact>
</mgrwt>
</event>
<event>
 6    1  0.8739326E-004  0.4223601E+03  0.7818608E-02  0.1036445E+00
         21   -1    0    0  501  502  0.00000000000E+00  0.00000000000E+00  0.35272039310E+03  0.35272039310E+03  0.00000000000E+00 0.  1.
         21   -1    0    0  502  503 -0.00000000000E+00 -0.00000000000E+00 -0.57840657712E+03  0.57840657712E+03  0.00000000000E+00 0.  1.
    9000007    2    1    2  501    0 -0.23218689237E+00  0.13560249842E+03  0.54772962375E+02  0.42413049657E+03  0.39811871248E+03 0.  0.
    9000005    1    3    3    0    0  0.23903616270E+02 -0.43364700362E+02 -0.14595205248E+03  0.15412618767E+03  0.99999687468E+00 0.  0.
          4    1    3    3  501    0 -0.24135803162E+02  0.17896719879E+03  0.20072501486E+03  0.27000430890E+03  0.00000000000E+00 0.  1.
   -9000007    1    1    2    0  503  0.23218689237E+00 -0.13560249842E+03 -0.28045914639E+03  0.50699647364E+03  0.40000000000E+03 0.  1.
<mgrwt>
<rscale>  2 0.42191412E+03</rscale>
<asrwt>0</asrwt>
<pdfrwt beam="1">  1       21 0.54264676E-01 0.42236014E+03</pdfrwt>
<pdfrwt beam="2">  1       21 0.88985627E-01 0.42236014E+03</pdfrwt>
<totfact> 0.30429852E+03</totfact>
</mgrwt>
</event>
<event>
 6    1  0.8739326E-004  0.4023348E+03  0.7818608E-02  0.1043082E+00
         21   -1    0    0  501  502  0.00000000000E+00  0.00000000000E+00  0.68181808688E+03  0.68181808688E+03  0.00000000000E+00 0.  1.
         21   -1    0    0  502  503 -0.00000000000E+00 -0.00000000000E+00 -0.24208150808E+03  0.24208150808E+03  0.00000000000E+00 0.  1.
    9000007    2    1    2  501    0 -0.43273634827E+02 -0.84425215960E+00  0.28858035719E+03  0.49410717580E+03  0.39873544913E+03 0.  0.
    9000005    1    3    3    0    0  0.12599213860E+03 -0.98232033217E+02  0.24744427070E+03  0.29453899306E+03  0.99999687468E+00 0.  0.
          4    1    3    3  501    0 -0.16926577342E+03  0.97387781058E+02  0.41136086491E+02  0.19956818274E+03  0.00000000000E+00 0.  1.
   -9000007    1    1    2    0  503  0.43273634827E+02  0.84425215960E+00  0.15115622161E+03  0.42979241916E+03  0.40000000000E+03 0.  1.
<mgrwt>
<rscale>  2 0.40202017E+03</rscale>
<asrwt>0</asrwt>
<pdfrwt beam="1">  1       21 0.10489509E+00 0.40233484E+03</pdfrwt>
<pdfrwt beam="2">  1       21 0.37243309E-01 0.40233484E+03</pdfrwt>
<totfact> 0.45366772E+03</totfact>
</mgrwt>
</event>
<event>
 6    1  0.8739326E-004  0.4399175E+03  0.7818608E-02  0.1030803E+00
         21   -1    0    0  501  502  0.00000000000E+00  0.00000000000E+00  0.73990342851E+03  0.73990342851E+03  0.00000000000E+00 0.  1.
         21   -1    0    0  502  503 -0.00000000000E+00 -0.00000000000E+00 -0.31531287760E+03  0.31531287760E+03  0.00000000000E+00 0.  1.
    9000007    2    1    2  501    0 -0.53802833094E+02 -0.17502199476E+03  0.43054833472E+03  0.61525842326E+03  0.39955427086E+03 0.  0.
    9000005    1    3    3    0    0  0.78562454405E+02  0.82431933897E+02  0.24336859236E+02  0.11644898316E+03  0.99999687468E+00 0.  0.
          4    1    3    3  501    0 -0.13236528750E+03 -0.25745392866E+03  0.40621147548E+03  0.49880944010E+03  0.00000000000E+00 0.  1.
   -9000007    1    1    2    0  503  0.53802833094E+02  0.17502199476E+03 -0.59577838107E+01  0.43995788286E+03  0.40000000000E+03 0.  1.
<mgrwt>
<rscale>  2 0.43981620E+03</rscale>
<asrwt>0</asrwt>
<pdfrwt beam="1">  1       21 0.11383130E+00 0.43991754E+03</pdfrwt>
<pdfrwt beam="2">  1       21 0.48509674E-01 0.43991754E+03</pdfrwt>
<totfact> 0.21107532E+03</totfact>
</mgrwt>
</event>
<event>
 6    1  0.8739326E-004  0.4871557E+03  0.7818608E-02  0.1017217E+00
         21   -1    0    0  501  502  0.00000000000E+00  0.00000000000E+00  0.15946608055E+04  0.15946608055E+04  0.00000000000E+00 0. -1.
         21   -1    0    0  502  503 -0.00000000000E+00 -0.00000000000E+00 -0.33401227765E+03  0.33401227765E+03  0.00000000000E+00 0. -1.
    9000007    2    1    2  501    0  0.49885999051E+02 -0.27355455008E+03  0.13485105363E+04  0.14336574901E+04  0.39946517703E+03 0.  0.
    9000005    1    3    3    0    0  0.71298670740E+01 -0.33360283126E+03  0.13072835604E+04  0.13491971655E+04  0.99999687468E+00 0.  0.
          4    1    3    3  501    0  0.42756131977E+02  0.60048281183E+02  0.41226975886E+02  0.84460324622E+02  0.00000000000E+00 0.  1.
   -9000007    1    1    2    0  503 -0.49885999051E+02  0.27355455008E+03 -0.87862008500E+02  0.49501559300E+03  0.40000000000E+03 0. -1.
<mgrwt>
<rscale>  2 0.48704593E+03</rscale>
<asrwt>0</asrwt>
<pdfrwt beam="1">  1       21 0.24533243E+00 0.48715573E+03</pdfrwt>
<pdfrwt beam="2">  1       21 0.51386505E-01 0.48715573E+03</pdfrwt>
<totfact> 0.19927396E+02</totfact>
</mgrwt>
</event>
<event>
 6    1  0.8739326E-004  0.5186611E+03  0.7818608E-02  0.1009023E+00
         21   -1    0    0  501  502  0.00000000000E+00  0.00000000000E+00  0.72292772233E+03  0.72292772233E+03  0.00000000000E+00 0. -1.
         21   -1    0    0  502  503 -0.00000000000E+00 -0.00000000000E+00 -0.40071267575E+03  0.40071267575E+03  0.00000000000E+00 0.  1.
    9000007    2    1    2  501    0 -0.28571295770E+03  0.16546133902E+03  0.10907370025E+02  0.51872567815E+03  0.39993500665E+03 0.  0.
    9000005    1    3    3    0    0 -0.37831412705E+03  0.15701611599E+03  0.59342276965E+02  0.41388180104E+03  0.99999687468E+00 0.  0.
          4    1    3    3  501    0  0.92601169351E+02  0.84452230321E+01 -0.48434906940E+02  0.10484387711E+03  0.00000000000E+00 0.  1.
   -9000007    1    1    2    0  503  0.28571295770E+03 -0.16546133902E+03  0.31130767655E+03  0.60491471993E+03  0.40000000000E+03 0. -1.
<mgrwt>
<rscale>  2 0.51864858E+03</rscale>
<asrwt>0</asrwt>
<pdfrwt beam="1">  1       21 0.11121965E+00 0.51866111E+03</pdfrwt>
<pdfrwt beam="2">  1       21 0.61648104E-01 0.51866111E+03</pdfrwt>
<totfact> 0.12946228E+03</totfact>
</mgrwt>
</event>
<event>
 6    1  0.8739326E-004  0.4363872E+03  0.7818608E-02  0.1031869E+00
         21   -1    0    0  501  502  0.00000000000E+00  0.00000000000E+00  0.86865399571E+03  0.86865399571E+03  0.00000000000E+00 0.  1.
         21   -1    0    0  502  503 -0.00000000000E+00 -0.00000000000E+00 -0.53011359359E+03  0.53011359359E+03  0.00000000000E+00 0. -1.
    9000007    2    1    2  501    0 -0.10490095336E+03  0.13939009321E+03  0.70489285119E+03  0.82898875059E+03  0.39989324681E+03 0.  0.
    9000005    1    3    3    0    0  0.14759454005E+03  0.16572776765E+02  0.17693098345E+03  0.23100731175E+03  0.99999687468E+00 0.  0.
          4    1    3    3  501    0 -0.25249549342E+03  0.12281731645E+03  0.52796186773E+03  0.59798143884E+03  0.00000000000E+00 0.  1.
   -9000007    1    1    2    0  503  0.10490095336E+03 -0.13939009321E+03 -0.36635244907E+03  0.56977883871E+03  0.40000000000E+03 0. -1.
<mgrwt>
<rscale>  2 0.43636276E+03</rscale>
<asrwt>0</asrwt>
<pdfrwt beam="1">  1       21 0.13363908E+00 0.43638722E+03</pdfrwt>
<pdfrwt beam="2">  1       21 0.81555938E-01 0.43638722E+03</pdfrwt>
<totfact> 0.44483760E+02</totfact>
</mgrwt>
</event>
<event>
 6    1  0.8739326E-004  0.4340514E+03  0.7818608E-02  0.1032619E+00
         21   -1    0    0  501  502  0.00000000000E+00  0.00000000000E+00  0.67658027104E+03  0.67658027104E+03  0.00000000000E+00 0. -1.
         21   -1    0    0  502  503 -0.00000000000E+00 -0.00000000000E+00 -0.40928580264E+03  0.40928580264E+03  0.00000000000E+00 0.  1.
    9000007    2    1    2  501    0  0.78765816053E+02 -0.14781357205E+03  0.44094887577E+03  0.61873786959E+03  0.40043443204E+03 0.  0.
    9000005    1    3    3    0    0 -0.11541328360E+03 -0.26891504198E+01  0.33471169737E+03  0.35406267511E+03  0.99999687468E+00 0.  0.
          4    1    3    3  501    0  0.19417909965E+03 -0.14512442163E+03  0.10623717841E+03  0.26467519448E+03  0.00000000000E+00 0.  1.
   -9000007    1    1    2    0  503 -0.78765816053E+02  0.14781357205E+03 -0.17365440737E+03  0.46712820410E+03  0.40000000000E+03 0.  1.
<mgrwt>
<rscale>  2 0.43395120E+03</rscale>
<asrwt>0</asrwt>
<pdfrwt beam="1">  1       21 0.10408927E+00 0.43405143E+03</pdfrwt>
<pdfrwt beam="2">  1       21 0.62967046E-01 0.43405143E+03</pdfrwt>
<totfact> 0.15026309E+03</totfact>
</mgrwt>
</event>
<event>
 6    1  0.8739326E-004  0.4923937E+03  0.7818608E-02  0.1015786E+00
         21   -1    0    0  501  502  0.00000000000E+00  0.00000000000E+00  0.78795133532E+03  0.78795133532E+03  0.00000000000E+00 0. -1.
         21   -1    0    0  502  503 -0.00000000000E+00 -0.00000000000E+00 -0.42807875139E+03  0.42807875139E+03  0.00000000000E+00 0. -1.
    9000007    2    1    2  501    0  0.10300224319E+03 -0.26797787430E+03  0.50239161211E+03  0.70345494431E+03  0.40003740267E+03 0.  0.
    9000005    1    3    3    0    0  0.18534316725E+03 -0.28133424987E+03  0.51865233646E+03  0.61846769997E+03  0.99999687468E+00 0.  0.
          4    1    3    3  501    0 -0.82340924056E+02  0.13356375574E+02 -0.16260724354E+02  0.84987244333E+02  0.00000000000E+00 0.  1.
   -9000007    1    1    2    0  503 -0.10300224319E+03  0.26797787430E+03 -0.14251902817E+03  0.51257514240E+03  0.40000000000E+03 0. -1.
<mgrwt>
<rscale>  2 0.49238607E+03</rscale>
<asrwt>0</asrwt>
<pdfrwt beam="1">  1       21 0.12122328E+00 0.49239367E+03</pdfrwt>
<pdfrwt beam="2">  1       21 0.65858270E-01 0.49239367E+03</pdfrwt>
<totfact> 0.90832927E+02</totfact>
</mgrwt>
</event>
<event>
 6    1  0.8739326E-004  0.4010094E+03  0.7818608E-02  0.1043451E+00
         21   -1    0    0  501  502  0.00000000000E+00  0.00000000000E+00  0.44578552510E+03  0.44578552510E+03  0.00000000000E+00 0. -1.
         21   -1    0    0  502  503 -0.00000000000E+00 -0.00000000000E+00 -0.65892996852E+03  0.65892996852E+03  0.00000000000E+00 0. -1.
    9000007    2    1    2  501    0  0.26307052908E+02 -0.10793918397E+02  0.26515647325E+03  0.48055178386E+03  0.39976679696E+03 0.  0.
    9000005    1    3    3    0    0  0.91939107656E+02 -0.82670865133E+02  0.33739651048E+03  0.35933922237E+03  0.99999687468E+00 0.  0.
          4    1    3    3  501    0 -0.65632054748E+02  0.71876946737E+02 -0.72240037230E+02  0.12121256148E+03  0.00000000000E+00 0.  1.
   -9000007    1    1    2    0  503 -0.26307052908E+02  0.10793918397E+02 -0.47830091666E+03  0.62416370976E+03  0.40000000000E+03 0. -1.
<mgrwt>
<rscale>  2 0.40095127E+03</rscale>
<asrwt>0</asrwt>
<pdfrwt beam="1">  1       21 0.68582388E-01 0.40100944E+03</pdfrwt>
<pdfrwt beam="2">  1       21 0.10137384E+00 0.40100944E+03</pdfrwt>
<totfact> 0.13446373E+03</totfact>
</mgrwt>
</event>
<event>
 6    1  0.8739326E-004  0.5356506E+03  0.7818608E-02  0.1004887E+00
         21   -1    0    0  501  502  0.00000000000E+00  0.00000000000E+00  0.69202034969E+03  0.69202034969E+03  0.00000000000E+00 0. -1.
         21   -1    0    0  502  503 -0.00000000000E+00 -0.00000000000E+00 -0.59167239426E+03  0.59167239426E+03  0.00000000000E+00 0. -1.
    9000007    2    1    2  501    0  0.20580781304E+03  0.29028887803E+03  0.40150995709E+03  0.66942648258E+03  0.40037117944E+03 0.  0.
    9000005    1    3    3    0    0  0.41578846301E+02  0.31671424838E+03  0.38794542558E+03  0.50253295296E+03  0.99999687468E+00 0.  0.
          4    1    3    3  501    0  0.16422896674E+03 -0.26425370353E+02  0.13564531507E+02  0.16689352962E+03  0.00000000000E+00 0.  1.
   -9000007    1    1    2    0  503 -0.20580781304E+03 -0.29028887803E+03 -0.30116200166E+03  0.61426626137E+03  0.40000000000E+03 0. -1.
<mgrwt>
<rscale>  2 0.53558125E+03</rscale>
<asrwt>0</asrwt>
<pdfrwt beam="1">  1       21 0.10646467E+00 0.53565060E+03</pdfrwt>
<pdfrwt beam="2">  1       21 0.91026522E-01 0.53565060E+03</pdfrwt>
<totfact> 0.58729755E+02</totfact>
</mgrwt>
</event>
<event>
 6    1  0.8739326E-004  0.6319462E+03  0.7818608E-02  0.9841260E-01
         21   -1    0    0  501  502  0.00000000000E+00  0.00000000000E+00  0.78902216582E+03  0.78902216582E+03  0.00000000000E+00 0.  1.
         21   -1    0    0  502  503 -0.00000000000E+00 -0.00000000000E+00 -0.51809802169E+03  0.51809802169E+03  0.00000000000E+00 0. -1.
    9000007    2    1    2  501    0 -0.38339442804E+03  0.30390960115E+03  0.36163707140E+02  0.63298014575E+03  0.40000464757E+03 0.  0.
    9000005    1    3    3    0    0 -0.40678762313E+03  0.24700896168E+03 -0.97538401317E+02  0.48580277604E+03  0.99999687468E+00 0.  0.
          4    1    3    3  501    0  0.23393195093E+02  0.56900639475E+02  0.13370210846E+03  0.14717736971E+03  0.00000000000E+00 0.  1.
   -9000007    1    1    2    0  503  0.38339442804E+03 -0.30390960115E+03  0.23476043699E+03  0.67414004176E+03  0.40000000000E+03 0.  1.
<mgrwt>
<rscale>  2 0.63194551E+03</rscale>
<asrwt>0</asrwt>
<pdfrwt beam="1">  1       21 0.12138803E+00 0.63194624E+03</pdfrwt>
<pdfrwt beam="2">  1       21 0.79707388E-01 0.63194624E+03</pdfrwt>
<totfact> 0.55864837E+02</totfact>
</mgrwt>
</event>
<event>
 6    1  0.8739326E-004  0.4532447E+03  0.7818608E-02  0.1026803E+00
         21   -1    0    0  501  502  0.00000000000E+00  0.00000000000E+00  0.59378497904E+03  0.59378497904E+03  0.00000000000E+00 0. -1.
         21   -1    0    0  502  503 -0.00000000000E+00 -0.00000000000E+00 -0.34861426013E+03  0.34861426013E+03  0.00000000000E+00 0. -1.
    9000007    2    1    2  501    0  0.10142547473E+03  0.18601045864E+03  0.78203576948E+02  0.45994194143E+03  0.40067913895E+03 0.  0.
    9000005    1    3    3    0    0  0.66621691557E+02  0.22346872497E+03 -0.11505793964E+03  0.26003086412E+03  0.99999687468E+00 0.  0.
          4    1    3    3  501    0  0.34803783168E+02 -0.37458266330E+02  0.19326151659E+03  0.19991107731E+03  0.00000000000E+00 0.  1.
   -9000007    1    1    2    0  503 -0.10142547473E+03 -0.18601045864E+03  0.16696714196E+03  0.48245729774E+03  0.40000000000E+03 0. -1.
<mgrwt>
<rscale>  2 0.45309459E+03</rscale>
<asrwt>0</asrwt>
<pdfrwt beam="1">  1       21 0.91351536E-01 0.45324474E+03</pdfrwt>
<pdfrwt beam="2">  1       21 0.53632963E-01 0.45324474E+03</pdfrwt>
<totfact> 0.28996763E+03</totfact>
</mgrwt>
</event>
<event>
 6    1  0.8739326E-004  0.4980345E+03  0.7818608E-02  0.1014492E+00
         21   -1    0    0  501  502  0.00000000000E+00  0.00000000000E+00  0.42580874981E+03  0.42580874981E+03  0.00000000000E+00 0.  1.
         21   -1    0    0  502  503 -0.00000000000E+00 -0.00000000000E+00 -0.57898874758E+03  0.57898874758E+03  0.00000000000E+00 0.  1.
    9000007    2    1    2  501    0  0.17817693149E+02 -0.29617718684E+03 -0.77259999755E+02  0.50100960324E+03  0.39623619066E+03 0.  0.
    9000005    1    3    3    0    0 -0.96963713356E+02  0.41397949740E+02  0.57189424458E+02  0.11994741437E+03  0.99999687468E+00 0.  0.
          4    1    3    3  501    0  0.11478140651E+03 -0.33757513658E+03 -0.13444942421E+03  0.38106218887E+03  0.00000000000E+00 0.  1.
   -9000007    1    1    2    0  503 -0.17817693149E+02  0.29617718684E+03 -0.75919998010E+02  0.50378789415E+03  0.40000000000E+03 0.  1.
<mgrwt>
<rscale>  2 0.49727835E+03</rscale>
<asrwt>0</asrwt>
<pdfrwt beam="1">  1       21 0.65509039E-01 0.49803453E+03</pdfrwt>
<pdfrwt beam="2">  1       21 0.89075191E-01 0.49803453E+03</pdfrwt>
<totfact> 0.19559371E+03</totfact>
</mgrwt>
</event>
<event>
 6    1  0.8739326E-004  0.5048287E+03  0.7818608E-02  0.1012580E+00
         21   -1    0    0  501  502  0.00000000000E+00  0.00000000000E+00  0.91859094145E+03  0.91859094145E+03  0.00000000000E+00 0.  1.
         21   -1    0    0  502  503 -0.00000000000E+00 -0.00000000000E+00 -0.31196410855E+03  0.31196410855E+03  0.00000000000E+00 0.  1.
    9000007    2    1    2  501    0 -0.17934574268E+03 -0.24868789981E+03  0.50957786863E+03  0.71730163463E+03  0.40105045058E+03 0.  0.
    9000005    1    3    3    0    0 -0.55091340403E+01 -0.36349648545E+02 -0.68301518741E+02  0.77574125605E+02  0.99999687468E+00 0.  0.
          4    1    3    3  501    0 -0.17383660864E+03 -0.21233825127E+03  0.57787938737E+03  0.63972750902E+03  0.00000000000E+00 0.  1.
   -9000007    1    1    2    0  503  0.17934574268E+03  0.24868789981E+03  0.97048964269E+02  0.51325341538E+03  0.40000000000E+03 0.  1.
<mgrwt>
<rscale>  2 0.50462006E+03</rscale>
<asrwt>0</asrwt>
<pdfrwt beam="1">  1       21 0.14132168E+00 0.50482871E+03</pdfrwt>
<pdfrwt beam="2">  1       21 0.47994478E-01 0.50482871E+03</pdfrwt>
<totfact> 0.12047175E+03</totfact>
</mgrwt>
</event>
<event>
 6    1  0.8739326E-004  0.4124335E+03  0.7818608E-02  0.1040005E+00
         21   -1    0    0  501  502  0.00000000000E+00  0.00000000000E+00  0.34374896745E+03  0.34374896745E+03  0.00000000000E+00 0. -1.
         21   -1    0    0  502  503 -0.00000000000E+00 -0.00000000000E+00 -0.55195686282E+03  0.55195686282E+03  0.00000000000E+00 0. -1.
    9000007    2    1    2  501    0 -0.19173479128E+02 -0.73210303308E+02  0.47194850008E+02  0.41512500132E+03  0.40543068710E+03 0.  0.
    9000005    1    3    3    0    0 -0.31802923135E+02 -0.15734403669E+03  0.19010005673E+03  0.24881238587E+03  0.99999687468E+00 0.  0.
          4    1    3    3  501    0  0.12629444008E+02  0.84133733384E+02 -0.14290520672E+03  0.16631261545E+03  0.00000000000E+00 0.  1.
   -9000007    1    1    2    0  503  0.19173479128E+02  0.73210303308E+02 -0.25540274538E+03  0.48058082895E+03  0.40000000000E+03 0. -1.
<mgrwt>
<rscale>  2 0.41109269E+03</rscale>
<asrwt>0</asrwt>
<pdfrwt beam="1">  1       21 0.52884457E-01 0.41243353E+03</pdfrwt>
<pdfrwt beam="2">  1       21 0.84916439E-01 0.41243353E+03</pdfrwt>
<totfact> 0.36027793E+03</totfact>
</mgrwt>
</event>
<event>
 6    1  0.8739326E-004  0.4132769E+03  0.7818608E-02  0.1039384E+00
         21   -1    0    0  501  502  0.00000000000E+00  0.00000000000E+00  0.15219723469E+04  0.15219723469E+04  0.00000000000E+00 0.  1.
         21   -1    0    0  502  503 -0.00000000000E+00 -0.00000000000E+00 -0.25373763271E+03  0.25373763271E+03  0.00000000000E+00 0.  1.
    9000007    2    1    2  501    0  0.95384620911E+02 -0.41225831681E+02  0.12975596445E+04  0.13613939811E+04  0.39866620816E+03 0.  0.
    9000005    1    3    3    0    0 -0.59336005778E+02  0.13599085019E+03  0.76397624633E+03  0.77825123056E+03  0.99999687468E+00 0.  0.
          4    1    3    3  501    0  0.15472062669E+03 -0.17721668187E+03  0.53358339819E+03  0.58314275051E+03  0.00000000000E+00 0.  1.
   -9000007    1    1    2    0  503 -0.95384620911E+02  0.41225831681E+02 -0.29324930326E+02  0.41431599854E+03  0.40000000000E+03 0.  1.
<mgrwt>
<rscale>  2 0.41295382E+03</rscale>
<asrwt>0</asrwt>
<pdfrwt beam="1">  1       21 0.23414959E+00 0.41327690E+03</pdfrwt>
<pdfrwt beam="2">  1       21 0.39036560E-01 0.41327690E+03</pdfrwt>
<totfact> 0.43294429E+02</totfact>
</mgrwt>
</event>
<event>
 6    1  0.8739326E-004  0.4052873E+03  0.7818608E-02  0.1041971E+00
         21   -1    0    0  501  502  0.00000000000E+00  0.00000000000E+00  0.82133899780E+03  0.82133899780E+03  0.00000000000E+00 0. -1.
         21   -1    0    0  502  503 -0.00000000000E+00 -0.00000000000E+00 -0.13349898587E+04  0.13349898587E+04  0.00000000000E+00 0. -1.
    9000007    2    1    2  501    0  0.51442031449E+02  0.40143534409E+02  0.73732754657E+03  0.84133655161E+03  0.39992186260E+03 0.  0.
    9000005    1    3    3    0    0 -0.11570590566E+03  0.11424495209E+03  0.57258983600E+03  0.59523095178E+03  0.99999687468E+00 0.  0.
          4    1    3    3  501    0  0.16714793710E+03 -0.74101417679E+02  0.16473771058E+03  0.24610559983E+03  0.00000000000E+00 0.  1.
   -9000007    1    1    2    0  503 -0.51442031449E+02 -0.40143534409E+02 -0.12509784075E+04  0.13149923049E+04  0.40000000000E+03 0. -1.
<mgrwt>
<rscale>  2 0.40526801E+03</rscale>
<asrwt>0</asrwt>
<pdfrwt beam="1">  1       21 0.12635985E+00 0.40528729E+03</pdfrwt>
<pdfrwt beam="2">  1       21 0.20538305E+00 0.40528729E+03</pdfrwt>
<totfact> 0.46243862E+01</totfact>
</mgrwt>
</event>
<event>
 6    1  0.8739326E-004  0.4318855E+03  0.7818608E-02  0.1033293E+00
         21   -1    0    0  501  502  0.00000000000E+00  0.00000000000E+00  0.34261878556E+03  0.34261878556E+03  0.00000000000E+00 0. -1.
         21   -1    0    0  502  503 -0.00000000000E+00 -0.00000000000E+00 -0.57314178458E+03  0.57314178458E+03  0.00000000000E+00 0. -1.
    9000007    2    1    2  501    0 -0.14580758735E+03  0.72561942128E+02 -0.11943991607E+02  0.43171318563E+03  0.39963549359E+03 0.  0.
    9000005    1    3    3    0    0 -0.16332894780E+03 -0.14057318839E+03 -0.27755991964E+02  0.21727531283E+03  0.99999687468E+00 0.  0.
          4    1    3    3  501    0  0.17521360450E+02  0.21313513052E+03  0.15812000357E+02  0.21443787280E+03  0.00000000000E+00 0.  1.
   -9000007    1    1    2    0  503  0.14580758735E+03 -0.72561942128E+02 -0.21857900741E+03  0.48404738451E+03  0.40000000000E+03 0. -1.
<mgrwt>
<rscale>  2 0.43180109E+03</rscale>
<asrwt>0</asrwt>
<pdfrwt beam="1">  1       21 0.52710583E-01 0.43188550E+03</pdfrwt>
<pdfrwt beam="2">  1       21 0.88175658E-01 0.43188550E+03</pdfrwt>
<totfact> 0.32977592E+03</totfact>
</mgrwt>
</event>
<event>
 6    1  0.8739326E-004  0.4485893E+03  0.7818608E-02  0.1028197E+00
         21   -1    0    0  501  502  0.00000000000E+00  0.00000000000E+00  0.64257130884E+03  0.64257130884E+03  0.00000000000E+00 0. -1.
         21   -1    0    0  502  503 -0.00000000000E+00 -0.00000000000E+00 -0.76336442250E+03  0.76336442250E+03  0.00000000000E+00 0. -1.
    9000007    2    1    2  501    0 -0.69415730030E+02 -0.18915247036E+03  0.47972738135E+03  0.65678817207E+03  0.40079314107E+03 0.  0.
    9000005    1    3    3    0    0  0.15057506178E+03 -0.13554565359E+03  0.13189421264E+03  0.24174895399E+03  0.99999687468E+00 0.  0.
          4    1    3    3  501    0 -0.21999079181E+03 -0.53606816771E+02  0.34783316872E+03  0.41503921808E+03  0.00000000000E+00 0.  1.
   -9000007    1    1    2    0  503  0.69415730030E+02  0.18915247036E+03 -0.60052049502E+03  0.74914755926E+03  0.40000000000E+03 0. -1.
<mgrwt>
<rscale>  2 0.44841205E+03</rscale>
<asrwt>0</asrwt>
<pdfrwt beam="1">  1       21 0.98857124E-01 0.44858928E+03</pdfrwt>
<pdfrwt beam="2">  1       21 0.11744068E+00 0.44858928E+03</pdfrwt>
<totfact> 0.39097953E+02</totfact>
</mgrwt>
</event>
<event>
 6    1  0.8739326E-004  0.5212223E+03  0.7818608E-02  0.1008467E+00
         21   -1    0    0  501  502  0.00000000000E+00  0.00000000000E+00  0.83128185252E+02  0.83128185252E+02  0.00000000000E+00 0. -1.
         21   -1    0    0  502  503 -0.00000000000E+00 -0.00000000000E+00 -0.33681486901E+04  0.33681486901E+04  0.00000000000E+00 0.  1.
    9000007    2    1    2  501    0  0.32310304096E+03 -0.76629947726E+02 -0.19542722828E+04  0.20225856720E+04  0.40175231352E+03 0.  0.
    9000005    1    3    3    0    0  0.23510130586E+03 -0.17571015109E+03 -0.66968351475E+03  0.73117965722E+03  0.99999687468E+00 0.  0.
          4    1    3    3  501    0  0.88001735101E+02  0.99080203367E+02 -0.12845887680E+04  0.12914060148E+04  0.00000000000E+00 0.  1.
   -9000007    1    1    2    0  503 -0.32310304096E+03  0.76629947726E+02 -0.13307482221E+04  0.14286912034E+04  0.40000000000E+03 0. -1.
<mgrwt>
<rscale>  2 0.52088457E+03</rscale>
<asrwt>0</asrwt>
<pdfrwt beam="1">  1       21 0.12788951E-01 0.52122226E+03</pdfrwt>
<pdfrwt beam="2">  1       21 0.51817674E+00 0.52122226E+03</pdfrwt>
<totfact> 0.52161522E+01</totfact>
</mgrwt>
</event>
<event>
 6    1  0.8739326E-004  0.4351390E+03  0.7818608E-02  0.1032260E+00
         21   -1    0    0  501  502  0.00000000000E+00  0.00000000000E+00  0.11882264520E+04  0.11882264520E+04  0.00000000000E+00 0.  1.
         21   -1    0    0  502  503 -0.00000000000E+00 -0.00000000000E+00 -0.15975573033E+03  0.15975573033E+03  0.00000000000E+00 0.  1.
    9000007    2    1    2  501    0 -0.16204251863E+03 -0.54390855335E+02  0.47821089676E+03  0.64655362725E+03  0.40016220229E+03 0.  0.
    9000005    1    3    3    0    0  0.37931541307E+02  0.10784427632E+03  0.33044322495E+03  0.34966114263E+03  0.99999687468E+00 0.  0.
          4    1    3    3  501    0 -0.19997405994E+03 -0.16223513165E+03  0.14776767181E+03  0.29689248462E+03  0.00000000000E+00 0.  1.
   -9000007    1    1    2    0  503  0.16204251863E+03  0.54390855335E+02  0.55025982493E+03  0.70142855511E+03  0.40000000000E+03 0. -1.
<mgrwt>
<rscale>  2 0.43510168E+03</rscale>
<asrwt>0</asrwt>
<pdfrwt beam="1">  1       21 0.18280406E+00 0.43513898E+03</pdfrwt>
<pdfrwt beam="2">  1       21 0.24577805E-01 0.43513898E+03</pdfrwt>
<totfact> 0.23362544E+03</totfact>
</mgrwt>
</event>
<event>
 6    1  0.8739326E-004  0.4078494E+03  0.7818608E-02  0.1041114E+00
         21   -1    0    0  501  502  0.00000000000E+00  0.00000000000E+00  0.10480880845E+03  0.10480880845E+03  0.00000000000E+00 0.  1.
         21   -1    0    0  502  503 -0.00000000000E+00 -0.00000000000E+00 -0.24362196954E+04  0.24362196954E+04  0.00000000000E+00 0.  1.
    9000007    2    1    2  501    0 -0.79316456158E+02 -0.70711099663E+01 -0.41502856897E+03  0.58172702386E+03  0.39977057973E+03 0.  0.
    9000005    1    3    3    0    0 -0.21972322064E+03 -0.82723143636E+02 -0.31715251388E+03  0.39459869391E+03  0.99999687468E+00 0.  0.
          4    1    3    3  501    0  0.14040676448E+03  0.75652033670E+02 -0.97876055094E+02  0.18712832995E+03  0.00000000000E+00 0.  1.
   -9000007    1    1    2    0  503  0.79316456158E+02  0.70711099663E+01 -0.19163823180E+04  0.19593014800E+04  0.40000000000E+03 0.  1.
<mgrwt>
<rscale>  2 0.40779310E+03</rscale>
<asrwt>0</asrwt>
<pdfrwt beam="1">  1       21 0.16124434E-01 0.40784936E+03</pdfrwt>
<pdfrwt beam="2">  1       21 0.37480297E+00 0.40784936E+03</pdfrwt>
<totfact> 0.34027817E+02</totfact>
</mgrwt>
</event>
<event>
 6    1  0.8739326E-004  0.4736406E+03  0.7818608E-02  0.1020943E+00
         21   -1    0    0  501  502  0.00000000000E+00  0.00000000000E+00  0.27180216783E+04  0.27180216783E+04  0.00000000000E+00 0. -1.
         21   -1    0    0  502  503 -0.00000000000E+00 -0.00000000000E+00 -0.90807400775E+02  0.90807400775E+02  0.00000000000E+00 0.  1.
    9000007    2    1    2  501    0  0.15876831816E+03  0.19626858855E+03  0.88770893585E+03  0.10061622847E+04  0.40075759597E+03 0.  0.
    9000005    1    3    3    0    0 -0.10689763148E+03  0.16590108791E+03  0.47536891569E+03  0.51471048230E+03  0.99999687468E+00 0.  0.
          4    1    3    3  501    0  0.26566594964E+03  0.30367500641E+02  0.41234002016E+03  0.49145180244E+03  0.00000000000E+00 0.  1.
   -9000007    1    1    2    0  503 -0.15876831816E+03 -0.19626858855E+03  0.17395053417E+04  0.18026667943E+04  0.40000000000E+03 0. -1.
<mgrwt>
<rscale>  2 0.47348028E+03</rscale>
<asrwt>0</asrwt>
<pdfrwt beam="1">  1       21 0.41815712E+00 0.47364057E+03</pdfrwt>
<pdfrwt beam="2">  1       21 0.13970371E-01 0.47364057E+03</pdfrwt>
<totfact> 0.22448595E+02</totfact>
</mgrwt>
</event>
<event>
 6    1  0.8739326E-004  0.4500826E+03  0.7818608E-02  0.1027711E+00
         21   -1    0    0  501  502  0.00000000000E+00  0.00000000000E+00  0.76874303077E+03  0.76874303077E+03  0.00000000000E+00 0.  1.
         21   -1    0    0  502  503 -0.00000000000E+00 -0.00000000000E+00 -0.37009179994E+03  0.37009179994E+03  0.00000000000E+00 0. -1.
    9000007    2    1    2  501    0  0.30511015700E+02  0.20367370218E+03  0.50507277137E+03  0.67651519741E+03  0.40020046091E+03 0.  0.
    9000005    1    3    3    0    0  0.16249202124E+03  0.87454105158E+02  0.45902429603E+03  0.49472839196E+03  0.99999687468E+00 0.  0.
          4    1    3    3  501    0 -0.13198100554E+03  0.11621959702E+03  0.46048475343E+02  0.18178680545E+03  0.00000000000E+00 0.  1.
   -9000007    1    1    2    0  503 -0.30511015700E+02 -0.20367370218E+03 -0.10642154055E+03  0.46231963330E+03  0.40000000000E+03 0. -1.
<mgrwt>
<rscale>  2 0.45003799E+03</rscale>
<asrwt>0</asrwt>
<pdfrwt beam="1">  1       21 0.11826816E+00 0.45008256E+03</pdfrwt>
<pdfrwt beam="2">  1       21 0.56937200E-01 0.45008256E+03</pdfrwt>
<totfact> 0.13552347E+03</totfact>
</mgrwt>
</event>
<event>
 6    1  0.8739326E-004  0.5415724E+03  0.7818608E-02  0.1003529E+00
         21   -1    0    0  501  502  0.00000000000E+00  0.00000000000E+00  0.89262082358E+03  0.89262082358E+03  0.00000000000E+00 0. -1.
         21   -1    0    0  502  503 -0.00000000000E+00 -0.00000000000E+00 -0.40583646289E+03  0.40583646289E+03  0.00000000000E+00 0.  1.
    9000007    2    1    2  501    0 -0.64852766534E+02  0.35761871477E+03  0.52808420630E+03  0.75642158310E+03  0.40150175088E+03 0.  0.
    9000005    1    3    3    0    0  0.57112037733E+01  0.41071458935E+01  0.35757324935E+03  0.35764383839E+03  0.99999687468E+00 0.  0.
          4    1    3    3  501    0 -0.70563970308E+02  0.35351156887E+03  0.17051095695E+03  0.39877774470E+03  0.00000000000E+00 0.  1.
   -9000007    1    1    2    0  503  0.64852766534E+02 -0.35761871477E+03 -0.41299845606E+02  0.54203570337E+03  0.40000000000E+03 0.  1.
<mgrwt>
<rscale>  2 0.54129410E+03</rscale>
<asrwt>0</asrwt>
<pdfrwt beam="1">  1       21 0.13732628E+00 0.54157242E+03</pdfrwt>
<pdfrwt beam="2">  1       21 0.62436379E-01 0.54157242E+03</pdfrwt>
<totfact> 0.72605591E+02</totfact>
</mgrwt>
</event>
<event>
 6    1  0.8739326E-004  0.4339469E+03  0.7818608E-02  0.1032629E+00
         21   -1    0    0  501  502  0.00000000000E+00  0.00000000000E+00  0.10986798232E+04  0.10986798232E+04  0.00000000000E+00 0. -1.
         21   -1    0    0  502  503 -0.00000000000E+00 -0.00000000000E+00 -0.22010549989E+03  0.22010549989E+03  0.00000000000E+00 0. -1.
    9000007    2    1    2  501    0 -0.53214473814E+02 -0.15961882009E+03  0.74958153599E+03  0.86607229354E+03  0.39987346824E+03 0.  0.
    9000005    1    3    3    0    0  0.14153358425E+02 -0.27402924162E+03  0.34834130247E+03  0.44343545846E+03  0.99999687468E+00 0.  0.
          4    1    3    3  501    0 -0.67367832238E+02  0.11441042153E+03  0.40124023352E+03  0.42263683508E+03  0.00000000000E+00 0.  1.
   -9000007    1    1    2    0  503  0.53214473814E+02  0.15961882009E+03  0.12899278734E+03  0.45271302956E+03  0.40000000000E+03 0. -1.
<mgrwt>
<rscale>  2 0.43391778E+03</rscale>
<asrwt>0</asrwt>
<pdfrwt beam="1">  1       21 0.16902766E+00 0.43394694E+03</pdfrwt>
<pdfrwt beam="2">  1       21 0.33862385E-01 0.43394694E+03</pdfrwt>
<totfact> 0.15556144E+03</totfact>
</mgrwt>
</event>
<event>
 6    1  0.8739326E-004  0.5666205E+03  0.7818608E-02  0.9977327E-01
         21   -1    0    0  501  502  0.00000000000E+00  0.00000000000E+00  0.42814873579E+03  0.42814873579E+03  0.00000000000E+00 0.  1.
         21   -1    0    0  502  503 -0.00000000000E+00 -0.00000000000E+00 -0.75481218037E+03  0.75481218037E+03  0.00000000000E+00 0.  1.
    9000007    2    1    2  501    0 -0.39948122326E+02  0.39896622879E+03 -0.21280415234E+03  0.60526389988E+03  0.40036093348E+03 0.  0.
    9000005    1    3    3    0    0  0.35767536410E+01 -0.71395754831E+02  0.25857404656E+02  0.76024682464E+02  0.99999687468E+00 0.  0.
          4    1    3    3  501    0 -0.43524875967E+02  0.47036198362E+03 -0.23866155700E+03  0.52923921742E+03  0.00000000000E+00 0.  1.
   -9000007    1    1    2    0  503  0.39948122326E+02 -0.39896622879E+03 -0.11385929224E+03  0.57769701628E+03  0.40000000000E+03 0.  1.
<mgrwt>
<rscale>  2 0.56655674E+03</rscale>
<asrwt>0</asrwt>
<pdfrwt beam="1">  1       21 0.65869037E-01 0.56662049E+03</pdfrwt>
<pdfrwt beam="2">  1       21 0.11612495E+00 0.56662049E+03</pdfrwt>
<totfact> 0.98673658E+02</totfact>
</mgrwt>
</event>
<event>
 6    1  0.8739326E-004  0.4515992E+03  0.7818608E-02  0.1027247E+00
         21   -1    0    0  501  502  0.00000000000E+00  0.00000000000E+00  0.11265519681E+04  0.11265519681E+04  0.00000000000E+00 0. -1.
         21   -1    0    0  502  503 -0.00000000000E+00 -0.00000000000E+00 -0.92977712425E+03  0.92977712425E+03  0.00000000000E+00 0. -1.
    9000007    2    1    2  501    0  0.13100875752E+03 -0.16364155694E+03  0.10210468755E+04  0.11164534432E+04  0.39998714378E+03 0.  0.
    9000005    1    3    3    0    0  0.18890345688E+03 -0.26857696312E+03  0.80497637432E+03  0.86937107403E+03  0.99999687468E+00 0.  0.
          4    1    3    3  501    0 -0.57894699354E+02  0.10493540618E+03  0.21607050121E+03  0.24708236921E+03  0.00000000000E+00 0.  1.
   -9000007    1    1    2    0  503 -0.13100875752E+03  0.16364155694E+03 -0.82427203164E+03  0.93987564914E+03  0.40000000000E+03 0. -1.
<mgrwt>
<rscale>  2 0.45159637E+03</rscale>
<asrwt>0</asrwt>
<pdfrwt beam="1">  1       21 0.17331569E+00 0.45159922E+03</pdfrwt>
<pdfrwt beam="2">  1       21 0.14304263E+00 0.45159922E+03</pdfrwt>
<totfact> 0.53808824E+01</totfact>
</mgrwt>
</event>
<event>
 6    1  0.8739326E-004  0.5935963E+03  0.7818608E-02  0.9919127E-01
         21   -1    0    0  501  502  0.00000000000E+00  0.00000000000E+00  0.14723095666E+04  0.14723095666E+04  0.00000000000E+00 0. -1.
         21   -1    0    0  502  503 -0.00000000000E+00 -0.00000000000E+00 -0.27418152795E+03  0.27418152795E+03  0.00000000000E+00 0.  1.
    9000007    2    1    2  501    0  0.42103383193E+03  0.12282963053E+03  0.91132424200E+03  0.10872392280E+04  0.39902463474E+03 0.  0.
    9000005    1    3    3    0    0  0.19995868652E+03 -0.67987074136E+02  0.68774616300E+03  0.71944527469E+03  0.99999687468E+00 0.  0.
          4    1    3    3  501    0  0.22107514540E+03  0.19081670466E+03  0.22357807900E+03  0.36779395333E+03  0.00000000000E+00 0.  1.
   -9000007    1    1    2    0  503 -0.42103383193E+03 -0.12282963053E+03  0.28680379667E+03  0.65925186655E+03  0.40000000000E+03 0.  1.
<mgrwt>
<rscale>  2 0.59343206E+03</rscale>
<asrwt>0</asrwt>
<pdfrwt beam="1">  1       21 0.22650916E+00 0.59359633E+03</pdfrwt>
<pdfrwt beam="2">  1       21 0.42181774E-01 0.59359633E+03</pdfrwt>
<totfact> 0.37871146E+02</totfact>
</mgrwt>
</event>
<event>
 6    1  0.8739326E-004  0.7607817E+03  0.7818608E-02  0.9618706E-01
         21   -1    0    0  501  502  0.00000000000E+00  0.00000000000E+00  0.30050227589E+04  0.30050227589E+04  0.00000000000E+00 0. -1.
         21   -1    0    0  502  503 -0.00000000000E+00 -0.00000000000E+00 -0.19260472931E+03  0.19260472931E+03  0.00000000000E+00 0. -1.
    9000007    2    1    2  501    0 -0.34012059863E+03  0.55011947737E+03  0.13745898437E+04  0.15710779645E+04  0.40059364838E+03 0.  0.
    9000005    1    3    3    0    0 -0.18158019078E+03  0.43495600826E+03  0.55380767255E+03  0.72722900999E+03  0.99999687468E+00 0.  0.
          4    1    3    3  501    0 -0.15854040785E+03  0.11516346911E+03  0.82078217114E+03  0.84384895450E+03  0.00000000000E+00 0.  1.
   -9000007    1    1    2    0  503  0.34012059863E+03 -0.55011947737E+03  0.14378281859E+04  0.16265495238E+04  0.40000000000E+03 0. -1.
<mgrwt>
<rscale>  2 0.76070354E+03</rscale>
<asrwt>0</asrwt>
<pdfrwt beam="1">  1       21 0.46231116E+00 0.76078166E+03</pdfrwt>
<pdfrwt beam="2">  1       21 0.29631499E-01 0.76078166E+03</pdfrwt>
<totfact> 0.23032029E+01</totfact>
</mgrwt>
</event>
<event>
 6    1  0.8739326E-004  0.4162361E+03  0.7818608E-02  0.1038320E+00
         21   -1    0    0  501  502  0.00000000000E+00  0.00000000000E+00  0.62317801679E+03  0.62317801679E+03  0.00000000000E+00 0. -1.
         21   -1    0    0  502  503 -0.00000000000E+00 -0.00000000000E+00 -0.47598961646E+03  0.47598961646E+03  0.00000000000E+00 0.  1.
    9000007    2    1    2  501    0  0.96659251224E+02 -0.60758342633E+02  0.42820241870E+03  0.59716816555E+03  0.40027230672E+03 0.  0.
    9000005    1    3    3    0    0 -0.95984242496E+02  0.73871819074E+02  0.31261004314E+03  0.33525521551E+03  0.99999687468E+00 0.  0.
          4    1    3    3  501    0  0.19264349372E+03 -0.13463016171E+03  0.11559237556E+03  0.26191295004E+03  0.00000000000E+00 0.  1.
   -9000007    1    1    2    0  503 -0.96659251224E+02  0.60758342633E+02 -0.28101401837E+03  0.50199946770E+03  0.40000000000E+03 0.  1.
<mgrwt>
<rscale>  2 0.41617064E+03</rscale>
<asrwt>0</asrwt>
<pdfrwt beam="1">  1       21 0.95873541E-01 0.41623612E+03</pdfrwt>
<pdfrwt beam="2">  1       21 0.73229172E-01 0.41623612E+03</pdfrwt>
<totfact> 0.13183709E+03</totfact>
</mgrwt>
</event>
<event>
 6    1  0.8739326E-004  0.4194388E+03  0.7818608E-02  0.1037279E+00
         21   -1    0    0  501  502  0.00000000000E+00  0.00000000000E+00  0.45715812610E+03  0.45715812610E+03  0.00000000000E+00 0.  1.
         21   -1    0    0  502  503 -0.00000000000E+00 -0.00000000000E+00 -0.47285401963E+03  0.47285401963E+03  0.00000000000E+00 0.  1.
    9000007    2    1    2  501    0 -0.84681144319E+02 -0.93584208966E+02  0.19317186033E+03  0.46144556671E+03  0.39960948818E+03 0.  0.
    9000005    1    3    3    0    0  0.37441688583E+02  0.14537239664E+03  0.81132199882E+02  0.17064128340E+03  0.99999687468E+00 0.  0.
          4    1    3    3  501    0 -0.12212283290E+03 -0.23895660561E+03  0.11203966045E+03  0.29080428331E+03  0.00000000000E+00 0.  1.
   -9000007    1    1    2    0  503  0.84681144319E+02  0.93584208966E+02 -0.20886775386E+03  0.46856657902E+03  0.40000000000E+03 0.  1.
<mgrwt>
<rscale>  2 0.41934566E+03</rscale>
<asrwt>0</asrwt>
<pdfrwt beam="1">  1       21 0.70332020E-01 0.41943879E+03</pdfrwt>
<pdfrwt beam="2">  1       21 0.72746772E-01 0.41943879E+03</pdfrwt>
<totfact> 0.27425993E+03</totfact>
</mgrwt>
</event>
<event>
 6    1  0.8739326E-004  0.4781642E+03  0.7818608E-02  0.1019692E+00
         21   -1    0    0  501  502  0.00000000000E+00  0.00000000000E+00  0.13550758119E+04  0.13550758119E+04  0.00000000000E+00 0.  1.
         21   -1    0    0  502  503 -0.00000000000E+00 -0.00000000000E+00 -0.28876291871E+03  0.28876291871E+03  0.00000000000E+00 0.  1.
    9000007    2    1    2  501    0 -0.20162667807E+03  0.16515709842E+03  0.10638968844E+04  0.11664122739E+04  0.40088754989E+03 0.  0.
    9000005    1    3    3    0    0  0.19118052547E+02  0.48126519885E+02 -0.18921729495E+02  0.55142485347E+02  0.99999687468E+00 0.  0.
          4    1    3    3  501    0 -0.22074473062E+03  0.11703057853E+03  0.10828186139E+04  0.11112697886E+04  0.00000000000E+00 0.  1.
   -9000007    1    1    2    0  503  0.20162667807E+03 -0.16515709842E+03  0.24160088065E+01  0.47742645671E+03  0.40000000000E+03 0.  1.
<mgrwt>
<rscale>  2 0.47797814E+03</rscale>
<asrwt>0</asrwt>
<pdfrwt beam="1">  1       21 0.20847320E+00 0.47816421E+03</pdfrwt>
<pdfrwt beam="2">  1       21 0.44425065E-01 0.47816421E+03</pdfrwt>
<totfact> 0.46709448E+02</totfact>
</mgrwt>
</event>
<event>
 6    1  0.8739326E-004  0.5102133E+03  0.7818608E-02  0.1011244E+00
         21   -1    0    0  501  502  0.00000000000E+00  0.00000000000E+00  0.32305074851E+03  0.32305074851E+03  0.00000000000E+00 0.  1.
         21   -1    0    0  502  503 -0.00000000000E+00 -0.00000000000E+00 -0.90667368369E+03  0.90667368369E+03  0.00000000000E+00 0. -1.
    9000007    2    1    2  501    0 -0.11045592042E+03 -0.29421676737E+03 -0.49970816386E+03  0.71416094881E+03  0.40193730259E+03 0.  0.
    9000005    1    3    3    0    0 -0.14029424912E+03  0.31361991458E+02 -0.29568753528E+03  0.32878286050E+03  0.99999687468E+00 0.  0.
          4    1    3    3  501    0  0.29838328703E+02 -0.32557875883E+03 -0.20402062858E+03  0.38537808831E+03  0.00000000000E+00 0.  1.
   -9000007    1    1    2    0  503  0.11045592042E+03  0.29421676737E+03 -0.83914771324E+02  0.51556348339E+03  0.40000000000E+03 0.  1.
<mgrwt>
<rscale>  2 0.50983168E+03</rscale>
<asrwt>0</asrwt>
<pdfrwt beam="1">  1       21 0.49700116E-01 0.51021330E+03</pdfrwt>
<pdfrwt beam="2">  1       21 0.13948826E+00 0.51021330E+03</pdfrwt>
<totfact> 0.11560468E+03</totfact>
</mgrwt>
</event>
<event>
 6    1  0.8739326E-004  0.6050752E+03  0.7818608E-02  0.9895250E-01
         21   -1    0    0  501  502  0.00000000000E+00  0.00000000000E+00  0.10181831177E+04  0.10181831177E+04  0.00000000000E+00 0. -1.
         21   -1    0    0  502  503 -0.00000000000E+00 -0.00000000000E+00 -0.51695940559E+03  0.51695940559E+03  0.00000000000E+00 0. -1.
    9000007    2    1    2  501    0  0.45385794293E+03 -0.11355012880E+02  0.67453058024E+03  0.90573705837E+03  0.39906408827E+03 0.  0.
    9000005    1    3    3    0    0  0.33824122156E+03 -0.18951147069E+03  0.38243800873E+03  0.54459301501E+03  0.99999687468E+00 0.  0.
          4    1    3    3  501    0  0.11561672137E+03  0.17815645781E+03  0.29209257152E+03  0.36114404336E+03  0.00000000000E+00 0.  1.
   -9000007    1    1    2    0  503 -0.45385794293E+03  0.11355012880E+02 -0.17330686816E+03  0.62940546488E+03  0.40000000000E+03 0. -1.
<mgrwt>
<rscale>  2 0.60492054E+03</rscale>
<asrwt>0</asrwt>
<pdfrwt beam="1">  1       21 0.15664356E+00 0.60507518E+03</pdfrwt>
<pdfrwt beam="2">  1       21 0.79532217E-01 0.60507518E+03</pdfrwt>
<totfact> 0.28650517E+02</totfact>
</mgrwt>
</event>
<event>
 6    1  0.8739326E-004  0.4019324E+03  0.7818608E-02  0.1043137E+00
         21   -1    0    0  501  502  0.00000000000E+00  0.00000000000E+00  0.91316777045E+03  0.91316777045E+03  0.00000000000E+00 0.  1.
         21   -1    0    0  502  503 -0.00000000000E+00 -0.00000000000E+00 -0.34056497426E+03  0.34056497426E+03  0.00000000000E+00 0.  1.
    9000007    2    1    2  501    0 -0.19513121033E+02 -0.30706971929E+02  0.72106584403E+03  0.82552139900E+03  0.40028233631E+03 0.  0.
    9000005    1    3    3    0    0 -0.22950415771E+02  0.11056050533E+03  0.25524474810E+02  0.11577066006E+03  0.99999687468E+00 0.  0.
          4    1    3    3  501    0  0.34372947376E+01 -0.14126747726E+03  0.69554136922E+03  0.70975073894E+03  0.00000000000E+00 0.  1.
   -9000007    1    1    2    0  503  0.19513121033E+02  0.30706971929E+02 -0.14846304784E+03  0.42821134571E+03  0.40000000000E+03 0.  1.
<mgrwt>
<rscale>  2 0.40186206E+03</rscale>
<asrwt>0</asrwt>
<pdfrwt beam="1">  1       21 0.14048735E+00 0.40193237E+03</pdfrwt>
<pdfrwt beam="2">  1       21 0.52394611E-01 0.40193237E+03</pdfrwt>
<totfact> 0.10601143E+03</totfact>
</mgrwt>
</event>
<event>
 6    1  0.8739326E-004  0.5296767E+03  0.7818608E-02  0.1006332E+00
         21   -1    0    0  501  502  0.00000000000E+00  0.00000000000E+00  0.19236540365E+04  0.19236540365E+04  0.00000000000E+00 0. -1.
         21   -1    0    0  502  503 -0.00000000000E+00 -0.00000000000E+00 -0.28290222215E+03  0.28290222215E+03  0.00000000000E+00 0. -1.
    9000007    2    1    2  501    0 -0.32637724845E+03 -0.11690789882E+03  0.15887025258E+04  0.16746740409E+04  0.40045956467E+03 0.  0.
    9000005    1    3    3    0    0 -0.26535946562E+03  0.10657716441E+02  0.14584064044E+04  0.14823897845E+04  0.99999687468E+00 0.  0.
          4    1    3    3  501    0 -0.61017782825E+02 -0.12756561527E+03  0.13029612135E+03  0.19228425640E+03  0.00000000000E+00 0.  1.
   -9000007    1    1    2    0  503  0.32637724845E+03  0.11690789882E+03  0.52049288624E+02  0.53188221775E+03  0.40000000000E+03 0. -1.
<mgrwt>
<rscale>  2 0.52958986E+03</rscale>
<asrwt>0</asrwt>
<pdfrwt beam="1">  1       21 0.29594677E+00 0.52967672E+03</pdfrwt>
<pdfrwt beam="2">  1       21 0.43523420E-01 0.52967672E+03</pdfrwt>
<totfact> 0.13607468E+02</totfact>
</mgrwt>
</event>
<event>
 6    1  0.8739326E-004  0.4166667E+03  0.7818608E-02  0.1038162E+00
         21   -1    0    0  501  502  0.00000000000E+00  0.00000000000E+00  0.15908943792E+04  0.15908943792E+04  0.00000000000E+00 0. -1.
         21   -1    0    0  502  503 -0.00000000000E+00 -0.00000000000E+00 -0.42138885413E+03  0.42138885413E+03  0.00000000000E+00 0.  1.
    9000007    2    1    2  501    0  0.95503401992E+02  0.66580712245E+02  0.14509067767E+04  0.15095501477E+04  0.40007159692E+03 0.  0.
    9000005    1    3    3    0    0  0.24794416168E+03  0.60562673358E+02  0.75026822104E+03  0.79249450990E+03  0.99999687468E+00 0.  0.
          4    1    3    3  501    0 -0.15244075969E+03  0.60180388871E+01  0.70063855564E+03  0.71705563776E+03  0.00000000000E+00 0.  1.
   -9000007    1    1    2    0  503 -0.95503401992E+02 -0.66580712245E+02 -0.28140125159E+03  0.50273308568E+03  0.40000000000E+03 0.  1.
<mgrwt>
<rscale>  2 0.41664955E+03</rscale>
<asrwt>0</asrwt>
<pdfrwt beam="1">  1       21 0.24475298E+00 0.41666674E+03</pdfrwt>
<pdfrwt beam="2">  1       21 0.64829055E-01 0.41666674E+03</pdfrwt>
<totfact> 0.12619635E+02</totfact>
</mgrwt>
</event>
<event>
 6    1  0.8739326E-004  0.4368746E+03  0.7818608E-02  0.1031717E+00
         21   -1    0    0  501  502  0.00000000000E+00  0.00000000000E+00  0.30186881624E+03  0.30186881624E+03  0.00000000000E+00 0. -1.
         21   -1    0    0  502  503 -0.00000000000E+00 -0.00000000000E+00 -0.64252420663E+03  0.64252420663E+03  0.00000000000E+00 0.  1.
    9000007    2    1    2  501    0 -0.21988547154E+02  0.17428688026E+03 -0.11027619364E+03  0.45049628555E+03  0.39990830395E+03 0.  0.
    9000005    1    3    3    0    0  0.16504097451E+03  0.52371297577E+00  0.15745915839E+02  0.16579424418E+03  0.99999687468E+00 0.  0.
          4    1    3    3  501    0 -0.18702952167E+03  0.17376316728E+03 -0.12602210948E+03  0.28470204137E+03  0.00000000000E+00 0.  1.
   -9000007    1    1    2    0  503  0.21988547154E+02 -0.17428688026E+03 -0.23037919675E+03  0.49389673732E+03  0.40000000000E+03 0.  1.
<mgrwt>
<rscale>  2 0.43685361E+03</rscale>
<asrwt>0</asrwt>
<pdfrwt beam="1">  1       21 0.46441357E-01 0.43687460E+03</pdfrwt>
<pdfrwt beam="2">  1       21 0.98849877E-01 0.43687460E+03</pdfrwt>
<totfact> 0.32790779E+03</totfact>
</mgrwt>
</event>
<event>
 6    1  0.8739326E-004  0.4297176E+03  0.7818608E-02  0.1033964E+00
         21   -1    0    0  501  502  0.00000000000E+00  0.00000000000E+00  0.28006326395E+03  0.28006326395E+03  0.00000000000E+00 0.  1.
         21   -1    0    0  502  503 -0.00000000000E+00 -0.00000000000E+00 -0.26576359050E+04  0.26576359050E+04  0.00000000000E+00 0.  1.
    9000007    2    1    2  501    0 -0.13366270936E+03 -0.82410765576E+02  0.85047558610E+02  0.43786807427E+03  0.39979758514E+03 0.  0.
    9000005    1    3    3    0    0 -0.20494774186E+03 -0.12603878236E+03 -0.79428742540E+02  0.25337576184E+03  0.99999687468E+00 0.  0.
          4    1    3    3  501    0  0.71285032500E+02  0.43628016787E+02  0.16447630115E+03  0.18449231243E+03  0.00000000000E+00 0.  1.
   -9000007    1    1    2    0  503  0.13366270936E+03  0.82410765576E+02 -0.24626201997E+04  0.24998310947E+04  0.40000000000E+03 0.  1.
<mgrwt>
<rscale>  2 0.42967053E+03</rscale>
<asrwt>0</asrwt>
<pdfrwt beam="1">  1       21 0.43086656E-01 0.42971764E+03</pdfrwt>
<pdfrwt beam="2">  1       21 0.40886707E+00 0.42971764E+03</pdfrwt>
<totfact> 0.29637736E+01</totfact>
</mgrwt>
</event>
<event>
 6    1  0.8739326E-004  0.4417469E+03  0.7818608E-02  0.1030304E+00
         21   -1    0    0  501  502  0.00000000000E+00  0.00000000000E+00  0.57829792792E+03  0.57829792792E+03  0.00000000000E+00 0. -1.
         21   -1    0    0  502  503 -0.00000000000E+00 -0.00000000000E+00 -0.33654208004E+03  0.33654208004E+03  0.00000000000E+00 0. -1.
    9000007    2    1    2  501    0  0.18067981279E+03 -0.37837706452E+02  0.12482938230E+03  0.45904544335E+03  0.40132712043E+03 0.  0.
    9000005    1    3    3    0    0  0.21862115042E+03 -0.10547213363E+03  0.22594221766E+03  0.33161794900E+03  0.99999687468E+00 0.  0.
          4    1    3    3  501    0 -0.37941337634E+02  0.67634427178E+02 -0.10111283536E+03  0.12742749435E+03  0.00000000000E+00 0.  1.
   -9000007    1    1    2    0  503 -0.18067981279E+03  0.37837706452E+02  0.11692646558E+03  0.45579456461E+03  0.40000000000E+03 0. -1.
<mgrwt>
<rscale>  2 0.44144528E+03</rscale>
<asrwt>0</asrwt>
<pdfrwt beam="1">  1       21 0.88968912E-01 0.44174692E+03</pdfrwt>
<pdfrwt beam="2">  1       21 0.51775704E-01 0.44174692E+03</pdfrwt>
<totfact> 0.33429752E+03</totfact>
</mgrwt>
</event>
<event>
 6    1  0.8739326E-004  0.4041049E+03  0.7818608E-02  0.1042381E+00
         21   -1    0    0  501  502  0.00000000000E+00  0.00000000000E+00  0.22651190536E+03  0.22651190536E+03  0.00000000000E+00 0.  1.
         21   -1    0    0  502  503 -0.00000000000E+00 -0.00000000000E+00 -0.76979704598E+03  0.76979704598E+03  0.00000000000E+00 0.  1.
    9000007    2    1    2  501    0  0.50603888630E+00  0.57449811151E+02 -0.39744769204E+03  0.56669366031E+03  0.39984534492E+03 0.  0.
    9000005    1    3    3    0    0  0.68593949056E+02 -0.32104525210E+02 -0.43995875998E+03  0.44643089147E+03  0.99999687468E+00 0.  0.
          4    1    3    3  501    0 -0.68087910170E+02  0.89554336361E+02  0.42511067934E+02  0.12026276884E+03  0.00000000000E+00 0.  1.
   -9000007    1    1    2    0  503 -0.50603888630E+00 -0.57449811151E+02 -0.14583744858E+03  0.42961529103E+03  0.40000000000E+03 0.  1.
<mgrwt>
<rscale>  2 0.40406658E+03</rscale>
<asrwt>0</asrwt>
<pdfrwt beam="1">  1       21 0.34847986E-01 0.40410486E+03</pdfrwt>
<pdfrwt beam="2">  1       21 0.11843031E+00 0.40410486E+03</pdfrwt>
<totfact> 0.38390708E+03</totfact>
</mgrwt>
</event>
<event>
 6    1  0.8739326E-004  0.4072219E+03  0.7818608E-02  0.1041382E+00
         21   -1    0    0  501  502  0.00000000000E+00  0.00000000000E+00  0.45103584984E+03  0.45103584984E+03  0.00000000000E+00 0.  1.
         21   -1    0    0  502  503 -0.00000000000E+00 -0.00000000000E+00 -0.70316653006E+03  0.70316653006E+03  0.00000000000E+00 0.  1.
    9000007    2    1    2  501    0 -0.17797689939E+02  0.74248951641E+02  0.27310636104E+03  0.48959451500E+03  0.39910655230E+03 0.  0.
    9000005    1    3    3    0    0  0.18886335388E+03  0.63605424350E+02  0.12802188480E+03  0.23686624797E+03  0.99999687468E+00 0.  0.
          4    1    3    3  501    0 -0.20666104382E+03  0.10643527290E+02  0.14508447624E+03  0.25272826702E+03  0.00000000000E+00 0.  1.
   -9000007    1    1    2    0  503  0.17797689939E+02 -0.74248951641E+02 -0.52523704126E+03  0.66460786491E+03  0.40000000000E+03 0.  1.
<mgrwt>
<rscale>  2 0.40700232E+03</rscale>
<asrwt>0</asrwt>
<pdfrwt beam="1">  1       21 0.69390131E-01 0.40722189E+03</pdfrwt>
<pdfrwt beam="2">  1       21 0.10817947E+00 0.40722189E+03</pdfrwt>
<totfact> 0.11136957E+03</totfact>
</mgrwt>
</event>
<event>
 6    1  0.8739326E-004  0.4906529E+03  0.7818608E-02  0.1016305E+00
         21   -1    0    0  501  502  0.00000000000E+00  0.00000000000E+00  0.70909219507E+03  0.70909219507E+03  0.00000000000E+00 0. -1.
         21   -1    0    0  502  503 -0.00000000000E+00 -0.00000000000E+00 -0.53228891755E+03  0.53228891755E+03  0.00000000000E+00 0.  1.
    9000007    2    1    2  501    0  0.23714129046E+03 -0.15653835119E+03  0.46246671502E+03  0.67362778013E+03  0.39894695965E+03 0.  0.
    9000005    1    3    3    0    0  0.19672276511E+03  0.73528088163E+02  0.36377060469E+03  0.42004318693E+03  0.99999687468E+00 0.  0.
          4    1    3    3  501    0  0.40418525358E+02 -0.23006643936E+03  0.98696110338E+02  0.25358459320E+03  0.00000000000E+00 0.  1.
   -9000007    1    1    2    0  503 -0.23714129046E+03  0.15653835119E+03 -0.28566343750E+03  0.56775333250E+03  0.40000000000E+03 0.  1.
<mgrwt>
<rscale>  2 0.49043821E+03</rscale>
<asrwt>0</asrwt>
<pdfrwt beam="1">  1       21 0.10909111E+00 0.49065288E+03</pdfrwt>
<pdfrwt beam="2">  1       21 0.81890602E-01 0.49065288E+03</pdfrwt>
<totfact> 0.72134587E+02</totfact>
</mgrwt>
</event>
<event>
 6    1  0.8739326E-004  0.5023252E+03  0.7818608E-02  0.1013426E+00
         21   -1    0    0  501  502  0.00000000000E+00  0.00000000000E+00  0.93609222719E+03  0.93609222719E+03  0.00000000000E+00 0.  1.
         21   -1    0    0  502  503 -0.00000000000E+00 -0.00000000000E+00 -0.37615022976E+03  0.37615022976E+03  0.00000000000E+00 0.  1.
    9000007    2    1    2  501    0  0.20398128902E+03 -0.22521588141E+03  0.63185798289E+03  0.80479544644E+03  0.39512104546E+03 0.  0.
    9000005    1    3    3    0    0  0.63884676842E+02 -0.31294408508E+03  0.32163894146E+03  0.45328562847E+03  0.99999687468E+00 0.  0.
          4    1    3    3  501    0  0.14009661217E+03  0.87728203673E+02  0.31021904143E+03  0.35150981797E+03  0.00000000000E+00 0.  1.
   -9000007    1    1    2    0  503 -0.20398128902E+03  0.22521588141E+03 -0.71915985454E+02  0.50744701051E+03  0.40000000000E+03 0.  1.
<mgrwt>
<rscale>  2 0.50135325E+03</rscale>
<asrwt>0</asrwt>
<pdfrwt beam="1">  1       21 0.14401419E+00 0.50232515E+03</pdfrwt>
<pdfrwt beam="2">  1       21 0.57869266E-01 0.50232515E+03</pdfrwt>
<totfact> 0.76658706E+02</totfact>
</mgrwt>
</event>
<event>
 6    1  0.8739326E-004  0.6504296E+03  0.7818608E-02  0.9806041E-01
         21   -1    0    0  501  502  0.00000000000E+00  0.00000000000E+00  0.94350738072E+03  0.94350738072E+03  0.00000000000E+00 0. -1.
         21   -1    0    0  502  503 -0.00000000000E+00 -0.00000000000E+00 -0.10021310491E+04  0.10021310491E+04  0.00000000000E+00 0.  1.
    9000007    2    1    2  501    0 -0.26552818654E+03  0.43880916969E+03  0.69389629807E+03  0.95098019445E+03  0.39976562198E+03 0.  0.
    9000005    1    3    3    0    0 -0.22017505758E+03  0.14173613765E+03  0.56743686034E+03  0.62494142059E+03  0.99999687468E+00 0.  0.
          4    1    3    3  501    0 -0.45353128956E+02  0.29707303204E+03  0.12645943772E+03  0.32603877387E+03  0.00000000000E+00 0.  1.
   -9000007    1    1    2    0  503  0.26552818654E+03 -0.43880916969E+03 -0.75251996640E+03  0.99465823532E+03  0.40000000000E+03 0.  1.
<mgrwt>
<rscale>  2 0.65039360E+03</rscale>
<asrwt>0</asrwt>
<pdfrwt beam="1">  1       21 0.14515498E+00 0.65042963E+03</pdfrwt>
<pdfrwt beam="2">  1       21 0.15417401E+00 0.65042963E+03</pdfrwt>
<totfact> 0.65407561E+01</totfact>
</mgrwt>
</event>
<event>
 6    1  0.8739326E-004  0.5052262E+03  0.7818608E-02  0.1012444E+00
         21   -1    0    0  501  502  0.00000000000E+00  0.00000000000E+00  0.60071609196E+03  0.60071609196E+03  0.00000000000E+00 0. -1.
         21   -1    0    0  502  503 -0.00000000000E+00 -0.00000000000E+00 -0.48892452812E+03  0.48892452812E+03  0.00000000000E+00 0.  1.
    9000007    2    1    2  501    0  0.78139845649E+02 -0.29857612104E+03 -0.14166392487E+03  0.52440330684E+03  0.39959557691E+03 0.  0.
    9000005    1    3    3    0    0 -0.10204504226E+03  0.32476229131E+02  0.28559392797E+02  0.11083562162E+03  0.99999687468E+00 0.  0.
          4    1    3    3  501    0  0.18018488791E+03 -0.33105235017E+03 -0.17022331767E+03  0.41356768522E+03  0.00000000000E+00 0.  1.
   -9000007    1    1    2    0  503 -0.78139845649E+02  0.29857612104E+03  0.25345548870E+03  0.56523731325E+03  0.40000000000E+03 0. -1.
<mgrwt>
<rscale>  2 0.50514617E+03</rscale>
<asrwt>0</asrwt>
<pdfrwt beam="1">  1       21 0.92417860E-01 0.50522622E+03</pdfrwt>
<pdfrwt beam="2">  1       21 0.75219158E-01 0.50522622E+03</pdfrwt>
<totfact> 0.13080446E+03</totfact>
</mgrwt>
</event>
<event>
 6    1  0.8739326E-004  0.5011392E+03  0.7818608E-02  0.1013563E+00
         21   -1    0    0  501  502  0.00000000000E+00  0.00000000000E+00  0.44651688595E+03  0.44651688595E+03  0.00000000000E+00 0.  1.
         21   -1    0    0  502  503 -0.00000000000E+00 -0.00000000000E+00 -0.59949820495E+03  0.59949820495E+03  0.00000000000E+00 0. -1.
    9000007    2    1    2  501    0  0.77080853021E+02  0.28975417792E+03  0.55866677784E+02  0.50424352715E+03  0.40154888552E+03 0.  0.
    9000005    1    3    3    0    0 -0.14268941429E+03  0.94783170345E+02  0.11263841965E+03  0.20501836968E+03  0.99999687468E+00 0.  0.
          4    1    3    3  501    0  0.21977026731E+03  0.19497100758E+03 -0.56771741870E+02  0.29922515747E+03  0.00000000000E+00 0.  1.
   -9000007    1    1    2    0  503 -0.77080853021E+02 -0.28975417792E+03 -0.20884799679E+03  0.54177156375E+03  0.40000000000E+03 0. -1.
<mgrwt>
<rscale>  2 0.50082881E+03</rscale>
<asrwt>0</asrwt>
<pdfrwt beam="1">  1       21 0.68694905E-01 0.50113915E+03</pdfrwt>
<pdfrwt beam="2">  1       21 0.92230493E-01 0.50113915E+03</pdfrwt>
<totfact> 0.16171317E+03</totfact>
</mgrwt>
</event>
<event>
 6    1  0.8739326E-004  0.4182247E+03  0.7818608E-02  0.1037670E+00
         21   -1    0    0  501  502  0.00000000000E+00  0.00000000000E+00  0.13636922343E+04  0.13636922343E+04  0.00000000000E+00 0. -1.
         21   -1    0    0  502  503 -0.00000000000E+00 -0.00000000000E+00 -0.14327209411E+03  0.14327209411E+03  0.00000000000E+00 0. -1.
    9000007    2    1    2  501    0  0.44574243064E+02  0.11258283391E+03  0.36578894160E+03  0.55561988855E+03  0.40031256928E+03 0.  0.
    9000005    1    3    3    0    0  0.68149323842E+02  0.25673386763E+03  0.28122917839E+03  0.38684293957E+03  0.99999687468E+00 0.  0.
          4    1    3    3  501    0 -0.23575080779E+02 -0.14415103371E+03  0.84559763210E+02  0.16877694898E+03  0.00000000000E+00 0.  1.
   -9000007    1    1    2    0  503 -0.44574243064E+02 -0.11258283391E+03  0.85463119856E+03  0.95134443983E+03  0.40000000000E+03 0. -1.
<mgrwt>
<rscale>  2 0.41814990E+03</rscale>
<asrwt>0</asrwt>
<pdfrwt beam="1">  1       21 0.20979880E+00 0.41822471E+03</pdfrwt>
<pdfrwt beam="2">  1       21 0.22041862E-01 0.41822471E+03</pdfrwt>
<totfact> 0.19123231E+03</totfact>
</mgrwt>
</event>
<event>
 6    1  0.8739326E-004  0.4167267E+03  0.7818608E-02  0.1038265E+00
         21   -1    0    0  501  502  0.00000000000E+00  0.00000000000E+00  0.50002385533E+03  0.50002385533E+03  0.00000000000E+00 0. -1.
         21   -1    0    0  502  503 -0.00000000000E+00 -0.00000000000E+00 -0.56361044179E+03  0.56361044179E+03  0.00000000000E+00 0. -1.
    9000007    2    1    2  501    0 -0.10672969488E+03 -0.31175543312E+02  0.29862001619E+03  0.51267443899E+03  0.40161925259E+03 0.  0.
    9000005    1    3    3    0    0  0.84562515230E+02  0.12983436288E+03  0.57365992463E+02  0.16522602050E+03  0.99999687468E+00 0.  0.
          4    1    3    3  501    0 -0.19129221011E+03 -0.16100990619E+03  0.24125402373E+03  0.34744841848E+03  0.00000000000E+00 0.  1.
   -9000007    1    1    2    0  503  0.10672969488E+03  0.31175543312E+02 -0.36220660265E+03  0.55095985814E+03  0.40000000000E+03 0.  1.
<mgrwt>
<rscale>  2 0.41633610E+03</rscale>
<asrwt>0</asrwt>
<pdfrwt beam="1">  1       21 0.76926747E-01 0.41672673E+03</pdfrwt>
<pdfrwt beam="2">  1       21 0.86709299E-01 0.41672673E+03</pdfrwt>
<totfact> 0.14950930E+03</totfact>
</mgrwt>
</event>
<event>
 6    1  0.8739326E-004  0.4714891E+03  0.7818608E-02  0.1021516E+00
         21   -1    0    0  501  502  0.00000000000E+00  0.00000000000E+00  0.15137353007E+04  0.15137353007E+04  0.00000000000E+00 0. -1.
         21   -1    0    0  502  503 -0.00000000000E+00 -0.00000000000E+00 -0.14782183004E+03  0.14782183004E+03  0.00000000000E+00 0.  1.
    9000007    2    1    2  501    0  0.17799708138E+03 -0.17498283524E+03  0.61342852848E+03  0.77356189324E+03  0.39975178489E+03 0.  0.
    9000005    1    3    3    0    0  0.18922752605E+03 -0.17080422600E+03  0.66941420181E+03  0.71630825335E+03  0.99999687468E+00 0.  0.
          4    1    3    3  501    0 -0.11230444671E+02 -0.41786092466E+01 -0.55985673334E+02  0.57253639896E+02  0.00000000000E+00 0.  1.
   -9000007    1    1    2    0  503 -0.17799708138E+03  0.17498283524E+03  0.75248494214E+03  0.88799523746E+03  0.40000000000E+03 0. -1.
<mgrwt>
<rscale>  2 0.47143643E+03</rscale>
<asrwt>0</asrwt>
<pdfrwt beam="1">  1       21 0.23288234E+00 0.47148908E+03</pdfrwt>
<pdfrwt beam="2">  1       21 0.22741821E-01 0.47148908E+03</pdfrwt>
<totfact> 0.12516005E+03</totfact>
</mgrwt>
</event>
<event>
 6    1  0.8739326E-004  0.4801925E+03  0.7818608E-02  0.1019120E+00
         21   -1    0    0  501  502  0.00000000000E+00  0.00000000000E+00  0.13833320777E+04  0.13833320777E+04  0.00000000000E+00 0.  1.
         21   -1    0    0  502  503 -0.00000000000E+00 -0.00000000000E+00 -0.19283323760E+03  0.19283323760E+03  0.00000000000E+00 0. -1.
    9000007    2    1    2  501    0 -0.66394866016E+02 -0.25724798015E+03  0.88620654205E+03  0.10076773170E+04  0.39933286681E+03 0.  0.
    9000005    1    3    3    0    0 -0.19756842913E+03 -0.28296367299E+03  0.61112095515E+03  0.70183441511E+03  0.99999687468E+00 0.  0.
          4    1    3    3  501    0  0.13117356311E+03  0.25715692841E+02  0.27508558690E+03  0.30584290190E+03  0.00000000000E+00 0.  1.
   -9000007    1    1    2    0  503  0.66394866016E+02  0.25724798015E+03  0.30429229801E+03  0.56848799825E+03  0.40000000000E+03 0. -1.
<mgrwt>
<rscale>  2 0.48005351E+03</rscale>
<asrwt>0</asrwt>
<pdfrwt beam="1">  1       21 0.21282031E+00 0.48019246E+03</pdfrwt>
<pdfrwt beam="2">  1       21 0.29666653E-01 0.48019246E+03</pdfrwt>
<totfact> 0.99522235E+02</totfact>
</mgrwt>
</event>
<event>
 6    1  0.8739326E-004  0.4249867E+03  0.7818608E-02  0.1035553E+00
         21   -1    0    0  501  502  0.00000000000E+00  0.00000000000E+00  0.66232086302E+02  0.66232086302E+02  0.00000000000E+00 0. -1.
         21   -1    0    0  502  503 -0.00000000000E+00 -0.00000000000E+00 -0.27207204687E+04  0.27207204687E+04  0.00000000000E+00 0. -1.
    9000007    2    1    2  501    0  0.12104571818E+02  0.14306358183E+03 -0.12925781211E+04  0.13602734499E+04  0.39871286692E+03 0.  0.
    9000005    1    3    3    0    0 -0.10386724024E+03 -0.99959847899E+02 -0.31744957578E+03  0.34864825819E+03  0.99999687468E+00 0.  0.
          4    1    3    3  501    0  0.11597181206E+03  0.24302342973E+03 -0.97512854528E+03  0.10116251917E+04  0.00000000000E+00 0.  1.
   -9000007    1    1    2    0  503 -0.12104571818E+02 -0.14306358183E+03 -0.13619102613E+04  0.14266791051E+04  0.40000000000E+03 0.  1.
<mgrwt>
<rscale>  2 0.42468358E+03</rscale>
<asrwt>0</asrwt>
<pdfrwt beam="1">  1       21 0.10189555E-01 0.42498672E+03</pdfrwt>
<pdfrwt beam="2">  1       21 0.41857225E+00 0.42498672E+03</pdfrwt>
<totfact> 0.40939666E+02</totfact>
</mgrwt>
</event>
<event>
 6    1  0.8739326E-004  0.6531178E+03  0.7818608E-02  0.9800981E-01
         21   -1    0    0  501  502  0.00000000000E+00  0.00000000000E+00  0.33039706544E+03  0.33039706544E+03  0.00000000000E+00 0. -1.
         21   -1    0    0  502  503 -0.00000000000E+00 -0.00000000000E+00 -0.12919979076E+04  0.12919979076E+04  0.00000000000E+00 0.  1.
    9000007    2    1    2  501    0 -0.43988388133E+03  0.27012740359E+03 -0.50430496262E+03  0.82515839295E+03  0.40012027555E+03 0.  0.
    9000005    1    3    3    0    0 -0.48392000312E+03  0.16502400509E+03 -0.30435823714E+03  0.59501800660E+03  0.99999687468E+00 0.  0.
          4    1    3    3  501    0  0.44036121786E+02  0.10510339850E+03 -0.19994672548E+03  0.23014038635E+03  0.00000000000E+00 0.  1.
   -9000007    1    1    2    0  503  0.43988388133E+03 -0.27012740359E+03 -0.45729587957E+03  0.79723658013E+03  0.40000000000E+03 0. -1.
<mgrwt>
<rscale>  2 0.65309939E+03</rscale>
<asrwt>0</asrwt>
<pdfrwt beam="1">  1       21 0.50830317E-01 0.65311781E+03</pdfrwt>
<pdfrwt beam="2">  1       21 0.19876891E+00 0.65311781E+03</pdfrwt>
<totfact> 0.38026502E+02</totfact>
</mgrwt>
</event>
<event>
 6    1  0.8739326E-004  0.4262253E+03  0.7818608E-02  0.1035084E+00
         21   -1    0    0  501  502  0.00000000000E+00  0.00000000000E+00  0.19923902463E+04  0.19923902463E+04  0.00000000000E+00 0.  1.
         21   -1    0    0  502  503 -0.00000000000E+00 -0.00000000000E+00 -0.11173357701E+03  0.11173357701E+03  0.00000000000E+00 0.  1.
    9000007    2    1    2  501    0 -0.10801410346E+03 -0.98660316480E+02  0.13925603710E+04  0.14563284073E+04  0.40033378376E+03 0.  0.
    9000005    1    3    3    0    0  0.19052686028E+02  0.97637152413E+02  0.93953585487E+02  0.13683674432E+03  0.99999687468E+00 0.  0.
          4    1    3    3  501    0 -0.12706678949E+03 -0.19629746889E+03  0.12986067855E+04  0.13194916629E+04  0.00000000000E+00 0.  1.
   -9000007    1    1    2    0  503  0.10801410346E+03  0.98660316480E+02  0.48809629829E+03  0.64779541600E+03  0.40000000000E+03 0.  1.
<mgrwt>
<rscale>  2 0.42614695E+03</rscale>
<asrwt>0</asrwt>
<pdfrwt beam="1">  1       21 0.30652155E+00 0.42622534E+03</pdfrwt>
<pdfrwt beam="2">  1       21 0.17189783E-01 0.42622534E+03</pdfrwt>
<totfact> 0.77777227E+02</totfact>
</mgrwt>
</event>
<event>
 6    1  0.8739326E-004  0.4013171E+03  0.7818608E-02  0.1043342E+00
         21   -1    0    0  501  502  0.00000000000E+00  0.00000000000E+00  0.23105054020E+03  0.23105054020E+03  0.00000000000E+00 0.  1.
         21   -1    0    0  502  503 -0.00000000000E+00 -0.00000000000E+00 -0.69683223500E+03  0.69683223500E+03  0.00000000000E+00 0.  1.
    9000007    2    1    2  501    0  0.30569111380E+01 -0.29792549820E+02 -0.22690748853E+03  0.46102323834E+03  0.40019804748E+03 0.  0.
    9000005    1    3    3    0    0 -0.60063146922E+02  0.14230483159E+02  0.10418684526E+03  0.12110320800E+03  0.99999687468E+00 0.  0.
          4    1    3    3  501    0  0.63120058060E+02 -0.44023032979E+02 -0.33109433379E+03  0.33992003034E+03  0.00000000000E+00 0.  1.
   -9000007    1    1    2    0  503 -0.30569111380E+01  0.29792549820E+02 -0.23887420627E+03  0.46685953686E+03  0.40000000000E+03 0.  1.
<mgrwt>
<rscale>  2 0.40126772E+03</rscale>
<asrwt>0</asrwt>
<pdfrwt beam="1">  1       21 0.35546237E-01 0.40131710E+03</pdfrwt>
<pdfrwt beam="2">  1       21 0.10720496E+00 0.40131710E+03</pdfrwt>
<totfact> 0.47287657E+03</totfact>
</mgrwt>
</event>
<event>
 6    1  0.8739326E-004  0.5577158E+03  0.7818608E-02  0.9999051E-01
         21   -1    0    0  501  502  0.00000000000E+00  0.00000000000E+00  0.21928002347E+04  0.21928002347E+04  0.00000000000E+00 0.  1.
         21   -1    0    0  502  503 -0.00000000000E+00 -0.00000000000E+00 -0.14108736900E+03  0.14108736900E+03  0.00000000000E+00 0.  1.
    9000007    2    1    2  501    0  0.85540741303E+02 -0.37442070569E+03  0.10499201410E+04  0.11888562738E+04  0.40439937424E+03 0.  0.
    9000005    1    3    3    0    0 -0.63954550845E+02  0.65317964606E+02  0.21085997456E+03  0.22982504202E+03  0.99999687468E+00 0.  0.
          4    1    3    3  501    0  0.14949529215E+03 -0.43973867030E+03  0.83906016645E+03  0.95903123174E+03  0.00000000000E+00 0.  1.
   -9000007    1    1    2    0  503 -0.85540741303E+02  0.37442070569E+03  0.10017927247E+04  0.11450313299E+04  0.40000000000E+03 0.  1.
<mgrwt>
<rscale>  2 0.55691869E+03</rscale>
<asrwt>0</asrwt>
<pdfrwt beam="1">  1       21 0.33735386E+00 0.55771582E+03</pdfrwt>
<pdfrwt beam="2">  1       21 0.21705751E-01 0.55771582E+03</pdfrwt>
<totfact> 0.30256790E+02</totfact>
</mgrwt>
</event>
<event>
 6    1  0.8739326E-004  0.4228703E+03  0.7818608E-02  0.1036190E+00
         21   -1    0    0  501  502  0.00000000000E+00  0.00000000000E+00  0.11556517681E+03  0.11556517681E+03  0.00000000000E+00 0.  1.
         21   -1    0    0  502  503 -0.00000000000E+00 -0.00000000000E+00 -0.19513676658E+04  0.19513676658E+04  0.00000000000E+00 0.  1.
    9000007    2    1    2  501    0 -0.10875644446E+03  0.83613991900E+02 -0.13889946756E+04  0.14517446715E+04  0.39929577802E+03 0.  0.
    9000005    1    3    3    0    0 -0.15983336705E+03 -0.61934426002E+01 -0.19025915452E+03  0.24856510179E+03  0.99999687468E+00 0.  0.
          4    1    3    3  501    0  0.51076922595E+02  0.89807434501E+02 -0.11987355211E+04  0.12031795697E+04  0.00000000000E+00 0.  1.
   -9000007    1    1    2    0  503  0.10875644446E+03 -0.83613991900E+02 -0.44680781343E+03  0.61518817120E+03  0.40000000000E+03 0.  1.
<mgrwt>
<rscale>  2 0.42270365E+03</rscale>
<asrwt>0</asrwt>
<pdfrwt beam="1">  1       21 0.17779261E-01 0.42287027E+03</pdfrwt>
<pdfrwt beam="2">  1       21 0.30021036E+00 0.42287027E+03</pdfrwt>
<totfact> 0.79812910E+02</totfact>
</mgrwt>
</event>
<event>
 6    1  0.8739326E-004  0.4480625E+03  0.7818608E-02  0.1028980E+00
         21   -1    0    0  501  502  0.00000000000E+00  0.00000000000E+00  0.83717571299E+02  0.83717571299E+02  0.00000000000E+00 0.  1.
         21   -1    0    0  502  503 -0.00000000000E+00 -0.00000000000E+00 -0.23749498593E+04  0.23749498593E+04  0.00000000000E+00 0.  1.
    9000007    2    1    2  501    0  0.78719021619E+02  0.18591219537E+03 -0.10091499003E+04  0.11005454635E+04  0.38994456930E+03 0.  0.
    9000005    1    3    3    0    0  0.23853919415E+02 -0.67294852497E+02 -0.14702181554E+02  0.72902405860E+02  0.99999687468E+00 0.  0.
          4    1    3    3  501    0  0.54865102204E+02  0.25320704786E+03 -0.99444771874E+03  0.10276430576E+04  0.00000000000E+00 0.  1.
   -9000007    1    1    2    0  503 -0.78719021619E+02 -0.18591219537E+03 -0.12820823877E+04  0.13581219671E+04  0.40000000000E+03 0.  1.
<mgrwt>
<rscale>  2 0.44580720E+03</rscale>
<asrwt>0</asrwt>
<pdfrwt beam="1">  1       21 0.12879629E-01 0.44806253E+03</pdfrwt>
<pdfrwt beam="2">  1       21 0.36537683E+00 0.44806253E+03</pdfrwt>
<totfact> 0.57466404E+02</totfact>
</mgrwt>
</event>
<event>
 6    1  0.8739326E-004  0.4417936E+03  0.7818608E-02  0.1030206E+00
         21   -1    0    0  501  502  0.00000000000E+00  0.00000000000E+00  0.21628187247E+03  0.21628187247E+03  0.00000000000E+00 0.  1.
         21   -1    0    0  502  503 -0.00000000000E+00 -0.00000000000E+00 -0.96964531824E+03  0.96964531824E+03  0.00000000000E+00 0.  1.
    9000007    2    1    2  501    0  0.12814036174E+02  0.18689061085E+03 -0.22037575083E+03  0.49370744027E+03  0.40011156579E+03 0.  0.
    9000005    1    3    3    0    0  0.56153716380E+02  0.53998860622E+02  0.11010454133E+03  0.13488189956E+03  0.99999687468E+00 0.  0.
          4    1    3    3  501    0 -0.43339680207E+02  0.13289175023E+03 -0.33048029216E+03  0.35882554071E+03  0.00000000000E+00 0.  1.
   -9000007    1    1    2    0  503 -0.12814036174E+02 -0.18689061085E+03 -0.53298769494E+03  0.69221975045E+03  0.40000000000E+03 0.  1.
<mgrwt>
<rscale>  2 0.44176832E+03</rscale>
<asrwt>0</asrwt>
<pdfrwt beam="1">  1       21 0.33274135E-01 0.44179358E+03</pdfrwt>
<pdfrwt beam="2">  1       21 0.14917620E+00 0.44179358E+03</pdfrwt>
<totfact> 0.22713044E+03</totfact>
</mgrwt>
</event>
<event>
 6    1  0.8739326E-004  0.5603942E+03  0.7818608E-02  0.9991235E-01
         21   -1    0    0  501  502  0.00000000000E+00  0.00000000000E+00  0.60676245150E+03  0.60676245150E+03  0.00000000000E+00 0.  1.
         21   -1    0    0  502  503 -0.00000000000E+00 -0.00000000000E+00 -0.51793404449E+03  0.51793404449E+03  0.00000000000E+00 0.  1.
    9000007    2    1    2  501    0  0.71828529538E+02 -0.38566709348E+03  0.61587313859E+02  0.56376822803E+03  0.40017892631E+03 0.  0.
    9000005    1    3    3    0    0  0.53690800258E+02 -0.15466300166E+03 -0.17010248543E+03  0.23609151120E+03  0.99999687468E+00 0.  0.
          4    1    3    3  501    0  0.18137729280E+02 -0.23100409181E+03  0.23168979929E+03  0.32767671683E+03  0.00000000000E+00 0.  1.
   -9000007    1    1    2    0  503 -0.71828529538E+02  0.38566709348E+03  0.27241093149E+02  0.56092826796E+03  0.40000000000E+03 0.  1.
<mgrwt>
<rscale>  2 0.56036222E+03</rscale>
<asrwt>0</asrwt>
<pdfrwt beam="1">  1       21 0.93348070E-01 0.56039416E+03</pdfrwt>
<pdfrwt beam="2">  1       21 0.79682161E-01 0.56039416E+03</pdfrwt>
<totfact> 0.10977733E+03</totfact>
</mgrwt>
</event>
<event>
 6    1  0.8739326E-004  0.4000273E+03  0.7818608E-02  0.1043783E+00
         21   -1    0    0  501  502  0.00000000000E+00  0.00000000000E+00  0.78035236861E+02  0.78035236861E+02  0.00000000000E+00 0.  1.
         21   -1    0    0  502  503 -0.00000000000E+00 -0.00000000000E+00 -0.30329885493E+04  0.30329885493E+04  0.00000000000E+00 0.  1.
    9000007    2    1    2  501    0 -0.23802786281E+01 -0.40199939354E+01 -0.59169134520E+03  0.71414478382E+03  0.39985284567E+03 0.  0.
    9000005    1    3    3    0    0  0.10039331241E+03  0.55406601542E+02 -0.58402857465E+03  0.59517987590E+03  0.99999687468E+00 0.  0.
          4    1    3    3  501    0 -0.10277359103E+03 -0.59426595477E+02 -0.76627705506E+01  0.11896490792E+03  0.00000000000E+00 0.  1.
   -9000007    1    1    2    0  503  0.23802786281E+01  0.40199939354E+01 -0.23632619672E+04  0.23968790023E+04  0.40000000000E+03 0.  1.
<mgrwt>
<rscale>  2 0.39999049E+03</rscale>
<asrwt>0</asrwt>
<pdfrwt beam="1">  1       21 0.12005421E-01 0.40002728E+03</pdfrwt>
<pdfrwt beam="2">  1       21 0.46661362E+00 0.40002728E+03</pdfrwt>
<totfact> 0.14769931E+02</totfact>
</mgrwt>
</event>
<event>
 6    1  0.8739326E-004  0.5222592E+03  0.7818608E-02  0.1008168E+00
         21   -1    0    0  501  502  0.00000000000E+00  0.00000000000E+00  0.38804305525E+03  0.38804305525E+03  0.00000000000E+00 0.  1.
         21   -1    0    0  502  503 -0.00000000000E+00 -0.00000000000E+00 -0.10389252639E+04  0.10389252639E+04  0.00000000000E+00 0. -1.
    9000007    2    1    2  501    0  0.28504476895E+03 -0.17749406319E+03  0.81016052011E+02  0.52784111640E+03  0.39912151120E+03 0.  0.
    9000005    1    3    3    0    0  0.21107305384E+03 -0.47075904019E+01 -0.12787861416E+03  0.24683584711E+03  0.99999687468E+00 0.  0.
          4    1    3    3  501    0  0.73971715115E+02 -0.17278647278E+03  0.20889466617E+03  0.28100526929E+03  0.00000000000E+00 0.  1.
   -9000007    1    1    2    0  503 -0.28504476895E+03  0.17749406319E+03 -0.73189826067E+03  0.89912720276E+03  0.40000000000E+03 0. -1.
<mgrwt>
<rscale>  2 0.52209098E+03</rscale>
<asrwt>0</asrwt>
<pdfrwt beam="1">  1       21 0.59698932E-01 0.52225919E+03</pdfrwt>
<pdfrwt beam="2">  1       21 0.15983465E+00 0.52225919E+03</pdfrwt>
<totfact> 0.53393211E+02</totfact>
</mgrwt>
</event>
<event>
 6    1  0.8739326E-004  0.4530437E+03  0.7818608E-02  0.1026890E+00
         21   -1    0    0  501  502  0.00000000000E+00  0.00000000000E+00  0.27345214478E+03  0.27345214478E+03  0.00000000000E+00 0.  1.
         21   -1    0    0  502  503 -0.00000000000E+00 -0.00000000000E+00 -0.11276097638E+04  0.11276097638E+04  0.00000000000E+00 0.  1.
    9000007    2    1    2  501    0 -0.20937336776E+03  0.23139234122E+02 -0.21448813249E+02  0.45355117698E+03  0.40109348943E+03 0.  0.
    9000005    1    3    3    0    0 -0.15150160944E+03  0.13582956798E+03 -0.16509092894E+03  0.26202752529E+03  0.99999687468E+00 0.  0.
          4    1    3    3  501    0 -0.57871758325E+02 -0.11269033386E+03  0.14364211569E+03  0.19152365169E+03  0.00000000000E+00 0.  1.
   -9000007    1    1    2    0  503  0.20937336776E+03 -0.23139234122E+02 -0.83270880579E+03  0.94751073161E+03  0.40000000000E+03 0.  1.
<mgrwt>
<rscale>  2 0.45280158E+03</rscale>
<asrwt>0</asrwt>
<pdfrwt beam="1">  1       21 0.42069561E-01 0.45304373E+03</pdfrwt>
<pdfrwt beam="2">  1       21 0.17347842E+00 0.45304373E+03</pdfrwt>
<totfact> 0.91931634E+02</totfact>
</mgrwt>
</event>
<event>
 6    1  0.8739326E-004  0.5662067E+03  0.7818608E-02  0.9978283E-01
         21   -1    0    0  501  502  0.00000000000E+00  0.00000000000E+00  0.82509225091E+03  0.82509225091E+03  0.00000000000E+00 0. -1.
         21   -1    0    0  502  503 -0.00000000000E+00 -0.00000000000E+00 -0.51244119499E+03  0.51244119499E+03  0.00000000000E+00 0.  1.
    9000007    2    1    2  501    0  0.39775100670E+03 -0.48828238209E+02  0.48540816532E+03  0.74555787291E+03  0.39955649754E+03 0.  0.
    9000005    1    3    3    0    0  0.42367527866E+03 -0.12371118499E+03  0.49786775021E+03  0.66534088686E+03  0.99999687468E+00 0.  0.
          4    1    3    3  501    0 -0.25924271959E+02  0.74882946782E+02 -0.12459584891E+02  0.80216986051E+02  0.00000000000E+00 0.  1.
   -9000007    1    1    2    0  503 -0.39775100670E+03  0.48828238209E+02 -0.17275710939E+03  0.59197557299E+03  0.40000000000E+03 0.  1.
<mgrwt>
<rscale>  2 0.56612841E+03</rscale>
<asrwt>0</asrwt>
<pdfrwt beam="1">  1       21 0.12693727E+00 0.56620673E+03</pdfrwt>
<pdfrwt beam="2">  1       21 0.78837107E-01 0.56620673E+03</pdfrwt>
<totfact> 0.52162069E+02</totfact>
</mgrwt>
</event>
<event>
 6    1  0.8739326E-004  0.4715032E+03  0.7818608E-02  0.1021506E+00
         21   -1    0    0  501  502  0.00000000000E+00  0.00000000000E+00  0.27917241847E+03  0.27917241847E+03  0.00000000000E+00 0. -1.
         21   -1    0    0  502  503 -0.00000000000E+00 -0.00000000000E+00 -0.80944255753E+03  0.80944255753E+03  0.00000000000E+00 0. -1.
    9000007    2    1    2  501    0 -0.87407219432E+01  0.24923522758E+03 -0.19534168455E+03  0.51036618133E+03  0.40015080461E+03 0.  0.
    9000005    1    3    3    0    0 -0.10463824955E+03  0.16483153628E+03  0.76742472736E+02  0.20978323512E+03  0.99999687468E+00 0.  0.
          4    1    3    3  501    0  0.95897527606E+02  0.84403691305E+02 -0.27208415729E+03  0.30058294622E+03  0.00000000000E+00 0.  1.
   -9000007    1    1    2    0  503  0.87407219432E+01 -0.24923522758E+03 -0.33492845451E+03  0.57824879466E+03  0.40000000000E+03 0. -1.
<mgrwt>
<rscale>  2 0.47147120E+03</rscale>
<asrwt>0</asrwt>
<pdfrwt beam="1">  1       21 0.42949603E-01 0.47150320E+03</pdfrwt>
<pdfrwt beam="2">  1       21 0.12452962E+00 0.47150320E+03</pdfrwt>
<totfact> 0.21450292E+03</totfact>
</mgrwt>
</event>
<event>
 6    1  0.8739326E-004  0.4147026E+03  0.7818608E-02  0.1039181E+00
         21   -1    0    0  501  502  0.00000000000E+00  0.00000000000E+00  0.27135079666E+04  0.27135079666E+04  0.00000000000E+00 0. -1.
         21   -1    0    0  502  503 -0.00000000000E+00 -0.00000000000E+00 -0.88563392656E+02  0.88563392656E+02  0.00000000000E+00 0. -1.
    9000007    2    1    2  501    0  0.44199149471E+02 -0.79310632174E+02  0.20748509824E+04  0.21158886572E+04  0.40464116102E+03 0.  0.
    9000005    1    3    3    0    0 -0.15737146035E+03  0.20273233467E+02  0.48695751915E+03  0.51215759877E+03  0.99999687468E+00 0.  0.
          4    1    3    3  501    0  0.20157060983E+03 -0.99583865641E+02  0.15878934632E+04  0.16037310584E+04  0.00000000000E+00 0.  1.
   -9000007    1    1    2    0  503 -0.44199149471E+02  0.79310632174E+02  0.55009359157E+03  0.68618270211E+03  0.40000000000E+03 0. -1.
<mgrwt>
<rscale>  2 0.41356607E+03</rscale>
<asrwt>0</asrwt>
<pdfrwt beam="1">  1       21 0.41746270E+00 0.41470256E+03</pdfrwt>
<pdfrwt beam="2">  1       21 0.13625139E-01 0.41470256E+03</pdfrwt>
<totfact> 0.24722866E+02</totfact>
</mgrwt>
</event>
<event>
 6    1  0.8739326E-004  0.4502836E+03  0.7818608E-02  0.1027675E+00
         21   -1    0    0  501  502  0.00000000000E+00  0.00000000000E+00  0.97363659366E+03  0.97363659366E+03  0.00000000000E+00 0.  1.
         21   -1    0    0  502  503 -0.00000000000E+00 -0.00000000000E+00 -0.60749680449E+03  0.60749680449E+03  0.00000000000E+00 0.  1.
    9000007    2    1    2  501    0  0.83659532837E+02  0.18909352566E+03  0.82412022407E+03  0.93887071230E+03  0.39943559157E+03 0.  0.
    9000005    1    3    3    0    0 -0.48405841780E+02  0.87737192985E+02  0.21720448090E+01  0.10023302013E+03  0.99999687468E+00 0.  0.
          4    1    3    3  501    0  0.13206537462E+03  0.10135633267E+03  0.82194817926E+03  0.83863769218E+03  0.00000000000E+00 0.  1.
   -9000007    1    1    2    0  503 -0.83659532837E+02 -0.18909352566E+03 -0.45798043490E+03  0.64226268585E+03  0.40000000000E+03 0.  1.
<mgrwt>
<rscale>  2 0.45015818E+03</rscale>
<asrwt>0</asrwt>
<pdfrwt beam="1">  1       21 0.14979024E+00 0.45028355E+03</pdfrwt>
<pdfrwt beam="2">  1       21 0.93461047E-01 0.45028355E+03</pdfrwt>
<totfact> 0.23656819E+02</totfact>
</mgrwt>
</event>
<event>
 6    1  0.8739326E-004  0.4202259E+03  0.7818608E-02  0.1037007E+00
         21   -1    0    0  501  502  0.00000000000E+00  0.00000000000E+00  0.16417791594E+04  0.16417791594E+04  0.00000000000E+00 0.  1.
         21   -1    0    0  502  503 -0.00000000000E+00 -0.00000000000E+00 -0.11775293662E+03  0.11775293662E+03  0.00000000000E+00 0.  1.
    9000007    2    1    2  501    0 -0.94753781036E+01 -0.12845240384E+03  0.50243867347E+03  0.65489146498E+03  0.39981046441E+03 0.  0.
    9000005    1    3    3    0    0 -0.13992851188E+03  0.78559797265E+02  0.28727200098E+03  0.32905597202E+03  0.99999687468E+00 0.  0.
          4    1    3    3  501    0  0.13045313378E+03 -0.20701220110E+03  0.21516667250E+03  0.32583549296E+03  0.00000000000E+00 0.  1.
   -9000007    1    1    2    0  503  0.94753781036E+01  0.12845240384E+03  0.10215875493E+04  0.11046406310E+04  0.40000000000E+03 0.  1.
<mgrwt>
<rscale>  2 0.42018079E+03</rscale>
<asrwt>0</asrwt>
<pdfrwt beam="1">  1       21 0.25258139E+00 0.42022590E+03</pdfrwt>
<pdfrwt beam="2">  1       21 0.18115838E-01 0.42022590E+03</pdfrwt>
<totfact> 0.14945859E+03</totfact>
</mgrwt>
</event>
<event>
 6    1  0.8739326E-004  0.5450006E+03  0.7818608E-02  0.1002720E+00
         21   -1    0    0  501  502  0.00000000000E+00  0.00000000000E+00  0.26063059868E+03  0.26063059868E+03  0.00000000000E+00 0.  1.
         21   -1    0    0  502  503 -0.00000000000E+00 -0.00000000000E+00 -0.11403579462E+04  0.11403579462E+04  0.00000000000E+00 0. -1.
    9000007    2    1    2  501    0 -0.36351837182E+03  0.60959351091E+02 -0.40466773589E+03  0.67880900783E+03  0.40145241749E+03 0.  0.
    9000005    1    3    3    0    0 -0.41292690016E+03  0.13371972511E+03 -0.40077626396E+03  0.59077254803E+03  0.99999687468E+00 0.  0.
          4    1    3    3  501    0  0.49408528340E+02 -0.72760374020E+02 -0.38914719289E+01  0.88036459800E+02  0.00000000000E+00 0.  1.
   -9000007    1    1    2    0  503  0.36351837182E+03 -0.60959351091E+02 -0.47505961164E+03  0.72217953706E+03  0.40000000000E+03 0.  1.
<mgrwt>
<rscale>  2 0.54473319E+03</rscale>
<asrwt>0</asrwt>
<pdfrwt beam="1">  1       21 0.40097016E-01 0.54500064E+03</pdfrwt>
<pdfrwt beam="2">  1       21 0.17543968E+00 0.54500064E+03</pdfrwt>
<totfact> 0.94750031E+02</totfact>
</mgrwt>
</event>
<event>
 6    1  0.8739326E-004  0.4150533E+03  0.7818608E-02  0.1038825E+00
         21   -1    0    0  501  502  0.00000000000E+00  0.00000000000E+00  0.41951797522E+03  0.41951797522E+03  0.00000000000E+00 0.  1.
         21   -1    0    0  502  503 -0.00000000000E+00 -0.00000000000E+00 -0.57053315452E+03  0.57053315452E+03  0.00000000000E+00 0.  1.
    9000007    2    1    2  501    0 -0.20001384813E+01  0.11074853791E+03  0.18800031679E+03  0.45413999364E+03  0.39828353658E+03 0.  0.
    9000005    1    3    3    0    0 -0.23727165519E+02 -0.14698704531E+03  0.10611583398E+03  0.18283801598E+03  0.99999687468E+00 0.  0.
          4    1    3    3  501    0  0.21727027038E+02  0.25773558321E+03  0.81884482802E+02  0.27130197766E+03  0.00000000000E+00 0.  1.
   -9000007    1    1    2    0  503  0.20001384813E+01 -0.11074853791E+03 -0.33901549609E+03  0.53591113609E+03  0.40000000000E+03 0.  1.
<mgrwt>
<rscale>  2 0.41463919E+03</rscale>
<asrwt>0</asrwt>
<pdfrwt beam="1">  1       21 0.64541227E-01 0.41505330E+03</pdfrwt>
<pdfrwt beam="2">  1       21 0.87774331E-01 0.41505330E+03</pdfrwt>
<totfact> 0.21583933E+03</totfact>
</mgrwt>
</event>
<event>
 6    1  0.8739326E-004  0.6651235E+03  0.7818608E-02  0.9778880E-01
         21   -1    0    0  501  502  0.00000000000E+00  0.00000000000E+00  0.52502433012E+03  0.52502433012E+03  0.00000000000E+00 0. -1.
         21   -1    0    0  502  503 -0.00000000000E+00 -0.00000000000E+00 -0.14115396068E+04  0.14115396068E+04  0.00000000000E+00 0. -1.
    9000007    2    1    2  501    0 -0.52820873384E+03  0.58179322825E+02  0.17161469704E+03  0.68675261461E+03  0.39973522403E+03 0.  0.
    9000005    1    3    3    0    0 -0.34728269468E+03  0.19160796110E+03  0.22456539408E+03  0.45579545522E+03  0.99999687468E+00 0.  0.
          4    1    3    3  501    0 -0.18092603916E+03 -0.13342863828E+03 -0.52950697043E+02  0.23095715939E+03  0.00000000000E+00 0.  1.
   -9000007    1    1    2    0  503  0.52820873384E+03 -0.58179322825E+02 -0.10581299738E+04  0.12498113223E+04  0.40000000000E+03 0. -1.
<mgrwt>
<rscale>  2 0.66508372E+03</rscale>
<asrwt>0</asrwt>
<pdfrwt beam="1">  1       21 0.80772975E-01 0.66512352E+03</pdfrwt>
<pdfrwt beam="2">  1       21 0.21715994E+00 0.66512352E+03</pdfrwt>
<totfact> 0.10133312E+02</totfact>
</mgrwt>
</event>
<event>
 6    1  0.8739326E-004  0.4554103E+03  0.7818608E-02  0.1026349E+00
         21   -1    0    0  501  502  0.00000000000E+00  0.00000000000E+00  0.41454032058E+03  0.41454032058E+03  0.00000000000E+00 0.  1.
         21   -1    0    0  502  503 -0.00000000000E+00 -0.00000000000E+00 -0.72651781661E+03  0.72651781661E+03  0.00000000000E+00 0. -1.
    9000007    2    1    2  501    0  0.63713094444E+02  0.20133245305E+03  0.16437515004E+03  0.48416700582E+03  0.40349025331E+03 0.  0.
    9000005    1    3    3    0    0 -0.76871906008E+02 -0.78055773168E+02  0.12924978086E+03  0.16943582710E+03  0.99999687468E+00 0.  0.
          4    1    3    3  501    0  0.14058500045E+03  0.27938822621E+03  0.35125369177E+02  0.31473117872E+03  0.00000000000E+00 0.  1.
   -9000007    1    1    2    0  503 -0.63713094444E+02 -0.20133245305E+03 -0.47635264607E+03  0.65689113137E+03  0.40000000000E+03 0. -1.
<mgrwt>
<rscale>  2 0.45463592E+03</rscale>
<asrwt>0</asrwt>
<pdfrwt beam="1">  1       21 0.63775434E-01 0.45541025E+03</pdfrwt>
<pdfrwt beam="2">  1       21 0.11177197E+00 0.45541025E+03</pdfrwt>
<totfact> 0.12144998E+03</totfact>
</mgrwt>
</event>
<event>
 6    1  0.8739326E-004  0.5927128E+03  0.7818608E-02  0.9920836E-01
         21   -1    0    0  501  502  0.00000000000E+00  0.00000000000E+00  0.49603780567E+03  0.49603780567E+03  0.00000000000E+00 0.  1.
         21   -1    0    0  502  503 -0.00000000000E+00 -0.00000000000E+00 -0.74421438417E+03  0.74421438417E+03  0.00000000000E+00 0. -1.
    9000007    2    1    2  501    0 -0.33639462452E+03 -0.27954796423E+03 -0.26124836881E+03  0.64739531048E+03  0.39945158669E+03 0.  0.
    9000005    1    3    3    0    0 -0.36388636271E+03 -0.35664105723E+03 -0.21191406490E+03  0.55182850557E+03  0.99999687468E+00 0.  0.
          4    1    3    3  501    0  0.27491738184E+02  0.77093093005E+02 -0.49334303913E+02  0.95566804906E+02  0.00000000000E+00 0.  1.
   -9000007    1    1    2    0  503  0.33639462452E+03  0.27954796423E+03  0.13071790314E+02  0.59285687937E+03  0.40000000000E+03 0.  1.
<mgrwt>
<rscale>  2 0.59262024E+03</rscale>
<asrwt>0</asrwt>
<pdfrwt beam="1">  1       21 0.76313509E-01 0.59271275E+03</pdfrwt>
<pdfrwt beam="2">  1       21 0.11449452E+00 0.59271275E+03</pdfrwt>
<totfact> 0.72584318E+02</totfact>
</mgrwt>
</event>
<event>
 6    1  0.8739326E-004  0.4047321E+03  0.7818608E-02  0.1042268E+00
         21   -1    0    0  501  502  0.00000000000E+00  0.00000000000E+00  0.68186481824E+03  0.68186481824E+03  0.00000000000E+00 0.  1.
         21   -1    0    0  502  503 -0.00000000000E+00 -0.00000000000E+00 -0.24208971849E+03  0.24208971849E+03  0.00000000000E+00 0.  1.
    9000007    2    1    2  501    0 -0.51430033379E+02 -0.34102852635E+02  0.26786599654E+03  0.48422644727E+03  0.39864145198E+03 0.  0.
    9000005    1    3    3    0    0 -0.21996100091E+02  0.18283768584E+03  0.13173747199E+03  0.22642705073E+03  0.99999687468E+00 0.  0.
          4    1    3    3  501    0 -0.29433933288E+02 -0.21694053847E+03  0.13612852455E+03  0.25779939654E+03  0.00000000000E+00 0.  1.
   -9000007    1    1    2    0  503  0.51430033379E+02  0.34102852635E+02  0.17190910322E+03  0.43972808946E+03  0.40000000000E+03 0.  1.
<mgrwt>
<rscale>  2 0.40439600E+03</rscale>
<asrwt>0</asrwt>
<pdfrwt beam="1">  1       21 0.10490228E+00 0.40473208E+03</pdfrwt>
<pdfrwt beam="2">  1       21 0.37244572E-01 0.40473208E+03</pdfrwt>
<totfact> 0.45314051E+03</totfact>
</mgrwt>
</event>
<event>
 6    1  0.8739326E-004  0.4766012E+03  0.7818608E-02  0.1020083E+00
         21   -1    0    0  501  502  0.00000000000E+00  0.00000000000E+00  0.19338653639E+03  0.19338653639E+03  0.00000000000E+00 0.  1.
         21   -1    0    0  502  503 -0.00000000000E+00 -0.00000000000E+00 -0.14829132454E+04  0.14829132454E+04  0.00000000000E+00 0. -1.
    9000007    2    1    2  501    0  0.20761096072E+03 -0.15463517180E+03 -0.26244078049E+03  0.54408078710E+03  0.40016795507E+03 0.  0.
    9000005    1    3    3    0    0  0.89224678554E+02  0.12129345250E+03 -0.84634821256E+01  0.15081702625E+03  0.99999687468E+00 0.  0.
          4    1    3    3  501    0  0.11838628216E+03 -0.27592862431E+03 -0.25397729836E+03  0.39326376085E+03  0.00000000000E+00 0.  1.
   -9000007    1    1    2    0  503 -0.20761096072E+03  0.15463517180E+03 -0.10270859285E+04  0.11322189946E+04  0.40000000000E+03 0. -1.
<mgrwt>
<rscale>  2 0.47656598E+03</rscale>
<asrwt>0</asrwt>
<pdfrwt beam="1">  1       21 0.29751775E-01 0.47660124E+03</pdfrwt>
<pdfrwt beam="2">  1       21 0.22814050E+00 0.47660124E+03</pdfrwt>
<totfact> 0.79063033E+02</totfact>
</mgrwt>
</event>
<event>
 6    1  0.8739326E-004  0.6276620E+03  0.7818608E-02  0.9850679E-01
         21   -1    0    0  501  502  0.00000000000E+00  0.00000000000E+00  0.10496079845E+04  0.10496079845E+04  0.00000000000E+00 0. -1.
         21   -1    0    0  502  503 -0.00000000000E+00 -0.00000000000E+00 -0.46589351461E+03  0.46589351461E+03  0.00000000000E+00 0.  1.
    9000007    2    1    2  501    0 -0.12910985677E+03 -0.46614396330E+03  0.62788701202E+03  0.88628709759E+03  0.39661463645E+03 0.  0.
    9000005    1    3    3    0    0 -0.47938389251E+00 -0.47100795870E+03  0.58404036908E+03  0.75030185904E+03  0.99999687468E+00 0.  0.
          4    1    3    3  501    0 -0.12863047288E+03  0.48639954010E+01  0.43846642935E+02  0.13598523854E+03  0.00000000000E+00 0.  1.
   -9000007    1    1    2    0  503  0.12910985677E+03  0.46614396330E+03 -0.44172542097E+02  0.62921440155E+03  0.40000000000E+03 0.  1.
<mgrwt>
<rscale>  2 0.62712328E+03</rscale>
<asrwt>0</asrwt>
<pdfrwt beam="1">  1       21 0.16147815E+00 0.62766197E+03</pdfrwt>
<pdfrwt beam="2">  1       21 0.71675925E-01 0.62766197E+03</pdfrwt>
<totfact> 0.33156498E+02</totfact>
</mgrwt>
</event>
<event>
 6    1  0.8739326E-004  0.6375225E+03  0.7818608E-02  0.9830546E-01
         21   -1    0    0  501  502  0.00000000000E+00  0.00000000000E+00  0.11233989999E+04  0.11233989999E+04  0.00000000000E+00 0. -1.
         21   -1    0    0  502  503 -0.00000000000E+00 -0.00000000000E+00 -0.71587710352E+03  0.71587710352E+03  0.00000000000E+00 0.  1.
    9000007    2    1    2  501    0 -0.28106286396E+03 -0.40919269824E+03 -0.44309721101E+03  0.77626723062E+03  0.39977578358E+03 0.  0.
    9000005    1    3    3    0    0  0.18800301408E+02  0.61679408608E+02 -0.15503849445E+01  0.64507398541E+02  0.99999687468E+00 0.  0.
          4    1    3    3  501    0 -0.29986316537E+03 -0.47087210684E+03 -0.44154682606E+03  0.71175983207E+03  0.00000000000E+00 0.  1.
   -9000007    1    1    2    0  503  0.28106286396E+03  0.40919269824E+03  0.85061910738E+03  0.10630088728E+04  0.40000000000E+03 0. -1.
<mgrwt>
<rscale>  2 0.63748738E+03</rscale>
<asrwt>0</asrwt>
<pdfrwt beam="1">  1       21 0.17283061E+00 0.63752255E+03</pdfrwt>
<pdfrwt beam="2">  1       21 0.11013494E+00 0.63752255E+03</pdfrwt>
<totfact> 0.97563481E+01</totfact>
</mgrwt>
</event>
<event>
 6    1  0.8739326E-004  0.4172824E+03  0.7818608E-02  0.1037964E+00
         21   -1    0    0  501  502  0.00000000000E+00  0.00000000000E+00  0.31859647366E+03  0.31859647366E+03  0.00000000000E+00 0. -1.
         21   -1    0    0  502  503 -0.00000000000E+00 -0.00000000000E+00 -0.54781452380E+03  0.54781452380E+03  0.00000000000E+00 0. -1.
    9000007    2    1    2  501    0  0.19007303942E+02 -0.11731701826E+03 -0.92462745702E+02  0.42729077056E+03  0.39987933541E+03 0.  0.
    9000005    1    3    3    0    0 -0.46618652338E+02  0.11009383118E+03 -0.14183556000E+03  0.18550546214E+03  0.99999687468E+00 0.  0.
          4    1    3    3  501    0  0.65625956280E+02 -0.22741084944E+03  0.49372814298E+02  0.24178530843E+03  0.00000000000E+00 0.  1.
   -9000007    1    1    2    0  503 -0.19007303942E+02  0.11731701826E+03 -0.13675530444E+03  0.43912022690E+03  0.40000000000E+03 0.  1.
<mgrwt>
<rscale>  2 0.41725343E+03</rscale>
<asrwt>0</asrwt>
<pdfrwt beam="1">  1       21 0.49014842E-01 0.41728235E+03</pdfrwt>
<pdfrwt beam="2">  1       21 0.84279157E-01 0.41728235E+03</pdfrwt>
<totfact> 0.43029071E+03</totfact>
</mgrwt>
</event>
<event>
 6    1  0.8739326E-004  0.4282228E+03  0.7818608E-02  0.1034601E+00
         21   -1    0    0  501  502  0.00000000000E+00  0.00000000000E+00  0.10389633230E+04  0.10389633230E+04  0.00000000000E+00 0. -1.
         21   -1    0    0  502  503 -0.00000000000E+00 -0.00000000000E+00 -0.18516480122E+03  0.18516480122E+03  0.00000000000E+00 0. -1.
    9000007    2    1    2  501    0  0.79991542716E+02 -0.13029245047E+03  0.28656862080E+03  0.51340699037E+03  0.39760582714E+03 0.  0.
    9000005    1    3    3    0    0  0.10833548390E+03 -0.79820400255E+02 -0.70333566456E+02  0.15184098239E+03  0.99999687468E+00 0.  0.
          4    1    3    3  501    0 -0.28343941186E+02 -0.50472050219E+02  0.35690218726E+03  0.36156600797E+03  0.00000000000E+00 0.  1.
   -9000007    1    1    2    0  503 -0.79991542716E+02  0.13029245047E+03  0.56722990100E+03  0.71072113388E+03  0.40000000000E+03 0. -1.
<mgrwt>
<rscale>  2 0.42766283E+03</rscale>
<asrwt>0</asrwt>
<pdfrwt beam="1">  1       21 0.15984051E+00 0.42822280E+03</pdfrwt>
<pdfrwt beam="2">  1       21 0.28486893E-01 0.42822280E+03</pdfrwt>
<totfact> 0.25748712E+03</totfact>
</mgrwt>
</event>
<event>
 6    1  0.8739326E-004  0.4166841E+03  0.7818608E-02  0.1038203E+00
         21   -1    0    0  501  502  0.00000000000E+00  0.00000000000E+00  0.53704778153E+03  0.53704778153E+03  0.00000000000E+00 0.  1.
         21   -1    0    0  502  503 -0.00000000000E+00 -0.00000000000E+00 -0.35076898768E+03  0.35076898768E+03  0.00000000000E+00 0.  1.
    9000007    2    1    2  501    0 -0.91247669423E+02  0.72797777571E+02  0.21840852231E+03  0.46989575628E+03  0.39934206585E+03 0.  0.
    9000005    1    3    3    0    0  0.74326026888E+02  0.13792484038E+03 -0.34731499631E+02  0.16048332290E+03  0.99999687468E+00 0.  0.
          4    1    3    3  501    0 -0.16557369631E+03 -0.65127062811E+02  0.25314002195E+03  0.30941243338E+03  0.00000000000E+00 0.  1.
   -9000007    1    1    2    0  503  0.91247669423E+02 -0.72797777571E+02 -0.32129728465E+02  0.41792101293E+03  0.40000000000E+03 0.  1.
<mgrwt>
<rscale>  2 0.41652614E+03</rscale>
<asrwt>0</asrwt>
<pdfrwt beam="1">  1       21 0.82622736E-01 0.41668412E+03</pdfrwt>
<pdfrwt beam="2">  1       21 0.53964460E-01 0.41668412E+03</pdfrwt>
<totfact> 0.36711485E+03</totfact>
</mgrwt>
</event>
<event>
 6    1  0.8739326E-004  0.4031162E+03  0.7818608E-02  0.1042732E+00
         21   -1    0    0  501  502  0.00000000000E+00  0.00000000000E+00  0.17899669290E+04  0.17899669290E+04  0.00000000000E+00 0. -1.
         21   -1    0    0  502  503 -0.00000000000E+00 -0.00000000000E+00 -0.10997895376E+03  0.10997895376E+03  0.00000000000E+00 0. -1.
    9000007    2    1    2  501    0 -0.69121943035E+01 -0.49547037753E+02  0.12373057837E+04  0.13012220649E+04  0.39968809390E+03 0.  0.
    9000005    1    3    3    0    0 -0.70154999720E+02 -0.16355145316E+03  0.25889143825E+03  0.31416011620E+03  0.99999687468E+00 0.  0.
          4    1    3    3  501    0  0.63242805416E+02  0.11400441541E+03  0.97841434550E+03  0.98706194874E+03  0.00000000000E+00 0.  1.
   -9000007    1    1    2    0  503  0.69121943035E+01  0.49547037753E+02  0.44268219152E+03  0.59872381786E+03  0.40000000000E+03 0.  1.
<mgrwt>
<rscale>  2 0.40303883E+03</rscale>
<asrwt>0</asrwt>
<pdfrwt beam="1">  1       21 0.27537951E+00 0.40311622E+03</pdfrwt>
<pdfrwt beam="2">  1       21 0.16919840E-01 0.40311622E+03</pdfrwt>
<totfact> 0.12480642E+03</totfact>
</mgrwt>
</event>
<event>
 6    1  0.8739326E-004  0.5506053E+03  0.7818608E-02  0.1001377E+00
         21   -1    0    0  501  502  0.00000000000E+00  0.00000000000E+00  0.22323971759E+04  0.22323971759E+04  0.00000000000E+00 0. -1.
         21   -1    0    0  502  503 -0.00000000000E+00 -0.00000000000E+00 -0.13993098502E+03  0.13993098502E+03  0.00000000000E+00 0. -1.
    9000007    2    1    2  501    0  0.32628512528E+03 -0.19158350312E+03  0.12520402371E+04  0.13675983438E+04  0.39944242757E+03 0.  0.
    9000005    1    3    3    0    0  0.74242440732E+02  0.42998691117E+02  0.19663481136E+02  0.88025450455E+02  0.99999687468E+00 0.  0.
          4    1    3    3  501    0  0.25204268455E+03 -0.23458219423E+03  0.12323767560E+04  0.12795728934E+04  0.00000000000E+00 0.  1.
   -9000007    1    1    2    0  503 -0.32628512528E+03  0.19158350312E+03  0.84042595371E+03  0.10047298171E+04  0.40000000000E+03 0. -1.
<mgrwt>
<rscale>  2 0.55050406E+03</rscale>
<asrwt>0</asrwt>
<pdfrwt beam="1">  1       21 0.34344569E+00 0.55060532E+03</pdfrwt>
<pdfrwt beam="2">  1       21 0.21527845E-01 0.55060532E+03</pdfrwt>
<totfact> 0.28299263E+02</totfact>
</mgrwt>
</event>
<event>
 6    1  0.8739326E-004  0.5195537E+03  0.7818608E-02  0.1008878E+00
         21   -1    0    0  501  502  0.00000000000E+00  0.00000000000E+00  0.45372597142E+03  0.45372597142E+03  0.00000000000E+00 0.  1.
         21   -1    0    0  502  503 -0.00000000000E+00 -0.00000000000E+00 -0.61244013778E+03  0.61244013778E+03  0.00000000000E+00 0. -1.
    9000007    2    1    2  501    0  0.62035007634E+02  0.32363610065E+03 -0.17333288801E+03  0.54770456305E+03  0.40168063247E+03 0.  0.
    9000005    1    3    3    0    0 -0.12140814358E+03  0.28253827151E+03 -0.25548614287E+02  0.30857988250E+03  0.99999687468E+00 0.  0.
          4    1    3    3  501    0  0.18344315121E+03  0.41097829140E+02 -0.14778427372E+03  0.23912468055E+03  0.00000000000E+00 0.  1.
   -9000007    1    1    2    0  503 -0.62035007634E+02 -0.32363610065E+03  0.14618721653E+02  0.51846154615E+03  0.40000000000E+03 0. -1.
<mgrwt>
<rscale>  2 0.51922879E+03</rscale>
<asrwt>0</asrwt>
<pdfrwt beam="1">  1       21 0.69803996E-01 0.51955365E+03</pdfrwt>
<pdfrwt beam="2">  1       21 0.94221560E-01 0.51955365E+03</pdfrwt>
<totfact> 0.14728704E+03</totfact>
</mgrwt>
</event>
<event>
 6    1  0.8739326E-004  0.4924386E+03  0.7818608E-02  0.1015772E+00
         21   -1    0    0  501  502  0.00000000000E+00  0.00000000000E+00  0.10467829127E+04  0.10467829127E+04  0.00000000000E+00 0.  1.
         21   -1    0    0  502  503 -0.00000000000E+00 -0.00000000000E+00 -0.55587278754E+03  0.55587278754E+03  0.00000000000E+00 0.  1.
    9000007    2    1    2  501    0  0.24764844787E+02  0.28615106907E+03  0.85744171667E+03  0.98878182121E+03  0.39998432543E+03 0.  0.
    9000005    1    3    3    0    0  0.66566157408E+02 -0.41111496878E+02  0.93790477586E+01  0.78804663684E+02  0.99999687468E+00 0.  0.
          4    1    3    3  501    0 -0.41801312621E+02  0.32726256594E+03  0.84806266892E+03  0.90997715752E+03  0.00000000000E+00 0.  1.
   -9000007    1    1    2    0  503 -0.24764844787E+02 -0.28615106907E+03 -0.36653159147E+03  0.61387387908E+03  0.40000000000E+03 0.  1.
<mgrwt>
<rscale>  2 0.49243537E+03</rscale>
<asrwt>0</asrwt>
<pdfrwt beam="1">  1       21 0.16104353E+00 0.49243856E+03</pdfrwt>
<pdfrwt beam="2">  1       21 0.85518890E-01 0.49243856E+03</pdfrwt>
<totfact> 0.23423711E+02</totfact>
</mgrwt>
</event>
<event>
 6    1  0.8739326E-004  0.5200347E+03  0.7818608E-02  0.1008687E+00
         21   -1    0    0  501  502  0.00000000000E+00  0.00000000000E+00  0.51600529105E+03  0.51600529105E+03  0.00000000000E+00 0.  1.
         21   -1    0    0  502  503 -0.00000000000E+00 -0.00000000000E+00 -0.52397872765E+03  0.52397872765E+03  0.00000000000E+00 0. -1.
    9000007    2    1    2  501    0  0.30866909767E+03  0.12250036995E+03 -0.80199590007E+01  0.52009657447E+03  0.40019142237E+03 0.  0.
    9000005    1    3    3    0    0  0.79020299880E+02  0.62932247901E+02 -0.19394249719E+03  0.21867639980E+03  0.99999687468E+00 0.  0.
          4    1    3    3  501    0  0.22964879779E+03  0.59568122046E+02  0.18592253819E+03  0.30142017467E+03  0.00000000000E+00 0.  1.
   -9000007    1    1    2    0  503 -0.30866909767E+03 -0.12250036995E+03  0.46522400536E-01  0.51988744422E+03  0.40000000000E+03 0.  1.
<mgrwt>
<rscale>  2 0.51999791E+03</rscale>
<asrwt>0</asrwt>
<pdfrwt beam="1">  1       21 0.79385429E-01 0.52003474E+03</pdfrwt>
<pdfrwt beam="2">  1       21 0.80612112E-01 0.52003474E+03</pdfrwt>
<totfact> 0.15862138E+03</totfact>
</mgrwt>
</event>
<event>
 6    1  0.8739326E-004  0.5150037E+03  0.7818608E-02  0.1009970E+00
         21   -1    0    0  501  502  0.00000000000E+00  0.00000000000E+00  0.18803013598E+03  0.18803013598E+03  0.00000000000E+00 0.  1.
         21   -1    0    0  502  503 -0.00000000000E+00 -0.00000000000E+00 -0.14212442083E+04  0.14212442083E+04  0.00000000000E+00 0.  1.
    9000007    2    1    2  501    0  0.30105402626E+03  0.11841905811E+03 -0.54238520869E+03  0.74793752348E+03  0.40071464208E+03 0.  0.
    9000005    1    3    3    0    0  0.16203045796E+03 -0.14477531927E+03 -0.22330717906E+03  0.31157801365E+03  0.99999687468E+00 0.  0.
          4    1    3    3  501    0  0.13902356830E+03  0.26319437738E+03 -0.31907802963E+03  0.43635950983E+03  0.00000000000E+00 0.  1.
   -9000007    1    1    2    0  503 -0.30105402626E+03 -0.11841905811E+03 -0.69082886364E+03  0.86133682081E+03  0.40000000000E+03 0.  1.
<mgrwt>
<rscale>  2 0.51486469E+03</rscale>
<asrwt>0</asrwt>
<pdfrwt beam="1">  1       21 0.28927712E-01 0.51500371E+03</pdfrwt>
<pdfrwt beam="2">  1       21 0.21865296E+00 0.51500371E+03</pdfrwt>
<totfact> 0.94515347E+02</totfact>
</mgrwt>
</event>
<event>
 6    1  0.8739326E-004  0.5819349E+03  0.7818608E-02  0.9943882E-01
         21   -1    0    0  501  502  0.00000000000E+00  0.00000000000E+00  0.50871552349E+03  0.50871552349E+03  0.00000000000E+00 0.  1.
         21   -1    0    0  502  503 -0.00000000000E+00 -0.00000000000E+00 -0.98854290112E+03  0.98854290112E+03  0.00000000000E+00 0. -1.
    9000007    2    1    2  501    0  0.39058848010E+03  0.16152049113E+03  0.18836559459E+03  0.61118276308E+03  0.39926750784E+03 0.  0.
    9000005    1    3    3    0    0  0.15088042915E+03  0.14235580982E+03 -0.10447211865E+03  0.23226171458E+03  0.99999687468E+00 0.  0.
          4    1    3    3  501    0  0.23970805095E+03  0.19164681305E+02  0.29283771324E+03  0.37892104850E+03  0.00000000000E+00 0.  1.
   -9000007    1    1    2    0  503 -0.39058848010E+03 -0.16152049113E+03 -0.66819297222E+03  0.88607566153E+03  0.40000000000E+03 0. -1.
<mgrwt>
<rscale>  2 0.58180905E+03</rscale>
<asrwt>0</asrwt>
<pdfrwt beam="1">  1       21 0.78263928E-01 0.58193490E+03</pdfrwt>
<pdfrwt beam="2">  1       21 0.15208352E+00 0.58193490E+03</pdfrwt>
<totfact> 0.32547071E+02</totfact>
</mgrwt>
</event>
<event>
 6    1  0.8739326E-004  0.4172363E+03  0.7818608E-02  0.1038096E+00
         21   -1    0    0  501  502  0.00000000000E+00  0.00000000000E+00  0.26488366136E+03  0.26488366136E+03  0.00000000000E+00 0. -1.
         21   -1    0    0  502  503 -0.00000000000E+00 -0.00000000000E+00 -0.68311393696E+03  0.68311393696E+03  0.00000000000E+00 0. -1.
    9000007    2    1    2  501    0 -0.91961467963E+02  0.65928001006E+02 -0.30599682646E+03  0.51741687417E+03  0.40160023775E+03 0.  0.
    9000005    1    3    3    0    0 -0.40721850497E+02  0.23593434836E+03 -0.16679447440E+03  0.29179561773E+03  0.99999687468E+00 0.  0.
          4    1    3    3  501    0 -0.51239617466E+02 -0.17000634735E+03 -0.13920235206E+03  0.22562125643E+03  0.00000000000E+00 0.  1.
   -9000007    1    1    2    0  503  0.91961467963E+02 -0.65928001006E+02 -0.11223344915E+03  0.43058072416E+03  0.40000000000E+03 0. -1.
<mgrwt>
<rscale>  2 0.41685080E+03</rscale>
<asrwt>0</asrwt>
<pdfrwt beam="1">  1       21 0.40751333E-01 0.41723634E+03</pdfrwt>
<pdfrwt beam="2">  1       21 0.10509445E+00 0.41723634E+03</pdfrwt>
<totfact> 0.37340109E+03</totfact>
</mgrwt>
</event>
<event>
 6    1  0.8739326E-004  0.4144838E+03  0.7818608E-02  0.1038880E+00
         21   -1    0    0  501  502  0.00000000000E+00  0.00000000000E+00  0.24609090842E+03  0.24609090842E+03  0.00000000000E+00 0.  1.
         21   -1    0    0  502  503 -0.00000000000E+00 -0.00000000000E+00 -0.80726510253E+03  0.80726510253E+03  0.00000000000E+00 0.  1.
    9000007    2    1    2  501    0 -0.64729248228E+02  0.87008532711E+02 -0.86859554639E+02  0.42348718527E+03  0.40004556430E+03 0.  0.
    9000005    1    3    3    0    0 -0.11342996422E+03 -0.14014013305E+03 -0.18034133069E+02  0.18119559493E+03  0.99999687468E+00 0.  0.
          4    1    3    3  501    0  0.48700715995E+02  0.22714866576E+03 -0.68825421571E+02  0.24229159034E+03  0.00000000000E+00 0.  1.
   -9000007    1    1    2    0  503  0.64729248228E+02 -0.87008532711E+02 -0.47431463947E+03  0.62986882567E+03  0.40000000000E+03 0.  1.
<mgrwt>
<rscale>  2 0.41447280E+03</rscale>
<asrwt>0</asrwt>
<pdfrwt beam="1">  1       21 0.37860140E-01 0.41448379E+03</pdfrwt>
<pdfrwt beam="2">  1       21 0.12419463E+00 0.41448379E+03</pdfrwt>
<totfact> 0.28629052E+03</totfact>
</mgrwt>
</event>
<event>
 6    1  0.8739326E-004  0.4908613E+03  0.7818608E-02  0.1016216E+00
         21   -1    0    0  501  502  0.00000000000E+00  0.00000000000E+00  0.53965902169E+03  0.53965902169E+03  0.00000000000E+00 0. -1.
         21   -1    0    0  502  503 -0.00000000000E+00 -0.00000000000E+00 -0.60389398045E+03  0.60389398045E+03  0.00000000000E+00 0. -1.
    9000007    2    1    2  501    0  0.62617759593E+02  0.27753159474E+03  0.26011851269E+03  0.55520791264E+03  0.39956152933E+03 0.  0.
    9000005    1    3    3    0    0 -0.52625238526E+02  0.28715543153E+03  0.31302664649E+03  0.42803544128E+03  0.99999687468E+00 0.  0.
          4    1    3    3  501    0  0.11524299812E+03 -0.96238367892E+01 -0.52908133799E+02  0.12717247136E+03  0.00000000000E+00 0.  1.
   -9000007    1    1    2    0  503 -0.62617759593E+02 -0.27753159474E+03 -0.32435347145E+03  0.58834508950E+03  0.40000000000E+03 0. -1.
<mgrwt>
<rscale>  2 0.49077192E+03</rscale>
<asrwt>0</asrwt>
<pdfrwt beam="1">  1       21 0.83024466E-01 0.49086125E+03</pdfrwt>
<pdfrwt beam="2">  1       21 0.92906765E-01 0.49086125E+03</pdfrwt>
<totfact> 0.10335454E+03</totfact>
</mgrwt>
</event>
<event>
 6    1  0.8739326E-004  0.4588187E+03  0.7818608E-02  0.1025168E+00
         21   -1    0    0  501  502  0.00000000000E+00  0.00000000000E+00  0.26311413922E+03  0.26311413922E+03  0.00000000000E+00 0.  1.
         21   -1    0    0  502  503 -0.00000000000E+00 -0.00000000000E+00 -0.81029614068E+03  0.81029614068E+03  0.00000000000E+00 0. -1.
    9000007    2    1    2  501    0 -0.48533263955E+02 -0.21945196673E+03 -0.21016942231E+03  0.50411938596E+03  0.39931256657E+03 0.  0.
    9000005    1    3    3    0    0 -0.14291414917E+03 -0.18535403174E+03 -0.29228774587E+03  0.37445119508E+03  0.99999687468E+00 0.  0.
          4    1    3    3  501    0  0.94380885215E+02 -0.34097934984E+02  0.82118323556E+02  0.12966819089E+03  0.00000000000E+00 0.  1.
   -9000007    1    1    2    0  503  0.48533263955E+02  0.21945196673E+03 -0.33701257915E+03  0.56929089393E+03  0.40000000000E+03 0.  1.
<mgrwt>
<rscale>  2 0.45866888E+03</rscale>
<asrwt>0</asrwt>
<pdfrwt beam="1">  1       21 0.40479098E-01 0.45881875E+03</pdfrwt>
<pdfrwt beam="2">  1       21 0.12466095E+00 0.45881875E+03</pdfrwt>
<totfact> 0.24302013E+03</totfact>
</mgrwt>
</event>
<event>
 6    1  0.8739326E-004  0.4511738E+03  0.7818608E-02  0.1027387E+00
         21   -1    0    0  501  502  0.00000000000E+00  0.00000000000E+00  0.60562869859E+03  0.60562869859E+03  0.00000000000E+00 0. -1.
         21   -1    0    0  502  503 -0.00000000000E+00 -0.00000000000E+00 -0.66827897264E+03  0.66827897264E+03  0.00000000000E+00 0. -1.
    9000007    2    1    2  501    0  0.17074283117E+03 -0.11928357440E+03  0.41783417822E+03  0.61493347266E+03  0.40022005171E+03 0.  0.
    9000005    1    3    3    0    0  0.21182204699E+03  0.77703081389E+01  0.43145450826E+03  0.48071087981E+03  0.99999687468E+00 0.  0.
          4    1    3    3  501    0 -0.41079215819E+02 -0.12705388254E+03 -0.13620330039E+02  0.13422259285E+03  0.00000000000E+00 0.  1.
   -9000007    1    1    2    0  503 -0.17074283117E+03  0.11928357440E+03 -0.48048445227E+03  0.65897419858E+03  0.40000000000E+03 0. -1.
<mgrwt>
<rscale>  2 0.45112497E+03</rscale>
<asrwt>0</asrwt>
<pdfrwt beam="1">  1       21 0.93173646E-01 0.45117378E+03</pdfrwt>
<pdfrwt beam="2">  1       21 0.10281215E+00 0.45117378E+03</pdfrwt>
<totfact> 0.62626638E+02</totfact>
</mgrwt>
</event>
<event>
 6    1  0.8739326E-004  0.4197990E+03  0.7818608E-02  0.1037151E+00
         21   -1    0    0  501  502  0.00000000000E+00  0.00000000000E+00  0.45780567352E+03  0.45780567352E+03  0.00000000000E+00 0.  1.
         21   -1    0    0  502  503 -0.00000000000E+00 -0.00000000000E+00 -0.57487273245E+03  0.57487273245E+03  0.00000000000E+00 0.  1.
    9000007    2    1    2  501    0 -0.27149197608E+02 -0.12366064448E+03  0.23841168746E+03  0.48277462070E+03  0.40025262991E+03 0.  0.
    9000005    1    3    3    0    0 -0.13461802261E+03  0.97220076218E+02  0.14339210231E+03  0.21939929405E+03  0.99999687468E+00 0.  0.
          4    1    3    3  501    0  0.10746882500E+03 -0.22088072070E+03  0.95019585143E+02  0.26337532664E+03  0.00000000000E+00 0.  1.
   -9000007    1    1    2    0  503  0.27149197608E+02  0.12366064448E+03 -0.35547874638E+03  0.54990378527E+03  0.40000000000E+03 0.  1.
<mgrwt>
<rscale>  2 0.41973877E+03</rscale>
<asrwt>0</asrwt>
<pdfrwt beam="1">  1       21 0.70431642E-01 0.41979900E+03</pdfrwt>
<pdfrwt beam="2">  1       21 0.88441959E-01 0.41979900E+03</pdfrwt>
<totfact> 0.17412276E+03</totfact>
</mgrwt>
</event>
<event>
 6    1  0.8739326E-004  0.4920227E+03  0.7818608E-02  0.1015883E+00
         21   -1    0    0  501  502  0.00000000000E+00  0.00000000000E+00  0.73711937241E+03  0.73711937241E+03  0.00000000000E+00 0. -1.
         21   -1    0    0  502  503 -0.00000000000E+00 -0.00000000000E+00 -0.33283436762E+03  0.33283436762E+03  0.00000000000E+00 0.  1.
    9000007    2    1    2  501    0 -0.11902635130E+01  0.28649062330E+03  0.14051084966E+03  0.51169295968E+03  0.40001011505E+03 0.  0.
    9000005    1    3    3    0    0  0.18766851940E+03  0.72800439409E+02  0.20687642358E+02  0.20235700060E+03  0.99999687468E+00 0.  0.
          4    1    3    3  501    0 -0.18885878291E+03  0.21369018389E+03  0.11982320730E+03  0.30933595908E+03  0.00000000000E+00 0.  1.
   -9000007    1    1    2    0  503  0.11902635130E+01 -0.28649062330E+03  0.26377415514E+03  0.55826078036E+03  0.40000000000E+03 0. -1.
<mgrwt>
<rscale>  2 0.49202069E+03</rscale>
<asrwt>0</asrwt>
<pdfrwt beam="1">  1       21 0.11340298E+00 0.49202275E+03</pdfrwt>
<pdfrwt beam="2">  1       21 0.51205288E-01 0.49202275E+03</pdfrwt>
<totfact> 0.18628456E+03</totfact>
</mgrwt>
</event>
<event>
 6    1  0.8739326E-004  0.4056311E+03  0.7818608E-02  0.1041859E+00
         21   -1    0    0  501  502  0.00000000000E+00  0.00000000000E+00  0.84006659902E+03  0.84006659902E+03  0.00000000000E+00 0. -1.
         21   -1    0    0  502  503 -0.00000000000E+00 -0.00000000000E+00 -0.31725833965E+03  0.31725833965E+03  0.00000000000E+00 0. -1.
    9000007    2    1    2  501    0 -0.66431539129E+02  0.35051314062E+01  0.61947918886E+03  0.74046680458E+03  0.40013896076E+03 0.  0.
    9000005    1    3    3    0    0 -0.16364675533E+03  0.14170087050E+03  0.45878013925E+03  0.50728652002E+03  0.99999687468E+00 0.  0.
          4    1    3    3  501    0  0.97215216199E+02 -0.13819573909E+03  0.16069904961E+03  0.23318028456E+03  0.00000000000E+00 0.  1.
   -9000007    1    1    2    0  503  0.66431539129E+02 -0.35051314062E+01 -0.96670929493E+02  0.41685813408E+03  0.40000000000E+03 0. -1.
<mgrwt>
<rscale>  2 0.40559687E+03</rscale>
<asrwt>0</asrwt>
<pdfrwt beam="1">  1       21 0.12924101E+00 0.40563114E+03</pdfrwt>
<pdfrwt beam="2">  1       21 0.48808976E-01 0.40563114E+03</pdfrwt>
<totfact> 0.15303122E+03</totfact>
</mgrwt>
</event>
<event>
 6    1  0.8739326E-004  0.4098171E+03  0.7818608E-02  0.1040501E+00
         21   -1    0    0  501  502  0.00000000000E+00  0.00000000000E+00  0.23490143456E+03  0.23490143456E+03  0.00000000000E+00 0.  1.
         21   -1    0    0  502  503 -0.00000000000E+00 -0.00000000000E+00 -0.10201682281E+04  0.10201682281E+04  0.00000000000E+00 0.  1.
    9000007    2    1    2  501    0  0.69161662107E+02  0.50022383698E+02 -0.48880970390E+02  0.41272195837E+03  0.40082975348E+03 0.  0.
    9000005    1    3    3    0    0 -0.16758608968E+02  0.15177774594E+03 -0.17294322059E+03  0.23071127558E+03  0.99999687468E+00 0.  0.
          4    1    3    3  501    0  0.85920271075E+02 -0.10175536224E+03  0.12406225020E+03  0.18201068279E+03  0.00000000000E+00 0.  1.
   -9000007    1    1    2    0  503 -0.69161662107E+02 -0.50022383698E+02 -0.73638582315E+03  0.84234770428E+03  0.40000000000E+03 0.  1.
<mgrwt>
<rscale>  2 0.40961408E+03</rscale>
<asrwt>0</asrwt>
<pdfrwt beam="1">  1       21 0.36138683E-01 0.40981711E+03</pdfrwt>
<pdfrwt beam="2">  1       21 0.15694896E+00 0.40981711E+03</pdfrwt>
<totfact> 0.16962025E+03</totfact>
</mgrwt>
</event>
<event>
 6    1  0.8739326E-004  0.8166694E+03  0.7818608E-02  0.9536204E-01
         21   -1    0    0  501  502  0.00000000000E+00  0.00000000000E+00  0.21242991446E+04  0.21242991446E+04  0.00000000000E+00 0.  1.
         21   -1    0    0  502  503 -0.00000000000E+00 -0.00000000000E+00 -0.32385122995E+03  0.32385122995E+03  0.00000000000E+00 0. -1.
    9000007    2    1    2  501    0  0.56430046885E+03 -0.43414865455E+03  0.11142112548E+04  0.13814541541E+04  0.40003598114E+03 0.  0.
    9000005    1    3    3    0    0  0.36794663504E+03 -0.47930038083E+03  0.92622052265E+03  0.11058928691E+04  0.99999687468E+00 0.  0.
          4    1    3    3  501    0  0.19635383381E+03  0.45151726277E+02  0.18799073213E+03  0.27556128503E+03  0.00000000000E+00 0.  1.
   -9000007    1    1    2    0  503 -0.56430046885E+03  0.43414865455E+03  0.68623665989E+03  0.10666962205E+04  0.40000000000E+03 0.  1.
<mgrwt>
<rscale>  2 0.81666496E+03</rscale>
<asrwt>0</asrwt>
<pdfrwt beam="1">  1       21 0.32681524E+00 0.81666937E+03</pdfrwt>
<pdfrwt beam="2">  1       21 0.49823267E-01 0.81666937E+03</pdfrwt>
<totfact> 0.58479219E+01</totfact>
</mgrwt>
</event>
<event>
 6    1  0.8739326E-004  0.5497797E+03  0.7818608E-02  0.1001549E+00
         21   -1    0    0  501  502  0.00000000000E+00  0.00000000000E+00  0.21366940444E+03  0.21366940444E+03  0.00000000000E+00 0. -1.
         21   -1    0    0  502  503 -0.00000000000E+00 -0.00000000000E+00 -0.14686384040E+04  0.14686384040E+04  0.00000000000E+00 0.  1.
    9000007    2    1    2  501    0  0.35101834460E+03 -0.13799938014E+03 -0.78905423892E+03  0.96165930097E+03  0.39990537882E+03 0.  0.
    9000005    1    3    3    0    0  0.43126956736E+03 -0.97037268361E+02 -0.73165868354E+03  0.85483045124E+03  0.99999687468E+00 0.  0.
          4    1    3    3  501    0 -0.80251222757E+02 -0.40962111776E+02 -0.57395555383E+02  0.10682884972E+03  0.00000000000E+00 0.  1.
   -9000007    1    1    2    0  503 -0.35101834460E+03  0.13799938014E+03 -0.46591476067E+03  0.72064850751E+03  0.40000000000E+03 0.  1.
<mgrwt>
<rscale>  2 0.54976248E+03</rscale>
<asrwt>0</asrwt>
<pdfrwt beam="1">  1       21 0.32872218E-01 0.54977969E+03</pdfrwt>
<pdfrwt beam="2">  1       21 0.22594436E+00 0.54977969E+03</pdfrwt>
<totfact> 0.64801786E+02</totfact>
</mgrwt>
</event>
<event>
 6    1  0.8739326E-004  0.4483139E+03  0.7818608E-02  0.1028229E+00
         21   -1    0    0  501  502  0.00000000000E+00  0.00000000000E+00  0.26007155928E+03  0.26007155928E+03  0.00000000000E+00 0. -1.
         21   -1    0    0  502  503 -0.00000000000E+00 -0.00000000000E+00 -0.86173911451E+03  0.86173911451E+03  0.00000000000E+00 0. -1.
    9000007    2    1    2  501    0 -0.86054854859E+02  0.18324833439E+03 -0.48107555537E+03  0.65756093440E+03  0.39995912587E+03 0.  0.
    9000005    1    3    3    0    0  0.10049315811E+03  0.20762883733E+03 -0.14514824885E+03  0.27253921380E+03  0.99999687468E+00 0.  0.
          4    1    3    3  501    0 -0.18654801297E+03 -0.24380502943E+02 -0.33592730652E+03  0.38502172060E+03  0.00000000000E+00 0.  1.
   -9000007    1    1    2    0  503  0.86054854859E+02 -0.18324833439E+03 -0.12059199986E+03  0.46424973940E+03  0.40000000000E+03 0. -1.
<mgrwt>
<rscale>  2 0.44830482E+03</rscale>
<asrwt>0</asrwt>
<pdfrwt beam="1">  1       21 0.40011010E-01 0.44831394E+03</pdfrwt>
<pdfrwt beam="2">  1       21 0.13257525E+00 0.44831394E+03</pdfrwt>
<totfact> 0.21310167E+03</totfact>
</mgrwt>
</event>
<event>
 6    1  0.8739326E-004  0.4129638E+03  0.7818608E-02  0.1039396E+00
         21   -1    0    0  501  502  0.00000000000E+00  0.00000000000E+00  0.17490063474E+03  0.17490063474E+03  0.00000000000E+00 0.  1.
         21   -1    0    0  502  503 -0.00000000000E+00 -0.00000000000E+00 -0.12883328734E+04  0.12883328734E+04  0.00000000000E+00 0.  1.
    9000007    2    1    2  501    0 -0.20035357281E+02  0.99932448754E+02 -0.19579181925E+03  0.45702684488E+03  0.40018894362E+03 0.  0.
    9000005    1    3    3    0    0 -0.12834939261E+03  0.88219226500E+02 -0.27927833074E+03  0.31977114398E+03  0.99999687468E+00 0.  0.
          4    1    3    3  501    0  0.10831403533E+03  0.11713222254E+02  0.83486511496E+02  0.13725570089E+03  0.00000000000E+00 0.  1.
   -9000007    1    1    2    0  503  0.20035357281E+02 -0.99932448754E+02 -0.91764041942E+03  0.10062066633E+04  0.40000000000E+03 0.  1.
<mgrwt>
<rscale>  2 0.41291802E+03</rscale>
<asrwt>0</asrwt>
<pdfrwt beam="1">  1       21 0.26907789E-01 0.41296380E+03</pdfrwt>
<pdfrwt beam="2">  1       21 0.19820506E+00 0.41296380E+03</pdfrwt>
<totfact> 0.15527787E+03</totfact>
</mgrwt>
</event>
<event>
 6    1  0.8739326E-004  0.4190423E+03  0.7818608E-02  0.1038045E+00
         21   -1    0    0  501  502  0.00000000000E+00  0.00000000000E+00  0.37908727570E+03  0.37908727570E+03  0.00000000000E+00 0. -1.
         21   -1    0    0  502  503 -0.00000000000E+00 -0.00000000000E+00 -0.69423059026E+03  0.69423059026E+03  0.00000000000E+00 0. -1.
    9000007    2    1    2  501    0  0.12397761670E+03 -0.15032863712E+02  0.15890293855E+03  0.44061233689E+03  0.39152605419E+03 0.  0.
    9000005    1    3    3    0    0  0.13762480686E+03 -0.18999378231E+03  0.10498859088E+03  0.25702495791E+03  0.99999687468E+00 0.  0.
          4    1    3    3  501    0 -0.13647190160E+02  0.17496091860E+03  0.53914347666E+02  0.18358737898E+03  0.00000000000E+00 0.  1.
   -9000007    1    1    2    0  503 -0.12397761670E+03  0.15032863712E+02 -0.47404625311E+03  0.63270552907E+03  0.40000000000E+03 0. -1.
<mgrwt>
<rscale>  2 0.41700723E+03</rscale>
<asrwt>0</asrwt>
<pdfrwt beam="1">  1       21 0.58321120E-01 0.41904228E+03</pdfrwt>
<pdfrwt beam="2">  1       21 0.10680471E+00 0.41904228E+03</pdfrwt>
<totfact> 0.16788831E+03</totfact>
</mgrwt>
</event>
<event>
 6    1  0.8739326E-004  0.4948315E+03  0.7818608E-02  0.1015174E+00
         21   -1    0    0  501  502  0.00000000000E+00  0.00000000000E+00  0.40291362495E+03  0.40291362495E+03  0.00000000000E+00 0. -1.
         21   -1    0    0  502  503 -0.00000000000E+00 -0.00000000000E+00 -0.63821144794E+03  0.63821144794E+03  0.00000000000E+00 0. -1.
    9000007    2    1    2  501    0 -0.28049327142E+03 -0.78624339498E+02 -0.25292405897E+01  0.49428005369E+03  0.39930954453E+03 0.  0.
    9000005    1    3    3    0    0 -0.21150380674E+03  0.14402560214E+03  0.34710457118E+02  0.25823061431E+03  0.99999687468E+00 0.  0.
          4    1    3    3  501    0 -0.68989464677E+02 -0.22264994164E+03 -0.37239697708E+02  0.23604943939E+03  0.00000000000E+00 0.  1.
   -9000007    1    1    2    0  503  0.28049327142E+03  0.78624339498E+02 -0.23276858240E+03  0.54684501920E+03  0.40000000000E+03 0. -1.
<mgrwt>
<rscale>  2 0.49469200E+03</rscale>
<asrwt>0</asrwt>
<pdfrwt beam="1">  1       21 0.61986712E-01 0.49483155E+03</pdfrwt>
<pdfrwt beam="2">  1       21 0.98186376E-01 0.49483155E+03</pdfrwt>
<totfact> 0.17531280E+03</totfact>
</mgrwt>
</event>
<event>
 6    1  0.8739326E-004  0.4200140E+03  0.7818608E-02  0.1037490E+00
         21   -1    0    0  501  502  0.00000000000E+00  0.00000000000E+00  0.47749541189E+03  0.47749541189E+03  0.00000000000E+00 0.  1.
         21   -1    0    0  502  503 -0.00000000000E+00 -0.00000000000E+00 -0.51183113738E+03  0.51183113738E+03  0.00000000000E+00 0.  1.
    9000007    2    1    2  501    0  0.46123966632E+01  0.10968219104E+03  0.24781200167E+03  0.48767049462E+03  0.40541369725E+03 0.  0.
    9000005    1    3    3    0    0 -0.39856938095E+01 -0.58026542113E+02 -0.91874126019E+02  0.10874198991E+03  0.99999687468E+00 0.  0.
          4    1    3    3  501    0  0.85980904727E+01  0.16770873316E+03  0.33968612768E+03  0.37892850470E+03  0.00000000000E+00 0.  1.
   -9000007    1    1    2    0  503 -0.46123966632E+01 -0.10968219104E+03 -0.28214772716E+03  0.50165605466E+03  0.40000000000E+03 0.  1.
<mgrwt>
<rscale>  2 0.41870205E+03</rscale>
<asrwt>0</asrwt>
<pdfrwt beam="1">  1       21 0.73460833E-01 0.42001396E+03</pdfrwt>
<pdfrwt beam="2">  1       21 0.78743252E-01 0.42001396E+03</pdfrwt>
<totfact> 0.20743117E+03</totfact>
</mgrwt>
</event>
<event>
 6    1  0.8739326E-004  0.4899251E+03  0.7818608E-02  0.1016485E+00
         21   -1    0    0  501  502  0.00000000000E+00  0.00000000000E+00  0.45765655853E+03  0.45765655853E+03  0.00000000000E+00 0.  1.
         21   -1    0    0  502  503 -0.00000000000E+00 -0.00000000000E+00 -0.60831303826E+03  0.60831303826E+03  0.00000000000E+00 0.  1.
    9000007    2    1    2  501    0 -0.36727344263E+02  0.28049554683E+03  0.12339246735E+03  0.50460565512E+03  0.39921738009E+03 0.  0.
    9000005    1    3    3    0    0 -0.12913777974E+03 -0.55576918028E+02  0.41087629636E+02  0.14647372896E+03  0.99999687468E+00 0.  0.
          4    1    3    3  501    0  0.92410435476E+02  0.33607246485E+03  0.82304837717E+02  0.35813192615E+03  0.00000000000E+00 0.  1.
   -9000007    1    1    2    0  503  0.36727344263E+02 -0.28049554683E+03 -0.27404894709E+03  0.56136394167E+03  0.40000000000E+03 0.  1.
<mgrwt>
<rscale>  2 0.48976538E+03</rscale>
<asrwt>0</asrwt>
<pdfrwt beam="1">  1       21 0.70408701E-01 0.48992515E+03</pdfrwt>
<pdfrwt beam="2">  1       21 0.93586622E-01 0.48992515E+03</pdfrwt>
<totfact> 0.14830859E+03</totfact>
</mgrwt>
</event>
<event>
 6    1  0.8739326E-004  0.6199314E+03  0.7818608E-02  0.9865160E-01
         21   -1    0    0  501  502  0.00000000000E+00  0.00000000000E+00  0.16595970352E+04  0.16595970352E+04  0.00000000000E+00 0.  1.
         21   -1    0    0  502  503 -0.00000000000E+00 -0.00000000000E+00 -0.41416724553E+03  0.41416724553E+03  0.00000000000E+00 0.  1.
    9000007    2    1    2  501    0 -0.40440702478E+03  0.24518010487E+03  0.13117099029E+04  0.14508265800E+04  0.40081987268E+03 0.  0.
    9000005    1    3    3    0    0 -0.33217097788E+02  0.13348810182E+03  0.78439690890E+03  0.79636798002E+03  0.99999687468E+00 0.  0.
          4    1    3    3  501    0 -0.37118992699E+03  0.11169200305E+03  0.52731299404E+03  0.65445860001E+03  0.00000000000E+00 0.  1.
   -9000007    1    1    2    0  503  0.40440702478E+03 -0.24518010487E+03 -0.66280113283E+02  0.62293770068E+03  0.40000000000E+03 0.  1.
<mgrwt>
<rscale>  2 0.61979888E+03</rscale>
<asrwt>0</asrwt>
<pdfrwt beam="1">  1       21 0.25532262E+00 0.61993136E+03</pdfrwt>
<pdfrwt beam="2">  1       21 0.63718038E-01 0.61993136E+03</pdfrwt>
<totfact> 0.10148030E+02</totfact>
</mgrwt>
</event>
<event>
 6    1  0.8739326E-004  0.4651088E+03  0.7818608E-02  0.1023320E+00
         21   -1    0    0  501  502  0.00000000000E+00  0.00000000000E+00  0.43042061906E+03  0.43042061906E+03  0.00000000000E+00 0.  1.
         21   -1    0    0  502  503 -0.00000000000E+00 -0.00000000000E+00 -0.54180034692E+03  0.54180034692E+03  0.00000000000E+00 0.  1.
    9000007    2    1    2  501    0 -0.14774482910E+03 -0.18573548150E+03  0.75334441968E+02  0.47103399006E+03  0.39983939030E+03 0.  0.
    9000005    1    3    3    0    0 -0.22974997023E+03 -0.86865168106E+02  0.18066927290E+03  0.30491472974E+03  0.99999687468E+00 0.  0.
          4    1    3    3  501    0  0.82005141136E+02 -0.98870313390E+02 -0.10533483093E+03  0.16611926032E+03  0.00000000000E+00 0.  1.
   -9000007    1    1    2    0  503  0.14774482910E+03  0.18573548150E+03 -0.18671416983E+03  0.50118697592E+03  0.40000000000E+03 0.  1.
<mgrwt>
<rscale>  2 0.46507427E+03</rscale>
<asrwt>0</asrwt>
<pdfrwt beam="1">  1       21 0.66218557E-01 0.46510881E+03</pdfrwt>
<pdfrwt beam="2">  1       21 0.83353900E-01 0.46510881E+03</pdfrwt>
<totfact> 0.22577735E+03</totfact>
</mgrwt>
</event>
<event>
 6    1  0.8739326E-004  0.4310406E+03  0.7818608E-02  0.1033585E+00
         21   -1    0    0  501  502  0.00000000000E+00  0.00000000000E+00  0.49419545839E+03  0.49419545839E+03  0.00000000000E+00 0. -1.
         21   -1    0    0  502  503 -0.00000000000E+00 -0.00000000000E+00 -0.37615756165E+03  0.37615756165E+03  0.00000000000E+00 0. -1.
    9000007    2    1    2  501    0  0.15344740094E+03  0.47433312490E+02  0.38985113192E+02  0.43212320981E+03  0.39926758623E+03 0.  0.
    9000005    1    3    3    0    0  0.14941005738E+03  0.81664395485E+01  0.20930273496E+03  0.25729106249E+03  0.99999687468E+00 0.  0.
          4    1    3    3  501    0  0.40373435570E+01  0.39266872941E+02 -0.17031762176E+03  0.17483214732E+03  0.00000000000E+00 0.  1.
   -9000007    1    1    2    0  503 -0.15344740094E+03 -0.47433312490E+02  0.79052783546E+02  0.43822981023E+03  0.40000000000E+03 0. -1.
<mgrwt>
<rscale>  2 0.43087063E+03</rscale>
<asrwt>0</asrwt>
<pdfrwt beam="1">  1       21 0.76030070E-01 0.43104063E+03</pdfrwt>
<pdfrwt beam="2">  1       21 0.57870394E-01 0.43104063E+03</pdfrwt>
<totfact> 0.38026994E+03</totfact>
</mgrwt>
</event>
<event>
 6    1  0.8739326E-004  0.4037502E+03  0.7818608E-02  0.1042758E+00
         21   -1    0    0  501  502  0.00000000000E+00  0.00000000000E+00  0.60085764077E+03  0.60085764077E+03  0.00000000000E+00 0.  1.
         21   -1    0    0  502  503 -0.00000000000E+00 -0.00000000000E+00 -0.49604534195E+03  0.49604534195E+03  0.00000000000E+00 0.  1.
    9000007    2    1    2  501    0 -0.20379245972E+02 -0.89736314630E+01  0.42340076157E+03  0.58504905012E+03  0.40313564270E+03 0.  0.
    9000005    1    3    3    0    0  0.11870004219E+03 -0.11489695019E+03  0.36514201648E+03  0.40077512569E+03  0.99999687468E+00 0.  0.
          4    1    3    3  501    0 -0.13907928816E+03  0.10592331872E+03  0.58258745088E+02  0.18427392443E+03  0.00000000000E+00 0.  1.
   -9000007    1    1    2    0  503  0.20379245972E+02  0.89736314630E+01 -0.31858846274E+03  0.51185393260E+03  0.40000000000E+03 0.  1.
<mgrwt>
<rscale>  2 0.40296516E+03</rscale>
<asrwt>0</asrwt>
<pdfrwt beam="1">  1       21 0.92439636E-01 0.40375015E+03</pdfrwt>
<pdfrwt beam="2">  1       21 0.76314669E-01 0.40375015E+03</pdfrwt>
<totfact> 0.13165954E+03</totfact>
</mgrwt>
</event>
<event>
 6    1  0.8739326E-004  0.5498264E+03  0.7818608E-02  0.1001541E+00
         21   -1    0    0  501  502  0.00000000000E+00  0.00000000000E+00  0.40413930852E+03  0.40413930852E+03  0.00000000000E+00 0. -1.
         21   -1    0    0  502  503 -0.00000000000E+00 -0.00000000000E+00 -0.97982449845E+03  0.97982449845E+03  0.00000000000E+00 0. -1.
    9000007    2    1    2  501    0  0.27356275672E+03 -0.25952015704E+03 -0.62454021441E+03  0.83208147605E+03  0.40015223301E+03 0.  0.
    9000005    1    3    3    0    0  0.11091130912E+03 -0.11063422683E+03 -0.58807195514E+03  0.60858103409E+03  0.99999687468E+00 0.  0.
          4    1    3    3  501    0  0.16265144759E+03 -0.14888593021E+03 -0.36468259271E+02  0.22350044195E+03  0.00000000000E+00 0.  1.
   -9000007    1    1    2    0  503 -0.27356275672E+03  0.25952015704E+03  0.48855024488E+02  0.55188233093E+03  0.40000000000E+03 0. -1.
<mgrwt>
<rscale>  2 0.54979873E+03</rscale>
<asrwt>0</asrwt>
<pdfrwt beam="1">  1       21 0.62175279E-01 0.54982643E+03</pdfrwt>
<pdfrwt beam="2">  1       21 0.15074223E+00 0.54982643E+03</pdfrwt>
<totfact> 0.56807291E+02</totfact>
</mgrwt>
</event>
<event>
 6    1  0.8739326E-004  0.4461858E+03  0.7818608E-02  0.1029073E+00
         21   -1    0    0  501  502  0.00000000000E+00  0.00000000000E+00  0.89598620604E+03  0.89598620604E+03  0.00000000000E+00 0.  1.
         21   -1    0    0  502  503 -0.00000000000E+00 -0.00000000000E+00 -0.23979710556E+03  0.23979710556E+03  0.00000000000E+00 0.  1.
    9000007    2    1    2  501    0 -0.15009292665E+03  0.12866178765E+03  0.48686921638E+03  0.65855070020E+03  0.39694539756E+03 0.  0.
    9000005    1    3    3    0    0 -0.90560366454E+02  0.16929642195E+02 -0.51462197881E+02  0.10553269902E+03  0.99999687468E+00 0.  0.
          4    1    3    3  501    0 -0.59532560195E+02  0.11173214545E+03  0.53833141426E+03  0.55301800118E+03  0.00000000000E+00 0.  1.
   -9000007    1    1    2    0  503  0.15009292665E+03 -0.12866178765E+03  0.16931988410E+03  0.47723261140E+03  0.40000000000E+03 0.  1.
<mgrwt>
<rscale>  2 0.44550011E+03</rscale>
<asrwt>0</asrwt>
<pdfrwt beam="1">  1       21 0.13784403E+00 0.44618577E+03</pdfrwt>
<pdfrwt beam="2">  1       21 0.36891863E-01 0.44618577E+03</pdfrwt>
<totfact> 0.22738126E+03</totfact>
</mgrwt>
</event>
<event>
 6    1  0.8739326E-004  0.4402779E+03  0.7818608E-02  0.1030678E+00
         21   -1    0    0  501  502  0.00000000000E+00  0.00000000000E+00  0.26288025099E+04  0.26288025099E+04  0.00000000000E+00 0. -1.
         21   -1    0    0  502  503 -0.00000000000E+00 -0.00000000000E+00 -0.75332962637E+02  0.75332962637E+02  0.00000000000E+00 0. -1.
    9000007    2    1    2  501    0 -0.18331370620E+03  0.15515613710E+02  0.14753215978E+04  0.15395550115E+04  0.39976388976E+03 0.  0.
    9000005    1    3    3    0    0 -0.30196065395E+03  0.67719831724E+02  0.99166704926E+03  0.10388314342E+04  0.99999687468E+00 0.  0.
          4    1    3    3  501    0  0.11864694775E+03 -0.52204218014E+02  0.48365454850E+03  0.50072357731E+03  0.00000000000E+00 0.  1.
   -9000007    1    1    2    0  503  0.18331370620E+03 -0.15515613710E+02  0.10781479495E+04  0.11645804610E+04  0.40000000000E+03 0. -1.
<mgrwt>
<rscale>  2 0.44022429E+03</rscale>
<asrwt>0</asrwt>
<pdfrwt beam="1">  1       21 0.40443109E+00 0.44027792E+03</pdfrwt>
<pdfrwt beam="2">  1       21 0.11589689E-01 0.44027792E+03</pdfrwt>
<totfact> 0.39658658E+02</totfact>
</mgrwt>
</event>
<event>
 6    1  0.8739326E-004  0.4018891E+03  0.7818608E-02  0.1043169E+00
         21   -1    0    0  501  502  0.00000000000E+00  0.00000000000E+00  0.61011173596E+03  0.61011173596E+03  0.00000000000E+00 0.  1.
         21   -1    0    0  502  503 -0.00000000000E+00 -0.00000000000E+00 -0.26872629049E+03  0.26872629049E+03  0.00000000000E+00 0.  1.
    9000007    2    1    2  501    0  0.35583786482E+02  0.15768559504E+02  0.22627301618E+03  0.46078811949E+03  0.39951390449E+03 0.  0.
    9000005    1    3    3    0    0 -0.13754162898E+03  0.32336179495E+02 -0.36260962218E+02  0.14587386874E+03  0.99999687468E+00 0.  0.
          4    1    3    3  501    0  0.17312541546E+03 -0.16567619991E+02  0.26253397840E+03  0.31491425075E+03  0.00000000000E+00 0.  1.
   -9000007    1    1    2    0  503 -0.35583786482E+02 -0.15768559504E+02  0.11511242929E+03  0.41804990696E+03  0.40000000000E+03 0.  1.
<mgrwt>
<rscale>  2 0.40176810E+03</rscale>
<asrwt>0</asrwt>
<pdfrwt beam="1">  1       21 0.93863343E-01 0.40188911E+03</pdfrwt>
<pdfrwt beam="2">  1       21 0.41342506E-01 0.40188911E+03</pdfrwt>
<totfact> 0.47925462E+03</totfact>
</mgrwt>
</event>
<event>
 6    1  0.8739326E-004  0.4682080E+03  0.7818608E-02  0.1022444E+00
         21   -1    0    0  501  502  0.00000000000E+00  0.00000000000E+00  0.28987145979E+03  0.28987145979E+03  0.00000000000E+00 0.  1.
         21   -1    0    0  502  503 -0.00000000000E+00 -0.00000000000E+00 -0.76018609027E+03  0.76018609027E+03  0.00000000000E+00 0. -1.
    9000007    2    1    2  501    0  0.18848106411E+03 -0.15321330618E+03 -0.27471470168E+03  0.54285072749E+03  0.40027405150E+03 0.  0.
    9000005    1    3    3    0    0  0.17472531280E+03 -0.28186486159E+03 -0.15302924056E+03  0.36523373830E+03  0.99999687468E+00 0.  0.
          4    1    3    3  501    0  0.13755751312E+02  0.12865155541E+03 -0.12168546111E+03  0.17761698919E+03  0.00000000000E+00 0.  1.
   -9000007    1    1    2    0  503 -0.18848106411E+03  0.15321330618E+03 -0.19559992880E+03  0.50720682257E+03  0.40000000000E+03 0.  1.
<mgrwt>
<rscale>  2 0.46814944E+03</rscale>
<asrwt>0</asrwt>
<pdfrwt beam="1">  1       21 0.44595609E-01 0.46820801E+03</pdfrwt>
<pdfrwt beam="2">  1       21 0.11695171E+00 0.46820801E+03</pdfrwt>
<totfact> 0.23300167E+03</totfact>
</mgrwt>
</event>
<event>
 6    1  0.8739326E-004  0.4539355E+03  0.7818608E-02  0.1026684E+00
         21   -1    0    0  501  502  0.00000000000E+00  0.00000000000E+00  0.11783006191E+04  0.11783006191E+04  0.00000000000E+00 0. -1.
         21   -1    0    0  502  503 -0.00000000000E+00 -0.00000000000E+00 -0.47581496160E+03  0.47581496160E+03  0.00000000000E+00 0. -1.
    9000007    2    1    2  501    0 -0.10076794095E+03  0.18948149184E+03  0.10094694215E+04  0.11061224740E+04  0.39802135721E+03 0.  0.
    9000005    1    3    3    0    0 -0.13904708891E+03  0.81349263012E+02  0.97228106504E+03  0.98553704393E+03  0.99999687468E+00 0.  0.
          4    1    3    3  501    0  0.38279147960E+02  0.10813222882E+03  0.37188356445E+02  0.12058543002E+03  0.00000000000E+00 0.  1.
   -9000007    1    1    2    0  503  0.10076794095E+03 -0.18948149184E+03 -0.30698376399E+03  0.54799310673E+03  0.40000000000E+03 0. -1.
<mgrwt>
<rscale>  2 0.45349920E+03</rscale>
<asrwt>0</asrwt>
<pdfrwt beam="1">  1       21 0.18127702E+00 0.45393547E+03</pdfrwt>
<pdfrwt beam="2">  1       21 0.73202302E-01 0.45393547E+03</pdfrwt>
<totfact> 0.24356113E+02</totfact>
</mgrwt>
</event>
<event>
 6    1  0.8739326E-004  0.5139629E+03  0.7818608E-02  0.1010214E+00
         21   -1    0    0  501  502  0.00000000000E+00  0.00000000000E+00  0.16405847798E+04  0.16405847798E+04  0.00000000000E+00 0. -1.
         21   -1    0    0  502  503 -0.00000000000E+00 -0.00000000000E+00 -0.19183776610E+03  0.19183776610E+03  0.00000000000E+00 0. -1.
    9000007    2    1    2  501    0  0.32157799156E+03  0.21644047721E+02  0.10922909108E+04  0.12071691391E+04  0.40034613412E+03 0.  0.
    9000005    1    3    3    0    0  0.35886823620E+03 -0.39698837032E+02  0.53600256806E+03  0.64626787138E+03  0.99999687468E+00 0.  0.
          4    1    3    3  501    0 -0.37290244644E+02  0.61342884753E+02  0.55628834270E+03  0.56090126768E+03  0.00000000000E+00 0.  1.
   -9000007    1    1    2    0  503 -0.32157799156E+03 -0.21644047721E+02  0.35645610297E+03  0.62525340687E+03  0.40000000000E+03 0. -1.
<mgrwt>
<rscale>  2 0.51389553E+03</rscale>
<asrwt>0</asrwt>
<pdfrwt beam="1">  1       21 0.25239765E+00 0.51396293E+03</pdfrwt>
<pdfrwt beam="2">  1       21 0.29513504E-01 0.51396293E+03</pdfrwt>
<totfact> 0.55737948E+02</totfact>
</mgrwt>
</event>
<event>
 6    1  0.8739326E-004  0.4389034E+03  0.7818608E-02  0.1031094E+00
         21   -1    0    0  501  502  0.00000000000E+00  0.00000000000E+00  0.11833883886E+03  0.11833883886E+03  0.00000000000E+00 0.  1.
         21   -1    0    0  502  503 -0.00000000000E+00 -0.00000000000E+00 -0.22042675887E+04  0.22042675887E+04  0.00000000000E+00 0.  1.
    9000007    2    1    2  501    0 -0.55976170158E+02  0.17176403662E+03 -0.44872809244E+03  0.62759545164E+03  0.39985364082E+03 0.  0.
    9000005    1    3    3    0    0  0.96544504644E+02 -0.59979805898E+02 -0.17747207644E+02  0.11504078349E+03  0.99999687468E+00 0.  0.
          4    1    3    3  501    0 -0.15252067480E+03  0.23174384252E+03 -0.43098088480E+03  0.51255466815E+03  0.00000000000E+00 0.  1.
   -9000007    1    1    2    0  503  0.55976170158E+02 -0.17176403662E+03 -0.16372006574E+04  0.16950109759E+04  0.40000000000E+03 0.  1.
<mgrwt>
<rscale>  2 0.43887008E+03</rscale>
<asrwt>0</asrwt>
<pdfrwt beam="1">  1       21 0.18205974E-01 0.43890342E+03</pdfrwt>
<pdfrwt beam="2">  1       21 0.33911811E+00 0.43890342E+03</pdfrwt>
<totfact> 0.44047974E+02</totfact>
</mgrwt>
</event>
<event>
 6    1  0.8739326E-004  0.4858654E+03  0.7818608E-02  0.1017579E+00
         21   -1    0    0  501  502  0.00000000000E+00  0.00000000000E+00  0.13311830042E+04  0.13311830042E+04  0.00000000000E+00 0. -1.
         21   -1    0    0  502  503 -0.00000000000E+00 -0.00000000000E+00 -0.19233837700E+03  0.19233837700E+03  0.00000000000E+00 0.  1.
    9000007    2    1    2  501    0 -0.27457872020E+03 -0.25916584099E+02  0.78349969430E+03  0.92157855646E+03  0.39921187588E+03 0.  0.
    9000005    1    3    3    0    0  0.90794703724E+02 -0.68971411857E+02  0.23381937266E+03  0.26014079439E+03  0.99999687468E+00 0.  0.
          4    1    3    3  501    0 -0.36537342393E+03  0.43054827757E+02  0.54968032163E+03  0.66143776207E+03  0.00000000000E+00 0.  1.
   -9000007    1    1    2    0  503  0.27457872020E+03  0.25916584099E+02  0.35534493292E+03  0.60194282475E+03  0.40000000000E+03 0.  1.
<mgrwt>
<rscale>  2 0.48570311E+03</rscale>
<asrwt>0</asrwt>
<pdfrwt beam="1">  1       21 0.20479738E+00 0.48586535E+03</pdfrwt>
<pdfrwt beam="2">  1       21 0.29590520E-01 0.48586535E+03</pdfrwt>
<totfact> 0.11263091E+03</totfact>
</mgrwt>
</event>
<event>
 6    1  0.8739326E-004  0.4006918E+03  0.7818608E-02  0.1043562E+00
         21   -1    0    0  501  502  0.00000000000E+00  0.00000000000E+00  0.14477381662E+03  0.14477381662E+03  0.00000000000E+00 0. -1.
         21   -1    0    0  502  503 -0.00000000000E+00 -0.00000000000E+00 -0.11099216638E+04  0.11099216638E+04  0.00000000000E+00 0. -1.
    9000007    2    1    2  501    0 -0.11887727866E+02 -0.14584022941E+02 -0.45880223379E+03  0.60914153845E+03  0.40024981242E+03 0.  0.
    9000005    1    3    3    0    0 -0.19710011362E+03 -0.65780692299E+02 -0.25687184989E+03  0.33039325285E+03  0.99999687468E+00 0.  0.
          4    1    3    3  501    0  0.18521238575E+03  0.51196669358E+02 -0.20193038390E+03  0.27874828561E+03  0.00000000000E+00 0.  1.
   -9000007    1    1    2    0  503  0.11887727866E+02  0.14584022941E+02 -0.50634561341E+03  0.64555394199E+03  0.40000000000E+03 0. -1.
<mgrwt>
<rscale>  2 0.40062941E+03</rscale>
<asrwt>0</asrwt>
<pdfrwt beam="1">  1       21 0.22272894E-01 0.40069181E+03</pdfrwt>
<pdfrwt beam="2">  1       21 0.17075719E+00 0.40069181E+03</pdfrwt>
<totfact> 0.34914055E+03</totfact>
</mgrwt>
</event>
<event>
 6    1  0.8739326E-004  0.5749289E+03  0.7818608E-02  0.9959216E-01
         21   -1    0    0  501  502  0.00000000000E+00  0.00000000000E+00  0.45949809108E+03  0.45949809108E+03  0.00000000000E+00 0. -1.
         21   -1    0    0  502  503 -0.00000000000E+00 -0.00000000000E+00 -0.81248273379E+03  0.81248273379E+03  0.00000000000E+00 0.  1.
    9000007    2    1    2  501    0 -0.37258679131E+03  0.17582307563E+03  0.39743989065E+02  0.57630097811E+03  0.40100942846E+03 0.  0.
    9000005    1    3    3    0    0 -0.43441163843E+02 -0.91819753267E+02  0.10612985694E+03  0.14691000080E+03  0.99999687468E+00 0.  0.
          4    1    3    3  501    0 -0.32914562747E+03  0.26764282890E+03 -0.66385867877E+02  0.42939097731E+03  0.00000000000E+00 0.  1.
   -9000007    1    1    2    0  503  0.37258679131E+03 -0.17582307563E+03 -0.39272863178E+03  0.69567984677E+03  0.40000000000E+03 0.  1.
<mgrwt>
<rscale>  2 0.57475291E+03</rscale>
<asrwt>0</asrwt>
<pdfrwt beam="1">  1       21 0.70692014E-01 0.57492889E+03</pdfrwt>
<pdfrwt beam="2">  1       21 0.12499734E+00 0.57492889E+03</pdfrwt>
<totfact> 0.69492935E+02</totfact>
</mgrwt>
</event>
<event>
 6    1  0.8739326E-004  0.5446375E+03  0.7818608E-02  0.1002744E+00
         21   -1    0    0  501  502  0.00000000000E+00  0.00000000000E+00  0.17336839879E+03  0.17336839879E+03  0.00000000000E+00 0. -1.
         21   -1    0    0  502  503 -0.00000000000E+00 -0.00000000000E+00 -0.21532796424E+04  0.21532796424E+04  0.00000000000E+00 0.  1.
    9000007    2    1    2  501    0  0.22063434627E+03  0.29654054397E+03 -0.46270064989E+03  0.71464810488E+03  0.40001776639E+03 0.  0.
    9000005    1    3    3    0    0  0.17698452628E+03  0.18436887676E+02 -0.58642093209E+01  0.17804165332E+03  0.99999687468E+00 0.  0.
          4    1    3    3  501    0  0.43649819983E+02  0.27810365629E+03 -0.45683644057E+03  0.53660645157E+03  0.00000000000E+00 0.  1.
   -9000007    1    1    2    0  503 -0.22063434627E+03 -0.29654054397E+03 -0.15172105937E+04  0.16119999363E+04  0.40000000000E+03 0.  1.
<mgrwt>
<rscale>  2 0.54463425E+03</rscale>
<asrwt>0</asrwt>
<pdfrwt beam="1">  1       21 0.26672061E-01 0.54463751E+03</pdfrwt>
<pdfrwt beam="2">  1       21 0.33127380E+00 0.54463751E+03</pdfrwt>
<totfact> 0.22219772E+02</totfact>
</mgrwt>
</event>
<event>
 6    1  0.8739326E-004  0.4142296E+03  0.7818608E-02  0.1038983E+00
         21   -1    0    0  501  502  0.00000000000E+00  0.00000000000E+00  0.10476022295E+03  0.10476022295E+03  0.00000000000E+00 0. -1.
         21   -1    0    0  502  503 -0.00000000000E+00 -0.00000000000E+00 -0.20458705004E+04  0.20458705004E+04  0.00000000000E+00 0. -1.
    9000007    2    1    2  501    0  0.98825677581E+02 -0.42657558064E+02 -0.14511143343E+04  0.15090060620E+04  0.39972528311E+03 0.  0.
    9000005    1    3    3    0    0  0.15369779637E+03 -0.78555134618E+02 -0.23738791570E+03  0.29350970052E+03  0.99999687468E+00 0.  0.
          4    1    3    3  501    0 -0.54872118791E+02  0.35897576554E+02 -0.12137264186E+04  0.12154963615E+04  0.00000000000E+00 0.  1.
   -9000007    1    1    2    0  503 -0.98825677581E+02  0.42657558064E+02 -0.48999594310E+03  0.64162466136E+03  0.40000000000E+03 0. -1.
<mgrwt>
<rscale>  2 0.41416329E+03</rscale>
<asrwt>0</asrwt>
<pdfrwt beam="1">  1       21 0.16116958E-01 0.41422962E+03</pdfrwt>
<pdfrwt beam="2">  1       21 0.31474929E+00 0.41422962E+03</pdfrwt>
<totfact> 0.78854906E+02</totfact>
</mgrwt>
</event>
<event>
 6    1  0.8739326E-004  0.4216994E+03  0.7818608E-02  0.1036525E+00
         21   -1    0    0  501  502  0.00000000000E+00  0.00000000000E+00  0.23307535159E+03  0.23307535159E+03  0.00000000000E+00 0. -1.
         21   -1    0    0  502  503 -0.00000000000E+00 -0.00000000000E+00 -0.86031954955E+03  0.86031954955E+03  0.00000000000E+00 0. -1.
    9000007    2    1    2  501    0 -0.78501302413E+02  0.10801811687E+03 -0.12946324740E+03  0.44100219517E+03  0.39986477172E+03 0.  0.
    9000005    1    3    3    0    0  0.26405963033E+02  0.24495837409E+03 -0.51535710324E+02  0.25171175847E+03  0.99999687468E+00 0.  0.
          4    1    3    3  501    0 -0.10490726545E+03 -0.13694025722E+03 -0.77927537078E+02  0.18929043670E+03  0.00000000000E+00 0.  1.
   -9000007    1    1    2    0  503  0.78501302413E+02 -0.10801811687E+03 -0.49778095056E+03  0.65239270596E+03  0.40000000000E+03 0. -1.
<mgrwt>
<rscale>  2 0.42166731E+03</rscale>
<asrwt>0</asrwt>
<pdfrwt beam="1">  1       21 0.35857746E-01 0.42169938E+03</pdfrwt>
<pdfrwt beam="2">  1       21 0.13235686E+00 0.42169938E+03</pdfrwt>
<totfact> 0.27052969E+03</totfact>
</mgrwt>
</event>
<event>
 6    1  0.8739326E-004  0.4807191E+03  0.7818608E-02  0.1018979E+00
         21   -1    0    0  501  502  0.00000000000E+00  0.00000000000E+00  0.12647635738E+04  0.12647635738E+04  0.00000000000E+00 0.  1.
         21   -1    0    0  502  503 -0.00000000000E+00 -0.00000000000E+00 -0.19970216099E+03  0.19970216099E+03  0.00000000000E+00 0. -1.
    9000007    2    1    2  501    0  0.25302203824E+03 -0.80603708923E+02  0.31785047264E+03  0.57629835256E+03  0.40071655628E+03 0.  0.
    9000005    1    3    3    0    0  0.14053378813E+03  0.81609352040E+02 -0.40223006820E+02  0.16741780735E+03  0.99999687468E+00 0.  0.
          4    1    3    3  501    0  0.11248825011E+03 -0.16221306096E+03  0.35807347946E+03  0.40888054521E+03  0.00000000000E+00 0.  1.
   -9000007    1    1    2    0  503 -0.25302203824E+03  0.80603708923E+02  0.74721094013E+03  0.88816738218E+03  0.40000000000E+03 0.  1.
<mgrwt>
<rscale>  2 0.48056976E+03</rscale>
<asrwt>0</asrwt>
<pdfrwt beam="1">  1       21 0.19457901E+00 0.48071912E+03</pdfrwt>
<pdfrwt beam="2">  1       21 0.30723410E-01 0.48071912E+03</pdfrwt>
<totfact> 0.12261755E+03</totfact>
</mgrwt>
</event>
<event>
 6    1  0.8739326E-004  0.6491989E+03  0.7818608E-02  0.9808704E-01
         21   -1    0    0  501  502  0.00000000000E+00  0.00000000000E+00  0.43188365601E+03  0.43188365601E+03  0.00000000000E+00 0. -1.
         21   -1    0    0  502  503 -0.00000000000E+00 -0.00000000000E+00 -0.12931497409E+04  0.12931497409E+04  0.00000000000E+00 0.  1.
    9000007    2    1    2  501    0  0.50316823864E+03  0.90999358083E+02 -0.22678316244E+01  0.64830819581E+03  0.39854637642E+03 0.  0.
    9000005    1    3    3    0    0  0.11410822529E+03  0.14660476473E+03 -0.13917640321E+03  0.23213081511E+03  0.99999687468E+00 0.  0.
          4    1    3    3  501    0  0.38906001335E+03 -0.55605406649E+02  0.13690857158E+03  0.41617738070E+03  0.00000000000E+00 0.  1.
   -9000007    1    1    2    0  503 -0.50316823864E+03 -0.90999358083E+02 -0.85899825326E+03  0.10767252011E+04  0.40000000000E+03 0. -1.
<mgrwt>
<rscale>  2 0.64897509E+03</rscale>
<asrwt>0</asrwt>
<pdfrwt beam="1">  1       21 0.66443641E-01 0.64919886E+03</pdfrwt>
<pdfrwt beam="2">  1       21 0.19894611E+00 0.64919886E+03</pdfrwt>
<totfact> 0.21077183E+02</totfact>
</mgrwt>
</event>
<event>
 6    1  0.8739326E-004  0.4258289E+03  0.7818608E-02  0.1035226E+00
         21   -1    0    0  501  502  0.00000000000E+00  0.00000000000E+00  0.47507721853E+03  0.47507721853E+03  0.00000000000E+00 0.  1.
         21   -1    0    0  502  503 -0.00000000000E+00 -0.00000000000E+00 -0.40747367489E+03  0.40747367489E+03  0.00000000000E+00 0.  1.
    9000007    2    1    2  501    0 -0.26513851195E+02  0.14362200312E+03 -0.78186933984E+02  0.43245631731E+03  0.39946840382E+03 0.  0.
    9000005    1    3    3    0    0 -0.88075124267E+02 -0.60891893726E+02 -0.16924682495E+03  0.20027615431E+03  0.99999687468E+00 0.  0.
          4    1    3    3  501    0  0.61561273072E+02  0.20451389685E+03  0.91059890967E+02  0.23218016299E+03  0.00000000000E+00 0.  1.
   -9000007    1    1    2    0  503  0.26513851195E+02 -0.14362200312E+03  0.14579047763E+03  0.45009457612E+03  0.40000000000E+03 0.  1.
<mgrwt>
<rscale>  2 0.42570403E+03</rscale>
<asrwt>0</asrwt>
<pdfrwt beam="1">  1       21 0.73088803E-01 0.42582891E+03</pdfrwt>
<pdfrwt beam="2">  1       21 0.62688258E-01 0.42582891E+03</pdfrwt>
<totfact> 0.34979557E+03</totfact>
</mgrwt>
</event>
<event>
 6    1  0.8739326E-004  0.4014928E+03  0.7818608E-02  0.1043361E+00
         21   -1    0    0  501  502  0.00000000000E+00  0.00000000000E+00  0.62540839328E+03  0.62540839328E+03  0.00000000000E+00 0. -1.
         21   -1    0    0  502  503 -0.00000000000E+00 -0.00000000000E+00 -0.49791816001E+03  0.49791816001E+03  0.00000000000E+00 0. -1.
    9000007    2    1    2  501    0 -0.15319011781E+02 -0.78124991620E+01  0.45446007037E+03  0.60640781534E+03  0.40112438929E+03 0.  0.
    9000005    1    3    3    0    0 -0.10051806482E+03 -0.17733258955E+03  0.29496812605E+03  0.35854975115E+03  0.99999687468E+00 0.  0.
          4    1    3    3  501    0  0.85199053039E+02  0.16952009038E+03  0.15949194432E+03  0.24785806419E+03  0.00000000000E+00 0.  1.
   -9000007    1    1    2    0  503  0.15319011781E+02  0.78124991620E+01 -0.32696983710E+03  0.51691873795E+03  0.40000000000E+03 0. -1.
<mgrwt>
<rscale>  2 0.40121168E+03</rscale>
<asrwt>0</asrwt>
<pdfrwt beam="1">  1       21 0.96216675E-01 0.40149282E+03</pdfrwt>
<pdfrwt beam="2">  1       21 0.76602794E-01 0.40149282E+03</pdfrwt>
<totfact> 0.11875848E+03</totfact>
</mgrwt>
</event>
<event>
 6    1  0.8739326E-004  0.4248997E+03  0.7818608E-02  0.1035507E+00
         21   -1    0    0  501  502  0.00000000000E+00  0.00000000000E+00  0.38379753106E+03  0.38379753106E+03  0.00000000000E+00 0. -1.
         21   -1    0    0  502  503 -0.00000000000E+00 -0.00000000000E+00 -0.56486560381E+03  0.56486560381E+03  0.00000000000E+00 0. -1.
    9000007    2    1    2  501    0 -0.50775620359E+02 -0.13307377543E+03  0.10374912988E+03  0.43738274971E+03  0.40031611817E+03 0.  0.
    9000005    1    3    3    0    0  0.12894486733E+03 -0.16286459832E+03 -0.32015290642E+02  0.21018476402E+03  0.99999687468E+00 0.  0.
          4    1    3    3  501    0 -0.17972048769E+03  0.29790822886E+02  0.13576442052E+03  0.22719798570E+03  0.00000000000E+00 0.  1.
   -9000007    1    1    2    0  503  0.50775620359E+02  0.13307377543E+03 -0.28481720264E+03  0.51128038516E+03  0.40000000000E+03 0. -1.
<mgrwt>
<rscale>  2 0.42482527E+03</rscale>
<asrwt>0</asrwt>
<pdfrwt beam="1">  1       21 0.59045774E-01 0.42489974E+03</pdfrwt>
<pdfrwt beam="2">  1       21 0.86902401E-01 0.42489974E+03</pdfrwt>
<totfact> 0.26769338E+03</totfact>
</mgrwt>
</event>
<event>
 6    1  0.8739326E-004  0.7883042E+03  0.7818608E-02  0.9577110E-01
         21   -1    0    0  501  502  0.00000000000E+00  0.00000000000E+00  0.12162571280E+04  0.12162571280E+04  0.00000000000E+00 0. -1.
         21   -1    0    0  502  503 -0.00000000000E+00 -0.00000000000E+00 -0.54221459990E+03  0.54221459990E+03  0.00000000000E+00 0.  1.
    9000007    2    1    2  501    0  0.50001170591E+03  0.45979548031E+03  0.12577752860E+03  0.79825399247E+03  0.39995732275E+03 0.  0.
    9000005    1    3    3    0    0 -0.63846588153E+02  0.17750611185E+02 -0.15301119610E+02  0.68019080200E+02  0.99999687468E+00 0.  0.
          4    1    3    3  501    0  0.56385829407E+03  0.44204486913E+03  0.14107864821E+03  0.73023491227E+03  0.00000000000E+00 0.  1.
   -9000007    1    1    2    0  503 -0.50001170591E+03 -0.45979548031E+03  0.54826499950E+03  0.96021773543E+03  0.40000000000E+03 0. -1.
<mgrwt>
<rscale>  2 0.78829884E+03</rscale>
<asrwt>0</asrwt>
<pdfrwt beam="1">  1       21 0.18711648E+00 0.78830425E+03</pdfrwt>
<pdfrwt beam="2">  1       21 0.83417631E-01 0.78830425E+03</pdfrwt>
<totfact> 0.14404814E+02</totfact>
</mgrwt>
</event>
<event>
 6    1  0.8739326E-004  0.5023387E+03  0.7818608E-02  0.1013172E+00
         21   -1    0    0  501  502  0.00000000000E+00  0.00000000000E+00  0.20624675580E+04  0.20624675580E+04  0.00000000000E+00 0. -1.
         21   -1    0    0  502  503 -0.00000000000E+00 -0.00000000000E+00 -0.12365559969E+03  0.12365559969E+03  0.00000000000E+00 0. -1.
    9000007    2    1    2  501    0 -0.28172510765E+03 -0.11381673543E+03  0.85691801264E+03  0.99330389425E+03  0.40002607466E+03 0.  0.
    9000005    1    3    3    0    0 -0.21279427217E+02 -0.19402280456E+03  0.18799341554E+03  0.27099849998E+03  0.99999687468E+00 0.  0.
          4    1    3    3  501    0 -0.26044568044E+03  0.80206069138E+02  0.66892459710E+03  0.72230539427E+03  0.00000000000E+00 0.  1.
   -9000007    1    1    2    0  503  0.28172510765E+03  0.11381673543E+03  0.10818939457E+04  0.11928192634E+04  0.40000000000E+03 0. -1.
<mgrwt>
<rscale>  2 0.50233349E+03</rscale>
<asrwt>0</asrwt>
<pdfrwt beam="1">  1       21 0.31730267E+00 0.50233868E+03</pdfrwt>
<pdfrwt beam="2">  1       21 0.19023940E-01 0.50233868E+03</pdfrwt>
<totfact> 0.53036299E+02</totfact>
</mgrwt>
</event>
<event>
 6    1  0.8739326E-004  0.4103664E+03  0.7818608E-02  0.1040253E+00
         21   -1    0    0  501  502  0.00000000000E+00  0.00000000000E+00  0.29686168936E+03  0.29686168936E+03  0.00000000000E+00 0. -1.
         21   -1    0    0  502  503 -0.00000000000E+00 -0.00000000000E+00 -0.57324288328E+03  0.57324288328E+03  0.00000000000E+00 0. -1.
    9000007    2    1    2  501    0 -0.82331054116E+02 -0.40276792155E+02 -0.93493153505E+02  0.42082886911E+03  0.39994417719E+03 0.  0.
    9000005    1    3    3    0    0  0.40113747015E+02  0.12301452139E+02 -0.22779874231E+03  0.23163269505E+03  0.99999687468E+00 0.  0.
          4    1    3    3  501    0 -0.12244480113E+03 -0.52578244294E+02  0.13430558880E+03  0.18919617406E+03  0.00000000000E+00 0.  1.
   -9000007    1    1    2    0  503  0.82331054116E+02  0.40276792155E+02 -0.18288804041E+03  0.44927570353E+03  0.40000000000E+03 0.  1.
<mgrwt>
<rscale>  2 0.41035285E+03</rscale>
<asrwt>0</asrwt>
<pdfrwt beam="1">  1       21 0.45671030E-01 0.41036645E+03</pdfrwt>
<pdfrwt beam="2">  1       21 0.88191211E-01 0.41036645E+03</pdfrwt>
<totfact> 0.45012815E+03</totfact>
</mgrwt>
</event>
<event>
 6    1  0.8739326E-004  0.5199051E+03  0.7818608E-02  0.1008714E+00
         21   -1    0    0  501  502  0.00000000000E+00  0.00000000000E+00  0.60107944119E+03  0.60107944119E+03  0.00000000000E+00 0. -1.
         21   -1    0    0  502  503 -0.00000000000E+00 -0.00000000000E+00 -0.58506319443E+03  0.58506319443E+03  0.00000000000E+00 0.  1.
    9000007    2    1    2  501    0  0.30669027216E+03 -0.12719306682E+03  0.29334189641E+03  0.59695122764E+03  0.40008036781E+03 0.  0.
    9000005    1    3    3    0    0 -0.31195668285E+02  0.71489554203E+02 -0.35124705909E+02  0.85549231667E+02  0.99999687468E+00 0.  0.
          4    1    3    3  501    0  0.33788594045E+03 -0.19868262102E+03  0.32846660231E+03  0.51140199597E+03  0.00000000000E+00 0.  1.
   -9000007    1    1    2    0  503 -0.30669027216E+03  0.12719306682E+03 -0.27732564965E+03  0.58919140798E+03  0.40000000000E+03 0. -1.
<mgrwt>
<rscale>  2 0.51988963E+03</rscale>
<asrwt>0</asrwt>
<pdfrwt beam="1">  1       21 0.92473760E-01 0.51990509E+03</pdfrwt>
<pdfrwt beam="2">  1       21 0.90009723E-01 0.51990509E+03</pdfrwt>
<totfact> 0.85500256E+02</totfact>
</mgrwt>
</event>
<event>
 6    1  0.8739326E-004  0.4016724E+03  0.7818608E-02  0.1043240E+00
         21   -1    0    0  501  502  0.00000000000E+00  0.00000000000E+00  0.10537247203E+04  0.10537247203E+04  0.00000000000E+00 0.  1.
         21   -1    0    0  502  503 -0.00000000000E+00 -0.00000000000E+00 -0.85681368493E+03  0.85681368493E+03  0.00000000000E+00 0.  1.
    9000007    2    1    2  501    0  0.11418255967E+02 -0.34789505548E+02  0.96426593401E+03  0.10444124174E+04  0.39955953227E+03 0.  0.
    9000005    1    3    3    0    0  0.13897727803E+03  0.68943206459E+02  0.78896888588E+03  0.80407757860E+03  0.99999687468E+00 0.  0.
          4    1    3    3  501    0 -0.12755902206E+03 -0.10373271201E+03  0.17529704813E+03  0.24033483878E+03  0.00000000000E+00 0.  1.
   -9000007    1    1    2    0  503 -0.11418255967E+02  0.34789505548E+02 -0.76735489867E+03  0.86612598782E+03  0.40000000000E+03 0.  1.
<mgrwt>
<rscale>  2 0.40156266E+03</rscale>
<asrwt>0</asrwt>
<pdfrwt beam="1">  1       21 0.16211150E+00 0.40167236E+03</pdfrwt>
<pdfrwt beam="2">  1       21 0.13181749E+00 0.40167236E+03</pdfrwt>
<totfact> 0.83167095E+01</totfact>
</mgrwt>
</event>
<event>
 6    1  0.8739326E-004  0.4091451E+03  0.7818608E-02  0.1040659E+00
         21   -1    0    0  501  502  0.00000000000E+00  0.00000000000E+00  0.20498278145E+03  0.20498278145E+03  0.00000000000E+00 0. -1.
         21   -1    0    0  502  503 -0.00000000000E+00 -0.00000000000E+00 -0.10153352886E+04  0.10153352886E+04  0.00000000000E+00 0. -1.
    9000007    2    1    2  501    0 -0.11885531666E+02 -0.85154865648E+02 -0.13525824888E+03  0.43092281130E+03  0.40000882290E+03 0.  0.
    9000005    1    3    3    0    0 -0.54597656884E+02 -0.19678401591E+03 -0.20760226950E+03  0.29121221704E+03  0.99999687468E+00 0.  0.
          4    1    3    3  501    0  0.42712125219E+02  0.11162915026E+03  0.72344020618E+02  0.13971059426E+03  0.00000000000E+00 0.  1.
   -9000007    1    1    2    0  503  0.11885531666E+02  0.85154865648E+02 -0.67509425830E+03  0.78939525879E+03  0.40000000000E+03 0. -1.
<mgrwt>
<rscale>  2 0.40914290E+03</rscale>
<asrwt>0</asrwt>
<pdfrwt beam="1">  1       21 0.31535813E-01 0.40914505E+03</pdfrwt>
<pdfrwt beam="2">  1       21 0.15620543E+00 0.40914505E+03</pdfrwt>
<totfact> 0.22608747E+03</totfact>
</mgrwt>
</event>
<event>
 6    1  0.8739326E-004  0.4256584E+03  0.7818608E-02  0.1035832E+00
         21   -1    0    0  501  502  0.00000000000E+00  0.00000000000E+00  0.95127202241E+03  0.95127202241E+03  0.00000000000E+00 0.  1.
         21   -1    0    0  502  503 -0.00000000000E+00 -0.00000000000E+00 -0.50400180372E+03  0.50400180372E+03  0.00000000000E+00 0.  1.
    9000007    2    1    2  501    0 -0.25197107969E+01  0.14552904522E+03  0.79979492705E+03  0.90259062396E+03  0.39218982289E+03 0.  0.
    9000005    1    3    3    0    0 -0.14184401581E+03 -0.52417559524E+02  0.46838905794E+03  0.49219572830E+03  0.99999687468E+00 0.  0.
          4    1    3    3  501    0  0.13932430502E+03  0.19794660475E+03  0.33140586911E+03  0.41039489566E+03  0.00000000000E+00 0.  1.
   -9000007    1    1    2    0  503  0.25197107969E+01 -0.14552904522E+03 -0.35252470836E+03  0.55268320216E+03  0.40000000000E+03 0.  1.
<mgrwt>
<rscale>  2 0.42381370E+03</rscale>
<asrwt>0</asrwt>
<pdfrwt beam="1">  1       21 0.14634954E+00 0.42565837E+03</pdfrwt>
<pdfrwt beam="2">  1       21 0.77538739E-01 0.42565837E+03</pdfrwt>
<totfact> 0.39477137E+02</totfact>
</mgrwt>
</event>
<event>
 6    1  0.8739326E-004  0.6553643E+03  0.7818608E-02  0.9796889E-01
         21   -1    0    0  501  502  0.00000000000E+00  0.00000000000E+00  0.90399089511E+03  0.90399089511E+03  0.00000000000E+00 0.  1.
         21   -1    0    0  502  503 -0.00000000000E+00 -0.00000000000E+00 -0.57423332437E+03  0.57423332437E+03  0.00000000000E+00 0. -1.
    9000007    2    1    2  501    0 -0.30625814833E+02  0.51823200386E+03 -0.14251664538E+03  0.67042146784E+03  0.39956426263E+03 0.  0.
    9000005    1    3    3    0    0 -0.10054487096E+03  0.56096480422E+03 -0.10182326351E+03  0.57892984000E+03  0.99999687468E+00 0.  0.
          4    1    3    3  501    0  0.69919056123E+02 -0.42732800366E+02 -0.40693381875E+02  0.91491627839E+02  0.00000000000E+00 0.  1.
   -9000007    1    1    2    0  503  0.30625814833E+02 -0.51823200386E+03  0.47227421612E+03  0.80780275165E+03  0.40000000000E+03 0. -1.
<mgrwt>
<rscale>  2 0.65529781E+03</rscale>
<asrwt>0</asrwt>
<pdfrwt beam="1">  1       21 0.13907552E+00 0.65536429E+03</pdfrwt>
<pdfrwt beam="2">  1       21 0.88343588E-01 0.65536429E+03</pdfrwt>
<totfact> 0.30458732E+02</totfact>
</mgrwt>
</event>
<event>
 6    1  0.8739326E-004  0.6160642E+03  0.7818608E-02  0.9872893E-01
         21   -1    0    0  501  502  0.00000000000E+00  0.00000000000E+00  0.45842554663E+03  0.45842554663E+03  0.00000000000E+00 0. -1.
         21   -1    0    0  502  503 -0.00000000000E+00 -0.00000000000E+00 -0.10444821864E+04  0.10444821864E+04  0.00000000000E+00 0. -1.
    9000007    2    1    2  501    0 -0.15202149293E+03  0.44319817360E+03  0.49811416169E+02  0.61754716243E+03  0.39918437502E+03 0.  0.
    9000005    1    3    3    0    0 -0.16952726697E+03  0.34641878178E+03 -0.13464905854E+03  0.40850561266E+03  0.99999687468E+00 0.  0.
          4    1    3    3  501    0  0.17505774035E+02  0.96779391817E+02  0.18446047471E+03  0.20904154978E+03  0.00000000000E+00 0.  1.
   -9000007    1    1    2    0  503  0.15202149293E+03 -0.44319817360E+03 -0.63586805588E+03  0.88536057055E+03  0.40000000000E+03 0. -1.
<mgrwt>
<rscale>  2 0.61593189E+03</rscale>
<asrwt>0</asrwt>
<pdfrwt beam="1">  1       21 0.70527007E-01 0.61606425E+03</pdfrwt>
<pdfrwt beam="2">  1       21 0.16068957E+00 0.61606425E+03</pdfrwt>
<totfact> 0.35014519E+02</totfact>
</mgrwt>
</event>
<event>
 6    1  0.8739326E-004  0.5325851E+03  0.7818608E-02  0.1005621E+00
         21   -1    0    0  501  502  0.00000000000E+00  0.00000000000E+00  0.70366109195E+03  0.70366109195E+03  0.00000000000E+00 0. -1.
         21   -1    0    0  502  503 -0.00000000000E+00 -0.00000000000E+00 -0.40387097350E+03  0.40387097350E+03  0.00000000000E+00 0. -1.
    9000007    2    1    2  501    0  0.35128124180E+03 -0.15759830979E+02  0.17664370287E+03  0.56089514501E+03  0.39969173474E+03 0.  0.
    9000005    1    3    3    0    0  0.26690048041E+03 -0.36517141388E+02  0.30433829727E+03  0.40643839291E+03  0.99999687468E+00 0.  0.
          4    1    3    3  501    0  0.84380761394E+02  0.20757310409E+02 -0.12769459440E+03  0.15445675210E+03  0.00000000000E+00 0.  1.
   -9000007    1    1    2    0  503 -0.35128124180E+03  0.15759830979E+02  0.12314641558E+03  0.54663692044E+03  0.40000000000E+03 0. -1.
<mgrwt>
<rscale>  2 0.53252721E+03</rscale>
<asrwt>0</asrwt>
<pdfrwt beam="1">  1       21 0.10825555E+00 0.53258509E+03</pdfrwt>
<pdfrwt beam="2">  1       21 0.62133996E-01 0.53258509E+03</pdfrwt>
<totfact> 0.13545362E+03</totfact>
</mgrwt>
</event>
<event>
 6    1  0.8739326E-004  0.7112474E+03  0.7818608E-02  0.9699082E-01
         21   -1    0    0  501  502  0.00000000000E+00  0.00000000000E+00  0.13678965380E+04  0.13678965380E+04  0.00000000000E+00 0. -1.
         21   -1    0    0  502  503 -0.00000000000E+00 -0.00000000000E+00 -0.10411008323E+04  0.10411008323E+04  0.00000000000E+00 0.  1.
    9000007    2    1    2  501    0  0.28158611052E+03  0.51337979343E+03  0.11314725318E+04  0.13364516397E+04  0.40376149539E+03 0.  0.
    9000005    1    3    3    0    0  0.30550086143E+03  0.20221373980E+03  0.80692130491E+03  0.88619645972E+03  0.99999687468E+00 0.  0.
          4    1    3    3  501    0 -0.23914750914E+02  0.31116605363E+03  0.32455122684E+03  0.45025517996E+03  0.00000000000E+00 0.  1.
   -9000007    1    1    2    0  503 -0.28158611052E+03 -0.51337979343E+03 -0.80467682604E+03  0.10725457306E+04  0.40000000000E+03 0.  1.
<mgrwt>
<rscale>  2 0.71071468E+03</rscale>
<asrwt>0</asrwt>
<pdfrwt beam="1">  1       21 0.21044562E+00 0.71124742E+03</pdfrwt>
<pdfrwt beam="2">  1       21 0.16016936E+00 0.71124742E+03</pdfrwt>
<totfact> 0.19236816E+01</totfact>
</mgrwt>
</event>
<event>
 6    1  0.8739326E-004  0.4803979E+03  0.7818608E-02  0.1019079E+00
         21   -1    0    0  501  502  0.00000000000E+00  0.00000000000E+00  0.12459280821E+04  0.12459280821E+04  0.00000000000E+00 0.  1.
         21   -1    0    0  502  503 -0.00000000000E+00 -0.00000000000E+00 -0.24154709775E+03  0.24154709775E+03  0.00000000000E+00 0.  1.
    9000007    2    1    2  501    0  0.14708951664E+03 -0.22001632599E+03  0.86256674794E+03  0.98732141628E+03  0.40092352734E+03 0.  0.
    9000005    1    3    3    0    0 -0.52349587226E+02 -0.13651493943E+03  0.70444310293E+03  0.71945666528E+03  0.99999687468E+00 0.  0.
          4    1    3    3  501    0  0.19943910387E+03 -0.83501386565E+02  0.15812364502E+03  0.26786475099E+03  0.00000000000E+00 0.  1.
   -9000007    1    1    2    0  503 -0.14708951664E+03  0.22001632599E+03  0.14181423645E+03  0.50015376362E+03  0.40000000000E+03 0.  1.
<mgrwt>
<rscale>  2 0.48020521E+03</rscale>
<asrwt>0</asrwt>
<pdfrwt beam="1">  1       21 0.19168124E+00 0.48039794E+03</pdfrwt>
<pdfrwt beam="2">  1       21 0.37161093E-01 0.48039794E+03</pdfrwt>
<totfact> 0.87421500E+02</totfact>
</mgrwt>
</event>
<event>
 6    1  0.8739326E-004  0.4264807E+03  0.7818608E-02  0.1035000E+00
         21   -1    0    0  501  502  0.00000000000E+00  0.00000000000E+00  0.60598824058E+03  0.60598824058E+03  0.00000000000E+00 0.  1.
         21   -1    0    0  502  503 -0.00000000000E+00 -0.00000000000E+00 -0.59936137414E+03  0.59936137414E+03  0.00000000000E+00 0.  1.
    9000007    2    1    2  501    0 -0.42398006342E+02 -0.14173273875E+03  0.42927589315E+03  0.60491813657E+03  0.39970288882E+03 0.  0.
    9000005    1    3    3    0    0 -0.10435751786E+03  0.11739986122E+03  0.19267250074E+03  0.24858984590E+03  0.99999687468E+00 0.  0.
          4    1    3    3  501    0  0.61959511518E+02 -0.25913259997E+03  0.23660339241E+03  0.35632829067E+03  0.00000000000E+00 0.  1.
   -9000007    1    1    2    0  503  0.42398006342E+02  0.14173273875E+03 -0.42264902671E+03  0.60043147815E+03  0.40000000000E+03 0.  1.
<mgrwt>
<rscale>  2 0.42641099E+03</rscale>
<asrwt>0</asrwt>
<pdfrwt beam="1">  1       21 0.93228960E-01 0.42648067E+03</pdfrwt>
<pdfrwt beam="2">  1       21 0.92209442E-01 0.42648067E+03</pdfrwt>
<totfact> 0.82202122E+02</totfact>
</mgrwt>
</event>
<event>
 6    1  0.8739326E-004  0.4175055E+03  0.7818608E-02  0.1037920E+00
         21   -1    0    0  501  502  0.00000000000E+00  0.00000000000E+00  0.19983605379E+04  0.19983605379E+04  0.00000000000E+00 0. -1.
         21   -1    0    0  502  503 -0.00000000000E+00 -0.00000000000E+00 -0.10838001928E+03  0.10838001928E+03  0.00000000000E+00 0. -1.
    9000007    2    1    2  501    0 -0.10489426603E+03  0.54014284652E+02  0.14118545671E+04  0.14722921546E+04  0.40048785247E+03 0.  0.
    9000005    1    3    3    0    0 -0.23859598016E+02 -0.94482288752E+02  0.70422433777E+02  0.12023519650E+03  0.99999687468E+00 0.  0.
          4    1    3    3  501    0 -0.81034668009E+02  0.14849657340E+03  0.13414321333E+04  0.13520569581E+04  0.00000000000E+00 0.  1.
   -9000007    1    1    2    0  503  0.10489426603E+03 -0.54014284652E+02  0.47812595158E+03  0.63444840260E+03  0.40000000000E+03 0. -1.
<mgrwt>
<rscale>  2 0.41738850E+03</rscale>
<asrwt>0</asrwt>
<pdfrwt beam="1">  1       21 0.30744006E+00 0.41750553E+03</pdfrwt>
<pdfrwt beam="2">  1       21 0.16673851E-01 0.41750553E+03</pdfrwt>
<totfact> 0.81718146E+02</totfact>
</mgrwt>
</event>
<event>
 6    1  0.8739326E-004  0.4181239E+03  0.7818608E-02  0.1037680E+00
         21   -1    0    0  501  502  0.00000000000E+00  0.00000000000E+00  0.52971565003E+03  0.52971565003E+03  0.00000000000E+00 0. -1.
         21   -1    0    0  502  503 -0.00000000000E+00 -0.00000000000E+00 -0.37382244725E+03  0.37382244725E+03  0.00000000000E+00 0.  1.
    9000007    2    1    2  501    0  0.10710245146E+03  0.57779380205E+02  0.23258651580E+03  0.47846015601E+03  0.40002280144E+03 0.  0.
    9000005    1    3    3    0    0  0.24240838164E+03  0.11054607861E+03  0.18959106208E+03  0.32699851651E+03  0.99999687468E+00 0.  0.
          4    1    3    3  501    0 -0.13530593018E+03 -0.52766698400E+02  0.42995453720E+02  0.15146163951E+03  0.00000000000E+00 0.  1.
   -9000007    1    1    2    0  503 -0.10710245146E+03 -0.57779380205E+02 -0.76693313018E+02  0.42507794126E+03  0.40000000000E+03 0.  1.
<mgrwt>
<rscale>  2 0.41811849E+03</rscale>
<asrwt>0</asrwt>
<pdfrwt beam="1">  1       21 0.81494716E-01 0.41812395E+03</pdfrwt>
<pdfrwt beam="2">  1       21 0.57511145E-01 0.41812395E+03</pdfrwt>
<totfact> 0.33014361E+03</totfact>
</mgrwt>
</event>
<event>
 6    1  0.8739326E-004  0.4441290E+03  0.7818608E-02  0.1029557E+00
         21   -1    0    0  501  502  0.00000000000E+00  0.00000000000E+00  0.26081390407E+03  0.26081390407E+03  0.00000000000E+00 0.  1.
         21   -1    0    0  502  503 -0.00000000000E+00 -0.00000000000E+00 -0.81545867093E+03  0.81545867093E+03  0.00000000000E+00 0.  1.
    9000007    2    1    2  501    0 -0.14579212344E+03  0.12322865069E+03 -0.13073771125E+03  0.46297180424E+03  0.40101109557E+03 0.  0.
    9000005    1    3    3    0    0 -0.18337499434E+03  0.13086918788E+03 -0.25068544734E+03  0.33704202466E+03  0.99999687468E+00 0.  0.
          4    1    3    3  501    0  0.37582870901E+02 -0.76405371904E+01  0.11994773609E+03  0.12592977958E+03  0.00000000000E+00 0.  1.
   -9000007    1    1    2    0  503  0.14579212344E+03 -0.12322865069E+03 -0.42390705561E+03  0.61330077075E+03  0.40000000000E+03 0.  1.
<mgrwt>
<rscale>  2 0.44390061E+03</rscale>
<asrwt>0</asrwt>
<pdfrwt beam="1">  1       21 0.40125216E-01 0.44412897E+03</pdfrwt>
<pdfrwt beam="2">  1       21 0.12545518E+00 0.44412897E+03</pdfrwt>
<totfact> 0.24479686E+03</totfact>
</mgrwt>
</event>
<event>
 6    1  0.8739326E-004  0.4405053E+03  0.7818608E-02  0.1030661E+00
         21   -1    0    0  501  502  0.00000000000E+00  0.00000000000E+00  0.32863943915E+03  0.32863943915E+03  0.00000000000E+00 0.  1.
         21   -1    0    0  502  503 -0.00000000000E+00 -0.00000000000E+00 -0.66702748868E+03  0.66702748868E+03  0.00000000000E+00 0.  1.
    9000007    2    1    2  501    0 -0.15066571597E+01 -0.18450646836E+03 -0.33904717026E+03  0.55516114884E+03  0.39900627895E+03 0.  0.
    9000005    1    3    3    0    0 -0.50647024310E+02 -0.15625812894E+03  0.42301191486E+02  0.16962344982E+03  0.99999687468E+00 0.  0.
          4    1    3    3  501    0  0.49140367150E+02 -0.28248339412E+02 -0.38134836175E+03  0.38553769903E+03  0.00000000000E+00 0.  1.
   -9000007    1    1    2    0  503  0.15066571597E+01  0.18450646836E+03  0.65912073829E+00  0.44050577899E+03  0.40000000000E+03 0.  1.
<mgrwt>
<rscale>  2 0.44027958E+03</rscale>
<asrwt>0</asrwt>
<pdfrwt beam="1">  1       21 0.50559915E-01 0.44050529E+03</pdfrwt>
<pdfrwt beam="2">  1       21 0.10261961E+00 0.44050529E+03</pdfrwt>
<totfact> 0.24974395E+03</totfact>
</mgrwt>
</event>
<event>
 6    1  0.8739326E-004  0.4394274E+03  0.7818608E-02  0.1031119E+00
         21   -1    0    0  501  502  0.00000000000E+00  0.00000000000E+00  0.25885374046E+03  0.25885374046E+03  0.00000000000E+00 0.  1.
         21   -1    0    0  502  503 -0.00000000000E+00 -0.00000000000E+00 -0.78582193922E+03  0.78582193922E+03  0.00000000000E+00 0.  1.
    9000007    2    1    2  501    0 -0.13733116935E+03  0.10954208072E+03 -0.38806273450E+03  0.58625006355E+03  0.40278670978E+03 0.  0.
    9000005    1    3    3    0    0 -0.23795463658E+03 -0.16152993819E+02 -0.10499042887E+03  0.26059032681E+03  0.99999687468E+00 0.  0.
          4    1    3    3  501    0  0.10062346723E+03  0.12569507454E+03 -0.28307230563E+03  0.32565973674E+03  0.00000000000E+00 0.  1.
   -9000007    1    1    2    0  503  0.13733116935E+03 -0.10954208072E+03 -0.13890546425E+03  0.45842561613E+03  0.40000000000E+03 0.  1.
<mgrwt>
<rscale>  2 0.43878779E+03</rscale>
<asrwt>0</asrwt>
<pdfrwt beam="1">  1       21 0.39823653E-01 0.43942741E+03</pdfrwt>
<pdfrwt beam="2">  1       21 0.12089568E+00 0.43942741E+03</pdfrwt>
<totfact> 0.27385074E+03</totfact>
</mgrwt>
</event>
<event>
 6    1  0.8739326E-004  0.4972347E+03  0.7818608E-02  0.1014519E+00
         21   -1    0    0  501  502  0.00000000000E+00  0.00000000000E+00  0.49514131605E+03  0.49514131605E+03  0.00000000000E+00 0.  1.
         21   -1    0    0  502  503 -0.00000000000E+00 -0.00000000000E+00 -0.52261146656E+03  0.52261146656E+03  0.00000000000E+00 0.  1.
    9000007    2    1    2  501    0 -0.16763632148E+03  0.24269767866E+03 -0.12168182306E+03  0.51190701683E+03  0.40029767463E+03 0.  0.
    9000005    1    3    3    0    0 -0.26546015318E+03  0.63760995748E+02 -0.14062000002E+03  0.30709858662E+03  0.99999687468E+00 0.  0.
          4    1    3    3  501    0  0.97823831697E+02  0.17893668291E+03  0.18938176959E+02  0.20480843021E+03  0.00000000000E+00 0.  1.
   -9000007    1    1    2    0  503  0.16763632148E+03 -0.24269767866E+03  0.94211672558E+02  0.50584576578E+03  0.40000000000E+03 0.  1.
<mgrwt>
<rscale>  2 0.49717477E+03</rscale>
<asrwt>0</asrwt>
<pdfrwt beam="1">  1       21 0.76175587E-01 0.49723468E+03</pdfrwt>
<pdfrwt beam="2">  1       21 0.80401764E-01 0.49723468E+03</pdfrwt>
<totfact> 0.17684368E+03</totfact>
</mgrwt>
</event>
<event>
 6    1  0.8739326E-004  0.4713804E+03  0.7818608E-02  0.1021649E+00
         21   -1    0    0  501  502  0.00000000000E+00  0.00000000000E+00  0.28435650580E+03  0.28435650580E+03  0.00000000000E+00 0. -1.
         21   -1    0    0  502  503 -0.00000000000E+00 -0.00000000000E+00 -0.10028647799E+04  0.10028647799E+04  0.00000000000E+00 0. -1.
    9000007    2    1    2  501    0 -0.24565201190E+03 -0.43064342977E+02 -0.54426885081E+02  0.47284818950E+03  0.39802471771E+03 0.  0.
    9000005    1    3    3    0    0 -0.25657592349E+02 -0.17003781798E+03 -0.12099056879E+03  0.21026385642E+03  0.99999687468E+00 0.  0.
          4    1    3    3  501    0 -0.21999441955E+03  0.12697347500E+03  0.66563683709E+02  0.26258433308E+03  0.00000000000E+00 0.  1.
   -9000007    1    1    2    0  503  0.24565201190E+03  0.43064342977E+02 -0.66408138905E+03  0.81437309624E+03  0.40000000000E+03 0. -1.
<mgrwt>
<rscale>  2 0.47096105E+03</rscale>
<asrwt>0</asrwt>
<pdfrwt beam="1">  1       21 0.43747155E-01 0.47138037E+03</pdfrwt>
<pdfrwt beam="2">  1       21 0.15428689E+00 0.47138037E+03</pdfrwt>
<totfact> 0.11690829E+03</totfact>
</mgrwt>
</event>
<event>
 6    1  0.8739326E-004  0.5610502E+03  0.7818608E-02  0.9990257E-01
         21   -1    0    0  501  502  0.00000000000E+00  0.00000000000E+00  0.22636007693E+03  0.22636007693E+03  0.00000000000E+00 0.  1.
         21   -1    0    0  502  503 -0.00000000000E+00 -0.00000000000E+00 -0.13891028393E+04  0.13891028393E+04  0.00000000000E+00 0. -1.
    9000007    2    1    2  501    0  0.15265589019E+03  0.36101462651E+03 -0.55999003356E+03  0.79269549256E+03  0.40142486828E+03 0.  0.
    9000005    1    3    3    0    0  0.43451576973E+02 -0.18786279690E+02 -0.33422956114E+03  0.33756682802E+03  0.99999687468E+00 0.  0.
          4    1    3    3  501    0  0.10920431322E+03  0.37980090620E+03 -0.22576047241E+03  0.45512866453E+03  0.00000000000E+00 0.  1.
   -9000007    1    1    2    0  503 -0.15265589019E+03 -0.36101462651E+03 -0.60275272882E+03  0.82276742367E+03  0.40000000000E+03 0. -1.
<mgrwt>
<rscale>  2 0.56079536E+03</rscale>
<asrwt>0</asrwt>
<pdfrwt beam="1">  1       21 0.34824627E-01 0.56105018E+03</pdfrwt>
<pdfrwt beam="2">  1       21 0.21370813E+00 0.56105018E+03</pdfrwt>
<totfact> 0.68857590E+02</totfact>
</mgrwt>
</event>
<event>
 6    1  0.8739326E-004  0.6417890E+03  0.7818608E-02  0.9822328E-01
         21   -1    0    0  501  502  0.00000000000E+00  0.00000000000E+00  0.86331680722E+03  0.86331680722E+03  0.00000000000E+00 0. -1.
         21   -1    0    0  502  503 -0.00000000000E+00 -0.00000000000E+00 -0.75991074384E+03  0.75991074384E+03  0.00000000000E+00 0.  1.
    9000007    2    1    2  501    0  0.49540783053E+03  0.80085982116E+02  0.54685125719E+03  0.84317221777E+03  0.40006300534E+03 0.  0.
    9000005    1    3    3    0    0  0.26570863784E+03 -0.94462838851E+02  0.77861115099E+02  0.29255368974E+03  0.99999687468E+00 0.  0.
          4    1    3    3  501    0  0.22969919270E+03  0.17454882097E+03  0.46899014209E+03  0.55061852803E+03  0.00000000000E+00 0.  1.
   -9000007    1    1    2    0  503 -0.49540783053E+03 -0.80085982116E+02 -0.44344519381E+03  0.78005533329E+03  0.40000000000E+03 0.  1.
<mgrwt>
<rscale>  2 0.64177916E+03</rscale>
<asrwt>0</asrwt>
<pdfrwt beam="1">  1       21 0.13281797E+00 0.64178898E+03</pdfrwt>
<pdfrwt beam="2">  1       21 0.11690935E+00 0.64178898E+03</pdfrwt>
<totfact> 0.17356338E+02</totfact>
</mgrwt>
</event>
<event>
 6    1  0.8739326E-004  0.5356428E+03  0.7818608E-02  0.1004874E+00
         21   -1    0    0  501  502  0.00000000000E+00  0.00000000000E+00  0.11654292432E+04  0.11654292432E+04  0.00000000000E+00 0. -1.
         21   -1    0    0  502  503 -0.00000000000E+00 -0.00000000000E+00 -0.24661383445E+03  0.24661383445E+03  0.00000000000E+00 0.  1.
    9000007    2    1    2  501    0 -0.32596219995E+03 -0.14374217132E+03  0.48920113793E+03  0.72539790779E+03  0.39996400295E+03 0.  0.
    9000005    1    3    3    0    0  0.26103613232E+02 -0.12780175953E+03  0.29604685381E+03  0.32351109410E+03  0.99999687468E+00 0.  0.
          4    1    3    3  501    0 -0.35206581318E+03 -0.15940411790E+02  0.19315428412E+03  0.40188681368E+03  0.00000000000E+00 0.  1.
   -9000007    1    1    2    0  503  0.32596219995E+03  0.14374217132E+03  0.42961427085E+03  0.68664516989E+03  0.40000000000E+03 0.  1.
<mgrwt>
<rscale>  2 0.53563604E+03</rscale>
<asrwt>0</asrwt>
<pdfrwt beam="1">  1       21 0.17929680E+00 0.53564276E+03</pdfrwt>
<pdfrwt beam="2">  1       21 0.37940591E-01 0.53564276E+03</pdfrwt>
<totfact> 0.99977184E+02</totfact>
</mgrwt>
</event>
<event>
 6    1  0.8739326E-004  0.4145811E+03  0.7818608E-02  0.1039014E+00
         21   -1    0    0  501  502  0.00000000000E+00  0.00000000000E+00  0.66933549210E+03  0.66933549210E+03  0.00000000000E+00 0. -1.
         21   -1    0    0  502  503 -0.00000000000E+00 -0.00000000000E+00 -0.34782357264E+03  0.34782357264E+03  0.00000000000E+00 0. -1.
    9000007    2    1    2  501    0 -0.84339684073E+02 -0.69024215643E+02  0.42245309417E+03  0.59046638212E+03  0.39787737682E+03 0.  0.
    9000005    1    3    3    0    0  0.34338460621E+02  0.12715623971E+03  0.30634296653E+03  0.33345892147E+03  0.99999687468E+00 0.  0.
          4    1    3    3  501    0 -0.11867814469E+03 -0.19618045535E+03  0.11611012764E+03  0.25700746065E+03  0.00000000000E+00 0.  1.
   -9000007    1    1    2    0  503  0.84339684073E+02  0.69024215643E+02 -0.10094117471E+03  0.42669268263E+03  0.40000000000E+03 0. -1.
<mgrwt>
<rscale>  2 0.41406829E+03</rscale>
<asrwt>0</asrwt>
<pdfrwt beam="1">  1       21 0.10297469E+00 0.41458114E+03</pdfrwt>
<pdfrwt beam="2">  1       21 0.53511319E-01 0.41458114E+03</pdfrwt>
<totfact> 0.22158071E+03</totfact>
</mgrwt>
</event>
<event>
 6    1  0.8739326E-004  0.4084832E+03  0.7818608E-02  0.1040887E+00
         21   -1    0    0  501  502  0.00000000000E+00  0.00000000000E+00  0.17806126291E+04  0.17806126291E+04  0.00000000000E+00 0. -1.
         21   -1    0    0  502  503 -0.00000000000E+00 -0.00000000000E+00 -0.16989926529E+03  0.16989926529E+03  0.00000000000E+00 0. -1.
    9000007    2    1    2  501    0 -0.79741593731E+02 -0.22356607898E+02  0.14584764542E+04  0.15145822942E+04  0.39993426791E+03 0.  0.
    9000005    1    3    3    0    0  0.93442816313E+02  0.70886257317E+02  0.10953137162E+04  0.11015759431E+04  0.99999687468E+00 0.  0.
          4    1    3    3  501    0 -0.17318441004E+03 -0.93242865215E+02  0.36316273801E+03  0.41300635113E+03  0.00000000000E+00 0.  1.
   -9000007    1    1    2    0  503  0.79741593731E+02  0.22356607898E+02  0.15223690956E+03  0.43592960019E+03  0.40000000000E+03 0. -1.
<mgrwt>
<rscale>  2 0.40846713E+03</rscale>
<asrwt>0</asrwt>
<pdfrwt beam="1">  1       21 0.27394039E+00 0.40848322E+03</pdfrwt>
<pdfrwt beam="2">  1       21 0.26138350E-01 0.40848322E+03</pdfrwt>
<totfact> 0.55322574E+02</totfact>
</mgrwt>
</event>
<event>
 6    1  0.8739326E-004  0.4117096E+03  0.7818608E-02  0.1039821E+00
         21   -1    0    0  501  502  0.00000000000E+00  0.00000000000E+00  0.73015993442E+03  0.73015993442E+03  0.00000000000E+00 0. -1.
         21   -1    0    0  502  503 -0.00000000000E+00 -0.00000000000E+00 -0.25371837312E+03  0.25371837312E+03  0.00000000000E+00 0. -1.
    9000007    2    1    2  501    0 -0.95295139754E+02  0.20581881264E+02  0.94211864405E+02  0.42209158762E+03  0.39972572527E+03 0.  0.
    9000005    1    3    3    0    0 -0.14487842792E+03 -0.10425061536E+03 -0.85352465130E+02  0.19784840908E+03  0.99999687468E+00 0.  0.
          4    1    3    3  501    0  0.49583288161E+02  0.12483249663E+03  0.17956432953E+03  0.22424317854E+03  0.00000000000E+00 0.  1.
   -9000007    1    1    2    0  503  0.95295139754E+02 -0.20581881264E+02  0.38222969690E+03  0.56178671993E+03  0.40000000000E+03 0. -1.
<mgrwt>
<rscale>  2 0.41164295E+03</rscale>
<asrwt>0</asrwt>
<pdfrwt beam="1">  1       21 0.11233230E+00 0.41170958E+03</pdfrwt>
<pdfrwt beam="2">  1       21 0.39033596E-01 0.41170958E+03</pdfrwt>
<totfact> 0.34680002E+03</totfact>
</mgrwt>
</event>
<event>
 6    1  0.8739326E-004  0.5546965E+03  0.7818608E-02  0.1000440E+00
         21   -1    0    0  501  502  0.00000000000E+00  0.00000000000E+00  0.66285338069E+03  0.66285338069E+03  0.00000000000E+00 0.  1.
         21   -1    0    0  502  503 -0.00000000000E+00 -0.00000000000E+00 -0.50889882820E+03  0.50889882820E+03  0.00000000000E+00 0. -1.
    9000007    2    1    2  501    0 -0.25772227346E+03  0.28507442138E+03  0.25137957512E+03  0.60856500113E+03  0.39933879582E+03 0.  0.
    9000005    1    3    3    0    0 -0.19376601913E+03  0.84375031632E+02 -0.71448909122E+02  0.22309272229E+03  0.99999687468E+00 0.  0.
          4    1    3    3  501    0 -0.63956254329E+02  0.20069938975E+03  0.32282848424E+03  0.38547227883E+03  0.00000000000E+00 0.  1.
   -9000007    1    1    2    0  503  0.25772227346E+03 -0.28507442138E+03 -0.97425022628E+02  0.56318720777E+03  0.40000000000E+03 0. -1.
<mgrwt>
<rscale>  2 0.55457730E+03</rscale>
<asrwt>0</asrwt>
<pdfrwt beam="1">  1       21 0.10197744E+00 0.55469649E+03</pdfrwt>
<pdfrwt beam="2">  1       21 0.78292127E-01 0.55469649E+03</pdfrwt>
<totfact> 0.92429717E+02</totfact>
</mgrwt>
</event>
<event>
 6    1  0.8739326E-004  0.6015190E+03  0.7818608E-02  0.9904648E-01
         21   -1    0    0  501  502  0.00000000000E+00  0.00000000000E+00  0.14823544995E+04  0.14823544995E+04  0.00000000000E+00 0. -1.
         21   -1    0    0  502  503 -0.00000000000E+00 -0.00000000000E+00 -0.55732638127E+03  0.55732638127E+03  0.00000000000E+00 0.  1.
    9000007    2    1    2  501    0 -0.43607164082E+03 -0.78435091476E+02  0.12301202260E+04  0.13693140158E+04  0.40683481150E+03 0.  0.
    9000005    1    3    3    0    0 -0.40348999162E+03  0.53104614660E+02  0.60142762824E+03  0.72618211589E+03  0.99999687468E+00 0.  0.
          4    1    3    3  501    0 -0.32581649200E+02 -0.13153970614E+03  0.62869259777E+03  0.64313189989E+03  0.00000000000E+00 0.  1.
   -9000007    1    1    2    0  503  0.43607164082E+03  0.78435091476E+02 -0.30509210776E+03  0.67036686502E+03  0.40000000000E+03 0.  1.
<mgrwt>
<rscale>  2 0.60036532E+03</rscale>
<asrwt>0</asrwt>
<pdfrwt beam="1">  1       21 0.22805454E+00 0.60151900E+03</pdfrwt>
<pdfrwt beam="2">  1       21 0.85742521E-01 0.60151900E+03</pdfrwt>
<totfact> 0.76852294E+01</totfact>
</mgrwt>
</event>
<event>
 6    1  0.8739326E-004  0.5382680E+03  0.7818608E-02  0.1004343E+00
         21   -1    0    0  501  502  0.00000000000E+00  0.00000000000E+00  0.41690856951E+03  0.41690856951E+03  0.00000000000E+00 0. -1.
         21   -1    0    0  502  503 -0.00000000000E+00 -0.00000000000E+00 -0.71102264639E+03  0.71102264639E+03  0.00000000000E+00 0. -1.
    9000007    2    1    2  501    0 -0.29460884198E+03  0.20721492363E+03 -0.56725218316E+02  0.53964058661E+03  0.39782133927E+03 0.  0.
    9000005    1    3    3    0    0 -0.37447144074E+03  0.17400387836E+03  0.33962997098E+02  0.41431955636E+03  0.99999687468E+00 0.  0.
          4    1    3    3  501    0  0.79862598759E+02  0.33211045269E+02 -0.90688215414E+02  0.12532103025E+03  0.00000000000E+00 0.  1.
   -9000007    1    1    2    0  503  0.29460884198E+03 -0.20721492363E+03 -0.23738885856E+03  0.58829062930E+03  0.40000000000E+03 0. -1.
<mgrwt>
<rscale>  2 0.53786324E+03</rscale>
<asrwt>0</asrwt>
<pdfrwt beam="1">  1       21 0.64139780E-01 0.53826796E+03</pdfrwt>
<pdfrwt beam="2">  1       21 0.10938810E+00 0.53826796E+03</pdfrwt>
<totfact> 0.12277133E+03</totfact>
</mgrwt>
</event>
<event>
 6    1  0.8739326E-004  0.4597971E+03  0.7818608E-02  0.1024846E+00
         21   -1    0    0  501  502  0.00000000000E+00  0.00000000000E+00  0.94661973798E+03  0.94661973798E+03  0.00000000000E+00 0.  1.
         21   -1    0    0  502  503 -0.00000000000E+00 -0.00000000000E+00 -0.30898781533E+03  0.30898781533E+03  0.00000000000E+00 0.  1.
    9000007    2    1    2  501    0 -0.84775928460E+02 -0.21011218596E+03  0.64945830956E+03  0.79574458224E+03  0.40009905721E+03 0.  0.
    9000005    1    3    3    0    0 -0.19828102467E+03 -0.54254846091E+02  0.13395662112E+03  0.24536570543E+03  0.99999687468E+00 0.  0.
          4    1    3    3  501    0  0.11350509620E+03 -0.15585733987E+03  0.51550168844E+03  0.55037887681E+03  0.00000000000E+00 0.  1.
   -9000007    1    1    2    0  503  0.84775928460E+02  0.21011218596E+03 -0.11826386914E+02  0.45986297107E+03  0.40000000000E+03 0.  1.
<mgrwt>
<rscale>  2 0.45977552E+03</rscale>
<asrwt>0</asrwt>
<pdfrwt beam="1">  1       21 0.14563380E+00 0.45979707E+03</pdfrwt>
<pdfrwt beam="2">  1       21 0.47536587E-01 0.45979707E+03</pdfrwt>
<totfact> 0.11541320E+03</totfact>
</mgrwt>
</event>
<event>
 6    1  0.8739326E-004  0.6320108E+03  0.7818608E-02  0.9841707E-01
         21   -1    0    0  501  502  0.00000000000E+00  0.00000000000E+00  0.92239860319E+03  0.92239860319E+03  0.00000000000E+00 0. -1.
         21   -1    0    0  502  503 -0.00000000000E+00 -0.00000000000E+00 -0.48638424210E+03  0.48638424210E+03  0.00000000000E+00 0.  1.
    9000007    2    1    2  501    0 -0.45103494603E+03 -0.18975019325E+03  0.45285645132E+03  0.77654767197E+03  0.39813272028E+03 0.  0.
    9000005    1    3    3    0    0 -0.29394723143E+03 -0.81800251830E+02  0.49486665493E+03  0.58136929935E+03  0.99999687468E+00 0.  0.
          4    1    3    3  501    0 -0.15708771461E+03 -0.10794994142E+03 -0.42010203616E+02  0.19517837262E+03  0.00000000000E+00 0.  1.
   -9000007    1    1    2    0  503  0.45103494603E+03  0.18975019325E+03 -0.16842090221E+02  0.63223517332E+03  0.40000000000E+03 0.  1.
<mgrwt>
<rscale>  2 0.63171556E+03</rscale>
<asrwt>0</asrwt>
<pdfrwt beam="1">  1       21 0.14190748E+00 0.63201081E+03</pdfrwt>
<pdfrwt beam="2">  1       21 0.74828345E-01 0.63201081E+03</pdfrwt>
<totfact> 0.42853267E+02</totfact>
</mgrwt>
</event>
<event>
 6    1  0.8739326E-004  0.5032409E+03  0.7818608E-02  0.1013122E+00
         21   -1    0    0  501  502  0.00000000000E+00  0.00000000000E+00  0.71019256361E+03  0.71019256361E+03  0.00000000000E+00 0.  1.
         21   -1    0    0  502  503 -0.00000000000E+00 -0.00000000000E+00 -0.35810452174E+03  0.35810452174E+03  0.00000000000E+00 0.  1.
    9000007    2    1    2  501    0  0.15671671122E+03  0.26209021608E+03  0.22858906142E+03  0.55012394139E+03  0.39639876760E+03 0.  0.
    9000005    1    3    3    0    0  0.11625097078E+03  0.30503107713E+03  0.13093417150E+02  0.32669662347E+03  0.99999687468E+00 0.  0.
          4    1    3    3  501    0  0.40465740439E+02 -0.42940861044E+02  0.21549564427E+03  0.22342731793E+03  0.00000000000E+00 0.  1.
   -9000007    1    1    2    0  503 -0.15671671122E+03 -0.26209021608E+03  0.12349898046E+03  0.51817314395E+03  0.40000000000E+03 0.  1.
<mgrwt>
<rscale>  2 0.50252496E+03</rscale>
<asrwt>0</asrwt>
<pdfrwt beam="1">  1       21 0.10926039E+00 0.50324091E+03</pdfrwt>
<pdfrwt beam="2">  1       21 0.55093003E-01 0.50324091E+03</pdfrwt>
<totfact> 0.17394745E+03</totfact>
</mgrwt>
</event>
<event>
 6    1  0.8739326E-004  0.4358729E+03  0.7818608E-02  0.1033126E+00
         21   -1    0    0  501  502  0.00000000000E+00  0.00000000000E+00  0.59145474409E+03  0.59145474409E+03  0.00000000000E+00 0.  1.
         21   -1    0    0  502  503 -0.00000000000E+00 -0.00000000000E+00 -0.48887886387E+03  0.48887886387E+03  0.00000000000E+00 0.  1.
    9000007    2    1    2  501    0 -0.13344762745E+03 -0.13305921247E+02  0.37763070816E+03  0.57670629021E+03  0.41472867830E+03 0.  0.
    9000005    1    3    3    0    0 -0.36730221020E+02 -0.71579706644E+02 -0.75126685721E+02  0.11008079960E+03  0.99999687468E+00 0.  0.
          4    1    3    3  501    0 -0.96717406425E+02  0.58273785396E+02  0.45275739388E+03  0.46662549061E+03  0.00000000000E+00 0.  1.
   -9000007    1    1    2    0  503  0.13344762745E+03  0.13305921247E+02 -0.27505482795E+03  0.50362731775E+03  0.40000000000E+03 0.  1.
<mgrwt>
<rscale>  2 0.43233255E+03</rscale>
<asrwt>0</asrwt>
<pdfrwt beam="1">  1       21 0.90993038E-01 0.43587291E+03</pdfrwt>
<pdfrwt beam="2">  1       21 0.75212133E-01 0.43587291E+03</pdfrwt>
<totfact> 0.13938030E+03</totfact>
</mgrwt>
</event>
<event>
 6    1  0.8739326E-004  0.4250063E+03  0.7818608E-02  0.1035475E+00
         21   -1    0    0  501  502  0.00000000000E+00  0.00000000000E+00  0.22789261265E+03  0.22789261265E+03  0.00000000000E+00 0.  1.
         21   -1    0    0  502  503 -0.00000000000E+00 -0.00000000000E+00 -0.80552114290E+03  0.80552114290E+03  0.00000000000E+00 0.  1.
    9000007    2    1    2  501    0 -0.11825643307E+03  0.79847408042E+02 -0.22202296316E+03  0.47950445622E+03  0.40033752614E+03 0.  0.
    9000005    1    3    3    0    0  0.10505153510E+03  0.29424265027E+02 -0.22554680000E+03  0.25054734359E+03  0.99999687468E+00 0.  0.
          4    1    3    3  501    0 -0.22330796817E+03  0.50423143015E+02  0.35238368424E+01  0.22895711263E+03  0.00000000000E+00 0.  1.
   -9000007    1    1    2    0  503  0.11825643307E+03 -0.79847408042E+02 -0.35560556709E+03  0.55390929932E+03  0.40000000000E+03 0.  1.
<mgrwt>
<rscale>  2 0.42492677E+03</rscale>
<asrwt>0</asrwt>
<pdfrwt beam="1">  1       21 0.35060402E-01 0.42500627E+03</pdfrwt>
<pdfrwt beam="2">  1       21 0.12392633E+00 0.42500627E+03</pdfrwt>
<totfact> 0.33512093E+03</totfact>
</mgrwt>
</event>
<event>
 6    1  0.8739326E-004  0.4707453E+03  0.7818608E-02  0.1021793E+00
         21   -1    0    0  501  502  0.00000000000E+00  0.00000000000E+00  0.13704128383E+04  0.13704128383E+04  0.00000000000E+00 0. -1.
         21   -1    0    0  502  503 -0.00000000000E+00 -0.00000000000E+00 -0.28826161993E+03  0.28826161993E+03  0.00000000000E+00 0.  1.
    9000007    2    1    2  501    0 -0.13508023878E+03 -0.20553264518E+03  0.10918535592E+04  0.11890102435E+04  0.40138612998E+03 0.  0.
    9000005    1    3    3    0    0 -0.14340357045E+03 -0.14863196819E+03  0.11097328126E+04  0.11287887142E+04  0.99999687468E+00 0.  0.
          4    1    3    3  501    0  0.83233316640E+01 -0.56900676998E+02 -0.17879253390E+02  0.60221529328E+02  0.00000000000E+00 0.  1.
   -9000007    1    1    2    0  503  0.13508023878E+03  0.20553264518E+03 -0.97023408306E+01  0.46966421469E+03  0.40000000000E+03 0.  1.
<mgrwt>
<rscale>  2 0.47044972E+03</rscale>
<asrwt>0</asrwt>
<pdfrwt beam="1">  1       21 0.21083274E+00 0.47074533E+03</pdfrwt>
<pdfrwt beam="2">  1       21 0.44347942E-01 0.47074533E+03</pdfrwt>
<totfact> 0.45405644E+02</totfact>
</mgrwt>
</event>
<event>
 6    1  0.8739326E-004  0.4603054E+03  0.7818608E-02  0.1024744E+00
         21   -1    0    0  501  502  0.00000000000E+00  0.00000000000E+00  0.26326587075E+03  0.26326587075E+03  0.00000000000E+00 0.  1.
         21   -1    0    0  502  503 -0.00000000000E+00 -0.00000000000E+00 -0.10152468073E+04  0.10152468073E+04  0.00000000000E+00 0. -1.
    9000007    2    1    2  501    0 -0.22543989399E+03  0.32525551198E+02 -0.83881576985E+02  0.46719411451E+03  0.39919063666E+03 0.  0.
    9000005    1    3    3    0    0  0.14023846592E+02 -0.15398525794E+03 -0.10863076966E+02  0.15500688491E+03  0.99999687468E+00 0.  0.
          4    1    3    3  501    0 -0.23946374058E+03  0.18651080914E+03 -0.73018500019E+02  0.31218722960E+03  0.00000000000E+00 0.  1.
   -9000007    1    1    2    0  503  0.22543989399E+03 -0.32525551198E+02 -0.66809935955E+03  0.81131856352E+03  0.40000000000E+03 0. -1.
<mgrwt>
<rscale>  2 0.46012951E+03</rscale>
<asrwt>0</asrwt>
<pdfrwt beam="1">  1       21 0.40502441E-01 0.46030540E+03</pdfrwt>
<pdfrwt beam="2">  1       21 0.15619182E+00 0.46030540E+03</pdfrwt>
<totfact> 0.13324085E+03</totfact>
</mgrwt>
</event>
<event>
 6    1  0.8739326E-004  0.4705933E+03  0.7818608E-02  0.1021769E+00
         21   -1    0    0  501  502  0.00000000000E+00  0.00000000000E+00  0.30738053326E+04  0.30738053326E+04  0.00000000000E+00 0.  1.
         21   -1    0    0  502  503 -0.00000000000E+00 -0.00000000000E+00 -0.72663151966E+02  0.72663151966E+02  0.00000000000E+00 0.  1.
    9000007    2    1    2  501    0  0.22755277345E+03 -0.98375926746E+02  0.16492001225E+04  0.17149638858E+04  0.39972740457E+03 0.  0.
    9000005    1    3    3    0    0  0.34734293953E+02 -0.55667735685E+02  0.13012639694E+02  0.66900648414E+02  0.99999687468E+00 0.  0.
          4    1    3    3  501    0  0.19281847949E+03 -0.42708191061E+02  0.16361874828E+04  0.16480632374E+04  0.00000000000E+00 0.  1.
   -9000007    1    1    2    0  503 -0.22755277345E+03  0.98375926746E+02  0.13519420582E+04  0.14315045988E+04  0.40000000000E+03 0.  1.
<mgrwt>
<rscale>  2 0.47053540E+03</rscale>
<asrwt>0</asrwt>
<pdfrwt beam="1">  1       21 0.47289303E+00 0.47059334E+03</pdfrwt>
<pdfrwt beam="2">  1       21 0.11178949E-01 0.47059334E+03</pdfrwt>
<totfact> 0.14457122E+02</totfact>
</mgrwt>
</event>
<event>
 6    1  0.8739326E-004  0.4215329E+03  0.7818608E-02  0.1036581E+00
         21   -1    0    0  501  502  0.00000000000E+00  0.00000000000E+00  0.47339893011E+03  0.47339893011E+03  0.00000000000E+00 0. -1.
         21   -1    0    0  502  503 -0.00000000000E+00 -0.00000000000E+00 -0.37842595831E+03  0.37842595831E+03  0.00000000000E+00 0. -1.
    9000007    2    1    2  501    0 -0.10336976751E+03  0.83694114765E+02  0.82054535661E+01  0.42145456427E+03  0.39983322348E+03 0.  0.
    9000005    1    3    3    0    0  0.81381613245E+01  0.92918966717E+02 -0.17986685667E+03  0.20261601656E+03  0.99999687468E+00 0.  0.
          4    1    3    3  501    0 -0.11150792883E+03 -0.92248519520E+01  0.18807231024E+03  0.21883854771E+03  0.00000000000E+00 0.  1.
   -9000007    1    1    2    0  503  0.10336976751E+03 -0.83694114765E+02  0.86767518236E+02  0.43037032414E+03  0.40000000000E+03 0. -1.
<mgrwt>
<rscale>  2 0.42149336E+03</rscale>
<asrwt>0</asrwt>
<pdfrwt beam="1">  1       21 0.72830604E-01 0.42153293E+03</pdfrwt>
<pdfrwt beam="2">  1       21 0.58219378E-01 0.42153293E+03</pdfrwt>
<totfact> 0.41529733E+03</totfact>
</mgrwt>
</event>
<event>
 6    1  0.8739326E-004  0.5279810E+03  0.7818608E-02  0.1006724E+00
         21   -1    0    0  501  502  0.00000000000E+00  0.00000000000E+00  0.44232531153E+03  0.44232531153E+03  0.00000000000E+00 0. -1.
         21   -1    0    0  502  503 -0.00000000000E+00 -0.00000000000E+00 -0.97570833234E+03  0.97570833234E+03  0.00000000000E+00 0. -1.
    9000007    2    1    2  501    0 -0.46754345459E+02 -0.34143510447E+03  0.15522316270E+03  0.55031112178E+03  0.39998025093E+03 0.  0.
    9000005    1    3    3    0    0 -0.86924929708E+02 -0.40663460979E+03  0.20019167028E+03  0.46150336307E+03  0.99999687468E+00 0.  0.
          4    1    3    3  501    0  0.40170584249E+02  0.65199505321E+02 -0.44968507579E+02  0.88807758709E+02  0.00000000000E+00 0.  1.
   -9000007    1    1    2    0  503  0.46754345459E+02  0.34143510447E+03 -0.68860618351E+03  0.86772252210E+03  0.40000000000E+03 0. -1.
<mgrwt>
<rscale>  2 0.52797722E+03</rscale>
<asrwt>0</asrwt>
<pdfrwt beam="1">  1       21 0.68050049E-01 0.52798096E+03</pdfrwt>
<pdfrwt beam="2">  1       21 0.15010897E+00 0.52798096E+03</pdfrwt>
<totfact> 0.47368823E+02</totfact>
</mgrwt>
</event>
<event>
 6    1  0.8739326E-004  0.4023605E+03  0.7818608E-02  0.1042990E+00
         21   -1    0    0  501  502  0.00000000000E+00  0.00000000000E+00  0.11545206666E+04  0.11545206666E+04  0.00000000000E+00 0. -1.
         21   -1    0    0  502  503 -0.00000000000E+00 -0.00000000000E+00 -0.14086368073E+03  0.14086368073E+03  0.00000000000E+00 0. -1.
    9000007    2    1    2  501    0  0.32025695198E+02  0.29467088673E+02  0.45985327156E+03  0.61084617569E+03  0.39971748088E+03 0.  0.
    9000005    1    3    3    0    0  0.76242462834E+02  0.20083938395E+03  0.18273367084E+03  0.28203185235E+03  0.99999687468E+00 0.  0.
          4    1    3    3  501    0 -0.44216767636E+02 -0.17137229528E+03  0.27711960072E+03  0.32881432334E+03  0.00000000000E+00 0.  1.
   -9000007    1    1    2    0  503 -0.32025695198E+02 -0.29467088673E+02  0.55380371435E+03  0.68453817169E+03  0.40000000000E+03 0. -1.
<mgrwt>
<rscale>  2 0.40229024E+03</rscale>
<asrwt>0</asrwt>
<pdfrwt beam="1">  1       21 0.17761856E+00 0.40236048E+03</pdfrwt>
<pdfrwt beam="2">  1       21 0.21671336E-01 0.40236048E+03</pdfrwt>
<totfact> 0.32840370E+03</totfact>
</mgrwt>
</event>
<event>
 6    1  0.8739326E-004  0.4246269E+03  0.7818608E-02  0.1035617E+00
         21   -1    0    0  501  502  0.00000000000E+00  0.00000000000E+00  0.48796211285E+03  0.48796211285E+03  0.00000000000E+00 0. -1.
         21   -1    0    0  502  503 -0.00000000000E+00 -0.00000000000E+00 -0.13729958025E+04  0.13729958025E+04  0.00000000000E+00 0. -1.
    9000007    2    1    2  501    0 -0.31497469454E+01  0.14073599992E+03  0.35307758791E+03  0.55224248478E+03  0.40061382444E+03 0.  0.
    9000005    1    3    3    0    0  0.13413789548E+03 -0.82160526725E+02  0.17675749921E+03  0.23661686473E+03  0.99999687468E+00 0.  0.
          4    1    3    3  501    0 -0.13728764242E+03  0.22289652664E+03  0.17632008870E+03  0.31562562005E+03  0.00000000000E+00 0.  1.
   -9000007    1    1    2    0  503  0.31497469454E+01 -0.14073599992E+03 -0.12381112776E+04  0.13087154306E+04  0.40000000000E+03 0. -1.
<mgrwt>
<rscale>  2 0.42448203E+03</rscale>
<asrwt>0</asrwt>
<pdfrwt beam="1">  1       21 0.75071096E-01 0.42462687E+03</pdfrwt>
<pdfrwt beam="2">  1       21 0.21123012E+00 0.42462687E+03</pdfrwt>
<totfact> 0.14690195E+02</totfact>
</mgrwt>
</event>
<event>
 6    1  0.8739326E-004  0.4444001E+03  0.7818608E-02  0.1029585E+00
         21   -1    0    0  501  502  0.00000000000E+00  0.00000000000E+00  0.43156419879E+03  0.43156419879E+03  0.00000000000E+00 0. -1.
         21   -1    0    0  502  503 -0.00000000000E+00 -0.00000000000E+00 -0.64603811154E+03  0.64603811154E+03  0.00000000000E+00 0. -1.
    9000007    2    1    2  501    0 -0.19362101262E+03  0.15444611823E+01  0.18581232215E+03  0.47950486699E+03  0.39737541005E+03 0.  0.
    9000005    1    3    3    0    0 -0.16240037961E+03  0.14454131655E+03 -0.29242353702E+02  0.21936770667E+03  0.99999687468E+00 0.  0.
          4    1    3    3  501    0 -0.31220633009E+02 -0.14299685537E+03  0.21505467585E+03  0.26013716032E+03  0.00000000000E+00 0.  1.
   -9000007    1    1    2    0  503  0.19362101262E+03 -0.15444611823E+01 -0.40028623490E+03  0.59809744335E+03  0.40000000000E+03 0. -1.
<mgrwt>
<rscale>  2 0.44380874E+03</rscale>
<asrwt>0</asrwt>
<pdfrwt beam="1">  1       21 0.66394492E-01 0.44440014E+03</pdfrwt>
<pdfrwt beam="2">  1       21 0.99390479E-01 0.44440014E+03</pdfrwt>
<totfact> 0.14892427E+03</totfact>
</mgrwt>
</event>
<event>
 6    1  0.8739326E-004  0.4696645E+03  0.7818608E-02  0.1022078E+00
         21   -1    0    0  501  502  0.00000000000E+00  0.00000000000E+00  0.16909427710E+04  0.16909427710E+04  0.00000000000E+00 0. -1.
         21   -1    0    0  502  503 -0.00000000000E+00 -0.00000000000E+00 -0.14246037443E+03  0.14246037443E+03  0.00000000000E+00 0. -1.
    9000007    2    1    2  501    0  0.19388559983E+03  0.15163484746E+03  0.10424533343E+04  0.11430045905E+04  0.39895587091E+03 0.  0.
    9000005    1    3    3    0    0  0.21783534059E+03  0.90288779318E+02  0.23514346081E+03  0.33301313253E+03  0.99999687468E+00 0.  0.
          4    1    3    3  501    0 -0.23949740756E+02  0.61346068139E+02  0.80730987352E+03  0.80999145800E+03  0.00000000000E+00 0.  1.
   -9000007    1    1    2    0  503 -0.19388559983E+03 -0.15163484746E+03  0.50602906224E+03  0.69039855491E+03  0.40000000000E+03 0. -1.
<mgrwt>
<rscale>  2 0.46944212E+03</rscale>
<asrwt>0</asrwt>
<pdfrwt beam="1">  1       21 0.26014503E+00 0.46966451E+03</pdfrwt>
<pdfrwt beam="2">  1       21 0.21916982E-01 0.46966451E+03</pdfrwt>
<totfact> 0.91247626E+02</totfact>
</mgrwt>
</event>
<event>
 6    1  0.8739326E-004  0.4180799E+03  0.7818608E-02  0.1037698E+00
         21   -1    0    0  501  502  0.00000000000E+00  0.00000000000E+00  0.19603235472E+04  0.19603235472E+04  0.00000000000E+00 0. -1.
         21   -1    0    0  502  503 -0.00000000000E+00 -0.00000000000E+00 -0.13339172501E+03  0.13339172501E+03  0.00000000000E+00 0. -1.
    9000007    2    1    2  501    0  0.12116496025E+03 -0.10481251388E+02  0.15163049367E+04  0.15728699341E+04  0.39993545023E+03 0.  0.
    9000005    1    3    3    0    0  0.47209828728E+02 -0.32959335130E+02  0.14901599935E+04  0.14912722394E+04  0.99999687468E+00 0.  0.
          4    1    3    3  501    0  0.73955131518E+02  0.22478083742E+02  0.26144943151E+02  0.81597694691E+02  0.00000000000E+00 0.  1.
   -9000007    1    1    2    0  503 -0.12116496025E+03  0.10481251388E+02  0.31062688549E+03  0.52084533809E+03  0.40000000000E+03 0. -1.
<mgrwt>
<rscale>  2 0.41806446E+03</rscale>
<asrwt>0</asrwt>
<pdfrwt beam="1">  1       21 0.30158822E+00 0.41807990E+03</pdfrwt>
<pdfrwt beam="2">  1       21 0.20521805E-01 0.41807990E+03</pdfrwt>
<totfact> 0.59860752E+02</totfact>
</mgrwt>
</event>
<event>
 6    1  0.8739326E-004  0.5227040E+03  0.7818608E-02  0.1008026E+00
         21   -1    0    0  501  502  0.00000000000E+00  0.00000000000E+00  0.20833704377E+03  0.20833704377E+03  0.00000000000E+00 0. -1.
         21   -1    0    0  502  503 -0.00000000000E+00 -0.00000000000E+00 -0.15683830802E+04  0.15683830802E+04  0.00000000000E+00 0.  1.
    9000007    2    1    2  501    0 -0.31216660572E+03 -0.12499990888E+03 -0.32027811690E+03  0.61302330202E+03  0.40018312021E+03 0.  0.
    9000005    1    3    3    0    0 -0.27309885934E+03 -0.22252914991E+03 -0.95646581762E+02  0.36503626961E+03  0.99999687468E+00 0.  0.
          4    1    3    3  501    0 -0.39067746385E+02  0.97529241031E+02 -0.22463153514E+03  0.24798703241E+03  0.00000000000E+00 0.  1.
   -9000007    1    1    2    0  503  0.31216660572E+03  0.12499990888E+03 -0.10397679195E+04  0.11636968219E+04  0.40000000000E+03 0.  1.
<mgrwt>
<rscale>  2 0.52266897E+03</rscale>
<asrwt>0</asrwt>
<pdfrwt beam="1">  1       21 0.32051852E-01 0.52270402E+03</pdfrwt>
<pdfrwt beam="2">  1       21 0.24128971E+00 0.52270402E+03</pdfrwt>
<totfact> 0.55175296E+02</totfact>
</mgrwt>
</event>
<event>
 6    1  0.8739326E-004  0.4832765E+03  0.7818608E-02  0.1018265E+00
         21   -1    0    0  501  502  0.00000000000E+00  0.00000000000E+00  0.18677826821E+04  0.18677826821E+04  0.00000000000E+00 0.  1.
         21   -1    0    0  502  503 -0.00000000000E+00 -0.00000000000E+00 -0.12554964542E+03  0.12554964542E+03  0.00000000000E+00 0. -1.
    9000007    2    1    2  501    0 -0.11353471392E+03 -0.24630478701E+03  0.80146360076E+03  0.93569188250E+03  0.39952373680E+03 0.  0.
    9000005    1    3    3    0    0 -0.17046652091E+03  0.89863268792E+01  0.12844207276E+03  0.21363041654E+03  0.99999687468E+00 0.  0.
          4    1    3    3  501    0  0.56931806993E+02 -0.25529111389E+03  0.67302152800E+03  0.72206146596E+03  0.00000000000E+00 0.  1.
   -9000007    1    1    2    0  503  0.11353471392E+03  0.24630478701E+03  0.94076943589E+03  0.10576404450E+04  0.40000000000E+03 0.  1.
<mgrwt>
<rscale>  2 0.48317794E+03</rscale>
<asrwt>0</asrwt>
<pdfrwt beam="1">  1       21 0.28735116E+00 0.48327650E+03</pdfrwt>
<pdfrwt beam="2">  1       21 0.19315331E-01 0.48327650E+03</pdfrwt>
<totfact> 0.78924103E+02</totfact>
</mgrwt>
</event>
<event>
 6    1  0.8739326E-004  0.5718011E+03  0.7818608E-02  0.9965890E-01
         21   -1    0    0  501  502  0.00000000000E+00  0.00000000000E+00  0.18921054344E+03  0.18921054344E+03  0.00000000000E+00 0.  1.
         21   -1    0    0  502  503 -0.00000000000E+00 -0.00000000000E+00 -0.21277361110E+04  0.21277361110E+04  0.00000000000E+00 0. -1.
    9000007    2    1    2  501    0  0.39380173055E+03  0.10716967120E+03 -0.46672396136E+03  0.73809735530E+03  0.40048883677E+03 0.  0.
    9000005    1    3    3    0    0  0.32339057981E+03  0.23994189419E+03 -0.24869554869E+03  0.47329066717E+03  0.99999687468E+00 0.  0.
          4    1    3    3  501    0  0.70411150740E+02 -0.13277222299E+03 -0.21802841266E+03  0.26480668812E+03  0.00000000000E+00 0.  1.
   -9000007    1    1    2    0  503 -0.39380173055E+03 -0.10716967120E+03 -0.14718016062E+04  0.15788492992E+04  0.40000000000E+03 0. -1.
<mgrwt>
<rscale>  2 0.57171547E+03</rscale>
<asrwt>0</asrwt>
<pdfrwt beam="1">  1       21 0.29109313E-01 0.57180106E+03</pdfrwt>
<pdfrwt beam="2">  1       21 0.32734403E+00 0.57180106E+03</pdfrwt>
<totfact> 0.19486095E+02</totfact>
</mgrwt>
</event>
<event>
 6    1  0.8739326E-004  0.4052810E+03  0.7818608E-02  0.1042283E+00
         21   -1    0    0  501  502  0.00000000000E+00  0.00000000000E+00  0.15276574949E+04  0.15276574949E+04  0.00000000000E+00 0.  1.
         21   -1    0    0  502  503 -0.00000000000E+00 -0.00000000000E+00 -0.13316408120E+03  0.13316408120E+03  0.00000000000E+00 0. -1.
    9000007    2    1    2  501    0  0.42771082683E+01  0.65072344589E+02  0.10660005723E+04  0.11391317731E+04  0.39624647979E+03 0.  0.
    9000005    1    3    3    0    0 -0.12419931430E+03  0.13673972592E+03  0.25490541681E+03  0.31480310328E+03  0.99999687468E+00 0.  0.
          4    1    3    3  501    0  0.12847642257E+03 -0.71667381330E+02  0.81109515547E+03  0.82432866985E+03  0.00000000000E+00 0.  1.
   -9000007    1    1    2    0  503 -0.42771082683E+01 -0.65072344589E+02  0.32849284145E+03  0.52168980301E+03  0.40000000000E+03 0. -1.
<mgrwt>
<rscale>  2 0.40435179E+03</rscale>
<asrwt>0</asrwt>
<pdfrwt beam="1">  1       21 0.23502422E+00 0.40528102E+03</pdfrwt>
<pdfrwt beam="2">  1       21 0.20486783E-01 0.40528102E+03</pdfrwt>
<totfact> 0.15306647E+03</totfact>
</mgrwt>
</event>
<event>
 6    1  0.8739326E-004  0.4564492E+03  0.7818608E-02  0.1026041E+00
         21   -1    0    0  501  502  0.00000000000E+00  0.00000000000E+00  0.12902720227E+03  0.12902720227E+03  0.00000000000E+00 0. -1.
         21   -1    0    0  502  503 -0.00000000000E+00 -0.00000000000E+00 -0.17479486510E+04  0.17479486510E+04  0.00000000000E+00 0. -1.
    9000007    2    1    2  501    0  0.45836549427E+02  0.20847753113E+03 -0.54258699683E+03  0.70904617961E+03  0.40346247092E+03 0.  0.
    9000005    1    3    3    0    0  0.13852598650E+03 -0.37640613848E+02 -0.52496613645E+02  0.15285012000E+03  0.99999687468E+00 0.  0.
          4    1    3    3  501    0 -0.92689437076E+02  0.24611814498E+03 -0.49009038319E+03  0.55619605961E+03  0.00000000000E+00 0.  1.
   -9000007    1    1    2    0  503 -0.45836549427E+02 -0.20847753113E+03 -0.10763344519E+04  0.11679296736E+04  0.40000000000E+03 0. -1.
<mgrwt>
<rscale>  2 0.45568282E+03</rscale>
<asrwt>0</asrwt>
<pdfrwt beam="1">  1       21 0.19850342E-01 0.45644916E+03</pdfrwt>
<pdfrwt beam="2">  1       21 0.26891514E+00 0.45644916E+03</pdfrwt>
<totfact> 0.98181189E+02</totfact>
</mgrwt>
</event>
<event>
 6    1  0.8739326E-004  0.4400248E+03  0.7818608E-02  0.1030762E+00
         21   -1    0    0  501  502  0.00000000000E+00  0.00000000000E+00  0.58876241478E+03  0.58876241478E+03  0.00000000000E+00 0.  1.
         21   -1    0    0  502  503 -0.00000000000E+00 -0.00000000000E+00 -0.32866137093E+03  0.32866137093E+03  0.00000000000E+00 0.  1.
    9000007    2    1    2  501    0 -0.18153108553E+03 -0.25850499694E+02  0.13364223729E+03  0.45958799299E+03  0.39967373239E+03 0.  0.
    9000005    1    3    3    0    0 -0.15337734667E+03  0.15385537759E+01 -0.12506736059E+03  0.19791367385E+03  0.99999687468E+00 0.  0.
          4    1    3    3  501    0 -0.28153738857E+02 -0.27389053470E+02  0.25870959787E+03  0.26167431913E+03  0.00000000000E+00 0.  1.
   -9000007    1    1    2    0  503  0.18153108553E+03  0.25850499694E+02  0.12645880656E+03  0.45783579273E+03  0.40000000000E+03 0.  1.
<mgrwt>
<rscale>  2 0.43995059E+03</rscale>
<asrwt>0</asrwt>
<pdfrwt beam="1">  1       21 0.90578833E-01 0.44002475E+03</pdfrwt>
<pdfrwt beam="2">  1       21 0.50563288E-01 0.44002475E+03</pdfrwt>
<totfact> 0.33723306E+03</totfact>
</mgrwt>
</event>
<event>
 6    1  0.8739326E-004  0.4981991E+03  0.7818608E-02  0.1014268E+00
         21   -1    0    0  501  502  0.00000000000E+00  0.00000000000E+00  0.62498445685E+03  0.62498445685E+03  0.00000000000E+00 0.  1.
         21   -1    0    0  502  503 -0.00000000000E+00 -0.00000000000E+00 -0.51939347677E+03  0.51939347677E+03  0.00000000000E+00 0. -1.
    9000007    2    1    2  501    0  0.28251741496E+03  0.90088833844E+02  0.33066066626E+03  0.59794545711E+03  0.40033761468E+03 0.  0.
    9000005    1    3    3    0    0  0.22824061975E+03  0.69412226868E+01 -0.24038399447E+02  0.22961011676E+03  0.99999687468E+00 0.  0.
          4    1    3    3  501    0  0.54276795216E+02  0.83147611158E+02  0.35469906571E+03  0.36833534035E+03  0.00000000000E+00 0.  1.
   -9000007    1    1    2    0  503 -0.28251741496E+03 -0.90088833844E+02 -0.22506968618E+03  0.54643247650E+03  0.40000000000E+03 0. -1.
<mgrwt>
<rscale>  2 0.49813122E+03</rscale>
<asrwt>0</asrwt>
<pdfrwt beam="1">  1       21 0.96151455E-01 0.49819905E+03</pdfrwt>
<pdfrwt beam="2">  1       21 0.79906688E-01 0.49819905E+03</pdfrwt>
<totfact> 0.10375263E+03</totfact>
</mgrwt>
</event>
<event>
 6    1  0.8739326E-004  0.4442688E+03  0.7818608E-02  0.1029459E+00
         21   -1    0    0  501  502  0.00000000000E+00  0.00000000000E+00  0.25036267689E+03  0.25036267689E+03  0.00000000000E+00 0.  1.
         21   -1    0    0  502  503 -0.00000000000E+00 -0.00000000000E+00 -0.88195786398E+03  0.88195786398E+03  0.00000000000E+00 0. -1.
    9000007    2    1    2  501    0 -0.16589355977E+03  0.98452617532E+02 -0.50061387053E+03  0.66931978886E+03  0.40020137596E+03 0.  0.
    9000005    1    3    3    0    0  0.11054971095E+03 -0.22018486992E+02 -0.41688793278E+02  0.12018738636E+03  0.99999687468E+00 0.  0.
          4    1    3    3  501    0 -0.27644327072E+03  0.12047110452E+03 -0.45892507725E+03  0.54913240250E+03  0.00000000000E+00 0.  1.
   -9000007    1    1    2    0  503  0.16589355977E+03 -0.98452617532E+02 -0.13098131656E+03  0.46300075201E+03  0.40000000000E+03 0.  1.
<mgrwt>
<rscale>  2 0.44422341E+03</rscale>
<asrwt>0</asrwt>
<pdfrwt beam="1">  1       21 0.38517336E-01 0.44426876E+03</pdfrwt>
<pdfrwt beam="2">  1       21 0.13568582E+00 0.44426876E+03</pdfrwt>
<totfact> 0.21721644E+03</totfact>
</mgrwt>
</event>
<event>
 6    1  0.8739326E-004  0.4094332E+03  0.7818608E-02  0.1040573E+00
         21   -1    0    0  501  502  0.00000000000E+00  0.00000000000E+00  0.23486042409E+03  0.23486042409E+03  0.00000000000E+00 0.  1.
         21   -1    0    0  502  503 -0.00000000000E+00 -0.00000000000E+00 -0.73342408584E+03  0.73342408584E+03  0.00000000000E+00 0.  1.
    9000007    2    1    2  501    0  0.61299687386E+02  0.62272667459E+02 -0.32898544360E+03  0.52512279131E+03  0.39985870888E+03 0.  0.
    9000005    1    3    3    0    0 -0.11402540170E+03  0.11330360289E+03 -0.14414249816E+02  0.16139476216E+03  0.99999687468E+00 0.  0.
          4    1    3    3  501    0  0.17532508908E+03 -0.51030935430E+02 -0.31457119378E+03  0.36372802915E+03  0.00000000000E+00 0.  1.
   -9000007    1    1    2    0  503 -0.61299687386E+02 -0.62272667459E+02 -0.16957821814E+03  0.44316171863E+03  0.40000000000E+03 0.  1.
<mgrwt>
<rscale>  2 0.40939868E+03</rscale>
<asrwt>0</asrwt>
<pdfrwt beam="1">  1       21 0.36132373E-01 0.40943319E+03</pdfrwt>
<pdfrwt beam="2">  1       21 0.11283447E+00 0.40943319E+03</pdfrwt>
<totfact> 0.40178889E+03</totfact>
</mgrwt>
</event>
<event>
 6    1  0.8739326E-004  0.5001879E+03  0.7818608E-02  0.1013803E+00
         21   -1    0    0  501  502  0.00000000000E+00  0.00000000000E+00  0.57690699443E+03  0.57690699443E+03  0.00000000000E+00 0. -1.
         21   -1    0    0  502  503 -0.00000000000E+00 -0.00000000000E+00 -0.55430299235E+03  0.55430299235E+03  0.00000000000E+00 0. -1.
    9000007    2    1    2  501    0 -0.29692291025E+03 -0.44996625458E+02  0.27620344957E+03  0.57040646441E+03  0.39860667098E+03 0.  0.
    9000005    1    3    3    0    0 -0.25163891264E+03  0.13758308669E+03  0.25002956018E+03  0.38048262648E+03  0.99999687468E+00 0.  0.
          4    1    3    3  501    0 -0.45283997609E+02 -0.18257971215E+03  0.26173889398E+02  0.18992383793E+03  0.00000000000E+00 0.  1.
   -9000007    1    1    2    0  503  0.29692291025E+03  0.44996625458E+02 -0.25359944750E+03  0.56080352237E+03  0.40000000000E+03 0. -1.
<mgrwt>
<rscale>  2 0.49990926E+03</rscale>
<asrwt>0</asrwt>
<pdfrwt beam="1">  1       21 0.88754922E-01 0.50018788E+03</pdfrwt>
<pdfrwt beam="2">  1       21 0.85277383E-01 0.50018788E+03</pdfrwt>
<totfact> 0.10785984E+03</totfact>
</mgrwt>
</event>
<event>
 6    1  0.8739326E-004  0.4928535E+03  0.7818608E-02  0.1016458E+00
         21   -1    0    0  501  502  0.00000000000E+00  0.00000000000E+00  0.52014378577E+03  0.52014378577E+03  0.00000000000E+00 0. -1.
         21   -1    0    0  502  503 -0.00000000000E+00 -0.00000000000E+00 -0.47738290977E+03  0.47738290977E+03  0.00000000000E+00 0.  1.
    9000007    2    1    2  501    0 -0.18136669676E+03 -0.19617689512E+03 -0.84295486750E+02  0.50001029160E+03  0.41415614174E+03 0.  0.
    9000005    1    3    3    0    0  0.90940528543E+02  0.45464704970E+02  0.48282617213E+02  0.11255856364E+03  0.99999687468E+00 0.  0.
          4    1    3    3  501    0 -0.27230722530E+03 -0.24164160009E+03 -0.13257810396E+03  0.38745172796E+03  0.00000000000E+00 0.  1.
   -9000007    1    1    2    0  503  0.18136669676E+03  0.19617689512E+03  0.12705636275E+03  0.49751640394E+03  0.40000000000E+03 0. -1.
<mgrwt>
<rscale>  2 0.48986784E+03</rscale>
<asrwt>0</asrwt>
<pdfrwt beam="1">  1       21 0.80022121E-01 0.49285349E+03</pdfrwt>
<pdfrwt beam="2">  1       21 0.73443525E-01 0.49285349E+03</pdfrwt>
<totfact> 0.19464631E+03</totfact>
</mgrwt>
</event>
<event>
 6    1  0.8739326E-004  0.4842295E+03  0.7818608E-02  0.1017986E+00
         21   -1    0    0  501  502  0.00000000000E+00  0.00000000000E+00  0.50413540365E+03  0.50413540365E+03  0.00000000000E+00 0.  1.
         21   -1    0    0  502  503 -0.00000000000E+00 -0.00000000000E+00 -0.48744920349E+03  0.48744920349E+03  0.00000000000E+00 0. -1.
    9000007    2    1    2  501    0 -0.64220463029E+02  0.26524315198E+03 -0.98032955224E+02  0.49395152729E+03  0.39987429707E+03 0.  0.
    9000005    1    3    3    0    0 -0.24760179756E+01  0.35273380402E+03 -0.60662625718E+01  0.35279606956E+03  0.99999687468E+00 0.  0.
          4    1    3    3  501    0 -0.61744445054E+02 -0.87490652040E+02 -0.91966692653E+02  0.14115545773E+03  0.00000000000E+00 0.  1.
   -9000007    1    1    2    0  503  0.64220463029E+02 -0.26524315198E+03  0.11471915538E+03  0.49763307984E+03  0.40000000000E+03 0. -1.
<mgrwt>
<rscale>  2 0.48420353E+03</rscale>
<asrwt>0</asrwt>
<pdfrwt beam="1">  1       21 0.77559293E-01 0.48422949E+03</pdfrwt>
<pdfrwt beam="2">  1       21 0.74992185E-01 0.48422949E+03</pdfrwt>
<totfact> 0.20008117E+03</totfact>
</mgrwt>
</event>
<event>
 6    1  0.8739326E-004  0.8150398E+03  0.7818608E-02  0.9538671E-01
         21   -1    0    0  501  502  0.00000000000E+00  0.00000000000E+00  0.88962925254E+03  0.88962925254E+03  0.00000000000E+00 0. -1.
         21   -1    0    0  502  503 -0.00000000000E+00 -0.00000000000E+00 -0.84348688143E+03  0.84348688143E+03  0.00000000000E+00 0.  1.
    9000007    2    1    2  501    0 -0.67488324832E+03 -0.21916192574E+03  0.31728371551E+03  0.87461920492E+03  0.40098684383E+03 0.  0.
    9000005    1    3    3    0    0 -0.30219868023E+03 -0.24813963725E+03  0.31286734027E+03  0.50078368035E+03  0.99999687468E+00 0.  0.
          4    1    3    3  501    0 -0.37268456809E+03  0.28977711509E+02  0.44163752392E+01  0.37383552457E+03  0.00000000000E+00 0.  1.
   -9000007    1    1    2    0  503  0.67488324832E+03  0.21916192574E+03 -0.27114134440E+03  0.85849692906E+03  0.40000000000E+03 0.  1.
<mgrwt>
<rscale>  2 0.81491846E+03</rscale>
<asrwt>0</asrwt>
<pdfrwt beam="1">  1       21 0.13686604E+00 0.81503975E+03</pdfrwt>
<pdfrwt beam="2">  1       21 0.12976721E+00 0.81503975E+03</pdfrwt>
<totfact> 0.11577611E+02</totfact>
</mgrwt>
</event>
<event>
 6    1  0.8739326E-004  0.5254499E+03  0.7818608E-02  0.1007375E+00
         21   -1    0    0  501  502  0.00000000000E+00  0.00000000000E+00  0.97109679090E+03  0.97109679090E+03  0.00000000000E+00 0. -1.
         21   -1    0    0  502  503 -0.00000000000E+00 -0.00000000000E+00 -0.31389882765E+03  0.31389882765E+03  0.00000000000E+00 0.  1.
    9000007    2    1    2  501    0 -0.17921706835E+03  0.28979095857E+03  0.52666046918E+03  0.74357379168E+03  0.39929084214E+03 0.  0.
    9000005    1    3    3    0    0  0.85441974493E+02 -0.18047918433E+02  0.21408804819E+03  0.23121580988E+03  0.99999687468E+00 0.  0.
          4    1    3    3  501    0 -0.26465904284E+03  0.30783887700E+03  0.31257242099E+03  0.51235798180E+03  0.00000000000E+00 0.  1.
   -9000007    1    1    2    0  503  0.17921706835E+03 -0.28979095857E+03  0.13053749407E+03  0.54142182687E+03  0.40000000000E+03 0.  1.
<mgrwt>
<rscale>  2 0.52531490E+03</rscale>
<asrwt>0</asrwt>
<pdfrwt beam="1">  1       21 0.14939950E+00 0.52544986E+03</pdfrwt>
<pdfrwt beam="2">  1       21 0.48292128E-01 0.52544986E+03</pdfrwt>
<totfact> 0.10155797E+03</totfact>
</mgrwt>
</event>
<event>
 6    1  0.8739326E-004  0.5997871E+03  0.7818608E-02  0.9905885E-01
         21   -1    0    0  501  502  0.00000000000E+00  0.00000000000E+00  0.42324799259E+03  0.42324799259E+03  0.00000000000E+00 0. -1.
         21   -1    0    0  502  503 -0.00000000000E+00 -0.00000000000E+00 -0.12299281376E+04  0.12299281376E+04  0.00000000000E+00 0.  1.
    9000007    2    1    2  501    0 -0.26528748075E+03  0.35955634350E+03  0.56137607533E+02  0.60240846525E+03  0.40010788099E+03 0.  0.
    9000005    1    3    3    0    0 -0.29373252834E+03  0.40248115138E+03  0.12758029257E+03  0.51434191592E+03  0.99999687468E+00 0.  0.
          4    1    3    3  501    0  0.28445047598E+02 -0.42924807885E+02 -0.71442685039E+02  0.88066549327E+02  0.00000000000E+00 0.  1.
   -9000007    1    1    2    0  503  0.26528748075E+03 -0.35955634350E+03 -0.86281775257E+03  0.10507676650E+04  0.40000000000E+03 0.  1.
<mgrwt>
<rscale>  2 0.59976908E+03</rscale>
<asrwt>0</asrwt>
<pdfrwt beam="1">  1       21 0.65115076E-01 0.59978707E+03</pdfrwt>
<pdfrwt beam="2">  1       21 0.18921971E+00 0.59978707E+03</pdfrwt>
<totfact> 0.26181781E+02</totfact>
</mgrwt>
</event>
<event>
 6    1  0.8739326E-004  0.5357460E+03  0.7818608E-02  0.1004890E+00
         21   -1    0    0  501  502  0.00000000000E+00  0.00000000000E+00  0.29132482998E+03  0.29132482998E+03  0.00000000000E+00 0.  1.
         21   -1    0    0  502  503 -0.00000000000E+00 -0.00000000000E+00 -0.12010323743E+04  0.12010323743E+04  0.00000000000E+00 0. -1.
    9000007    2    1    2  501    0  0.23226288716E+03 -0.27032897450E+03 -0.77184172134E+03  0.93915670864E+03  0.39906375102E+03 0.  0.
    9000005    1    3    3    0    0  0.28797515182E+03 -0.33680597672E+03 -0.68910020362E+03  0.81928508142E+03  0.99999687468E+00 0.  0.
          4    1    3    3  501    0 -0.55712264657E+02  0.66477002221E+02 -0.82741517720E+02  0.11987162722E+03  0.00000000000E+00 0.  1.
   -9000007    1    1    2    0  503 -0.23226288716E+03  0.27032897450E+03 -0.13786582296E+03  0.55320049561E+03  0.40000000000E+03 0.  1.
<mgrwt>
<rscale>  2 0.53557127E+03</rscale>
<asrwt>0</asrwt>
<pdfrwt beam="1">  1       21 0.44819205E-01 0.53574602E+03</pdfrwt>
<pdfrwt beam="2">  1       21 0.18477421E+00 0.53574602E+03</pdfrwt>
<totfact> 0.64711176E+02</totfact>
</mgrwt>
</event>
<event>
 6    1  0.8739326E-004  0.6041997E+03  0.7818608E-02  0.9896818E-01
         21   -1    0    0  501  502  0.00000000000E+00  0.00000000000E+00  0.16515788228E+04  0.16515788228E+04  0.00000000000E+00 0. -1.
         21   -1    0    0  502  503 -0.00000000000E+00 -0.00000000000E+00 -0.12686053301E+04  0.12686053301E+04  0.00000000000E+00 0.  1.
    9000007    2    1    2  501    0  0.29836430455E+03  0.34033937007E+03  0.15183400524E+04  0.16341400752E+04  0.40025632507E+03 0.  0.
    9000005    1    3    3    0    0  0.30543555769E+03  0.42088700842E+03  0.13665941519E+04  0.14621960640E+04  0.99999687468E+00 0.  0.
          4    1    3    3  501    0 -0.70712531441E+01 -0.80547638345E+02  0.15174590049E+03  0.17194401117E+03  0.00000000000E+00 0.  1.
   -9000007    1    1    2    0  503 -0.29836430455E+03 -0.34033937007E+03 -0.11353665596E+04  0.12860440777E+04  0.40000000000E+03 0.  1.
<mgrwt>
<rscale>  2 0.60415725E+03</rscale>
<asrwt>0</asrwt>
<pdfrwt beam="1">  1       21 0.25408905E+00 0.60419969E+03</pdfrwt>
<pdfrwt beam="2">  1       21 0.19517005E+00 0.60419969E+03</pdfrwt>
<totfact> 0.59608502E+00</totfact>
</mgrwt>
</event>
<event>
 6    1  0.8739326E-004  0.4029608E+03  0.7818608E-02  0.1042831E+00
         21   -1    0    0  501  502  0.00000000000E+00  0.00000000000E+00  0.77684297894E+03  0.77684297894E+03  0.00000000000E+00 0. -1.
         21   -1    0    0  502  503 -0.00000000000E+00 -0.00000000000E+00 -0.28244648051E+03  0.28244648051E+03  0.00000000000E+00 0. -1.
    9000007    2    1    2  501    0  0.40086699384E+02 -0.96894856744E+01  0.51823397740E+03  0.65646312590E+03  0.40084479632E+03 0.  0.
    9000005    1    3    3    0    0  0.18408492748E+03 -0.38333766431E+02  0.46277513890E+03  0.49951833535E+03  0.99999687468E+00 0.  0.
          4    1    3    3  501    0 -0.14399822809E+03  0.28644280756E+02  0.55458838501E+02  0.15694479055E+03  0.00000000000E+00 0.  1.
   -9000007    1    1    2    0  503 -0.40086699384E+02  0.96894856744E+01 -0.23837478969E+02  0.40282633355E+03  0.40000000000E+03 0. -1.
<mgrwt>
<rscale>  2 0.40275052E+03</rscale>
<asrwt>0</asrwt>
<pdfrwt beam="1">  1       21 0.11951430E+00 0.40296077E+03</pdfrwt>
<pdfrwt beam="2">  1       21 0.43453305E-01 0.40296077E+03</pdfrwt>
<totfact> 0.23885363E+03</totfact>
</mgrwt>
</event>
<event>
 6    1  0.8739326E-004  0.4297615E+03  0.7818608E-02  0.1033960E+00
         21   -1    0    0  501  502  0.00000000000E+00  0.00000000000E+00  0.19648482099E+03  0.19648482099E+03  0.00000000000E+00 0.  1.
         21   -1    0    0  502  503 -0.00000000000E+00 -0.00000000000E+00 -0.94009782475E+03  0.94009782475E+03  0.00000000000E+00 0. -1.
    9000007    2    1    2  501    0  0.12094890433E+03  0.10033084575E+03 -0.35527203890E+03  0.55735590166E+03  0.39966543937E+03 0.  0.
    9000005    1    3    3    0    0  0.12553799402E+02 -0.11729227812E+03 -0.27841069247E+03  0.30237160922E+03  0.99999687468E+00 0.  0.
          4    1    3    3  501    0  0.10839510493E+03  0.21762312388E+03 -0.76861346423E+02  0.25498429244E+03  0.00000000000E+00 0.  1.
   -9000007    1    1    2    0  503 -0.12094890433E+03 -0.10033084575E+03 -0.38834096486E+03  0.57922674408E+03  0.40000000000E+03 0.  1.
<mgrwt>
<rscale>  2 0.42968360E+03</rscale>
<asrwt>0</asrwt>
<pdfrwt beam="1">  1       21 0.30228434E-01 0.42976146E+03</pdfrwt>
<pdfrwt beam="2">  1       21 0.14463043E+00 0.42976146E+03</pdfrwt>
<totfact> 0.30052829E+03</totfact>
</mgrwt>
</event>
<event>
 6    1  0.8739326E-004  0.6178739E+03  0.7818608E-02  0.9869397E-01
         21   -1    0    0  501  502  0.00000000000E+00  0.00000000000E+00  0.80526051619E+03  0.80526051619E+03  0.00000000000E+00 0. -1.
         21   -1    0    0  502  503 -0.00000000000E+00 -0.00000000000E+00 -0.57029907414E+03  0.57029907414E+03  0.00000000000E+00 0. -1.
    9000007    2    1    2  501    0  0.46808390762E+03  0.41125251449E+02  0.40091797686E+03  0.73654832100E+03  0.40121611897E+03 0.  0.
    9000005    1    3    3    0    0  0.46935736286E+03  0.43116516914E+02  0.47105577827E+03  0.66637070339E+03  0.99999687468E+00 0.  0.
          4    1    3    3  501    0 -0.12734552364E+01 -0.19912654647E+01 -0.70137801415E+02  0.70177617612E+02  0.00000000000E+00 0.  1.
   -9000007    1    1    2    0  503 -0.46808390762E+03 -0.41125251449E+02 -0.16595653481E+03  0.63901126933E+03  0.40000000000E+03 0. -1.
<mgrwt>
<rscale>  2 0.61767660E+03</rscale>
<asrwt>0</asrwt>
<pdfrwt beam="1">  1       21 0.12388623E+00 0.61787394E+03</pdfrwt>
<pdfrwt beam="2">  1       21 0.87738320E-01 0.61787394E+03</pdfrwt>
<totfact> 0.42482460E+02</totfact>
</mgrwt>
</event>
<event>
 6    1  0.8739326E-004  0.4717449E+03  0.7818608E-02  0.1021436E+00
         21   -1    0    0  501  502  0.00000000000E+00  0.00000000000E+00  0.15010066757E+04  0.15010066757E+04  0.00000000000E+00 0. -1.
         21   -1    0    0  502  503 -0.00000000000E+00 -0.00000000000E+00 -0.16101893520E+03  0.16101893520E+03  0.00000000000E+00 0.  1.
    9000007    2    1    2  501    0  0.21535730467E+03  0.12713944264E+03  0.90411027987E+03  0.10197387846E+04  0.39988571377E+03 0.  0.
    9000005    1    3    3    0    0  0.13965063790E+03  0.28795088815E+02  0.88227485271E+03  0.89372332045E+03  0.99999687468E+00 0.  0.
          4    1    3    3  501    0  0.75706666775E+02  0.98344353820E+02  0.21835427164E+02  0.12601546414E+03  0.00000000000E+00 0.  1.
   -9000007    1    1    2    0  503 -0.21535730467E+03 -0.12713944264E+03  0.43587746059E+03  0.64228682627E+03  0.40000000000E+03 0.  1.
<mgrwt>
<rscale>  2 0.47172063E+03</rscale>
<asrwt>0</asrwt>
<pdfrwt beam="1">  1       21 0.23092409E+00 0.47174485E+03</pdfrwt>
<pdfrwt beam="2">  1       21 0.24772145E-01 0.47174485E+03</pdfrwt>
<totfact> 0.10908987E+03</totfact>
</mgrwt>
</event>
<event>
 6    1  0.8739326E-004  0.5650310E+03  0.7818608E-02  0.9981015E-01
         21   -1    0    0  501  502  0.00000000000E+00  0.00000000000E+00  0.72535819466E+03  0.72535819466E+03  0.00000000000E+00 0. -1.
         21   -1    0    0  502  503 -0.00000000000E+00 -0.00000000000E+00 -0.66700602059E+03  0.66700602059E+03  0.00000000000E+00 0. -1.
    9000007    2    1    2  501    0  0.31920840139E+03  0.23832755650E+03  0.43554816632E+03  0.71341587828E+03  0.40070685357E+03 0.  0.
    9000005    1    3    3    0    0 -0.90439343345E+02  0.13407528263E+02  0.11404856287E+03  0.14617493398E+03  0.99999687468E+00 0.  0.
          4    1    3    3  501    0  0.40964774474E+03  0.22492002824E+03  0.32149960345E+03  0.56724094430E+03  0.00000000000E+00 0.  1.
   -9000007    1    1    2    0  503 -0.31920840139E+03 -0.23832755650E+03 -0.37719599225E+03  0.67894833697E+03  0.40000000000E+03 0. -1.
<mgrwt>
<rscale>  2 0.56490567E+03</rscale>
<asrwt>0</asrwt>
<pdfrwt beam="1">  1       21 0.11159357E+00 0.56503098E+03</pdfrwt>
<pdfrwt beam="2">  1       21 0.10261631E+00 0.56503098E+03</pdfrwt>
<totfact> 0.38659145E+02</totfact>
</mgrwt>
</event>
<event>
 6    1  0.8739326E-004  0.4909667E+03  0.7818608E-02  0.1016179E+00
         21   -1    0    0  501  502  0.00000000000E+00  0.00000000000E+00  0.15358832027E+03  0.15358832027E+03  0.00000000000E+00 0. -1.
         21   -1    0    0  502  503 -0.00000000000E+00 -0.00000000000E+00 -0.19490325281E+04  0.19490325281E+04  0.00000000000E+00 0.  1.
    9000007    2    1    2  501    0 -0.11079629641E+03  0.26183088751E+03 -0.43349607172E+03  0.65495584624E+03  0.40027126224E+03 0.  0.
    9000005    1    3    3    0    0  0.30963956818E+02  0.29526494137E+03 -0.41185646068E+03  0.50770749100E+03  0.99999687468E+00 0.  0.
          4    1    3    3  501    0 -0.14176025323E+03 -0.33434053858E+02 -0.21639611035E+02  0.14724835523E+03  0.00000000000E+00 0.  1.
   -9000007    1    1    2    0  503  0.11079629641E+03 -0.26183088751E+03 -0.13619481361E+04  0.14476650021E+04  0.40000000000E+03 0.  1.
<mgrwt>
<rscale>  2 0.49091142E+03</rscale>
<asrwt>0</asrwt>
<pdfrwt beam="1">  1       21 0.23628973E-01 0.49096672E+03</pdfrwt>
<pdfrwt beam="2">  1       21 0.29985115E+00 0.49096672E+03</pdfrwt>
<totfact> 0.44878291E+02</totfact>
</mgrwt>
</event>
<event>
 6    1  0.8739326E-004  0.4187791E+03  0.7818608E-02  0.1037597E+00
         21   -1    0    0  501  502  0.00000000000E+00  0.00000000000E+00  0.12125380776E+03  0.12125380776E+03  0.00000000000E+00 0.  1.
         21   -1    0    0  502  503 -0.00000000000E+00 -0.00000000000E+00 -0.18015504479E+04  0.18015504479E+04  0.00000000000E+00 0.  1.
    9000007    2    1    2  501    0  0.46484932085E+02 -0.11495698421E+03 -0.40859785003E+03  0.58392645321E+03  0.39829881067E+03 0.  0.
    9000005    1    3    3    0    0  0.54295526818E+02 -0.16019204765E+02 -0.46589901531E+03  0.46932665769E+03  0.99999687468E+00 0.  0.
          4    1    3    3  501    0 -0.78105947333E+01 -0.98937779449E+02  0.57301165282E+02  0.11459979553E+03  0.00000000000E+00 0.  1.
   -9000007    1    1    2    0  503 -0.46484932085E+02  0.11495698421E+03 -0.12716987901E+04  0.13388778024E+04  0.40000000000E+03 0.  1.
<mgrwt>
<rscale>  2 0.41837238E+03</rscale>
<asrwt>0</asrwt>
<pdfrwt beam="1">  1       21 0.18654431E-01 0.41877913E+03</pdfrwt>
<pdfrwt beam="2">  1       21 0.27716161E+00 0.41877913E+03</pdfrwt>
<totfact> 0.10047542E+03</totfact>
</mgrwt>
</event>
<event>
 6    1  0.8739326E-004  0.4804354E+03  0.7818608E-02  0.1019030E+00
         21   -1    0    0  501  502  0.00000000000E+00  0.00000000000E+00  0.43806417745E+03  0.43806417745E+03  0.00000000000E+00 0.  1.
         21   -1    0    0  502  503 -0.00000000000E+00 -0.00000000000E+00 -0.13020495785E+04  0.13020495785E+04  0.00000000000E+00 0.  1.
    9000007    2    1    2  501    0  0.26516325060E+03 -0.17312340750E+02  0.23938371220E+03  0.53677063501E+03  0.40025852438E+03 0.  0.
    9000005    1    3    3    0    0  0.23091585047E+03 -0.83861984278E+02 -0.38777598670E+02  0.24871603197E+03  0.99999687468E+00 0.  0.
          4    1    3    3  501    0  0.34247400128E+02  0.66549643528E+02  0.27816131087E+03  0.28805460305E+03  0.00000000000E+00 0.  1.
   -9000007    1    1    2    0  503 -0.26516325060E+03  0.17312340750E+02 -0.11033691133E+04  0.12033431210E+04  0.40000000000E+03 0.  1.
<mgrwt>
<rscale>  2 0.48038153E+03</rscale>
<asrwt>0</asrwt>
<pdfrwt beam="1">  1       21 0.67394490E-01 0.48043538E+03</pdfrwt>
<pdfrwt beam="2">  1       21 0.20031532E+00 0.48043538E+03</pdfrwt>
<totfact> 0.21450539E+02</totfact>
</mgrwt>
</event>
<event>
 6    1  0.8739326E-004  0.4612617E+03  0.7818608E-02  0.1024418E+00
         21   -1    0    0  501  502  0.00000000000E+00  0.00000000000E+00  0.11702731466E+04  0.11702731466E+04  0.00000000000E+00 0.  1.
         21   -1    0    0  502  503 -0.00000000000E+00 -0.00000000000E+00 -0.30122344007E+03  0.30122344007E+03  0.00000000000E+00 0.  1.
    9000007    2    1    2  501    0 -0.19761817190E+03 -0.11696665231E+03  0.89781104521E+03  0.10093695974E+04  0.40003521300E+03 0.  0.
    9000005    1    3    3    0    0 -0.58712358982E+02  0.14777334892E+03  0.25641758814E+03  0.30172020690E+03  0.99999687468E+00 0.  0.
          4    1    3    3  501    0 -0.13890581292E+03 -0.26474000122E+03  0.64139345707E+03  0.70764939050E+03  0.00000000000E+00 0.  1.
   -9000007    1    1    2    0  503  0.19761817190E+03  0.11696665231E+03 -0.28761338669E+02  0.46212698928E+03  0.40000000000E+03 0.  1.
<mgrwt>
<rscale>  2 0.46125402E+03</rscale>
<asrwt>0</asrwt>
<pdfrwt beam="1">  1       21 0.18004202E+00 0.46126165E+03</pdfrwt>
<pdfrwt beam="2">  1       21 0.46342069E-01 0.46126165E+03</pdfrwt>
<totfact> 0.67181892E+02</totfact>
</mgrwt>
</event>
<event>
 6    1  0.8739326E-004  0.4460426E+03  0.7818608E-02  0.1029000E+00
         21   -1    0    0  501  502  0.00000000000E+00  0.00000000000E+00  0.98532678447E+03  0.98532678447E+03  0.00000000000E+00 0. -1.
         21   -1    0    0  502  503 -0.00000000000E+00 -0.00000000000E+00 -0.44004883206E+03  0.44004883206E+03  0.00000000000E+00 0.  1.
    9000007    2    1    2  501    0  0.38763240315E+02 -0.19072302923E+03  0.79768253372E+03  0.91392089189E+03  0.40134288252E+03 0.  0.
    9000005    1    3    3    0    0  0.17398011186E+03 -0.21813879020E+03  0.67064542744E+03  0.72637449050E+03  0.99999687468E+00 0.  0.
          4    1    3    3  501    0 -0.13521687155E+03  0.27415760966E+02  0.12703710628E+03  0.18754640139E+03  0.00000000000E+00 0.  1.
   -9000007    1    1    2    0  503 -0.38763240315E+02  0.19072302923E+03 -0.25240458131E+03  0.51145472463E+03  0.40000000000E+03 0.  1.
<mgrwt>
<rscale>  2 0.44574028E+03</rscale>
<asrwt>0</asrwt>
<pdfrwt beam="1">  1       21 0.15158874E+00 0.44604257E+03</pdfrwt>
<pdfrwt beam="2">  1       21 0.67699820E-01 0.44604257E+03</pdfrwt>
<totfact> 0.48326199E+02</totfact>
</mgrwt>
</event>
<event>
 6    1  0.8739326E-004  0.6103516E+03  0.7818608E-02  0.9884386E-01
         21   -1    0    0  501  502  0.00000000000E+00  0.00000000000E+00  0.52798274694E+03  0.52798274694E+03  0.00000000000E+00 0. -1.
         21   -1    0    0  502  503 -0.00000000000E+00 -0.00000000000E+00 -0.11995244397E+04  0.11995244397E+04  0.00000000000E+00 0. -1.
    9000007    2    1    2  501    0 -0.40627371706E+03  0.21662497833E+03  0.21872529650E+03  0.64835936241E+03  0.40067991350E+03 0.  0.
    9000005    1    3    3    0    0 -0.75803579245E+02  0.25909344819E+03  0.14757105991E+03  0.30765860176E+03  0.99999687468E+00 0.  0.
          4    1    3    3  501    0 -0.33047013781E+03 -0.42468469858E+02  0.71154236585E+02  0.34070076064E+03  0.00000000000E+00 0.  1.
   -9000007    1    1    2    0  503  0.40627371706E+03 -0.21662497833E+03 -0.89026698930E+03  0.10791478243E+04  0.40000000000E+03 0. -1.
<mgrwt>
<rscale>  2 0.61024006E+03</rscale>
<asrwt>0</asrwt>
<pdfrwt beam="1">  1       21 0.81228115E-01 0.61035163E+03</pdfrwt>
<pdfrwt beam="2">  1       21 0.18454222E+00 0.61035163E+03</pdfrwt>
<totfact> 0.16966465E+02</totfact>
</mgrwt>
</event>
<event>
 6    1  0.8739326E-004  0.5580986E+03  0.7818608E-02  0.9996445E-01
         21   -1    0    0  501  502  0.00000000000E+00  0.00000000000E+00  0.19495504521E+04  0.19495504521E+04  0.00000000000E+00 0.  1.
         21   -1    0    0  502  503 -0.00000000000E+00 -0.00000000000E+00 -0.23946383628E+03  0.23946383628E+03  0.00000000000E+00 0. -1.
    9000007    2    1    2  501    0  0.30901038957E+03 -0.23661491520E+03  0.14865507200E+04  0.15878135435E+04  0.39980591125E+03 0.  0.
    9000005    1    3    3    0    0  0.24616307116E+03  0.25674683402E+02  0.41826769118E+03  0.48600854771E+03  0.99999687468E+00 0.  0.
          4    1    3    3  501    0  0.62847318415E+02 -0.26228959860E+03  0.10682830289E+04  0.11018049958E+04  0.00000000000E+00 0.  1.
   -9000007    1    1    2    0  503 -0.30901038957E+03  0.23661491520E+03  0.22353589579E+03  0.60120074490E+03  0.40000000000E+03 0. -1.
<mgrwt>
<rscale>  2 0.55806382E+03</rscale>
<asrwt>0</asrwt>
<pdfrwt beam="1">  1       21 0.29993083E+00 0.55809859E+03</pdfrwt>
<pdfrwt beam="2">  1       21 0.36840592E-01 0.55809859E+03</pdfrwt>
<totfact> 0.17913525E+02</totfact>
</mgrwt>
</event>
<event>
 6    1  0.8739326E-004  0.5426812E+03  0.7818608E-02  0.1003210E+00
         21   -1    0    0  501  502  0.00000000000E+00  0.00000000000E+00  0.18424554114E+04  0.18424554114E+04  0.00000000000E+00 0.  1.
         21   -1    0    0  502  503 -0.00000000000E+00 -0.00000000000E+00 -0.18605477474E+03  0.18605477474E+03  0.00000000000E+00 0.  1.
    9000007    2    1    2  501    0  0.25549614191E+03  0.26282706050E+03  0.12092735136E+04  0.13254603967E+04  0.40018307092E+03 0.  0.
    9000005    1    3    3    0    0 -0.73108113221E+02 -0.50034295293E+02  0.18014414974E+03  0.20075144235E+03  0.99999687468E+00 0.  0.
          4    1    3    3  501    0  0.32860425513E+03  0.31286135579E+03  0.10291293639E+04  0.11247089544E+04  0.00000000000E+00 0.  1.
   -9000007    1    1    2    0  503 -0.25549614191E+03 -0.26282706050E+03  0.44712712307E+03  0.70304978945E+03  0.40000000000E+03 0.  1.
<mgrwt>
<rscale>  2 0.54264740E+03</rscale>
<asrwt>0</asrwt>
<pdfrwt beam="1">  1       21 0.28345467E+00 0.54268115E+03</pdfrwt>
<pdfrwt beam="2">  1       21 0.28623813E-01 0.54268115E+03</pdfrwt>
<totfact> 0.37769444E+02</totfact>
</mgrwt>
</event>
<event>
 6    1  0.8739326E-004  0.1006195E+04  0.7818608E-02  0.9301856E-01
         21   -1    0    0  501  502  0.00000000000E+00  0.00000000000E+00  0.59489168187E+03  0.59489168187E+03  0.00000000000E+00 0.  1.
         21   -1    0    0  502  503 -0.00000000000E+00 -0.00000000000E+00 -0.20381772505E+04  0.20381772505E+04  0.00000000000E+00 0. -1.
    9000007    2    1    2  501    0  0.86221679299E+03 -0.33016814894E+03 -0.12567350852E+04  0.16097264249E+04  0.39925841773E+03 0.  0.
    9000005    1    3    3    0    0  0.89742127605E+03 -0.35050088915E+03 -0.12229690911E+04  0.15568783568E+04  0.99999687468E+00 0.  0.
          4    1    3    3  501    0 -0.35204483063E+02  0.20332740208E+02 -0.33765994044E+02  0.52848068137E+02  0.00000000000E+00 0.  1.
   -9000007    1    1    2    0  503 -0.86221679299E+03  0.33016814894E+03 -0.18655048348E+03  0.10233425075E+04  0.40000000000E+03 0.  1.
<mgrwt>
<rscale>  2 0.10061216E+04</rscale>
<asrwt>0</asrwt>
<pdfrwt beam="1">  1       21 0.91521796E-01 0.10061952E+04</pdfrwt>
<pdfrwt beam="2">  1       21 0.31356574E+00 0.10061952E+04</pdfrwt>
<totfact> 0.16642533E+01</totfact>
</mgrwt>
</event>
<event>
 6    1  0.8739326E-004  0.4683011E+03  0.7818608E-02  0.1022435E+00
         21   -1    0    0  501  502  0.00000000000E+00  0.00000000000E+00  0.87010261696E+03  0.87010261696E+03  0.00000000000E+00 0. -1.
         21   -1    0    0  502  503 -0.00000000000E+00 -0.00000000000E+00 -0.67886541690E+03  0.67886541690E+03  0.00000000000E+00 0.  1.
    9000007    2    1    2  501    0  0.24159223703E+03  0.22027996019E+02  0.70992966818E+03  0.85047399803E+03  0.40056690573E+03 0.  0.
    9000005    1    3    3    0    0  0.16438650696E+03 -0.15645724120E+03  0.19209103617E+03  0.29732433161E+03  0.99999687468E+00 0.  0.
          4    1    3    3  501    0  0.77205730068E+02  0.17848523722E+03  0.51783863201E+03  0.55314966643E+03  0.00000000000E+00 0.  1.
   -9000007    1    1    2    0  503 -0.24159223703E+03 -0.22027996019E+02 -0.51869246812E+03  0.69849403583E+03  0.40000000000E+03 0.  1.
<mgrwt>
<rscale>  2 0.46817981E+03</rscale>
<asrwt>0</asrwt>
<pdfrwt beam="1">  1       21 0.13386194E+00 0.46830107E+03</pdfrwt>
<pdfrwt beam="2">  1       21 0.10444083E+00 0.46830107E+03</pdfrwt>
<totfact> 0.24182757E+02</totfact>
</mgrwt>
</event>
<event>
 6    1  0.8739326E-004  0.5174688E+03  0.7818608E-02  0.1009402E+00
         21   -1    0    0  501  502  0.00000000000E+00  0.00000000000E+00  0.29432379164E+03  0.29432379164E+03  0.00000000000E+00 0.  1.
         21   -1    0    0  502  503 -0.00000000000E+00 -0.00000000000E+00 -0.19776905548E+04  0.19776905548E+04  0.00000000000E+00 0. -1.
    9000007    2    1    2  501    0 -0.30961177427E+03  0.10915363009E+03 -0.54724451158E+01  0.51613755456E+03  0.39823869958E+03 0.  0.
    9000005    1    3    3    0    0 -0.19327845233E+03 -0.10133414831E+03 -0.12077996084E+03  0.24942728135E+03  0.99999687468E+00 0.  0.
          4    1    3    3  501    0 -0.11633332194E+03  0.21048777840E+03  0.11530751573E+03  0.26671027320E+03  0.00000000000E+00 0.  1.
   -9000007    1    1    2    0  503  0.30961177427E+03 -0.10915363009E+03 -0.16778943181E+04  0.17558767919E+04  0.40000000000E+03 0. -1.
<mgrwt>
<rscale>  2 0.51712840E+03</rscale>
<asrwt>0</asrwt>
<pdfrwt beam="1">  1       21 0.45280584E-01 0.51746881E+03</pdfrwt>
<pdfrwt beam="2">  1       21 0.30426008E+00 0.51746881E+03</pdfrwt>
<totfact> 0.11225716E+02</totfact>
</mgrwt>
</event>
<event>
 6    1  0.8739326E-004  0.4265470E+03  0.7818608E-02  0.1035114E+00
         21   -1    0    0  501  502  0.00000000000E+00  0.00000000000E+00  0.12844532919E+03  0.12844532919E+03  0.00000000000E+00 0.  1.
         21   -1    0    0  502  503 -0.00000000000E+00 -0.00000000000E+00 -0.16151691599E+04  0.16151691599E+04  0.00000000000E+00 0.  1.
    9000007    2    1    2  501    0  0.14723710886E+03  0.16233979115E+02 -0.43112219395E+03  0.60509039016E+03  0.39790165349E+03 0.  0.
    9000005    1    3    3    0    0  0.18870313653E+03  0.17197538812E+03 -0.31979359546E+03  0.40921064447E+03  0.99999687468E+00 0.  0.
          4    1    3    3  501    0 -0.41466027671E+02 -0.15574140901E+03 -0.11132859849E+03  0.19587974569E+03  0.00000000000E+00 0.  1.
   -9000007    1    1    2    0  503 -0.14723710886E+03 -0.16233979115E+02 -0.10556016368E+04  0.11385240989E+04  0.40000000000E+03 0.  1.
<mgrwt>
<rscale>  2 0.42605432E+03</rscale>
<asrwt>0</asrwt>
<pdfrwt beam="1">  1       21 0.19760819E-01 0.42654696E+03</pdfrwt>
<pdfrwt beam="2">  1       21 0.24848757E+00 0.42654696E+03</pdfrwt>
<totfact> 0.13391378E+03</totfact>
</mgrwt>
</event>
<event>
 6    1  0.8739326E-004  0.5603397E+03  0.7818608E-02  0.9992406E-01
         21   -1    0    0  501  502  0.00000000000E+00  0.00000000000E+00  0.10228755150E+04  0.10228755150E+04  0.00000000000E+00 0. -1.
         21   -1    0    0  502  503 -0.00000000000E+00 -0.00000000000E+00 -0.31245301378E+03  0.31245301378E+03  0.00000000000E+00 0.  1.
    9000007    2    1    2  501    0  0.18943261859E+03  0.34041705224E+03  0.25896171465E+03  0.61728582235E+03  0.40275567083E+03 0.  0.
    9000005    1    3    3    0    0  0.56100966625E+02 -0.77157867090E+02 -0.20305298991E+02  0.97539530811E+02  0.99999687468E+00 0.  0.
          4    1    3    3  501    0  0.13333165196E+03  0.41757491933E+03  0.27926701364E+03  0.51974629154E+03  0.00000000000E+00 0.  1.
   -9000007    1    1    2    0  503 -0.18943261859E+03 -0.34041705224E+03  0.45146078656E+03  0.71804270642E+03  0.40000000000E+03 0. -1.
<mgrwt>
<rscale>  2 0.55984473E+03</rscale>
<asrwt>0</asrwt>
<pdfrwt beam="1">  1       21 0.15736546E+00 0.56033973E+03</pdfrwt>
<pdfrwt beam="2">  1       21 0.48069695E-01 0.56033973E+03</pdfrwt>
<totfact> 0.87793618E+02</totfact>
</mgrwt>
</event>
<event>
 6    1  0.8739326E-004  0.5784983E+03  0.7818608E-02  0.9951231E-01
         21   -1    0    0  501  502  0.00000000000E+00  0.00000000000E+00  0.16964583467E+04  0.16964583467E+04  0.00000000000E+00 0. -1.
         21   -1    0    0  502  503 -0.00000000000E+00 -0.00000000000E+00 -0.51360870458E+03  0.51360870458E+03  0.00000000000E+00 0.  1.
    9000007    2    1    2  501    0 -0.12187827467E+03  0.39926811708E+03  0.14588814109E+04  0.15693932806E+04  0.40048839561E+03 0.  0.
    9000005    1    3    3    0    0 -0.22323340666E+03  0.38946157031E+03  0.95391290791E+03  0.10542600744E+04  0.99999687468E+00 0.  0.
          4    1    3    3  501    0  0.10135513199E+03  0.98065467768E+01  0.50496850297E+03  0.51513320620E+03  0.00000000000E+00 0.  1.
   -9000007    1    1    2    0  503  0.12187827467E+03 -0.39926811708E+03 -0.27603176872E+03  0.64067377072E+03  0.40000000000E+03 0.  1.
<mgrwt>
<rscale>  2 0.57841379E+03</rscale>
<asrwt>0</asrwt>
<pdfrwt beam="1">  1       21 0.26099359E+00 0.57849831E+03</pdfrwt>
<pdfrwt beam="2">  1       21 0.79016725E-01 0.57849831E+03</pdfrwt>
<totfact> 0.58494804E+01</totfact>
</mgrwt>
</event>
<event>
 6    1  0.8739326E-004  0.4097836E+03  0.7818608E-02  0.1040460E+00
         21   -1    0    0  501  502  0.00000000000E+00  0.00000000000E+00  0.27195573841E+03  0.27195573841E+03  0.00000000000E+00 0. -1.
         21   -1    0    0  502  503 -0.00000000000E+00 -0.00000000000E+00 -0.67858484781E+03  0.67858484781E+03  0.00000000000E+00 0. -1.
    9000007    2    1    2  501    0  0.42560464108E+02  0.78174279793E+02 -0.60299827366E+02  0.41400859023E+03  0.39980549330E+03 0.  0.
    9000005    1    3    3    0    0  0.11896346060E+03  0.21614781969E+03 -0.46676140792E+01  0.24676906518E+03  0.99999687468E+00 0.  0.
          4    1    3    3  501    0 -0.76402996495E+02 -0.13797353989E+03 -0.55632213287E+02  0.16723952505E+03  0.00000000000E+00 0.  1.
   -9000007    1    1    2    0  503 -0.42560464108E+02 -0.78174279793E+02 -0.34632928203E+03  0.53653199599E+03  0.40000000000E+03 0. -1.
<mgrwt>
<rscale>  2 0.40973614E+03</rscale>
<asrwt>0</asrwt>
<pdfrwt beam="1">  1       21 0.41839344E-01 0.40978362E+03</pdfrwt>
<pdfrwt beam="2">  1       21 0.10439767E+00 0.40978362E+03</pdfrwt>
<totfact> 0.36045355E+03</totfact>
</mgrwt>
</event>
<event>
 6    1  0.8739326E-004  0.4346057E+03  0.7818608E-02  0.1032431E+00
         21   -1    0    0  501  502  0.00000000000E+00  0.00000000000E+00  0.43168884425E+03  0.43168884425E+03  0.00000000000E+00 0.  1.
         21   -1    0    0  502  503 -0.00000000000E+00 -0.00000000000E+00 -0.44726646804E+03  0.44726646804E+03  0.00000000000E+00 0. -1.
    9000007    2    1    2  501    0 -0.10511104599E+03  0.13288530829E+03  0.57683244181E+02  0.43841701439E+03  0.40021904590E+03 0.  0.
    9000005    1    3    3    0    0 -0.47271569430E+02  0.57770998101E+01 -0.16711635752E+03  0.17377241755E+03  0.99999687468E+00 0.  0.
          4    1    3    3  501    0 -0.57839476556E+02  0.12710820848E+03  0.22479960170E+03  0.26464459684E+03  0.00000000000E+00 0.  1.
   -9000007    1    1    2    0  503  0.10511104599E+03 -0.13288530829E+03 -0.73260867973E+02  0.44053829791E+03  0.40000000000E+03 0. -1.
<mgrwt>
<rscale>  2 0.43455527E+03</rscale>
<asrwt>0</asrwt>
<pdfrwt beam="1">  1       21 0.66413668E-01 0.43460571E+03</pdfrwt>
<pdfrwt beam="2">  1       21 0.68810226E-01 0.43460571E+03</pdfrwt>
<totfact> 0.35150319E+03</totfact>
</mgrwt>
</event>
<event>
 6    1  0.8739326E-004  0.5468235E+03  0.7818608E-02  0.1002316E+00
         21   -1    0    0  501  502  0.00000000000E+00  0.00000000000E+00  0.42174311003E+03  0.42174311003E+03  0.00000000000E+00 0.  1.
         21   -1    0    0  502  503 -0.00000000000E+00 -0.00000000000E+00 -0.81239082554E+03  0.81239082554E+03  0.00000000000E+00 0.  1.
    9000007    2    1    2  501    0 -0.36751124745E+03 -0.62860236433E+02  0.27017136704E+02  0.54604974370E+03  0.39802571600E+03 0.  0.
    9000005    1    3    3    0    0 -0.21910994316E+03  0.12911147591E+03 -0.98661578116E+02  0.27278938284E+03  0.99999687468E+00 0.  0.
          4    1    3    3  501    0 -0.14840130429E+03 -0.19197171234E+03  0.12567871482E+03  0.27326036085E+03  0.00000000000E+00 0.  1.
   -9000007    1    1    2    0  503  0.36751124745E+03  0.62860236433E+02 -0.41766485222E+03  0.68808419187E+03  0.40000000000E+03 0.  1.
<mgrwt>
<rscale>  2 0.54646250E+03</rscale>
<asrwt>0</asrwt>
<pdfrwt beam="1">  1       21 0.64883556E-01 0.54682349E+03</pdfrwt>
<pdfrwt beam="2">  1       21 0.12498320E+00 0.54682349E+03</pdfrwt>
<totfact> 0.85116373E+02</totfact>
</mgrwt>
</event>
<event>
 6    1  0.8739326E-004  0.4187207E+03  0.7818608E-02  0.1037723E+00
         21   -1    0    0  501  502  0.00000000000E+00  0.00000000000E+00  0.13913706757E+03  0.13913706757E+03  0.00000000000E+00 0. -1.
         21   -1    0    0  502  503 -0.00000000000E+00 -0.00000000000E+00 -0.16313429062E+04  0.16313429062E+04  0.00000000000E+00 0. -1.
    9000007    2    1    2  501    0  0.10751967105E+03  0.36452474425E+02 -0.32085134646E+03  0.52751552984E+03  0.40303571200E+03 0.  0.
    9000005    1    3    3    0    0 -0.12515480133E+03  0.81979662478E+02 -0.30554101492E+02  0.15270541074E+03  0.99999687468E+00 0.  0.
          4    1    3    3  501    0  0.23267447238E+03 -0.45527188053E+02 -0.29029724496E+03  0.37481011911E+03  0.00000000000E+00 0.  1.
   -9000007    1    1    2    0  503 -0.10751967105E+03 -0.36452474425E+02 -0.11713544922E+04  0.12429644439E+04  0.40000000000E+03 0. -1.
<mgrwt>
<rscale>  2 0.41798851E+03</rscale>
<asrwt>0</asrwt>
<pdfrwt beam="1">  1       21 0.21405701E-01 0.41872073E+03</pdfrwt>
<pdfrwt beam="2">  1       21 0.25097585E+00 0.41872073E+03</pdfrwt>
<totfact> 0.11146423E+03</totfact>
</mgrwt>
</event>
<event>
 6    1  0.8739326E-004  0.4129825E+03  0.7818608E-02  0.1039443E+00
         21   -1    0    0  501  502  0.00000000000E+00  0.00000000000E+00  0.36008076762E+03  0.36008076762E+03  0.00000000000E+00 0. -1.
         21   -1    0    0  502  503 -0.00000000000E+00 -0.00000000000E+00 -0.55518566420E+03  0.55518566420E+03  0.00000000000E+00 0. -1.
    9000007    2    1    2  501    0 -0.72812372433E+02  0.72477138754E+02  0.78915200089E+02  0.41964400437E+03  0.39914772250E+03 0.  0.
    9000005    1    3    3    0    0 -0.11636182793E+03  0.11446875149E+03  0.21545312449E+03  0.27030393803E+03  0.99999687468E+00 0.  0.
          4    1    3    3  501    0  0.43549455500E+02 -0.41991612734E+02 -0.13653792440E+03  0.14934006634E+03  0.00000000000E+00 0.  1.
   -9000007    1    1    2    0  503  0.72812372433E+02 -0.72477138754E+02 -0.27402009666E+03  0.49562242745E+03  0.40000000000E+03 0. -1.
<mgrwt>
<rscale>  2 0.41277603E+03</rscale>
<asrwt>0</asrwt>
<pdfrwt beam="1">  1       21 0.55397041E-01 0.41298254E+03</pdfrwt>
<pdfrwt beam="2">  1       21 0.85413179E-01 0.41298254E+03</pdfrwt>
<totfact> 0.32159264E+03</totfact>
</mgrwt>
</event>
<event>
 6    1  0.8739326E-004  0.4446147E+03  0.7818608E-02  0.1029398E+00
         21   -1    0    0  501  502  0.00000000000E+00  0.00000000000E+00  0.27922381725E+04  0.27922381725E+04  0.00000000000E+00 0.  1.
         21   -1    0    0  502  503 -0.00000000000E+00 -0.00000000000E+00 -0.70887861066E+02  0.70887861066E+02  0.00000000000E+00 0. -1.
    9000007    2    1    2  501    0 -0.11647372378E+03 -0.15309839033E+03  0.14401432246E+04  0.15072142205E+04  0.40084529892E+03 0.  0.
    9000005    1    3    3    0    0  0.82224143546E+02 -0.63972873553E+02  0.84368345884E+02  0.13406101638E+03  0.99999687468E+00 0.  0.
          4    1    3    3  501    0 -0.19869786733E+03 -0.89125516781E+02  0.13557748787E+04  0.13731532041E+04  0.00000000000E+00 0.  1.
   -9000007    1    1    2    0  503  0.11647372378E+03  0.15309839033E+03  0.12812070868E+04  0.13559118130E+04  0.40000000000E+03 0.  1.
<mgrwt>
<rscale>  2 0.44442406E+03</rscale>
<asrwt>0</asrwt>
<pdfrwt beam="1">  1       21 0.42957502E+00 0.44461466E+03</pdfrwt>
<pdfrwt beam="2">  1       21 0.10905827E-01 0.44461466E+03</pdfrwt>
<totfact> 0.30259693E+02</totfact>
</mgrwt>
</event>
<event>
 6    1  0.8739326E-004  0.5165968E+03  0.7818608E-02  0.1009561E+00
         21   -1    0    0  501  502  0.00000000000E+00  0.00000000000E+00  0.94576963196E+03  0.94576963196E+03  0.00000000000E+00 0. -1.
         21   -1    0    0  502  503 -0.00000000000E+00 -0.00000000000E+00 -0.30000369499E+03  0.30000369499E+03  0.00000000000E+00 0. -1.
    9000007    2    1    2  501    0 -0.15862558630E+02 -0.32588974323E+03  0.47578447960E+03  0.70231271075E+03  0.40052032051E+03 0.  0.
    9000005    1    3    3    0    0 -0.91008023422E+02 -0.39315969926E+03  0.31256243233E+03  0.51044420218E+03  0.99999687468E+00 0.  0.
          4    1    3    3  501    0  0.75145464793E+02  0.67269956028E+02  0.16322204727E+03  0.19186850857E+03  0.00000000000E+00 0.  1.
   -9000007    1    1    2    0  503  0.15862558630E+02  0.32588974323E+03  0.16998145737E+03  0.54346061620E+03  0.40000000000E+03 0. -1.
<mgrwt>
<rscale>  2 0.51649596E+03</rscale>
<asrwt>0</asrwt>
<pdfrwt beam="1">  1       21 0.14550302E+00 0.51659682E+03</pdfrwt>
<pdfrwt beam="2">  1       21 0.46154415E-01 0.51659682E+03</pdfrwt>
<totfact> 0.12046354E+03</totfact>
</mgrwt>
</event>
<event>
 6    1  0.8739326E-004  0.4109398E+03  0.7818608E-02  0.1040166E+00
         21   -1    0    0  501  502  0.00000000000E+00  0.00000000000E+00  0.58518477230E+03  0.58518477230E+03  0.00000000000E+00 0.  1.
         21   -1    0    0  502  503 -0.00000000000E+00 -0.00000000000E+00 -0.34543695316E+03  0.34543695316E+03  0.00000000000E+00 0.  1.
    9000007    2    1    2  501    0 -0.89218728581E+01  0.93765034738E+02  0.31001515202E+03  0.51371768420E+03  0.39865396401E+03 0.  0.
    9000005    1    3    3    0    0 -0.67139821365E+02 -0.13766839531E+03  0.19734765355E+03  0.24981480948E+03  0.99999687468E+00 0.  0.
          4    1    3    3  501    0  0.58217948507E+02  0.23143343005E+03  0.11266749848E+03  0.26390287472E+03  0.00000000000E+00 0.  1.
   -9000007    1    1    2    0  503  0.89218728581E+01 -0.93765034738E+02 -0.70267332880E+02  0.41690404127E+03  0.40000000000E+03 0.  1.
<mgrwt>
<rscale>  2 0.41061184E+03</rscale>
<asrwt>0</asrwt>
<pdfrwt beam="1">  1       21 0.90028426E-01 0.41093975E+03</pdfrwt>
<pdfrwt beam="2">  1       21 0.53144147E-01 0.41093975E+03</pdfrwt>
<totfact> 0.31095559E+03</totfact>
</mgrwt>
</event>
<event>
 6    1  0.8739326E-004  0.4922663E+03  0.7818608E-02  0.1015840E+00
         21   -1    0    0  501  502  0.00000000000E+00  0.00000000000E+00  0.64237859912E+03  0.64237859912E+03  0.00000000000E+00 0. -1.
         21   -1    0    0  502  503 -0.00000000000E+00 -0.00000000000E+00 -0.89354846411E+03  0.89354846411E+03  0.00000000000E+00 0.  1.
    9000007    2    1    2  501    0  0.14042439526E+03  0.24954371016E+03  0.45831081398E+03  0.67258824916E+03  0.40041862673E+03 0.  0.
    9000005    1    3    3    0    0  0.19860685810E+03  0.20583061439E+03  0.93996965717E+02  0.30107699258E+03  0.99999687468E+00 0.  0.
          4    1    3    3  501    0 -0.58182462840E+02  0.43713095762E+02  0.36431384827E+03  0.37151125657E+03  0.00000000000E+00 0.  1.
   -9000007    1    1    2    0  503 -0.14042439526E+03 -0.24954371016E+03 -0.70948067897E+03  0.86333881408E+03  0.40000000000E+03 0.  1.
<mgrwt>
<rscale>  2 0.49218120E+03</rscale>
<asrwt>0</asrwt>
<pdfrwt beam="1">  1       21 0.98827478E-01 0.49226634E+03</pdfrwt>
<pdfrwt beam="2">  1       21 0.13746899E+00 0.49226634E+03</pdfrwt>
<totfact> 0.25524395E+02</totfact>
</mgrwt>
</event>
<event>
 6    1  0.8739326E-004  0.4802863E+03  0.7818608E-02  0.1019140E+00
         21   -1    0    0  501  502  0.00000000000E+00  0.00000000000E+00  0.18917803671E+03  0.18917803671E+03  0.00000000000E+00 0.  1.
         21   -1    0    0  502  503 -0.00000000000E+00 -0.00000000000E+00 -0.12262889690E+04  0.12262889690E+04  0.00000000000E+00 0. -1.
    9000007    2    1    2  501    0 -0.24713297095E+03  0.91865991965E+02 -0.45527657213E+03  0.66177921328E+03  0.40144850751E+03 0.  0.
    9000005    1    3    3    0    0  0.10274524622E+03  0.70707374089E+02 -0.16394629419E+03  0.20599880035E+03  0.99999687468E+00 0.  0.
          4    1    3    3  501    0 -0.34987821718E+03  0.21158617876E+02 -0.29133027794E+03  0.45578041293E+03  0.00000000000E+00 0.  1.
   -9000007    1    1    2    0  503  0.24713297095E+03 -0.91865991965E+02 -0.58183436020E+03  0.75368779247E+03  0.40000000000E+03 0.  1.
<mgrwt>
<rscale>  2 0.47998354E+03</rscale>
<asrwt>0</asrwt>
<pdfrwt beam="1">  1       21 0.29104312E-01 0.48028634E+03</pdfrwt>
<pdfrwt beam="2">  1       21 0.18865985E+00 0.48028634E+03</pdfrwt>
<totfact> 0.14990914E+03</totfact>
</mgrwt>
</event>
<event>
 6    1  0.8739326E-004  0.5080585E+03  0.7818608E-02  0.1011888E+00
         21   -1    0    0  501  502  0.00000000000E+00  0.00000000000E+00  0.56851781811E+03  0.56851781811E+03  0.00000000000E+00 0. -1.
         21   -1    0    0  502  503 -0.00000000000E+00 -0.00000000000E+00 -0.72695133207E+03  0.72695133207E+03  0.00000000000E+00 0. -1.
    9000007    2    1    2  501    0  0.22384821898E+03 -0.21912413557E+03  0.31974607210E+03  0.59777356581E+03  0.39619726580E+03 0.  0.
    9000005    1    3    3    0    0  0.23402535652E+03 -0.11553988412E+03  0.39209398873E+03  0.47101595335E+03  0.99999687468E+00 0.  0.
          4    1    3    3  501    0 -0.10177137541E+02 -0.10358425145E+03 -0.72347916626E+02  0.12675761246E+03  0.00000000000E+00 0.  1.
   -9000007    1    1    2    0  503 -0.22384821898E+03  0.21912413557E+03 -0.47817958607E+03  0.69769558438E+03  0.40000000000E+03 0. -1.
<mgrwt>
<rscale>  2 0.50730970E+03</rscale>
<asrwt>0</asrwt>
<pdfrwt beam="1">  1       21 0.87464280E-01 0.50805847E+03</pdfrwt>
<pdfrwt beam="2">  1       21 0.11183867E+00 0.50805847E+03</pdfrwt>
<totfact> 0.57714029E+02</totfact>
</mgrwt>
</event>
<event>
 6    1  0.8739326E-004  0.5813301E+03  0.7818608E-02  0.9945035E-01
         21   -1    0    0  501  502  0.00000000000E+00  0.00000000000E+00  0.24721777063E+04  0.24721777063E+04  0.00000000000E+00 0.  1.
         21   -1    0    0  502  503 -0.00000000000E+00 -0.00000000000E+00 -0.22707913272E+03  0.22707913272E+03  0.00000000000E+00 0. -1.
    9000007    2    1    2  501    0 -0.21845615618E+03  0.36050665234E+03  0.19743768002E+04  0.20581808551E+04  0.40032055240E+03 0.  0.
    9000005    1    3    3    0    0 -0.31427636060E+03  0.17977329878E+03  0.14692759915E+04  0.15132286704E+04  0.99999687468E+00 0.  0.
          4    1    3    3  501    0  0.95820204416E+02  0.18073335356E+03  0.50510080864E+03  0.54495218465E+03  0.00000000000E+00 0.  1.
   -9000007    1    1    2    0  503  0.21845615618E+03 -0.36050665234E+03  0.27072177340E+03  0.64107598391E+03  0.40000000000E+03 0. -1.
<mgrwt>
<rscale>  2 0.58127492E+03</rscale>
<asrwt>0</asrwt>
<pdfrwt beam="1">  1       21 0.38033501E+00 0.58133010E+03</pdfrwt>
<pdfrwt beam="2">  1       21 0.34935253E-01 0.58133010E+03</pdfrwt>
<totfact> 0.62894587E+01</totfact>
</mgrwt>
</event>
<event>
 6    1  0.8739326E-004  0.4566251E+03  0.7818608E-02  0.1025792E+00
         21   -1    0    0  501  502  0.00000000000E+00  0.00000000000E+00  0.12895951743E+03  0.12895951743E+03  0.00000000000E+00 0.  1.
         21   -1    0    0  502  503 -0.00000000000E+00 -0.00000000000E+00 -0.17806624395E+04  0.17806624395E+04  0.00000000000E+00 0.  1.
    9000007    2    1    2  501    0 -0.84071245336E+02 -0.20271146082E+03 -0.53536482057E+03  0.70364904367E+03  0.40043298430E+03 0.  0.
    9000005    1    3    3    0    0  0.14802992303E+03 -0.24944547823E+02 -0.26946349971E+03  0.30845853247E+03  0.99999687468E+00 0.  0.
          4    1    3    3  501    0 -0.23210116837E+03 -0.17776691300E+03 -0.26590132086E+03  0.39519051121E+03  0.00000000000E+00 0.  1.
   -9000007    1    1    2    0  503  0.84071245336E+02  0.20271146082E+03 -0.11163381015E+04  0.12059729132E+04  0.40000000000E+03 0.  1.
<mgrwt>
<rscale>  2 0.45653016E+03</rscale>
<asrwt>0</asrwt>
<pdfrwt beam="1">  1       21 0.19839927E-01 0.45662510E+03</pdfrwt>
<pdfrwt beam="2">  1       21 0.27394805E+00 0.45662510E+03</pdfrwt>
<totfact> 0.91611957E+02</totfact>
</mgrwt>
</event>
<event>
 6    1  0.8739326E-004  0.5372455E+03  0.7818608E-02  0.1004557E+00
         21   -1    0    0  501  502  0.00000000000E+00  0.00000000000E+00  0.91391172937E+03  0.91391172937E+03  0.00000000000E+00 0.  1.
         21   -1    0    0  502  503 -0.00000000000E+00 -0.00000000000E+00 -0.41735610730E+03  0.41735610730E+03  0.00000000000E+00 0. -1.
    9000007    2    1    2  501    0 -0.21967523065E+03 -0.28137903985E+03  0.57784884847E+03  0.78901332107E+03  0.40149888932E+03 0.  0.
    9000005    1    3    3    0    0 -0.22570700225E+03  0.17128774626E+02  0.33421466160E+03  0.40365515705E+03  0.99999687468E+00 0.  0.
          4    1    3    3  501    0  0.60317716014E+01 -0.29850781448E+03  0.24363418686E+03  0.38535816403E+03  0.00000000000E+00 0.  1.
   -9000007    1    1    2    0  503  0.21967523065E+03  0.28137903985E+03 -0.81293226397E+02  0.54225451560E+03  0.40000000000E+03 0. -1.
<mgrwt>
<rscale>  2 0.53696547E+03</rscale>
<asrwt>0</asrwt>
<pdfrwt beam="1">  1       21 0.14060180E+00 0.53724550E+03</pdfrwt>
<pdfrwt beam="2">  1       21 0.64208632E-01 0.53724550E+03</pdfrwt>
<totfact> 0.64165410E+02</totfact>
</mgrwt>
</event>
<event>
 6    1  0.8739326E-004  0.4527972E+03  0.7818608E-02  0.1026966E+00
         21   -1    0    0  501  502  0.00000000000E+00  0.00000000000E+00  0.31057215420E+03  0.31057215420E+03  0.00000000000E+00 0.  1.
         21   -1    0    0  502  503 -0.00000000000E+00 -0.00000000000E+00 -0.76085594566E+03  0.76085594566E+03  0.00000000000E+00 0.  1.
    9000007    2    1    2  501    0  0.40075874904E+02  0.20617254785E+03 -0.29047176150E+02  0.45372794500E+03  0.40113852270E+03 0.  0.
    9000005    1    3    3    0    0  0.63888433703E+02  0.27059814746E+03 -0.14904080433E+03  0.31546671888E+03  0.99999687468E+00 0.  0.
          4    1    3    3  501    0 -0.23812558799E+02 -0.64425599617E+02  0.11999362818E+03  0.13826122612E+03  0.00000000000E+00 0.  1.
   -9000007    1    1    2    0  503 -0.40075874904E+02 -0.20617254785E+03 -0.42123661531E+03  0.61770015486E+03  0.40000000000E+03 0. -1.
<mgrwt>
<rscale>  2 0.45254491E+03</rscale>
<asrwt>0</asrwt>
<pdfrwt beam="1">  1       21 0.47780332E-01 0.45279721E+03</pdfrwt>
<pdfrwt beam="2">  1       21 0.11705476E+00 0.45279721E+03</pdfrwt>
<totfact> 0.20223846E+03</totfact>
</mgrwt>
</event>
<event>
 6    1  0.8739326E-004  0.4527458E+03  0.7818608E-02  0.1027906E+00
         21   -1    0    0  501  502  0.00000000000E+00  0.00000000000E+00  0.23057003529E+03  0.23057003529E+03  0.00000000000E+00 0. -1.
         21   -1    0    0  502  503 -0.00000000000E+00 -0.00000000000E+00 -0.13697681903E+04  0.13697681903E+04  0.00000000000E+00 0. -1.
    9000007    2    1    2  501    0 -0.16810692053E+03  0.69636923988E+02 -0.88320149127E+02  0.46127992105E+03  0.41457144005E+03 0.  0.
    9000005    1    3    3    0    0 -0.47599377186E+02  0.21399236033E+03  0.53611280926E+02  0.22568473680E+03  0.99999687468E+00 0.  0.
          4    1    3    3  501    0 -0.12050754334E+03 -0.14435543634E+03 -0.14193143005E+03  0.23559518425E+03  0.00000000000E+00 0.  1.
   -9000007    1    1    2    0  503  0.16810692053E+03 -0.69636923988E+02 -0.10508780059E+04  0.11390583045E+04  0.40000000000E+03 0. -1.
<mgrwt>
<rscale>  2 0.44938251E+03</rscale>
<asrwt>0</asrwt>
<pdfrwt beam="1">  1       21 0.35472313E-01 0.45274575E+03</pdfrwt>
<pdfrwt beam="2">  1       21 0.21073357E+00 0.45274575E+03</pdfrwt>
<totfact> 0.72649164E+02</totfact>
</mgrwt>
</event>
<event>
 6    1  0.8739326E-004  0.4451339E+03  0.7818608E-02  0.1029184E+00
         21   -1    0    0  501  502  0.00000000000E+00  0.00000000000E+00  0.21308952629E+03  0.21308952629E+03  0.00000000000E+00 0. -1.
         21   -1    0    0  502  503 -0.00000000000E+00 -0.00000000000E+00 -0.13900250465E+04  0.13900250465E+04  0.00000000000E+00 0. -1.
    9000007    2    1    2  501    0 -0.19448967525E+03 -0.17648904629E+02 -0.12727494617E+03  0.46297202105E+03  0.40000807834E+03 0.  0.
    9000005    1    3    3    0    0 -0.12513891433E+03 -0.20782388744E+03 -0.74622069790E+02  0.25381089292E+03  0.99999687468E+00 0.  0.
          4    1    3    3  501    0 -0.69350760919E+02  0.19017498281E+03 -0.52652876380E+02  0.20916112813E+03  0.00000000000E+00 0.  1.
   -9000007    1    1    2    0  503  0.19448967525E+03  0.17648904629E+02 -0.10496605741E+04  0.11401425518E+04  0.40000000000E+03 0. -1.
<mgrwt>
<rscale>  2 0.44513208E+03</rscale>
<asrwt>0</asrwt>
<pdfrwt beam="1">  1       21 0.32783005E-01 0.44513389E+03</pdfrwt>
<pdfrwt beam="2">  1       21 0.21385000E+00 0.44513389E+03</pdfrwt>
<totfact> 0.81593305E+02</totfact>
</mgrwt>
</event>
<event>
 6    1  0.8739326E-004  0.4468929E+03  0.7818608E-02  0.1029624E+00
         21   -1    0    0  501  502  0.00000000000E+00  0.00000000000E+00  0.12873042101E+04  0.12873042101E+04  0.00000000000E+00 0.  1.
         21   -1    0    0  502  503 -0.00000000000E+00 -0.00000000000E+00 -0.67535529747E+03  0.67535529747E+03  0.00000000000E+00 0.  1.
    9000007    2    1    2  501    0  0.41621976280E+02 -0.19488672329E+03  0.11698612136E+04  0.12478313048E+04  0.38573887827E+03 0.  0.
    9000005    1    3    3    0    0 -0.10429373158E+03 -0.22062060464E+03  0.44056399143E+03  0.50363505059E+03  0.99999687468E+00 0.  0.
          4    1    3    3  501    0  0.14591570786E+03  0.25733881354E+02  0.72929722218E+03  0.74419625417E+03  0.00000000000E+00 0.  1.
   -9000007    1    1    2    0  503 -0.41621976280E+02  0.19488672329E+03 -0.55791230103E+03  0.71482820276E+03  0.40000000000E+03 0.  1.
<mgrwt>
<rscale>  2 0.44367882E+03</rscale>
<asrwt>0</asrwt>
<pdfrwt beam="1">  1       21 0.19804680E+00 0.44689285E+03</pdfrwt>
<pdfrwt beam="2">  1       21 0.10390082E+00 0.44689285E+03</pdfrwt>
<totfact> 0.82238865E+01</totfact>
</mgrwt>
</event>
<event>
 6    1  0.8739326E-004  0.4179921E+03  0.7818608E-02  0.1037757E+00
         21   -1    0    0  501  502  0.00000000000E+00  0.00000000000E+00  0.12762747533E+04  0.12762747533E+04  0.00000000000E+00 0.  1.
         21   -1    0    0  502  503 -0.00000000000E+00 -0.00000000000E+00 -0.23240371637E+03  0.23240371637E+03  0.00000000000E+00 0.  1.
    9000007    2    1    2  501    0  0.10059804050E+03 -0.67804585969E+02  0.10057069910E+04  0.10889476964E+04  0.39955363350E+03 0.  0.
    9000005    1    3    3    0    0  0.17638473786E+03 -0.17262202822E+03  0.40339873771E+03  0.47290747716E+03  0.99999687468E+00 0.  0.
          4    1    3    3  501    0 -0.75786697356E+02  0.10481744225E+03  0.60230825328E+03  0.61604021920E+03  0.00000000000E+00 0.  1.
   -9000007    1    1    2    0  503 -0.10059804050E+03  0.67804585969E+02  0.38164045906E+02  0.41973077327E+03  0.40000000000E+03 0.  1.
<mgrwt>
<rscale>  2 0.41788531E+03</rscale>
<asrwt>0</asrwt>
<pdfrwt beam="1">  1       21 0.19634996E+00 0.41799214E+03</pdfrwt>
<pdfrwt beam="2">  1       21 0.35754419E-01 0.41799214E+03</pdfrwt>
<totfact> 0.90490626E+02</totfact>
</mgrwt>
</event>
<event>
 6    1  0.8739326E-004  0.4154320E+03  0.7818608E-02  0.1038625E+00
         21   -1    0    0  501  502  0.00000000000E+00  0.00000000000E+00  0.52596980803E+03  0.52596980803E+03  0.00000000000E+00 0.  1.
         21   -1    0    0  502  503 -0.00000000000E+00 -0.00000000000E+00 -0.74592581851E+03  0.74592581851E+03  0.00000000000E+00 0.  1.
    9000007    2    1    2  501    0  0.11109658494E+03 -0.15532429099E+02  0.36634682610E+03  0.55333127750E+03  0.39922649978E+03 0.  0.
    9000005    1    3    3    0    0  0.11034662022E+03  0.16247182263E+03  0.71686948491E+02  0.20907770881E+03  0.99999687468E+00 0.  0.
          4    1    3    3  501    0  0.74996471674E+00 -0.17800425173E+03  0.29465987761E+03  0.34425356869E+03  0.00000000000E+00 0.  1.
   -9000007    1    1    2    0  503 -0.11109658494E+03  0.15532429099E+02 -0.58630283658E+03  0.71856434905E+03  0.40000000000E+03 0.  1.
<mgrwt>
<rscale>  2 0.41524565E+03</rscale>
<asrwt>0</asrwt>
<pdfrwt beam="1">  1       21 0.80918432E-01 0.41543195E+03</pdfrwt>
<pdfrwt beam="2">  1       21 0.11475782E+00 0.41543195E+03</pdfrwt>
<totfact> 0.67540611E+02</totfact>
</mgrwt>
</event>
<event>
 6    1  0.8739326E-004  0.4756237E+03  0.7818608E-02  0.1020373E+00
         21   -1    0    0  501  502  0.00000000000E+00  0.00000000000E+00  0.44591706544E+03  0.44591706544E+03  0.00000000000E+00 0.  1.
         21   -1    0    0  502  503 -0.00000000000E+00 -0.00000000000E+00 -0.73256109897E+03  0.73256109897E+03  0.00000000000E+00 0. -1.
    9000007    2    1    2  501    0  0.25704880639E+03  0.11990943808E+02  0.18377027717E+03  0.50951815416E+03  0.39952392050E+03 0.  0.
    9000005    1    3    3    0    0 -0.92845001729E+02 -0.54096870730E+02  0.92841391875E+02  0.14201123127E+03  0.99999687468E+00 0.  0.
          4    1    3    3  501    0  0.34989380812E+03  0.66087814539E+02  0.90928885297E+02  0.36750692289E+03  0.00000000000E+00 0.  1.
   -9000007    1    1    2    0  503 -0.25704880639E+03 -0.11990943808E+02 -0.47041431070E+03  0.66896001025E+03  0.40000000000E+03 0. -1.
<mgrwt>
<rscale>  2 0.47552356E+03</rscale>
<asrwt>0</asrwt>
<pdfrwt beam="1">  1       21 0.68602625E-01 0.47562367E+03</pdfrwt>
<pdfrwt beam="2">  1       21 0.11270171E+00 0.47562367E+03</pdfrwt>
<totfact> 0.10028736E+03</totfact>
</mgrwt>
</event>
<event>
 6    1  0.8739326E-004  0.4236987E+03  0.7818608E-02  0.1035884E+00
         21   -1    0    0  501  502  0.00000000000E+00  0.00000000000E+00  0.46041442586E+03  0.46041442586E+03  0.00000000000E+00 0. -1.
         21   -1    0    0  502  503 -0.00000000000E+00 -0.00000000000E+00 -0.43625388504E+03  0.43625388504E+03  0.00000000000E+00 0. -1.
    9000007    2    1    2  501    0  0.13514032992E+03 -0.33214686761E+02 -0.13430664754E+03  0.44447590276E+03  0.40019298891E+03 0.  0.
    9000005    1    3    3    0    0 -0.30046056273E+02  0.51328047971E+02 -0.22868186163E+03  0.23629161610E+03  0.99999687468E+00 0.  0.
          4    1    3    3  501    0  0.16518638619E+03 -0.84542734732E+02  0.94375214088E+02  0.20818428666E+03  0.00000000000E+00 0.  1.
   -9000007    1    1    2    0  503 -0.13514032992E+03  0.33214686761E+02  0.15846718836E+03  0.45219240814E+03  0.40000000000E+03 0. -1.
<mgrwt>
<rscale>  2 0.42365308E+03</rscale>
<asrwt>0</asrwt>
<pdfrwt beam="1">  1       21 0.70832988E-01 0.42369866E+03</pdfrwt>
<pdfrwt beam="2">  1       21 0.67115982E-01 0.42369866E+03</pdfrwt>
<totfact> 0.32297768E+03</totfact>
</mgrwt>
</event>
<event>
 6    1  0.8739326E-004  0.8100026E+03  0.7818608E-02  0.9545701E-01
         21   -1    0    0  501  502  0.00000000000E+00  0.00000000000E+00  0.80179228015E+03  0.80179228015E+03  0.00000000000E+00 0.  1.
         21   -1    0    0  502  503 -0.00000000000E+00 -0.00000000000E+00 -0.14243103255E+04  0.14243103255E+04  0.00000000000E+00 0. -1.
    9000007    2    1    2  501    0  0.40280856849E+03 -0.57779703615E+03  0.41487187525E+03  0.90994075952E+03  0.39971158993E+03 0.  0.
    9000005    1    3    3    0    0  0.12841387415E+03 -0.12581792286E+03  0.32808648552E+03  0.37411497533E+03  0.99999687468E+00 0.  0.
          4    1    3    3  501    0  0.27439469434E+03 -0.45197911329E+03  0.86785389724E+02  0.53582578419E+03  0.00000000000E+00 0.  1.
   -9000007    1    1    2    0  503 -0.40280856849E+03  0.57779703615E+03 -0.10373899206E+04  0.13161618461E+04  0.40000000000E+03 0. -1.
<mgrwt>
<rscale>  2 0.80996697E+03</rscale>
<asrwt>0</asrwt>
<pdfrwt beam="1">  1       21 0.12335266E+00 0.81000257E+03</pdfrwt>
<pdfrwt beam="2">  1       21 0.21912467E+00 0.81000257E+03</pdfrwt>
<totfact> 0.32960420E+01</totfact>
</mgrwt>
</event>
<event>
 6    1  0.8739326E-004  0.4002679E+03  0.7818608E-02  0.1043733E+00
         21   -1    0    0  501  502  0.00000000000E+00  0.00000000000E+00  0.17275378596E+04  0.17275378596E+04  0.00000000000E+00 0.  1.
         21   -1    0    0  502  503 -0.00000000000E+00 -0.00000000000E+00 -0.93926170352E+02  0.93926170352E+02  0.00000000000E+00 0.  1.
    9000007    2    1    2  501    0 -0.13059763338E+02  0.66185566511E+01  0.70874048511E+03  0.81369366575E+03  0.39946206797E+03 0.  0.
    9000005    1    3    3    0    0 -0.18553627028E+03 -0.37576944325E+02  0.20320904594E+03  0.27772405492E+03  0.99999687468E+00 0.  0.
          4    1    3    3  501    0  0.17247650694E+03  0.44195500977E+02  0.50553143917E+03  0.53596961084E+03  0.00000000000E+00 0.  1.
   -9000007    1    1    2    0  503  0.13059763338E+02 -0.66185566511E+01  0.92487120417E+03  0.10077703642E+04  0.40000000000E+03 0. -1.
<mgrwt>
<rscale>  2 0.40013340E+03</rscale>
<asrwt>0</asrwt>
<pdfrwt beam="1">  1       21 0.26577503E+00 0.40026786E+03</pdfrwt>
<pdfrwt beam="2">  1       21 0.14450181E-01 0.40026786E+03</pdfrwt>
<totfact> 0.19144186E+03</totfact>
</mgrwt>
</event>
<event>
 6    1  0.8739326E-004  0.4369093E+03  0.7818608E-02  0.1031723E+00
         21   -1    0    0  501  502  0.00000000000E+00  0.00000000000E+00  0.57063600020E+03  0.57063600020E+03  0.00000000000E+00 0. -1.
         21   -1    0    0  502  503 -0.00000000000E+00 -0.00000000000E+00 -0.33514789680E+03  0.33514789680E+03  0.00000000000E+00 0.  1.
    9000007    2    1    2  501    0  0.15703460200E+03  0.78929540073E+02  0.94721152973E+02  0.44675767460E+03  0.39966308870E+03 0.  0.
    9000005    1    3    3    0    0  0.25012059316E+03  0.16903024093E+03  0.97322968832E+02  0.31718179918E+03  0.99999687468E+00 0.  0.
          4    1    3    3  501    0 -0.93085991162E+02 -0.90100700859E+02 -0.26018158593E+01  0.12957587542E+03  0.00000000000E+00 0.  1.
   -9000007    1    1    2    0  503 -0.15703460200E+03 -0.78929540073E+02  0.14076695042E+03  0.45902622240E+03  0.40000000000E+03 0.  1.
<mgrwt>
<rscale>  2 0.43683217E+03</rscale>
<asrwt>0</asrwt>
<pdfrwt beam="1">  1       21 0.87790154E-01 0.43690930E+03</pdfrwt>
<pdfrwt beam="2">  1       21 0.51561215E-01 0.43690930E+03</pdfrwt>
<totfact> 0.34865287E+03</totfact>
</mgrwt>
</event>
<event>
 6    1  0.8739326E-004  0.4295711E+03  0.7818608E-02  0.1034264E+00
         21   -1    0    0  501  502  0.00000000000E+00  0.00000000000E+00  0.72324004327E+03  0.72324004327E+03  0.00000000000E+00 0. -1.
         21   -1    0    0  502  503 -0.00000000000E+00 -0.00000000000E+00 -0.35022557422E+03  0.35022557422E+03  0.00000000000E+00 0. -1.
    9000007    2    1    2  501    0  0.11144966645E+03 -0.11004675318E+03  0.46856273308E+03  0.63339654700E+03  0.39636956856E+03 0.  0.
    9000005    1    3    3    0    0  0.24156549508E+02 -0.13065293453E+03  0.51537183453E+03  0.53222444139E+03  0.99999687468E+00 0.  0.
          4    1    3    3  501    0  0.87293116944E+02  0.20606181349E+02 -0.46809101454E+02  0.10117210561E+03  0.00000000000E+00 0.  1.
   -9000007    1    1    2    0  503 -0.11144966645E+03  0.11004675318E+03 -0.95548264028E+02  0.44006907048E+03  0.40000000000E+03 0. -1.
<mgrwt>
<rscale>  2 0.42872397E+03</rscale>
<asrwt>0</asrwt>
<pdfrwt beam="1">  1       21 0.11126770E+00 0.42957108E+03</pdfrwt>
<pdfrwt beam="2">  1       21 0.53880858E-01 0.42957108E+03</pdfrwt>
<totfact> 0.17929246E+03</totfact>
</mgrwt>
</event>
<event>
 6    1  0.8739326E-004  0.5693967E+03  0.7818608E-02  0.9971094E-01
         21   -1    0    0  501  502  0.00000000000E+00  0.00000000000E+00  0.30245638885E+03  0.30245638885E+03  0.00000000000E+00 0.  1.
         21   -1    0    0  502  503 -0.00000000000E+00 -0.00000000000E+00 -0.10874824771E+04  0.10874824771E+04  0.00000000000E+00 0.  1.
    9000007    2    1    2  501    0 -0.17446686356E+03  0.36552806348E+03 -0.47638499810E+03  0.74239830800E+03  0.40020386009E+03 0.  0.
    9000005    1    3    3    0    0  0.12524072063E+03  0.73441736102E+02 -0.79001621094E+02  0.16529120616E+03  0.99999687468E+00 0.  0.
          4    1    3    3  501    0 -0.29970758419E+03  0.29208632738E+03 -0.39738337700E+03  0.57710710183E+03  0.00000000000E+00 0.  1.
   -9000007    1    1    2    0  503  0.17446686356E+03 -0.36552806348E+03 -0.30864109017E+03  0.64754055797E+03  0.40000000000E+03 0.  1.
<mgrwt>
<rscale>  2 0.56936086E+03</rscale>
<asrwt>0</asrwt>
<pdfrwt beam="1">  1       21 0.46531753E-01 0.56939668E+03</pdfrwt>
<pdfrwt beam="2">  1       21 0.16730499E+00 0.56939668E+03</pdfrwt>
<totfact> 0.78875288E+02</totfact>
</mgrwt>
</event>
<event>
 6    1  0.8739326E-004  0.4453086E+03  0.7818608E-02  0.1029217E+00
         21   -1    0    0  501  502  0.00000000000E+00  0.00000000000E+00  0.68141487186E+03  0.68141487186E+03  0.00000000000E+00 0. -1.
         21   -1    0    0  502  503 -0.00000000000E+00 -0.00000000000E+00 -0.45507429808E+03  0.45507429808E+03  0.00000000000E+00 0. -1.
    9000007    2    1    2  501    0 -0.16310448233E+03  0.10815121944E+03  0.45504462698E+03  0.63588423351E+03  0.39872720934E+03 0.  0.
    9000005    1    3    3    0    0 -0.17773282113E+03  0.20269160984E+03  0.13430907449E+03  0.30118561036E+03  0.99999687468E+00 0.  0.
          4    1    3    3  501    0  0.14628338795E+02 -0.94540390395E+02  0.32073555248E+03  0.33469862315E+03  0.00000000000E+00 0.  1.
   -9000007    1    1    2    0  503  0.16310448233E+03 -0.10815121944E+03 -0.22870405319E+03  0.50060493642E+03  0.40000000000E+03 0. -1.
<mgrwt>
<rscale>  2 0.44502260E+03</rscale>
<asrwt>0</asrwt>
<pdfrwt beam="1">  1       21 0.10483306E+00 0.44530861E+03</pdfrwt>
<pdfrwt beam="2">  1       21 0.70011431E-01 0.44530861E+03</pdfrwt>
<totfact> 0.11603119E+03</totfact>
</mgrwt>
</event>
<event>
 6    1  0.8739326E-004  0.5143856E+03  0.7818608E-02  0.1010143E+00
         21   -1    0    0  501  502  0.00000000000E+00  0.00000000000E+00  0.39929580970E+03  0.39929580970E+03  0.00000000000E+00 0.  1.
         21   -1    0    0  502  503 -0.00000000000E+00 -0.00000000000E+00 -0.82226490531E+03  0.82226490531E+03  0.00000000000E+00 0. -1.
    9000007    2    1    2  501    0  0.14733676969E+03 -0.28641840866E+03  0.58376804826E+02  0.51768749888E+03  0.40105967964E+03 0.  0.
    9000005    1    3    3    0    0  0.28532629875E+03 -0.20374393941E+03  0.14294939443E+02  0.35089604571E+03  0.99999687468E+00 0.  0.
          4    1    3    3  501    0 -0.13798952906E+03 -0.82674469250E+02  0.44081865383E+02  0.16679145317E+03  0.00000000000E+00 0.  1.
   -9000007    1    1    2    0  503 -0.14733676969E+03  0.28641840866E+03 -0.48134590043E+03  0.70387321613E+03  0.40000000000E+03 0. -1.
<mgrwt>
<rscale>  2 0.51417898E+03</rscale>
<asrwt>0</asrwt>
<pdfrwt beam="1">  1       21 0.61430125E-01 0.51438555E+03</pdfrwt>
<pdfrwt beam="2">  1       21 0.12650229E+00 0.51438555E+03</pdfrwt>
<totfact> 0.94217596E+02</totfact>
</mgrwt>
</event>
<event>
 6    1  0.8739326E-004  0.4145595E+03  0.7818608E-02  0.1038864E+00
         21   -1    0    0  501  502  0.00000000000E+00  0.00000000000E+00  0.20821190744E+03  0.20821190744E+03  0.00000000000E+00 0. -1.
         21   -1    0    0  502  503 -0.00000000000E+00 -0.00000000000E+00 -0.10571120869E+04  0.10571120869E+04  0.00000000000E+00 0. -1.
    9000007    2    1    2  501    0 -0.65871048919E+02 -0.85998653359E+02 -0.12812292041E+03  0.43390675815E+03  0.40015600528E+03 0.  0.
    9000005    1    3    3    0    0  0.96146840806E+02  0.11847145611E+03 -0.32121938274E+02  0.15592472486E+03  0.99999687468E+00 0.  0.
          4    1    3    3  501    0 -0.16201788972E+03 -0.20447010947E+03 -0.96000982139E+02  0.27798203329E+03  0.00000000000E+00 0.  1.
   -9000007    1    1    2    0  503  0.65871048919E+02  0.85998653359E+02 -0.72077725904E+03  0.83141723618E+03  0.40000000000E+03 0. -1.
<mgrwt>
<rscale>  2 0.41452186E+03</rscale>
<asrwt>0</asrwt>
<pdfrwt beam="1">  1       21 0.32032601E-01 0.41455952E+03</pdfrwt>
<pdfrwt beam="2">  1       21 0.16263263E+00 0.41455952E+03</pdfrwt>
<totfact> 0.19548763E+03</totfact>
</mgrwt>
</event>
<event>
 6    1  0.8739326E-004  0.4228618E+03  0.7818608E-02  0.1036199E+00
         21   -1    0    0  501  502  0.00000000000E+00  0.00000000000E+00  0.19039905932E+03  0.19039905932E+03  0.00000000000E+00 0. -1.
         21   -1    0    0  502  503 -0.00000000000E+00 -0.00000000000E+00 -0.95478841351E+03  0.95478841351E+03  0.00000000000E+00 0. -1.
    9000007    2    1    2  501    0 -0.66067253039E+02 -0.11753721269E+03 -0.30543917346E+03  0.52163703647E+03  0.40078950939E+03 0.  0.
    9000005    1    3    3    0    0 -0.23041024833E+03 -0.11576504560E+03 -0.17234097684E+03  0.31014970677E+03  0.99999687468E+00 0.  0.
          4    1    3    3  501    0  0.16434299529E+03 -0.17721670881E+01 -0.13309819662E+03  0.21148732970E+03  0.00000000000E+00 0.  1.
   -9000007    1    1    2    0  503  0.66067253039E+02  0.11753721269E+03 -0.45895018074E+03  0.62355043636E+03  0.40000000000E+03 0. -1.
<mgrwt>
<rscale>  2 0.42267463E+03</rscale>
<asrwt>0</asrwt>
<pdfrwt beam="1">  1       21 0.29292163E-01 0.42286181E+03</pdfrwt>
<pdfrwt beam="2">  1       21 0.14689052E+00 0.42286181E+03</pdfrwt>
<totfact> 0.30765152E+03</totfact>
</mgrwt>
</event>
<event>
 6    1  0.8739326E-004  0.4273859E+03  0.7818608E-02  0.1034690E+00
         21   -1    0    0  501  502  0.00000000000E+00  0.00000000000E+00  0.34595156360E+03  0.34595156360E+03  0.00000000000E+00 0. -1.
         21   -1    0    0  502  503 -0.00000000000E+00 -0.00000000000E+00 -0.10537342275E+04  0.10537342275E+04  0.00000000000E+00 0. -1.
    9000007    2    1    2  501    0 -0.99275983718E+02  0.11309639296E+03  0.14045038285E+03  0.44987222168E+03  0.40001523815E+03 0.  0.
    9000005    1    3    3    0    0 -0.13331854207E+03 -0.67505373210E+02  0.20622240546E+03  0.25467526299E+03  0.99999687468E+00 0.  0.
          4    1    3    3  501    0  0.34042558357E+02  0.18060176617E+03 -0.65772022610E+02  0.19519695869E+03  0.00000000000E+00 0.  1.
   -9000007    1    1    2    0  503  0.99275983718E+02 -0.11309639296E+03 -0.84823304676E+03  0.94981356942E+03  0.40000000000E+03 0. -1.
<mgrwt>
<rscale>  2 0.42738233E+03</rscale>
<asrwt>0</asrwt>
<pdfrwt beam="1">  1       21 0.53223317E-01 0.42738590E+03</pdfrwt>
<pdfrwt beam="2">  1       21 0.16211296E+00 0.42738590E+03</pdfrwt>
<totfact> 0.68619084E+02</totfact>
</mgrwt>
</event>
<event>
 6    1  0.8739326E-004  0.4924358E+03  0.7818608E-02  0.1015830E+00
         21   -1    0    0  501  502  0.00000000000E+00  0.00000000000E+00  0.11129776055E+04  0.11129776055E+04  0.00000000000E+00 0. -1.
         21   -1    0    0  502  503 -0.00000000000E+00 -0.00000000000E+00 -0.23727546090E+03  0.23727546090E+03  0.00000000000E+00 0. -1.
    9000007    2    1    2  501    0 -0.58937415826E+02  0.28110388106E+03  0.63242548739E+03  0.80100217396E+03  0.39893542666E+03 0.  0.
    9000005    1    3    3    0    0  0.77809489213E+02  0.20437748477E+03  0.90203463845E+02  0.23656317925E+03  0.99999687468E+00 0.  0.
          4    1    3    3  501    0 -0.13674690504E+03  0.76726396292E+02  0.54222202355E+03  0.56443899471E+03  0.00000000000E+00 0.  1.
   -9000007    1    1    2    0  503  0.58937415826E+02 -0.28110388106E+03  0.24327665724E+03  0.54925089248E+03  0.40000000000E+03 0. -1.
<mgrwt>
<rscale>  2 0.49221956E+03</rscale>
<asrwt>0</asrwt>
<pdfrwt beam="1">  1       21 0.17122732E+00 0.49243579E+03</pdfrwt>
<pdfrwt beam="2">  1       21 0.36503918E-01 0.49243579E+03</pdfrwt>
<totfact> 0.12568428E+03</totfact>
</mgrwt>
</event>
<event>
 6    1  0.8739326E-004  0.4450023E+03  0.7818608E-02  0.1029260E+00
         21   -1    0    0  501  502  0.00000000000E+00  0.00000000000E+00  0.16844250203E+04  0.16844250203E+04  0.00000000000E+00 0.  1.
         21   -1    0    0  502  503 -0.00000000000E+00 -0.00000000000E+00 -0.14537569051E+03  0.14537569051E+03  0.00000000000E+00 0.  1.
    9000007    2    1    2  501    0  0.19381072812E+03 -0.49135499145E+01  0.11709802767E+04  0.12526858443E+04  0.40054996542E+03 0.  0.
    9000005    1    3    3    0    0 -0.79208951374E+02  0.90944940848E+01  0.40137843569E+02  0.89268215399E+02  0.99999687468E+00 0.  0.
          4    1    3    3  501    0  0.27301967949E+03 -0.14008043999E+02  0.11308424331E+04  0.11634176289E+04  0.00000000000E+00 0.  1.
   -9000007    1    1    2    0  503 -0.19381072812E+03  0.49135499145E+01  0.36806905314E+03  0.57711486654E+03  0.40000000000E+03 0.  1.
<mgrwt>
<rscale>  2 0.44487847E+03</rscale>
<asrwt>0</asrwt>
<pdfrwt beam="1">  1       21 0.25914230E+00 0.44500227E+03</pdfrwt>
<pdfrwt beam="2">  1       21 0.22365492E-01 0.44500227E+03</pdfrwt>
<totfact> 0.90118090E+02</totfact>
</mgrwt>
</event>
<event>
 6    1  0.8739326E-004  0.4133578E+03  0.7818608E-02  0.1039321E+00
         21   -1    0    0  501  502  0.00000000000E+00  0.00000000000E+00  0.10008548703E+03  0.10008548703E+03  0.00000000000E+00 0.  1.
         21   -1    0    0  502  503 -0.00000000000E+00 -0.00000000000E+00 -0.18104290838E+04  0.18104290838E+04  0.00000000000E+00 0.  1.
    9000007    2    1    2  501    0 -0.39052208568E+02 -0.96641517695E+02 -0.62233137080E+03  0.74662657716E+03  0.39911182982E+03 0.  0.
    9000005    1    3    3    0    0  0.12445231292E+02 -0.11954809715E+03  0.15462051215E+01  0.12020824455E+03  0.99999687468E+00 0.  0.
          4    1    3    3  501    0 -0.51497439859E+02  0.22906579451E+02 -0.62387757592E+03  0.62641833261E+03  0.00000000000E+00 0.  1.
   -9000007    1    1    2    0  503  0.39052208568E+02  0.96641517695E+02 -0.10880122259E+04  0.11638879936E+04  0.40000000000E+03 0. -1.
<mgrwt>
<rscale>  2 0.41314276E+03</rscale>
<asrwt>0</asrwt>
<pdfrwt beam="1">  1       21 0.15397769E-01 0.41335778E+03</pdfrwt>
<pdfrwt beam="2">  1       21 0.27852752E+00 0.41335778E+03</pdfrwt>
<totfact> 0.14159684E+03</totfact>
</mgrwt>
</event>
<event>
 6    1  0.8739326E-004  0.4191786E+03  0.7818608E-02  0.1037376E+00
         21   -1    0    0  501  502  0.00000000000E+00  0.00000000000E+00  0.15546697268E+04  0.15546697268E+04  0.00000000000E+00 0. -1.
         21   -1    0    0  502  503 -0.00000000000E+00 -0.00000000000E+00 -0.11726379874E+03  0.11726379874E+03  0.00000000000E+00 0. -1.
    9000007    2    1    2  501    0 -0.12402404718E+03  0.18130797012E+02  0.55670949372E+03  0.69656851718E+03  0.39946407679E+03 0.  0.
    9000005    1    3    3    0    0  0.14240368646E+03  0.41908585890E+02  0.23782943418E+03  0.28035509491E+03  0.99999687468E+00 0.  0.
          4    1    3    3  501    0 -0.26642773364E+03 -0.23777788878E+02  0.31888005954E+03  0.41621342227E+03  0.00000000000E+00 0.  1.
   -9000007    1    1    2    0  503  0.12402404718E+03 -0.18130797012E+02  0.88069643433E+03  0.97536500835E+03  0.40000000000E+03 0.  1.
<mgrwt>
<rscale>  2 0.41905069E+03</rscale>
<asrwt>0</asrwt>
<pdfrwt beam="1">  1       21 0.23917994E+00 0.41917859E+03</pdfrwt>
<pdfrwt beam="2">  1       21 0.18040586E-01 0.41917859E+03</pdfrwt>
<totfact> 0.18219941E+03</totfact>
</mgrwt>
</event>
<event>
 6    1  0.8739326E-004  0.4672333E+03  0.7818608E-02  0.1022789E+00
         21   -1    0    0  501  502  0.00000000000E+00  0.00000000000E+00  0.21345554389E+04  0.21345554389E+04  0.00000000000E+00 0.  1.
         21   -1    0    0  502  503 -0.00000000000E+00 -0.00000000000E+00 -0.20239246075E+03  0.20239246075E+03  0.00000000000E+00 0.  1.
    9000007    2    1    2  501    0  0.23106078832E+03  0.61680863973E+02  0.17896030681E+04  0.18495907977E+04  0.40138928830E+03 0.  0.
    9000005    1    3    3    0    0  0.22269313161E+02 -0.13041818053E+03  0.10348376536E+04  0.10432616131E+04  0.99999687468E+00 0.  0.
          4    1    3    3  501    0  0.20879147516E+03  0.19209904450E+03  0.75476541449E+03  0.80632918458E+03  0.00000000000E+00 0.  1.
   -9000007    1    1    2    0  503 -0.23106078832E+03 -0.61680863973E+02  0.14255991007E+03  0.48735710197E+03  0.40000000000E+03 0.  1.
<mgrwt>
<rscale>  2 0.46693480E+03</rscale>
<asrwt>0</asrwt>
<pdfrwt beam="1">  1       21 0.32839313E+00 0.46723332E+03</pdfrwt>
<pdfrwt beam="2">  1       21 0.31137303E-01 0.46723332E+03</pdfrwt>
<totfact> 0.17772005E+02</totfact>
</mgrwt>
</event>
<event>
 6    1  0.8739326E-004  0.4603485E+03  0.7818608E-02  0.1024722E+00
         21   -1    0    0  501  502  0.00000000000E+00  0.00000000000E+00  0.18217667920E+03  0.18217667920E+03  0.00000000000E+00 0.  1.
         21   -1    0    0  502  503 -0.00000000000E+00 -0.00000000000E+00 -0.13368480967E+04  0.13368480967E+04  0.00000000000E+00 0. -1.
    9000007    2    1    2  501    0 -0.19488602797E+03 -0.11806837347E+03 -0.30219854296E+03  0.55019522096E+03  0.39933709706E+03 0.  0.
    9000005    1    3    3    0    0 -0.16173276389E+03 -0.35761916122E+02 -0.39101256813E+03  0.42465071528E+03  0.99999687468E+00 0.  0.
          4    1    3    3  501    0 -0.33153264075E+02 -0.82306457344E+02  0.88814025168E+02  0.12554450568E+03  0.00000000000E+00 0.  1.
   -9000007    1    1    2    0  503  0.19488602797E+03  0.11806837347E+03 -0.85247287456E+03  0.96882955496E+03  0.40000000000E+03 0. -1.
<mgrwt>
<rscale>  2 0.46020442E+03</rscale>
<asrwt>0</asrwt>
<pdfrwt beam="1">  1       21 0.28027182E-01 0.46034846E+03</pdfrwt>
<pdfrwt beam="2">  1       21 0.20566894E+00 0.46034846E+03</pdfrwt>
<totfact> 0.12514344E+03</totfact>
</mgrwt>
</event>
<event>
 6    1  0.8739326E-004  0.4617839E+03  0.7818608E-02  0.1024360E+00
         21   -1    0    0  501  502  0.00000000000E+00  0.00000000000E+00  0.25980012482E+04  0.25980012482E+04  0.00000000000E+00 0. -1.
         21   -1    0    0  502  503 -0.00000000000E+00 -0.00000000000E+00 -0.82714133547E+02  0.82714133547E+02  0.00000000000E+00 0. -1.
    9000007    2    1    2  501    0 -0.13728866992E+03  0.18546214699E+03  0.11186108809E+04  0.12096787103E+04  0.39848198504E+03 0.  0.
    9000005    1    3    3    0    0 -0.27539459225E+03  0.13149255194E+03  0.64809911268E+03  0.71635600961E+03  0.99999687468E+00 0.  0.
          4    1    3    3  501    0  0.13810592232E+03  0.53969595046E+02  0.47051176821E+03  0.49332270067E+03  0.00000000000E+00 0.  1.
   -9000007    1    1    2    0  503  0.13728866992E+03 -0.18546214699E+03  0.13966762338E+04  0.14710366715E+04  0.40000000000E+03 0. -1.
<mgrwt>
<rscale>  2 0.46145499E+03</rscale>
<asrwt>0</asrwt>
<pdfrwt beam="1">  1       21 0.39969244E+00 0.46178392E+03</pdfrwt>
<pdfrwt beam="2">  1       21 0.12725253E-01 0.46178392E+03</pdfrwt>
<totfact> 0.35379169E+02</totfact>
</mgrwt>
</event>
<event>
 6    1  0.8739326E-004  0.5752677E+03  0.7818608E-02  0.9958330E-01
         21   -1    0    0  501  502  0.00000000000E+00  0.00000000000E+00  0.66281175567E+03  0.66281175567E+03  0.00000000000E+00 0. -1.
         21   -1    0    0  502  503 -0.00000000000E+00 -0.00000000000E+00 -0.51601162096E+03  0.51601162096E+03  0.00000000000E+00 0.  1.
    9000007    2    1    2  501    0 -0.39153316022E+03  0.13087832555E+03  0.18074488922E+03  0.60299388971E+03  0.40063145707E+03 0.  0.
    9000005    1    3    3    0    0 -0.28558815885E+03  0.17215993421E+03 -0.58075918448E+02  0.33848700377E+03  0.99999687468E+00 0.  0.
          4    1    3    3  501    0 -0.10594500137E+03 -0.41281608667E+02  0.23882080767E+03  0.26450688593E+03  0.00000000000E+00 0.  1.
   -9000007    1    1    2    0  503  0.39153316022E+03 -0.13087832555E+03 -0.33944754511E+02  0.57582948692E+03  0.40000000000E+03 0.  1.
<mgrwt>
<rscale>  2 0.57515776E+03</rscale>
<asrwt>0</asrwt>
<pdfrwt beam="1">  1       21 0.10197104E+00 0.57526769E+03</pdfrwt>
<pdfrwt beam="2">  1       21 0.79386403E-01 0.57526769E+03</pdfrwt>
<totfact> 0.88916507E+02</totfact>
</mgrwt>
</event>
<event>
 6    1  0.8739326E-004  0.6815711E+03  0.7818608E-02  0.9749359E-01
         21   -1    0    0  501  502  0.00000000000E+00  0.00000000000E+00  0.20611304501E+04  0.20611304501E+04  0.00000000000E+00 0.  1.
         21   -1    0    0  502  503 -0.00000000000E+00 -0.00000000000E+00 -0.27677172808E+03  0.27677172808E+03  0.00000000000E+00 0. -1.
    9000007    2    1    2  501    0 -0.45303605264E+03 -0.31511514318E+03  0.13960870326E+04  0.15534953174E+04  0.39968672752E+03 0.  0.
    9000005    1    3    3    0    0 -0.11356848897E+03  0.85715091687E+02  0.18486890744E+03  0.23328607237E+03  0.99999687468E+00 0.  0.
          4    1    3    3  501    0 -0.33946756367E+03 -0.40083023487E+03  0.12112181251E+04  0.13202092450E+04  0.00000000000E+00 0.  1.
   -9000007    1    1    2    0  503  0.45303605264E+03  0.31511514318E+03  0.38827168948E+03  0.78440686082E+03  0.40000000000E+03 0. -1.
<mgrwt>
<rscale>  2 0.68152518E+03</rscale>
<asrwt>0</asrwt>
<pdfrwt beam="1">  1       21 0.31709698E+00 0.68157114E+03</pdfrwt>
<pdfrwt beam="2">  1       21 0.42580267E-01 0.68157114E+03</pdfrwt>
<totfact> 0.98677426E+01</totfact>
</mgrwt>
</event>
<event>
 6    1  0.8739326E-004  0.4680810E+03  0.7818608E-02  0.1022509E+00
         21   -1    0    0  501  502  0.00000000000E+00  0.00000000000E+00  0.95657339412E+03  0.95657339412E+03  0.00000000000E+00 0. -1.
         21   -1    0    0  502  503 -0.00000000000E+00 -0.00000000000E+00 -0.22876422091E+03  0.22876422091E+03  0.00000000000E+00 0.  1.
    9000007    2    1    2  501    0 -0.23214974823E+03  0.72154903550E+02  0.37052493004E+03  0.59648120969E+03  0.39925089107E+03 0.  0.
    9000005    1    3    3    0    0  0.43178943715E+02 -0.16537179977E+02  0.29352574045E+03  0.29714686571E+03  0.99999687468E+00 0.  0.
          4    1    3    3  501    0 -0.27532869194E+03  0.88692083527E+02  0.76999189598E+02  0.29933434398E+03  0.00000000000E+00 0.  1.
   -9000007    1    1    2    0  503  0.23214974823E+03 -0.72154903550E+02  0.35728424316E+03  0.58885640535E+03  0.40000000000E+03 0. -1.
<mgrwt>
<rscale>  2 0.46792093E+03</rscale>
<asrwt>0</asrwt>
<pdfrwt beam="1">  1       21 0.14716514E+00 0.46808101E+03</pdfrwt>
<pdfrwt beam="2">  1       21 0.35194496E-01 0.46808101E+03</pdfrwt>
<totfact> 0.20826137E+03</totfact>
</mgrwt>
</event>
<event>
 6    1  0.8739326E-004  0.4110536E+03  0.7818608E-02  0.1040119E+00
         21   -1    0    0  501  502  0.00000000000E+00  0.00000000000E+00  0.11075479344E+03  0.11075479344E+03  0.00000000000E+00 0. -1.
         21   -1    0    0  502  503 -0.00000000000E+00 -0.00000000000E+00 -0.18933226522E+04  0.18933226522E+04  0.00000000000E+00 0. -1.
    9000007    2    1    2  501    0 -0.65724540639E+02 -0.68157065973E+02 -0.44593656059E+03  0.60566823224E+03  0.39875994105E+03 0.  0.
    9000005    1    3    3    0    0  0.15716479280E+03 -0.42025172891E+02 -0.92911499140E+02  0.18735109799E+03  0.99999687468E+00 0.  0.
          4    1    3    3  501    0 -0.22288933344E+03 -0.26131893082E+02 -0.35302506145E+03  0.41831713425E+03  0.00000000000E+00 0.  1.
   -9000007    1    1    2    0  503  0.65724540639E+02  0.68157065973E+02 -0.13366312982E+04  0.13984092134E+04  0.40000000000E+03 0. -1.
<mgrwt>
<rscale>  2 0.41075166E+03</rscale>
<asrwt>0</asrwt>
<pdfrwt beam="1">  1       21 0.17039200E-01 0.41105365E+03</pdfrwt>
<pdfrwt beam="2">  1       21 0.29128038E+00 0.41105365E+03</pdfrwt>
<totfact> 0.98435681E+02</totfact>
</mgrwt>
</event>
<event>
 6    1  0.8739326E-004  0.5260019E+03  0.7818608E-02  0.1007221E+00
         21   -1    0    0  501  502  0.00000000000E+00  0.00000000000E+00  0.67205069853E+03  0.67205069853E+03  0.00000000000E+00 0.  1.
         21   -1    0    0  502  503 -0.00000000000E+00 -0.00000000000E+00 -0.42560606024E+03  0.42560606024E+03  0.00000000000E+00 0.  1.
    9000007    2    1    2  501    0  0.22503021751E+03  0.25698138999E+03  0.22311166855E+03  0.57113756532E+03  0.39967645451E+03 0.  0.
    9000005    1    3    3    0    0 -0.44442017025E+02 -0.23411951097E+02  0.17165642498E+03  0.17885787811E+03  0.99999687468E+00 0.  0.
          4    1    3    3  501    0  0.26947223454E+03  0.28039334108E+03  0.51455243566E+02  0.39227968721E+03  0.00000000000E+00 0.  1.
   -9000007    1    1    2    0  503 -0.22503021751E+03 -0.25698138999E+03  0.23332969735E+02  0.52651919345E+03  0.40000000000E+03 0.  1.
<mgrwt>
<rscale>  2 0.52594042E+03</rscale>
<asrwt>0</asrwt>
<pdfrwt beam="1">  1       21 0.10339242E+00 0.52600193E+03</pdfrwt>
<pdfrwt beam="2">  1       21 0.65477855E-01 0.52600193E+03</pdfrwt>
<totfact> 0.13537658E+03</totfact>
</mgrwt>
</event>
<event>
 6    1  0.8739326E-004  0.5170383E+03  0.7818608E-02  0.1009433E+00
         21   -1    0    0  501  502  0.00000000000E+00  0.00000000000E+00  0.10324363243E+04  0.10324363243E+04  0.00000000000E+00 0.  1.
         21   -1    0    0  502  503 -0.00000000000E+00 -0.00000000000E+00 -0.42475989923E+03  0.42475989923E+03  0.00000000000E+00 0. -1.
    9000007    2    1    2  501    0 -0.31925401484E+03 -0.72591515540E+02  0.75919994143E+03  0.91853860486E+03  0.40016991820E+03 0.  0.
    9000005    1    3    3    0    0  0.29973272314E+02 -0.62727866886E+02 -0.13228255905E+02  0.70775483646E+02  0.99999687468E+00 0.  0.
          4    1    3    3  501    0 -0.34922728715E+03 -0.98636486545E+01  0.77242819733E+03  0.84776312121E+03  0.00000000000E+00 0.  1.
   -9000007    1    1    2    0  503  0.31925401484E+03  0.72591515540E+02 -0.15152351638E+03  0.53865761865E+03  0.40000000000E+03 0. -1.
<mgrwt>
<rscale>  2 0.51700544E+03</rscale>
<asrwt>0</asrwt>
<pdfrwt beam="1">  1       21 0.15883636E+00 0.51703831E+03</pdfrwt>
<pdfrwt beam="2">  1       21 0.65347677E-01 0.51703831E+03</pdfrwt>
<totfact> 0.44572130E+02</totfact>
</mgrwt>
</event>
<event>
 6    1  0.8739326E-004  0.4427291E+03  0.7818608E-02  0.1029935E+00
         21   -1    0    0  501  502  0.00000000000E+00  0.00000000000E+00  0.38621675635E+03  0.38621675635E+03  0.00000000000E+00 0. -1.
         21   -1    0    0  502  503 -0.00000000000E+00 -0.00000000000E+00 -0.86483021890E+03  0.86483021890E+03  0.00000000000E+00 0. -1.
    9000007    2    1    2  501    0  0.66683465111E+02  0.17765799841E+03  0.16300332802E+03  0.47150790962E+03  0.39967558715E+03 0.  0.
    9000005    1    3    3    0    0  0.15208858250E+03  0.22845095182E+03  0.22456628110E+03  0.35461498688E+03  0.99999687468E+00 0.  0.
          4    1    3    3  501    0 -0.85405117392E+02 -0.50792953411E+02 -0.61562953088E+02  0.11689292274E+03  0.00000000000E+00 0.  1.
   -9000007    1    1    2    0  503 -0.66683465111E+02 -0.17765799841E+03 -0.64161679056E+03  0.77953906564E+03  0.40000000000E+03 0. -1.
<mgrwt>
<rscale>  2 0.44265580E+03</rscale>
<asrwt>0</asrwt>
<pdfrwt beam="1">  1       21 0.59417963E-01 0.44272909E+03</pdfrwt>
<pdfrwt beam="2">  1       21 0.13305080E+00 0.44272909E+03</pdfrwt>
<totfact> 0.91489710E+02</totfact>
</mgrwt>
</event>
<event>
 6    1  0.8739326E-004  0.4499758E+03  0.7818608E-02  0.1027731E+00
         21   -1    0    0  501  502  0.00000000000E+00  0.00000000000E+00  0.24565714708E+03  0.24565714708E+03  0.00000000000E+00 0.  1.
         21   -1    0    0  502  503 -0.00000000000E+00 -0.00000000000E+00 -0.12997484252E+04  0.12997484252E+04  0.00000000000E+00 0.  1.
    9000007    2    1    2  501    0 -0.14241436278E+03 -0.14898433857E+03 -0.59643627469E+02  0.45389088444E+03  0.39997673535E+03 0.  0.
    9000005    1    3    3    0    0  0.46633010774E+02 -0.14842590295E+03 -0.17362960841E+03  0.23313757156E+03  0.99999687468E+00 0.  0.
          4    1    3    3  501    0 -0.18904737356E+03 -0.55843562234E+00  0.11398598094E+03  0.22075331289E+03  0.00000000000E+00 0.  1.
   -9000007    1    1    2    0  503  0.14241436278E+03  0.14898433857E+03 -0.99444765063E+03  0.10915146878E+04  0.40000000000E+03 0.  1.
<mgrwt>
<rscale>  2 0.44997059E+03</rscale>
<asrwt>0</asrwt>
<pdfrwt beam="1">  1       21 0.37793407E-01 0.44997576E+03</pdfrwt>
<pdfrwt beam="2">  1       21 0.19996130E+00 0.44997576E+03</pdfrwt>
<totfact> 0.75286594E+02</totfact>
</mgrwt>
</event>
<event>
 6    1  0.8739326E-004  0.4635790E+03  0.7818608E-02  0.1023769E+00
         21   -1    0    0  501  502  0.00000000000E+00  0.00000000000E+00  0.23566416509E+03  0.23566416509E+03  0.00000000000E+00 0. -1.
         21   -1    0    0  502  503 -0.00000000000E+00 -0.00000000000E+00 -0.10281292363E+04  0.10281292363E+04  0.00000000000E+00 0.  1.
    9000007    2    1    2  501    0 -0.13804642930E+03 -0.18933743017E+03 -0.60908929893E+03  0.76526340936E+03  0.39966590114E+03 0.  0.
    9000005    1    3    3    0    0 -0.26178898427E+03 -0.65175649332E+02 -0.26021443856E+03  0.37482514801E+03  0.99999687468E+00 0.  0.
          4    1    3    3  501    0  0.12374255497E+03 -0.12416178084E+03 -0.34887486037E+03  0.39043826136E+03  0.00000000000E+00 0.  1.
   -9000007    1    1    2    0  503  0.13804642930E+03  0.18933743017E+03 -0.18337577231E+03  0.49852999205E+03  0.40000000000E+03 0. -1.
<mgrwt>
<rscale>  2 0.46350691E+03</rscale>
<asrwt>0</asrwt>
<pdfrwt beam="1">  1       21 0.36256026E-01 0.46357899E+03</pdfrwt>
<pdfrwt beam="2">  1       21 0.15817373E+00 0.46357899E+03</pdfrwt>
<totfact> 0.16122506E+03</totfact>
</mgrwt>
</event>
<event>
 6    1  0.8739326E-004  0.4212242E+03  0.7818608E-02  0.1036753E+00
         21   -1    0    0  501  502  0.00000000000E+00  0.00000000000E+00  0.62825919492E+03  0.62825919492E+03  0.00000000000E+00 0. -1.
         21   -1    0    0  502  503 -0.00000000000E+00 -0.00000000000E+00 -0.28356938080E+03  0.28356938080E+03  0.00000000000E+00 0. -1.
    9000007    2    1    2  501    0  0.12114342041E+03 -0.52479499888E+02  0.20897836947E+03  0.46928205565E+03  0.39890332491E+03 0.  0.
    9000005    1    3    3    0    0 -0.49209326706E+02  0.30651182166E+02 -0.94851986641E+02  0.11117082426E+03  0.99999687468E+00 0.  0.
          4    1    3    3  501    0  0.17035274712E+03 -0.83130682055E+02  0.30383035611E+03  0.35811123139E+03  0.00000000000E+00 0.  1.
   -9000007    1    1    2    0  503 -0.12114342041E+03  0.52479499888E+02  0.13571144465E+03  0.44254652007E+03  0.40000000000E+03 0.  1.
<mgrwt>
<rscale>  2 0.42096364E+03</rscale>
<asrwt>0</asrwt>
<pdfrwt beam="1">  1       21 0.96655261E-01 0.42122420E+03</pdfrwt>
<pdfrwt beam="2">  1       21 0.43626059E-01 0.42122420E+03</pdfrwt>
<totfact> 0.39678866E+03</totfact>
</mgrwt>
</event>
<event>
 6    1  0.8739326E-004  0.4296186E+03  0.7818608E-02  0.1034025E+00
         21   -1    0    0  501  502  0.00000000000E+00  0.00000000000E+00  0.36466915030E+03  0.36466915030E+03  0.00000000000E+00 0. -1.
         21   -1    0    0  502  503 -0.00000000000E+00 -0.00000000000E+00 -0.51733573179E+03  0.51733573179E+03  0.00000000000E+00 0. -1.
    9000007    2    1    2  501    0 -0.15430377235E+03  0.16747557173E+02 -0.96068733658E+01  0.42972596933E+03  0.40060202430E+03 0.  0.
    9000005    1    3    3    0    0 -0.18811918724E+03  0.16133090155E+03  0.74875370587E+02  0.25888957012E+03  0.99999687468E+00 0.  0.
          4    1    3    3  501    0  0.33815414888E+02 -0.14458334437E+03 -0.84482243953E+02  0.17083639922E+03  0.00000000000E+00 0.  1.
   -9000007    1    1    2    0  503  0.15430377235E+03 -0.16747557173E+02 -0.14305970812E+03  0.45227891275E+03  0.40000000000E+03 0. -1.
<mgrwt>
<rscale>  2 0.42947818E+03</rscale>
<asrwt>0</asrwt>
<pdfrwt beam="1">  1       21 0.56102946E-01 0.42961857E+03</pdfrwt>
<pdfrwt beam="2">  1       21 0.79590112E-01 0.42961857E+03</pdfrwt>
<totfact> 0.36637838E+03</totfact>
</mgrwt>
</event>
<event>
 6    1  0.8739326E-004  0.4244145E+03  0.7818608E-02  0.1035644E+00
         21   -1    0    0  501  502  0.00000000000E+00  0.00000000000E+00  0.13765469144E+04  0.13765469144E+04  0.00000000000E+00 0. -1.
         21   -1    0    0  502  503 -0.00000000000E+00 -0.00000000000E+00 -0.19024934036E+03  0.19024934036E+03  0.00000000000E+00 0. -1.
    9000007    2    1    2  501    0  0.47663531223E+02  0.13344802522E+03  0.10309572672E+04  0.11148993654E+04  0.40005939622E+03 0.  0.
    9000005    1    3    3    0    0  0.75912769250E+02  0.25065958452E+03  0.89801342222E+03  0.93542615012E+03  0.99999687468E+00 0.  0.
          4    1    3    3  501    0 -0.28249238027E+02 -0.11721155930E+03  0.13294384503E+03  0.17947321531E+03  0.00000000000E+00 0.  1.
   -9000007    1    1    2    0  503 -0.47663531223E+02 -0.13344802522E+03  0.15534030675E+03  0.45189688929E+03  0.40000000000E+03 0. -1.
<mgrwt>
<rscale>  2 0.42440055E+03</rscale>
<asrwt>0</asrwt>
<pdfrwt beam="1">  1       21 0.21177644E+00 0.42441455E+03</pdfrwt>
<pdfrwt beam="2">  1       21 0.29269130E-01 0.42441455E+03</pdfrwt>
<totfact> 0.10656129E+03</totfact>
</mgrwt>
</event>
<event>
 6    1  0.8739326E-004  0.4604839E+03  0.7818608E-02  0.1024663E+00
         21   -1    0    0  501  502  0.00000000000E+00  0.00000000000E+00  0.38104086508E+03  0.38104086508E+03  0.00000000000E+00 0. -1.
         21   -1    0    0  502  503 -0.00000000000E+00 -0.00000000000E+00 -0.73326753197E+03  0.73326753197E+03  0.00000000000E+00 0. -1.
    9000007    2    1    2  501    0 -0.19289652945E+03  0.12066007835E+03  0.97687786306E+02  0.47073171880E+03  0.40034675209E+03 0.  0.
    9000005    1    3    3    0    0 -0.20956584127E+03  0.42975703436E+02  0.23143597688E+03  0.31516402761E+03  0.99999687468E+00 0.  0.
          4    1    3    3  501    0  0.16669311814E+02  0.77684374911E+02 -0.13374819057E+03  0.15556769119E+03  0.00000000000E+00 0.  1.
   -9000007    1    1    2    0  503  0.19289652945E+03 -0.12066007835E+03 -0.44991445320E+03  0.64357667824E+03  0.40000000000E+03 0. -1.
<mgrwt>
<rscale>  2 0.46040855E+03</rscale>
<asrwt>0</asrwt>
<pdfrwt beam="1">  1       21 0.58621671E-01 0.46048393E+03</pdfrwt>
<pdfrwt beam="2">  1       21 0.11281039E+00 0.46048393E+03</pdfrwt>
<totfact> 0.14256835E+03</totfact>
</mgrwt>
</event>
<event>
 6    1  0.8739326E-004  0.4191252E+03  0.7818608E-02  0.1037388E+00
         21   -1    0    0  501  502  0.00000000000E+00  0.00000000000E+00  0.43412164573E+03  0.43412164573E+03  0.00000000000E+00 0. -1.
         21   -1    0    0  502  503 -0.00000000000E+00 -0.00000000000E+00 -0.40545628910E+03  0.40545628910E+03  0.00000000000E+00 0. -1.
    9000007    2    1    2  501    0 -0.50985826432E+02 -0.11267391599E+03  0.37525650667E+02  0.42080177665E+03  0.40046347516E+03 0.  0.
    9000005    1    3    3    0    0 -0.52961105702E+00 -0.97204036479E+00  0.20956246437E+03  0.20956777381E+03  0.99999687468E+00 0.  0.
          4    1    3    3  501    0 -0.50456215375E+02 -0.11170187562E+03 -0.17203681371E+03  0.21123400285E+03  0.00000000000E+00 0.  1.
   -9000007    1    1    2    0  503  0.50985826432E+02  0.11267391599E+03 -0.88602940402E+01  0.41877615817E+03  0.40000000000E+03 0. -1.
<mgrwt>
<rscale>  2 0.41901448E+03</rscale>
<asrwt>0</asrwt>
<pdfrwt beam="1">  1       21 0.66787946E-01 0.41912523E+03</pdfrwt>
<pdfrwt beam="2">  1       21 0.62377890E-01 0.41912523E+03</pdfrwt>
<totfact> 0.43414217E+03</totfact>
</mgrwt>
</event>
<event>
 6    1  0.8739326E-004  0.4006683E+03  0.7818608E-02  0.1043583E+00
         21   -1    0    0  501  502  0.00000000000E+00  0.00000000000E+00  0.27374005850E+03  0.27374005850E+03  0.00000000000E+00 0.  1.
         21   -1    0    0  502  503 -0.00000000000E+00 -0.00000000000E+00 -0.71474476544E+03  0.71474476544E+03  0.00000000000E+00 0.  1.
    9000007    2    1    2  501    0  0.22760099508E+02  0.41332424366E+01 -0.10544891951E+02  0.40041105463E+03  0.39960319331E+03 0.  0.
    9000005    1    3    3    0    0  0.81290366832E+02 -0.66485534487E+02 -0.17961431657E+03  0.20806429955E+03  0.99999687468E+00 0.  0.
          4    1    3    3  501    0 -0.58530267325E+02  0.70618776924E+02  0.16906942462E+03  0.19234675508E+03  0.00000000000E+00 0.  1.
   -9000007    1    1    2    0  503 -0.22760099508E+02 -0.41332424366E+01 -0.43045981499E+03  0.58807376931E+03  0.40000000000E+03 0.  1.
<mgrwt>
<rscale>  2 0.40056925E+03</rscale>
<asrwt>0</asrwt>
<pdfrwt beam="1">  1       21 0.42113855E-01 0.40066832E+03</pdfrwt>
<pdfrwt beam="2">  1       21 0.10996073E+00 0.40066832E+03</pdfrwt>
<totfact> 0.31407097E+03</totfact>
</mgrwt>
</event>
<event>
 6    1  0.8739326E-004  0.4152839E+03  0.7818608E-02  0.1038678E+00
         21   -1    0    0  501  502  0.00000000000E+00  0.00000000000E+00  0.26146571959E+03  0.26146571959E+03  0.00000000000E+00 0. -1.
         21   -1    0    0  502  503 -0.00000000000E+00 -0.00000000000E+00 -0.70613233024E+03  0.70613233024E+03  0.00000000000E+00 0. -1.
    9000007    2    1    2  501    0  0.80735438961E+02  0.77087458503E+02 -0.96256717259E+02  0.42551858962E+03  0.39917418145E+03 0.  0.
    9000005    1    3    3    0    0  0.23213946632E+03  0.35046664539E+01 -0.11477369522E+01  0.23217091076E+03  0.99999687468E+00 0.  0.
          4    1    3    3  501    0 -0.15140402736E+03  0.73582792049E+02 -0.95108980306E+02  0.19334767886E+03  0.00000000000E+00 0.  1.
   -9000007    1    1    2    0  503 -0.80735438961E+02 -0.77087458503E+02 -0.34840989339E+03  0.54207946020E+03  0.40000000000E+03 0. -1.
<mgrwt>
<rscale>  2 0.41508488E+03</rscale>
<asrwt>0</asrwt>
<pdfrwt beam="1">  1       21 0.40225495E-01 0.41528386E+03</pdfrwt>
<pdfrwt beam="2">  1       21 0.10863574E+00 0.41528386E+03</pdfrwt>
<totfact> 0.35371995E+03</totfact>
</mgrwt>
</event>
<event>
 6    1  0.8739326E-004  0.6714117E+03  0.7818608E-02  0.9767577E-01
         21   -1    0    0  501  502  0.00000000000E+00  0.00000000000E+00  0.52161874328E+03  0.52161874328E+03  0.00000000000E+00 0. -1.
         21   -1    0    0  502  503 -0.00000000000E+00 -0.00000000000E+00 -0.13295574541E+04  0.13295574541E+04  0.00000000000E+00 0.  1.
    9000007    2    1    2  501    0 -0.49664823559E+03  0.20889842425E+03  0.14381838300E+03  0.68664213296E+03  0.40061910825E+03 0.  0.
    9000005    1    3    3    0    0 -0.40697306024E+03  0.28682168468E+03  0.22124866842E+03  0.54483550163E+03  0.99999687468E+00 0.  0.
          4    1    3    3  501    0 -0.89675175357E+02 -0.77923260430E+02 -0.77430285415E+02  0.14180663134E+03  0.00000000000E+00 0.  1.
   -9000007    1    1    2    0  503  0.49664823559E+03 -0.20889842425E+03 -0.95175709384E+03  0.11645340644E+04  0.40000000000E+03 0.  1.
<mgrwt>
<rscale>  2 0.67131939E+03</rscale>
<asrwt>0</asrwt>
<pdfrwt beam="1">  1       21 0.80249037E-01 0.67141172E+03</pdfrwt>
<pdfrwt beam="2">  1       21 0.20454730E+00 0.67141172E+03</pdfrwt>
<totfact> 0.12439457E+02</totfact>
</mgrwt>
</event>
<event>
 6    1  0.8739326E-004  0.4261040E+03  0.7818608E-02  0.1035132E+00
         21   -1    0    0  501  502  0.00000000000E+00  0.00000000000E+00  0.93367899143E+03  0.93367899143E+03  0.00000000000E+00 0. -1.
         21   -1    0    0  502  503 -0.00000000000E+00 -0.00000000000E+00 -0.19597339043E+03  0.19597339043E+03  0.00000000000E+00 0. -1.
    9000007    2    1    2  501    0 -0.10536877600E+03 -0.10048362550E+03  0.31631483553E+03  0.53067849665E+03  0.40045605711E+03 0.  0.
    9000005    1    3    3    0    0 -0.16662143553E+01  0.83380297944E+02  0.30835551430E+03  0.31943571113E+03  0.99999687468E+00 0.  0.
          4    1    3    3  501    0 -0.10370256165E+03 -0.18386392345E+03  0.79593212358E+01  0.21124278551E+03  0.00000000000E+00 0.  1.
   -9000007    1    1    2    0  503  0.10536877600E+03  0.10048362550E+03  0.42139076547E+03  0.59897388522E+03  0.40000000000E+03 0.  1.
<mgrwt>
<rscale>  2 0.42599678E+03</rscale>
<asrwt>0</asrwt>
<pdfrwt beam="1">  1       21 0.14364292E+00 0.42610397E+03</pdfrwt>
<pdfrwt beam="2">  1       21 0.30149753E-01 0.42610397E+03</pdfrwt>
<totfact> 0.30812671E+03</totfact>
</mgrwt>
</event>
<event>
 6    1  0.8739326E-004  0.4120407E+03  0.7818608E-02  0.1039702E+00
         21   -1    0    0  501  502  0.00000000000E+00  0.00000000000E+00  0.33818327413E+03  0.33818327413E+03  0.00000000000E+00 0. -1.
         21   -1    0    0  502  503 -0.00000000000E+00 -0.00000000000E+00 -0.94244362559E+03  0.94244362559E+03  0.00000000000E+00 0. -1.
    9000007    2    1    2  501    0  0.98876827887E+02 -0.96687029839E+00  0.13572497970E+03  0.43365827442E+03  0.39982579572E+03 0.  0.
    9000005    1    3    3    0    0  0.16375331364E+03  0.16076137387E+03  0.11928324975E+03  0.25862880876E+03  0.99999687468E+00 0.  0.
          4    1    3    3  501    0 -0.64876485751E+02 -0.16172824417E+03  0.16441729943E+02  0.17502946566E+03  0.00000000000E+00 0.  1.
   -9000007    1    1    2    0  503 -0.98876827887E+02  0.96687029839E+00 -0.73998533116E+03  0.84696862531E+03  0.40000000000E+03 0. -1.
<mgrwt>
<rscale>  2 0.41199844E+03</rscale>
<asrwt>0</asrwt>
<pdfrwt beam="1">  1       21 0.52028197E-01 0.41204073E+03</pdfrwt>
<pdfrwt beam="2">  1       21 0.14499132E+00 0.41204073E+03</pdfrwt>
<totfact> 0.98446588E+02</totfact>
</mgrwt>
</event>
<event>
 6    1  0.8739326E-004  0.4417847E+03  0.7818608E-02  0.1030215E+00
         21   -1    0    0  501  502  0.00000000000E+00  0.00000000000E+00  0.40534289882E+03  0.40534289882E+03  0.00000000000E+00 0. -1.
         21   -1    0    0  502  503 -0.00000000000E+00 -0.00000000000E+00 -0.70200698941E+03  0.70200698941E+03  0.00000000000E+00 0.  1.
    9000007    2    1    2  501    0 -0.12638932363E+03  0.13797882175E+03  0.16209466724E+03  0.47058304372E+03  0.40020157860E+03 0.  0.
    9000005    1    3    3    0    0 -0.43673303815E+01  0.66394625488E+02  0.27914548096E+03  0.28696780203E+03  0.99999687468E+00 0.  0.
          4    1    3    3  501    0 -0.12202199325E+03  0.71584196257E+02 -0.11705081372E+03  0.18361524169E+03  0.00000000000E+00 0.  1.
   -9000007    1    1    2    0  503  0.12638932363E+03 -0.13797882175E+03 -0.45875875784E+03  0.63676684451E+03  0.40000000000E+03 0.  1.
<mgrwt>
<rscale>  2 0.44173904E+03</rscale>
<asrwt>0</asrwt>
<pdfrwt beam="1">  1       21 0.62360447E-01 0.44178470E+03</pdfrwt>
<pdfrwt beam="2">  1       21 0.10800107E+00 0.44178470E+03</pdfrwt>
<totfact> 0.13973185E+03</totfact>
</mgrwt>
</event>
<event>
 6    1  0.8739326E-004  0.4292444E+03  0.7818608E-02  0.1034126E+00
         21   -1    0    0  501  502  0.00000000000E+00  0.00000000000E+00  0.76043839798E+03  0.76043839798E+03  0.00000000000E+00 0. -1.
         21   -1    0    0  502  503 -0.00000000000E+00 -0.00000000000E+00 -0.24212540152E+03  0.24212540152E+03  0.00000000000E+00 0. -1.
    9000007    2    1    2  501    0 -0.12063517800E+03  0.98477814983E+02  0.26375057923E+03  0.50351194801E+03  0.39963631908E+03 0.  0.
    9000005    1    3    3    0    0 -0.21719245449E+03  0.18556111645E+03  0.23603250851E+03  0.37056421210E+03  0.99999687468E+00 0.  0.
          4    1    3    3  501    0  0.96557276490E+02 -0.87083301466E+02  0.27718070723E+02  0.13294773590E+03  0.00000000000E+00 0.  1.
   -9000007    1    1    2    0  503  0.12063517800E+03 -0.98477814983E+02  0.25456241723E+03  0.49905185150E+03  0.40000000000E+03 0. -1.
<mgrwt>
<rscale>  2 0.42915962E+03</rscale>
<asrwt>0</asrwt>
<pdfrwt beam="1">  1       21 0.11699052E+00 0.42924437E+03</pdfrwt>
<pdfrwt beam="2">  1       21 0.37250062E-01 0.42924437E+03</pdfrwt>
<totfact> 0.34250253E+03</totfact>
</mgrwt>
</event>
<event>
 6    1  0.8739326E-004  0.5028495E+03  0.7818608E-02  0.1013044E+00
         21   -1    0    0  501  502  0.00000000000E+00  0.00000000000E+00  0.23452514466E+04  0.23452514466E+04  0.00000000000E+00 0. -1.
         21   -1    0    0  502  503 -0.00000000000E+00 -0.00000000000E+00 -0.12754773662E+03  0.12754773662E+03  0.00000000000E+00 0.  1.
    9000007    2    1    2  501    0 -0.30021192975E+03  0.52253795515E+02  0.15953005382E+04  0.16726470913E+04  0.39988351188E+03 0.  0.
    9000005    1    3    3    0    0  0.43242672921E+01 -0.82077555442E+02  0.87849813484E+03  0.88233519555E+03  0.99999687468E+00 0.  0.
          4    1    3    3  501    0 -0.30453619704E+03  0.13433135096E+03  0.71680240332E+03  0.79031189575E+03  0.00000000000E+00 0.  1.
   -9000007    1    1    2    0  503  0.30021192975E+03 -0.52253795515E+02  0.62240317184E+03  0.80015209194E+03  0.40000000000E+03 0.  1.
<mgrwt>
<rscale>  2 0.50282638E+03</rscale>
<asrwt>0</asrwt>
<pdfrwt beam="1">  1       21 0.36080788E+00 0.50284954E+03</pdfrwt>
<pdfrwt beam="2">  1       21 0.19622730E-01 0.50284954E+03</pdfrwt>
<totfact> 0.27060549E+02</totfact>
</mgrwt>
</event>
<event>
 6    1  0.8739326E-004  0.4930992E+03  0.7818608E-02  0.1015611E+00
         21   -1    0    0  501  502  0.00000000000E+00  0.00000000000E+00  0.30786371502E+03  0.30786371502E+03  0.00000000000E+00 0.  1.
         21   -1    0    0  502  503 -0.00000000000E+00 -0.00000000000E+00 -0.88045427465E+03  0.88045427465E+03  0.00000000000E+00 0.  1.
    9000007    2    1    2  501    0  0.17166629500E+03  0.23121316131E+03 -0.95314645589E+02  0.50222678515E+03  0.40027243130E+03 0.  0.
    9000005    1    3    3    0    0 -0.45850630506E+02  0.44220946954E+02  0.12515987615E+03  0.14044132960E+03  0.99999687468E+00 0.  0.
          4    1    3    3  501    0  0.21751692551E+03  0.18699221436E+03 -0.22047452174E+03  0.36178545555E+03  0.00000000000E+00 0.  1.
   -9000007    1    1    2    0  503 -0.17166629500E+03 -0.23121316131E+03 -0.47727591404E+03  0.68609120453E+03  0.40000000000E+03 0.  1.
<mgrwt>
<rscale>  2 0.49304395E+03</rscale>
<asrwt>0</asrwt>
<pdfrwt beam="1">  1       21 0.47363649E-01 0.49309924E+03</pdfrwt>
<pdfrwt beam="2">  1       21 0.13545450E+00 0.49309924E+03</pdfrwt>
<totfact> 0.13926898E+03</totfact>
</mgrwt>
</event>
<event>
 6    1  0.8739326E-004  0.6428682E+03  0.7818608E-02  0.9820408E-01
         21   -1    0    0  501  502  0.00000000000E+00  0.00000000000E+00  0.11252840415E+04  0.11252840415E+04  0.00000000000E+00 0. -1.
         21   -1    0    0  502  503 -0.00000000000E+00 -0.00000000000E+00 -0.51456823243E+03  0.51456823243E+03  0.00000000000E+00 0.  1.
    9000007    2    1    2  501    0 -0.78101234327E+02 -0.49717171908E+03  0.74426665094E+03  0.98325852701E+03  0.39948086583E+03 0.  0.
    9000005    1    3    3    0    0 -0.88486692408E+02 -0.53115872585E+03  0.49485885274E+03  0.73133150548E+03  0.99999687468E+00 0.  0.
          4    1    3    3  501    0  0.10385458082E+02  0.33987006768E+02  0.24940779821E+03  0.25192702153E+03  0.00000000000E+00 0.  1.
   -9000007    1    1    2    0  503  0.78101234327E+02  0.49717171908E+03 -0.13355084193E+03  0.65659374688E+03  0.40000000000E+03 0. -1.
<mgrwt>
<rscale>  2 0.64278746E+03</rscale>
<asrwt>0</asrwt>
<pdfrwt beam="1">  1       21 0.17312062E+00 0.64286820E+03</pdfrwt>
<pdfrwt beam="2">  1       21 0.79164344E-01 0.64286820E+03</pdfrwt>
<totfact> 0.21496180E+02</totfact>
</mgrwt>
</event>
<event>
 6    1  0.8739326E-004  0.5984809E+03  0.7818608E-02  0.9908592E-01
         21   -1    0    0  501  502  0.00000000000E+00  0.00000000000E+00  0.81417718992E+03  0.81417718992E+03  0.00000000000E+00 0. -1.
         21   -1    0    0  502  503 -0.00000000000E+00 -0.00000000000E+00 -0.15908697036E+04  0.15908697036E+04  0.00000000000E+00 0.  1.
    9000007    2    1    2  501    0 -0.42743387595E+03 -0.12414671531E+03  0.63449574375E+03  0.87221799794E+03  0.40008406848E+03 0.  0.
    9000005    1    3    3    0    0 -0.48294347967E+03 -0.13688084018E+03  0.64181343642E+03  0.81479829168E+03  0.99999687468E+00 0.  0.
          4    1    3    3  501    0  0.55509603716E+02  0.12734124871E+02 -0.73176926661E+01  0.57419706259E+02  0.00000000000E+00 0.  1.
   -9000007    1    1    2    0  503  0.42743387595E+03  0.12414671531E+03 -0.14111882574E+04  0.15328288956E+04  0.40000000000E+03 0.  1.
<mgrwt>
<rscale>  2 0.59846685E+03</rscale>
<asrwt>0</asrwt>
<pdfrwt beam="1">  1       21 0.12525803E+00 0.59848090E+03</pdfrwt>
<pdfrwt beam="2">  1       21 0.24474918E+00 0.59848090E+03</pdfrwt>
<totfact> 0.23672258E+01</totfact>
</mgrwt>
</event>
<event>
 6    1  0.8739326E-004  0.4993788E+03  0.7818608E-02  0.1013981E+00
         21   -1    0    0  501  502  0.00000000000E+00  0.00000000000E+00  0.21529501527E+04  0.21529501527E+04  0.00000000000E+00 0. -1.
         21   -1    0    0  502  503 -0.00000000000E+00 -0.00000000000E+00 -0.18883550851E+03  0.18883550851E+03  0.00000000000E+00 0. -1.
    9000007    2    1    2  501    0 -0.85345963910E+02 -0.28545258155E+03  0.17111650831E+04  0.17825445770E+04  0.40076441641E+03 0.  0.
    9000005    1    3    3    0    0 -0.16897844553E+02 -0.18225288001E+03  0.16160863925E+04  0.16264187276E+04  0.99999687468E+00 0.  0.
          4    1    3    3  501    0 -0.68448119356E+02 -0.10319970154E+03  0.95078690566E+02  0.15612584937E+03  0.00000000000E+00 0.  1.
   -9000007    1    1    2    0  503  0.85345963910E+02  0.28545258155E+03  0.25294956117E+03  0.55924108430E+03  0.40000000000E+03 0. -1.
<mgrwt>
<rscale>  2 0.49922546E+03</rscale>
<asrwt>0</asrwt>
<pdfrwt beam="1">  1       21 0.33122308E+00 0.49937884E+03</pdfrwt>
<pdfrwt beam="2">  1       21 0.29051618E-01 0.49937884E+03</pdfrwt>
<totfact> 0.19236618E+02</totfact>
</mgrwt>
</event>
<event>
 6    1  0.8739326E-004  0.4919600E+03  0.7818608E-02  0.1015904E+00
         21   -1    0    0  501  502  0.00000000000E+00  0.00000000000E+00  0.67802452860E+03  0.67802452860E+03  0.00000000000E+00 0.  1.
         21   -1    0    0  502  503 -0.00000000000E+00 -0.00000000000E+00 -0.36305543769E+03  0.36305543769E+03  0.00000000000E+00 0.  1.
    9000007    2    1    2  501    0  0.19389176177E+03 -0.21062864993E+03  0.22523720419E+03  0.54106971145E+03  0.40008273025E+03 0.  0.
    9000005    1    3    3    0    0  0.19985660151E+03 -0.21202803209E+03 -0.23440432685E+02  0.29231661164E+03  0.99999687468E+00 0.  0.
          4    1    3    3  501    0 -0.59648397408E+01  0.13993821654E+01  0.24867763688E+03  0.24875309981E+03  0.00000000000E+00 0.  1.
   -9000007    1    1    2    0  503 -0.19389176177E+03  0.21062864993E+03  0.89731886720E+02  0.50001025484E+03  0.40000000000E+03 0.  1.
<mgrwt>
<rscale>  2 0.49194317E+03</rscale>
<asrwt>0</asrwt>
<pdfrwt beam="1">  1       21 0.10431147E+00 0.49195999E+03</pdfrwt>
<pdfrwt beam="2">  1       21 0.55854683E-01 0.49195999E+03</pdfrwt>
<totfact> 0.19010959E+03</totfact>
</mgrwt>
</event>
<event>
 6    1  0.8739326E-004  0.4205968E+03  0.7818608E-02  0.1036875E+00
         21   -1    0    0  501  502  0.00000000000E+00  0.00000000000E+00  0.83362100547E+03  0.83362100547E+03  0.00000000000E+00 0. -1.
         21   -1    0    0  502  503 -0.00000000000E+00 -0.00000000000E+00 -0.27204344900E+03  0.27204344900E+03  0.00000000000E+00 0. -1.
    9000007    2    1    2  501    0  0.12969696021E+03 -0.89647258802E+01  0.21471303097E+02  0.42110880828E+03  0.39996242793E+03 0.  0.
    9000005    1    3    3    0    0  0.19018431468E+03 -0.82710369092E+02  0.15365108605E+03  0.25810992802E+03  0.99999687468E+00 0.  0.
          4    1    3    3  501    0 -0.60487354468E+02  0.73745643212E+02 -0.13217978295E+03  0.16299888026E+03  0.00000000000E+00 0.  1.
   -9000007    1    1    2    0  503 -0.12969696021E+03  0.89647258802E+01  0.54010625337E+03  0.68455564619E+03  0.40000000000E+03 0. -1.
<mgrwt>
<rscale>  2 0.42058787E+03</rscale>
<asrwt>0</asrwt>
<pdfrwt beam="1">  1       21 0.12824938E+00 0.42059680E+03</pdfrwt>
<pdfrwt beam="2">  1       21 0.41852839E-01 0.42059680E+03</pdfrwt>
<totfact> 0.21397230E+03</totfact>
</mgrwt>
</event>
<event>
 6    1  0.8739326E-004  0.7547102E+03  0.7818608E-02  0.9628043E-01
         21   -1    0    0  501  502  0.00000000000E+00  0.00000000000E+00  0.25077169338E+04  0.25077169338E+04  0.00000000000E+00 0. -1.
         21   -1    0    0  502  503 -0.00000000000E+00 -0.00000000000E+00 -0.23079617291E+03  0.23079617291E+03  0.00000000000E+00 0.  1.
    9000007    2    1    2  501    0  0.61862364517E+03  0.16398849574E+03  0.13118045943E+04  0.15133450954E+04  0.39974322115E+03 0.  0.
    9000005    1    3    3    0    0  0.50190750399E+03  0.29148065545E+03  0.10471557805E+04  0.11972503262E+04  0.99999687468E+00 0.  0.
          4    1    3    3  501    0  0.11671614118E+03 -0.12749215972E+03  0.26464881386E+03  0.31609476914E+03  0.00000000000E+00 0.  1.
   -9000007    1    1    2    0  503 -0.61862364517E+03 -0.16398849574E+03  0.96511616656E+03  0.12251680114E+04  0.40000000000E+03 0.  1.
<mgrwt>
<rscale>  2 0.75467615E+03</rscale>
<asrwt>0</asrwt>
<pdfrwt beam="1">  1       21 0.38580259E+00 0.75471017E+03</pdfrwt>
<pdfrwt beam="2">  1       21 0.35507105E-01 0.75471017E+03</pdfrwt>
<totfact> 0.51804883E+01</totfact>
</mgrwt>
</event>
<event>
 6    1  0.8739326E-004  0.4905269E+03  0.7818608E-02  0.1016292E+00
         21   -1    0    0  501  502  0.00000000000E+00  0.00000000000E+00  0.19107961252E+04  0.19107961252E+04  0.00000000000E+00 0.  1.
         21   -1    0    0  502  503 -0.00000000000E+00 -0.00000000000E+00 -0.26058310707E+03  0.26058310707E+03  0.00000000000E+00 0.  1.
    9000007    2    1    2  501    0  0.27605977087E+03 -0.65225357157E+02  0.16057434863E+04  0.16789963695E+04  0.40019160511E+03 0.  0.
    9000005    1    3    3    0    0  0.31212649371E+02 -0.19097588111E+03  0.43119533672E+03  0.47262716283E+03  0.99999687468E+00 0.  0.
          4    1    3    3  501    0  0.24484712150E+03  0.12575052396E+03  0.11745481496E+04  0.12063692067E+04  0.00000000000E+00 0.  1.
   -9000007    1    1    2    0  503 -0.27605977087E+03  0.65225357157E+02  0.44469531885E+02  0.49238286280E+03  0.40000000000E+03 0.  1.
<mgrwt>
<rscale>  2 0.49048784E+03</rscale>
<asrwt>0</asrwt>
<pdfrwt beam="1">  1       21 0.29396863E+00 0.49052693E+03</pdfrwt>
<pdfrwt beam="2">  1       21 0.40089710E-01 0.49052693E+03</pdfrwt>
<totfact> 0.16943419E+02</totfact>
</mgrwt>
</event>
<event>
 6    1  0.8739326E-004  0.4284704E+03  0.7818608E-02  0.1034406E+00
         21   -1    0    0  501  502  0.00000000000E+00  0.00000000000E+00  0.42050528807E+03  0.42050528807E+03  0.00000000000E+00 0.  1.
         21   -1    0    0  502  503 -0.00000000000E+00 -0.00000000000E+00 -0.43592011621E+03  0.43592011621E+03  0.00000000000E+00 0.  1.
    9000007    2    1    2  501    0 -0.13643018436E+03  0.65663495072E+02 -0.57453021844E+00  0.42847082231E+03  0.40082667787E+03 0.  0.
    9000005    1    3    3    0    0  0.10706522836E+03 -0.42576130318E+02 -0.91266870932E+02  0.14699092394E+03  0.99999687468E+00 0.  0.
          4    1    3    3  501    0 -0.24349541272E+03  0.10823962539E+03  0.90692340714E+02  0.28147989837E+03  0.00000000000E+00 0.  1.
   -9000007    1    1    2    0  503  0.13643018436E+03 -0.65663495072E+02 -0.14840297925E+02  0.42795458197E+03  0.40000000000E+03 0.  1.
<mgrwt>
<rscale>  2 0.42827700E+03</rscale>
<asrwt>0</asrwt>
<pdfrwt beam="1">  1       21 0.64693121E-01 0.42847044E+03</pdfrwt>
<pdfrwt beam="2">  1       21 0.67064634E-01 0.42847044E+03</pdfrwt>
<totfact> 0.39554337E+03</totfact>
</mgrwt>
</event>
<event>
 6    1  0.8739326E-004  0.5023683E+03  0.7818608E-02  0.1013164E+00
         21   -1    0    0  501  502  0.00000000000E+00  0.00000000000E+00  0.84556087987E+03  0.84556087987E+03  0.00000000000E+00 0. -1.
         21   -1    0    0  502  503 -0.00000000000E+00 -0.00000000000E+00 -0.33614708735E+03  0.33614708735E+03  0.00000000000E+00 0. -1.
    9000007    2    1    2  501    0 -0.96364594819E+01  0.30377793170E+03  0.45255073719E+03  0.67613176110E+03  0.39997261844E+03 0.  0.
    9000005    1    3    3    0    0  0.55701146582E+02  0.67035458309E+02 -0.61331646912E+02  0.10657833414E+03  0.99999687468E+00 0.  0.
          4    1    3    3  501    0 -0.65337606064E+02  0.23674247339E+03  0.51388238410E+03  0.56955342696E+03  0.00000000000E+00 0.  1.
   -9000007    1    1    2    0  503  0.96364594819E+01 -0.30377793170E+03  0.56863055335E+02  0.50557620612E+03  0.40000000000E+03 0. -1.
<mgrwt>
<rscale>  2 0.50236283E+03</rscale>
<asrwt>0</asrwt>
<pdfrwt beam="1">  1       21 0.13008629E+00 0.50236828E+03</pdfrwt>
<pdfrwt beam="2">  1       21 0.51714937E-01 0.50236828E+03</pdfrwt>
<totfact> 0.12795923E+03</totfact>
</mgrwt>
</event>
<event>
 6    1  0.8739326E-004  0.5084268E+03  0.7818608E-02  0.1011625E+00
         21   -1    0    0  501  502  0.00000000000E+00  0.00000000000E+00  0.35478220664E+03  0.35478220664E+03  0.00000000000E+00 0.  1.
         21   -1    0    0  502  503 -0.00000000000E+00 -0.00000000000E+00 -0.94581116667E+03  0.94581116667E+03  0.00000000000E+00 0.  1.
    9000007    2    1    2  501    0 -0.30949672816E+03 -0.48503939714E+02  0.16398629430E+02  0.50869114869E+03  0.40044589248E+03 0.  0.
    9000005    1    3    3    0    0 -0.34019091271E+02 -0.19394491712E+03  0.53348613724E+01  0.19698068480E+03  0.99999687468E+00 0.  0.
          4    1    3    3  501    0 -0.27547763689E+03  0.14544097740E+03  0.11063768058E+02  0.31171046389E+03  0.00000000000E+00 0.  1.
   -9000007    1    1    2    0  503  0.30949672816E+03  0.48503939714E+02 -0.60742758947E+03  0.79190222462E+03  0.40000000000E+03 0.  1.
<mgrwt>
<rscale>  2 0.50833896E+03</rscale>
<asrwt>0</asrwt>
<pdfrwt beam="1">  1       21 0.54581879E-01 0.50842676E+03</pdfrwt>
<pdfrwt beam="2">  1       21 0.14550941E+00 0.50842676E+03</pdfrwt>
<totfact> 0.84454340E+02</totfact>
</mgrwt>
</event>
<event>
 6    1  0.8739326E-004  0.4250310E+03  0.7818608E-02  0.1035811E+00
         21   -1    0    0  501  502  0.00000000000E+00  0.00000000000E+00  0.16526851583E+04  0.16526851583E+04  0.00000000000E+00 0. -1.
         21   -1    0    0  502  503 -0.00000000000E+00 -0.00000000000E+00 -0.17175408184E+03  0.17175408184E+03  0.00000000000E+00 0. -1.
    9000007    2    1    2  501    0  0.14143564757E+03 -0.25442649117E+02  0.12931380294E+04  0.13597698960E+04  0.39511623148E+03 0.  0.
    9000005    1    3    3    0    0  0.25090614293E+03  0.20531532327E+02  0.11317509839E+04  0.11594122329E+04  0.99999687468E+00 0.  0.
          4    1    3    3  501    0 -0.10947049536E+03 -0.45974181444E+02  0.16138704551E+03  0.20035766312E+03  0.00000000000E+00 0.  1.
   -9000007    1    1    2    0  503 -0.14143564757E+03  0.25442649117E+02  0.18779304706E+03  0.46466934407E+03  0.40000000000E+03 0. -1.
<mgrwt>
<rscale>  2 0.42387811E+03</rscale>
<asrwt>0</asrwt>
<pdfrwt beam="1">  1       21 0.25425924E+00 0.42503102E+03</pdfrwt>
<pdfrwt beam="2">  1       21 0.26423706E-01 0.42503102E+03</pdfrwt>
<totfact> 0.70592299E+02</totfact>
</mgrwt>
</event>
<event>
 6    1  0.8739326E-004  0.4105031E+03  0.7818608E-02  0.1040486E+00
         21   -1    0    0  501  502  0.00000000000E+00  0.00000000000E+00  0.16370478759E+03  0.16370478759E+03  0.00000000000E+00 0. -1.
         21   -1    0    0  502  503 -0.00000000000E+00 -0.00000000000E+00 -0.17042281685E+04  0.17042281685E+04  0.00000000000E+00 0. -1.
    9000007    2    1    2  501    0 -0.47678327410E+02 -0.59024042352E+02 -0.18078123055E+03  0.44854725236E+03  0.40342994906E+03 0.  0.
    9000005    1    3    3    0    0 -0.19565615323E+03 -0.65018393627E+02 -0.21357912533E+03  0.29685983995E+03  0.99999687468E+00 0.  0.
          4    1    3    3  501    0  0.14797782582E+03  0.59943512744E+01  0.32797894775E+02  0.15168741241E+03  0.00000000000E+00 0.  1.
   -9000007    1    1    2    0  503  0.47678327410E+02  0.59024042352E+02 -0.13597421504E+04  0.14193857037E+04  0.40000000000E+03 0. -1.
<mgrwt>
<rscale>  2 0.40965789E+03</rscale>
<asrwt>0</asrwt>
<pdfrwt beam="1">  1       21 0.25185353E-01 0.41050309E+03</pdfrwt>
<pdfrwt beam="2">  1       21 0.26218894E+00 0.41050309E+03</pdfrwt>
<totfact> 0.69936067E+02</totfact>
</mgrwt>
</event>
<event>
 6    1  0.8739326E-004  0.5646200E+03  0.7818608E-02  0.9981825E-01
         21   -1    0    0  501  502  0.00000000000E+00  0.00000000000E+00  0.97793033047E+03  0.97793033047E+03  0.00000000000E+00 0. -1.
         21   -1    0    0  502  503 -0.00000000000E+00 -0.00000000000E+00 -0.36526913834E+03  0.36526913834E+03  0.00000000000E+00 0.  1.
    9000007    2    1    2  501    0  0.32908287513E+03 -0.22472257428E+03  0.52698129659E+03  0.77211557077E+03  0.39957151247E+03 0.  0.
    9000005    1    3    3    0    0  0.59811770827E+02 -0.14565109942E+03  0.45631096119E+03  0.48271356309E+03  0.99999687468E+00 0.  0.
          4    1    3    3  501    0  0.26927110430E+03 -0.79071474856E+02  0.70670335404E+02  0.28940200769E+03  0.00000000000E+00 0.  1.
   -9000007    1    1    2    0  503 -0.32908287513E+03  0.22472257428E+03  0.85679895539E+02  0.57108389803E+03  0.40000000000E+03 0.  1.
<mgrwt>
<rscale>  2 0.56454414E+03</rscale>
<asrwt>0</asrwt>
<pdfrwt beam="1">  1       21 0.15045082E+00 0.56462003E+03</pdfrwt>
<pdfrwt beam="2">  1       21 0.56195252E-01 0.56462003E+03</pdfrwt>
<totfact> 0.70934438E+02</totfact>
</mgrwt>
</event>
<event>
 6    1  0.8739326E-004  0.4106456E+03  0.7818608E-02  0.1040160E+00
         21   -1    0    0  501  502  0.00000000000E+00  0.00000000000E+00  0.54068656825E+03  0.54068656825E+03  0.00000000000E+00 0. -1.
         21   -1    0    0  502  503 -0.00000000000E+00 -0.00000000000E+00 -0.40221858734E+03  0.40221858734E+03  0.00000000000E+00 0. -1.
    9000007    2    1    2  501    0 -0.10746589070E+02 -0.92272886275E+02  0.29272249520E+03  0.50424329276E+03  0.39993132458E+03 0.  0.
    9000005    1    3    3    0    0 -0.54989409062E+02 -0.97748770623E+02  0.38540666851E+03  0.40139501416E+03  0.99999687468E+00 0.  0.
          4    1    3    3  501    0  0.44242819992E+02  0.54758843486E+01 -0.92684173307E+02  0.10284827860E+03  0.00000000000E+00 0.  1.
   -9000007    1    1    2    0  503  0.10746589070E+02  0.92272886275E+02 -0.15425451429E+03  0.43866186282E+03  0.40000000000E+03 0. -1.
<mgrwt>
<rscale>  2 0.41062883E+03</rscale>
<asrwt>0</asrwt>
<pdfrwt beam="1">  1       21 0.83182549E-01 0.41064556E+03</pdfrwt>
<pdfrwt beam="2">  1       21 0.61879783E-01 0.41064556E+03</pdfrwt>
<totfact> 0.26903092E+03</totfact>
</mgrwt>
</event>
<event>
 6    1  0.8739326E-004  0.6869934E+03  0.7818608E-02  0.9739760E-01
         21   -1    0    0  501  502  0.00000000000E+00  0.00000000000E+00  0.64973503431E+03  0.64973503431E+03  0.00000000000E+00 0.  1.
         21   -1    0    0  502  503 -0.00000000000E+00 -0.00000000000E+00 -0.12663046099E+04  0.12663046099E+04  0.00000000000E+00 0.  1.
    9000007    2    1    2  501    0 -0.16647737156E+02 -0.55828551773E+03  0.31731369239E+03  0.75668731439E+03  0.39990979723E+03 0.  0.
    9000005    1    3    3    0    0 -0.17094970952E+03 -0.15522742411E+03  0.20962636028E+03  0.31187107480E+03  0.99999687468E+00 0.  0.
          4    1    3    3  501    0  0.15430197236E+03 -0.40305809362E+03  0.10768733211E+03  0.44481623959E+03  0.00000000000E+00 0.  1.
   -9000007    1    1    2    0  503  0.16647737156E+02  0.55828551773E+03 -0.93388326803E+03  0.11593523299E+04  0.40000000000E+03 0.  1.
<mgrwt>
<rscale>  2 0.68698022E+03</rscale>
<asrwt>0</asrwt>
<pdfrwt beam="1">  1       21 0.99959237E-01 0.68699335E+03</pdfrwt>
<pdfrwt beam="2">  1       21 0.19481609E+00 0.68699335E+03</pdfrwt>
<totfact> 0.85178840E+01</totfact>
</mgrwt>
</event>
<event>
 6    1  0.8739326E-004  0.4693295E+03  0.7818608E-02  0.1022127E+00
         21   -1    0    0  501  502  0.00000000000E+00  0.00000000000E+00  0.32077168846E+03  0.32077168846E+03  0.00000000000E+00 0.  1.
         21   -1    0    0  502  503 -0.00000000000E+00 -0.00000000000E+00 -0.11592043362E+04  0.11592043362E+04  0.00000000000E+00 0.  1.
    9000007    2    1    2  501    0 -0.67098294741E+02 -0.23615253183E+03  0.53477070204E+02  0.47212030859E+03  0.39970938105E+03 0.  0.
    9000005    1    3    3    0    0  0.96284688917E+02 -0.27496779950E+03 -0.12710195670E+02  0.29161718253E+03  0.99999687468E+00 0.  0.
          4    1    3    3  501    0 -0.16338298366E+03  0.38815267669E+02  0.66187265874E+02  0.18050312606E+03  0.00000000000E+00 0.  1.
   -9000007    1    1    2    0  503  0.67098294741E+02  0.23615253183E+03 -0.89190971797E+03  0.10078557161E+04  0.40000000000E+03 0.  1.
<mgrwt>
<rscale>  2 0.46926759E+03</rscale>
<asrwt>0</asrwt>
<pdfrwt beam="1">  1       21 0.49349490E-01 0.46932952E+03</pdfrwt>
<pdfrwt beam="2">  1       21 0.17833913E+00 0.46932952E+03</pdfrwt>
<totfact> 0.60251446E+02</totfact>
</mgrwt>
</event>
<event>
 6    1  0.8739326E-004  0.4533735E+03  0.7818608E-02  0.1026817E+00
         21   -1    0    0  501  502  0.00000000000E+00  0.00000000000E+00  0.49463950861E+03  0.49463950861E+03  0.00000000000E+00 0. -1.
         21   -1    0    0  502  503 -0.00000000000E+00 -0.00000000000E+00 -0.53786509745E+03  0.53786509745E+03  0.00000000000E+00 0.  1.
    9000007    2    1    2  501    0  0.53224551797E+02 -0.20380524207E+03  0.22574644147E+03  0.50646717137E+03  0.40146993690E+03 0.  0.
    9000005    1    3    3    0    0 -0.11867838653E+03  0.10341405853E+02  0.19718399325E+03  0.23037801825E+03  0.99999687468E+00 0.  0.
          4    1    3    3  501    0  0.17190293833E+03 -0.21414664792E+03  0.28562448219E+02  0.27608915312E+03  0.00000000000E+00 0.  1.
   -9000007    1    1    2    0  503 -0.53224551797E+02  0.20380524207E+03 -0.26897203030E+03  0.52603743469E+03  0.40000000000E+03 0.  1.
<mgrwt>
<rscale>  2 0.45304788E+03</rscale>
<asrwt>0</asrwt>
<pdfrwt beam="1">  1       21 0.76098386E-01 0.45337351E+03</pdfrwt>
<pdfrwt beam="2">  1       21 0.82748477E-01 0.45337351E+03</pdfrwt>
<totfact> 0.16846122E+03</totfact>
</mgrwt>
</event>
<event>
 6    1  0.8739326E-004  0.4913280E+03  0.7818608E-02  0.1016128E+00
         21   -1    0    0  501  502  0.00000000000E+00  0.00000000000E+00  0.73762839600E+03  0.73762839600E+03  0.00000000000E+00 0. -1.
         21   -1    0    0  502  503 -0.00000000000E+00 -0.00000000000E+00 -0.65142473471E+03  0.65142473471E+03  0.00000000000E+00 0. -1.
    9000007    2    1    2  501    0  0.24974346979E+03 -0.13467912837E+03  0.53350835383E+03  0.72528226943E+03  0.40111462006E+03 0.  0.
    9000005    1    3    3    0    0  0.25970804587E+03  0.74665950708E+02  0.37636671791E+03  0.46333160871E+03  0.99999687468E+00 0.  0.
          4    1    3    3  501    0 -0.99645760861E+01 -0.20934507908E+03  0.15714163591E+03  0.26195066072E+03  0.00000000000E+00 0.  1.
   -9000007    1    1    2    0  503 -0.24974346979E+03  0.13467912837E+03 -0.44730469254E+03  0.66377086128E+03  0.40000000000E+03 0. -1.
<mgrwt>
<rscale>  2 0.49110046E+03</rscale>
<asrwt>0</asrwt>
<pdfrwt beam="1">  1       21 0.11348129E+00 0.49132800E+03</pdfrwt>
<pdfrwt beam="2">  1       21 0.10021919E+00 0.49132800E+03</pdfrwt>
<totfact> 0.40431534E+02</totfact>
</mgrwt>
</event>
<event>
 6    1  0.8739326E-004  0.4962639E+03  0.7818608E-02  0.1014768E+00
         21   -1    0    0  501  502  0.00000000000E+00  0.00000000000E+00  0.51773163227E+03  0.51773163227E+03  0.00000000000E+00 0. -1.
         21   -1    0    0  502  503 -0.00000000000E+00 -0.00000000000E+00 -0.66819224273E+03  0.66819224273E+03  0.00000000000E+00 0.  1.
    9000007    2    1    2  501    0 -0.24003456891E+03 -0.16929623462E+03  0.24315792463E+03  0.55250982361E+03  0.39982936304E+03 0.  0.
    9000005    1    3    3    0    0 -0.59526344890E+02 -0.85765304579E+02  0.32203955802E+03  0.33854032275E+03  0.99999687468E+00 0.  0.
          4    1    3    3  501    0 -0.18050822402E+03 -0.83530930045E+02 -0.78881633385E+02  0.21396950086E+03  0.00000000000E+00 0.  1.
   -9000007    1    1    2    0  503  0.24003456891E+03  0.16929623462E+03 -0.39361853509E+03  0.63341405139E+03  0.40000000000E+03 0.  1.
<mgrwt>
<rscale>  2 0.49622947E+03</rscale>
<asrwt>0</asrwt>
<pdfrwt beam="1">  1       21 0.79651021E-01 0.49626385E+03</pdfrwt>
<pdfrwt beam="2">  1       21 0.10279881E+00 0.49626385E+03</pdfrwt>
<totfact> 0.88898350E+02</totfact>
</mgrwt>
</event>
<event>
 6    1  0.8739326E-004  0.4064762E+03  0.7818608E-02  0.1041847E+00
         21   -1    0    0  501  502  0.00000000000E+00  0.00000000000E+00  0.16584426172E+03  0.16584426172E+03  0.00000000000E+00 0. -1.
         21   -1    0    0  502  503 -0.00000000000E+00 -0.00000000000E+00 -0.21446554343E+04  0.21446554343E+04  0.00000000000E+00 0.  1.
    9000007    2    1    2  501    0  0.49922916135E+02  0.49293188367E+00 -0.14291238707E+03  0.43086758011E+03  0.40339853826E+03 0.  0.
    9000005    1    3    3    0    0 -0.96562018651E+02 -0.16115242902E+03 -0.76370620692E+02  0.20279990267E+03  0.99999687468E+00 0.  0.
          4    1    3    3  501    0  0.14648493479E+03  0.16164536090E+03 -0.66541766382E+02  0.22806767744E+03  0.00000000000E+00 0.  1.
   -9000007    1    1    2    0  503 -0.49922916135E+02 -0.49293188367E+00 -0.18358987855E+04  0.18796321159E+04  0.40000000000E+03 0.  1.
<mgrwt>
<rscale>  2 0.40563044E+03</rscale>
<asrwt>0</asrwt>
<pdfrwt beam="1">  1       21 0.25514502E-01 0.40647622E+03</pdfrwt>
<pdfrwt beam="2">  1       21 0.32994698E+00 0.40647622E+03</pdfrwt>
<totfact> 0.26787885E+02</totfact>
</mgrwt>
</event>
<event>
 6    1  0.8739326E-004  0.4308948E+03  0.7818608E-02  0.1033846E+00
         21   -1    0    0  501  502  0.00000000000E+00  0.00000000000E+00  0.12500143510E+04  0.12500143510E+04  0.00000000000E+00 0. -1.
         21   -1    0    0  502  503 -0.00000000000E+00 -0.00000000000E+00 -0.17326180962E+03  0.17326180962E+03  0.00000000000E+00 0. -1.
    9000007    2    1    2  501    0  0.15069302058E+03  0.54423935608E+02  0.81167153121E+03  0.91737271806E+03  0.39634792550E+03 0.  0.
    9000005    1    3    3    0    0  0.56893959558E+02  0.21868812522E+03  0.33059881847E+03  0.40044724686E+03  0.99999687468E+00 0.  0.
          4    1    3    3  501    0  0.93799061022E+02 -0.16426418962E+03  0.48107271273E+03  0.51692547120E+03  0.00000000000E+00 0.  1.
   -9000007    1    1    2    0  503 -0.15069302058E+03 -0.54423935608E+02  0.26508101013E+03  0.50590344252E+03  0.40000000000E+03 0. -1.
<mgrwt>
<rscale>  2 0.43004530E+03</rscale>
<asrwt>0</asrwt>
<pdfrwt beam="1">  1       21 0.19230989E+00 0.43089483E+03</pdfrwt>
<pdfrwt beam="2">  1       21 0.26655664E-01 0.43089483E+03</pdfrwt>
<totfact> 0.17189192E+03</totfact>
</mgrwt>
</event>
<event>
 6    1  0.8739326E-004  0.4489780E+03  0.7818608E-02  0.1028084E+00
         21   -1    0    0  501  502  0.00000000000E+00  0.00000000000E+00  0.39537354013E+03  0.39537354013E+03  0.00000000000E+00 0.  1.
         21   -1    0    0  502  503 -0.00000000000E+00 -0.00000000000E+00 -0.98825926256E+03  0.98825926256E+03  0.00000000000E+00 0.  1.
    9000007    2    1    2  501    0  0.31826409542E+02 -0.19972324019E+03  0.18520371961E+03  0.48567652713E+03  0.40084782429E+03 0.  0.
    9000005    1    3    3    0    0 -0.12676363279E+03 -0.17998731990E+03  0.23132815215E+03  0.31934020713E+03  0.99999687468E+00 0.  0.
          4    1    3    3  501    0  0.15859004233E+03 -0.19735920291E+02 -0.46124432541E+02  0.16633632000E+03  0.00000000000E+00 0.  1.
   -9000007    1    1    2    0  503 -0.31826409542E+02  0.19972324019E+03 -0.77808944203E+03  0.89795627556E+03  0.40000000000E+03 0.  1.
<mgrwt>
<rscale>  2 0.44878872E+03</rscale>
<asrwt>0</asrwt>
<pdfrwt beam="1">  1       21 0.60826699E-01 0.44897803E+03</pdfrwt>
<pdfrwt beam="2">  1       21 0.15203989E+00 0.44897803E+03</pdfrwt>
<totfact> 0.60695458E+02</totfact>
</mgrwt>
</event>
<event>
 6    1  0.8739326E-004  0.4542251E+03  0.7818608E-02  0.1026577E+00
         21   -1    0    0  501  502  0.00000000000E+00  0.00000000000E+00  0.39945486471E+03  0.39945486471E+03  0.00000000000E+00 0.  1.
         21   -1    0    0  502  503 -0.00000000000E+00 -0.00000000000E+00 -0.53255336734E+03  0.53255336734E+03  0.00000000000E+00 0. -1.
    9000007    2    1    2  501    0 -0.20822812187E+03 -0.40463660096E+02 -0.15162599520E+03  0.47886418596E+03  0.40165184881E+03 0.  0.
    9000005    1    3    3    0    0 -0.22537543546E+02  0.16587530679E+03 -0.11203151020E+02  0.16777684244E+03  0.99999687468E+00 0.  0.
          4    1    3    3  501    0 -0.18569057833E+03 -0.20633896689E+03 -0.14042284418E+03  0.31108734353E+03  0.00000000000E+00 0.  1.
   -9000007    1    1    2    0  503  0.20822812187E+03  0.40463660096E+02  0.18527492568E+02  0.45314404609E+03  0.40000000000E+03 0.  1.
<mgrwt>
<rscale>  2 0.45385969E+03</rscale>
<asrwt>0</asrwt>
<pdfrwt beam="1">  1       21 0.61454594E-01 0.45422513E+03</pdfrwt>
<pdfrwt beam="2">  1       21 0.81931288E-01 0.45422513E+03</pdfrwt>
<totfact> 0.27836738E+03</totfact>
</mgrwt>
</event>
<event>
 6    1  0.8739326E-004  0.5643523E+03  0.7818608E-02  0.9983049E-01
         21   -1    0    0  501  502  0.00000000000E+00  0.00000000000E+00  0.12890307903E+04  0.12890307903E+04  0.00000000000E+00 0. -1.
         21   -1    0    0  502  503 -0.00000000000E+00 -0.00000000000E+00 -0.28031884096E+03  0.28031884096E+03  0.00000000000E+00 0. -1.
    9000007    2    1    2  501    0  0.35070186128E+03  0.18413328549E+03  0.77762146601E+03  0.96082709771E+03  0.40199092648E+03 0.  0.
    9000005    1    3    3    0    0  0.11108490809E+03  0.17093032729E+03  0.66535567640E+03  0.69588519865E+03  0.99999687468E+00 0.  0.
          4    1    3    3  501    0  0.23961695319E+03  0.13202958200E+02  0.11226578961E+03  0.26494189906E+03  0.00000000000E+00 0.  1.
   -9000007    1    1    2    0  503 -0.35070186128E+03 -0.18413328549E+03  0.23109048328E+03  0.60852253351E+03  0.40000000000E+03 0. -1.
<mgrwt>
<rscale>  2 0.56399791E+03</rscale>
<asrwt>0</asrwt>
<pdfrwt beam="1">  1       21 0.19831243E+00 0.56435234E+03</pdfrwt>
<pdfrwt beam="2">  1       21 0.43125976E-01 0.56435234E+03</pdfrwt>
<totfact> 0.56008297E+02</totfact>
</mgrwt>
</event>
<event>
 6    1  0.8739326E-004  0.4704322E+03  0.7818608E-02  0.1021917E+00
         21   -1    0    0  501  502  0.00000000000E+00  0.00000000000E+00  0.21916890344E+03  0.21916890344E+03  0.00000000000E+00 0.  1.
         21   -1    0    0  502  503 -0.00000000000E+00 -0.00000000000E+00 -0.12770876333E+04  0.12770876333E+04  0.00000000000E+00 0.  1.
    9000007    2    1    2  501    0 -0.24432703508E+03 -0.40134679894E+02 -0.18363241637E+03  0.50344081841E+03  0.39802675877E+03 0.  0.
    9000005    1    3    3    0    0  0.24765018737E+02 -0.54205183432E+02  0.97341900545E+02  0.11414006159E+03  0.99999687468E+00 0.  0.
          4    1    3    3  501    0 -0.26909205382E+03  0.14070503538E+02 -0.28097431692E+03  0.38930075683E+03  0.00000000000E+00 0.  1.
   -9000007    1    1    2    0  503  0.24432703508E+03  0.40134679894E+02 -0.87428631354E+03  0.99281571837E+03  0.40000000000E+03 0.  1.
<mgrwt>
<rscale>  2 0.47001251E+03</rscale>
<asrwt>0</asrwt>
<pdfrwt beam="1">  1       21 0.33718293E-01 0.47043224E+03</pdfrwt>
<pdfrwt beam="2">  1       21 0.19647502E+00 0.47043224E+03</pdfrwt>
<totfact> 0.99225932E+02</totfact>
</mgrwt>
</event>
<event>
 6    1  0.8739326E-004  0.4294902E+03  0.7818608E-02  0.1034034E+00
         21   -1    0    0  501  502  0.00000000000E+00  0.00000000000E+00  0.49006478089E+03  0.49006478089E+03  0.00000000000E+00 0. -1.
         21   -1    0    0  502  503 -0.00000000000E+00 -0.00000000000E+00 -0.68659932238E+03  0.68659932238E+03  0.00000000000E+00 0. -1.
    9000007    2    1    2  501    0  0.14191674570E+03  0.64642943810E+02  0.29726293716E+03  0.52232854500E+03  0.40017843798E+03 0.  0.
    9000005    1    3    3    0    0  0.18557383574E+03 -0.12772044059E+03  0.20488226122E+03  0.30451256200E+03  0.99999687468E+00 0.  0.
          4    1    3    3  501    0 -0.43657090035E+02  0.19236338440E+03  0.92380675933E+02  0.21781598301E+03  0.00000000000E+00 0.  1.
   -9000007    1    1    2    0  503 -0.14191674570E+03 -0.64642943810E+02 -0.49379747864E+03  0.65433555826E+03  0.40000000000E+03 0. -1.
<mgrwt>
<rscale>  2 0.42944866E+03</rscale>
<asrwt>0</asrwt>
<pdfrwt beam="1">  1       21 0.75394582E-01 0.42949023E+03</pdfrwt>
<pdfrwt beam="2">  1       21 0.10563066E+00 0.42949023E+03</pdfrwt>
<totfact> 0.96933869E+02</totfact>
</mgrwt>
</event>
<event>
 6    1  0.8739326E-004  0.6017766E+03  0.7818608E-02  0.9902162E-01
         21   -1    0    0  501  502  0.00000000000E+00  0.00000000000E+00  0.56272429363E+03  0.56272429363E+03  0.00000000000E+00 0.  1.
         21   -1    0    0  502  503 -0.00000000000E+00 -0.00000000000E+00 -0.82503493632E+03  0.82503493632E+03  0.00000000000E+00 0. -1.
    9000007    2    1    2  501    0  0.81286965246E+02 -0.44218492474E+03  0.19516995546E+03  0.63183358806E+03  0.39873210693E+03 0.  0.
    9000005    1    3    3    0    0 -0.11905984155E+03 -0.35826143674E+03  0.79753998207E+02  0.38586034150E+03  0.99999687468E+00 0.  0.
          4    1    3    3  501    0  0.20034680679E+03 -0.83923488000E+02  0.11541595726E+03  0.24597324655E+03  0.00000000000E+00 0.  1.
   -9000007    1    1    2    0  503 -0.81286965246E+02  0.44218492474E+03 -0.45748059815E+03  0.75592564189E+03  0.40000000000E+03 0. -1.
<mgrwt>
<rscale>  2 0.60156599E+03</rscale>
<asrwt>0</asrwt>
<pdfrwt beam="1">  1       21 0.86572969E-01 0.60177660E+03</pdfrwt>
<pdfrwt beam="2">  1       21 0.12692845E+00 0.60177660E+03</pdfrwt>
<totfact> 0.41391438E+02</totfact>
</mgrwt>
</event>
<event>
 6    1  0.8739326E-004  0.4512031E+03  0.7818608E-02  0.1027425E+00
         21   -1    0    0  501  502  0.00000000000E+00  0.00000000000E+00  0.13075817246E+03  0.13075817246E+03  0.00000000000E+00 0.  1.
         21   -1    0    0  502  503 -0.00000000000E+00 -0.00000000000E+00 -0.16040568253E+04  0.16040568253E+04  0.00000000000E+00 0.  1.
    9000007    2    1    2  501    0 -0.25499752645E+02 -0.20540218361E+03 -0.58423478915E+03  0.73818324625E+03  0.40092882382E+03 0.  0.
    9000005    1    3    3    0    0 -0.19078161322E+03 -0.17265352782E+03 -0.46608001117E+03  0.53238937012E+03  0.99999687468E+00 0.  0.
          4    1    3    3  501    0  0.16528186058E+03 -0.32748655788E+02 -0.11815477799E+03  0.20579387613E+03  0.00000000000E+00 0.  1.
   -9000007    1    1    2    0  503  0.25499752645E+02  0.20540218361E+03 -0.88906386372E+03  0.99663175155E+03  0.40000000000E+03 0. -1.
<mgrwt>
<rscale>  2 0.45099665E+03</rscale>
<asrwt>0</asrwt>
<pdfrwt beam="1">  1       21 0.20116644E-01 0.45120308E+03</pdfrwt>
<pdfrwt beam="2">  1       21 0.24677795E+00 0.45120308E+03</pdfrwt>
<totfact> 0.13101271E+03</totfact>
</mgrwt>
</event>
<event>
 6    1  0.8739326E-004  0.4043899E+03  0.7818608E-02  0.1042280E+00
         21   -1    0    0  501  502  0.00000000000E+00  0.00000000000E+00  0.30129220551E+03  0.30129220551E+03  0.00000000000E+00 0.  1.
         21   -1    0    0  502  503 -0.00000000000E+00 -0.00000000000E+00 -0.58978819896E+03  0.58978819896E+03  0.00000000000E+00 0.  1.
    9000007    2    1    2  501    0 -0.28738427807E+02 -0.52012687186E+02 -0.27023377915E+03  0.48627832278E+03  0.39988635254E+03 0.  0.
    9000005    1    3    3    0    0  0.13359734971E+03 -0.11618378123E+03 -0.15848460733E+02  0.17776134724E+03  0.99999687468E+00 0.  0.
          4    1    3    3  501    0 -0.16233577752E+03  0.64171094042E+02 -0.25438531842E+03  0.30851697555E+03  0.00000000000E+00 0.  1.
   -9000007    1    1    2    0  503  0.28738427807E+02  0.52012687186E+02 -0.18262214297E+02  0.40480208168E+03  0.40000000000E+03 0.  1.
<mgrwt>
<rscale>  2 0.40436183E+03</rscale>
<asrwt>0</asrwt>
<pdfrwt beam="1">  1       21 0.46352648E-01 0.40438993E+03</pdfrwt>
<pdfrwt beam="2">  1       21 0.90736644E-01 0.40438993E+03</pdfrwt>
<totfact> 0.40895324E+03</totfact>
</mgrwt>
</event>
<event>
 6    1  0.8739326E-004  0.6125207E+03  0.7818608E-02  0.9879815E-01
         21   -1    0    0  501  502  0.00000000000E+00  0.00000000000E+00  0.76301727622E+03  0.76301727622E+03  0.00000000000E+00 0.  1.
         21   -1    0    0  502  503 -0.00000000000E+00 -0.00000000000E+00 -0.56401382369E+03  0.56401382369E+03  0.00000000000E+00 0. -1.
    9000007    2    1    2  501    0 -0.45516048798E+03 -0.88825280115E+02  0.33720939958E+03  0.69920796876E+03  0.40015072685E+03 0.  0.
    9000005    1    3    3    0    0 -0.47405443330E+03 -0.13847521257E+03  0.16768917246E+03  0.52155886416E+03  0.99999687468E+00 0.  0.
          4    1    3    3  501    0  0.18893945316E+02  0.49649932455E+02  0.16952022712E+03  0.17764910460E+03  0.00000000000E+00 0.  1.
   -9000007    1    1    2    0  503  0.45516048798E+03  0.88825280115E+02 -0.13820594705E+03  0.62782313115E+03  0.40000000000E+03 0. -1.
<mgrwt>
<rscale>  2 0.61249608E+03</rscale>
<asrwt>0</asrwt>
<pdfrwt beam="1">  1       21 0.11738727E+00 0.61252070E+03</pdfrwt>
<pdfrwt beam="2">  1       21 0.86771358E-01 0.61252070E+03</pdfrwt>
<totfact> 0.50177121E+02</totfact>
</mgrwt>
</event>
<event>
 6    1  0.8739326E-004  0.5219900E+03  0.7818608E-02  0.1008207E+00
         21   -1    0    0  501  502  0.00000000000E+00  0.00000000000E+00  0.22181091305E+03  0.22181091305E+03  0.00000000000E+00 0. -1.
         21   -1    0    0  502  503 -0.00000000000E+00 -0.00000000000E+00 -0.12352551942E+04  0.12352551942E+04  0.00000000000E+00 0. -1.
    9000007    2    1    2  501    0 -0.12371118433E+03 -0.31171957304E+03 -0.56283904242E+03  0.76748751816E+03  0.39971959362E+03 0.  0.
    9000005    1    3    3    0    0  0.14582563196E+03 -0.11962850011E+03 -0.23862396940E+03  0.30416852524E+03  0.99999687468E+00 0.  0.
          4    1    3    3  501    0 -0.26953681629E+03 -0.19209107292E+03 -0.32421507302E+03  0.46331899293E+03  0.00000000000E+00 0.  1.
   -9000007    1    1    2    0  503  0.12371118433E+03  0.31171957304E+03 -0.45060523873E+03  0.68957858907E+03  0.40000000000E+03 0.  1.
<mgrwt>
<rscale>  2 0.52193627E+03</rscale>
<asrwt>0</asrwt>
<pdfrwt beam="1">  1       21 0.34124755E-01 0.52198999E+03</pdfrwt>
<pdfrwt beam="2">  1       21 0.19003927E+00 0.52198999E+03</pdfrwt>
<totfact> 0.10490963E+03</totfact>
</mgrwt>
</event>
<event>
 6    1  0.8739326E-004  0.4473546E+03  0.7818608E-02  0.1028536E+00
         21   -1    0    0  501  502  0.00000000000E+00  0.00000000000E+00  0.58208499348E+03  0.58208499348E+03  0.00000000000E+00 0. -1.
         21   -1    0    0  502  503 -0.00000000000E+00 -0.00000000000E+00 -0.11385102886E+04  0.11385102886E+04  0.00000000000E+00 0.  1.
    9000007    2    1    2  501    0 -0.16503214898E+03 -0.11236849595E+03  0.44061929286E+03  0.62791042380E+03  0.40032967664E+03 0.  0.
    9000005    1    3    3    0    0 -0.10625486897E+03  0.14099124317E+03  0.24726199841E+03  0.30382252004E+03  0.99999687468E+00 0.  0.
          4    1    3    3  501    0 -0.58777280016E+02 -0.25335973912E+03  0.19335729445E+03  0.32408790377E+03  0.00000000000E+00 0.  1.
   -9000007    1    1    2    0  503  0.16503214898E+03  0.11236849595E+03 -0.99704458798E+03  0.10926848583E+04  0.40000000000E+03 0.  1.
<mgrwt>
<rscale>  2 0.44728083E+03</rscale>
<asrwt>0</asrwt>
<pdfrwt beam="1">  1       21 0.89551538E-01 0.44735460E+03</pdfrwt>
<pdfrwt beam="2">  1       21 0.17515543E+00 0.44735460E+03</pdfrwt>
<totfact> 0.16931413E+02</totfact>
</mgrwt>
</event>
<event>
 6    1  0.8739326E-004  0.4085132E+03  0.7818608E-02  0.1040947E+00
         21   -1    0    0  501  502  0.00000000000E+00  0.00000000000E+00  0.91560603542E+02  0.91560603542E+02  0.00000000000E+00 0.  1.
         21   -1    0    0  502  503 -0.00000000000E+00 -0.00000000000E+00 -0.21658336578E+04  0.21658336578E+04  0.00000000000E+00 0. -1.
    9000007    2    1    2  501    0  0.75262446139E+02 -0.22018771717E+02 -0.58618841669E+03  0.71449272506E+03  0.40091611615E+03 0.  0.
    9000005    1    3    3    0    0  0.22921765565E+03  0.55671850038E+02 -0.32804503962E+03  0.40404781469E+03  0.99999687468E+00 0.  0.
          4    1    3    3  501    0 -0.15395520951E+03 -0.77690621755E+02 -0.25814337708E+03  0.31044491037E+03  0.00000000000E+00 0.  1.
   -9000007    1    1    2    0  503 -0.75262446139E+02  0.22018771717E+02 -0.14880846376E+04  0.15429015363E+04  0.40000000000E+03 0.  1.
<mgrwt>
<rscale>  2 0.40828820E+03</rscale>
<asrwt>0</asrwt>
<pdfrwt beam="1">  1       21 0.14086247E-01 0.40851315E+03</pdfrwt>
<pdfrwt beam="2">  1       21 0.33320518E+00 0.40851315E+03</pdfrwt>
<totfact> 0.78620834E+02</totfact>
</mgrwt>
</event>
<event>
 6    1  0.8739326E-004  0.4116636E+03  0.7818608E-02  0.1039839E+00
         21   -1    0    0  501  502  0.00000000000E+00  0.00000000000E+00  0.15070268430E+04  0.15070268430E+04  0.00000000000E+00 0.  1.
         21   -1    0    0  502  503 -0.00000000000E+00 -0.00000000000E+00 -0.15333051146E+03  0.15333051146E+03  0.00000000000E+00 0.  1.
    9000007    2    1    2  501    0 -0.76499360880E+02 -0.58064124089E+02  0.11061058162E+04  0.11802275199E+04  0.40030404374E+03 0.  0.
    9000005    1    3    3    0    0  0.78902355946E+02 -0.40646398832E+02  0.96660506765E+03  0.97067196741E+03  0.99999687468E+00 0.  0.
          4    1    3    3  501    0 -0.15540171683E+03 -0.17417725257E+02  0.13950074856E+03  0.20955555253E+03  0.00000000000E+00 0.  1.
   -9000007    1    1    2    0  503  0.76499360880E+02  0.58064124089E+02  0.24759051534E+03  0.48012983453E+03  0.40000000000E+03 0.  1.
<mgrwt>
<rscale>  2 0.41158967E+03</rscale>
<asrwt>0</asrwt>
<pdfrwt beam="1">  1       21 0.23185027E+00 0.41166360E+03</pdfrwt>
<pdfrwt beam="2">  1       21 0.23589310E-01 0.41166360E+03</pdfrwt>
<totfact> 0.12184566E+03</totfact>
</mgrwt>
</event>
<event>
 6    1  0.8739326E-004  0.6028927E+03  0.7818608E-02  0.9899484E-01
         21   -1    0    0  501  502  0.00000000000E+00  0.00000000000E+00  0.51954172176E+03  0.51954172176E+03  0.00000000000E+00 0.  1.
         21   -1    0    0  502  503 -0.00000000000E+00 -0.00000000000E+00 -0.73172924352E+03  0.73172924352E+03  0.00000000000E+00 0.  1.
    9000007    2    1    2  501    0 -0.44091819347E+03 -0.94488037674E+02  0.25242216768E+02  0.60342088745E+03  0.40017840435E+03 0.  0.
    9000005    1    3    3    0    0 -0.32285391640E+03 -0.36348713636E+01  0.19529331961E+03  0.37734380120E+03  0.99999687468E+00 0.  0.
          4    1    3    3  501    0 -0.11806427708E+03 -0.90853166310E+02 -0.17005110285E+03  0.22607708626E+03  0.00000000000E+00 0.  1.
   -9000007    1    1    2    0  503  0.44091819347E+03  0.94488037674E+02 -0.23742973852E+03  0.64785007782E+03  0.40000000000E+03 0.  1.
<mgrwt>
<rscale>  2 0.60286309E+03</rscale>
<asrwt>0</asrwt>
<pdfrwt beam="1">  1       21 0.79929496E-01 0.60289269E+03</pdfrwt>
<pdfrwt beam="2">  1       21 0.11257373E+00 0.60289269E+03</pdfrwt>
<totfact> 0.67823628E+02</totfact>
</mgrwt>
</event>
<event>
 6    1  0.8739326E-004  0.4371583E+03  0.7818608E-02  0.1031727E+00
         21   -1    0    0  501  502  0.00000000000E+00  0.00000000000E+00  0.19356275458E+03  0.19356275458E+03  0.00000000000E+00 0.  1.
         21   -1    0    0  502  503 -0.00000000000E+00 -0.00000000000E+00 -0.10879631483E+04  0.10879631483E+04  0.00000000000E+00 0. -1.
    9000007    2    1    2  501    0  0.58067831600E+02 -0.16653976935E+03 -0.24874460171E+03  0.50179596913E+03  0.39851969827E+03 0.  0.
    9000005    1    3    3    0    0 -0.23139406967E+02  0.11736322092E+03 -0.14687872695E+03  0.18943051022E+03  0.99999687468E+00 0.  0.
          4    1    3    3  501    0  0.81207238567E+02 -0.28390299027E+03 -0.10186587476E+03  0.31236545891E+03  0.00000000000E+00 0.  1.
   -9000007    1    1    2    0  503 -0.58067831600E+02  0.16653976935E+03 -0.64565579204E+03  0.77972993378E+03  0.40000000000E+03 0. -1.
<mgrwt>
<rscale>  2 0.43681938E+03</rscale>
<asrwt>0</asrwt>
<pdfrwt beam="1">  1       21 0.29778886E-01 0.43715829E+03</pdfrwt>
<pdfrwt beam="2">  1       21 0.16737894E+00 0.43715829E+03</pdfrwt>
<totfact> 0.20650077E+03</totfact>
</mgrwt>
</event>
<event>
 6    1  0.8739326E-004  0.5048653E+03  0.7818608E-02  0.1012570E+00
         21   -1    0    0  501  502  0.00000000000E+00  0.00000000000E+00  0.55869298249E+03  0.55869298249E+03  0.00000000000E+00 0. -1.
         21   -1    0    0  502  503 -0.00000000000E+00 -0.00000000000E+00 -0.47580344091E+03  0.47580344091E+03  0.00000000000E+00 0. -1.
    9000007    2    1    2  501    0  0.18118632911E+03  0.24742912113E+03  0.14839947531E+03  0.52622365483E+03  0.40104772134E+03 0.  0.
    9000005    1    3    3    0    0  0.66022743122E+02  0.53576141603E+02 -0.13776878299E+03  0.16189701393E+03  0.99999687468E+00 0.  0.
          4    1    3    3  501    0  0.11516358599E+03  0.19385297953E+03  0.28616825831E+03  0.36432664090E+03  0.00000000000E+00 0.  1.
   -9000007    1    1    2    0  503 -0.18118632911E+03 -0.24742912113E+03 -0.65509933737E+02  0.50827276856E+03  0.40000000000E+03 0. -1.
<mgrwt>
<rscale>  2 0.50465716E+03</rscale>
<asrwt>0</asrwt>
<pdfrwt beam="1">  1       21 0.85952766E-01 0.50486526E+03</pdfrwt>
<pdfrwt beam="2">  1       21 0.73200530E-01 0.50486526E+03</pdfrwt>
<totfact> 0.16531308E+03</totfact>
</mgrwt>
</event>
<event>
 6    1  0.8739326E-004  0.5764779E+03  0.7818608E-02  0.9955448E-01
         21   -1    0    0  501  502  0.00000000000E+00  0.00000000000E+00  0.19705633550E+04  0.19705633550E+04  0.00000000000E+00 0. -1.
         21   -1    0    0  502  503 -0.00000000000E+00 -0.00000000000E+00 -0.84530244763E+03  0.84530244763E+03  0.00000000000E+00 0. -1.
    9000007    2    1    2  501    0  0.31253007288E+03  0.27321561241E+03  0.18223117833E+04  0.19113207562E+04  0.40000622495E+03 0.  0.
    9000005    1    3    3    0    0  0.14723262412E+03  0.18782331808E+03  0.16159230585E+04  0.16334513692E+04  0.99999687468E+00 0.  0.
          4    1    3    3  501    0  0.16529744876E+03  0.85392294332E+02  0.20638872479E+03  0.27786938698E+03  0.00000000000E+00 0.  1.
   -9000007    1    1    2    0  503 -0.31253007288E+03 -0.27321561241E+03 -0.69705087599E+03  0.90454504644E+03  0.40000000000E+03 0. -1.
<mgrwt>
<rscale>  2 0.57647684E+03</rscale>
<asrwt>0</asrwt>
<pdfrwt beam="1">  1       21 0.30316359E+00 0.57647792E+03</pdfrwt>
<pdfrwt beam="2">  1       21 0.13004653E+00 0.57647792E+03</pdfrwt>
<totfact> 0.95244892E+00</totfact>
</mgrwt>
</event>
<event>
 6    1  0.8739326E-004  0.4127053E+03  0.7818608E-02  0.1039646E+00
         21   -1    0    0  501  502  0.00000000000E+00  0.00000000000E+00  0.14985721663E+04  0.14985721663E+04  0.00000000000E+00 0.  1.
         21   -1    0    0  502  503 -0.00000000000E+00 -0.00000000000E+00 -0.26417415231E+03  0.26417415231E+03  0.00000000000E+00 0.  1.
    9000007    2    1    2  501    0  0.45265866930E+02 -0.90976141688E+02  0.12830930269E+04  0.13471781998E+04  0.39778854833E+03 0.  0.
    9000005    1    3    3    0    0 -0.11337228148E+03 -0.86240437551E+02  0.16545520235E+03  0.21832799009E+03  0.99999687468E+00 0.  0.
          4    1    3    3  501    0  0.15863814841E+03 -0.47357041368E+01  0.11176378246E+04  0.11288502097E+04  0.00000000000E+00 0.  1.
   -9000007    1    1    2    0  503 -0.45265866930E+02  0.90976141688E+02 -0.48695012973E+02  0.41556811879E+03  0.40000000000E+03 0.  1.
<mgrwt>
<rscale>  2 0.41216849E+03</rscale>
<asrwt>0</asrwt>
<pdfrwt beam="1">  1       21 0.23054956E+00 0.41270529E+03</pdfrwt>
<pdfrwt beam="2">  1       21 0.40642178E-01 0.41270529E+03</pdfrwt>
<totfact> 0.41985016E+02</totfact>
</mgrwt>
</event>
<event>
 6    1  0.8739326E-004  0.6272562E+03  0.7818608E-02  0.9850448E-01
         21   -1    0    0  501  502  0.00000000000E+00  0.00000000000E+00  0.10331142913E+04  0.10331142913E+04  0.00000000000E+00 0. -1.
         21   -1    0    0  502  503 -0.00000000000E+00 -0.00000000000E+00 -0.48897919401E+03  0.48897919401E+03  0.00000000000E+00 0. -1.
    9000007    2    1    2  501    0  0.45516719297E+03  0.16209009878E+03  0.63001771684E+03  0.88898512328E+03  0.39990230331E+03 0.  0.
    9000005    1    3    3    0    0  0.48584229753E+03  0.18341624213E+03  0.66089547073E+03  0.84051655496E+03  0.99999687468E+00 0.  0.
          4    1    3    3  501    0 -0.30675104556E+02 -0.21326143346E+02 -0.30877753884E+02  0.48468568315E+02  0.00000000000E+00 0.  1.
   -9000007    1    1    2    0  503 -0.45516719297E+03 -0.16209009878E+03 -0.85882619593E+02  0.63310836200E+03  0.40000000000E+03 0. -1.
<mgrwt>
<rscale>  2 0.62724065E+03</rscale>
<asrwt>0</asrwt>
<pdfrwt beam="1">  1       21 0.15894066E+00 0.62725623E+03</pdfrwt>
<pdfrwt beam="2">  1       21 0.75227569E-01 0.62725623E+03</pdfrwt>
<totfact> 0.31041481E+02</totfact>
</mgrwt>
</event>
<event>
 6    1  0.8739326E-004  0.5171365E+03  0.7818608E-02  0.1009466E+00
         21   -1    0    0  501  502  0.00000000000E+00  0.00000000000E+00  0.63339702267E+03  0.63339702267E+03  0.00000000000E+00 0. -1.
         21   -1    0    0  502  503 -0.00000000000E+00 -0.00000000000E+00 -0.50525240614E+03  0.50525240614E+03  0.00000000000E+00 0.  1.
    9000007    2    1    2  501    0 -0.20369772491E+03  0.25467861418E+03 -0.16785471462E+03  0.54369601577E+03  0.40134298635E+03 0.  0.
    9000005    1    3    3    0    0  0.11886851119E+03  0.28017718733E+02 -0.52424974887E+02  0.13290633356E+03  0.99999687468E+00 0.  0.
          4    1    3    3  501    0 -0.32256623610E+03  0.22666089544E+03 -0.11542973973E+03  0.41078968221E+03  0.00000000000E+00 0.  1.
   -9000007    1    1    2    0  503  0.20369772491E+03 -0.25467861418E+03  0.29599933114E+03  0.59495341304E+03  0.40000000000E+03 0. -1.
<mgrwt>
<rscale>  2 0.51687590E+03</rscale>
<asrwt>0</asrwt>
<pdfrwt beam="1">  1       21 0.97445696E-01 0.51713649E+03</pdfrwt>
<pdfrwt beam="2">  1       21 0.77731139E-01 0.51713649E+03</pdfrwt>
<totfact> 0.10635140E+03</totfact>
</mgrwt>
</event>
<event>
 6    1  0.8739326E-004  0.4230539E+03  0.7818608E-02  0.1036085E+00
         21   -1    0    0  501  502  0.00000000000E+00  0.00000000000E+00  0.42128167770E+03  0.42128167770E+03  0.00000000000E+00 0.  1.
         21   -1    0    0  502  503 -0.00000000000E+00 -0.00000000000E+00 -0.89275217061E+03  0.89275217061E+03  0.00000000000E+00 0.  1.
    9000007    2    1    2  501    0 -0.13092085754E+03  0.41870323447E+02  0.23996061065E+03  0.48636990078E+03  0.40010147563E+03 0.  0.
    9000005    1    3    3    0    0 -0.16210666402E+02  0.20604503271E+03  0.55304509216E+02  0.21395543915E+03  0.99999687468E+00 0.  0.
          4    1    3    3  501    0 -0.11471019114E+03 -0.16417470926E+03  0.18465610143E+03  0.27241446163E+03  0.00000000000E+00 0.  1.
   -9000007    1    1    2    0  503  0.13092085754E+03 -0.41870323447E+02 -0.71143110356E+03  0.82766394753E+03  0.40000000000E+03 0.  1.
<mgrwt>
<rscale>  2 0.42302989E+03</rscale>
<asrwt>0</asrwt>
<pdfrwt beam="1">  1       21 0.64812566E-01 0.42305388E+03</pdfrwt>
<pdfrwt beam="2">  1       21 0.13734649E+00 0.42305388E+03</pdfrwt>
<totfact> 0.70139043E+02</totfact>
</mgrwt>
</event>
<event>
 6    1  0.8739326E-004  0.5607355E+03  0.7818608E-02  0.9990608E-01
         21   -1    0    0  501  502  0.00000000000E+00  0.00000000000E+00  0.57128668650E+03  0.57128668650E+03  0.00000000000E+00 0. -1.
         21   -1    0    0  502  503 -0.00000000000E+00 -0.00000000000E+00 -0.73565771018E+03  0.73565771018E+03  0.00000000000E+00 0.  1.
    9000007    2    1    2  501    0 -0.33376769018E+03 -0.20638192388E+03  0.24607188766E+03  0.61235260795E+03  0.40053710572E+03 0.  0.
    9000005    1    3    3    0    0 -0.19205419197E+03 -0.11140651591E+03  0.34861068378E+03  0.41331178701E+03  0.99999687468E+00 0.  0.
          4    1    3    3  501    0 -0.14171349821E+03 -0.94975407968E+02 -0.10253879612E+03  0.19904082095E+03  0.00000000000E+00 0.  1.
   -9000007    1    1    2    0  503  0.33376769018E+03  0.20638192388E+03 -0.41044291134E+03  0.69459178874E+03  0.40000000000E+03 0.  1.
<mgrwt>
<rscale>  2 0.56063963E+03</rscale>
<asrwt>0</asrwt>
<pdfrwt beam="1">  1       21 0.87890260E-01 0.56073554E+03</pdfrwt>
<pdfrwt beam="2">  1       21 0.11317811E+00 0.56073554E+03</pdfrwt>
<totfact> 0.54313193E+02</totfact>
</mgrwt>
</event>
<event>
 6    1  0.8739326E-004  0.4377825E+03  0.7818608E-02  0.1031436E+00
         21   -1    0    0  501  502  0.00000000000E+00  0.00000000000E+00  0.41313640169E+03  0.41313640169E+03  0.00000000000E+00 0. -1.
         21   -1    0    0  502  503 -0.00000000000E+00 -0.00000000000E+00 -0.12289758267E+04  0.12289758267E+04  0.00000000000E+00 0. -1.
    9000007    2    1    2  501    0  0.17454544579E+03  0.34458622755E+02  0.23995158429E+03  0.49915633919E+03  0.39990846306E+03 0.  0.
    9000005    1    3    3    0    0 -0.12750976523E+03  0.45640127483E+02  0.73684291598E+02  0.15418215295E+03  0.99999687468E+00 0.  0.
          4    1    3    3  501    0  0.30205521102E+03 -0.11181504728E+02  0.16626729269E+03  0.34497418624E+03  0.00000000000E+00 0.  1.
   -9000007    1    1    2    0  503 -0.17454544579E+03 -0.34458622755E+02 -0.10557910093E+04  0.11429558892E+04  0.40000000000E+03 0. -1.
<mgrwt>
<rscale>  2 0.43776158E+03</rscale>
<asrwt>0</asrwt>
<pdfrwt beam="1">  1       21 0.63559447E-01 0.43778249E+03</pdfrwt>
<pdfrwt beam="2">  1       21 0.18907320E+00 0.43778249E+03</pdfrwt>
<totfact> 0.29762632E+02</totfact>
</mgrwt>
</event>
<event>
 6    1  0.8739326E-004  0.4376706E+03  0.7818608E-02  0.1031467E+00
         21   -1    0    0  501  502  0.00000000000E+00  0.00000000000E+00  0.92679108779E+03  0.92679108779E+03  0.00000000000E+00 0.  1.
         21   -1    0    0  502  503 -0.00000000000E+00 -0.00000000000E+00 -0.72706940046E+03  0.72706940046E+03  0.00000000000E+00 0.  1.
    9000007    2    1    2  501    0 -0.37886072250E+02  0.17355167384E+03  0.79946157305E+03  0.91140276656E+03  0.39995081967E+03 0.  0.
    9000005    1    3    3    0    0 -0.40974573442E+02  0.16912731200E+03  0.79331228792E+02  0.19125220832E+03  0.99999687468E+00 0.  0.
          4    1    3    3  501    0  0.30885011915E+01  0.44243618420E+01  0.72013034425E+03  0.72015055824E+03  0.00000000000E+00 0.  1.
   -9000007    1    1    2    0  503  0.37886072250E+02 -0.17355167384E+03 -0.59973988572E+03  0.74245772168E+03  0.40000000000E+03 0.  1.
<mgrwt>
<rscale>  2 0.43765934E+03</rscale>
<asrwt>0</asrwt>
<pdfrwt beam="1">  1       21 0.14258324E+00 0.43767058E+03</pdfrwt>
<pdfrwt beam="2">  1       21 0.11185683E+00 0.43767058E+03</pdfrwt>
<totfact> 0.17537956E+02</totfact>
</mgrwt>
</event>
<event>
 6    1  0.8739326E-004  0.4024138E+03  0.7818608E-02  0.1042967E+00
         21   -1    0    0  501  502  0.00000000000E+00  0.00000000000E+00  0.42776043907E+03  0.42776043907E+03  0.00000000000E+00 0. -1.
         21   -1    0    0  502  503 -0.00000000000E+00 -0.00000000000E+00 -0.42184457619E+03  0.42184457619E+03  0.00000000000E+00 0. -1.
    9000007    2    1    2  501    0 -0.63341259673E+01  0.41346086486E+02  0.13936279952E+03  0.42586251690E+03  0.40023402328E+03 0.  0.
    9000005    1    3    3    0    0  0.11009479749E+03  0.18326038505E+03  0.41281698023E+02  0.21773932063E+03  0.99999687468E+00 0.  0.
          4    1    3    3  501    0 -0.11642892346E+03 -0.14191429856E+03  0.98081101497E+02  0.20812319627E+03  0.00000000000E+00 0.  1.
   -9000007    1    1    2    0  503  0.63341259673E+01 -0.41346086486E+02 -0.13344693664E+03  0.42374249836E+03  0.40000000000E+03 0. -1.
<mgrwt>
<rscale>  2 0.40235563E+03</rscale>
<asrwt>0</asrwt>
<pdfrwt beam="1">  1       21 0.65809298E-01 0.40241383E+03</pdfrwt>
<pdfrwt beam="2">  1       21 0.64899166E-01 0.40241383E+03</pdfrwt>
<totfact> 0.41358631E+03</totfact>
</mgrwt>
</event>
<event>
 6    1  0.8739326E-004  0.4101873E+03  0.7818608E-02  0.1040341E+00
         21   -1    0    0  501  502  0.00000000000E+00  0.00000000000E+00  0.14514564537E+04  0.14514564537E+04  0.00000000000E+00 0. -1.
         21   -1    0    0  502  503 -0.00000000000E+00 -0.00000000000E+00 -0.37116964308E+03  0.37116964308E+03  0.00000000000E+00 0. -1.
    9000007    2    1    2  501    0 -0.68540654024E+02 -0.59630821067E+02  0.12959516258E+04  0.13591986823E+04  0.39959577766E+03 0.  0.
    9000005    1    3    3    0    0 -0.58827966526E+02 -0.18852394138E+03  0.32958358636E+03  0.38422434399E+03  0.99999687468E+00 0.  0.
          4    1    3    3  501    0 -0.97126874980E+01  0.12889312031E+03  0.96636803940E+03  0.97497433830E+03  0.00000000000E+00 0.  1.
   -9000007    1    1    2    0  503  0.68540654024E+02  0.59630821067E+02 -0.21566481510E+03  0.46342741454E+03  0.40000000000E+03 0. -1.
<mgrwt>
<rscale>  2 0.41008876E+03</rscale>
<asrwt>0</asrwt>
<pdfrwt beam="1">  1       21 0.22330099E+00 0.41018734E+03</pdfrwt>
<pdfrwt beam="2">  1       21 0.57103022E-01 0.41018734E+03</pdfrwt>
<totfact> 0.22771438E+02</totfact>
</mgrwt>
</event>
<event>
 6    1  0.8739326E-004  0.5049791E+03  0.7818608E-02  0.1012584E+00
         21   -1    0    0  501  502  0.00000000000E+00  0.00000000000E+00  0.77732470715E+03  0.77732470715E+03  0.00000000000E+00 0.  1.
         21   -1    0    0  502  503 -0.00000000000E+00 -0.00000000000E+00 -0.33651622855E+03  0.33651622855E+03  0.00000000000E+00 0. -1.
    9000007    2    1    2  501    0 -0.13667775750E+03 -0.27626623792E+03  0.31333419867E+03  0.59302087498E+03  0.39811002813E+03 0.  0.
    9000005    1    3    3    0    0 -0.29290839627E+02 -0.13104913696E+03 -0.82726756659E+02  0.15772300354E+03  0.99999687468E+00 0.  0.
          4    1    3    3  501    0 -0.10738691787E+03 -0.14521710096E+03  0.39606095533E+03  0.43529787144E+03  0.00000000000E+00 0.  1.
   -9000007    1    1    2    0  503  0.13667775750E+03  0.27626623792E+03  0.12747427993E+03  0.52082006072E+03  0.40000000000E+03 0. -1.
<mgrwt>
<rscale>  2 0.50460470E+03</rscale>
<asrwt>0</asrwt>
<pdfrwt beam="1">  1       21 0.11958842E+00 0.50497905E+03</pdfrwt>
<pdfrwt beam="2">  1       21 0.51771728E-01 0.50497905E+03</pdfrwt>
<totfact> 0.15845191E+03</totfact>
</mgrwt>
</event>
<event>
 6    1  0.8739326E-004  0.4603384E+03  0.7818608E-02  0.1024718E+00
         21   -1    0    0  501  502  0.00000000000E+00  0.00000000000E+00  0.58034353427E+03  0.58034353427E+03  0.00000000000E+00 0. -1.
         21   -1    0    0  502  503 -0.00000000000E+00 -0.00000000000E+00 -0.61685215485E+03  0.61685215485E+03  0.00000000000E+00 0. -1.
    9000007    2    1    2  501    0  0.18536635397E+03 -0.13078878841E+03  0.36440627413E+03  0.58711442801E+03  0.40055589696E+03 0.  0.
    9000005    1    3    3    0    0  0.30244559715E+03 -0.36794391535E+02  0.19994245780E+03  0.36442441317E+03  0.99999687468E+00 0.  0.
          4    1    3    3  501    0 -0.11707924318E+03 -0.93994396879E+02  0.16446381633E+03  0.22269001484E+03  0.00000000000E+00 0.  1.
   -9000007    1    1    2    0  503 -0.18536635397E+03  0.13078878841E+03 -0.40091489472E+03  0.61008126112E+03  0.40000000000E+03 0. -1.
<mgrwt>
<rscale>  2 0.46021742E+03</rscale>
<asrwt>0</asrwt>
<pdfrwt beam="1">  1       21 0.89283621E-01 0.46033837E+03</pdfrwt>
<pdfrwt beam="2">  1       21 0.94900331E-01 0.46033837E+03</pdfrwt>
<totfact> 0.83818066E+02</totfact>
</mgrwt>
</event>
<event>
 6    1  0.8739326E-004  0.4110347E+03  0.7818608E-02  0.1040706E+00
         21   -1    0    0  501  502  0.00000000000E+00  0.00000000000E+00  0.13214009202E+04  0.13214009202E+04  0.00000000000E+00 0.  1.
         21   -1    0    0  502  503 -0.00000000000E+00 -0.00000000000E+00 -0.22500062315E+03  0.22500062315E+03  0.00000000000E+00 0.  1.
    9000007    2    1    2  501    0 -0.29422523596E+02  0.39021522493E+02  0.10657462201E+04  0.11422629081E+04  0.40811907753E+03 0.  0.
    9000005    1    3    3    0    0 -0.17123550866E+02  0.26345027602E+01 -0.35938386167E+02  0.39908948785E+02  0.99999687468E+00 0.  0.
          4    1    3    3  501    0 -0.12298972730E+02  0.36387019733E+02  0.11016846062E+04  0.11023539593E+04  0.00000000000E+00 0.  1.
   -9000007    1    1    2    0  503  0.29422523596E+02 -0.39021522493E+02  0.30654077015E+02  0.40413863531E+03  0.40000000000E+03 0.  1.
<mgrwt>
<rscale>  2 0.40900465E+03</rscale>
<asrwt>0</asrwt>
<pdfrwt beam="1">  1       21 0.20329244E+00 0.41103473E+03</pdfrwt>
<pdfrwt beam="2">  1       21 0.34615481E-01 0.41103473E+03</pdfrwt>
<totfact> 0.87167810E+02</totfact>
</mgrwt>
</event>
<event>
 6    1  0.8739326E-004  0.4991561E+03  0.7818608E-02  0.1014001E+00
         21   -1    0    0  501  502  0.00000000000E+00  0.00000000000E+00  0.72918942958E+03  0.72918942958E+03  0.00000000000E+00 0. -1.
         21   -1    0    0  502  503 -0.00000000000E+00 -0.00000000000E+00 -0.34205886626E+03  0.34205886626E+03  0.00000000000E+00 0.  1.
    9000007    2    1    2  501    0 -0.21740479307E+03 -0.20462526421E+03  0.21148803790E+03  0.54211065823E+03  0.40002554018E+03 0.  0.
    9000005    1    3    3    0    0 -0.19563644265E+03 -0.32150594020E+03  0.13083602506E+03  0.39844542001E+03  0.99999687468E+00 0.  0.
          4    1    3    3  501    0 -0.21768350411E+02  0.11688067599E+03  0.80652012836E+02  0.14366523822E+03  0.00000000000E+00 0.  1.
   -9000007    1    1    2    0  503  0.21740479307E+03  0.20462526421E+03  0.17564252542E+03  0.52913763761E+03  0.40000000000E+03 0. -1.
<mgrwt>
<rscale>  2 0.49915095E+03</rscale>
<asrwt>0</asrwt>
<pdfrwt beam="1">  1       21 0.11218299E+00 0.49915606E+03</pdfrwt>
<pdfrwt beam="2">  1       21 0.52624441E-01 0.49915606E+03</pdfrwt>
<totfact> 0.18004939E+03</totfact>
</mgrwt>
</event>
<event>
 6    1  0.8739326E-004  0.5818773E+03  0.7818608E-02  0.9943784E-01
         21   -1    0    0  501  502  0.00000000000E+00  0.00000000000E+00  0.39248683964E+03  0.39248683964E+03  0.00000000000E+00 0. -1.
         21   -1    0    0  502  503 -0.00000000000E+00 -0.00000000000E+00 -0.88197809501E+03  0.88197809501E+03  0.00000000000E+00 0. -1.
    9000007    2    1    2  501    0  0.20567317668E+03  0.36916084541E+03 -0.15008090122E+03  0.60083256170E+03  0.39986785929E+03 0.  0.
    9000005    1    3    3    0    0  0.14683437842E+03 -0.52153195714E+02 -0.51971721389E+02  0.16426305223E+03  0.99999687468E+00 0.  0.
          4    1    3    3  501    0  0.58838798255E+02  0.42131404113E+03 -0.98109179835E+02  0.43656950947E+03  0.00000000000E+00 0.  1.
   -9000007    1    1    2    0  503 -0.20567317668E+03 -0.36916084541E+03 -0.33941035415E+03  0.67363237295E+03  0.40000000000E+03 0. -1.
<mgrwt>
<rscale>  2 0.58185459E+03</rscale>
<asrwt>0</asrwt>
<pdfrwt beam="1">  1       21 0.60382591E-01 0.58187729E+03</pdfrwt>
<pdfrwt beam="2">  1       21 0.13568894E+00 0.58187729E+03</pdfrwt>
<totfact> 0.79589041E+02</totfact>
</mgrwt>
</event>
<event>
 6    1  0.8739326E-004  0.4651544E+03  0.7818608E-02  0.1024005E+00
         21   -1    0    0  501  502  0.00000000000E+00  0.00000000000E+00  0.15079383617E+04  0.15079383617E+04  0.00000000000E+00 0. -1.
         21   -1    0    0  502  503 -0.00000000000E+00 -0.00000000000E+00 -0.28645976854E+03  0.28645976854E+03  0.00000000000E+00 0. -1.
    9000007    2    1    2  501    0  0.18151606302E+03 -0.12003031274E+03  0.12543799825E+04  0.13378481784E+04  0.41111221209E+03 0.  0.
    9000005    1    3    3    0    0  0.22682898947E+03  0.94523385543E+02  0.67864253665E+03  0.72176364097E+03  0.99999687468E+00 0.  0.
          4    1    3    3  501    0 -0.45312926451E+02 -0.21455369828E+03  0.57573744581E+03  0.61608453743E+03  0.00000000000E+00 0.  1.
   -9000007    1    1    2    0  503 -0.18151606302E+03  0.12003031274E+03 -0.32901389303E+02  0.45654995184E+03  0.40000000000E+03 0. -1.
<mgrwt>
<rscale>  2 0.46268695E+03</rscale>
<asrwt>0</asrwt>
<pdfrwt beam="1">  1       21 0.23199051E+00 0.46515439E+03</pdfrwt>
<pdfrwt beam="2">  1       21 0.44070734E-01 0.46515439E+03</pdfrwt>
<totfact> 0.33784193E+02</totfact>
</mgrwt>
</event>
<event>
 6    1  0.8739326E-004  0.4154811E+03  0.7818608E-02  0.1038555E+00
         21   -1    0    0  501  502  0.00000000000E+00  0.00000000000E+00  0.21691050640E+04  0.21691050640E+04  0.00000000000E+00 0.  1.
         21   -1    0    0  502  503 -0.00000000000E+00 -0.00000000000E+00 -0.12995146927E+03  0.12995146927E+03  0.00000000000E+00 0.  1.
    9000007    2    1    2  501    0 -0.70931318697E+02  0.87139734177E+02  0.17352980862E+04  0.17843209164E+04  0.39989636079E+03 0.  0.
    9000005    1    3    3    0    0 -0.11772300185E+03  0.20937346245E+03  0.68489190851E+03  0.72579189736E+03  0.99999687468E+00 0.  0.
          4    1    3    3  501    0  0.46791683154E+02 -0.12223372828E+03  0.10504061777E+04  0.10585290190E+04  0.00000000000E+00 0.  1.
   -9000007    1    1    2    0  503  0.70931318697E+02 -0.87139734177E+02  0.30385550852E+03  0.51473561689E+03  0.40000000000E+03 0.  1.
<mgrwt>
<rscale>  2 0.41545620E+03</rscale>
<asrwt>0</asrwt>
<pdfrwt beam="1">  1       21 0.33370844E+00 0.41548115E+03</pdfrwt>
<pdfrwt beam="2">  1       21 0.19992535E-01 0.41548115E+03</pdfrwt>
<totfact> 0.40384191E+02</totfact>
</mgrwt>
</event>
<event>
 6    1  0.8739326E-004  0.5093240E+03  0.7818608E-02  0.1011378E+00
         21   -1    0    0  501  502  0.00000000000E+00  0.00000000000E+00  0.17102394463E+04  0.17102394463E+04  0.00000000000E+00 0.  1.
         21   -1    0    0  502  503 -0.00000000000E+00 -0.00000000000E+00 -0.25738712216E+03  0.25738712216E+03  0.00000000000E+00 0. -1.
    9000007    2    1    2  501    0 -0.30834253412E+03  0.65308546904E+02  0.13569938170E+04  0.14494285580E+04  0.40008824114E+03 0.  0.
    9000005    1    3    3    0    0 -0.43153878519E+02 -0.87666666073E+02  0.55429873575E+02  0.11234399161E+03  0.99999687468E+00 0.  0.
          4    1    3    3  501    0 -0.26518865560E+03  0.15297521298E+03  0.13015639434E+04  0.13370845664E+04  0.00000000000E+00 0.  1.
   -9000007    1    1    2    0  503  0.30834253412E+03 -0.65308546904E+02  0.95858507133E+02  0.51819801045E+03  0.40000000000E+03 0. -1.
<mgrwt>
<rscale>  2 0.50930666E+03</rscale>
<asrwt>0</asrwt>
<pdfrwt beam="1">  1       21 0.26311375E+00 0.50932399E+03</pdfrwt>
<pdfrwt beam="2">  1       21 0.39598020E-01 0.50932399E+03</pdfrwt>
<totfact> 0.26482979E+02</totfact>
</mgrwt>
</event>
<event>
 6    1  0.8739326E-004  0.5009156E+03  0.7818608E-02  0.1013567E+00
         21   -1    0    0  501  502  0.00000000000E+00  0.00000000000E+00  0.68210750727E+03  0.68210750727E+03  0.00000000000E+00 0. -1.
         21   -1    0    0  502  503 -0.00000000000E+00 -0.00000000000E+00 -0.41547002079E+03  0.41547002079E+03  0.00000000000E+00 0. -1.
    9000007    2    1    2  501    0 -0.29609256764E+03 -0.53267787986E+02 -0.53000365443E+02  0.50371169959E+03  0.40050988966E+03 0.  0.
    9000005    1    3    3    0    0 -0.85964718315E+02 -0.14753446679E+03  0.12584632197E+03  0.21211942021E+03  0.99999687468E+00 0.  0.
          4    1    3    3  501    0 -0.21012784932E+03  0.94266678801E+02 -0.17884668741E+03  0.29159227937E+03  0.00000000000E+00 0.  1.
   -9000007    1    1    2    0  503  0.29609256764E+03  0.53267787986E+02  0.31963785192E+03  0.59386582847E+03  0.40000000000E+03 0. -1.
<mgrwt>
<rscale>  2 0.50081367E+03</rscale>
<asrwt>0</asrwt>
<pdfrwt beam="1">  1       21 0.10493962E+00 0.50091560E+03</pdfrwt>
<pdfrwt beam="2">  1       21 0.63918465E-01 0.50091560E+03</pdfrwt>
<totfact> 0.13888941E+03</totfact>
</mgrwt>
</event>
<event>
 6    1  0.8739326E-004  0.7957898E+03  0.7818608E-02  0.9566305E-01
         21   -1    0    0  501  502  0.00000000000E+00  0.00000000000E+00  0.31766693183E+03  0.31766693183E+03  0.00000000000E+00 0. -1.
         21   -1    0    0  502  503 -0.00000000000E+00 -0.00000000000E+00 -0.20675851368E+04  0.20675851368E+04  0.00000000000E+00 0.  1.
    9000007    2    1    2  501    0  0.39179965741E+03  0.56548597900E+03 -0.64719404151E+03  0.10253690058E+04  0.39904900278E+03 0.  0.
    9000005    1    3    3    0    0 -0.28547359781E+02 -0.22692007291E+02  0.20000468044E+02  0.41604058229E+02  0.99999687468E+00 0.  0.
          4    1    3    3  501    0  0.42034701719E+03  0.58817798629E+03 -0.66719450956E+03  0.98376494754E+03  0.00000000000E+00 0.  1.
   -9000007    1    1    2    0  503 -0.39179965741E+03 -0.56548597900E+03 -0.11027241635E+04  0.13598830629E+04  0.40000000000E+03 0.  1.
<mgrwt>
<rscale>  2 0.79567035E+03</rscale>
<asrwt>0</asrwt>
<pdfrwt beam="1">  1       21 0.48871834E-01 0.79578977E+03</pdfrwt>
<pdfrwt beam="2">  1       21 0.31809003E+00 0.79578977E+03</pdfrwt>
<totfact> 0.69537843E+01</totfact>
</mgrwt>
</event>
<event>
 6    1  0.8739326E-004  0.4126710E+03  0.7818608E-02  0.1039492E+00
         21   -1    0    0  501  502  0.00000000000E+00  0.00000000000E+00  0.25043916428E+03  0.25043916428E+03  0.00000000000E+00 0.  1.
         21   -1    0    0  502  503 -0.00000000000E+00 -0.00000000000E+00 -0.79420931394E+03  0.79420931394E+03  0.00000000000E+00 0.  1.
    9000007    2    1    2  501    0  0.69340496902E+02  0.73159274693E+02 -0.73618246195E+02  0.41918609221E+03  0.40017115056E+03 0.  0.
    9000005    1    3    3    0    0  0.12499761476E+02  0.13618653788E+03 -0.21469076164E+03  0.25455085988E+03  0.99999687468E+00 0.  0.
          4    1    3    3  501    0  0.56840735426E+02 -0.63027263188E+02  0.14107251545E+03  0.16463523233E+03  0.00000000000E+00 0.  1.
   -9000007    1    1    2    0  503 -0.69340496902E+02 -0.73159274693E+02 -0.47015190347E+03  0.62546238601E+03  0.40000000000E+03 0.  1.
<mgrwt>
<rscale>  2 0.41262948E+03</rscale>
<asrwt>0</asrwt>
<pdfrwt beam="1">  1       21 0.38529103E-01 0.41267098E+03</pdfrwt>
<pdfrwt beam="2">  1       21 0.12218605E+00 0.41267098E+03</pdfrwt>
<totfact> 0.28819629E+03</totfact>
</mgrwt>
</event>
<event>
 6    1  0.8739326E-004  0.4201896E+03  0.7818608E-02  0.1037117E+00
         21   -1    0    0  501  502  0.00000000000E+00  0.00000000000E+00  0.39483723807E+03  0.39483723807E+03  0.00000000000E+00 0. -1.
         21   -1    0    0  502  503 -0.00000000000E+00 -0.00000000000E+00 -0.11698720212E+04  0.11698720212E+04  0.00000000000E+00 0. -1.
    9000007    2    1    2  501    0 -0.12864343874E+03 -0.31906793435E+01  0.22826399680E+03  0.47697410924E+03  0.39854803210E+03 0.  0.
    9000005    1    3    3    0    0  0.76314156188E+02 -0.13643421912E+03  0.15879405481E+03  0.22283334225E+03  0.99999687468E+00 0.  0.
          4    1    3    3  501    0 -0.20495759492E+03  0.13324353977E+03  0.69469941989E+02  0.25414076700E+03  0.00000000000E+00 0.  1.
   -9000007    1    1    2    0  503  0.12864343874E+03  0.31906793435E+01 -0.10032987799E+04  0.10877351500E+04  0.40000000000E+03 0. -1.
<mgrwt>
<rscale>  2 0.41984370E+03</rscale>
<asrwt>0</asrwt>
<pdfrwt beam="1">  1       21 0.60744191E-01 0.42018962E+03</pdfrwt>
<pdfrwt beam="2">  1       21 0.17998031E+00 0.42018962E+03</pdfrwt>
<totfact> 0.38378943E+02</totfact>
</mgrwt>
</event>
<event>
 6    1  0.8739326E-004  0.5321371E+03  0.7818608E-02  0.1005797E+00
         21   -1    0    0  501  502  0.00000000000E+00  0.00000000000E+00  0.10632350164E+04  0.10632350164E+04  0.00000000000E+00 0. -1.
         21   -1    0    0  502  503 -0.00000000000E+00 -0.00000000000E+00 -0.10554035786E+04  0.10554035786E+04  0.00000000000E+00 0. -1.
    9000007    2    1    2  501    0  0.35095561762E+03  0.19906172494E+00  0.92026853789E+03  0.10623662122E+04  0.39819329714E+03 0.  0.
    9000005    1    3    3    0    0  0.27049526424E+03  0.34715501577E+01  0.94108323268E+03  0.97919272386E+03  0.99999687468E+00 0.  0.
          4    1    3    3  501    0  0.80460353386E+02 -0.32724884328E+01 -0.20814694792E+02  0.83173488365E+02  0.00000000000E+00 0.  1.
   -9000007    1    1    2    0  503 -0.35095561762E+03 -0.19906172494E+00 -0.91243710003E+03  0.10562723828E+04  0.40000000000E+03 0. -1.
<mgrwt>
<rscale>  2 0.53179758E+03</rscale>
<asrwt>0</asrwt>
<pdfrwt beam="1">  1       21 0.16357462E+00 0.53213709E+03</pdfrwt>
<pdfrwt beam="2">  1       21 0.16236978E+00 0.53213709E+03</pdfrwt>
<totfact> 0.42844893E+01</totfact>
</mgrwt>
</event>
<event>
 6    1  0.8739326E-004  0.5345348E+03  0.7818608E-02  0.1005147E+00
         21   -1    0    0  501  502  0.00000000000E+00  0.00000000000E+00  0.20391415979E+03  0.20391415979E+03  0.00000000000E+00 0.  1.
         21   -1    0    0  502  503 -0.00000000000E+00 -0.00000000000E+00 -0.26587814155E+04  0.26587814155E+04  0.00000000000E+00 0. -1.
    9000007    2    1    2  501    0 -0.28551097106E+03 -0.21026390680E+03 -0.24279217109E+03  0.58695314585E+03  0.39979811404E+03 0.  0.
    9000005    1    3    3    0    0 -0.22777146050E+03 -0.11331804030E+03 -0.34907414467E+03  0.43194279129E+03  0.99999687468E+00 0.  0.
          4    1    3    3  501    0 -0.57739510556E+02 -0.96945866497E+02  0.10628197359E+03  0.15501035456E+03  0.00000000000E+00 0.  1.
   -9000007    1    1    2    0  503  0.28551097106E+03  0.21026390680E+03 -0.22120750846E+04  0.22757424294E+04  0.40000000000E+03 0. -1.
<mgrwt>
<rscale>  2 0.53449701E+03</rscale>
<asrwt>0</asrwt>
<pdfrwt beam="1">  1       21 0.31371412E-01 0.53453477E+03</pdfrwt>
<pdfrwt beam="2">  1       21 0.40904326E+00 0.53453477E+03</pdfrwt>
<totfact> 0.52503546E+01</totfact>
</mgrwt>
</event>
<event>
 6    1  0.8739326E-004  0.4053342E+03  0.7818608E-02  0.1041956E+00
         21   -1    0    0  501  502  0.00000000000E+00  0.00000000000E+00  0.44096895121E+03  0.44096895121E+03  0.00000000000E+00 0. -1.
         21   -1    0    0  502  503 -0.00000000000E+00 -0.00000000000E+00 -0.68582203392E+03  0.68582203392E+03  0.00000000000E+00 0. -1.
    9000007    2    1    2  501    0 -0.65522612336E+02 -0.16036749090E+01  0.25839289912E+03  0.48060811417E+03  0.39990184370E+03 0.  0.
    9000005    1    3    3    0    0 -0.23130460203E+03  0.35464797444E+02  0.16894032243E+03  0.28861982488E+03  0.99999687468E+00 0.  0.
          4    1    3    3  501    0  0.16578198969E+03 -0.37068472353E+02  0.89452576694E+02  0.19198828929E+03  0.00000000000E+00 0.  1.
   -9000007    1    1    2    0  503  0.65522612336E+02  0.16036749090E+01 -0.50324598182E+03  0.64618287096E+03  0.40000000000E+03 0. -1.
<mgrwt>
<rscale>  2 0.40530995E+03</rscale>
<asrwt>0</asrwt>
<pdfrwt beam="1">  1       21 0.67841377E-01 0.40533416E+03</pdfrwt>
<pdfrwt beam="2">  1       21 0.10551108E+00 0.40533416E+03</pdfrwt>
<totfact> 0.12467876E+03</totfact>
</mgrwt>
</event>
<event>
 6    1  0.8739326E-004  0.4091162E+03  0.7818608E-02  0.1040789E+00
         21   -1    0    0  501  502  0.00000000000E+00  0.00000000000E+00  0.47465300513E+03  0.47465300513E+03  0.00000000000E+00 0. -1.
         21   -1    0    0  502  503 -0.00000000000E+00 -0.00000000000E+00 -0.43799085901E+03  0.43799085901E+03  0.00000000000E+00 0. -1.
    9000007    2    1    2  501    0 -0.84183065698E+02 -0.17009280795E+02  0.22120657986E+03  0.46383126159E+03  0.39853605116E+03 0.  0.
    9000005    1    3    3    0    0 -0.15900450904E+03  0.15981134770E+02 -0.60210142561E+02  0.17077497423E+03  0.99999687468E+00 0.  0.
          4    1    3    3  501    0  0.74821443343E+02 -0.32990415565E+02  0.28141672242E+03  0.29305628736E+03  0.00000000000E+00 0.  1.
   -9000007    1    1    2    0  503  0.84183065698E+02  0.17009280795E+02 -0.18454443374E+03  0.44881260255E+03  0.40000000000E+03 0.  1.
<mgrwt>
<rscale>  2 0.40875797E+03</rscale>
<asrwt>0</asrwt>
<pdfrwt beam="1">  1       21 0.73023539E-01 0.40911625E+03</pdfrwt>
<pdfrwt beam="2">  1       21 0.67383209E-01 0.40911625E+03</pdfrwt>
<totfact> 0.30049563E+03</totfact>
</mgrwt>
</event>
<event>
 6    1  0.8739326E-004  0.4439286E+03  0.7818608E-02  0.1029638E+00
         21   -1    0    0  501  502  0.00000000000E+00  0.00000000000E+00  0.49204653020E+03  0.49204653020E+03  0.00000000000E+00 0.  1.
         21   -1    0    0  502  503 -0.00000000000E+00 -0.00000000000E+00 -0.42468587987E+03  0.42468587987E+03  0.00000000000E+00 0.  1.
    9000007    2    1    2  501    0 -0.19248686455E+03 -0.46278647914E+01  0.14537780677E+03  0.46600046439E+03  0.39868423089E+03 0.  0.
    9000005    1    3    3    0    0 -0.16367487094E+02 -0.17567620064E+03 -0.78197921586E+01  0.17661305515E+03  0.99999687468E+00 0.  0.
          4    1    3    3  501    0 -0.17611937745E+03  0.17104833585E+03  0.15319759893E+03  0.28938740924E+03  0.00000000000E+00 0.  1.
   -9000007    1    1    2    0  503  0.19248686455E+03  0.46278647914E+01 -0.78017156437E+02  0.45073194568E+03  0.40000000000E+03 0.  1.
<mgrwt>
<rscale>  2 0.44363201E+03</rscale>
<asrwt>0</asrwt>
<pdfrwt beam="1">  1       21 0.75699466E-01 0.44392861E+03</pdfrwt>
<pdfrwt beam="2">  1       21 0.65336289E-01 0.44392861E+03</pdfrwt>
<totfact> 0.29274563E+03</totfact>
</mgrwt>
</event>
<event>
 6    1  0.8739326E-004  0.7258688E+03  0.7818608E-02  0.9674005E-01
         21   -1    0    0  501  502  0.00000000000E+00  0.00000000000E+00  0.13900990743E+04  0.13900990743E+04  0.00000000000E+00 0.  1.
         21   -1    0    0  502  503 -0.00000000000E+00 -0.00000000000E+00 -0.52588376818E+03  0.52588376818E+03  0.00000000000E+00 0. -1.
    9000007    2    1    2  501    0 -0.58613752990E+03  0.15253698598E+03  0.93840227158E+03  0.11863744257E+04  0.40007589104E+03 0.  0.
    9000005    1    3    3    0    0 -0.99975313708E+02  0.77672325940E+02 -0.29373406847E+00  0.12660623935E+03  0.99999687468E+00 0.  0.
          4    1    3    3  501    0 -0.48616221619E+03  0.74864660042E+02  0.93869600565E+03  0.10597681864E+04  0.00000000000E+00 0.  1.
   -9000007    1    1    2    0  503  0.58613752990E+03 -0.15253698598E+03 -0.74186965436E+02  0.72960841681E+03  0.40000000000E+03 0. -1.
<mgrwt>
<rscale>  2 0.72585830E+03</rscale>
<asrwt>0</asrwt>
<pdfrwt beam="1">  1       21 0.21386140E+00 0.72586876E+03</pdfrwt>
<pdfrwt beam="2">  1       21 0.80905195E-01 0.72586876E+03</pdfrwt>
<totfact> 0.10379867E+02</totfact>
</mgrwt>
</event>
<event>
 6    1  0.8739326E-004  0.4095351E+03  0.7818608E-02  0.1040532E+00
         21   -1    0    0  501  502  0.00000000000E+00  0.00000000000E+00  0.12193328842E+04  0.12193328842E+04  0.00000000000E+00 0. -1.
         21   -1    0    0  502  503 -0.00000000000E+00 -0.00000000000E+00 -0.26206499909E+03  0.26206499909E+03  0.00000000000E+00 0. -1.
    9000007    2    1    2  501    0  0.67835361382E+02 -0.55833102990E+02  0.98921752500E+03  0.10706184399E+04  0.39994194624E+03 0.  0.
    9000005    1    3    3    0    0 -0.76285611880E+02 -0.75417914955E+02  0.88551285399E+03  0.89198731552E+03  0.99999687468E+00 0.  0.
          4    1    3    3  501    0  0.14412097326E+03  0.19584811964E+02  0.10370467101E+03  0.17863112434E+03  0.00000000000E+00 0.  1.
   -9000007    1    1    2    0  503 -0.67835361382E+02  0.55833102990E+02 -0.31949639898E+02  0.41077944342E+03  0.40000000000E+03 0. -1.
<mgrwt>
<rscale>  2 0.40952089E+03</rscale>
<asrwt>0</asrwt>
<pdfrwt beam="1">  1       21 0.18758967E+00 0.40953507E+03</pdfrwt>
<pdfrwt beam="2">  1       21 0.40317693E-01 0.40953507E+03</pdfrwt>
<totfact> 0.81539470E+02</totfact>
</mgrwt>
</event>
<event>
 6    1  0.8739326E-004  0.4146266E+03  0.7818608E-02  0.1039041E+00
         21   -1    0    0  501  502  0.00000000000E+00  0.00000000000E+00  0.30680961001E+03  0.30680961001E+03  0.00000000000E+00 0.  1.
         21   -1    0    0  502  503 -0.00000000000E+00 -0.00000000000E+00 -0.11369249101E+04  0.11369249101E+04  0.00000000000E+00 0.  1.
    9000007    2    1    2  501    0  0.78688413736E+02 -0.75652826565E+02  0.10117742133E+03  0.42431245366E+03  0.39735245201E+03 0.  0.
    9000005    1    3    3    0    0  0.74811842005E+02 -0.18890560012E+03 -0.73525099689E+02  0.21607655527E+03  0.99999687468E+00 0.  0.
          4    1    3    3  501    0  0.38765717310E+01  0.11325277355E+03  0.17470252102E+03  0.20823589839E+03  0.00000000000E+00 0.  1.
   -9000007    1    1    2    0  503 -0.78688413736E+02  0.75652826565E+02 -0.93129272144E+03  0.10194220665E+04  0.40000000000E+03 0.  1.
<mgrwt>
<rscale>  2 0.41398673E+03</rscale>
<asrwt>0</asrwt>
<pdfrwt beam="1">  1       21 0.47201478E-01 0.41462660E+03</pdfrwt>
<pdfrwt beam="2">  1       21 0.17491153E+00 0.41462660E+03</pdfrwt>
<totfact> 0.71862310E+02</totfact>
</mgrwt>
</event>
<event>
 6    1  0.8739326E-004  0.4958539E+03  0.7818608E-02  0.1015010E+00
         21   -1    0    0  501  502  0.00000000000E+00  0.00000000000E+00  0.11706303902E+04  0.11706303902E+04  0.00000000000E+00 0.  1.
         21   -1    0    0  502  503 -0.00000000000E+00 -0.00000000000E+00 -0.26799805831E+03  0.26799805831E+03  0.00000000000E+00 0.  1.
    9000007    2    1    2  501    0  0.68043586932E+02  0.28502834850E+03  0.78770615916E+03  0.92963030084E+03  0.39731651601E+03 0.  0.
    9000005    1    3    3    0    0  0.21482395229E+03  0.60846716804E+02  0.31226924088E+03  0.38388114334E+03  0.99999687468E+00 0.  0.
          4    1    3    3  501    0 -0.14678036536E+03  0.22418163169E+03  0.47543691828E+03  0.54574915750E+03  0.00000000000E+00 0.  1.
   -9000007    1    1    2    0  503 -0.68043586932E+02 -0.28502834850E+03  0.11492617276E+03  0.50899814769E+03  0.40000000000E+03 0.  1.
<mgrwt>
<rscale>  2 0.49531247E+03</rscale>
<asrwt>0</asrwt>
<pdfrwt beam="1">  1       21 0.18009698E+00 0.49585390E+03</pdfrwt>
<pdfrwt beam="2">  1       21 0.41230471E-01 0.49585390E+03</pdfrwt>
<totfact> 0.84404630E+02</totfact>
</mgrwt>
</event>
<event>
 6    1  0.8739326E-004  0.4093883E+03  0.7818608E-02  0.1040597E+00
         21   -1    0    0  501  502  0.00000000000E+00  0.00000000000E+00  0.17969789892E+03  0.17969789892E+03  0.00000000000E+00 0.  1.
         21   -1    0    0  502  503 -0.00000000000E+00 -0.00000000000E+00 -0.10286737812E+04  0.10286737812E+04  0.00000000000E+00 0.  1.
    9000007    2    1    2  501    0 -0.86760612009E+02 -0.84486524580E+01 -0.23926235596E+03  0.47396758992E+03  0.39974994407E+03 0.  0.
    9000005    1    3    3    0    0  0.11399485960E+03 -0.64808640947E+02  0.28895898582E+02  0.13427941355E+03  0.99999687468E+00 0.  0.
          4    1    3    3  501    0 -0.20075547160E+03  0.56359988489E+02 -0.26815825454E+03  0.33968817636E+03  0.00000000000E+00 0.  1.
   -9000007    1    1    2    0  503  0.86760612009E+02  0.84486524580E+01 -0.60971352633E+03  0.73440409021E+03  0.40000000000E+03 0.  1.
<mgrwt>
<rscale>  2 0.40932721E+03</rscale>
<asrwt>0</asrwt>
<pdfrwt beam="1">  1       21 0.27645831E-01 0.40938830E+03</pdfrwt>
<pdfrwt beam="2">  1       21 0.15825750E+00 0.40938830E+03</pdfrwt>
<totfact> 0.28298082E+03</totfact>
</mgrwt>
</event>
<event>
 6    1  0.8739326E-004  0.6697960E+03  0.7818608E-02  0.9770340E-01
         21   -1    0    0  501  502  0.00000000000E+00  0.00000000000E+00  0.38895364403E+03  0.38895364403E+03  0.00000000000E+00 0.  1.
         21   -1    0    0  502  503 -0.00000000000E+00 -0.00000000000E+00 -0.11537865309E+04  0.11537865309E+04  0.00000000000E+00 0. -1.
    9000007    2    1    2  501    0  0.10779770017E+03  0.52631395648E+03 -0.39710395268E+03  0.77863854949E+03  0.39994964254E+03 0.  0.
    9000005    1    3    3    0    0  0.66371226391E+02  0.27930178193E+03 -0.43916169154E+03  0.52467000714E+03  0.99999687468E+00 0.  0.
          4    1    3    3  501    0  0.41426473776E+02  0.24701217455E+03  0.42057738862E+02  0.25396854235E+03  0.00000000000E+00 0.  1.
   -9000007    1    1    2    0  503 -0.10779770017E+03 -0.52631395648E+03 -0.36772893419E+03  0.76410162543E+03  0.40000000000E+03 0.  1.
<mgrwt>
<rscale>  2 0.66978851E+03</rscale>
<asrwt>0</asrwt>
<pdfrwt beam="1">  1       21 0.59839023E-01 0.66979603E+03</pdfrwt>
<pdfrwt beam="2">  1       21 0.17750562E+00 0.66979603E+03</pdfrwt>
<totfact> 0.37319867E+02</totfact>
</mgrwt>
</event>
<event>
 6    1  0.8739326E-004  0.4569742E+03  0.7818608E-02  0.1025698E+00
         21   -1    0    0  501  502  0.00000000000E+00  0.00000000000E+00  0.16094557102E+03  0.16094557102E+03  0.00000000000E+00 0.  1.
         21   -1    0    0  502  503 -0.00000000000E+00 -0.00000000000E+00 -0.15319448080E+04  0.15319448080E+04  0.00000000000E+00 0.  1.
    9000007    2    1    2  501    0 -0.17729321826E+03  0.13188087860E+03 -0.35309114335E+03  0.57711157546E+03  0.39944832410E+03 0.  0.
    9000005    1    3    3    0    0 -0.15011689689E+03 -0.58647487604E+02 -0.34921875356E+03  0.38461584518E+03  0.99999687468E+00 0.  0.
          4    1    3    3  501    0 -0.27176321372E+02  0.19052836621E+03 -0.38723897980E+01  0.19249573028E+03  0.00000000000E+00 0.  1.
   -9000007    1    1    2    0  503  0.17729321826E+03 -0.13188087860E+03 -0.10179080936E+04  0.11157788035E+04  0.40000000000E+03 0.  1.
<mgrwt>
<rscale>  2 0.45685348E+03</rscale>
<asrwt>0</asrwt>
<pdfrwt beam="1">  1       21 0.24760857E-01 0.45697423E+03</pdfrwt>
<pdfrwt beam="2">  1       21 0.23568381E+00 0.45697423E+03</pdfrwt>
<totfact> 0.10263925E+03</totfact>
</mgrwt>
</event>
<event>
 6    1  0.8739326E-004  0.4509505E+03  0.7818608E-02  0.1027487E+00
         21   -1    0    0  501  502  0.00000000000E+00  0.00000000000E+00  0.19328658993E+04  0.19328658993E+04  0.00000000000E+00 0. -1.
         21   -1    0    0  502  503 -0.00000000000E+00 -0.00000000000E+00 -0.11318972847E+03  0.11318972847E+03  0.00000000000E+00 0. -1.
    9000007    2    1    2  501    0 -0.67740436956E+02 -0.19689485356E+03  0.11834374444E+04  0.12662120107E+04  0.39926472535E+03 0.  0.
    9000005    1    3    3    0    0 -0.10321625697E+03 -0.22924941357E+03  0.11913154674E+04  0.12175559257E+04  0.99999687468E+00 0.  0.
          4    1    3    3  501    0  0.35475820010E+02  0.32354560006E+02 -0.78780229733E+01  0.48656084969E+02  0.00000000000E+00 0.  1.
   -9000007    1    1    2    0  503  0.67740436956E+02  0.19689485356E+03  0.63623872640E+03  0.77984361710E+03  0.40000000000E+03 0. -1.
<mgrwt>
<rscale>  2 0.45078739E+03</rscale>
<asrwt>0</asrwt>
<pdfrwt beam="1">  1       21 0.29736396E+00 0.45095050E+03</pdfrwt>
<pdfrwt beam="2">  1       21 0.17413806E-01 0.45095050E+03</pdfrwt>
<totfact> 0.84972592E+02</totfact>
</mgrwt>
</event>
<event>
 6    1  0.8739326E-004  0.4387508E+03  0.7818608E-02  0.1031132E+00
         21   -1    0    0  501  502  0.00000000000E+00  0.00000000000E+00  0.73104471391E+03  0.73104471391E+03  0.00000000000E+00 0.  1.
         21   -1    0    0  502  503 -0.00000000000E+00 -0.00000000000E+00 -0.46601114187E+03  0.46601114187E+03  0.00000000000E+00 0.  1.
    9000007    2    1    2  501    0  0.17032086959E+03 -0.58998352003E+02 -0.26221862409E+03  0.51113685000E+03  0.40001533526E+03 0.  0.
    9000005    1    3    3    0    0 -0.98559499010E+02 -0.24916994647E+02  0.36284891879E+02  0.10794639799E+03  0.99999687468E+00 0.  0.
          4    1    3    3  501    0  0.26888036860E+03 -0.34081357356E+02 -0.29850351597E+03  0.40319045200E+03  0.00000000000E+00 0.  1.
   -9000007    1    1    2    0  503 -0.17032086959E+03  0.58998352003E+02  0.52725219614E+03  0.68591900578E+03  0.40000000000E+03 0.  1.
<mgrwt>
<rscale>  2 0.43874731E+03</rscale>
<asrwt>0</asrwt>
<pdfrwt beam="1">  1       21 0.11246842E+00 0.43875081E+03</pdfrwt>
<pdfrwt beam="2">  1       21 0.71694022E-01 0.43875081E+03</pdfrwt>
<totfact> 0.92671623E+02</totfact>
</mgrwt>
</event>
<event>
 6    1  0.8739326E-004  0.4101504E+03  0.7818608E-02  0.1040374E+00
         21   -1    0    0  501  502  0.00000000000E+00  0.00000000000E+00  0.36143006212E+03  0.36143006212E+03  0.00000000000E+00 0. -1.
         21   -1    0    0  502  503 -0.00000000000E+00 -0.00000000000E+00 -0.48197695939E+03  0.48197695939E+03  0.00000000000E+00 0. -1.
    9000007    2    1    2  501    0  0.12505297664E+02  0.89816160046E+02 -0.14002175439E+03  0.43279455807E+03  0.39935161539E+03 0.  0.
    9000005    1    3    3    0    0 -0.10147757745E+03 -0.48464195341E+02 -0.21175680796E+03  0.23976743454E+03  0.99999687468E+00 0.  0.
          4    1    3    3  501    0  0.11398287511E+03  0.13828035539E+03  0.71735053572E+02  0.19302712352E+03  0.00000000000E+00 0.  1.
   -9000007    1    1    2    0  503 -0.12505297664E+02 -0.89816160046E+02  0.19474857129E+02  0.41061246344E+03  0.40000000000E+03 0. -1.
<mgrwt>
<rscale>  2 0.40999220E+03</rscale>
<asrwt>0</asrwt>
<pdfrwt beam="1">  1       21 0.55604625E-01 0.41015037E+03</pdfrwt>
<pdfrwt beam="2">  1       21 0.74150302E-01 0.41015037E+03</pdfrwt>
<totfact> 0.44229770E+03</totfact>
</mgrwt>
</event>
<event>
 6    1  0.8739326E-004  0.4568865E+03  0.7818608E-02  0.1025712E+00
         21   -1    0    0  501  502  0.00000000000E+00  0.00000000000E+00  0.40450418409E+03  0.40450418409E+03  0.00000000000E+00 0. -1.
         21   -1    0    0  502  503 -0.00000000000E+00 -0.00000000000E+00 -0.58734937332E+03  0.58734937332E+03  0.00000000000E+00 0. -1.
    9000007    2    1    2  501    0 -0.21341355804E+03  0.56568301466E+02  0.81828581747E+02  0.46384075025E+03  0.39963358882E+03 0.  0.
    9000005    1    3    3    0    0 -0.20530794431E+03 -0.14123207529E+03  0.91940979547E+02  0.26561625477E+03  0.99999687468E+00 0.  0.
          4    1    3    3  501    0 -0.81056137362E+01  0.19780037675E+03 -0.10112397799E+02  0.19822449548E+03  0.00000000000E+00 0.  1.
   -9000007    1    1    2    0  503  0.21341355804E+03 -0.56568301466E+02 -0.26467377098E+03  0.52801280717E+03  0.40000000000E+03 0. -1.
<mgrwt>
<rscale>  2 0.45680634E+03</rscale>
<asrwt>0</asrwt>
<pdfrwt beam="1">  1       21 0.62231413E-01 0.45688655E+03</pdfrwt>
<pdfrwt beam="2">  1       21 0.90361442E-01 0.45688655E+03</pdfrwt>
<totfact> 0.21496422E+03</totfact>
</mgrwt>
</event>
<event>
 6    1  0.8739326E-004  0.5638187E+03  0.7818608E-02  0.9983510E-01
         21   -1    0    0  501  502  0.00000000000E+00  0.00000000000E+00  0.32590656164E+03  0.32590656164E+03  0.00000000000E+00 0.  1.
         21   -1    0    0  502  503 -0.00000000000E+00 -0.00000000000E+00 -0.97573980032E+03  0.97573980032E+03  0.00000000000E+00 0. -1.
    9000007    2    1    2  501    0  0.47216803591E+02 -0.39438992918E+03 -0.30999604234E+03  0.64341983347E+03  0.40014833882E+03 0.  0.
    9000005    1    3    3    0    0  0.19945342564E+03 -0.22402028777E+03 -0.28469782569E+03  0.41354638226E+03  0.99999687468E+00 0.  0.
          4    1    3    3  501    0 -0.15223662205E+03 -0.17036964141E+03 -0.25298216649E+02  0.22987345121E+03  0.00000000000E+00 0.  1.
   -9000007    1    1    2    0  503 -0.47216803591E+02  0.39438992918E+03 -0.33983719634E+03  0.65822652848E+03  0.40000000000E+03 0.  1.
<mgrwt>
<rscale>  2 0.56379239E+03</rscale>
<asrwt>0</asrwt>
<pdfrwt beam="1">  1       21 0.50139472E-01 0.56381871E+03</pdfrwt>
<pdfrwt beam="2">  1       21 0.15011381E+00 0.56381871E+03</pdfrwt>
<totfact> 0.91300874E+02</totfact>
</mgrwt>
</event>
<event>
 6    1  0.8739326E-004  0.4810771E+03  0.7818608E-02  0.1018844E+00
         21   -1    0    0  501  502  0.00000000000E+00  0.00000000000E+00  0.72133812362E+03  0.72133812362E+03  0.00000000000E+00 0.  1.
         21   -1    0    0  502  503 -0.00000000000E+00 -0.00000000000E+00 -0.32164190135E+03  0.32164190135E+03  0.00000000000E+00 0. -1.
    9000007    2    1    2  501    0 -0.22283774727E+03  0.14757545355E+03  0.22653859150E+03  0.53168877608E+03  0.39992254884E+03 0.  0.
    9000005    1    3    3    0    0 -0.31536380293E+03  0.16131365221E+03  0.25202977045E+03  0.43473719392E+03  0.99999687468E+00 0.  0.
          4    1    3    3  501    0  0.92526055657E+02 -0.13738198668E+02 -0.25491178959E+02  0.96951582157E+02  0.00000000000E+00 0.  1.
   -9000007    1    1    2    0  503  0.22283774727E+03 -0.14757545355E+03  0.17315763078E+03  0.51129124889E+03  0.40000000000E+03 0.  1.
<mgrwt>
<rscale>  2 0.48106100E+03</rscale>
<asrwt>0</asrwt>
<pdfrwt beam="1">  1       21 0.11097510E+00 0.48107710E+03</pdfrwt>
<pdfrwt beam="2">  1       21 0.49483370E-01 0.48107710E+03</pdfrwt>
<totfact> 0.21232623E+03</totfact>
</mgrwt>
</event>
<event>
 6    1  0.8739326E-004  0.5129253E+03  0.7818608E-02  0.1010533E+00
         21   -1    0    0  501  502  0.00000000000E+00  0.00000000000E+00  0.62068773049E+03  0.62068773049E+03  0.00000000000E+00 0. -1.
         21   -1    0    0  502  503 -0.00000000000E+00 -0.00000000000E+00 -0.42552764678E+03  0.42552764678E+03  0.00000000000E+00 0.  1.
    9000007    2    1    2  501    0 -0.31204061683E+03 -0.67326128101E+02  0.56685561006E+02  0.51604809469E+03  0.40148502977E+03 0.  0.
    9000005    1    3    3    0    0  0.70514129522E+01 -0.87344093307E+02  0.15798679248E+03  0.18066416261E+03  0.99999687468E+00 0.  0.
          4    1    3    3  501    0 -0.31909202978E+03  0.20017965206E+02 -0.10130123147E+03  0.33538393208E+03  0.00000000000E+00 0.  1.
   -9000007    1    1    2    0  503  0.31204061683E+03  0.67326128101E+02  0.13847452270E+03  0.53016728258E+03  0.40000000000E+03 0. -1.
<mgrwt>
<rscale>  2 0.51263468E+03</rscale>
<asrwt>0</asrwt>
<pdfrwt beam="1">  1       21 0.95490420E-01 0.51292532E+03</pdfrwt>
<pdfrwt beam="2">  1       21 0.65465792E-01 0.51292532E+03</pdfrwt>
<totfact> 0.16508483E+03</totfact>
</mgrwt>
</event>
<event>
 6    1  0.8739326E-004  0.5428710E+03  0.7818608E-02  0.1003161E+00
         21   -1    0    0  501  502  0.00000000000E+00  0.00000000000E+00  0.50761413686E+03  0.50761413686E+03  0.00000000000E+00 0. -1.
         21   -1    0    0  502  503 -0.00000000000E+00 -0.00000000000E+00 -0.70436945162E+03  0.70436945162E+03  0.00000000000E+00 0. -1.
    9000007    2    1    2  501    0  0.33374062368E+02  0.36550657264E+03  0.15574602159E+03  0.56470770077E+03  0.39991134190E+03 0.  0.
    9000005    1    3    3    0    0 -0.15029289758E+03  0.22436175721E+03  0.19049735377E+03  0.33047903859E+03  0.99999687468E+00 0.  0.
          4    1    3    3  501    0  0.18366695994E+03  0.14114481543E+03 -0.34751332177E+02  0.23422866218E+03  0.00000000000E+00 0.  1.
   -9000007    1    1    2    0  503 -0.33374062368E+02 -0.36550657264E+03 -0.35250133635E+03  0.64727588771E+03  0.40000000000E+03 0. -1.
<mgrwt>
<rscale>  2 0.54285463E+03</rscale>
<asrwt>0</asrwt>
<pdfrwt beam="1">  1       21 0.78094483E-01 0.54287096E+03</pdfrwt>
<pdfrwt beam="2">  1       21 0.10836453E+00 0.54287096E+03</pdfrwt>
<totfact> 0.80317295E+02</totfact>
</mgrwt>
</event>
<event>
 6    1  0.8739326E-004  0.5415378E+03  0.7818608E-02  0.1003483E+00
         21   -1    0    0  501  502  0.00000000000E+00  0.00000000000E+00  0.13694004338E+03  0.13694004338E+03  0.00000000000E+00 0.  1.
         21   -1    0    0  502  503 -0.00000000000E+00 -0.00000000000E+00 -0.21735805960E+04  0.21735805960E+04  0.00000000000E+00 0.  1.
    9000007    2    1    2  501    0  0.35670348188E+03  0.76277813570E+02 -0.87659568981E+03  0.10303801148E+04  0.40025928951E+03 0.  0.
    9000005    1    3    3    0    0  0.30711668326E+03 -0.12325524284E+03 -0.47079347724E+03  0.57546503823E+03  0.99999687468E+00 0.  0.
          4    1    3    3  501    0  0.49586798619E+02  0.19953305641E+03 -0.40580221257E+03  0.45491507661E+03  0.00000000000E+00 0.  1.
   -9000007    1    1    2    0  503 -0.35670348188E+03 -0.76277813570E+02 -0.11600448628E+04  0.12801405245E+04  0.40000000000E+03 0.  1.
<mgrwt>
<rscale>  2 0.54148988E+03</rscale>
<asrwt>0</asrwt>
<pdfrwt beam="1">  1       21 0.21067702E-01 0.54153779E+03</pdfrwt>
<pdfrwt beam="2">  1       21 0.33439696E+00 0.54153779E+03</pdfrwt>
<totfact> 0.33677908E+02</totfact>
</mgrwt>
</event>
<event>
 6    1  0.8739326E-004  0.5223887E+03  0.7818608E-02  0.1008110E+00
         21   -1    0    0  501  502  0.00000000000E+00  0.00000000000E+00  0.13757136789E+04  0.13757136789E+04  0.00000000000E+00 0.  1.
         21   -1    0    0  502  503 -0.00000000000E+00 -0.00000000000E+00 -0.25477308015E+03  0.25477308015E+03  0.00000000000E+00 0.  1.
    9000007    2    1    2  501    0  0.28822155662E+03  0.17192818040E+03  0.94450469878E+03  0.10793419580E+04  0.40032358333E+03 0.  0.
    9000005    1    3    3    0    0  0.17901475868E+01  0.21666476599E+03  0.53852014619E+03  0.58047547174E+03  0.99999687468E+00 0.  0.
          4    1    3    3  501    0  0.28643140903E+03 -0.44736585585E+02  0.40598455259E+03  0.49886648626E+03  0.00000000000E+00 0.  1.
   -9000007    1    1    2    0  503 -0.28822155662E+03 -0.17192818040E+03  0.17643589996E+03  0.55114480104E+03  0.40000000000E+03 0.  1.
<mgrwt>
<rscale>  2 0.52232669E+03</rscale>
<asrwt>0</asrwt>
<pdfrwt beam="1">  1       21 0.21164825E+00 0.52238868E+03</pdfrwt>
<pdfrwt beam="2">  1       21 0.39195859E-01 0.52238868E+03</pdfrwt>
<totfact> 0.56637331E+02</totfact>
</mgrwt>
</event>
<event>
 6    1  0.8739326E-004  0.4573168E+03  0.7818608E-02  0.1025586E+00
         21   -1    0    0  501  502  0.00000000000E+00  0.00000000000E+00  0.82959971363E+03  0.82959971363E+03  0.00000000000E+00 0. -1.
         21   -1    0    0  502  503 -0.00000000000E+00 -0.00000000000E+00 -0.30970434201E+03  0.30970434201E+03  0.00000000000E+00 0. -1.
    9000007    2    1    2  501    0  0.56668903503E+02 -0.21362149056E+03  0.50608362867E+03  0.68209921085E+03  0.40036631774E+03 0.  0.
    9000005    1    3    3    0    0 -0.16268900866E+03 -0.15652654231E+03  0.20282426376E+03  0.30349127492E+03  0.99999687468E+00 0.  0.
          4    1    3    3  501    0  0.21935791216E+03 -0.57094948256E+02  0.30325936491E+03  0.37860793593E+03  0.00000000000E+00 0.  1.
   -9000007    1    1    2    0  503 -0.56668903503E+02  0.21362149056E+03  0.13811742944E+02  0.45720484479E+03  0.40000000000E+03 0. -1.
<mgrwt>
<rscale>  2 0.45723665E+03</rscale>
<asrwt>0</asrwt>
<pdfrwt beam="1">  1       21 0.12763072E+00 0.45731684E+03</pdfrwt>
<pdfrwt beam="2">  1       21 0.47646822E-01 0.45731684E+03</pdfrwt>
<totfact> 0.16279783E+03</totfact>
</mgrwt>
</event>
<event>
 6    1  0.8739326E-004  0.4749739E+03  0.7818608E-02  0.1020544E+00
         21   -1    0    0  501  502  0.00000000000E+00  0.00000000000E+00  0.88081606779E+03  0.88081606779E+03  0.00000000000E+00 0. -1.
         21   -1    0    0  502  503 -0.00000000000E+00 -0.00000000000E+00 -0.26331060889E+03  0.26331060889E+03  0.00000000000E+00 0. -1.
    9000007    2    1    2  501    0 -0.94662706652E+02 -0.23798992402E+03  0.40409045711E+03  0.62340967585E+03  0.39968774617E+03 0.  0.
    9000005    1    3    3    0    0  0.10487568135E+03 -0.17312571976E+02 -0.17175212691E+02  0.10767832471E+03  0.99999687468E+00 0.  0.
          4    1    3    3  501    0 -0.19953838800E+03 -0.22067735205E+03  0.42126566980E+03  0.51573135114E+03  0.00000000000E+00 0.  1.
   -9000007    1    1    2    0  503  0.94662706652E+02  0.23798992402E+03  0.21341500179E+03  0.52071700083E+03  0.40000000000E+03 0. -1.
<mgrwt>
<rscale>  2 0.47490818E+03</rscale>
<asrwt>0</asrwt>
<pdfrwt beam="1">  1       21 0.13551016E+00 0.47497393E+03</pdfrwt>
<pdfrwt beam="2">  1       21 0.40509325E-01 0.47497393E+03</pdfrwt>
<totfact> 0.19419303E+03</totfact>
</mgrwt>
</event>
<event>
 6    1  0.8739326E-004  0.4897961E+03  0.7818608E-02  0.1016727E+00
         21   -1    0    0  501  502  0.00000000000E+00  0.00000000000E+00  0.34210426484E+03  0.34210426484E+03  0.00000000000E+00 0. -1.
         21   -1    0    0  502  503 -0.00000000000E+00 -0.00000000000E+00 -0.69659507500E+03  0.69659507500E+03  0.00000000000E+00 0. -1.
    9000007    2    1    2  501    0  0.12941567873E+03 -0.25130023591E+03 -0.16064152248E+03  0.51193774975E+03  0.39544194821E+03 0.  0.
    9000005    1    3    3    0    0  0.19742473008E+03 -0.32583285266E+03 -0.15365880561E+03  0.41079873473E+03  0.99999687468E+00 0.  0.
          4    1    3    3  501    0 -0.68009051352E+02  0.74532616746E+02 -0.69827168658E+01  0.10113901502E+03  0.00000000000E+00 0.  1.
   -9000007    1    1    2    0  503 -0.12941567873E+03  0.25130023591E+03 -0.19384928768E+03  0.52676159010E+03  0.40000000000E+03 0. -1.
<mgrwt>
<rscale>  2 0.48886463E+03</rscale>
<asrwt>0</asrwt>
<pdfrwt beam="1">  1       21 0.52631426E-01 0.48979611E+03</pdfrwt>
<pdfrwt beam="2">  1       21 0.10716847E+00 0.48979611E+03</pdfrwt>
<totfact> 0.20232734E+03</totfact>
</mgrwt>
</event>
<event>
 6    1  0.8739326E-004  0.5052462E+03  0.7818608E-02  0.1012498E+00
         21   -1    0    0  501  502  0.00000000000E+00  0.00000000000E+00  0.28675059282E+03  0.28675059282E+03  0.00000000000E+00 0.  1.
         21   -1    0    0  502  503 -0.00000000000E+00 -0.00000000000E+00 -0.12714748803E+04  0.12714748803E+04  0.00000000000E+00 0. -1.
    9000007    2    1    2  501    0  0.30354504393E+03  0.43480841864E+02 -0.64942399938E+02  0.50940284848E+03  0.40155145302E+03 0.  0.
    9000005    1    3    3    0    0  0.10332642129E+03  0.17307130190E+03 -0.15520026927E+03  0.25439761880E+03  0.99999687468E+00 0.  0.
          4    1    3    3  501    0  0.20021862265E+03 -0.12959046004E+03  0.90257869329E+02  0.25500522968E+03  0.00000000000E+00 0.  1.
   -9000007    1    1    2    0  503 -0.30354504393E+03 -0.43480841864E+02 -0.91978188755E+03  0.10488226246E+04  0.40000000000E+03 0. -1.
<mgrwt>
<rscale>  2 0.50493790E+03</rscale>
<asrwt>0</asrwt>
<pdfrwt beam="1">  1       21 0.44115476E-01 0.50524622E+03</pdfrwt>
<pdfrwt beam="2">  1       21 0.19561152E+00 0.50524622E+03</pdfrwt>
<totfact> 0.57040583E+02</totfact>
</mgrwt>
</event>
<event>
 6    1  0.8739326E-004  0.4460649E+03  0.7818608E-02  0.1029104E+00
         21   -1    0    0  501  502  0.00000000000E+00  0.00000000000E+00  0.33028574295E+03  0.33028574295E+03  0.00000000000E+00 0. -1.
         21   -1    0    0  502  503 -0.00000000000E+00 -0.00000000000E+00 -0.80268475924E+03  0.80268475924E+03  0.00000000000E+00 0.  1.
    9000007    2    1    2  501    0 -0.19542054617E+03 -0.28013334898E+02  0.49806455088E+02  0.44618633585E+03  0.39702345841E+03 0.  0.
    9000005    1    3    3    0    0 -0.11775455099E+03  0.17249069295E+03 -0.40891227227E+02  0.21281979676E+03  0.99999687468E+00 0.  0.
          4    1    3    3  501    0 -0.77665995183E+02 -0.20050402785E+03  0.90697682316E+02  0.23336653909E+03  0.00000000000E+00 0.  1.
   -9000007    1    1    2    0  503  0.19542054617E+03  0.28013334898E+02 -0.52220547138E+03  0.68678416634E+03  0.40000000000E+03 0.  1.
<mgrwt>
<rscale>  2 0.44539665E+03</rscale>
<asrwt>0</asrwt>
<pdfrwt beam="1">  1       21 0.50813191E-01 0.44606495E+03</pdfrwt>
<pdfrwt beam="2">  1       21 0.12348996E+00 0.44606495E+03</pdfrwt>
<totfact> 0.15529371E+03</totfact>
</mgrwt>
</event>
<event>
 6    1  0.8739326E-004  0.4301833E+03  0.7818608E-02  0.1034059E+00
         21   -1    0    0  501  502  0.00000000000E+00  0.00000000000E+00  0.21886626502E+03  0.21886626502E+03  0.00000000000E+00 0.  1.
         21   -1    0    0  502  503 -0.00000000000E+00 -0.00000000000E+00 -0.18060717205E+04  0.18060717205E+04  0.00000000000E+00 0.  1.
    9000007    2    1    2  501    0  0.15538693070E+03  0.30209317831E+02 -0.51405262598E+02  0.43002735053E+03  0.39651395948E+03 0.  0.
    9000005    1    3    3    0    0 -0.12116118575E+03  0.73802781989E+02 -0.48867054730E+02  0.15005289932E+03  0.99999687468E+00 0.  0.
          4    1    3    3  501    0  0.27654811646E+03 -0.43593464158E+02 -0.25382078678E+01  0.27997445121E+03  0.00000000000E+00 0.  1.
   -9000007    1    1    2    0  503 -0.15538693070E+03 -0.30209317831E+02 -0.15358001929E+04  0.15949106350E+04  0.40000000000E+03 0.  1.
<mgrwt>
<rscale>  2 0.42937116E+03</rscale>
<asrwt>0</asrwt>
<pdfrwt beam="1">  1       21 0.33671735E-01 0.43018333E+03</pdfrwt>
<pdfrwt beam="2">  1       21 0.27785718E+00 0.43018333E+03</pdfrwt>
<totfact> 0.31317301E+02</totfact>
</mgrwt>
</event>
<event>
 6    1  0.8739326E-004  0.4588131E+03  0.7818608E-02  0.1025152E+00
         21   -1    0    0  501  502  0.00000000000E+00  0.00000000000E+00  0.24322893065E+03  0.24322893065E+03  0.00000000000E+00 0.  1.
         21   -1    0    0  502  503 -0.00000000000E+00 -0.00000000000E+00 -0.25246928826E+04  0.25246928826E+04  0.00000000000E+00 0.  1.
    9000007    2    1    2  501    0  0.21286499658E+03  0.72096944734E+02 -0.18405222856E+02  0.45882149332E+03  0.39958595358E+03 0.  0.
    9000005    1    3    3    0    0  0.12881932786E+03  0.16558389250E+03  0.14325258139E+03  0.25403690038E+03  0.99999687468E+00 0.  0.
          4    1    3    3  501    0  0.84045668720E+02 -0.93486947768E+02 -0.16165780424E+03  0.20478459294E+03  0.00000000000E+00 0.  1.
   -9000007    1    1    2    0  503 -0.21286499658E+03 -0.72096944734E+02 -0.22630587290E+04  0.23091003199E+04  0.40000000000E+03 0.  1.
<mgrwt>
<rscale>  2 0.45872286E+03</rscale>
<asrwt>0</asrwt>
<pdfrwt beam="1">  1       21 0.37419835E-01 0.45881312E+03</pdfrwt>
<pdfrwt beam="2">  1       21 0.38841430E+00 0.45881312E+03</pdfrwt>
<totfact> 0.52418919E+01</totfact>
</mgrwt>
</event>
<event>
 6    1  0.8739326E-004  0.6263435E+03  0.7818608E-02  0.9852724E-01
         21   -1    0    0  501  502  0.00000000000E+00  0.00000000000E+00  0.25156618818E+03  0.25156618818E+03  0.00000000000E+00 0. -1.
         21   -1    0    0  502  503 -0.00000000000E+00 -0.00000000000E+00 -0.15993633120E+04  0.15993633120E+04  0.00000000000E+00 0.  1.
    9000007    2    1    2  501    0  0.29046581494E+03  0.38292125378E+03 -0.82532099598E+03  0.10360795873E+04  0.40163053751E+03 0.  0.
    9000005    1    3    3    0    0  0.34004587257E+03  0.42511410747E+03 -0.79678358173E+03  0.96499651602E+03  0.99999687468E+00 0.  0.
          4    1    3    3  501    0 -0.49580057635E+02 -0.42192853682E+02 -0.28537414250E+02  0.71083071325E+02  0.00000000000E+00 0.  1.
   -9000007    1    1    2    0  503 -0.29046581494E+03 -0.38292125378E+03 -0.52247612780E+03  0.81484991278E+03  0.40000000000E+03 0.  1.
<mgrwt>
<rscale>  2 0.62608225E+03</rscale>
<asrwt>0</asrwt>
<pdfrwt beam="1">  1       21 0.38702491E-01 0.62634349E+03</pdfrwt>
<pdfrwt beam="2">  1       21 0.24605589E+00 0.62634349E+03</pdfrwt>
<totfact> 0.33646804E+02</totfact>
</mgrwt>
</event>
<event>
 6    1  0.8739326E-004  0.4094298E+03  0.7818608E-02  0.1040907E+00
         21   -1    0    0  501  502  0.00000000000E+00  0.00000000000E+00  0.29627760202E+03  0.29627760202E+03  0.00000000000E+00 0. -1.
         21   -1    0    0  502  503 -0.00000000000E+00 -0.00000000000E+00 -0.59085133282E+03  0.59085133282E+03  0.00000000000E+00 0. -1.
    9000007    2    1    2  501    0 -0.53471396317E+02  0.38143535197E+02 -0.46927876479E+02  0.41211042082E+03  0.40412702689E+03 0.  0.
    9000005    1    3    3    0    0 -0.12562047094E+03  0.18342539477E+03 -0.96693186241E+02  0.24243751860E+03  0.99999687468E+00 0.  0.
          4    1    3    3  501    0  0.72149074626E+02 -0.14528185958E+03  0.49765309762E+02  0.16967290222E+03  0.00000000000E+00 0.  1.
   -9000007    1    1    2    0  503  0.53471396317E+02 -0.38143535197E+02 -0.24764585431E+03  0.47501851402E+03  0.40000000000E+03 0. -1.
<mgrwt>
<rscale>  2 0.40840774E+03</rscale>
<asrwt>0</asrwt>
<pdfrwt beam="1">  1       21 0.45581170E-01 0.40942981E+03</pdfrwt>
<pdfrwt beam="2">  1       21 0.90900204E-01 0.40942981E+03</pdfrwt>
<totfact> 0.42098303E+03</totfact>
</mgrwt>
</event>
<event>
 6    1  0.8739326E-004  0.5101787E+03  0.7818608E-02  0.1011226E+00
         21   -1    0    0  501  502  0.00000000000E+00  0.00000000000E+00  0.91627914954E+03  0.91627914954E+03  0.00000000000E+00 0.  1.
         21   -1    0    0  502  503 -0.00000000000E+00 -0.00000000000E+00 -0.29861762979E+03  0.29861762979E+03  0.00000000000E+00 0. -1.
    9000007    2    1    2  501    0  0.14924085088E+03  0.27930174788E+03  0.44539754346E+03  0.67642006166E+03  0.39860109153E+03 0.  0.
    9000005    1    3    3    0    0  0.12758881738E+01  0.84435053430E+02 -0.67525213194E+02  0.10812751985E+03  0.99999687468E+00 0.  0.
          4    1    3    3  501    0  0.14796496270E+03  0.19486669445E+03  0.51292275665E+03  0.56829254181E+03  0.00000000000E+00 0.  1.
   -9000007    1    1    2    0  503 -0.14924085088E+03 -0.27930174788E+03  0.17226397630E+03  0.53847671766E+03  0.40000000000E+03 0. -1.
<mgrwt>
<rscale>  2 0.50990446E+03</rscale>
<asrwt>0</asrwt>
<pdfrwt beam="1">  1       21 0.14096602E+00 0.51017869E+03</pdfrwt>
<pdfrwt beam="2">  1       21 0.45941174E-01 0.51017869E+03</pdfrwt>
<totfact> 0.13277289E+03</totfact>
</mgrwt>
</event>
<event>
 6    1  0.8739326E-004  0.4823903E+03  0.7818608E-02  0.1018481E+00
         21   -1    0    0  501  502  0.00000000000E+00  0.00000000000E+00  0.66503349336E+03  0.66503349336E+03  0.00000000000E+00 0. -1.
         21   -1    0    0  502  503 -0.00000000000E+00 -0.00000000000E+00 -0.60802445264E+03  0.60802445264E+03  0.00000000000E+00 0. -1.
    9000007    2    1    2  501    0 -0.24471552646E+03 -0.11320213676E+03  0.44323809762E+03  0.65509896917E+03  0.39999279438E+03 0.  0.
    9000005    1    3    3    0    0  0.15344868646E+02 -0.13295199409E+03 -0.78198633609E+01  0.13406658041E+03  0.99999687468E+00 0.  0.
          4    1    3    3  501    0 -0.26006039511E+03  0.19749857324E+02  0.45105796098E+03  0.52103238876E+03  0.00000000000E+00 0.  1.
   -9000007    1    1    2    0  503  0.24471552646E+03  0.11320213676E+03 -0.38622905690E+03  0.61795897684E+03  0.40000000000E+03 0. -1.
<mgrwt>
<rscale>  2 0.48238882E+03</rscale>
<asrwt>0</asrwt>
<pdfrwt beam="1">  1       21 0.10231285E+00 0.48239031E+03</pdfrwt>
<pdfrwt beam="2">  1       21 0.93542223E-01 0.48239031E+03</pdfrwt>
<totfact> 0.61955588E+02</totfact>
</mgrwt>
</event>
<event>
 6    1  0.8739326E-004  0.4181963E+03  0.7818608E-02  0.1037952E+00
         21   -1    0    0  501  502  0.00000000000E+00  0.00000000000E+00  0.15682261038E+03  0.15682261038E+03  0.00000000000E+00 0. -1.
         21   -1    0    0  502  503 -0.00000000000E+00 -0.00000000000E+00 -0.11145129016E+04  0.11145129016E+04  0.00000000000E+00 0. -1.
    9000007    2    1    2  501    0 -0.82719687346E+02 -0.70995702377E+02 -0.42404179886E+03  0.59556657969E+03  0.40373898404E+03 0.  0.
    9000005    1    3    3    0    0 -0.17801633011E+03 -0.13668930011E+03 -0.89608617987E+02  0.24167019461E+03  0.99999687468E+00 0.  0.
          4    1    3    3  501    0  0.95296642760E+02  0.65693597737E+02 -0.33443318088E+03  0.35389638508E+03  0.00000000000E+00 0.  1.
   -9000007    1    1    2    0  503  0.82719687346E+02  0.70995702377E+02 -0.53364849233E+03  0.67576893225E+03  0.40000000000E+03 0. -1.
<mgrwt>
<rscale>  2 0.41729117E+03</rscale>
<asrwt>0</asrwt>
<pdfrwt beam="1">  1       21 0.24126556E-01 0.41819625E+03</pdfrwt>
<pdfrwt beam="2">  1       21 0.17146352E+00 0.41819625E+03</pdfrwt>
<totfact> 0.29358670E+03</totfact>
</mgrwt>
</event>
<event>
 6    1  0.8739326E-004  0.5275969E+03  0.7818608E-02  0.1006837E+00
         21   -1    0    0  501  502  0.00000000000E+00  0.00000000000E+00  0.45321184406E+03  0.45321184406E+03  0.00000000000E+00 0.  1.
         21   -1    0    0  502  503 -0.00000000000E+00 -0.00000000000E+00 -0.13906590292E+04  0.13906590292E+04  0.00000000000E+00 0.  1.
    9000007    2    1    2  501    0  0.20610248324E+03 -0.27481260947E+03  0.22027856818E+03  0.57173521860E+03  0.40044763536E+03 0.  0.
    9000005    1    3    3    0    0  0.13296069949E+03 -0.32911502198E+03  0.24503964790E+02  0.35580428551E+03  0.99999687468E+00 0.  0.
          4    1    3    3  501    0  0.73141783746E+02  0.54302412503E+02  0.19577460339E+03  0.21593093310E+03  0.00000000000E+00 0.  1.
   -9000007    1    1    2    0  503 -0.20610248324E+03  0.27481260947E+03 -0.11577257533E+04  0.12721356546E+04  0.40000000000E+03 0.  1.
<mgrwt>
<rscale>  2 0.52751198E+03</rscale>
<asrwt>0</asrwt>
<pdfrwt beam="1">  1       21 0.69724899E-01 0.52759692E+03</pdfrwt>
<pdfrwt beam="2">  1       21 0.21394754E+00 0.52759692E+03</pdfrwt>
<totfact> 0.15794757E+02</totfact>
</mgrwt>
</event>
<event>
 6    1  0.8739326E-004  0.5262189E+03  0.7818608E-02  0.1007163E+00
         21   -1    0    0  501  502  0.00000000000E+00  0.00000000000E+00  0.38579402376E+03  0.38579402376E+03  0.00000000000E+00 0. -1.
         21   -1    0    0  502  503 -0.00000000000E+00 -0.00000000000E+00 -0.91562119516E+03  0.91562119516E+03  0.00000000000E+00 0.  1.
    9000007    2    1    2  501    0 -0.34101263317E+03 -0.21260915213E+02  0.37709104008E+02  0.52756829194E+03  0.40020580161E+03 0.  0.
    9000005    1    3    3    0    0 -0.31152505389E+03  0.14826281947E+03  0.71178567994E+02  0.35227419914E+03  0.99999687468E+00 0.  0.
          4    1    3    3  501    0 -0.29487579271E+02 -0.16952373468E+03 -0.33469463986E+02  0.17529409280E+03  0.00000000000E+00 0.  1.
   -9000007    1    1    2    0  503  0.34101263317E+03  0.21260915213E+02 -0.56753627541E+03  0.77384692698E+03  0.40000000000E+03 0.  1.
<mgrwt>
<rscale>  2 0.52617977E+03</rscale>
<asrwt>0</asrwt>
<pdfrwt beam="1">  1       21 0.59352927E-01 0.52621890E+03</pdfrwt>
<pdfrwt beam="2">  1       21 0.14086480E+00 0.52621890E+03</pdfrwt>
<totfact> 0.76275870E+02</totfact>
</mgrwt>
</event>
<event>
 6    1  0.8739326E-004  0.4835718E+03  0.7818608E-02  0.1018171E+00
         21   -1    0    0  501  502  0.00000000000E+00  0.00000000000E+00  0.67009097997E+03  0.67009097997E+03  0.00000000000E+00 0.  1.
         21   -1    0    0  502  503 -0.00000000000E+00 -0.00000000000E+00 -0.61262658430E+03  0.61262658430E+03  0.00000000000E+00 0. -1.
    9000007    2    1    2  501    0 -0.25915934857E+03 -0.81719658667E+02  0.44958560715E+03  0.66014169334E+03  0.39977264360E+03 0.  0.
    9000005    1    3    3    0    0 -0.20857079615E+03 -0.63101800555E+02  0.10927122861E+02  0.21818344632E+03  0.99999687468E+00 0.  0.
          4    1    3    3  501    0 -0.50588552420E+02 -0.18617858112E+02  0.43865848428E+03  0.44195824702E+03  0.00000000000E+00 0.  1.
   -9000007    1    1    2    0  503  0.25915934857E+03  0.81719658667E+02 -0.39212121148E+03  0.62257587092E+03  0.40000000000E+03 0. -1.
<mgrwt>
<rscale>  2 0.48352477E+03</rscale>
<asrwt>0</asrwt>
<pdfrwt beam="1">  1       21 0.10309092E+00 0.48357178E+03</pdfrwt>
<pdfrwt beam="2">  1       21 0.94250243E-01 0.48357178E+03</pdfrwt>
<totfact> 0.59696234E+02</totfact>
</mgrwt>
</event>
<event>
 6    1  0.8739326E-004  0.6034883E+03  0.7818608E-02  0.9898238E-01
         21   -1    0    0  501  502  0.00000000000E+00  0.00000000000E+00  0.41865514413E+03  0.41865514413E+03  0.00000000000E+00 0.  1.
         21   -1    0    0  502  503 -0.00000000000E+00 -0.00000000000E+00 -0.88607791726E+03  0.88607791726E+03  0.00000000000E+00 0. -1.
    9000007    2    1    2  501    0  0.22506115289E+03 -0.39184896692E+03 -0.14528874122E+03  0.62065085147E+03  0.39987563777E+03 0.  0.
    9000005    1    3    3    0    0  0.21092933772E+03 -0.21404973672E+03 -0.26921225798E+03  0.40346587854E+03  0.99999687468E+00 0.  0.
          4    1    3    3  501    0  0.14131815176E+02 -0.17779923020E+03  0.12392351676E+03  0.21718497293E+03  0.00000000000E+00 0.  1.
   -9000007    1    1    2    0  503 -0.22506115289E+03  0.39184896692E+03 -0.32213403190E+03  0.68408220992E+03  0.40000000000E+03 0. -1.
<mgrwt>
<rscale>  2 0.60346770E+03</rscale>
<asrwt>0</asrwt>
<pdfrwt beam="1">  1       21 0.64408484E-01 0.60348831E+03</pdfrwt>
<pdfrwt beam="2">  1       21 0.13631968E+00 0.60348831E+03</pdfrwt>
<totfact> 0.67645266E+02</totfact>
</mgrwt>
</event>
<event>
 6    1  0.8739326E-004  0.4206398E+03  0.7818608E-02  0.1036892E+00
         21   -1    0    0  501  502  0.00000000000E+00  0.00000000000E+00  0.63579827094E+02  0.63579827094E+02  0.00000000000E+00 0. -1.
         21   -1    0    0  502  503 -0.00000000000E+00 -0.00000000000E+00 -0.38430729216E+04  0.38430729216E+04  0.00000000000E+00 0. -1.
    9000007    2    1    2  501    0  0.25782952192E+02  0.12756600754E+03 -0.86181689143E+03  0.95881077992E+03  0.39956465112E+03 0.  0.
    9000005    1    3    3    0    0  0.11288873048E+02 -0.69445623458E+02  0.42575050859E+01  0.70492975647E+02  0.99999687468E+00 0.  0.
          4    1    3    3  501    0  0.14494079144E+02  0.19701163100E+03 -0.86607439652E+03  0.88831780427E+03  0.00000000000E+00 0.  1.
   -9000007    1    1    2    0  503 -0.25782952192E+02 -0.12756600754E+03 -0.29176762031E+04  0.29478419688E+04  0.40000000000E+03 0.  1.
<mgrwt>
<rscale>  2 0.42053628E+03</rscale>
<asrwt>0</asrwt>
<pdfrwt beam="1">  1       21 0.97815091E-02 0.42063981E+03</pdfrwt>
<pdfrwt beam="2">  1       21 0.59124215E+00 0.42063981E+03</pdfrwt>
<totfact> 0.25629515E+01</totfact>
</mgrwt>
</event>
<event>
 6    1  0.8739326E-004  0.4162043E+03  0.7818608E-02  0.1038341E+00
         21   -1    0    0  501  502  0.00000000000E+00  0.00000000000E+00  0.10350159077E+04  0.10350159077E+04  0.00000000000E+00 0.  1.
         21   -1    0    0  502  503 -0.00000000000E+00 -0.00000000000E+00 -0.26840765805E+03  0.26840765805E+03  0.00000000000E+00 0.  1.
    9000007    2    1    2  501    0  0.10346309925E+03 -0.50213486746E+02  0.78336111339E+03  0.88688225258E+03  0.39959916018E+03 0.  0.
    9000005    1    3    3    0    0 -0.18745812431E+01  0.54979553450E+02 -0.28168045397E+02  0.61811844557E+02  0.99999687468E+00 0.  0.
          4    1    3    3  501    0  0.10533768049E+03 -0.10519304020E+03  0.81152915878E+03  0.82507040802E+03  0.00000000000E+00 0.  1.
   -9000007    1    1    2    0  503 -0.10346309925E+03  0.50213486746E+02 -0.16752863711E+02  0.41654131320E+03  0.40000000000E+03 0.  1.
<mgrwt>
<rscale>  2 0.41610795E+03</rscale>
<asrwt>0</asrwt>
<pdfrwt beam="1">  1       21 0.15923321E+00 0.41620429E+03</pdfrwt>
<pdfrwt beam="2">  1       21 0.41293486E-01 0.41620429E+03</pdfrwt>
<totfact> 0.12369743E+03</totfact>
</mgrwt>
</event>
<event>
 6    1  0.8739326E-004  0.4735908E+03  0.7818608E-02  0.1021246E+00
         21   -1    0    0  501  502  0.00000000000E+00  0.00000000000E+00  0.35684951842E+03  0.35684951842E+03  0.00000000000E+00 0.  1.
         21   -1    0    0  502  503 -0.00000000000E+00 -0.00000000000E+00 -0.82441739810E+03  0.82441739810E+03  0.00000000000E+00 0.  1.
    9000007    2    1    2  501    0  0.22485938383E+03 -0.96106969891E+02  0.57828203855E+02  0.47710831453E+03  0.40557360673E+03 0.  0.
    9000005    1    3    3    0    0  0.29192219189E+03 -0.19438097512E+03  0.69578781641E+02  0.35755382316E+03  0.99999687468E+00 0.  0.
          4    1    3    3  501    0 -0.67062808058E+02  0.98274005232E+02 -0.11750577786E+02  0.11955449137E+03  0.00000000000E+00 0.  1.
   -9000007    1    1    2    0  503 -0.22485938383E+03  0.96106969891E+02 -0.52539608353E+03  0.70415860198E+03  0.40000000000E+03 0.  1.
<mgrwt>
<rscale>  2 0.47239520E+03</rscale>
<asrwt>0</asrwt>
<pdfrwt beam="1">  1       21 0.54899926E-01 0.47359080E+03</pdfrwt>
<pdfrwt beam="2">  1       21 0.12683345E+00 0.47359080E+03</pdfrwt>
<totfact> 0.12146677E+03</totfact>
</mgrwt>
</event>
<event>
 6    1  0.8739326E-004  0.6133854E+03  0.7818608E-02  0.9878117E-01
         21   -1    0    0  501  502  0.00000000000E+00  0.00000000000E+00  0.14133311753E+04  0.14133311753E+04  0.00000000000E+00 0. -1.
         21   -1    0    0  502  503 -0.00000000000E+00 -0.00000000000E+00 -0.35303280849E+03  0.35303280849E+03  0.00000000000E+00 0. -1.
    9000007    2    1    2  501    0  0.28440916397E+03 -0.36790354151E+03  0.96828780000E+03  0.11461160230E+04  0.39969874436E+03 0.  0.
    9000005    1    3    3    0    0  0.31690202085E+03 -0.43507392805E+03  0.86210361704E+03  0.10163364897E+04  0.99999687468E+00 0.  0.
          4    1    3    3  501    0 -0.32492856877E+02  0.67170386545E+02  0.10618418296E+03  0.12977953339E+03  0.00000000000E+00 0.  1.
   -9000007    1    1    2    0  503 -0.28440916397E+03  0.36790354151E+03  0.92010566818E+02  0.62024796075E+03  0.40000000000E+03 0. -1.
<mgrwt>
<rscale>  2 0.61333624E+03</rscale>
<asrwt>0</asrwt>
<pdfrwt beam="1">  1       21 0.21743556E+00 0.61338535E+03</pdfrwt>
<pdfrwt beam="2">  1       21 0.54312740E-01 0.61338535E+03</pdfrwt>
<totfact> 0.25123026E+02</totfact>
</mgrwt>
</event>
<event>
 6    1  0.8739326E-004  0.5536702E+03  0.7818608E-02  0.1000650E+00
         21   -1    0    0  501  502  0.00000000000E+00  0.00000000000E+00  0.50039112267E+03  0.50039112267E+03  0.00000000000E+00 0. -1.
         21   -1    0    0  502  503 -0.00000000000E+00 -0.00000000000E+00 -0.65101384786E+03  0.65101384786E+03  0.00000000000E+00 0.  1.
    9000007    2    1    2  501    0 -0.24405655325E+03 -0.29493572744E+03  0.64584231829E+02  0.55738079690E+03  0.39993942697E+03 0.  0.
    9000005    1    3    3    0    0 -0.31075638909E+03 -0.12451550963E+03 -0.54296865389E+02  0.33915010701E+03  0.99999687468E+00 0.  0.
          4    1    3    3  501    0  0.66699835832E+02 -0.17042021780E+03  0.11888109722E+03  0.21823068989E+03  0.00000000000E+00 0.  1.
   -9000007    1    1    2    0  503  0.24405655325E+03  0.29493572744E+03 -0.21520695702E+03  0.59402417363E+03  0.40000000000E+03 0.  1.
<mgrwt>
<rscale>  2 0.55365925E+03</rscale>
<asrwt>0</asrwt>
<pdfrwt beam="1">  1       21 0.76983250E-01 0.55367019E+03</pdfrwt>
<pdfrwt beam="2">  1       21 0.10015598E+00 0.55367019E+03</pdfrwt>
<totfact> 0.10047982E+03</totfact>
</mgrwt>
</event>
<event>
 6    1  0.8739326E-004  0.6100641E+03  0.7818608E-02  0.9885973E-01
         21   -1    0    0  501  502  0.00000000000E+00  0.00000000000E+00  0.10033208641E+04  0.10033208641E+04  0.00000000000E+00 0.  1.
         21   -1    0    0  502  503 -0.00000000000E+00 -0.00000000000E+00 -0.65947881705E+03  0.65947881705E+03  0.00000000000E+00 0. -1.
    9000007    2    1    2  501    0 -0.30757123700E+02 -0.45638900836E+03  0.72343722200E+03  0.94632956705E+03  0.40365989112E+03 0.  0.
    9000005    1    3    3    0    0 -0.43658222858E+01 -0.47566546162E+03  0.76043712354E+03  0.89696282567E+03  0.99999687468E+00 0.  0.
          4    1    3    3  501    0 -0.26391301414E+02  0.19276453255E+02 -0.36999901546E+02  0.49366741384E+02  0.00000000000E+00 0.  1.
   -9000007    1    1    2    0  503  0.30757123700E+02  0.45638900836E+03 -0.37959517491E+03  0.71647011412E+03  0.40000000000E+03 0. -1.
<mgrwt>
<rscale>  2 0.60945937E+03</rscale>
<asrwt>0</asrwt>
<pdfrwt beam="1">  1       21 0.15435706E+00 0.61006412E+03</pdfrwt>
<pdfrwt beam="2">  1       21 0.10145828E+00 0.61006412E+03</pdfrwt>
<totfact> 0.16661618E+02</totfact>
</mgrwt>
</event>
<event>
 6    1  0.8739326E-004  0.5494909E+03  0.7818608E-02  0.1001639E+00
         21   -1    0    0  501  502  0.00000000000E+00  0.00000000000E+00  0.28632058409E+04  0.28632058409E+04  0.00000000000E+00 0.  1.
         21   -1    0    0  502  503 -0.00000000000E+00 -0.00000000000E+00 -0.11198008384E+03  0.11198008384E+03  0.00000000000E+00 0. -1.
    9000007    2    1    2  501    0 -0.32388326554E+03 -0.19113865009E+03  0.17376631584E+04  0.18224745581E+04  0.40063188812E+03 0.  0.
    9000005    1    3    3    0    0 -0.19880625150E+03 -0.63771658988E+02  0.25714383269E+03  0.33123209508E+03  0.99999687468E+00 0.  0.
          4    1    3    3  501    0 -0.12507701404E+03 -0.12736699110E+03  0.14805193257E+04  0.14912424630E+04  0.00000000000E+00 0.  1.
   -9000007    1    1    2    0  503  0.32388326554E+03  0.19113865009E+03  0.10135625987E+04  0.11527113666E+04  0.40000000000E+03 0.  1.
<mgrwt>
<rscale>  2 0.54937574E+03</rscale>
<asrwt>0</asrwt>
<pdfrwt beam="1">  1       21 0.44049315E+00 0.54949091E+03</pdfrwt>
<pdfrwt beam="2">  1       21 0.17227707E-01 0.54949091E+03</pdfrwt>
<totfact> 0.10315203E+02</totfact>
</mgrwt>
</event>
<event>
 6    1  0.8739326E-004  0.4772858E+03  0.7818608E-02  0.1020125E+00
         21   -1    0    0  501  502  0.00000000000E+00  0.00000000000E+00  0.12363172717E+04  0.12363172717E+04  0.00000000000E+00 0. -1.
         21   -1    0    0  502  503 -0.00000000000E+00 -0.00000000000E+00 -0.69658370070E+03  0.69658370070E+03  0.00000000000E+00 0. -1.
    9000007    2    1    2  501    0 -0.23046908519E+03 -0.10667299601E+03  0.11000381739E+04  0.11991187327E+04  0.40411214272E+03 0.  0.
    9000005    1    3    3    0    0 -0.30932545933E+03 -0.15160091728E+03  0.10250657455E+04  0.10813999540E+04  0.99999687468E+00 0.  0.
          4    1    3    3  501    0  0.78856374137E+02  0.44927921279E+02  0.74972428404E+02  0.11771877876E+03  0.00000000000E+00 0.  1.
   -9000007    1    1    2    0  503  0.23046908519E+03  0.10667299601E+03 -0.56030460286E+03  0.73378223969E+03  0.40000000000E+03 0. -1.
<mgrwt>
<rscale>  2 0.47641427E+03</rscale>
<asrwt>0</asrwt>
<pdfrwt beam="1">  1       21 0.19020266E+00 0.47728582E+03</pdfrwt>
<pdfrwt beam="2">  1       21 0.10716672E+00 0.47728582E+03</pdfrwt>
<totfact> 0.84643812E+01</totfact>
</mgrwt>
</event>
<event>
 6    1  0.8739326E-004  0.4032717E+03  0.7818608E-02  0.1042698E+00
         21   -1    0    0  501  502  0.00000000000E+00  0.00000000000E+00  0.38971525662E+03  0.38971525662E+03  0.00000000000E+00 0. -1.
         21   -1    0    0  502  503 -0.00000000000E+00 -0.00000000000E+00 -0.49446728887E+03  0.49446728887E+03  0.00000000000E+00 0. -1.
    9000007    2    1    2  501    0 -0.92143961283E+01  0.50429824990E+02  0.12292386835E+03  0.42107954609E+03  0.39946168074E+03 0.  0.
    9000005    1    3    3    0    0 -0.18771506877E+03  0.27770730215E+02  0.14633317872E+03  0.23963004754E+03  0.99999687468E+00 0.  0.
          4    1    3    3  501    0  0.17850067264E+03  0.22659094776E+02 -0.23409310370E+02  0.18144949854E+03  0.00000000000E+00 0.  1.
   -9000007    1    1    2    0  503  0.92143961283E+01 -0.50429824990E+02 -0.22767590060E+03  0.46310299941E+03  0.40000000000E+03 0. -1.
<mgrwt>
<rscale>  2 0.40313816E+03</rscale>
<asrwt>0</asrwt>
<pdfrwt beam="1">  1       21 0.59956193E-01 0.40327171E+03</pdfrwt>
<pdfrwt beam="2">  1       21 0.76071891E-01 0.40327171E+03</pdfrwt>
<totfact> 0.35520827E+03</totfact>
</mgrwt>
</event>
<event>
 6    1  0.8739326E-004  0.4295431E+03  0.7818608E-02  0.1034070E+00
         21   -1    0    0  501  502  0.00000000000E+00  0.00000000000E+00  0.87233254975E+03  0.87233254975E+03  0.00000000000E+00 0.  1.
         21   -1    0    0  502  503 -0.00000000000E+00 -0.00000000000E+00 -0.26709670109E+03  0.26709670109E+03  0.00000000000E+00 0.  1.
    9000007    2    1    2  501    0 -0.33267901439E+02 -0.15064123286E+03  0.56369552647E+03  0.70870296575E+03  0.40088366491E+03 0.  0.
    9000005    1    3    3    0    0  0.14692589934E+03  0.10024058565E+02  0.37310667258E+03  0.40112004533E+03  0.99999687468E+00 0.  0.
          4    1    3    3  501    0 -0.18019380078E+03 -0.16066529142E+03  0.19058885389E+03  0.30758292042E+03  0.00000000000E+00 0.  1.
   -9000007    1    1    2    0  503  0.33267901439E+02  0.15064123286E+03  0.41540322194E+02  0.43072628509E+03  0.40000000000E+03 0.  1.
<mgrwt>
<rscale>  2 0.42933677E+03</rscale>
<asrwt>0</asrwt>
<pdfrwt beam="1">  1       21 0.13420501E+00 0.42954307E+03</pdfrwt>
<pdfrwt beam="2">  1       21 0.41091801E-01 0.42954307E+03</pdfrwt>
<totfact> 0.19683177E+03</totfact>
</mgrwt>
</event>
<event>
 6    1  0.8739326E-004  0.6945445E+03  0.7818608E-02  0.9726666E-01
         21   -1    0    0  501  502  0.00000000000E+00  0.00000000000E+00  0.10117619026E+04  0.10117619026E+04  0.00000000000E+00 0.  1.
         21   -1    0    0  502  503 -0.00000000000E+00 -0.00000000000E+00 -0.47717999533E+03  0.47717999533E+03  0.00000000000E+00 0. -1.
    9000007    2    1    2  501    0 -0.34547899705E+03  0.45059556951E+03  0.24342047573E+03  0.73583693585E+03  0.39976288409E+03 0.  0.
    9000005    1    3    3    0    0 -0.14340136674E+03  0.20596037794E+03 -0.98285959493E+02  0.26952691720E+03  0.99999687468E+00 0.  0.
          4    1    3    3  501    0 -0.20207763030E+03  0.24463519157E+03  0.34170643522E+03  0.46631001865E+03  0.00000000000E+00 0.  1.
   -9000007    1    1    2    0  503  0.34547899705E+03 -0.45059556951E+03  0.29116143151E+03  0.75310496205E+03  0.40000000000E+03 0. -1.
<mgrwt>
<rscale>  2 0.69451039E+03</rscale>
<asrwt>0</asrwt>
<pdfrwt beam="1">  1       21 0.15565568E+00 0.69454453E+03</pdfrwt>
<pdfrwt beam="2">  1       21 0.73412307E-01 0.69454453E+03</pdfrwt>
<totfact> 0.34070426E+02</totfact>
</mgrwt>
</event>
<event>
 6    1  0.8739326E-004  0.4498185E+03  0.7818608E-02  0.1027825E+00
         21   -1    0    0  501  502  0.00000000000E+00  0.00000000000E+00  0.33820463186E+03  0.33820463186E+03  0.00000000000E+00 0.  1.
         21   -1    0    0  502  503 -0.00000000000E+00 -0.00000000000E+00 -0.60871638599E+03  0.60871638599E+03  0.00000000000E+00 0.  1.
    9000007    2    1    2  501    0  0.18030623196E+03 -0.96142239205E+02 -0.70810493201E+02  0.45535793842E+03  0.40072816059E+03 0.  0.
    9000005    1    3    3    0    0  0.94978733065E+02 -0.73952915355E+02 -0.23779436375E+03  0.26652795885E+03  0.99999687468E+00 0.  0.
          4    1    3    3  501    0  0.85327498898E+02 -0.22189323851E+02  0.16698387055E+03  0.18882997957E+03  0.00000000000E+00 0.  1.
   -9000007    1    1    2    0  503 -0.18030623196E+03  0.96142239205E+02 -0.19970126092E+03  0.49156307943E+03  0.40000000000E+03 0.  1.
<mgrwt>
<rscale>  2 0.44965632E+03</rscale>
<asrwt>0</asrwt>
<pdfrwt beam="1">  1       21 0.52031482E-01 0.44981855E+03</pdfrwt>
<pdfrwt beam="2">  1       21 0.93648674E-01 0.44981855E+03</pdfrwt>
<totfact> 0.29202681E+03</totfact>
</mgrwt>
</event>
<event>
 6    1  0.8739326E-004  0.4316375E+03  0.7818608E-02  0.1033406E+00
         21   -1    0    0  501  502  0.00000000000E+00  0.00000000000E+00  0.74604469373E+03  0.74604469373E+03  0.00000000000E+00 0. -1.
         21   -1    0    0  502  503 -0.00000000000E+00 -0.00000000000E+00 -0.25372747204E+03  0.25372747204E+03  0.00000000000E+00 0.  1.
    9000007    2    1    2  501    0  0.99798283046E+02 -0.12787182950E+03  0.31215955766E+03  0.53204608569E+03  0.39914727330E+03 0.  0.
    9000005    1    3    3    0    0  0.86430630440E+02 -0.97888414755E+02  0.40923728802E+03  0.42956786835E+03  0.99999687468E+00 0.  0.
          4    1    3    3  501    0  0.13367652606E+02 -0.29983414743E+02 -0.97077730361E+02  0.10247821733E+03  0.00000000000E+00 0.  1.
   -9000007    1    1    2    0  503 -0.99798283046E+02  0.12787182950E+03  0.18015766403E+03  0.46772608008E+03  0.40000000000E+03 0.  1.
<mgrwt>
<rscale>  2 0.43143980E+03</rscale>
<asrwt>0</asrwt>
<pdfrwt beam="1">  1       21 0.11477611E+00 0.43163747E+03</pdfrwt>
<pdfrwt beam="2">  1       21 0.39034996E-01 0.43163747E+03</pdfrwt>
<totfact> 0.32620384E+03</totfact>
</mgrwt>
</event>
<event>
 6    1  0.8739326E-004  0.6267013E+03  0.7818608E-02  0.9855669E-01
         21   -1    0    0  501  502  0.00000000000E+00  0.00000000000E+00  0.15430755611E+04  0.15430755611E+04  0.00000000000E+00 0.  1.
         21   -1    0    0  502  503 -0.00000000000E+00 -0.00000000000E+00 -0.56835765627E+03  0.56835765627E+03  0.00000000000E+00 0. -1.
    9000007    2    1    2  501    0 -0.99262581089E+02  0.46089809632E+03  0.12775350526E+04  0.14229723687E+04  0.41288550047E+03 0.  0.
    9000005    1    3    3    0    0  0.46103017031E+02  0.42014262996E+03  0.11504431404E+04  0.12256287109E+04  0.99999687468E+00 0.  0.
          4    1    3    3  501    0 -0.14536559812E+03  0.40755466355E+02  0.12709191215E+03  0.19734365784E+03  0.00000000000E+00 0.  1.
   -9000007    1    1    2    0  503  0.99262581089E+02 -0.46089809632E+03 -0.30281714769E+03  0.68846084866E+03  0.40000000000E+03 0. -1.
<mgrwt>
<rscale>  2 0.62458733E+03</rscale>
<asrwt>0</asrwt>
<pdfrwt beam="1">  1       21 0.23739624E+00 0.62670133E+03</pdfrwt>
<pdfrwt beam="2">  1       21 0.87439640E-01 0.62670133E+03</pdfrwt>
<totfact> 0.63304255E+01</totfact>
</mgrwt>
</event>
<event>
 6    1  0.8739326E-004  0.4669938E+03  0.7818608E-02  0.1022809E+00
         21   -1    0    0  501  502  0.00000000000E+00  0.00000000000E+00  0.53039321047E+03  0.53039321047E+03  0.00000000000E+00 0.  1.
         21   -1    0    0  502  503 -0.00000000000E+00 -0.00000000000E+00 -0.55827579034E+03  0.55827579034E+03  0.00000000000E+00 0.  1.
    9000007    2    1    2  501    0  0.14936001843E+03 -0.18785467610E+03  0.26590407033E+03  0.53739013284E+03  0.40060627282E+03 0.  0.
    9000005    1    3    3    0    0 -0.78039620991E+02 -0.92876461627E+01  0.23359063270E+03  0.24645897528E+03  0.99999687468E+00 0.  0.
          4    1    3    3  501    0  0.22739963943E+03 -0.17856702994E+03  0.32313437631E+02  0.29093115757E+03  0.00000000000E+00 0.  1.
   -9000007    1    1    2    0  503 -0.14936001843E+03  0.18785467610E+03 -0.29378665020E+03  0.55127886797E+03  0.40000000000E+03 0.  1.
<mgrwt>
<rscale>  2 0.46686372E+03</rscale>
<asrwt>0</asrwt>
<pdfrwt beam="1">  1       21 0.81598955E-01 0.46699377E+03</pdfrwt>
<pdfrwt beam="2">  1       21 0.85888583E-01 0.46699377E+03</pdfrwt>
<totfact> 0.13079219E+03</totfact>
</mgrwt>
</event>
<event>
 6    1  0.8739326E-004  0.4242612E+03  0.7818608E-02  0.1035695E+00
         21   -1    0    0  501  502  0.00000000000E+00  0.00000000000E+00  0.29308006274E+03  0.29308006274E+03  0.00000000000E+00 0. -1.
         21   -1    0    0  502  503 -0.00000000000E+00 -0.00000000000E+00 -0.18199243111E+04  0.18199243111E+04  0.00000000000E+00 0. -1.
    9000007    2    1    2  501    0  0.60211777414E+02 -0.12768520774E+03  0.96549098574E+02  0.43510839098E+03  0.40008575712E+03 0.  0.
    9000005    1    3    3    0    0 -0.73999394656E+02 -0.38801579597E-01  0.20674207679E+03  0.21958870241E+03  0.99999687468E+00 0.  0.
          4    1    3    3  501    0  0.13421117207E+03 -0.12764640616E+03 -0.11019297822E+03  0.21551968857E+03  0.00000000000E+00 0.  1.
   -9000007    1    1    2    0  503 -0.60211777414E+02  0.12768520774E+03 -0.16233933470E+04  0.16778959829E+04  0.40000000000E+03 0. -1.
<mgrwt>
<rscale>  2 0.42424100E+03</rscale>
<asrwt>0</asrwt>
<pdfrwt beam="1">  1       21 0.45089241E-01 0.42426122E+03</pdfrwt>
<pdfrwt beam="2">  1       21 0.27998835E+00 0.42426122E+03</pdfrwt>
<totfact> 0.16767516E+02</totfact>
</mgrwt>
</event>
<event>
 6    1  0.8739326E-004  0.4163111E+03  0.7818608E-02  0.1038302E+00
         21   -1    0    0  501  502  0.00000000000E+00  0.00000000000E+00  0.25417861026E+03  0.25417861026E+03  0.00000000000E+00 0.  1.
         21   -1    0    0  502  503 -0.00000000000E+00 -0.00000000000E+00 -0.69461013950E+03  0.69461013950E+03  0.00000000000E+00 0.  1.
    9000007    2    1    2  501    0  0.69626944296E+02  0.92016349864E+02 -0.15443882123E+03  0.44370781660E+03  0.39963778224E+03 0.  0.
    9000005    1    3    3    0    0  0.11948040102E+03 -0.94424373438E+02  0.52174811644E+02  0.16098055625E+03  0.99999687468E+00 0.  0.
          4    1    3    3  501    0 -0.49853456724E+02  0.18644072330E+03 -0.20661363287E+03  0.28272726034E+03  0.00000000000E+00 0.  1.
   -9000007    1    1    2    0  503 -0.69626944296E+02 -0.92016349864E+02 -0.28599270801E+03  0.50508093317E+03  0.40000000000E+03 0.  1.
<mgrwt>
<rscale>  2 0.41622405E+03</rscale>
<asrwt>0</asrwt>
<pdfrwt beam="1">  1       21 0.39104401E-01 0.41631109E+03</pdfrwt>
<pdfrwt beam="2">  1       21 0.10686310E+00 0.41631109E+03</pdfrwt>
<totfact> 0.39024672E+03</totfact>
</mgrwt>
</event>
<event>
 6    1  0.8739326E-004  0.4738651E+03  0.7818608E-02  0.1020887E+00
         21   -1    0    0  501  502  0.00000000000E+00  0.00000000000E+00  0.13822783663E+04  0.13822783663E+04  0.00000000000E+00 0.  1.
         21   -1    0    0  502  503 -0.00000000000E+00 -0.00000000000E+00 -0.23265025066E+03  0.23265025066E+03  0.00000000000E+00 0.  1.
    9000007    2    1    2  501    0 -0.24038477595E+03  0.77831926523E+02  0.10194900600E+04  0.11242366944E+04  0.40088092174E+03 0.  0.
    9000005    1    3    3    0    0  0.38059018486E+02  0.10661112686E+03  0.67181739986E+02  0.13163892828E+03  0.99999687468E+00 0.  0.
          4    1    3    3  501    0 -0.27844379444E+03 -0.28779200338E+02  0.95230831998E+03  0.99259776613E+03  0.00000000000E+00 0.  1.
   -9000007    1    1    2    0  503  0.24038477595E+03 -0.77831926523E+02  0.13013805567E+03  0.49069192252E+03  0.40000000000E+03 0.  1.
<mgrwt>
<rscale>  2 0.47367877E+03</rscale>
<asrwt>0</asrwt>
<pdfrwt beam="1">  1       21 0.21265820E+00 0.47386513E+03</pdfrwt>
<pdfrwt beam="2">  1       21 0.35792347E-01 0.47386513E+03</pdfrwt>
<totfact> 0.68619789E+02</totfact>
</mgrwt>
</event>
<event>
 6    1  0.8739326E-004  0.4548116E+03  0.7818608E-02  0.1026304E+00
         21   -1    0    0  501  502  0.00000000000E+00  0.00000000000E+00  0.64215842421E+03  0.64215842421E+03  0.00000000000E+00 0. -1.
         21   -1    0    0  502  503 -0.00000000000E+00 -0.00000000000E+00 -0.33039003207E+03  0.33039003207E+03  0.00000000000E+00 0. -1.
    9000007    2    1    2  501    0 -0.16702115824E+03 -0.13768640256E+03  0.78635473694E+02  0.46146669138E+03  0.39989293165E+03 0.  0.
    9000005    1    3    3    0    0 -0.14037604904E+03 -0.27819826963E+03  0.58195657442E+02  0.31699755032E+03  0.99999687468E+00 0.  0.
          4    1    3    3  501    0 -0.26645109197E+02  0.14051186707E+03  0.20439816252E+02  0.14446914107E+03  0.00000000000E+00 0.  1.
   -9000007    1    1    2    0  503  0.16702115824E+03  0.13768640256E+03  0.23313291845E+03  0.51108176490E+03  0.40000000000E+03 0. -1.
<mgrwt>
<rscale>  2 0.45478808E+03</rscale>
<asrwt>0</asrwt>
<pdfrwt beam="1">  1       21 0.98793603E-01 0.45481162E+03</pdfrwt>
<pdfrwt beam="2">  1       21 0.50829236E-01 0.45481162E+03</pdfrwt>
<totfact> 0.26946253E+03</totfact>
</mgrwt>
</event>
<event>
 6    1  0.8739326E-004  0.4502038E+03  0.7818608E-02  0.1027732E+00
         21   -1    0    0  501  502  0.00000000000E+00  0.00000000000E+00  0.13929288262E+04  0.13929288262E+04  0.00000000000E+00 0.  1.
         21   -1    0    0  502  503 -0.00000000000E+00 -0.00000000000E+00 -0.31299888555E+03  0.31299888555E+03  0.00000000000E+00 0.  1.
    9000007    2    1    2  501    0  0.16137363785E+03 -0.12900392894E+03  0.11642249762E+04  0.12479002915E+04  0.39893843848E+03 0.  0.
    9000005    1    3    3    0    0  0.19879998065E+03  0.84891538287E+02  0.41612813668E+03  0.46892604077E+03  0.99999687468E+00 0.  0.
          4    1    3    3  501    0 -0.37426342799E+02 -0.21389546723E+03  0.74809683953E+03  0.77897425077E+03  0.00000000000E+00 0.  1.
   -9000007    1    1    2    0  503 -0.16137363785E+03  0.12900392894E+03 -0.84295035533E+02  0.45802742024E+03  0.40000000000E+03 0.  1.
<mgrwt>
<rscale>  2 0.44996789E+03</rscale>
<asrwt>0</asrwt>
<pdfrwt beam="1">  1       21 0.21429674E+00 0.45020380E+03</pdfrwt>
<pdfrwt beam="2">  1       21 0.48153675E-01 0.45020380E+03</pdfrwt>
<totfact> 0.36630711E+02</totfact>
</mgrwt>
</event>
<event>
 6    1  0.8739326E-004  0.5740768E+03  0.7818608E-02  0.9964356E-01
         21   -1    0    0  501  502  0.00000000000E+00  0.00000000000E+00  0.98499748655E+03  0.98499748655E+03  0.00000000000E+00 0. -1.
         21   -1    0    0  502  503 -0.00000000000E+00 -0.00000000000E+00 -0.35056552612E+03  0.35056552612E+03  0.00000000000E+00 0.  1.
    9000007    2    1    2  501    0  0.36685597087E+03 -0.18703186473E+03  0.47432047313E+03  0.73957651102E+03  0.39042192898E+03 0.  0.
    9000005    1    3    3    0    0  0.17631190818E+03 -0.29553395640E+03  0.33194835490E+03  0.47813901605E+03  0.99999687468E+00 0.  0.
          4    1    3    3  501    0  0.19054406269E+03  0.10850209167E+03  0.14237211823E+03  0.26143749497E+03  0.00000000000E+00 0.  1.
   -9000007    1    1    2    0  503 -0.36685597087E+03  0.18703186473E+03  0.16011148730E+03  0.59598650165E+03  0.40000000000E+03 0.  1.
<mgrwt>
<rscale>  2 0.57241158E+03</rscale>
<asrwt>0</asrwt>
<pdfrwt beam="1">  1       21 0.15153807E+00 0.57407684E+03</pdfrwt>
<pdfrwt beam="2">  1       21 0.53933158E-01 0.57407684E+03</pdfrwt>
<totfact> 0.75784292E+02</totfact>
</mgrwt>
</event>
<event>
 6    1  0.8739326E-004  0.5499842E+03  0.7818608E-02  0.1001510E+00
         21   -1    0    0  501  502  0.00000000000E+00  0.00000000000E+00  0.72996023697E+03  0.72996023697E+03  0.00000000000E+00 0. -1.
         21   -1    0    0  502  503 -0.00000000000E+00 -0.00000000000E+00 -0.10528985005E+04  0.10528985005E+04  0.00000000000E+00 0. -1.
    9000007    2    1    2  501    0  0.11437325422E+03  0.35938919845E+03  0.53279990789E+03  0.76574042810E+03  0.40030091697E+03 0.  0.
    9000005    1    3    3    0    0  0.12993085525E+03  0.43814608790E+03  0.50426131004E+03  0.68053985209E+03  0.99999687468E+00 0.  0.
          4    1    3    3  501    0 -0.15557601028E+02 -0.78756889447E+02  0.28538597857E+02  0.85200576011E+02  0.00000000000E+00 0.  1.
   -9000007    1    1    2    0  503 -0.11437325422E+03 -0.35938919845E+03 -0.85573817146E+03  0.10171183094E+04  0.40000000000E+03 0. -1.
<mgrwt>
<rscale>  2 0.54992948E+03</rscale>
<asrwt>0</asrwt>
<pdfrwt beam="1">  1       21 0.11230158E+00 0.54998424E+03</pdfrwt>
<pdfrwt beam="2">  1       21 0.16198438E+00 0.54998424E+03</pdfrwt>
<totfact> 0.11592724E+02</totfact>
</mgrwt>
</event>
<event>
 6    1  0.8739326E-004  0.4351384E+03  0.7818608E-02  0.1032309E+00
         21   -1    0    0  501  502  0.00000000000E+00  0.00000000000E+00  0.76005053822E+03  0.76005053822E+03  0.00000000000E+00 0. -1.
         21   -1    0    0  502  503 -0.00000000000E+00 -0.00000000000E+00 -0.28185677704E+03  0.28185677704E+03  0.00000000000E+00 0. -1.
    9000007    2    1    2  501    0  0.14050214651E+03 -0.94542420642E+02  0.41800486595E+03  0.60338499475E+03  0.40083196162E+03 0.  0.
    9000005    1    3    3    0    0 -0.18290154907E+02  0.10945670398E+03  0.29873244724E+03  0.31868067848E+03  0.99999687468E+00 0.  0.
          4    1    3    3  501    0  0.15879230142E+03 -0.20399912462E+03  0.11927241871E+03  0.28470431627E+03  0.00000000000E+00 0.  1.
   -9000007    1    1    2    0  503 -0.14050214651E+03  0.94542420642E+02  0.60188895229E+02  0.43852232051E+03  0.40000000000E+03 0. -1.
<mgrwt>
<rscale>  2 0.43494666E+03</rscale>
<asrwt>0</asrwt>
<pdfrwt beam="1">  1       21 0.11693085E+00 0.43513835E+03</pdfrwt>
<pdfrwt beam="2">  1       21 0.43362581E-01 0.43513835E+03</pdfrwt>
<totfact> 0.25022303E+03</totfact>
</mgrwt>
</event>
<event>
 6    1  0.8739326E-004  0.4826044E+03  0.7818608E-02  0.1018492E+00
         21   -1    0    0  501  502  0.00000000000E+00  0.00000000000E+00  0.69868336549E+03  0.69868336549E+03  0.00000000000E+00 0. -1.
         21   -1    0    0  502  503 -0.00000000000E+00 -0.00000000000E+00 -0.34166420686E+03  0.34166420686E+03  0.00000000000E+00 0. -1.
    9000007    2    1    2  501    0  0.22835805868E+03  0.14408190751E+03  0.26284547347E+03  0.54864066574E+03  0.39876288461E+03 0.  0.
    9000005    1    3    3    0    0 -0.72081770472E+01 -0.11700792767E+02 -0.93185315731E+02  0.94198563840E+02  0.99999687468E+00 0.  0.
          4    1    3    3  501    0  0.23556623572E+03  0.15578270028E+03  0.35603078920E+03  0.45444210190E+03  0.00000000000E+00 0.  1.
   -9000007    1    1    2    0  503 -0.22835805868E+03 -0.14408190751E+03  0.94173685166E+02  0.49170690661E+03  0.40000000000E+03 0. -1.
<mgrwt>
<rscale>  2 0.48234797E+03</rscale>
<asrwt>0</asrwt>
<pdfrwt beam="1">  1       21 0.10748975E+00 0.48260439E+03</pdfrwt>
<pdfrwt beam="2">  1       21 0.52563724E-01 0.48260439E+03</pdfrwt>
<totfact> 0.20190076E+03</totfact>
</mgrwt>
</event>
<event>
 6    1  0.8739326E-004  0.8523100E+03  0.7818608E-02  0.9488791E-01
         21   -1    0    0  501  502  0.00000000000E+00  0.00000000000E+00  0.18740665116E+04  0.18740665116E+04  0.00000000000E+00 0. -1.
         21   -1    0    0  502  503 -0.00000000000E+00 -0.00000000000E+00 -0.40462158284E+03  0.40462158284E+03  0.00000000000E+00 0.  1.
    9000007    2    1    2  501    0  0.74229871930E+03  0.12419688498E+03  0.48530928473E+03  0.97678363528E+03  0.39006270445E+03 0.  0.
    9000005    1    3    3    0    0 -0.29641648617E+02  0.62013435242E+02  0.69594872975E+02  0.97819935705E+02  0.99999687468E+00 0.  0.
          4    1    3    3  501    0  0.77194036791E+03  0.62183449736E+02  0.41571441176E+03  0.87896369958E+03  0.00000000000E+00 0.  1.
   -9000007    1    1    2    0  503 -0.74229871930E+03 -0.12419688498E+03  0.98413564399E+03  0.13019044591E+04  0.40000000000E+03 0. -1.
<mgrwt>
<rscale>  2 0.85115303E+03</rscale>
<asrwt>0</asrwt>
<pdfrwt beam="1">  1       21 0.28831792E+00 0.85230995E+03</pdfrwt>
<pdfrwt beam="2">  1       21 0.62249476E-01 0.85230995E+03</pdfrwt>
<totfact> 0.61319409E+01</totfact>
</mgrwt>
</event>
<event>
 6    1  0.8739326E-004  0.4731214E+03  0.7818608E-02  0.1021062E+00
         21   -1    0    0  501  502  0.00000000000E+00  0.00000000000E+00  0.49837803778E+03  0.49837803778E+03  0.00000000000E+00 0. -1.
         21   -1    0    0  502  503 -0.00000000000E+00 -0.00000000000E+00 -0.47266000279E+03  0.47266000279E+03  0.00000000000E+00 0. -1.
    9000007    2    1    2  501    0  0.14110489011E+03  0.20900159997E+03 -0.96012030038E+02  0.48276509688E+03  0.40031433906E+03 0.  0.
    9000005    1    3    3    0    0  0.26954330015E+03  0.19083429786E+03 -0.16615564603E+02  0.33067869130E+03  0.99999687468E+00 0.  0.
          4    1    3    3  501    0 -0.12843841005E+03  0.18167302113E+02 -0.79396465435E+02  0.15208640559E+03  0.00000000000E+00 0.  1.
   -9000007    1    1    2    0  503 -0.14110489011E+03 -0.20900159997E+03  0.12173006503E+03  0.48827294369E+03  0.40000000000E+03 0. -1.
<mgrwt>
<rscale>  2 0.47305487E+03</rscale>
<asrwt>0</asrwt>
<pdfrwt beam="1">  1       21 0.76673544E-01 0.47312137E+03</pdfrwt>
<pdfrwt beam="2">  1       21 0.72716924E-01 0.47312137E+03</pdfrwt>
<totfact> 0.22122583E+03</totfact>
</mgrwt>
</event>
<event>
 6    1  0.8739326E-004  0.5608245E+03  0.7818608E-02  0.9990295E-01
         21   -1    0    0  501  502  0.00000000000E+00  0.00000000000E+00  0.76771180359E+03  0.76771180359E+03  0.00000000000E+00 0.  1.
         21   -1    0    0  502  503 -0.00000000000E+00 -0.00000000000E+00 -0.43798657150E+03  0.43798657150E+03  0.00000000000E+00 0.  1.
    9000007    2    1    2  501    0  0.29667580922E+03 -0.25749009940E+03  0.31848105820E+03  0.64494520433E+03  0.40025797318E+03 0.  0.
    9000005    1    3    3    0    0  0.19293918086E+03 -0.24421716964E+03  0.15884703463E+01  0.31124118733E+03  0.99999687468E+00 0.  0.
          4    1    3    3  501    0  0.10373662836E+03 -0.13272929756E+02  0.31689258785E+03  0.33370401700E+03  0.00000000000E+00 0.  1.
   -9000007    1    1    2    0  503 -0.29667580922E+03  0.25749009940E+03  0.11244173889E+02  0.56075317076E+03  0.40000000000E+03 0.  1.
<mgrwt>
<rscale>  2 0.56077848E+03</rscale>
<asrwt>0</asrwt>
<pdfrwt beam="1">  1       21 0.11810951E+00 0.56082451E+03</pdfrwt>
<pdfrwt beam="2">  1       21 0.67382549E-01 0.56082451E+03</pdfrwt>
<totfact> 0.90014969E+02</totfact>
</mgrwt>
</event>
<event>
 6    1  0.8739326E-004  0.4312374E+03  0.7818608E-02  0.1033615E+00
         21   -1    0    0  501  502  0.00000000000E+00  0.00000000000E+00  0.26833242254E+03  0.26833242254E+03  0.00000000000E+00 0. -1.
         21   -1    0    0  502  503 -0.00000000000E+00 -0.00000000000E+00 -0.71031686011E+03  0.71031686011E+03  0.00000000000E+00 0. -1.
    9000007    2    1    2  501    0  0.14163143970E+03  0.65758582350E+02 -0.13888075220E+03  0.45304914952E+03  0.40197265166E+03 0.  0.
    9000005    1    3    3    0    0 -0.43183242935E+02 -0.10958450936E+03  0.57795699693E+02  0.13120556413E+03  0.99999687468E+00 0.  0.
          4    1    3    3  501    0  0.18481468263E+03  0.17534309171E+03 -0.19667645189E+03  0.32184358539E+03  0.00000000000E+00 0.  1.
   -9000007    1    1    2    0  503 -0.14163143970E+03 -0.65758582350E+02 -0.30310368537E+03  0.52560013313E+03  0.40000000000E+03 0.  1.
<mgrwt>
<rscale>  2 0.43077709E+03</rscale>
<asrwt>0</asrwt>
<pdfrwt beam="1">  1       21 0.41281911E-01 0.43123737E+03</pdfrwt>
<pdfrwt beam="2">  1       21 0.10927952E+00 0.43123737E+03</pdfrwt>
<totfact> 0.32846013E+03</totfact>
</mgrwt>
</event>
<event>
 6    1  0.8739326E-004  0.5279091E+03  0.7818608E-02  0.1006742E+00
         21   -1    0    0  501  502  0.00000000000E+00  0.00000000000E+00  0.39917401338E+03  0.39917401338E+03  0.00000000000E+00 0. -1.
         21   -1    0    0  502  503 -0.00000000000E+00 -0.00000000000E+00 -0.77222272067E+03  0.77222272067E+03  0.00000000000E+00 0.  1.
    9000007    2    1    2  501    0 -0.31749055408E+03  0.13374498117E+03 -0.36793770606E+03  0.64346293682E+03  0.39997302860E+03 0.  0.
    9000005    1    3    3    0    0 -0.12629792435E+03  0.26647547443E+03 -0.21540245147E+03  0.36518428260E+03  0.99999687468E+00 0.  0.
          4    1    3    3  501    0 -0.19119262973E+03 -0.13273049326E+03 -0.15253525458E+03  0.27827865422E+03  0.00000000000E+00 0.  1.
   -9000007    1    1    2    0  503  0.31749055408E+03 -0.13374498117E+03 -0.51110012262E+01  0.52793379723E+03  0.40000000000E+03 0. -1.
<mgrwt>
<rscale>  2 0.52790395E+03</rscale>
<asrwt>0</asrwt>
<pdfrwt beam="1">  1       21 0.61411387E-01 0.52790906E+03</pdfrwt>
<pdfrwt beam="2">  1       21 0.11880349E+00 0.52790906E+03</pdfrwt>
<totfact> 0.11027261E+03</totfact>
</mgrwt>
</event>
<event>
 6    1  0.8739326E-004  0.4708510E+03  0.7818608E-02  0.1021791E+00
         21   -1    0    0  501  502  0.00000000000E+00  0.00000000000E+00  0.70016628257E+03  0.70016628257E+03  0.00000000000E+00 0.  1.
         21   -1    0    0  502  503 -0.00000000000E+00 -0.00000000000E+00 -0.12635240857E+04  0.12635240857E+04  0.00000000000E+00 0.  1.
    9000007    2    1    2  501    0 -0.24445443805E+03 -0.44076070416E+02  0.56887414347E+03  0.73745635587E+03  0.39814998862E+03 0.  0.
    9000005    1    3    3    0    0  0.35084693123E+02 -0.13222684647E+03  0.33703551018E+03  0.36374277963E+03  0.99999687468E+00 0.  0.
          4    1    3    3  501    0 -0.27953913117E+03  0.88150776058E+02  0.23183863329E+03  0.37371357624E+03  0.00000000000E+00 0.  1.
   -9000007    1    1    2    0  503  0.24445443805E+03  0.44076070416E+02 -0.11322319466E+04  0.12262340124E+04  0.40000000000E+03 0.  1.
<mgrwt>
<rscale>  2 0.47045786E+03</rscale>
<asrwt>0</asrwt>
<pdfrwt beam="1">  1       21 0.10771789E+00 0.47085101E+03</pdfrwt>
<pdfrwt beam="2">  1       21 0.19438832E+00 0.47085101E+03</pdfrwt>
<totfact> 0.78543073E+01</totfact>
</mgrwt>
</event>
<event>
 6    1  0.8739326E-004  0.4158863E+03  0.7818608E-02  0.1038467E+00
         21   -1    0    0  501  502  0.00000000000E+00  0.00000000000E+00  0.82854909058E+03  0.82854909058E+03  0.00000000000E+00 0. -1.
         21   -1    0    0  502  503 -0.00000000000E+00 -0.00000000000E+00 -0.22411264780E+03  0.22411264780E+03  0.00000000000E+00 0. -1.
    9000007    2    1    2  501    0  0.49922694309E+02 -0.10231901249E+03  0.44124838622E+03  0.60590476023E+03  0.39932315786E+03 0.  0.
    9000005    1    3    3    0    0  0.18562356835E+03 -0.69066612822E+02  0.42029893583E+03  0.46462727168E+03  0.99999687468E+00 0.  0.
          4    1    3    3  501    0 -0.13570087404E+03 -0.33252399669E+02  0.20949450389E+02  0.14127748855E+03  0.00000000000E+00 0.  1.
   -9000007    1    1    2    0  503 -0.49922694309E+02  0.10231901249E+03  0.16318805655E+03  0.44675697815E+03  0.40000000000E+03 0. -1.
<mgrwt>
<rscale>  2 0.41572352E+03</rscale>
<asrwt>0</asrwt>
<pdfrwt beam="1">  1       21 0.12746909E+00 0.41588635E+03</pdfrwt>
<pdfrwt beam="2">  1       21 0.34478869E-01 0.41588635E+03</pdfrwt>
<totfact> 0.32354797E+03</totfact>
</mgrwt>
</event>
<event>
 6    1  0.8739326E-004  0.5260378E+03  0.7818608E-02  0.1007322E+00
         21   -1    0    0  501  502  0.00000000000E+00  0.00000000000E+00  0.73744835406E+03  0.73744835406E+03  0.00000000000E+00 0. -1.
         21   -1    0    0  502  503 -0.00000000000E+00 -0.00000000000E+00 -0.37477616685E+03  0.37477616685E+03  0.00000000000E+00 0.  1.
    9000007    2    1    2  501    0 -0.33149021175E+03 -0.82644064109E+02  0.15249098561E+03  0.54575127412E+03  0.39733506099E+03 0.  0.
    9000005    1    3    3    0    0  0.21691584137E+02 -0.15568746148E+03  0.85445865658E+02  0.17891647894E+03  0.99999687468E+00 0.  0.
          4    1    3    3  501    0 -0.35318179589E+03  0.73043397366E+02  0.67045119948E+02  0.36683479518E+03  0.00000000000E+00 0.  1.
   -9000007    1    1    2    0  503  0.33149021175E+03  0.82644064109E+02  0.21018120161E+03  0.56647324679E+03  0.40000000000E+03 0. -1.
<mgrwt>
<rscale>  2 0.52553121E+03</rscale>
<asrwt>0</asrwt>
<pdfrwt beam="1">  1       21 0.11345359E+00 0.52603783E+03</pdfrwt>
<pdfrwt beam="2">  1       21 0.57657872E-01 0.52603783E+03</pdfrwt>
<totfact> 0.14233285E+03</totfact>
</mgrwt>
</event>
<event>
 6    1  0.8739326E-004  0.4623527E+03  0.7818608E-02  0.1024115E+00
         21   -1    0    0  501  502  0.00000000000E+00  0.00000000000E+00  0.11847858194E+04  0.11847858194E+04  0.00000000000E+00 0. -1.
         21   -1    0    0  502  503 -0.00000000000E+00 -0.00000000000E+00 -0.18402923169E+03  0.18402923169E+03  0.00000000000E+00 0. -1.
    9000007    2    1    2  501    0 -0.60128597454E+02 -0.22395206145E+03  0.59696627568E+03  0.75496116772E+03  0.39978451248E+03 0.  0.
    9000005    1    3    3    0    0 -0.66453386190E+02 -0.31335853761E+03  0.27963007197E+03  0.42521006899E+03  0.99999687468E+00 0.  0.
          4    1    3    3  501    0  0.63247887356E+01  0.89406476161E+02  0.31733620371E+03  0.32975109873E+03  0.00000000000E+00 0.  1.
   -9000007    1    1    2    0  503  0.60128597454E+02  0.22395206145E+03  0.40379031207E+03  0.61385388341E+03  0.40000000000E+03 0. -1.
<mgrwt>
<rscale>  2 0.46230604E+03</rscale>
<asrwt>0</asrwt>
<pdfrwt beam="1">  1       21 0.18227474E+00 0.46235265E+03</pdfrwt>
<pdfrwt beam="2">  1       21 0.28312190E-01 0.46235265E+03</pdfrwt>
<totfact> 0.17662912E+03</totfact>
</mgrwt>
</event>
<event>
 6    1  0.8739326E-004  0.4687313E+03  0.7818608E-02  0.1022314E+00
         21   -1    0    0  501  502  0.00000000000E+00  0.00000000000E+00  0.47625375755E+03  0.47625375755E+03  0.00000000000E+00 0. -1.
         21   -1    0    0  502  503 -0.00000000000E+00 -0.00000000000E+00 -0.49837425924E+03  0.49837425924E+03  0.00000000000E+00 0.  1.
    9000007    2    1    2  501    0 -0.11586619023E+03  0.21406679435E+03  0.12266018923E+03  0.48451474932E+03  0.40057390555E+03 0.  0.
    9000005    1    3    3    0    0 -0.79504040117E+01 -0.40776370185E+02  0.19425761035E+03  0.19865281388E+03  0.99999687468E+00 0.  0.
          4    1    3    3  501    0 -0.10791578622E+03  0.25484316453E+03 -0.71597421125E+02  0.28586193545E+03  0.00000000000E+00 0.  1.
   -9000007    1    1    2    0  503  0.11586619023E+03 -0.21406679435E+03 -0.14478069092E+03  0.49011326746E+03  0.40000000000E+03 0. -1.
<mgrwt>
<rscale>  2 0.46860865E+03</rscale>
<asrwt>0</asrwt>
<pdfrwt beam="1">  1       21 0.73269809E-01 0.46873129E+03</pdfrwt>
<pdfrwt beam="2">  1       21 0.76672963E-01 0.46873129E+03</pdfrwt>
<totfact> 0.21779389E+03</totfact>
</mgrwt>
</event>
<event>
 6    1  0.8739326E-004  0.6209170E+03  0.7818608E-02  0.9862955E-01
         21   -1    0    0  501  502  0.00000000000E+00  0.00000000000E+00  0.84822611076E+03  0.84822611076E+03  0.00000000000E+00 0. -1.
         21   -1    0    0  502  503 -0.00000000000E+00 -0.00000000000E+00 -0.60505427810E+03  0.60505427810E+03  0.00000000000E+00 0.  1.
    9000007    2    1    2  501    0 -0.46206302988E+03  0.10948928052E+03  0.48406273634E+03  0.78730848735E+03  0.40005971480E+03 0.  0.
    9000005    1    3    3    0    0 -0.18729253712E+03  0.24971408834E+03  0.23152322821E+03  0.38863816793E+03  0.99999687468E+00 0.  0.
          4    1    3    3  501    0 -0.27477049276E+03 -0.14022480782E+03  0.25253950813E+03  0.39867031942E+03  0.00000000000E+00 0.  1.
   -9000007    1    1    2    0  503  0.46206302988E+03 -0.10948928052E+03 -0.24089090369E+03  0.66597190152E+03  0.40000000000E+03 0.  1.
<mgrwt>
<rscale>  2 0.62090738E+03</rscale>
<asrwt>0</asrwt>
<pdfrwt beam="1">  1       21 0.13049632E+00 0.62091700E+03</pdfrwt>
<pdfrwt beam="2">  1       21 0.93085274E-01 0.62091700E+03</pdfrwt>
<totfact> 0.32177129E+02</totfact>
</mgrwt>
</event>
<event>
 6    1  0.8739326E-004  0.4560382E+03  0.7818608E-02  0.1025957E+00
         21   -1    0    0  501  502  0.00000000000E+00  0.00000000000E+00  0.22377623515E+03  0.22377623515E+03  0.00000000000E+00 0. -1.
         21   -1    0    0  502  503 -0.00000000000E+00 -0.00000000000E+00 -0.11349178986E+04  0.11349178986E+04  0.00000000000E+00 0.  1.
    9000007    2    1    2  501    0  0.17092464036E+03  0.13695112523E+03 -0.16595281149E+03  0.48503672466E+03  0.39968668385E+03 0.  0.
    9000005    1    3    3    0    0  0.29607319432E+03  0.46759048452E+02 -0.89199888461E+02  0.31273529558E+03  0.99999687468E+00 0.  0.
          4    1    3    3  501    0 -0.12514855396E+03  0.90192076774E+02 -0.76752923029E+02  0.17230142908E+03  0.00000000000E+00 0.  1.
   -9000007    1    1    2    0  503 -0.17092464036E+03 -0.13695112523E+03 -0.74518885199E+03  0.87365740912E+03  0.40000000000E+03 0.  1.
<mgrwt>
<rscale>  2 0.45596949E+03</rscale>
<asrwt>0</asrwt>
<pdfrwt beam="1">  1       21 0.34427113E-01 0.45603820E+03</pdfrwt>
<pdfrwt beam="2">  1       21 0.17460275E+00 0.45603820E+03</pdfrwt>
<totfact> 0.13583580E+03</totfact>
</mgrwt>
</event>
<event>
 6    1  0.8739326E-004  0.4088917E+03  0.7818608E-02  0.1040750E+00
         21   -1    0    0  501  502  0.00000000000E+00  0.00000000000E+00  0.43794873028E+03  0.43794873028E+03  0.00000000000E+00 0. -1.
         21   -1    0    0  502  503 -0.00000000000E+00 -0.00000000000E+00 -0.13055568210E+04  0.13055568210E+04  0.00000000000E+00 0. -1.
    9000007    2    1    2  501    0  0.26150976843E+02  0.80675708947E+02  0.29953772335E+03  0.50680761124E+03  0.39992332202E+03 0.  0.
    9000005    1    3    3    0    0  0.96842149769E+02 -0.13606096099E+03  0.19282259889E+03  0.25509320202E+03  0.99999687468E+00 0.  0.
          4    1    3    3  501    0 -0.70691172926E+02  0.21673666993E+03  0.10671512446E+03  0.25171440923E+03  0.00000000000E+00 0.  1.
   -9000007    1    1    2    0  503 -0.26150976843E+02 -0.80675708947E+02 -0.11671458141E+04  0.12366979401E+04  0.40000000000E+03 0. -1.
<mgrwt>
<rscale>  2 0.40887297E+03</rscale>
<asrwt>0</asrwt>
<pdfrwt beam="1">  1       21 0.67376729E-01 0.40889173E+03</pdfrwt>
<pdfrwt beam="2">  1       21 0.20085489E+00 0.40889173E+03</pdfrwt>
<totfact> 0.22126573E+02</totfact>
</mgrwt>
</event>
<event>
 6    1  0.8739326E-004  0.4211045E+03  0.7818608E-02  0.1036939E+00
         21   -1    0    0  501  502  0.00000000000E+00  0.00000000000E+00  0.49566600706E+03  0.49566600706E+03  0.00000000000E+00 0. -1.
         21   -1    0    0  502  503 -0.00000000000E+00 -0.00000000000E+00 -0.39224590387E+03  0.39224590387E+03  0.00000000000E+00 0.  1.
    9000007    2    1    2  501    0 -0.77889602071E+02 -0.94223521803E+02 -0.84290867392E+02  0.42945769223E+03  0.40296910169E+03 0.  0.
    9000005    1    3    3    0    0 -0.19037119334E+03 -0.74974361989E+02  0.88060566218E+02  0.22275100343E+03  0.99999687468E+00 0.  0.
          4    1    3    3  501    0  0.11248159127E+03 -0.19249159814E+02 -0.17235143361E+03  0.20670668880E+03  0.00000000000E+00 0.  1.
   -9000007    1    1    2    0  503  0.77889602071E+02  0.94223521803E+02  0.18771097059E+03  0.45845421871E+03  0.40000000000E+03 0. -1.
<mgrwt>
<rscale>  2 0.42039256E+03</rscale>
<asrwt>0</asrwt>
<pdfrwt beam="1">  1       21 0.76256309E-01 0.42110445E+03</pdfrwt>
<pdfrwt beam="2">  1       21 0.60345524E-01 0.42110445E+03</pdfrwt>
<totfact> 0.34593269E+03</totfact>
</mgrwt>
</event>
<event>
 6    1  0.8739326E-004  0.4738323E+03  0.7818608E-02  0.1020915E+00
         21   -1    0    0  501  502  0.00000000000E+00  0.00000000000E+00  0.11527791905E+04  0.11527791905E+04  0.00000000000E+00 0.  1.
         21   -1    0    0  502  503 -0.00000000000E+00 -0.00000000000E+00 -0.39807597112E+03  0.39807597112E+03  0.00000000000E+00 0.  1.
    9000007    2    1    2  501    0  0.71634308816E+02  0.24170798226E+03  0.93228769871E+03  0.10457903437E+04  0.40120177845E+03 0.  0.
    9000005    1    3    3    0    0  0.72859570993E+02  0.14556247715E+03  0.68401118285E+02  0.17656915023E+03  0.99999687468E+00 0.  0.
          4    1    3    3  501    0 -0.12252621776E+01  0.96145505112E+02  0.86388658042E+03  0.86922119351E+03  0.00000000000E+00 0.  1.
   -9000007    1    1    2    0  503 -0.71634308816E+02 -0.24170798226E+03 -0.17758447937E+03  0.50506481782E+03  0.40000000000E+03 0.  1.
<mgrwt>
<rscale>  2 0.47357786E+03</rscale>
<asrwt>0</asrwt>
<pdfrwt beam="1">  1       21 0.17735064E+00 0.47383234E+03</pdfrwt>
<pdfrwt beam="2">  1       21 0.61242457E-01 0.47383234E+03</pdfrwt>
<totfact> 0.38314821E+02</totfact>
</mgrwt>
</event>
<event>
 6    1  0.8739326E-004  0.4749458E+03  0.7818608E-02  0.1020536E+00
         21   -1    0    0  501  502  0.00000000000E+00  0.00000000000E+00  0.18899588435E+04  0.18899588435E+04  0.00000000000E+00 0.  1.
         21   -1    0    0  502  503 -0.00000000000E+00 -0.00000000000E+00 -0.14699683153E+03  0.14699683153E+03  0.00000000000E+00 0.  1.
    9000007    2    1    2  501    0 -0.75307685447E+02  0.24474940394E+03  0.13131945988E+04  0.13964296821E+04  0.39995285284E+03 0.  0.
    9000005    1    3    3    0    0 -0.11079243782E+03  0.27479416521E+03  0.49488788147E+03  0.57680309702E+03  0.99999687468E+00 0.  0.
          4    1    3    3  501    0  0.35484752375E+02 -0.30044761269E+02  0.81830671733E+03  0.81962658507E+03  0.00000000000E+00 0.  1.
   -9000007    1    1    2    0  503  0.75307685447E+02 -0.24474940394E+03  0.42976741322E+03  0.64052599298E+03  0.40000000000E+03 0.  1.
<mgrwt>
<rscale>  2 0.47493588E+03</rscale>
<asrwt>0</asrwt>
<pdfrwt beam="1">  1       21 0.29076288E+00 0.47494581E+03</pdfrwt>
<pdfrwt beam="2">  1       21 0.22614899E-01 0.47494581E+03</pdfrwt>
<totfact> 0.55898947E+02</totfact>
</mgrwt>
</event>
<event>
 6    1  0.8739326E-004  0.4554009E+03  0.7818608E-02  0.1026144E+00
         21   -1    0    0  501  502  0.00000000000E+00  0.00000000000E+00  0.16987137826E+03  0.16987137826E+03  0.00000000000E+00 0.  1.
         21   -1    0    0  502  503 -0.00000000000E+00 -0.00000000000E+00 -0.14477580571E+04  0.14477580571E+04  0.00000000000E+00 0.  1.
    9000007    2    1    2  501    0 -0.47965452675E+01 -0.21706686868E+03 -0.95981473486E+03  0.10623720231E+04  0.40031107641E+03 0.  0.
    9000005    1    3    3    0    0 -0.29240135870E+02  0.27727980812E+02  0.24907999279E+02  0.47383909584E+02  0.99999687468E+00 0.  0.
          4    1    3    3  501    0  0.24443590603E+02 -0.24479484949E+03 -0.98472273413E+03  0.10149881135E+04  0.00000000000E+00 0.  1.
   -9000007    1    1    2    0  503  0.47965452675E+01  0.21706686868E+03 -0.31807194398E+03  0.55525741226E+03  0.40000000000E+03 0.  1.
<mgrwt>
<rscale>  2 0.45533254E+03</rscale>
<asrwt>0</asrwt>
<pdfrwt beam="1">  1       21 0.26134058E-01 0.45540091E+03</pdfrwt>
<pdfrwt beam="2">  1       21 0.22273201E+00 0.45540091E+03</pdfrwt>
<totfact> 0.11157975E+03</totfact>
</mgrwt>
</event>
<event>
 6    1  0.8739326E-004  0.7250487E+03  0.7818608E-02  0.9675353E-01
         21   -1    0    0  501  502  0.00000000000E+00  0.00000000000E+00  0.42153177479E+03  0.42153177479E+03  0.00000000000E+00 0.  1.
         21   -1    0    0  502  503 -0.00000000000E+00 -0.00000000000E+00 -0.12470225244E+04  0.12470225244E+04  0.00000000000E+00 0. -1.
    9000007    2    1    2  501    0 -0.59891367706E+03 -0.83654132798E+02 -0.41004136031E+03  0.83291454333E+03  0.39989637761E+03 0.  0.
    9000005    1    3    3    0    0 -0.62981125881E+03 -0.67690764823E+02 -0.45218218169E+03  0.77827629207E+03  0.99999687468E+00 0.  0.
          4    1    3    3  501    0  0.30897581754E+02 -0.15963367975E+02  0.42140821371E+02  0.54638251264E+02  0.00000000000E+00 0.  1.
   -9000007    1    1    2    0  503  0.59891367706E+03  0.83654132798E+02 -0.41544938929E+03  0.83563975585E+03  0.40000000000E+03 0. -1.
<mgrwt>
<rscale>  2 0.72503440E+03</rscale>
<asrwt>0</asrwt>
<pdfrwt beam="1">  1       21 0.64851042E-01 0.72504869E+03</pdfrwt>
<pdfrwt beam="2">  1       21 0.19184962E+00 0.72504869E+03</pdfrwt>
<totfact> 0.24277930E+02</totfact>
</mgrwt>
</event>
<event>
 6    1  0.8739326E-004  0.4869993E+03  0.7818608E-02  0.1017241E+00
         21   -1    0    0  501  502  0.00000000000E+00  0.00000000000E+00  0.43245683247E+03  0.43245683247E+03  0.00000000000E+00 0. -1.
         21   -1    0    0  502  503 -0.00000000000E+00 -0.00000000000E+00 -0.64574236998E+03  0.64574236998E+03  0.00000000000E+00 0.  1.
    9000007    2    1    2  501    0  0.20820537815E+03  0.18389888415E+03 -0.31612144489E+03  0.58046081442E+03  0.39979208355E+03 0.  0.
    9000005    1    3    3    0    0  0.28945540394E+03  0.78664706780E+02 -0.81569274343E+02  0.31084902038E+03  0.99999687468E+00 0.  0.
          4    1    3    3  501    0 -0.81250025785E+02  0.10523417737E+03 -0.23455217054E+03  0.26961179403E+03  0.00000000000E+00 0.  1.
   -9000007    1    1    2    0  503 -0.20820537815E+03 -0.18389888415E+03  0.10283590737E+03  0.49773838804E+03  0.40000000000E+03 0. -1.
<mgrwt>
<rscale>  2 0.48695656E+03</rscale>
<asrwt>0</asrwt>
<pdfrwt beam="1">  1       21 0.66531821E-01 0.48699926E+03</pdfrwt>
<pdfrwt beam="2">  1       21 0.99344979E-01 0.48699926E+03</pdfrwt>
<totfact> 0.14601482E+03</totfact>
</mgrwt>
</event>
<event>
 6    1  0.8739326E-004  0.4410627E+03  0.7818608E-02  0.1030493E+00
         21   -1    0    0  501  502  0.00000000000E+00  0.00000000000E+00  0.13730051386E+03  0.13730051386E+03  0.00000000000E+00 0.  1.
         21   -1    0    0  502  503 -0.00000000000E+00 -0.00000000000E+00 -0.16590160851E+04  0.16590160851E+04  0.00000000000E+00 0.  1.
    9000007    2    1    2  501    0 -0.63715857293E+02 -0.17219950766E+03 -0.41628601363E+03  0.60649018821E+03  0.40102858045E+03 0.  0.
    9000005    1    3    3    0    0 -0.15892582380E+03  0.42846730664E+02 -0.30439367937E+03  0.34604879978E+03  0.99999687468E+00 0.  0.
          4    1    3    3  501    0  0.95209966503E+02 -0.21504623832E+03 -0.11189233426E+03  0.26044138842E+03  0.00000000000E+00 0.  1.
   -9000007    1    1    2    0  503  0.63715857293E+02  0.17219950766E+03 -0.11054295577E+04  0.11898264108E+04  0.40000000000E+03 0.  1.
<mgrwt>
<rscale>  2 0.44082876E+03</rscale>
<asrwt>0</asrwt>
<pdfrwt beam="1">  1       21 0.21123157E-01 0.44106270E+03</pdfrwt>
<pdfrwt beam="2">  1       21 0.25523323E+00 0.44106270E+03</pdfrwt>
<totfact> 0.10644754E+03</totfact>
</mgrwt>
</event>
<event>
 6    1  0.8739326E-004  0.4530555E+03  0.7818608E-02  0.1026820E+00
         21   -1    0    0  501  502  0.00000000000E+00  0.00000000000E+00  0.15919903827E+03  0.15919903827E+03  0.00000000000E+00 0. -1.
         21   -1    0    0  502  503 -0.00000000000E+00 -0.00000000000E+00 -0.13061193215E+04  0.13061193215E+04  0.00000000000E+00 0. -1.
    9000007    2    1    2  501    0 -0.16487383788E+03 -0.13444651845E+03 -0.48986127524E+03  0.66720446519E+03  0.39992309342E+03 0.  0.
    9000005    1    3    3    0    0 -0.42282419415E+02 -0.95507625624E+02  0.47439789614E+02  0.11472158984E+03  0.99999687468E+00 0.  0.
          4    1    3    3  501    0 -0.12259141847E+03 -0.38938892827E+02 -0.53730106486E+03  0.55248287535E+03  0.00000000000E+00 0.  1.
   -9000007    1    1    2    0  503  0.16487383788E+03  0.13444651845E+03 -0.65705900797E+03  0.79811389456E+03  0.40000000000E+03 0. -1.
<mgrwt>
<rscale>  2 0.45303848E+03</rscale>
<asrwt>0</asrwt>
<pdfrwt beam="1">  1       21 0.24492159E-01 0.45305546E+03</pdfrwt>
<pdfrwt beam="2">  1       21 0.20094144E+00 0.45305546E+03</pdfrwt>
<totfact> 0.17565086E+03</totfact>
</mgrwt>
</event>
<event>
 6    1  0.8739326E-004  0.4521316E+03  0.7818608E-02  0.1027159E+00
         21   -1    0    0  501  502  0.00000000000E+00  0.00000000000E+00  0.18459462338E+03  0.18459462338E+03  0.00000000000E+00 0. -1.
         21   -1    0    0  502  503 -0.00000000000E+00 -0.00000000000E+00 -0.12768331005E+04  0.12768331005E+04  0.00000000000E+00 0.  1.
    9000007    2    1    2  501    0 -0.12677137105E+02  0.21038591245E+03 -0.27761332256E+03  0.52974264597E+03  0.39891750041E+03 0.  0.
    9000005    1    3    3    0    0  0.97262438966E+02  0.69608041099E+01  0.64425097779E+02  0.11687612265E+03  0.99999687468E+00 0.  0.
          4    1    3    3  501    0 -0.10993957607E+03  0.20342510834E+03 -0.34203842034E+03  0.41286652332E+03  0.00000000000E+00 0.  1.
   -9000007    1    1    2    0  503  0.12677137105E+02 -0.21038591245E+03 -0.81462515457E+03  0.93168507793E+03  0.40000000000E+03 0.  1.
<mgrwt>
<rscale>  2 0.45189201E+03</rscale>
<asrwt>0</asrwt>
<pdfrwt beam="1">  1       21 0.28399174E-01 0.45213155E+03</pdfrwt>
<pdfrwt beam="2">  1       21 0.19643585E+00 0.45213155E+03</pdfrwt>
<totfact> 0.14097845E+03</totfact>
</mgrwt>
</event>
<event>
 6    1  0.8739326E-004  0.5115656E+03  0.7818608E-02  0.1010805E+00
         21   -1    0    0  501  502  0.00000000000E+00  0.00000000000E+00  0.76663420192E+03  0.76663420192E+03  0.00000000000E+00 0.  1.
         21   -1    0    0  502  503 -0.00000000000E+00 -0.00000000000E+00 -0.40380151161E+03  0.40380151161E+03  0.00000000000E+00 0. -1.
    9000007    2    1    2  501    0  0.15062311027E+02 -0.31854751653E+03  0.41157138793E+03  0.65655357321E+03  0.39996524052E+03 0.  0.
    9000005    1    3    3    0    0  0.59730927669E+02 -0.27843850331E+03  0.48894907319E+02  0.28894202844E+03  0.99999687468E+00 0.  0.
          4    1    3    3  501    0 -0.44668616641E+02 -0.40109013223E+02  0.36267648061E+03  0.36761154477E+03  0.00000000000E+00 0.  1.
   -9000007    1    1    2    0  503 -0.15062311027E+02  0.31854751653E+03 -0.48738697618E+02  0.51388214033E+03  0.40000000000E+03 0. -1.
<mgrwt>
<rscale>  2 0.51155883E+03</rscale>
<asrwt>0</asrwt>
<pdfrwt beam="1">  1       21 0.11794372E+00 0.51156563E+03</pdfrwt>
<pdfrwt beam="2">  1       21 0.62123309E-01 0.51156563E+03</pdfrwt>
<totfact> 0.11012697E+03</totfact>
</mgrwt>
</event>
<event>
 6    1  0.8739326E-004  0.4916439E+03  0.7818608E-02  0.1016000E+00
         21   -1    0    0  501  502  0.00000000000E+00  0.00000000000E+00  0.50182339928E+03  0.50182339928E+03  0.00000000000E+00 0. -1.
         21   -1    0    0  502  503 -0.00000000000E+00 -0.00000000000E+00 -0.51970302428E+03  0.51970302428E+03  0.00000000000E+00 0. -1.
    9000007    2    1    2  501    0  0.16141397378E+03  0.23541191100E+03  0.12966386989E+03  0.50845496494E+03  0.40030050393E+03 0.  0.
    9000005    1    3    3    0    0  0.22604437692E+03 -0.15500767026E+02  0.21204046317E+02  0.22756745306E+03  0.99999687468E+00 0.  0.
          4    1    3    3  501    0 -0.64630403139E+02  0.25091267802E+03  0.10845982357E+03  0.28088751188E+03  0.00000000000E+00 0.  1.
   -9000007    1    1    2    0  503 -0.16141397378E+03 -0.23541191100E+03 -0.14754349488E+03  0.51307145862E+03  0.40000000000E+03 0. -1.
<mgrwt>
<rscale>  2 0.49158274E+03</rscale>
<asrwt>0</asrwt>
<pdfrwt beam="1">  1       21 0.77203600E-01 0.49164391E+03</pdfrwt>
<pdfrwt beam="2">  1       21 0.79954312E-01 0.49164391E+03</pdfrwt>
<totfact> 0.17404926E+03</totfact>
</mgrwt>
</event>
<event>
 6    1  0.8739326E-004  0.6940343E+03  0.7818608E-02  0.9727786E-01
         21   -1    0    0  501  502  0.00000000000E+00  0.00000000000E+00  0.24315208983E+03  0.24315208983E+03  0.00000000000E+00 0. -1.
         21   -1    0    0  502  503 -0.00000000000E+00 -0.00000000000E+00 -0.20626461153E+04  0.20626461153E+04  0.00000000000E+00 0.  1.
    9000007    2    1    2  501    0  0.16792722995E+03  0.54174169988E+03 -0.67720058425E+03  0.96919133330E+03  0.39880770466E+03 0.  0.
    9000005    1    3    3    0    0  0.29625772825E+03  0.32239341513E+03 -0.39874318451E+03  0.59220206252E+03  0.99999687468E+00 0.  0.
          4    1    3    3  501    0 -0.12833049830E+03  0.21934828475E+03 -0.27845739974E+03  0.37698927078E+03  0.00000000000E+00 0.  1.
   -9000007    1    1    2    0  503 -0.16792722995E+03 -0.54174169988E+03 -0.11422934412E+04  0.13366068718E+04  0.40000000000E+03 0.  1.
<mgrwt>
<rscale>  2 0.69386263E+03</rscale>
<asrwt>0</asrwt>
<pdfrwt beam="1">  1       21 0.37408014E-01 0.69403431E+03</pdfrwt>
<pdfrwt beam="2">  1       21 0.31733017E+00 0.69403431E+03</pdfrwt>
<totfact> 0.12806232E+02</totfact>
</mgrwt>
</event>
<event>
 6    1  0.8739326E-004  0.4502546E+03  0.7818608E-02  0.1027848E+00
         21   -1    0    0  501  502  0.00000000000E+00  0.00000000000E+00  0.56180585760E+03  0.56180585760E+03  0.00000000000E+00 0.  1.
         21   -1    0    0  502  503 -0.00000000000E+00 -0.00000000000E+00 -0.37186949048E+03  0.37186949048E+03  0.00000000000E+00 0.  1.
    9000007    2    1    2  501    0  0.17203627989E+03  0.10347612695E+03  0.18312630527E+03  0.48607042474E+03  0.40302037626E+03 0.  0.
    9000005    1    3    3    0    0 -0.12595698220E+03  0.84394303228E+02  0.64380830303E+02  0.16472234544E+03  0.99999687468E+00 0.  0.
          4    1    3    3  501    0  0.29799326209E+03  0.19081823721E+02  0.11874547496E+03  0.32134807930E+03  0.00000000000E+00 0.  1.
   -9000007    1    1    2    0  503 -0.17203627989E+03 -0.10347612695E+03  0.68100618531E+01  0.44760492333E+03  0.40000000000E+03 0.  1.
<mgrwt>
<rscale>  2 0.44957771E+03</rscale>
<asrwt>0</asrwt>
<pdfrwt beam="1">  1       21 0.86431671E-01 0.45025461E+03</pdfrwt>
<pdfrwt beam="2">  1       21 0.57210691E-01 0.45025461E+03</pdfrwt>
<totfact> 0.28773459E+03</totfact>
</mgrwt>
</event>
<event>
 6    1  0.8739326E-004  0.4374890E+03  0.7818608E-02  0.1031541E+00
         21   -1    0    0  501  502  0.00000000000E+00  0.00000000000E+00  0.47694538265E+03  0.47694538265E+03  0.00000000000E+00 0.  1.
         21   -1    0    0  502  503 -0.00000000000E+00 -0.00000000000E+00 -0.11179344385E+04  0.11179344385E+04  0.00000000000E+00 0.  1.
    9000007    2    1    2  501    0 -0.12559352975E+03  0.12403808206E+03  0.31804939671E+03  0.54088080122E+03  0.40029669230E+03 0.  0.
    9000005    1    3    3    0    0  0.70793302988E+02 -0.10554407312E+03  0.14459665550E+03  0.19251087215E+03  0.99999687468E+00 0.  0.
          4    1    3    3  501    0 -0.19638683274E+03  0.22958215518E+03  0.17345274122E+03  0.34836992908E+03  0.00000000000E+00 0.  1.
   -9000007    1    1    2    0  503  0.12559352975E+03 -0.12403808206E+03 -0.95903845259E+03  0.10539990200E+04  0.40000000000E+03 0.  1.
<mgrwt>
<rscale>  2 0.43742112E+03</rscale>
<asrwt>0</asrwt>
<pdfrwt beam="1">  1       21 0.73376214E-01 0.43748900E+03</pdfrwt>
<pdfrwt beam="2">  1       21 0.17198991E+00 0.43748900E+03</pdfrwt>
<totfact> 0.28452143E+02</totfact>
</mgrwt>
</event>
<event>
 6    1  0.8739326E-004  0.4305835E+03  0.7818608E-02  0.1033708E+00
         21   -1    0    0  501  502  0.00000000000E+00  0.00000000000E+00  0.10591466515E+04  0.10591466515E+04  0.00000000000E+00 0.  1.
         21   -1    0    0  502  503 -0.00000000000E+00 -0.00000000000E+00 -0.28345929381E+03  0.28345929381E+03  0.00000000000E+00 0. -1.
    9000007    2    1    2  501    0 -0.22927265407E+02  0.15772273789E+03  0.80319935910E+03  0.91114443859E+03  0.39956583433E+03 0.  0.
    9000005    1    3    3    0    0  0.16107565518E+02  0.28656630227E+03  0.45661323231E+03  0.53932953115E+03  0.99999687468E+00 0.  0.
          4    1    3    3  501    0 -0.39034830925E+02 -0.12884356438E+03  0.34658612679E+03  0.37181490743E+03  0.00000000000E+00 0.  1.
   -9000007    1    1    2    0  503  0.22927265407E+02 -0.15772273789E+03 -0.27512001418E+02  0.43146150671E+03  0.40000000000E+03 0. -1.
<mgrwt>
<rscale>  2 0.43048261E+03</rscale>
<asrwt>0</asrwt>
<pdfrwt beam="1">  1       21 0.16294564E+00 0.43058347E+03</pdfrwt>
<pdfrwt beam="2">  1       21 0.43609123E-01 0.43058347E+03</pdfrwt>
<totfact> 0.10291098E+03</totfact>
</mgrwt>
</event>
<event>
 6    1  0.8739326E-004  0.4213644E+03  0.7818608E-02  0.1036630E+00
         21   -1    0    0  501  502  0.00000000000E+00  0.00000000000E+00  0.25442306184E+03  0.25442306184E+03  0.00000000000E+00 0.  1.
         21   -1    0    0  502  503 -0.00000000000E+00 -0.00000000000E+00 -0.70580150848E+03  0.70580150848E+03  0.00000000000E+00 0. -1.
    9000007    2    1    2  501    0  0.13172928963E+03  0.13976965926E+02 -0.27705858937E+03  0.50422525677E+03  0.39991709928E+03 0.  0.
    9000005    1    3    3    0    0 -0.13889625051E+03  0.18851819766E+02 -0.14972470657E+03  0.20510009085E+03  0.99999687468E+00 0.  0.
          4    1    3    3  501    0  0.27062554014E+03 -0.48748538399E+01 -0.12733388280E+03  0.29912516592E+03  0.00000000000E+00 0.  1.
   -9000007    1    1    2    0  503 -0.13172928963E+03 -0.13976965926E+02 -0.17431985726E+03  0.45599931355E+03  0.40000000000E+03 0.  1.
<mgrwt>
<rscale>  2 0.42134473E+03</rscale>
<asrwt>0</asrwt>
<pdfrwt beam="1">  1       21 0.39142010E-01 0.42136440E+03</pdfrwt>
<pdfrwt beam="2">  1       21 0.10858485E+00 0.42136440E+03</pdfrwt>
<totfact> 0.37371133E+03</totfact>
</mgrwt>
</event>
<event>
 6    1  0.8739326E-004  0.4057775E+03  0.7818608E-02  0.1041827E+00
         21   -1    0    0  501  502  0.00000000000E+00  0.00000000000E+00  0.11065471975E+04  0.11065471975E+04  0.00000000000E+00 0. -1.
         21   -1    0    0  502  503 -0.00000000000E+00 -0.00000000000E+00 -0.14869435812E+03  0.14869435812E+03  0.00000000000E+00 0. -1.
    9000007    2    1    2  501    0  0.25432251388E+02 -0.61006158436E+02  0.48692888502E+03  0.63384158654E+03  0.40035842315E+03 0.  0.
    9000005    1    3    3    0    0 -0.57509764688E+02  0.14951697197E+03  0.30100880747E+03  0.34098387075E+03  0.99999687468E+00 0.  0.
          4    1    3    3  501    0  0.82942016077E+02 -0.21052313040E+03  0.18592007755E+03  0.29285771580E+03  0.00000000000E+00 0.  1.
   -9000007    1    1    2    0  503 -0.25432251388E+02  0.61006158436E+02  0.47092395434E+03  0.62139996906E+03  0.40000000000E+03 0.  1.
<mgrwt>
<rscale>  2 0.40568911E+03</rscale>
<asrwt>0</asrwt>
<pdfrwt beam="1">  1       21 0.17023802E+00 0.40577755E+03</pdfrwt>
<pdfrwt beam="2">  1       21 0.22876056E-01 0.40577755E+03</pdfrwt>
<totfact> 0.33380165E+03</totfact>
</mgrwt>
</event>
<event>
 6    1  0.8739326E-004  0.4883655E+03  0.7818608E-02  0.1016869E+00
         21   -1    0    0  501  502  0.00000000000E+00  0.00000000000E+00  0.66504567659E+03  0.66504567659E+03  0.00000000000E+00 0. -1.
         21   -1    0    0  502  503 -0.00000000000E+00 -0.00000000000E+00 -0.79655762147E+03  0.79655762147E+03  0.00000000000E+00 0. -1.
    9000007    2    1    2  501    0 -0.27727785429E+03  0.38713326872E+02  0.47616612582E+03  0.68208141397E+03  0.40014890448E+03 0.  0.
    9000005    1    3    3    0    0 -0.33007057338E+03  0.99132201133E+02  0.49160531840E+03  0.60037535408E+03  0.99999687468E+00 0.  0.
          4    1    3    3  501    0  0.52792719089E+02 -0.60418874261E+02 -0.15439192583E+02  0.81706059894E+02  0.00000000000E+00 0.  1.
   -9000007    1    1    2    0  503  0.27727785429E+03 -0.38713326872E+02 -0.60767807070E+03  0.77952188409E+03  0.40000000000E+03 0. -1.
<mgrwt>
<rscale>  2 0.48833501E+03</rscale>
<asrwt>0</asrwt>
<pdfrwt beam="1">  1       21 0.10231472E+00 0.48836551E+03</pdfrwt>
<pdfrwt beam="2">  1       21 0.12254733E+00 0.48836551E+03</pdfrwt>
<totfact> 0.31679925E+02</totfact>
</mgrwt>
</event>
<event>
 6    1  0.8739326E-004  0.4952594E+03  0.7818608E-02  0.1015066E+00
         21   -1    0    0  501  502  0.00000000000E+00  0.00000000000E+00  0.77732918466E+03  0.77732918466E+03  0.00000000000E+00 0.  1.
         21   -1    0    0  502  503 -0.00000000000E+00 -0.00000000000E+00 -0.35688188968E+03  0.35688188968E+03  0.00000000000E+00 0.  1.
    9000007    2    1    2  501    0  0.26506507642E+03 -0.11997883730E+03  0.40428992563E+03  0.63932171628E+03  0.40078360346E+03 0.  0.
    9000005    1    3    3    0    0  0.14421326377E+03 -0.13793636035E+03 -0.17371115255E+02  0.20031640121E+03  0.99999687468E+00 0.  0.
          4    1    3    3  501    0  0.12085181265E+03  0.17957523055E+02  0.42166104089E+03  0.43900531507E+03  0.00000000000E+00 0.  1.
   -9000007    1    1    2    0  503 -0.26506507642E+03  0.11997883730E+03  0.16157369344E+02  0.49488935806E+03  0.40000000000E+03 0.  1.
<mgrwt>
<rscale>  2 0.49510089E+03</rscale>
<asrwt>0</asrwt>
<pdfrwt beam="1">  1       21 0.11958910E+00 0.49525944E+03</pdfrwt>
<pdfrwt beam="2">  1       21 0.54904906E-01 0.49525944E+03</pdfrwt>
<totfact> 0.14009470E+03</totfact>
</mgrwt>
</event>
<event>
 6    1  0.8739326E-004  0.5307674E+03  0.7818608E-02  0.1006056E+00
         21   -1    0    0  501  502  0.00000000000E+00  0.00000000000E+00  0.29261374313E+03  0.29261374313E+03  0.00000000000E+00 0.  1.
         21   -1    0    0  502  503 -0.00000000000E+00 -0.00000000000E+00 -0.21515247373E+04  0.21515247373E+04  0.00000000000E+00 0.  1.
    9000007    2    1    2  501    0  0.29646162276E+03 -0.18344034890E+03 -0.21016126043E+02  0.53118333154E+03  0.40021768924E+03 0.  0.
    9000005    1    3    3    0    0  0.16972876395E+03 -0.27025027763E+03  0.10129825528E+03  0.33482144852E+03  0.99999687468E+00 0.  0.
          4    1    3    3  501    0  0.12673285881E+03  0.86809928728E+02 -0.12231438132E+03  0.19636188302E+03  0.00000000000E+00 0.  1.
   -9000007    1    1    2    0  503 -0.29646162276E+03  0.18344034890E+03 -0.18378948681E+04  0.19129551489E+04  0.40000000000E+03 0.  1.
<mgrwt>
<rscale>  2 0.53072638E+03</rscale>
<asrwt>0</asrwt>
<pdfrwt beam="1">  1       21 0.45017499E-01 0.53076742E+03</pdfrwt>
<pdfrwt beam="2">  1       21 0.33100381E+00 0.53076742E+03</pdfrwt>
<totfact> 0.77603621E+01</totfact>
</mgrwt>
</event>
<event>
 6    1  0.8739326E-004  0.4411895E+03  0.7818608E-02  0.1030386E+00
         21   -1    0    0  501  502  0.00000000000E+00  0.00000000000E+00  0.69034379330E+03  0.69034379330E+03  0.00000000000E+00 0.  1.
         21   -1    0    0  502  503 -0.00000000000E+00 -0.00000000000E+00 -0.28198414338E+03  0.28198414338E+03  0.00000000000E+00 0.  1.
    9000007    2    1    2  501    0  0.28764973620E+02 -0.18390416308E+03  0.21099312512E+03  0.48900432871E+03  0.39994870888E+03 0.  0.
    9000005    1    3    3    0    0 -0.35552774882E+02 -0.30334943886E+03  0.14254401343E+03  0.33705292999E+03  0.99999687468E+00 0.  0.
          4    1    3    3  501    0  0.64317748502E+02  0.11944527578E+03  0.68449111698E+02  0.15195139871E+03  0.00000000000E+00 0.  1.
   -9000007    1    1    2    0  503 -0.28764973620E+02  0.18390416308E+03  0.19736652480E+03  0.48332360797E+03  0.40000000000E+03 0. -1.
<mgrwt>
<rscale>  2 0.44117786E+03</rscale>
<asrwt>0</asrwt>
<pdfrwt beam="1">  1       21 0.10620674E+00 0.44118949E+03</pdfrwt>
<pdfrwt beam="2">  1       21 0.43382176E-01 0.44118949E+03</pdfrwt>
<totfact> 0.31678662E+03</totfact>
</mgrwt>
</event>
<event>
 6    1  0.8739326E-004  0.6427271E+03  0.7818608E-02  0.9820640E-01
         21   -1    0    0  501  502  0.00000000000E+00  0.00000000000E+00  0.87988619499E+03  0.87988619499E+03  0.00000000000E+00 0.  1.
         21   -1    0    0  502  503 -0.00000000000E+00 -0.00000000000E+00 -0.47226267655E+03  0.47226267655E+03  0.00000000000E+00 0. -1.
    9000007    2    1    2  501    0  0.31531303306E+03 -0.39201503609E+03  0.25722604012E+03  0.69205986328E+03  0.39960420583E+03 0.  0.
    9000005    1    3    3    0    0  0.21951175019E+02 -0.32871588678E+03  0.65399169226E+02  0.33587801303E+03  0.99999687468E+00 0.  0.
          4    1    3    3  501    0  0.29336185804E+03 -0.63299149308E+02  0.19182687089E+03  0.35618185025E+03  0.00000000000E+00 0.  1.
   -9000007    1    1    2    0  503 -0.31531303306E+03  0.39201503609E+03  0.15039747832E+03  0.66008900826E+03  0.40000000000E+03 0. -1.
<mgrwt>
<rscale>  2 0.64266551E+03</rscale>
<asrwt>0</asrwt>
<pdfrwt beam="1">  1       21 0.13536711E+00 0.64272708E+03</pdfrwt>
<pdfrwt beam="2">  1       21 0.72655797E-01 0.64272708E+03</pdfrwt>
<totfact> 0.51852106E+02</totfact>
</mgrwt>
</event>
<event>
 6    1  0.8739326E-004  0.4516807E+03  0.7818608E-02  0.1027271E+00
         21   -1    0    0  501  502  0.00000000000E+00  0.00000000000E+00  0.73356372673E+03  0.73356372673E+03  0.00000000000E+00 0.  1.
         21   -1    0    0  502  503 -0.00000000000E+00 -0.00000000000E+00 -0.10011818714E+04  0.10011818714E+04  0.00000000000E+00 0.  1.
    9000007    2    1    2  501    0  0.19488933739E+03  0.77676318032E+02  0.60354730129E+03  0.75344814147E+03  0.39924840986E+03 0.  0.
    9000005    1    3    3    0    0 -0.23290801966E+02 -0.10261014510E+03  0.23183646169E+02  0.10774871125E+03  0.99999687468E+00 0.  0.
          4    1    3    3  501    0  0.21818013935E+03  0.18028646313E+03  0.58036365513E+03  0.64569943022E+03  0.00000000000E+00 0.  1.
   -9000007    1    1    2    0  503 -0.19488933739E+03 -0.77676318032E+02 -0.87116544594E+03  0.98129745664E+03  0.40000000000E+03 0.  1.
<mgrwt>
<rscale>  2 0.45151425E+03</rscale>
<asrwt>0</asrwt>
<pdfrwt beam="1">  1       21 0.11285596E+00 0.45168071E+03</pdfrwt>
<pdfrwt beam="2">  1       21 0.15402798E+00 0.45168071E+03</pdfrwt>
<totfact> 0.13817139E+02</totfact>
</mgrwt>
</event>
<event>
 6    1  0.8739326E-004  0.5289053E+03  0.7818608E-02  0.1006518E+00
         21   -1    0    0  501  502  0.00000000000E+00  0.00000000000E+00  0.13320187808E+04  0.13320187808E+04  0.00000000000E+00 0. -1.
         21   -1    0    0  502  503 -0.00000000000E+00 -0.00000000000E+00 -0.35750637488E+03  0.35750637488E+03  0.00000000000E+00 0. -1.
    9000007    2    1    2  501    0  0.34603533119E+03  0.64179460857E+00  0.10300076177E+04  0.11577163734E+04  0.39956306935E+03 0.  0.
    9000005    1    3    3    0    0  0.28657391208E+03  0.11306530180E+03  0.96874367660E+03  0.10165498908E+04  0.99999687468E+00 0.  0.
          4    1    3    3  501    0  0.59461419114E+02 -0.11242350719E+03  0.61263941130E+02  0.14116648262E+03  0.00000000000E+00 0.  1.
   -9000007    1    1    2    0  503 -0.34603533119E+03 -0.64179460857E+00 -0.55495211828E+02  0.53180878224E+03  0.40000000000E+03 0. -1.
<mgrwt>
<rscale>  2 0.52882273E+03</rscale>
<asrwt>0</asrwt>
<pdfrwt beam="1">  1       21 0.20492596E+00 0.52890534E+03</pdfrwt>
<pdfrwt beam="2">  1       21 0.55000982E-01 0.52890534E+03</pdfrwt>
<totfact> 0.30577752E+02</totfact>
</mgrwt>
</event>
<event>
 6    1  0.8739326E-004  0.6638172E+03  0.7818608E-02  0.9781245E-01
         21   -1    0    0  501  502  0.00000000000E+00  0.00000000000E+00  0.64314591095E+03  0.64314591095E+03  0.00000000000E+00 0. -1.
         21   -1    0    0  502  503 -0.00000000000E+00 -0.00000000000E+00 -0.95134004283E+03  0.95134004283E+03  0.00000000000E+00 0. -1.
    9000007    2    1    2  501    0 -0.41416549398E+03 -0.33009991968E+03  0.26770063622E+03  0.71576313212E+03  0.40019272519E+03 0.  0.
    9000005    1    3    3    0    0 -0.47811552563E+01  0.12979379693E+02  0.17268879693E+03  0.17324475266E+03  0.99999687468E+00 0.  0.
          4    1    3    3  501    0 -0.40938433873E+03 -0.34307929938E+03  0.95011839285E+02  0.54251837947E+03  0.00000000000E+00 0.  1.
   -9000007    1    1    2    0  503  0.41416549398E+03  0.33009991968E+03 -0.57589476809E+03  0.87872282166E+03  0.40000000000E+03 0. -1.
<mgrwt>
<rscale>  2 0.66378812E+03</rscale>
<asrwt>0</asrwt>
<pdfrwt beam="1">  1       21 0.98945525E-01 0.66381717E+03</pdfrwt>
<pdfrwt beam="2">  1       21 0.14636001E+00 0.66381717E+03</pdfrwt>
<totfact> 0.20124887E+02</totfact>
</mgrwt>
</event>
<event>
 6    1  0.8739326E-004  0.4094599E+03  0.7818608E-02  0.1040664E+00
         21   -1    0    0  501  502  0.00000000000E+00  0.00000000000E+00  0.13039376984E+04  0.13039376984E+04  0.00000000000E+00 0. -1.
         21   -1    0    0  502  503 -0.00000000000E+00 -0.00000000000E+00 -0.13584709692E+03  0.13584709692E+03  0.00000000000E+00 0. -1.
    9000007    2    1    2  501    0  0.58330741538E+01 -0.87312127584E+02  0.75439220207E+03  0.85771624432E+03  0.39863784172E+03 0.  0.
    9000005    1    3    3    0    0  0.19996438319E+03 -0.70077087805E+02  0.42759753881E+03  0.47721819744E+03  0.99999687468E+00 0.  0.
          4    1    3    3  501    0 -0.19413130903E+03 -0.17235039778E+02  0.32679466326E+03  0.38049804688E+03  0.00000000000E+00 0.  1.
   -9000007    1    1    2    0  503 -0.58330741538E+01  0.87312127584E+02  0.41369839938E+03  0.58206855097E+03  0.40000000000E+03 0. -1.
<mgrwt>
<rscale>  2 0.40912688E+03</rscale>
<asrwt>0</asrwt>
<pdfrwt beam="1">  1       21 0.20060579E+00 0.40945993E+03</pdfrwt>
<pdfrwt beam="2">  1       21 0.20899554E-01 0.40945993E+03</pdfrwt>
<totfact> 0.24426375E+03</totfact>
</mgrwt>
</event>
<event>
 6    1  0.8739326E-004  0.6128400E+03  0.7818608E-02  0.9879138E-01
         21   -1    0    0  501  502  0.00000000000E+00  0.00000000000E+00  0.19197589074E+04  0.19197589074E+04  0.00000000000E+00 0. -1.
         21   -1    0    0  502  503 -0.00000000000E+00 -0.00000000000E+00 -0.24810328248E+03  0.24810328248E+03  0.00000000000E+00 0. -1.
    9000007    2    1    2  501    0  0.19631878266E+03 -0.42075143381E+03  0.13343247113E+04  0.14683159236E+04  0.39994547459E+03 0.  0.
    9000005    1    3    3    0    0  0.17345028019E+03 -0.21049181334E+02  0.67242778943E+03  0.69475765540E+03  0.99999687468E+00 0.  0.
          4    1    3    3  501    0  0.22868502472E+02 -0.39970225247E+03  0.66189692191E+03  0.77355826818E+03  0.00000000000E+00 0.  1.
   -9000007    1    1    2    0  503 -0.19631878266E+03  0.42075143381E+03  0.33733091361E+03  0.69954626634E+03  0.40000000000E+03 0. -1.
<mgrwt>
<rscale>  2 0.61283108E+03</rscale>
<asrwt>0</asrwt>
<pdfrwt beam="1">  1       21 0.29534751E+00 0.61283997E+03</pdfrwt>
<pdfrwt beam="2">  1       21 0.38169737E-01 0.61283997E+03</pdfrwt>
<totfact> 0.17316795E+02</totfact>
</mgrwt>
</event>
<event>
 6    1  0.8739326E-004  0.4405487E+03  0.7818608E-02  0.1030704E+00
         21   -1    0    0  501  502  0.00000000000E+00  0.00000000000E+00  0.58982433523E+03  0.58982433523E+03  0.00000000000E+00 0.  1.
         21   -1    0    0  502  503 -0.00000000000E+00 -0.00000000000E+00 -0.44907317005E+03  0.44907317005E+03  0.00000000000E+00 0. -1.
    9000007    2    1    2  501    0  0.13994761008E+03  0.11430331601E+03  0.34036879891E+03  0.55671726791E+03  0.40178677866E+03 0.  0.
    9000005    1    3    3    0    0  0.49530443862E+02  0.26056913068E+03  0.17243014357E+03  0.31635848516E+03  0.99999687468E+00 0.  0.
          4    1    3    3  501    0  0.90417166214E+02 -0.14626581467E+03  0.16793865534E+03  0.24035878275E+03  0.00000000000E+00 0.  1.
   -9000007    1    1    2    0  503 -0.13994761008E+03 -0.11430331601E+03 -0.19961763372E+03  0.48218023737E+03  0.40000000000E+03 0. -1.
<mgrwt>
<rscale>  2 0.44014094E+03</rscale>
<asrwt>0</asrwt>
<pdfrwt beam="1">  1       21 0.90742205E-01 0.44054875E+03</pdfrwt>
<pdfrwt beam="2">  1       21 0.69088180E-01 0.44054875E+03</pdfrwt>
<totfact> 0.16970625E+03</totfact>
</mgrwt>
</event>
<event>
 6    1  0.8739326E-004  0.4987709E+03  0.7818608E-02  0.1014107E+00
         21   -1    0    0  501  502  0.00000000000E+00  0.00000000000E+00  0.41289826261E+03  0.41289826261E+03  0.00000000000E+00 0. -1.
         21   -1    0    0  502  503 -0.00000000000E+00 -0.00000000000E+00 -0.60906198387E+03  0.60906198387E+03  0.00000000000E+00 0. -1.
    9000007    2    1    2  501    0 -0.10438883568E+03 -0.27906159444E+03 -0.44547019795E+02  0.50065416876E+03  0.39987217610E+03 0.  0.
    9000005    1    3    3    0    0  0.24271292977E+01 -0.33491215991E+03  0.61007400692E+02  0.34043347184E+03  0.99999687468E+00 0.  0.
          4    1    3    3  501    0 -0.10681596497E+03  0.55850565477E+02 -0.10555442049E+03  0.16022069692E+03  0.00000000000E+00 0.  1.
   -9000007    1    1    2    0  503  0.10438883568E+03  0.27906159444E+03 -0.15161670146E+03  0.52130607772E+03  0.40000000000E+03 0. -1.
<mgrwt>
<rscale>  2 0.49874526E+03</rscale>
<asrwt>0</asrwt>
<pdfrwt beam="1">  1       21 0.63522810E-01 0.49877089E+03</pdfrwt>
<pdfrwt beam="2">  1       21 0.93701843E-01 0.49877089E+03</pdfrwt>
<totfact> 0.18560856E+03</totfact>
</mgrwt>
</event>
<event>
 6    1  0.8739326E-004  0.4861556E+03  0.7818608E-02  0.1017458E+00
         21   -1    0    0  501  502  0.00000000000E+00  0.00000000000E+00  0.21906402714E+03  0.21906402714E+03  0.00000000000E+00 0.  1.
         21   -1    0    0  502  503 -0.00000000000E+00 -0.00000000000E+00 -0.14535968806E+04  0.14535968806E+04  0.00000000000E+00 0.  1.
    9000007    2    1    2  501    0 -0.26388425228E+03  0.81929198081E+02 -0.19262663084E+03  0.52291490585E+03  0.39998460941E+03 0.  0.
    9000005    1    3    3    0    0 -0.13962060591E+03 -0.47297784532E+01 -0.30421356459E+03  0.33475838641E+03  0.99999687468E+00 0.  0.
          4    1    3    3  501    0 -0.12426364637E+03  0.86658976534E+02  0.11158693376E+03  0.18815651944E+03  0.00000000000E+00 0.  1.
   -9000007    1    1    2    0  503  0.26388425228E+03 -0.81929198081E+02 -0.10419062226E+04  0.11497460018E+04  0.40000000000E+03 0.  1.
<mgrwt>
<rscale>  2 0.48615246E+03</rscale>
<asrwt>0</asrwt>
<pdfrwt beam="1">  1       21 0.33702159E-01 0.48615563E+03</pdfrwt>
<pdfrwt beam="2">  1       21 0.22363028E+00 0.48615563E+03</pdfrwt>
<totfact> 0.65500029E+02</totfact>
</mgrwt>
</event>
<event>
 6    1  0.8739326E-004  0.6623586E+03  0.7818608E-02  0.9783900E-01
         21   -1    0    0  501  502  0.00000000000E+00  0.00000000000E+00  0.36769645450E+03  0.36769645450E+03  0.00000000000E+00 0.  1.
         21   -1    0    0  502  503 -0.00000000000E+00 -0.00000000000E+00 -0.12166352959E+04  0.12166352959E+04  0.00000000000E+00 0. -1.
    9000007    2    1    2  501    0  0.19554873650E+03  0.49038716509E+03 -0.31403876590E+03  0.73295817151E+03  0.39986054402E+03 0.  0.
    9000005    1    3    3    0    0  0.25402438270E+03  0.27890171104E+03 -0.36280905008E+02  0.37898793581E+03  0.99999687468E+00 0.  0.
          4    1    3    3  501    0 -0.58475646204E+02  0.21148545404E+03 -0.27775786089E+03  0.35397023569E+03  0.00000000000E+00 0.  1.
   -9000007    1    1    2    0  503 -0.19554873650E+03 -0.49038716509E+03 -0.53490007547E+03  0.85137357885E+03  0.40000000000E+03 0.  1.
<mgrwt>
<rscale>  2 0.66233752E+03</rscale>
<asrwt>0</asrwt>
<pdfrwt beam="1">  1       21 0.56568686E-01 0.66235857E+03</pdfrwt>
<pdfrwt beam="2">  1       21 0.18717466E+00 0.66235857E+03</pdfrwt>
<totfact> 0.36138840E+02</totfact>
</mgrwt>
</event>
<event>
 6    1  0.8739326E-004  0.4048794E+03  0.7818608E-02  0.1042176E+00
         21   -1    0    0  501  502  0.00000000000E+00  0.00000000000E+00  0.17094651975E+03  0.17094651975E+03  0.00000000000E+00 0.  1.
         21   -1    0    0  502  503 -0.00000000000E+00 -0.00000000000E+00 -0.96353852551E+03  0.96353852551E+03  0.00000000000E+00 0.  1.
    9000007    2    1    2  501    0  0.61848665157E+02 -0.10104824420E+02 -0.44285967673E+03  0.59947096431E+03  0.39914080087E+03 0.  0.
    9000005    1    3    3    0    0 -0.11155025213E+03  0.57111085815E+02 -0.69130843281E+01  0.12551464298E+03  0.99999687468E+00 0.  0.
          4    1    3    3  501    0  0.17339891728E+03 -0.67215910235E+02 -0.43594659240E+03  0.47395632133E+03  0.00000000000E+00 0.  1.
   -9000007    1    1    2    0  503 -0.61848665157E+02  0.10104824420E+02 -0.34973232903E+03  0.53501408096E+03  0.40000000000E+03 0.  1.
<mgrwt>
<rscale>  2 0.40466707E+03</rscale>
<asrwt>0</asrwt>
<pdfrwt beam="1">  1       21 0.26299464E-01 0.40487944E+03</pdfrwt>
<pdfrwt beam="2">  1       21 0.14823670E+00 0.40487944E+03</pdfrwt>
<totfact> 0.37370919E+03</totfact>
</mgrwt>
</event>
<event>
 6    1  0.8739326E-004  0.4247551E+03  0.7818608E-02  0.1035639E+00
         21   -1    0    0  501  502  0.00000000000E+00  0.00000000000E+00  0.78232059120E+03  0.78232059120E+03  0.00000000000E+00 0.  1.
         21   -1    0    0  502  503 -0.00000000000E+00 -0.00000000000E+00 -0.43389559797E+03  0.43389559797E+03  0.00000000000E+00 0.  1.
    9000007    2    1    2  501    0  0.67179883877E+02 -0.12143565916E+03  0.59134771406E+03  0.72808587419E+03  0.40144385056E+03 0.  0.
    9000005    1    3    3    0    0  0.16869868877E+03  0.75912082955E+02  0.37502311360E+03  0.41816889849E+03  0.99999687468E+00 0.  0.
          4    1    3    3  501    0 -0.10151880489E+03 -0.19734774211E+03  0.21632460046E+03  0.30991697570E+03  0.00000000000E+00 0.  1.
   -9000007    1    1    2    0  503 -0.67179883877E+02  0.12143565916E+03 -0.24292272082E+03  0.48813031498E+03  0.40000000000E+03 0.  1.
<mgrwt>
<rscale>  2 0.42441363E+03</rscale>
<asrwt>0</asrwt>
<pdfrwt beam="1">  1       21 0.12035701E+00 0.42475513E+03</pdfrwt>
<pdfrwt beam="2">  1       21 0.66753169E-01 0.42475513E+03</pdfrwt>
<totfact> 0.92327728E+02</totfact>
</mgrwt>
</event>
<event>
 6    1  0.8739326E-004  0.4514151E+03  0.7818608E-02  0.1027335E+00
         21   -1    0    0  501  502  0.00000000000E+00  0.00000000000E+00  0.18382154468E+04  0.18382154468E+04  0.00000000000E+00 0.  1.
         21   -1    0    0  502  503 -0.00000000000E+00 -0.00000000000E+00 -0.21233592338E+03  0.21233592338E+03  0.00000000000E+00 0. -1.
    9000007    2    1    2  501    0 -0.73281968882E+02  0.19597277768E+03  0.15219147838E+04  0.15873189839E+04  0.39947637126E+03 0.  0.
    9000005    1    3    3    0    0  0.11941234286E+02 -0.67412486887E+02  0.39022956776E+02  0.78808804164E+02  0.99999687468E+00 0.  0.
          4    1    3    3  501    0 -0.85223203168E+02  0.26338526457E+03  0.14828918270E+04  0.15085101798E+04  0.00000000000E+00 0.  1.
   -9000007    1    1    2    0  503  0.73281968882E+02 -0.19597277768E+03  0.10396473964E+03  0.46323238622E+03  0.40000000000E+03 0. -1.
<mgrwt>
<rscale>  2 0.45129906E+03</rscale>
<asrwt>0</asrwt>
<pdfrwt beam="1">  1       21 0.28280237E+00 0.45141508E+03</pdfrwt>
<pdfrwt beam="2">  1       21 0.32667066E-01 0.45141508E+03</pdfrwt>
<totfact> 0.30693242E+02</totfact>
</mgrwt>
</event>
<event>
 6    1  0.8739326E-004  0.4027764E+03  0.7818608E-02  0.1042858E+00
         21   -1    0    0  501  502  0.00000000000E+00  0.00000000000E+00  0.39677231952E+03  0.39677231952E+03  0.00000000000E+00 0.  1.
         21   -1    0    0  502  503 -0.00000000000E+00 -0.00000000000E+00 -0.42777565108E+03  0.42777565108E+03  0.00000000000E+00 0.  1.
    9000007    2    1    2  501    0 -0.43281476532E+02 -0.52068334608E+01  0.72102579715E+02  0.40917918714E+03  0.40041032437E+03 0.  0.
    9000005    1    3    3    0    0  0.62680786328E+02  0.17507885373E+03  0.73748454683E+02  0.20005329430E+03  0.99999687468E+00 0.  0.
          4    1    3    3  501    0 -0.10596226286E+03 -0.18028568719E+03 -0.16458749678E+01  0.20912589285E+03  0.00000000000E+00 0.  1.
   -9000007    1    1    2    0  503  0.43281476532E+02  0.52068334608E+01 -0.10310591127E+03  0.41536878345E+03  0.40000000000E+03 0.  1.
<mgrwt>
<rscale>  2 0.40267438E+03</rscale>
<asrwt>0</asrwt>
<pdfrwt beam="1">  1       21 0.61041895E-01 0.40277640E+03</pdfrwt>
<pdfrwt beam="2">  1       21 0.65811639E-01 0.40277640E+03</pdfrwt>
<totfact> 0.47329273E+03</totfact>
</mgrwt>
</event>
<event>
 6    1  0.8739326E-004  0.4189067E+03  0.7818608E-02  0.1037426E+00
         21   -1    0    0  501  502  0.00000000000E+00  0.00000000000E+00  0.21692450246E+04  0.21692450246E+04  0.00000000000E+00 0. -1.
         21   -1    0    0  502  503 -0.00000000000E+00 -0.00000000000E+00 -0.88418272258E+02  0.88418272258E+02  0.00000000000E+00 0. -1.
    9000007    2    1    2  501    0 -0.97732009512E+02 -0.77014887796E+02  0.13698142133E+04  0.14324229262E+04  0.39995202464E+03 0.  0.
    9000005    1    3    3    0    0 -0.18557200517E+03  0.74887639446E+02  0.40454672424E+03  0.45133599427E+03  0.99999687468E+00 0.  0.
          4    1    3    3  501    0  0.87839995655E+02 -0.15190252724E+03  0.96526748907E+03  0.98108693196E+03  0.00000000000E+00 0.  1.
   -9000007    1    1    2    0  503  0.97732009512E+02  0.77014887796E+02  0.71101253901E+03  0.82524037059E+03  0.40000000000E+03 0. -1.
<mgrwt>
<rscale>  2 0.41889527E+03</rscale>
<asrwt>0</asrwt>
<pdfrwt beam="1">  1       21 0.33372996E+00 0.41890672E+03</pdfrwt>
<pdfrwt beam="2">  1       21 0.13602813E-01 0.41890672E+03</pdfrwt>
<totfact> 0.82696993E+02</totfact>
</mgrwt>
</event>
<event>
 6    1  0.8739326E-004  0.4435482E+03  0.7818608E-02  0.1029687E+00
         21   -1    0    0  501  502  0.00000000000E+00  0.00000000000E+00  0.41639027890E+03  0.41639027890E+03  0.00000000000E+00 0.  1.
         21   -1    0    0  502  503 -0.00000000000E+00 -0.00000000000E+00 -0.13034596034E+04  0.13034596034E+04  0.00000000000E+00 0.  1.
    9000007    2    1    2  501    0 -0.85567895818E+02  0.17069391555E+03  0.24315212670E+03  0.50582401505E+03  0.40034572545E+03 0.  0.
    9000005    1    3    3    0    0  0.94941745469E+02  0.23344074548E+03  0.14931850879E+03  0.29292581611E+03  0.99999687468E+00 0.  0.
          4    1    3    3  501    0 -0.18050964129E+03 -0.62746829928E+02  0.93833617900E+02  0.21289819894E+03  0.00000000000E+00 0.  1.
   -9000007    1    1    2    0  503  0.85567895818E+02 -0.17069391555E+03 -0.11302214512E+04  0.12140258672E+04  0.40000000000E+03 0.  1.
<mgrwt>
<rscale>  2 0.44347014E+03</rscale>
<asrwt>0</asrwt>
<pdfrwt beam="1">  1       21 0.64060042E-01 0.44354817E+03</pdfrwt>
<pdfrwt beam="2">  1       21 0.20053225E+00 0.44354817E+03</pdfrwt>
<totfact> 0.24401071E+02</totfact>
</mgrwt>
</event>
<event>
 6    1  0.8739326E-004  0.5677378E+03  0.7818608E-02  0.9974755E-01
         21   -1    0    0  501  502  0.00000000000E+00  0.00000000000E+00  0.75759584218E+03  0.75759584218E+03  0.00000000000E+00 0. -1.
         21   -1    0    0  502  503 -0.00000000000E+00 -0.00000000000E+00 -0.44062417220E+03  0.44062417220E+03  0.00000000000E+00 0. -1.
    9000007    2    1    2  501    0  0.18121051905E+03 -0.35968098780E+03  0.26993174959E+03  0.62864085455E+03  0.40014810930E+03 0.  0.
    9000005    1    3    3    0    0  0.27545382716E+03 -0.37374669395E+03  0.26178885204E+03  0.53300638380E+03  0.99999687468E+00 0.  0.
          4    1    3    3  501    0 -0.94243308112E+02  0.14065706151E+02  0.81428975533E+01  0.95634470741E+02  0.00000000000E+00 0.  1.
   -9000007    1    1    2    0  503 -0.18121051905E+03  0.35968098780E+03  0.47039920391E+02  0.56957915982E+03  0.40000000000E+03 0. -1.
<mgrwt>
<rscale>  2 0.56771167E+03</rscale>
<asrwt>0</asrwt>
<pdfrwt beam="1">  1       21 0.11655321E+00 0.56773777E+03</pdfrwt>
<pdfrwt beam="2">  1       21 0.67788334E-01 0.56773777E+03</pdfrwt>
<totfact> 0.91623807E+02</totfact>
</mgrwt>
</event>
<event>
 6    1  0.8739326E-004  0.4129350E+03  0.7818608E-02  0.1039485E+00
         21   -1    0    0  501  502  0.00000000000E+00  0.00000000000E+00  0.29116586462E+03  0.29116586462E+03  0.00000000000E+00 0.  1.
         21   -1    0    0  502  503 -0.00000000000E+00 -0.00000000000E+00 -0.73271120168E+03  0.73271120168E+03  0.00000000000E+00 0.  1.
    9000007    2    1    2  501    0 -0.21723496479E+02 -0.10021678857E+03 -0.45114559219E+03  0.61083048308E+03  0.39883106536E+03 0.  0.
    9000005    1    3    3    0    0 -0.27238560476E+02  0.13280210568E+03 -0.45525573478E+02  0.14301019644E+03  0.99999687468E+00 0.  0.
          4    1    3    3  501    0  0.55150639964E+01 -0.23301889426E+03 -0.40562001872E+03  0.46782028664E+03  0.00000000000E+00 0.  1.
   -9000007    1    1    2    0  503  0.21723496479E+02  0.10021678857E+03  0.96002551338E+01  0.41304658322E+03  0.40000000000E+03 0.  1.
<mgrwt>
<rscale>  2 0.41265166E+03</rscale>
<asrwt>0</asrwt>
<pdfrwt beam="1">  1       21 0.44794749E-01 0.41293500E+03</pdfrwt>
<pdfrwt beam="2">  1       21 0.11272480E+00 0.41293500E+03</pdfrwt>
<totfact> 0.25844963E+03</totfact>
</mgrwt>
</event>
<event>
 6    1  0.8739326E-004  0.4638500E+03  0.7818608E-02  0.1023711E+00
         21   -1    0    0  501  502  0.00000000000E+00  0.00000000000E+00  0.40912231734E+03  0.40912231734E+03  0.00000000000E+00 0. -1.
         21   -1    0    0  502  503 -0.00000000000E+00 -0.00000000000E+00 -0.19438297919E+04  0.19438297919E+04  0.00000000000E+00 0.  1.
    9000007    2    1    2  501    0  0.21750810363E+03  0.88583420371E+02  0.23780123333E+03  0.52075563586E+03  0.39934973169E+03 0.  0.
    9000005    1    3    3    0    0  0.24778755734E+03  0.19709412467E+03  0.25533223945E+03  0.40674355563E+03  0.99999687468E+00 0.  0.
          4    1    3    3  501    0 -0.30279453703E+02 -0.10851070429E+03 -0.17531006126E+02  0.11401208023E+03  0.00000000000E+00 0.  1.
   -9000007    1    1    2    0  503 -0.21750810363E+03 -0.88583420371E+02 -0.17725087079E+04  0.18321964734E+04  0.40000000000E+03 0.  1.
<mgrwt>
<rscale>  2 0.46370975E+03</rscale>
<asrwt>0</asrwt>
<pdfrwt beam="1">  1       21 0.62941895E-01 0.46384997E+03</pdfrwt>
<pdfrwt beam="2">  1       21 0.29905073E+00 0.46384997E+03</pdfrwt>
<totfact> 0.61295265E+01</totfact>
</mgrwt>
</event>
<event>
 6    1  0.8739326E-004  0.4071397E+03  0.7818608E-02  0.1041351E+00
         21   -1    0    0  501  502  0.00000000000E+00  0.00000000000E+00  0.52919930392E+03  0.52919930392E+03  0.00000000000E+00 0. -1.
         21   -1    0    0  502  503 -0.00000000000E+00 -0.00000000000E+00 -0.32069259217E+03  0.32069259217E+03  0.00000000000E+00 0. -1.
    9000007    2    1    2  501    0  0.29983566597E+02  0.68666836688E+02  0.38858886703E+02  0.40898994182E+03  0.40018572027E+03 0.  0.
    9000005    1    3    3    0    0  0.12951315105E+03  0.16476467353E+03 -0.82232056300E+02  0.22513143942E+03  0.99999687468E+00 0.  0.
          4    1    3    3  501    0 -0.99529584456E+02 -0.96097836842E+02  0.12109094300E+03  0.18385850240E+03  0.00000000000E+00 0.  1.
   -9000007    1    1    2    0  503 -0.29983566597E+02 -0.68666836688E+02  0.16964782505E+03  0.44090195426E+03  0.40000000000E+03 0. -1.
<mgrwt>
<rscale>  2 0.40709409E+03</rscale>
<asrwt>0</asrwt>
<pdfrwt beam="1">  1       21 0.81415278E-01 0.40713973E+03</pdfrwt>
<pdfrwt beam="2">  1       21 0.49337322E-01 0.40713973E+03</pdfrwt>
<totfact> 0.46153731E+03</totfact>
</mgrwt>
</event>
<event>
 6    1  0.8739326E-004  0.4852431E+03  0.7818608E-02  0.1017733E+00
         21   -1    0    0  501  502  0.00000000000E+00  0.00000000000E+00  0.14337137710E+04  0.14337137710E+04  0.00000000000E+00 0.  1.
         21   -1    0    0  502  503 -0.00000000000E+00 -0.00000000000E+00 -0.17001030014E+03  0.17001030014E+03  0.00000000000E+00 0.  1.
    9000007    2    1    2  501    0 -0.19938083327E+03 -0.18788306054E+03  0.48246950101E+03  0.68427897937E+03  0.40050985142E+03 0.  0.
    9000005    1    3    3    0    0 -0.10141852536E+03 -0.99529908115E+02 -0.38208658645E+02  0.14714897718E+03  0.99999687468E+00 0.  0.
          4    1    3    3  501    0 -0.97962307915E+02 -0.88353152430E+02  0.52067815965E+03  0.53713000219E+03  0.00000000000E+00 0.  1.
   -9000007    1    1    2    0  503  0.19938083327E+03  0.18788306054E+03  0.78123396986E+03  0.91944509177E+03  0.40000000000E+03 0.  1.
<mgrwt>
<rscale>  2 0.48513792E+03</rscale>
<asrwt>0</asrwt>
<pdfrwt beam="1">  1       21 0.22057134E+00 0.48524314E+03</pdfrwt>
<pdfrwt beam="2">  1       21 0.26155432E-01 0.48524314E+03</pdfrwt>
<totfact> 0.11345547E+03</totfact>
</mgrwt>
</event>
<event>
 6    1  0.8739326E-004  0.4080633E+03  0.7818608E-02  0.1041268E+00
         21   -1    0    0  501  502  0.00000000000E+00  0.00000000000E+00  0.10385801874E+04  0.10385801874E+04  0.00000000000E+00 0. -1.
         21   -1    0    0  502  503 -0.00000000000E+00 -0.00000000000E+00 -0.31165647409E+03  0.31165647409E+03  0.00000000000E+00 0. -1.
    9000007    2    1    2  501    0 -0.43605341759E+02 -0.47528002473E+02  0.83631836915E+03  0.93056115874E+03  0.40293339242E+03 0.  0.
    9000005    1    3    3    0    0  0.12783866735E+02  0.10011064009E+02  0.84886985700E+03  0.84902572562E+03  0.99999687468E+00 0.  0.
          4    1    3    3  501    0 -0.56389208494E+02 -0.57539066482E+02 -0.12551487849E+02  0.81535433116E+02  0.00000000000E+00 0.  1.
   -9000007    1    1    2    0  503  0.43605341759E+02  0.47528002473E+02 -0.10939465588E+03  0.41967550272E+03  0.40000000000E+03 0. -1.
<mgrwt>
<rscale>  2 0.40733730E+03</rscale>
<asrwt>0</asrwt>
<pdfrwt beam="1">  1       21 0.15978157E+00 0.40806330E+03</pdfrwt>
<pdfrwt beam="2">  1       21 0.47947150E-01 0.40806330E+03</pdfrwt>
<totfact> 0.90039696E+02</totfact>
</mgrwt>
</event>
<event>
 6    1  0.8739326E-004  0.5196569E+03  0.7818608E-02  0.1008791E+00
         21   -1    0    0  501  502  0.00000000000E+00  0.00000000000E+00  0.19081094076E+03  0.19081094076E+03  0.00000000000E+00 0.  1.
         21   -1    0    0  502  503 -0.00000000000E+00 -0.00000000000E+00 -0.14539126977E+04  0.14539126977E+04  0.00000000000E+00 0.  1.
    9000007    2    1    2  501    0 -0.32239772922E+03  0.78121549850E+02 -0.49580796944E+03  0.71801816815E+03  0.39960139499E+03 0.  0.
    9000005    1    3    3    0    0 -0.36628480691E+03 -0.62409201838E+02 -0.36991979144E+03  0.52431013755E+03  0.99999687468E+00 0.  0.
          4    1    3    3  501    0  0.43887077691E+02  0.14053075169E+03 -0.12588817800E+03  0.19370803060E+03  0.00000000000E+00 0.  1.
   -9000007    1    1    2    0  503  0.32239772922E+03 -0.78121549850E+02 -0.76729378752E+03  0.92670547032E+03  0.40000000000E+03 0.  1.
<mgrwt>
<rscale>  2 0.51958017E+03</rscale>
<asrwt>0</asrwt>
<pdfrwt beam="1">  1       21 0.29355528E-01 0.51965688E+03</pdfrwt>
<pdfrwt beam="2">  1       21 0.22367888E+00 0.51965688E+03</pdfrwt>
<totfact> 0.85064303E+02</totfact>
</mgrwt>
</event>
<event>
 6    1  0.8739326E-004  0.4291079E+03  0.7818608E-02  0.1034161E+00
         21   -1    0    0  501  502  0.00000000000E+00  0.00000000000E+00  0.22236643578E+03  0.22236643578E+03  0.00000000000E+00 0. -1.
         21   -1    0    0  502  503 -0.00000000000E+00 -0.00000000000E+00 -0.85761122225E+03  0.85761122225E+03  0.00000000000E+00 0. -1.
    9000007    2    1    2  501    0 -0.54653298984E+02  0.14471018436E+03 -0.41871936105E+03  0.59954943197E+03  0.40025691438E+03 0.  0.
    9000005    1    3    3    0    0 -0.87748900962E+01 -0.23567191706E+02 -0.42429522473E+03  0.42504099678E+03  0.99999687468E+00 0.  0.
          4    1    3    3  501    0 -0.45878408888E+02  0.16827737606E+03  0.55758636799E+01  0.17450843519E+03  0.00000000000E+00 0.  1.
   -9000007    1    1    2    0  503  0.54653298984E+02 -0.14471018436E+03 -0.21652542542E+03  0.48042822606E+03  0.40000000000E+03 0. -1.
<mgrwt>
<rscale>  2 0.42904801E+03</rscale>
<asrwt>0</asrwt>
<pdfrwt beam="1">  1       21 0.34210222E-01 0.42910793E+03</pdfrwt>
<pdfrwt beam="2">  1       21 0.13194018E+00 0.42910793E+03</pdfrwt>
<totfact> 0.29909524E+03</totfact>
</mgrwt>
</event>
<event>
 6    1  0.8739326E-004  0.6976490E+03  0.7818608E-02  0.9721386E-01
         21   -1    0    0  501  502  0.00000000000E+00  0.00000000000E+00  0.62848311030E+03  0.62848311030E+03  0.00000000000E+00 0.  1.
         21   -1    0    0  502  503 -0.00000000000E+00 -0.00000000000E+00 -0.16614153238E+04  0.16614153238E+04  0.00000000000E+00 0. -1.
    9000007    2    1    2  501    0  0.24593762217E+03  0.51597366956E+03  0.32031303873E+03  0.76740480378E+03  0.39949411562E+03 0.  0.
    9000005    1    3    3    0    0  0.62965195204E+02 -0.63643680141E+02  0.39479295446E+02  0.97850644309E+02  0.99999687468E+00 0.  0.
          4    1    3    3  501    0  0.18297242696E+03  0.57961734970E+03  0.28083374328E+03  0.66955415947E+03  0.00000000000E+00 0.  1.
   -9000007    1    1    2    0  503 -0.24593762217E+03 -0.51597366956E+03 -0.13532452522E+04  0.15224936303E+04  0.40000000000E+03 0. -1.
<mgrwt>
<rscale>  2 0.69757652E+03</rscale>
<asrwt>0</asrwt>
<pdfrwt beam="1">  1       21 0.96689711E-01 0.69764901E+03</pdfrwt>
<pdfrwt beam="2">  1       21 0.25560235E+00 0.69764901E+03</pdfrwt>
<totfact> 0.37100459E+01</totfact>
</mgrwt>
</event>
<event>
 6    1  0.8739326E-004  0.4683892E+03  0.7818608E-02  0.1022386E+00
         21   -1    0    0  501  502  0.00000000000E+00  0.00000000000E+00  0.13009011793E+03  0.13009011793E+03  0.00000000000E+00 0.  1.
         21   -1    0    0  502  503 -0.00000000000E+00 -0.00000000000E+00 -0.23827746080E+04  0.23827746080E+04  0.00000000000E+00 0.  1.
    9000007    2    1    2  501    0  0.17893855752E+03 -0.16501468608E+03 -0.44699065973E+03  0.64744813360E+03  0.40017443925E+03 0.  0.
    9000005    1    3    3    0    0 -0.11049238995E+03 -0.10346360810E+03 -0.66236455147E+02  0.16523182025E+03  0.99999687468E+00 0.  0.
          4    1    3    3  501    0  0.28943094747E+03 -0.61551077978E+02 -0.38075420458E+03  0.48221631335E+03  0.00000000000E+00 0.  1.
   -9000007    1    1    2    0  503 -0.17893855752E+03  0.16501468608E+03 -0.18056938303E+04  0.18654165923E+04  0.40000000000E+03 0.  1.
<mgrwt>
<rscale>  2 0.46835193E+03</rscale>
<asrwt>0</asrwt>
<pdfrwt beam="1">  1       21 0.20013865E-01 0.46838919E+03</pdfrwt>
<pdfrwt beam="2">  1       21 0.36658069E+00 0.46838919E+03</pdfrwt>
<totfact> 0.24493201E+02</totfact>
</mgrwt>
</event>
<event>
 6    1  0.8739326E-004  0.5260915E+03  0.7818608E-02  0.1007188E+00
         21   -1    0    0  501  502  0.00000000000E+00  0.00000000000E+00  0.66080959627E+03  0.66080959627E+03  0.00000000000E+00 0.  1.
         21   -1    0    0  502  503 -0.00000000000E+00 -0.00000000000E+00 -0.42531245492E+03  0.42531245492E+03  0.00000000000E+00 0.  1.
    9000007    2    1    2  501    0  0.33415608116E+03 -0.71087084881E+02  0.18498647757E+03  0.55766676702E+03  0.40007320072E+03 0.  0.
    9000005    1    3    3    0    0  0.25848492713E+03  0.27311535193E+02 -0.74182810511E+02  0.27030439671E+03  0.99999687468E+00 0.  0.
          4    1    3    3  501    0  0.75671154027E+02 -0.98398620074E+02  0.25916928808E+03  0.28736237031E+03  0.00000000000E+00 0.  1.
   -9000007    1    1    2    0  503 -0.33415608116E+03  0.71087084881E+02  0.50510663781E+02  0.52845528417E+03  0.40000000000E+03 0.  1.
<mgrwt>
<rscale>  2 0.52607755E+03</rscale>
<asrwt>0</asrwt>
<pdfrwt beam="1">  1       21 0.10166301E+00 0.52609146E+03</pdfrwt>
<pdfrwt beam="2">  1       21 0.65432685E-01 0.52609146E+03</pdfrwt>
<totfact> 0.14132540E+03</totfact>
</mgrwt>
</event>
<event>
 6    1  0.8739326E-004  0.4566062E+03  0.7818608E-02  0.1025816E+00
         21   -1    0    0  501  502  0.00000000000E+00  0.00000000000E+00  0.66829461186E+03  0.66829461186E+03  0.00000000000E+00 0.  1.
         21   -1    0    0  502  503 -0.00000000000E+00 -0.00000000000E+00 -0.31667358027E+03  0.31667358027E+03  0.00000000000E+00 0.  1.
    9000007    2    1    2  501    0  0.21298426532E+03  0.55918703880E+02  0.11302289832E+03  0.46978058754E+03  0.39928739796E+03 0.  0.
    9000005    1    3    3    0    0  0.15469051923E+03 -0.87854675530E+02 -0.10166704743E+03  0.20490190160E+03  0.99999687468E+00 0.  0.
          4    1    3    3  501    0  0.58293746094E+02  0.14377337941E+03  0.21468994575E+03  0.26487868594E+03  0.00000000000E+00 0.  1.
   -9000007    1    1    2    0  503 -0.21298426532E+03 -0.55918703880E+02  0.23859813327E+03  0.51518760459E+03  0.40000000000E+03 0.  1.
<mgrwt>
<rscale>  2 0.45645006E+03</rscale>
<asrwt>0</asrwt>
<pdfrwt beam="1">  1       21 0.10281456E+00 0.45660617E+03</pdfrwt>
<pdfrwt beam="2">  1       21 0.48719012E-01 0.45660617E+03</pdfrwt>
<totfact> 0.26738253E+03</totfact>
</mgrwt>
</event>
<event>
 6    1  0.8739326E-004  0.4528800E+03  0.7818608E-02  0.1027369E+00
         21   -1    0    0  501  502  0.00000000000E+00  0.00000000000E+00  0.55744493086E+03  0.55744493086E+03  0.00000000000E+00 0. -1.
         21   -1    0    0  502  503 -0.00000000000E+00 -0.00000000000E+00 -0.39310400605E+03  0.39310400605E+03  0.00000000000E+00 0. -1.
    9000007    2    1    2  501    0  0.20279498382E+03  0.63043870658E+02  0.21427408591E+03  0.49492446910E+03  0.39234743675E+03 0.  0.
    9000005    1    3    3    0    0  0.58787721634E+02  0.17095142366E+03 -0.38309507866E+02  0.18479449086E+03  0.99999687468E+00 0.  0.
          4    1    3    3  501    0  0.14400726219E+03 -0.10790755300E+03  0.25258359377E+03  0.31012997824E+03  0.00000000000E+00 0.  1.
   -9000007    1    1    2    0  503 -0.20279498382E+03 -0.63043870658E+02 -0.49933161097E+02  0.45562446781E+03  0.40000000000E+03 0. -1.
<mgrwt>
<rscale>  2 0.45118440E+03</rscale>
<asrwt>0</asrwt>
<pdfrwt beam="1">  1       21 0.85760758E-01 0.45288004E+03</pdfrwt>
<pdfrwt beam="2">  1       21 0.60477539E-01 0.45288004E+03</pdfrwt>
<totfact> 0.25931912E+03</totfact>
</mgrwt>
</event>
<event>
 6    1  0.8739326E-004  0.5881750E+03  0.7818608E-02  0.9930450E-01
         21   -1    0    0  501  502  0.00000000000E+00  0.00000000000E+00  0.16303000973E+03  0.16303000973E+03  0.00000000000E+00 0. -1.
         21   -1    0    0  502  503 -0.00000000000E+00 -0.00000000000E+00 -0.21595011837E+04  0.21595011837E+04  0.00000000000E+00 0. -1.
    9000007    2    1    2  501    0 -0.42487116821E+03 -0.70610882209E+02 -0.84274365412E+03  0.10276997000E+04  0.40056010857E+03 0.  0.
    9000005    1    3    3    0    0 -0.41104307773E+01  0.38469544554E+02  0.32452150413E+02  0.50506866459E+02  0.99999687468E+00 0.  0.
          4    1    3    3  501    0 -0.42076073744E+03 -0.10908042676E+03 -0.87519580454E+03  0.97719283355E+03  0.00000000000E+00 0.  1.
   -9000007    1    1    2    0  503  0.42487116821E+03  0.70610882209E+02 -0.11537275198E+04  0.12948314934E+04  0.40000000000E+03 0. -1.
<mgrwt>
<rscale>  2 0.58807963E+03</rscale>
<asrwt>0</asrwt>
<pdfrwt beam="1">  1       21 0.25081540E-01 0.58817498E+03</pdfrwt>
<pdfrwt beam="2">  1       21 0.33223095E+00 0.58817498E+03</pdfrwt>
<totfact> 0.24208128E+02</totfact>
</mgrwt>
</event>
<event>
 6    1  0.8739326E-004  0.4472736E+03  0.7818608E-02  0.1028554E+00
         21   -1    0    0  501  502  0.00000000000E+00  0.00000000000E+00  0.96730505485E+03  0.96730505485E+03  0.00000000000E+00 0. -1.
         21   -1    0    0  502  503 -0.00000000000E+00 -0.00000000000E+00 -0.24292426815E+03  0.24292426815E+03  0.00000000000E+00 0. -1.
    9000007    2    1    2  501    0  0.70326838396E+02 -0.18686962291E+03  0.59587231865E+03  0.74506209874E+03  0.40023441965E+03 0.  0.
    9000005    1    3    3    0    0  0.22481507367E+03 -0.29691729646E+02  0.31061953104E+03  0.38458927340E+03  0.99999687468E+00 0.  0.
          4    1    3    3  501    0 -0.15448823527E+03 -0.15717789326E+03  0.28525278762E+03  0.36047282534E+03  0.00000000000E+00 0.  1.
   -9000007    1    1    2    0  503 -0.70326838396E+02  0.18686962291E+03  0.12850846804E+03  0.46516722426E+03  0.40000000000E+03 0. -1.
<mgrwt>
<rscale>  2 0.44722119E+03</rscale>
<asrwt>0</asrwt>
<pdfrwt beam="1">  1       21 0.14881616E+00 0.44727364E+03</pdfrwt>
<pdfrwt beam="2">  1       21 0.37372965E-01 0.44727364E+03</pdfrwt>
<totfact> 0.18029909E+03</totfact>
</mgrwt>
</event>
<event>
 6    1  0.8739326E-004  0.4248911E+03  0.7818608E-02  0.1035498E+00
         21   -1    0    0  501  502  0.00000000000E+00  0.00000000000E+00  0.14014894077E+04  0.14014894077E+04  0.00000000000E+00 0.  1.
         21   -1    0    0  502  503 -0.00000000000E+00 -0.00000000000E+00 -0.53239694300E+03  0.53239694300E+03  0.00000000000E+00 0.  1.
    9000007    2    1    2  501    0 -0.26356945201E+02 -0.14084657673E+03  0.12764524334E+04  0.13452654277E+04  0.39984473170E+03 0.  0.
    9000005    1    3    3    0    0  0.13930507106E+03 -0.19171677152E+03  0.55860485969E+03  0.60679618701E+03  0.99999687468E+00 0.  0.
          4    1    3    3  501    0 -0.16566201626E+03  0.50870194788E+02  0.71784757375E+03  0.73846924072E+03  0.00000000000E+00 0.  1.
   -9000007    1    1    2    0  503  0.26356945201E+02  0.14084657673E+03 -0.40735996879E+03  0.58862092293E+03  0.40000000000E+03 0.  1.
<mgrwt>
<rscale>  2 0.42485455E+03</rscale>
<asrwt>0</asrwt>
<pdfrwt beam="1">  1       21 0.21561375E+00 0.42489110E+03</pdfrwt>
<pdfrwt beam="2">  1       21 0.81907222E-01 0.42489110E+03</pdfrwt>
<totfact> 0.11262801E+02</totfact>
</mgrwt>
</event>
<event>
 6    1  0.8739326E-004  0.4145335E+03  0.7818608E-02  0.1038896E+00
         21   -1    0    0  501  502  0.00000000000E+00  0.00000000000E+00  0.11942741647E+03  0.11942741647E+03  0.00000000000E+00 0. -1.
         21   -1    0    0  502  503 -0.00000000000E+00 -0.00000000000E+00 -0.14623707175E+04  0.14623707175E+04  0.00000000000E+00 0. -1.
    9000007    2    1    2  501    0  0.60700772921E+02 -0.90296430906E+02 -0.77455068214E+03  0.87830101352E+03  0.39955710716E+03 0.  0.
    9000005    1    3    3    0    0  0.19948747378E+03  0.41873715427E+02 -0.52829342707E+03  0.56625401130E+03  0.99999687468E+00 0.  0.
          4    1    3    3  501    0 -0.13878670086E+03 -0.13217014633E+03 -0.24625725507E+03  0.31204700222E+03  0.00000000000E+00 0.  1.
   -9000007    1    1    2    0  503 -0.60700772921E+02  0.90296430906E+02 -0.56839261889E+03  0.70349712045E+03  0.40000000000E+03 0. -1.
<mgrwt>
<rscale>  2 0.41442663E+03</rscale>
<asrwt>0</asrwt>
<pdfrwt beam="1">  1       21 0.18373447E-01 0.41453351E+03</pdfrwt>
<pdfrwt beam="2">  1       21 0.22498013E+00 0.41453351E+03</pdfrwt>
<totfact> 0.21645890E+03</totfact>
</mgrwt>
</event>
<event>
 6    1  0.8739326E-004  0.4386894E+03  0.7818608E-02  0.1031227E+00
         21   -1    0    0  501  502  0.00000000000E+00  0.00000000000E+00  0.25475915346E+03  0.25475915346E+03  0.00000000000E+00 0.  1.
         21   -1    0    0  502  503 -0.00000000000E+00 -0.00000000000E+00 -0.82251480504E+03  0.82251480504E+03  0.00000000000E+00 0.  1.
    9000007    2    1    2  501    0  0.98839359436E+02  0.15059611158E+03 -0.12776630442E+03  0.45595356336E+03  0.39889975632E+03 0.  0.
    9000005    1    3    3    0    0  0.41111021437E+02  0.28660024999E+03 -0.75314678801E+02  0.29917072085E+03  0.99999687468E+00 0.  0.
          4    1    3    3  501    0  0.57728337998E+02 -0.13600413841E+03 -0.52451625619E+02  0.15678284250E+03  0.00000000000E+00 0.  1.
   -9000007    1    1    2    0  503 -0.98839359436E+02 -0.15059611158E+03 -0.43998934717E+03  0.62132039514E+03  0.40000000000E+03 0.  1.
<mgrwt>
<rscale>  2 0.43843846E+03</rscale>
<asrwt>0</asrwt>
<pdfrwt beam="1">  1       21 0.39193715E-01 0.43868942E+03</pdfrwt>
<pdfrwt beam="2">  1       21 0.12654074E+00 0.43868942E+03</pdfrwt>
<totfact> 0.25180125E+03</totfact>
</mgrwt>
</event>
<event>
 6    1  0.8739326E-004  0.4377010E+03  0.7818608E-02  0.1031747E+00
         21   -1    0    0  501  502  0.00000000000E+00  0.00000000000E+00  0.34171742896E+03  0.34171742896E+03  0.00000000000E+00 0.  1.
         21   -1    0    0  502  503 -0.00000000000E+00 -0.00000000000E+00 -0.76372613465E+03  0.76372613465E+03  0.00000000000E+00 0.  1.
    9000007    2    1    2  501    0 -0.51489445214E+02 -0.17009118519E+03  0.78033753662E+02  0.44089511887E+03  0.39587506222E+03 0.  0.
    9000005    1    3    3    0    0 -0.92372251347E+02  0.95129166648E+02  0.10780621273E+03  0.17089578890E+03  0.99999687468E+00 0.  0.
          4    1    3    3  501    0  0.40882806132E+02 -0.26522035184E+03 -0.29772459070E+02  0.26999932997E+03  0.00000000000E+00 0.  1.
   -9000007    1    1    2    0  503  0.51489445214E+02  0.17009118519E+03 -0.50004245935E+03  0.66454844474E+03  0.40000000000E+03 0.  1.
<mgrwt>
<rscale>  2 0.43675635E+03</rscale>
<asrwt>0</asrwt>
<pdfrwt beam="1">  1       21 0.52571913E-01 0.43770101E+03</pdfrwt>
<pdfrwt beam="2">  1       21 0.11749633E+00 0.43770101E+03</pdfrwt>
<totfact> 0.16444451E+03</totfact>
</mgrwt>
</event>
<event>
 6    1  0.8739326E-004  0.4930726E+03  0.7818608E-02  0.1016166E+00
         21   -1    0    0  501  502  0.00000000000E+00  0.00000000000E+00  0.39297677145E+03  0.39297677145E+03  0.00000000000E+00 0. -1.
         21   -1    0    0  502  503 -0.00000000000E+00 -0.00000000000E+00 -0.80471125430E+03  0.80471125430E+03  0.00000000000E+00 0. -1.
    9000007    2    1    2  501    0 -0.10692252676E+03  0.25195792905E+03 -0.50313902384E+03  0.70446392368E+03  0.41012841614E+03 0.  0.
    9000005    1    3    3    0    0 -0.15241786483E+03 -0.54230268326E+02 -0.27818803135E+03  0.32181005003E+03  0.99999687468E+00 0.  0.
          4    1    3    3  501    0  0.45495338074E+02  0.30618819737E+03 -0.22495099249E+03  0.38265387365E+03  0.00000000000E+00 0.  1.
   -9000007    1    1    2    0  503  0.10692252676E+03 -0.25195792905E+03  0.91404540994E+02  0.49322410206E+03  0.40000000000E+03 0.  1.
<mgrwt>
<rscale>  2 0.49096102E+03</rscale>
<asrwt>0</asrwt>
<pdfrwt beam="1">  1       21 0.60457965E-01 0.49307255E+03</pdfrwt>
<pdfrwt beam="2">  1       21 0.12380173E+00 0.49307255E+03</pdfrwt>
<totfact> 0.10398840E+03</totfact>
</mgrwt>
</event>
<event>
 6    1  0.8739326E-004  0.4256112E+03  0.7818608E-02  0.1035345E+00
         21   -1    0    0  501  502  0.00000000000E+00  0.00000000000E+00  0.10924369797E+04  0.10924369797E+04  0.00000000000E+00 0.  1.
         21   -1    0    0  502  503 -0.00000000000E+00 -0.00000000000E+00 -0.46605645576E+03  0.46605645576E+03  0.00000000000E+00 0.  1.
    9000007    2    1    2  501    0 -0.19288099154E+02 -0.14078646529E+03  0.93923588275E+03  0.10311687393E+04  0.40118831732E+03 0.  0.
    9000005    1    3    3    0    0 -0.79017993615E+02  0.21337653875E+02  0.60001434102E+01  0.82073994070E+02  0.99999687468E+00 0.  0.
          4    1    3    3  501    0  0.59729894461E+02 -0.16212411916E+03  0.93323573934E+03  0.94909474527E+03  0.00000000000E+00 0.  1.
   -9000007    1    1    2    0  503  0.19288099154E+02  0.14078646529E+03 -0.31285535882E+03  0.52732469610E+03  0.40000000000E+03 0.  1.
<mgrwt>
<rscale>  2 0.42533098E+03</rscale>
<asrwt>0</asrwt>
<pdfrwt beam="1">  1       21 0.16806723E+00 0.42561124E+03</pdfrwt>
<pdfrwt beam="2">  1       21 0.71700994E-01 0.42561124E+03</pdfrwt>
<totfact> 0.32209652E+02</totfact>
</mgrwt>
</event>
<event>
 6    1  0.8739326E-004  0.5822579E+03  0.7818608E-02  0.9943059E-01
         21   -1    0    0  501  502  0.00000000000E+00  0.00000000000E+00  0.35367810968E+03  0.35367810968E+03  0.00000000000E+00 0. -1.
         21   -1    0    0  502  503 -0.00000000000E+00 -0.00000000000E+00 -0.10360862084E+04  0.10360862084E+04  0.00000000000E+00 0.  1.
    9000007    2    1    2  501    0 -0.79632484627E+02  0.41555138397E+03 -0.53174316527E+03  0.78832919484E+03  0.39960960987E+03 0.  0.
    9000005    1    3    3    0    0 -0.21248407735E+03  0.13005422152E+03 -0.14019024022E+03  0.28586340638E+03  0.99999687468E+00 0.  0.
          4    1    3    3  501    0  0.13285159272E+03  0.28549716245E+03 -0.39155292505E+03  0.50246578846E+03  0.00000000000E+00 0.  1.
   -9000007    1    1    2    0  503  0.79632484627E+02 -0.41555138397E+03 -0.15066493349E+03  0.60143512328E+03  0.40000000000E+03 0. -1.
<mgrwt>
<rscale>  2 0.58219088E+03</rscale>
<asrwt>0</asrwt>
<pdfrwt beam="1">  1       21 0.54412018E-01 0.58225792E+03</pdfrwt>
<pdfrwt beam="2">  1       21 0.15939787E+00 0.58225792E+03</pdfrwt>
<totfact> 0.64425694E+02</totfact>
</mgrwt>
</event>
<event>
 6    1  0.8739326E-004  0.4857621E+03  0.7818608E-02  0.1017586E+00
         21   -1    0    0  501  502  0.00000000000E+00  0.00000000000E+00  0.23366494027E+03  0.23366494027E+03  0.00000000000E+00 0.  1.
         21   -1    0    0  502  503 -0.00000000000E+00 -0.00000000000E+00 -0.10364576814E+04  0.10364576814E+04  0.00000000000E+00 0. -1.
    9000007    2    1    2  501    0  0.12781051142E+03 -0.24419102510E+03 -0.50433000122E+03  0.69999562645E+03  0.39960022941E+03 0.  0.
    9000005    1    3    3    0    0  0.24172487676E+03 -0.27359267556E+03 -0.41171735527E+03  0.55026906945E+03  0.99999687468E+00 0.  0.
          4    1    3    3  501    0 -0.11391436535E+03  0.29401650456E+02 -0.92612645947E+02  0.14972655700E+03  0.00000000000E+00 0.  1.
   -9000007    1    1    2    0  503 -0.12781051142E+03  0.24419102510E+03 -0.29846273990E+03  0.57012699522E+03  0.40000000000E+03 0.  1.
<mgrwt>
<rscale>  2 0.48567976E+03</rscale>
<asrwt>0</asrwt>
<pdfrwt beam="1">  1       21 0.35948452E-01 0.48576206E+03</pdfrwt>
<pdfrwt beam="2">  1       21 0.15945503E+00 0.48576206E+03</pdfrwt>
<totfact> 0.15900824E+03</totfact>
</mgrwt>
</event>
<event>
 6    1  0.8739326E-004  0.4495801E+03  0.7818608E-02  0.1027897E+00
         21   -1    0    0  501  502  0.00000000000E+00  0.00000000000E+00  0.10340728286E+04  0.10340728286E+04  0.00000000000E+00 0. -1.
         21   -1    0    0  502  503 -0.00000000000E+00 -0.00000000000E+00 -0.23709269688E+03  0.23709269688E+03  0.00000000000E+00 0. -1.
    9000007    2    1    2  501    0 -0.18745596164E+03 -0.83561624272E+02  0.66550255048E+03  0.80275476878E+03  0.39924840826E+03 0.  0.
    9000005    1    3    3    0    0  0.53822931222E+02  0.10071800063E+03  0.33519355477E+03  0.35411402504E+03  0.99999687468E+00 0.  0.
          4    1    3    3  501    0 -0.24127889287E+03 -0.18427962490E+03  0.33030899571E+03  0.44864074374E+03  0.00000000000E+00 0.  1.
   -9000007    1    1    2    0  503  0.18745596164E+03  0.83561624272E+02  0.13147758120E+03  0.46841075667E+03  0.40000000000E+03 0.  1.
<mgrwt>
<rscale>  2 0.44941288E+03</rscale>
<asrwt>0</asrwt>
<pdfrwt beam="1">  1       21 0.15908813E+00 0.44958012E+03</pdfrwt>
<pdfrwt beam="2">  1       21 0.36475800E-01 0.44958012E+03</pdfrwt>
<totfact> 0.15761816E+03</totfact>
</mgrwt>
</event>
<event>
 6    1  0.8739326E-004  0.4101725E+03  0.7818608E-02  0.1040314E+00
         21   -1    0    0  501  502  0.00000000000E+00  0.00000000000E+00  0.88783099398E+03  0.88783099398E+03  0.00000000000E+00 0.  1.
         21   -1    0    0  502  503 -0.00000000000E+00 -0.00000000000E+00 -0.20277249145E+03  0.20277249145E+03  0.00000000000E+00 0.  1.
    9000007    2    1    2  501    0 -0.77179510835E+02 -0.47799840985E+02  0.48208711036E+03  0.63295854913E+03  0.39998380123E+03 0.  0.
    9000005    1    3    3    0    0 -0.10994892173E+03  0.79290572815E+02  0.23387001702E+01  0.13558108216E+03  0.99999687468E+00 0.  0.
          4    1    3    3  501    0  0.32769410895E+02 -0.12709041380E+03  0.47974841019E+03  0.49737746697E+03  0.00000000000E+00 0.  1.
   -9000007    1    1    2    0  503  0.77179510835E+02  0.47799840985E+02  0.20297139217E+03  0.45764493631E+03  0.40000000000E+03 0.  1.
<mgrwt>
<rscale>  2 0.41016858E+03</rscale>
<asrwt>0</asrwt>
<pdfrwt beam="1">  1       21 0.13658938E+00 0.41017253E+03</pdfrwt>
<pdfrwt beam="2">  1       21 0.31195768E-01 0.41017253E+03</pdfrwt>
<totfact> 0.33119431E+03</totfact>
</mgrwt>
</event>
<event>
 6    1  0.8739326E-004  0.4251266E+03  0.7818608E-02  0.1035493E+00
         21   -1    0    0  501  502  0.00000000000E+00  0.00000000000E+00  0.68090065416E+03  0.68090065416E+03  0.00000000000E+00 0.  1.
         21   -1    0    0  502  503 -0.00000000000E+00 -0.00000000000E+00 -0.27483125584E+03  0.27483125584E+03  0.00000000000E+00 0.  1.
    9000007    2    1    2  501    0  0.14093756020E+03  0.75939903665E+00  0.29459584357E+03  0.51722270146E+03  0.40108432941E+03 0.  0.
    9000005    1    3    3    0    0 -0.98229518959E+02  0.10634288951E+03  0.18203567101E+03  0.23258511143E+03  0.99999687468E+00 0.  0.
          4    1    3    3  501    0  0.23916707915E+03 -0.10558349047E+03  0.11256017256E+03  0.28463759003E+03  0.00000000000E+00 0.  1.
   -9000007    1    1    2    0  503 -0.14093756020E+03 -0.75939903665E+00  0.11147355475E+03  0.43850920853E+03  0.40000000000E+03 0.  1.
<mgrwt>
<rscale>  2 0.42487064E+03</rscale>
<asrwt>0</asrwt>
<pdfrwt beam="1">  1       21 0.10475395E+00 0.42512658E+03</pdfrwt>
<pdfrwt beam="2">  1       21 0.42281732E-01 0.42512658E+03</pdfrwt>
<totfact> 0.34773089E+03</totfact>
</mgrwt>
</event>
<event>
 6    1  0.8739326E-004  0.6334094E+03  0.7818608E-02  0.9839525E-01
         21   -1    0    0  501  502  0.00000000000E+00  0.00000000000E+00  0.14770201051E+04  0.14770201051E+04  0.00000000000E+00 0. -1.
         21   -1    0    0  502  503 -0.00000000000E+00 -0.00000000000E+00 -0.27132617561E+03  0.27132617561E+03  0.00000000000E+00 0.  1.
    9000007    2    1    2  501    0 -0.38122831461E+03  0.30963276794E+03  0.64519274468E+03  0.90255135460E+03  0.39638086616E+03 0.  0.
    9000005    1    3    3    0    0 -0.24677976549E+03  0.35424872431E+03  0.28983120081E+03  0.51999570795E+03  0.99999687468E+00 0.  0.
          4    1    3    3  501    0 -0.13444854912E+03 -0.44615956366E+02  0.35536154387E+03  0.38255564665E+03  0.00000000000E+00 0.  1.
   -9000007    1    1    2    0  503  0.38122831461E+03 -0.30963276794E+03  0.56050118479E+03  0.84579492609E+03  0.40000000000E+03 0.  1.
<mgrwt>
<rscale>  2 0.63283882E+03</rscale>
<asrwt>0</asrwt>
<pdfrwt beam="1">  1       21 0.22723386E+00 0.63340941E+03</pdfrwt>
<pdfrwt beam="2">  1       21 0.41742490E-01 0.63340941E+03</pdfrwt>
<totfact> 0.37738825E+02</totfact>
</mgrwt>
</event>
<event>
 6    1  0.8739326E-004  0.4319156E+03  0.7818608E-02  0.1033260E+00
         21   -1    0    0  501  502  0.00000000000E+00  0.00000000000E+00  0.10978399304E+04  0.10978399304E+04  0.00000000000E+00 0.  1.
         21   -1    0    0  502  503 -0.00000000000E+00 -0.00000000000E+00 -0.21212122350E+03  0.21212122350E+03  0.00000000000E+00 0.  1.
    9000007    2    1    2  501    0  0.14237366773E+03  0.78984667760E+02  0.15068686212E+03  0.45744684209E+03  0.40005280142E+03 0.  0.
    9000005    1    3    3    0    0  0.25685777927E+03  0.98555150134E+01  0.18816352709E+03  0.31855857055E+03  0.99999687468E+00 0.  0.
          4    1    3    3  501    0 -0.11448411154E+03  0.69129152746E+02 -0.37476664977E+02  0.13888827154E+03  0.00000000000E+00 0.  1.
   -9000007    1    1    2    0  503 -0.14237366773E+03 -0.78984667760E+02  0.73503184481E+03  0.85251431184E+03  0.40000000000E+03 0.  1.
<mgrwt>
<rscale>  2 0.43190337E+03</rscale>
<asrwt>0</asrwt>
<pdfrwt beam="1">  1       21 0.16889845E+00 0.43191560E+03</pdfrwt>
<pdfrwt beam="2">  1       21 0.32634035E-01 0.43191560E+03</pdfrwt>
<totfact> 0.16806218E+03</totfact>
</mgrwt>
</event>
<event>
 6    1  0.8739326E-004  0.4682618E+03  0.7818608E-02  0.1022462E+00
         21   -1    0    0  501  502  0.00000000000E+00  0.00000000000E+00  0.27133015607E+03  0.27133015607E+03  0.00000000000E+00 0. -1.
         21   -1    0    0  502  503 -0.00000000000E+00 -0.00000000000E+00 -0.85270721887E+03  0.85270721887E+03  0.00000000000E+00 0. -1.
    9000007    2    1    2  501    0 -0.14904841030E+02 -0.24162639169E+03 -0.42115450695E+03  0.62979377625E+03  0.40082865969E+03 0.  0.
    9000005    1    3    3    0    0  0.15108193958E+03 -0.16527960800E+02 -0.40228411030E+02  0.15722038991E+03  0.99999687468E+00 0.  0.
          4    1    3    3  501    0 -0.16598678061E+03 -0.22509843089E+03 -0.38092609592E+03  0.47257338634E+03  0.00000000000E+00 0.  1.
   -9000007    1    1    2    0  503  0.14904841030E+02  0.24162639169E+03 -0.16022255584E+03  0.49424359869E+03  0.40000000000E+03 0. -1.
<mgrwt>
<rscale>  2 0.46808438E+03</rscale>
<asrwt>0</asrwt>
<pdfrwt beam="1">  1       21 0.41743101E-01 0.46826177E+03</pdfrwt>
<pdfrwt beam="2">  1       21 0.13118573E+00 0.46826177E+03</pdfrwt>
<totfact> 0.19913765E+03</totfact>
</mgrwt>
</event>
<event>
 6    1  0.8739326E-004  0.4210563E+03  0.7818608E-02  0.1037155E+00
         21   -1    0    0  501  502  0.00000000000E+00  0.00000000000E+00  0.39012680228E+03  0.39012680228E+03  0.00000000000E+00 0. -1.
         21   -1    0    0  502  503 -0.00000000000E+00 -0.00000000000E+00 -0.47028360503E+03  0.47028360503E+03  0.00000000000E+00 0. -1.
    9000007    2    1    2  501    0 -0.60774637906E+02 -0.95750801217E+02  0.51741637797E+02  0.42422355381E+03  0.40549556592E+03 0.  0.
    9000005    1    3    3    0    0 -0.20238057112E+03  0.43133404023E+02 -0.31138175060E+02  0.20925814691E+03  0.99999687468E+00 0.  0.
          4    1    3    3  501    0  0.14160593321E+03 -0.13888420524E+03  0.82879812857E+02  0.21496540690E+03  0.00000000000E+00 0.  1.
   -9000007    1    1    2    0  503  0.60774637906E+02  0.95750801217E+02 -0.13189844054E+03  0.43618685350E+03  0.40000000000E+03 0. -1.
<mgrwt>
<rscale>  2 0.41972759E+03</rscale>
<asrwt>0</asrwt>
<pdfrwt beam="1">  1       21 0.60019508E-01 0.42105632E+03</pdfrwt>
<pdfrwt beam="2">  1       21 0.72351324E-01 0.42105632E+03</pdfrwt>
<totfact> 0.39450507E+03</totfact>
</mgrwt>
</event>
<event>
 6    1  0.8739326E-004  0.6483077E+03  0.7818608E-02  0.9810004E-01
         21   -1    0    0  501  502  0.00000000000E+00  0.00000000000E+00  0.28950564685E+03  0.28950564685E+03  0.00000000000E+00 0.  1.
         21   -1    0    0  502  503 -0.00000000000E+00 -0.00000000000E+00 -0.18309846053E+04  0.18309846053E+04  0.00000000000E+00 0. -1.
    9000007    2    1    2  501    0  0.47834011771E+03 -0.17746439596E+03 -0.28806772168E+03  0.70934085946E+03  0.39984817442E+03 0.  0.
    9000005    1    3    3    0    0  0.98578031448E+02 -0.70045282799E+02 -0.29050485008E+03  0.31467131715E+03  0.99999687468E+00 0.  0.
          4    1    3    3  501    0  0.37976208626E+03 -0.10741911316E+03  0.24371283968E+01  0.39466954231E+03  0.00000000000E+00 0.  1.
   -9000007    1    1    2    0  503 -0.47834011771E+03  0.17746439596E+03 -0.12534112367E+04  0.14111493927E+04  0.40000000000E+03 0. -1.
<mgrwt>
<rscale>  2 0.64828429E+03</rscale>
<asrwt>0</asrwt>
<pdfrwt beam="1">  1       21 0.44539329E-01 0.64830770E+03</pdfrwt>
<pdfrwt beam="2">  1       21 0.28168995E+00 0.64830770E+03</pdfrwt>
<totfact> 0.14990754E+02</totfact>
</mgrwt>
</event>
<event>
 6    1  0.8739326E-004  0.4246422E+03  0.7818608E-02  0.1035582E+00
         21   -1    0    0  501  502  0.00000000000E+00  0.00000000000E+00  0.19012774282E+03  0.19012774282E+03  0.00000000000E+00 0.  1.
         21   -1    0    0  502  503 -0.00000000000E+00 -0.00000000000E+00 -0.99349950542E+03  0.99349950542E+03  0.00000000000E+00 0.  1.
    9000007    2    1    2  501    0 -0.33174035587E+02  0.13863781982E+03 -0.27490776098E+03  0.50569276562E+03  0.39978736152E+03 0.  0.
    9000005    1    3    3    0    0 -0.27853750423E+02  0.37203775956E+02 -0.36619022004E+03  0.36912901485E+03  0.99999687468E+00 0.  0.
          4    1    3    3  501    0 -0.53202851640E+01  0.10143404387E+03  0.91282459067E+02  0.13656375077E+03  0.00000000000E+00 0.  1.
   -9000007    1    1    2    0  503  0.33174035587E+02 -0.13863781982E+03 -0.52846400162E+03  0.67793448262E+03  0.40000000000E+03 0.  1.
<mgrwt>
<rscale>  2 0.42459208E+03</rscale>
<asrwt>0</asrwt>
<pdfrwt beam="1">  1       21 0.29250422E-01 0.42464216E+03</pdfrwt>
<pdfrwt beam="2">  1       21 0.15284608E+00 0.42464216E+03</pdfrwt>
<totfact> 0.27683523E+03</totfact>
</mgrwt>
</event>
<event>
 6    1  0.8739326E-004  0.4454336E+03  0.7818608E-02  0.1029119E+00
         21   -1    0    0  501  502  0.00000000000E+00  0.00000000000E+00  0.83402548424E+03  0.83402548424E+03  0.00000000000E+00 0.  1.
         21   -1    0    0  502  503 -0.00000000000E+00 -0.00000000000E+00 -0.35380293003E+03  0.35380293003E+03  0.00000000000E+00 0.  1.
    9000007    2    1    2  501    0  0.86351875260E+02  0.17504530873E+03  0.58038748245E+03  0.73161517540E+03  0.40039184386E+03 0.  0.
    9000005    1    3    3    0    0  0.16587511890E+03 -0.75139325813E+02  0.21618957755E+03  0.28266483119E+03  0.99999687468E+00 0.  0.
          4    1    3    3  501    0 -0.79523243641E+02  0.25018463454E+03  0.36419790490E+03  0.44895034422E+03  0.00000000000E+00 0.  1.
   -9000007    1    1    2    0  503 -0.86351875260E+02 -0.17504530873E+03 -0.10016492825E+03  0.45621323887E+03  0.40000000000E+03 0.  1.
<mgrwt>
<rscale>  2 0.44534558E+03</rscale>
<asrwt>0</asrwt>
<pdfrwt beam="1">  1       21 0.12831161E+00 0.44543365E+03</pdfrwt>
<pdfrwt beam="2">  1       21 0.54431220E-01 0.44543365E+03</pdfrwt>
<totfact> 0.12145325E+03</totfact>
</mgrwt>
</event>
<event>
 6    1  0.8739326E-004  0.6822026E+03  0.7818608E-02  0.9748843E-01
         21   -1    0    0  501  502  0.00000000000E+00  0.00000000000E+00  0.29935921656E+04  0.29935921656E+04  0.00000000000E+00 0. -1.
         21   -1    0    0  502  503 -0.00000000000E+00 -0.00000000000E+00 -0.15520827479E+03  0.15520827479E+03  0.00000000000E+00 0.  1.
    9000007    2    1    2  501    0  0.53265355616E+03  0.13992870119E+03  0.13820937014E+04  0.15412927521E+04  0.40261705846E+03 0.  0.
    9000005    1    3    3    0    0 -0.58513896352E+02 -0.16762245434E+02  0.21778151383E+03  0.22612969000E+03  0.99999687468E+00 0.  0.
          4    1    3    3  501    0  0.59116745251E+03  0.15669094662E+03  0.11643121876E+04  0.13151630621E+04  0.00000000000E+00 0.  1.
   -9000007    1    1    2    0  503 -0.53265355616E+03 -0.13992870119E+03  0.14562901894E+04  0.16075076883E+04  0.40000000000E+03 0.  1.
<mgrwt>
<rscale>  2 0.68181694E+03</rscale>
<asrwt>0</asrwt>
<pdfrwt beam="1">  1       21 0.46055260E+00 0.68220257E+03</pdfrwt>
<pdfrwt beam="2">  1       21 0.23878198E-01 0.68220257E+03</pdfrwt>
<totfact> 0.37599408E+01</totfact>
</mgrwt>
</event>
<event>
 6    1  0.8739326E-004  0.4237262E+03  0.7818608E-02  0.1035862E+00
         21   -1    0    0  501  502  0.00000000000E+00  0.00000000000E+00  0.23206890747E+03  0.23206890747E+03  0.00000000000E+00 0. -1.
         21   -1    0    0  502  503 -0.00000000000E+00 -0.00000000000E+00 -0.96016527787E+03  0.96016527787E+03  0.00000000000E+00 0. -1.
    9000007    2    1    2  501    0  0.52525792797E+02  0.12948723938E+03 -0.10130606919E+03  0.43566826899E+03  0.40002252047E+03 0.  0.
    9000005    1    3    3    0    0  0.18898200419E+03  0.35830577289E+02  0.63048782797E+02  0.20242079237E+03  0.99999687468E+00 0.  0.
          4    1    3    3  501    0 -0.13645621139E+03  0.93656662087E+02 -0.16435485198E+03  0.23324747663E+03  0.00000000000E+00 0.  1.
   -9000007    1    1    2    0  503 -0.52525792797E+02 -0.12948723938E+03 -0.62679030122E+03  0.75656591634E+03  0.40000000000E+03 0. -1.
<mgrwt>
<rscale>  2 0.42372092E+03</rscale>
<asrwt>0</asrwt>
<pdfrwt beam="1">  1       21 0.35702910E-01 0.42372623E+03</pdfrwt>
<pdfrwt beam="2">  1       21 0.14771773E+00 0.42372623E+03</pdfrwt>
<totfact> 0.20382050E+03</totfact>
</mgrwt>
</event>
<event>
 6    1  0.8739326E-004  0.4509612E+03  0.7818608E-02  0.1028188E+00
         21   -1    0    0  501  502  0.00000000000E+00  0.00000000000E+00  0.61150759009E+03  0.61150759009E+03  0.00000000000E+00 0. -1.
         21   -1    0    0  502  503 -0.00000000000E+00 -0.00000000000E+00 -0.33192774941E+03  0.33192774941E+03  0.00000000000E+00 0.  1.
    9000007    2    1    2  501    0 -0.21226011707E+01 -0.20823426922E+03  0.20525261851E+03  0.48638987976E+03  0.38869070147E+03 0.  0.
    9000005    1    3    3    0    0  0.16203467727E+03 -0.29577766914E+02  0.17755432370E+03  0.24219128554E+03  0.99999687468E+00 0.  0.
          4    1    3    3  501    0 -0.16415727844E+03 -0.17865650231E+03  0.27698294812E+02  0.24419859422E+03  0.00000000000E+00 0.  1.
   -9000007    1    1    2    0  503  0.21226011707E+01  0.20823426922E+03  0.74327222177E+02  0.45704545974E+03  0.40000000000E+03 0.  1.
<mgrwt>
<rscale>  2 0.44844006E+03</rscale>
<asrwt>0</asrwt>
<pdfrwt beam="1">  1       21 0.94078091E-01 0.45096121E+03</pdfrwt>
<pdfrwt beam="2">  1       21 0.51065808E-01 0.45096121E+03</pdfrwt>
<totfact> 0.30052692E+03</totfact>
</mgrwt>
</event>
<event>
 6    1  0.8739326E-004  0.5727778E+03  0.7818608E-02  0.9963623E-01
         21   -1    0    0  501  502  0.00000000000E+00  0.00000000000E+00  0.20566353215E+03  0.20566353215E+03  0.00000000000E+00 0. -1.
         21   -1    0    0  502  503 -0.00000000000E+00 -0.00000000000E+00 -0.17910063448E+04  0.17910063448E+04  0.00000000000E+00 0.  1.
    9000007    2    1    2  501    0 -0.23818780039E+03 -0.33367796792E+03 -0.46218561917E+03  0.73589372877E+03  0.39981197949E+03 0.  0.
    9000005    1    3    3    0    0 -0.23577029273E+03 -0.49977346118E+02 -0.36224419947E+03  0.43509450249E+03  0.99999687468E+00 0.  0.
          4    1    3    3  501    0 -0.24175076580E+01 -0.28370062181E+03 -0.99941419699E+02  0.30079922628E+03  0.00000000000E+00 0.  1.
   -9000007    1    1    2    0  503  0.23818780039E+03  0.33367796792E+03 -0.11231571935E+04  0.12607761482E+04  0.40000000000E+03 0.  1.
<mgrwt>
<rscale>  2 0.57274498E+03</rscale>
<asrwt>0</asrwt>
<pdfrwt beam="1">  1       21 0.31640543E-01 0.57277781E+03</pdfrwt>
<pdfrwt beam="2">  1       21 0.27553944E+00 0.57277781E+03</pdfrwt>
<totfact> 0.34082373E+02</totfact>
</mgrwt>
</event>
<event>
 6    1  0.8739326E-004  0.4973520E+03  0.7818608E-02  0.1014481E+00
         21   -1    0    0  501  502  0.00000000000E+00  0.00000000000E+00  0.21533546647E+03  0.21533546647E+03  0.00000000000E+00 0. -1.
         21   -1    0    0  502  503 -0.00000000000E+00 -0.00000000000E+00 -0.29562184340E+04  0.29562184340E+04  0.00000000000E+00 0. -1.
    9000007    2    1    2  501    0  0.25817321317E+03  0.14344404415E+03 -0.13043163037E+03  0.51417064142E+03  0.40016176291E+03 0.  0.
    9000005    1    3    3    0    0  0.18464418403E+03  0.28312470208E+03 -0.10727460569E+03  0.35462926084E+03  0.99999687468E+00 0.  0.
          4    1    3    3  501    0  0.73529029137E+02 -0.13968065793E+03 -0.23157024684E+02  0.15954138058E+03  0.00000000000E+00 0.  1.
   -9000007    1    1    2    0  503 -0.25817321317E+03 -0.14344404415E+03 -0.26104513372E+04  0.26573832591E+04  0.40000000000E+03 0. -1.
<mgrwt>
<rscale>  2 0.49731949E+03</rscale>
<asrwt>0</asrwt>
<pdfrwt beam="1">  1       21 0.33128535E-01 0.49735203E+03</pdfrwt>
<pdfrwt beam="2">  1       21 0.45480281E+00 0.49735203E+03</pdfrwt>
<totfact> 0.23885176E+01</totfact>
</mgrwt>
</event>
<event>
 6    1  0.8739326E-004  0.4437985E+03  0.7818608E-02  0.1029734E+00
         21   -1    0    0  501  502  0.00000000000E+00  0.00000000000E+00  0.41937515645E+03  0.41937515645E+03  0.00000000000E+00 0.  1.
         21   -1    0    0  502  503 -0.00000000000E+00 -0.00000000000E+00 -0.69420755173E+03  0.69420755173E+03  0.00000000000E+00 0.  1.
    9000007    2    1    2  501    0 -0.18436062501E+03  0.54481651972E+02  0.18089448701E+03  0.47746630241E+03  0.39786199121E+03 0.  0.
    9000005    1    3    3    0    0 -0.15664791583E+03  0.22205331339E+03  0.11950457288E+03  0.29686459279E+03  0.99999687468E+00 0.  0.
          4    1    3    3  501    0 -0.27712709183E+02 -0.16757166142E+03  0.61389914128E+02  0.18060170962E+03  0.00000000000E+00 0.  1.
   -9000007    1    1    2    0  503  0.18436062501E+03 -0.54481651972E+02 -0.45572688229E+03  0.63611640578E+03  0.40000000000E+03 0.  1.
<mgrwt>
<rscale>  2 0.44331618E+03</rscale>
<asrwt>0</asrwt>
<pdfrwt beam="1">  1       21 0.64519255E-01 0.44379848E+03</pdfrwt>
<pdfrwt beam="2">  1       21 0.10680116E+00 0.44379848E+03</pdfrwt>
<totfact> 0.13311690E+03</totfact>
</mgrwt>
</event>
<event>
 6    1  0.8739326E-004  0.5130715E+03  0.7818608E-02  0.1010425E+00
         21   -1    0    0  501  502  0.00000000000E+00  0.00000000000E+00  0.31840192413E+03  0.31840192413E+03  0.00000000000E+00 0.  1.
         21   -1    0    0  502  503 -0.00000000000E+00 -0.00000000000E+00 -0.10459606596E+04  0.10459606596E+04  0.00000000000E+00 0.  1.
    9000007    2    1    2  501    0  0.28746134172E+03  0.14338218385E+03 -0.51444440521E+02  0.51564413015E+03  0.40006232623E+03 0.  0.
    9000005    1    3    3    0    0  0.17731868560E+00 -0.12195639038E+03 -0.95019304886E+01  0.12233020589E+03  0.99999687468E+00 0.  0.
          4    1    3    3  501    0  0.28728402303E+03  0.26533857423E+03 -0.41942510032E+02  0.39331392425E+03  0.00000000000E+00 0.  1.
   -9000007    1    1    2    0  503 -0.28746134172E+03 -0.14338218385E+03 -0.67611429496E+03  0.84871845359E+03  0.40000000000E+03 0.  1.
<mgrwt>
<rscale>  2 0.51305933E+03</rscale>
<asrwt>0</asrwt>
<pdfrwt beam="1">  1       21 0.48984912E-01 0.51307148E+03</pdfrwt>
<pdfrwt beam="2">  1       21 0.16091702E+00 0.51307148E+03</pdfrwt>
<totfact> 0.80613542E+02</totfact>
</mgrwt>
</event>
<event>
 6    1  0.8739326E-004  0.5875362E+03  0.7818608E-02  0.9931881E-01
         21   -1    0    0  501  502  0.00000000000E+00  0.00000000000E+00  0.10061721624E+04  0.10061721624E+04  0.00000000000E+00 0. -1.
         21   -1    0    0  502  503 -0.00000000000E+00 -0.00000000000E+00 -0.11714528644E+04  0.11714528644E+04  0.00000000000E+00 0. -1.
    9000007    2    1    2  501    0  0.12344461771E+03  0.41226225320E+03  0.83313066486E+03  0.10191674331E+04  0.39924530417E+03 0.  0.
    9000005    1    3    3    0    0  0.22804842382E+03  0.17490656526E+03  0.62029041739E+03  0.68363703240E+03  0.99999687468E+00 0.  0.
          4    1    3    3  501    0 -0.10460380610E+03  0.23735568794E+03  0.21284024747E+03  0.33553040070E+03  0.00000000000E+00 0.  1.
   -9000007    1    1    2    0  503 -0.12344461771E+03 -0.41226225320E+03 -0.99841136678E+03  0.11584575937E+04  0.40000000000E+03 0. -1.
<mgrwt>
<rscale>  2 0.58740773E+03</rscale>
<asrwt>0</asrwt>
<pdfrwt beam="1">  1       21 0.15479572E+00 0.58753616E+03</pdfrwt>
<pdfrwt beam="2">  1       21 0.18022352E+00 0.58753616E+03</pdfrwt>
<totfact> 0.36020190E+01</totfact>
</mgrwt>
</event>
<event>
 6    1  0.8739326E-004  0.4017553E+03  0.7818608E-02  0.1043234E+00
         21   -1    0    0  501  502  0.00000000000E+00  0.00000000000E+00  0.23540565439E+03  0.23540565439E+03  0.00000000000E+00 0.  1.
         21   -1    0    0  502  503 -0.00000000000E+00 -0.00000000000E+00 -0.18033782155E+04  0.18033782155E+04  0.00000000000E+00 0.  1.
    9000007    2    1    2  501    0 -0.28868582610E+02  0.36060810317E+01  0.18718787497E+02  0.40219111827E+03  0.40070051626E+03 0.  0.
    9000005    1    3    3    0    0 -0.40100578725E+02  0.20042722258E+03  0.16059846122E+02  0.20503181855E+03  0.99999687468E+00 0.  0.
          4    1    3    3  501    0  0.11231996115E+02 -0.19682114155E+03  0.26589413746E+01  0.19715929972E+03  0.00000000000E+00 0.  1.
   -9000007    1    1    2    0  503  0.28868582610E+02 -0.36060810317E+01 -0.15866913486E+04  0.16365927516E+04  0.40000000000E+03 0.  1.
<mgrwt>
<rscale>  2 0.40158049E+03</rscale>
<asrwt>0</asrwt>
<pdfrwt beam="1">  1       21 0.36216255E-01 0.40175528E+03</pdfrwt>
<pdfrwt beam="2">  1       21 0.27744280E+00 0.40175528E+03</pdfrwt>
<totfact> 0.27675908E+02</totfact>
</mgrwt>
</event>
<event>
 6    1  0.8739326E-004  0.4214919E+03  0.7818608E-02  0.1036616E+00
         21   -1    0    0  501  502  0.00000000000E+00  0.00000000000E+00  0.81584634926E+03  0.81584634926E+03  0.00000000000E+00 0.  1.
         21   -1    0    0  502  503 -0.00000000000E+00 -0.00000000000E+00 -0.30974208914E+03  0.30974208914E+03  0.00000000000E+00 0.  1.
    9000007    2    1    2  501    0 -0.11561341882E+03 -0.62744419075E+02  0.56019767420E+03  0.70105407914E+03  0.40043983689E+03 0.  0.
    9000005    1    3    3    0    0  0.70822421295E+02 -0.18366950611E+03  0.30077593037E+03  0.35946830613E+03  0.99999687468E+00 0.  0.
          4    1    3    3  501    0 -0.18643584011E+03  0.12092508703E+03  0.25942174383E+03  0.34158577301E+03  0.00000000000E+00 0.  1.
   -9000007    1    1    2    0  503  0.11561341882E+03  0.62744419075E+02 -0.54093414078E+02  0.42453435925E+03  0.40000000000E+03 0.  1.
<mgrwt>
<rscale>  2 0.42138736E+03</rscale>
<asrwt>0</asrwt>
<pdfrwt beam="1">  1       21 0.12551482E+00 0.42149186E+03</pdfrwt>
<pdfrwt beam="2">  1       21 0.47652629E-01 0.42149186E+03</pdfrwt>
<totfact> 0.17239542E+03</totfact>
</mgrwt>
</event>
<event>
 6    1  0.8739326E-004  0.4230222E+03  0.7818608E-02  0.1036178E+00
         21   -1    0    0  501  502  0.00000000000E+00  0.00000000000E+00  0.63744213170E+03  0.63744213170E+03  0.00000000000E+00 0. -1.
         21   -1    0    0  502  503 -0.00000000000E+00 -0.00000000000E+00 -0.32070643148E+03  0.32070643148E+03  0.00000000000E+00 0. -1.
    9000007    2    1    2  501    0  0.13406062610E+03  0.54886723461E+01  0.32925971590E+03  0.53605943994E+03  0.40117999157E+03 0.  0.
    9000005    1    3    3    0    0  0.25256385252E+02  0.17652320349E+03  0.27230858010E+03  0.32550159625E+03  0.99999687468E+00 0.  0.
          4    1    3    3  501    0  0.10880424085E+03 -0.17103453114E+03  0.56951135797E+02  0.21055784369E+03  0.00000000000E+00 0.  1.
   -9000007    1    1    2    0  503 -0.13406062610E+03 -0.54886723461E+01 -0.12524015685E+02  0.42208912325E+03  0.40000000000E+03 0. -1.
<mgrwt>
<rscale>  2 0.42274218E+03</rscale>
<asrwt>0</asrwt>
<pdfrwt beam="1">  1       21 0.98068020E-01 0.42302218E+03</pdfrwt>
<pdfrwt beam="2">  1       21 0.49339451E-01 0.42302218E+03</pdfrwt>
<totfact> 0.29566525E+03</totfact>
</mgrwt>
</event>
<event>
 6    1  0.8739326E-004  0.4295392E+03  0.7818608E-02  0.1034207E+00
         21   -1    0    0  501  502  0.00000000000E+00  0.00000000000E+00  0.18668735654E+03  0.18668735654E+03  0.00000000000E+00 0. -1.
         21   -1    0    0  502  503 -0.00000000000E+00 -0.00000000000E+00 -0.16922002787E+04  0.16922002787E+04  0.00000000000E+00 0. -1.
    9000007    2    1    2  501    0  0.40809208510E+02 -0.14373990465E+03 -0.14564916235E+03  0.45356100710E+03  0.40271249915E+03 0.  0.
    9000005    1    3    3    0    0  0.15249116402E+03 -0.23837722148E+03 -0.89900027897E+02  0.29691795135E+03  0.99999687468E+00 0.  0.
          4    1    3    3  501    0 -0.11168195551E+03  0.94637316827E+02 -0.55749134457E+02  0.15664305575E+03  0.00000000000E+00 0.  1.
   -9000007    1    1    2    0  503 -0.40809208510E+02  0.14373990465E+03 -0.13598637598E+04  0.14253266281E+04  0.40000000000E+03 0. -1.
<mgrwt>
<rscale>  2 0.42890225E+03</rscale>
<asrwt>0</asrwt>
<pdfrwt beam="1">  1       21 0.28721131E-01 0.42953918E+03</pdfrwt>
<pdfrwt beam="2">  1       21 0.26033851E+00 0.42953918E+03</pdfrwt>
<totfact> 0.54892558E+02</totfact>
</mgrwt>
</event>
<event>
 6    1  0.8739326E-004  0.4249038E+03  0.7818608E-02  0.1035505E+00
         21   -1    0    0  501  502  0.00000000000E+00  0.00000000000E+00  0.16507712754E+04  0.16507712754E+04  0.00000000000E+00 0.  1.
         21   -1    0    0  502  503 -0.00000000000E+00 -0.00000000000E+00 -0.11772647869E+03  0.11772647869E+03  0.00000000000E+00 0.  1.
    9000007    2    1    2  501    0 -0.98881532194E+02  0.10375797954E+03  0.52962861234E+03  0.67882472295E+03  0.39969145819E+03 0.  0.
    9000005    1    3    3    0    0 -0.20160087105E+03  0.24188336169E+02  0.50803543192E+03  0.54710966625E+03  0.99999687468E+00 0.  0.
          4    1    3    3  501    0  0.10271933886E+03  0.79569643375E+02  0.21593180414E+02  0.13171505670E+03  0.00000000000E+00 0.  1.
   -9000007    1    1    2    0  503  0.98881532194E+02 -0.10375797954E+03  0.10034161843E+04  0.10896730311E+04  0.40000000000E+03 0.  1.
<mgrwt>
<rscale>  2 0.42483121E+03</rscale>
<asrwt>0</asrwt>
<pdfrwt beam="1">  1       21 0.25396479E+00 0.42490384E+03</pdfrwt>
<pdfrwt beam="2">  1       21 0.18111767E-01 0.42490384E+03</pdfrwt>
<totfact> 0.14629207E+03</totfact>
</mgrwt>
</event>
<event>
 6    1  0.8739326E-004  0.5262287E+03  0.7818608E-02  0.1007273E+00
         21   -1    0    0  501  502  0.00000000000E+00  0.00000000000E+00  0.23573829802E+03  0.23573829802E+03  0.00000000000E+00 0. -1.
         21   -1    0    0  502  503 -0.00000000000E+00 -0.00000000000E+00 -0.16643711263E+04  0.16643711263E+04  0.00000000000E+00 0. -1.
    9000007    2    1    2  501    0 -0.18441281039E+03 -0.28793847034E+03 -0.19571260980E+03  0.55958381380E+03  0.39738390970E+03 0.  0.
    9000005    1    3    3    0    0  0.40717787653E+02 -0.24912090516E+03  0.93425941480E+01  0.25260136119E+03  0.99999687468E+00 0.  0.
          4    1    3    3  501    0 -0.22513059804E+03 -0.38817565189E+02 -0.20505520395E+03  0.30698245261E+03  0.00000000000E+00 0.  1.
   -9000007    1    1    2    0  503  0.18441281039E+03  0.28793847034E+03 -0.12329202185E+04  0.13405256106E+04  0.40000000000E+03 0. -1.
<mgrwt>
<rscale>  2 0.52573155E+03</rscale>
<asrwt>0</asrwt>
<pdfrwt beam="1">  1       21 0.36267430E-01 0.52622870E+03</pdfrwt>
<pdfrwt beam="2">  1       21 0.25605710E+00 0.52622870E+03</pdfrwt>
<totfact> 0.34751955E+02</totfact>
</mgrwt>
</event>
<event>
 6    1  0.8739326E-004  0.4345707E+03  0.7818608E-02  0.1032645E+00
         21   -1    0    0  501  502  0.00000000000E+00  0.00000000000E+00  0.60457954049E+03  0.60457954049E+03  0.00000000000E+00 0. -1.
         21   -1    0    0  502  503 -0.00000000000E+00 -0.00000000000E+00 -0.19787346939E+04  0.19787346939E+04  0.00000000000E+00 0. -1.
    9000007    2    1    2  501    0 -0.10150197294E+03  0.13619490011E+03  0.49931382200E+03  0.66010397465E+03  0.39695246967E+03 0.  0.
    9000005    1    3    3    0    0  0.32550847140E+02  0.20738585434E+03  0.45640864063E+03  0.50237266791E+03  0.99999687468E+00 0.  0.
          4    1    3    3  501    0 -0.13405282009E+03 -0.71190954225E+02  0.42905181370E+02  0.15773130674E+03  0.00000000000E+00 0.  1.
   -9000007    1    1    2    0  503  0.10150197294E+03 -0.13619490011E+03 -0.18734689755E+04  0.19232102598E+04  0.40000000000E+03 0. -1.
<mgrwt>
<rscale>  2 0.43386814E+03</rscale>
<asrwt>0</asrwt>
<pdfrwt beam="1">  1       21 0.93012238E-01 0.43457071E+03</pdfrwt>
<pdfrwt beam="2">  1       21 0.30442072E+00 0.43457071E+03</pdfrwt>
<totfact> 0.23724231E+01</totfact>
</mgrwt>
</event>
<event>
 6    1  0.8739326E-004  0.5315152E+03  0.7818608E-02  0.1005936E+00
         21   -1    0    0  501  502  0.00000000000E+00  0.00000000000E+00  0.40629964761E+03  0.40629964761E+03  0.00000000000E+00 0.  1.
         21   -1    0    0  502  503 -0.00000000000E+00 -0.00000000000E+00 -0.73804798105E+03  0.73804798105E+03  0.00000000000E+00 0.  1.
    9000007    2    1    2  501    0 -0.27168090414E+03 -0.22067606334E+03 -0.25598414637E+02  0.53096666108E+03  0.39844934150E+03 0.  0.
    9000005    1    3    3    0    0 -0.17268520683E+03  0.96195727747E+02 -0.22754027246E+02  0.19897875375E+03  0.99999687468E+00 0.  0.
          4    1    3    3  501    0 -0.98995697311E+02 -0.31687179109E+03 -0.28443873916E+01  0.33198790733E+03  0.00000000000E+00 0.  1.
   -9000007    1    1    2    0  503  0.27168090414E+03  0.22067606334E+03 -0.30614991881E+03  0.61338096758E+03  0.40000000000E+03 0.  1.
<mgrwt>
<rscale>  2 0.53122349E+03</rscale>
<asrwt>0</asrwt>
<pdfrwt beam="1">  1       21 0.62507639E-01 0.53151523E+03</pdfrwt>
<pdfrwt beam="2">  1       21 0.11354584E+00 0.53151523E+03</pdfrwt>
<totfact> 0.11870139E+03</totfact>
</mgrwt>
</event>
<event>
 6    1  0.8739326E-004  0.4168956E+03  0.7818608E-02  0.1038193E+00
         21   -1    0    0  501  502  0.00000000000E+00  0.00000000000E+00  0.50672296076E+03  0.50672296076E+03  0.00000000000E+00 0.  1.
         21   -1    0    0  502  503 -0.00000000000E+00 -0.00000000000E+00 -0.37972614576E+03  0.37972614576E+03  0.00000000000E+00 0.  1.
    9000007    2    1    2  501    0 -0.10817592416E+03  0.45824858512E+02  0.20334238480E+03  0.46262061024E+03  0.39858218141E+03 0.  0.
    9000005    1    3    3    0    0  0.28185785493E+01  0.86650692813E+02 -0.10276942849E+03  0.13445758579E+03  0.99999687468E+00 0.  0.
          4    1    3    3  501    0 -0.11099450271E+03 -0.40825834301E+02  0.30611181329E+03  0.32816302445E+03  0.00000000000E+00 0.  1.
   -9000007    1    1    2    0  503  0.10817592416E+03 -0.45824858512E+02 -0.76345569801E+02  0.42382849627E+03  0.40000000000E+03 0.  1.
<mgrwt>
<rscale>  2 0.41655515E+03</rscale>
<asrwt>0</asrwt>
<pdfrwt beam="1">  1       21 0.77957379E-01 0.41689561E+03</pdfrwt>
<pdfrwt beam="2">  1       21 0.58419407E-01 0.41689561E+03</pdfrwt>
<totfact> 0.35359569E+03</totfact>
</mgrwt>
</event>
<event>
 6    1  0.8739326E-004  0.4408318E+03  0.7818608E-02  0.1030516E+00
         21   -1    0    0  501  502  0.00000000000E+00  0.00000000000E+00  0.96651749395E+03  0.96651749395E+03  0.00000000000E+00 0. -1.
         21   -1    0    0  502  503 -0.00000000000E+00 -0.00000000000E+00 -0.23396214226E+03  0.23396214226E+03  0.00000000000E+00 0. -1.
    9000007    2    1    2  501    0 -0.90697211122E+02 -0.16071436369E+03  0.59195840251E+03  0.73807008514E+03  0.40034686145E+03 0.  0.
    9000005    1    3    3    0    0  0.30828814246E+01 -0.11028265130E+03  0.61855558334E+03  0.62831821317E+03  0.99999687468E+00 0.  0.
          4    1    3    3  501    0 -0.93780092547E+02 -0.50431712383E+02 -0.26597180823E+02  0.10975187196E+03  0.00000000000E+00 0.  1.
   -9000007    1    1    2    0  503  0.90697211122E+02  0.16071436369E+03  0.14059694918E+03  0.46240955107E+03  0.40000000000E+03 0. -1.
<mgrwt>
<rscale>  2 0.44075306E+03</rscale>
<asrwt>0</asrwt>
<pdfrwt beam="1">  1       21 0.14869500E+00 0.44083183E+03</pdfrwt>
<pdfrwt beam="2">  1       21 0.35994176E-01 0.44083183E+03</pdfrwt>
<totfact> 0.19557072E+03</totfact>
</mgrwt>
</event>
<event>
 6    1  0.8739326E-004  0.4121000E+03  0.7818608E-02  0.1039688E+00
         21   -1    0    0  501  502  0.00000000000E+00  0.00000000000E+00  0.81014680805E+03  0.81014680805E+03  0.00000000000E+00 0. -1.
         21   -1    0    0  502  503 -0.00000000000E+00 -0.00000000000E+00 -0.48756565886E+03  0.48756565886E+03  0.00000000000E+00 0. -1.
    9000007    2    1    2  501    0  0.22609200053E+01 -0.98105271653E+02  0.65131887036E+03  0.77074164664E+03  0.40024574812E+03 0.  0.
    9000005    1    3    3    0    0  0.19338538747E+02  0.12055389396E+03  0.47171638619E+03  0.48726232096E+03  0.99999687468E+00 0.  0.
          4    1    3    3  501    0 -0.17077618742E+02 -0.21865916561E+03  0.17960248417E+03  0.28347932568E+03  0.00000000000E+00 0.  1.
   -9000007    1    1    2    0  503 -0.22609200053E+01  0.98105271653E+02 -0.32873772118E+03  0.52697082026E+03  0.40000000000E+03 0. -1.
<mgrwt>
<rscale>  2 0.41204032E+03</rscale>
<asrwt>0</asrwt>
<pdfrwt beam="1">  1       21 0.12463797E+00 0.41210001E+03</pdfrwt>
<pdfrwt beam="2">  1       21 0.75010102E-01 0.41210001E+03</pdfrwt>
<totfact> 0.65312666E+02</totfact>
</mgrwt>
</event>
<event>
 6    1  0.8739326E-004  0.4020905E+03  0.7818608E-02  0.1043063E+00
         21   -1    0    0  501  502  0.00000000000E+00  0.00000000000E+00  0.20633187261E+04  0.20633187261E+04  0.00000000000E+00 0.  1.
         21   -1    0    0  502  503 -0.00000000000E+00 -0.00000000000E+00 -0.13597961775E+03  0.13597961775E+03  0.00000000000E+00 0.  1.
    9000007    2    1    2  501    0 -0.10323043224E+02  0.39626023555E+02  0.16795311817E+04  0.17269790075E+04  0.39994338986E+03 0.  0.
    9000005    1    3    3    0    0  0.33835355041E+02  0.14624593629E+03  0.24168395080E+03  0.28450806175E+03  0.99999687468E+00 0.  0.
          4    1    3    3  501    0 -0.44158398265E+02 -0.10661991274E+03  0.14378472309E+04  0.14424709458E+04  0.00000000000E+00 0.  1.
   -9000007    1    1    2    0  503  0.10323043224E+02 -0.39626023555E+02  0.24780792663E+03  0.47231933632E+03  0.40000000000E+03 0.  1.
<mgrwt>
<rscale>  2 0.40207644E+03</rscale>
<asrwt>0</asrwt>
<pdfrwt beam="1">  1       21 0.31743363E+00 0.40209052E+03</pdfrwt>
<pdfrwt beam="2">  1       21 0.20919943E-01 0.40209052E+03</pdfrwt>
<totfact> 0.46844578E+02</totfact>
</mgrwt>
</event>
<event>
 6    1  0.8739326E-004  0.4147730E+03  0.7818608E-02  0.1038821E+00
         21   -1    0    0  501  502  0.00000000000E+00  0.00000000000E+00  0.58120552374E+03  0.58120552374E+03  0.00000000000E+00 0. -1.
         21   -1    0    0  502  503 -0.00000000000E+00 -0.00000000000E+00 -0.55646845675E+03  0.55646845675E+03  0.00000000000E+00 0. -1.
    9000007    2    1    2  501    0  0.81487741805E+02  0.73460358503E+02  0.40179773981E+03  0.57712832908E+03  0.39949844577E+03 0.  0.
    9000005    1    3    3    0    0 -0.14580743055E+03  0.12935783803E+02  0.51483913185E+02  0.15517324066E+03  0.99999687468E+00 0.  0.
          4    1    3    3  501    0  0.22729517236E+03  0.60524574701E+02  0.35031382662E+03  0.42195508842E+03  0.00000000000E+00 0.  1.
   -9000007    1    1    2    0  503 -0.81487741805E+02 -0.73460358503E+02 -0.37706067281E+03  0.56054565141E+03  0.40000000000E+03 0. -1.
<mgrwt>
<rscale>  2 0.41465207E+03</rscale>
<asrwt>0</asrwt>
<pdfrwt beam="1">  1       21 0.89416234E-01 0.41477304E+03</pdfrwt>
<pdfrwt beam="2">  1       21 0.85610532E-01 0.41477304E+03</pdfrwt>
<totfact> 0.10868985E+03</totfact>
</mgrwt>
</event>
<event>
 6    1  0.8739326E-004  0.4151336E+03  0.7818608E-02  0.1038685E+00
         21   -1    0    0  501  502  0.00000000000E+00  0.00000000000E+00  0.38310378726E+03  0.38310378726E+03  0.00000000000E+00 0.  1.
         21   -1    0    0  502  503 -0.00000000000E+00 -0.00000000000E+00 -0.68317955639E+03  0.68317955639E+03  0.00000000000E+00 0.  1.
    9000007    2    1    2  501    0 -0.33232396135E+02 -0.10597888833E+03  0.16177719620E+03  0.44528086498E+03  0.39970898236E+03 0.  0.
    9000005    1    3    3    0    0 -0.20435439498E+03 -0.12718581943E+03  0.11411671496E+03  0.26638426387E+03  0.99999687468E+00 0.  0.
          4    1    3    3  501    0  0.17112199884E+03  0.21206931104E+02  0.47660481234E+02  0.17889660110E+03  0.00000000000E+00 0.  1.
   -9000007    1    1    2    0  503  0.33232396135E+02  0.10597888833E+03 -0.46185296533E+03  0.62100247866E+03  0.40000000000E+03 0.  1.
<mgrwt>
<rscale>  2 0.41506350E+03</rscale>
<asrwt>0</asrwt>
<pdfrwt beam="1">  1       21 0.58939044E-01 0.41513361E+03</pdfrwt>
<pdfrwt beam="2">  1       21 0.10510455E+00 0.41513361E+03</pdfrwt>
<totfact> 0.17095974E+03</totfact>
</mgrwt>
</event>
<event>
 6    1  0.8739326E-004  0.4371661E+03  0.7818608E-02  0.1031674E+00
         21   -1    0    0  501  502  0.00000000000E+00  0.00000000000E+00  0.21861369180E+03  0.21861369180E+03  0.00000000000E+00 0. -1.
         21   -1    0    0  502  503 -0.00000000000E+00 -0.00000000000E+00 -0.10383520910E+04  0.10383520910E+04  0.00000000000E+00 0. -1.
    9000007    2    1    2  501    0  0.73303590002E+02 -0.16043943490E+03 -0.15866175048E+03  0.46441511308E+03  0.39924130248E+03 0.  0.
    9000005    1    3    3    0    0  0.78013592228E+02  0.12448006746E+03 -0.22592824819E+02  0.14863661559E+03  0.99999687468E+00 0.  0.
          4    1    3    3  501    0 -0.47100022256E+01 -0.28491950236E+03 -0.13606892566E+03  0.31577849749E+03  0.00000000000E+00 0.  1.
   -9000007    1    1    2    0  503 -0.73303590002E+02  0.16043943490E+03 -0.66107664867E+03  0.79255066967E+03  0.40000000000E+03 0. -1.
<mgrwt>
<rscale>  2 0.43699251E+03</rscale>
<asrwt>0</asrwt>
<pdfrwt beam="1">  1       21 0.33632876E-01 0.43716613E+03</pdfrwt>
<pdfrwt beam="2">  1       21 0.15974647E+00 0.43716613E+03</pdfrwt>
<totfact> 0.18456807E+03</totfact>
</mgrwt>
</event>
<event>
 6    1  0.8739326E-004  0.4795786E+03  0.7818608E-02  0.1019291E+00
         21   -1    0    0  501  502  0.00000000000E+00  0.00000000000E+00  0.85741609406E+03  0.85741609406E+03  0.00000000000E+00 0.  1.
         21   -1    0    0  502  503 -0.00000000000E+00 -0.00000000000E+00 -0.33340733954E+03  0.33340733954E+03  0.00000000000E+00 0. -1.
    9000007    2    1    2  501    0  0.19523946151E+03  0.17697338541E+03  0.52601843055E+03  0.71182232162E+03  0.40069639604E+03 0.  0.
    9000005    1    3    3    0    0  0.25423175236E+03 -0.72469673572E+01  0.16776952581E+03  0.30468658688E+03  0.99999687468E+00 0.  0.
          4    1    3    3  501    0 -0.58992290842E+02  0.18422035277E+03  0.35824890474E+03  0.40713573474E+03  0.00000000000E+00 0.  1.
   -9000007    1    1    2    0  503 -0.19523946151E+03 -0.17697338541E+03 -0.20096760350E+01  0.47900111198E+03  0.40000000000E+03 0. -1.
<mgrwt>
<rscale>  2 0.47943310E+03</rscale>
<asrwt>0</asrwt>
<pdfrwt beam="1">  1       21 0.13191017E+00 0.47957859E+03</pdfrwt>
<pdfrwt beam="2">  1       21 0.51293437E-01 0.47957859E+03</pdfrwt>
<totfact> 0.12665550E+03</totfact>
</mgrwt>
</event>
<event>
 6    1  0.8739326E-004  0.4086030E+03  0.7818608E-02  0.1040888E+00
         21   -1    0    0  501  502  0.00000000000E+00  0.00000000000E+00  0.62991844306E+03  0.62991844306E+03  0.00000000000E+00 0. -1.
         21   -1    0    0  502  503 -0.00000000000E+00 -0.00000000000E+00 -0.31960024397E+03  0.31960024397E+03  0.00000000000E+00 0. -1.
    9000007    2    1    2  501    0  0.81737401376E+02 -0.16594834708E+02  0.35187898453E+03  0.53880748654E+03  0.39942245365E+03 0.  0.
    9000005    1    3    3    0    0 -0.54127920760E+01 -0.18386647894E+03  0.28396665526E+03  0.33834042279E+03  0.99999687468E+00 0.  0.
          4    1    3    3  501    0  0.87150193452E+02  0.16727164424E+03  0.67912329273E+02  0.20046706376E+03  0.00000000000E+00 0.  1.
   -9000007    1    1    2    0  503 -0.81737401376E+02  0.16594834708E+02 -0.41560785442E+02  0.41071120049E+03  0.40000000000E+03 0. -1.
<mgrwt>
<rscale>  2 0.40846156E+03</rscale>
<asrwt>0</asrwt>
<pdfrwt beam="1">  1       21 0.96910530E-01 0.40860298E+03</pdfrwt>
<pdfrwt beam="2">  1       21 0.49169268E-01 0.40860298E+03</pdfrwt>
<totfact> 0.30817589E+03</totfact>
</mgrwt>
</event>
<event>
 6    1  0.8739326E-004  0.4887199E+03  0.7818608E-02  0.1016923E+00
         21   -1    0    0  501  502  0.00000000000E+00  0.00000000000E+00  0.48473145863E+03  0.48473145863E+03  0.00000000000E+00 0.  1.
         21   -1    0    0  502  503 -0.00000000000E+00 -0.00000000000E+00 -0.84497005878E+03  0.84497005878E+03  0.00000000000E+00 0.  1.
    9000007    2    1    2  501    0  0.97530770391E+01 -0.28062791334E+03  0.25081162335E+03  0.54725054520E+03  0.39715178529E+03 0.  0.
    9000005    1    3    3    0    0 -0.15934825673E+03 -0.18798358258E+03  0.21094874751E+02  0.24733719489E+03  0.99999687468E+00 0.  0.
          4    1    3    3  501    0  0.16910133377E+03 -0.92644330759E+02  0.22971674860E+03  0.29991335031E+03  0.00000000000E+00 0.  1.
   -9000007    1    1    2    0  503 -0.97530770391E+01  0.28062791334E+03 -0.61105022350E+03  0.78245097220E+03  0.40000000000E+03 0.  1.
<mgrwt>
<rscale>  2 0.48813676E+03</rscale>
<asrwt>0</asrwt>
<pdfrwt beam="1">  1       21 0.74574072E-01 0.48871991E+03</pdfrwt>
<pdfrwt beam="2">  1       21 0.12999539E+00 0.48871991E+03</pdfrwt>
<totfact> 0.57377241E+02</totfact>
</mgrwt>
</event>
<event>
 6    1  0.8739326E-004  0.5840617E+03  0.7818608E-02  0.9939078E-01
         21   -1    0    0  501  502  0.00000000000E+00  0.00000000000E+00  0.17008879401E+03  0.17008879401E+03  0.00000000000E+00 0.  1.
         21   -1    0    0  502  503 -0.00000000000E+00 -0.00000000000E+00 -0.22579508758E+04  0.22579508758E+04  0.00000000000E+00 0. -1.
    9000007    2    1    2  501    0 -0.24530303797E+03  0.34778511368E+03 -0.14499483358E+04  0.15631338870E+04  0.39988661720E+03 0.  0.
    9000005    1    3    3    0    0 -0.72952875770E+02  0.19779337277E+03 -0.12232120372E+04  0.12412465623E+04  0.99999687468E+00 0.  0.
          4    1    3    3  501    0 -0.17235016220E+03  0.14999174091E+03 -0.22673629860E+03  0.32188732478E+03  0.00000000000E+00 0.  1.
   -9000007    1    1    2    0  503  0.24530303797E+03 -0.34778511368E+03 -0.63791374602E+03  0.86490578278E+03  0.40000000000E+03 0.  1.
<mgrwt>
<rscale>  2 0.58404228E+03</rscale>
<asrwt>0</asrwt>
<pdfrwt beam="1">  1       21 0.26167506E-01 0.58406170E+03</pdfrwt>
<pdfrwt beam="2">  1       21 0.34737707E+00 0.58406170E+03</pdfrwt>
<totfact> 0.18005318E+02</totfact>
</mgrwt>
</event>
<event>
 6    1  0.8739326E-004  0.4584328E+03  0.7818608E-02  0.1025242E+00
         21   -1    0    0  501  502  0.00000000000E+00  0.00000000000E+00  0.41542737624E+03  0.41542737624E+03  0.00000000000E+00 0. -1.
         21   -1    0    0  502  503 -0.00000000000E+00 -0.00000000000E+00 -0.50764639672E+03  0.50764639672E+03  0.00000000000E+00 0. -1.
    9000007    2    1    2  501    0 -0.17850279541E+03 -0.13503574444E+03 -0.18389188670E+02  0.45880149907E+03  0.40007843361E+03 0.  0.
    9000005    1    3    3    0    0 -0.20376958967E+03 -0.48049326374E+02 -0.17831438715E+03  0.27500509831E+03  0.99999687468E+00 0.  0.
          4    1    3    3  501    0  0.25266794262E+02 -0.86986418061E+02  0.15992519848E+03  0.18379640075E+03  0.00000000000E+00 0.  1.
   -9000007    1    1    2    0  503  0.17850279541E+03  0.13503574444E+03 -0.73829831804E+02  0.46427227389E+03  0.40000000000E+03 0. -1.
<mgrwt>
<rscale>  2 0.45841571E+03</rscale>
<asrwt>0</asrwt>
<pdfrwt beam="1">  1       21 0.63911904E-01 0.45843282E+03</pdfrwt>
<pdfrwt beam="2">  1       21 0.78099446E-01 0.45843282E+03</pdfrwt>
<totfact> 0.28473025E+03</totfact>
</mgrwt>
</event>
<event>
 6    1  0.8739326E-004  0.5494053E+03  0.7818608E-02  0.1001636E+00
         21   -1    0    0  501  502  0.00000000000E+00  0.00000000000E+00  0.84914504302E+03  0.84914504302E+03  0.00000000000E+00 0. -1.
         21   -1    0    0  502  503 -0.00000000000E+00 -0.00000000000E+00 -0.38659332851E+03  0.38659332851E+03  0.00000000000E+00 0. -1.
    9000007    2    1    2  501    0  0.37499934340E+03  0.33828683265E+02  0.55851014157E+02  0.55223683749E+03  0.40009661524E+03 0.  0.
    9000005    1    3    3    0    0  0.28163135702E+02  0.13284531087E+03 -0.90273437500E+02  0.16306848974E+03  0.99999687468E+00 0.  0.
          4    1    3    3  501    0  0.34683620770E+03 -0.99016627608E+02  0.14612445166E+03  0.38916834775E+03  0.00000000000E+00 0.  1.
   -9000007    1    1    2    0  503 -0.37499934340E+03 -0.33828683265E+02  0.40670070036E+03  0.68350153404E+03  0.40000000000E+03 0. -1.
<mgrwt>
<rscale>  2 0.54938772E+03</rscale>
<asrwt>0</asrwt>
<pdfrwt beam="1">  1       21 0.13063770E+00 0.54940530E+03</pdfrwt>
<pdfrwt beam="2">  1       21 0.59475897E-01 0.54940530E+03</pdfrwt>
<totfact> 0.91910978E+02</totfact>
</mgrwt>
</event>
<event>
 6    1  0.8739326E-004  0.4696455E+03  0.7818608E-02  0.1022028E+00
         21   -1    0    0  501  502  0.00000000000E+00  0.00000000000E+00  0.62957464633E+03  0.62957464633E+03  0.00000000000E+00 0.  1.
         21   -1    0    0  502  503 -0.00000000000E+00 -0.00000000000E+00 -0.40664586110E+03  0.40664586110E+03  0.00000000000E+00 0. -1.
    9000007    2    1    2  501    0 -0.21520809184E+03  0.11938325457E+03  0.30438391886E+03  0.55956358357E+03  0.39986866560E+03 0.  0.
    9000005    1    3    3    0    0 -0.17833743778E+03 -0.12000884640E+03  0.20725444655E+03  0.29859968275E+03  0.99999687468E+00 0.  0.
          4    1    3    3  501    0 -0.36870654061E+02  0.23939210097E+03  0.97129472313E+02  0.26096390082E+03  0.00000000000E+00 0.  1.
   -9000007    1    1    2    0  503  0.21520809184E+03 -0.11938325457E+03 -0.81455133639E+02  0.47665692386E+03  0.40000000000E+03 0. -1.
<mgrwt>
<rscale>  2 0.46961752E+03</rscale>
<asrwt>0</asrwt>
<pdfrwt beam="1">  1       21 0.96857638E-01 0.46964549E+03</pdfrwt>
<pdfrwt beam="2">  1       21 0.62560902E-01 0.46964549E+03</pdfrwt>
<totfact> 0.17913871E+03</totfact>
</mgrwt>
</event>
<event>
 6    1  0.8739326E-004  0.4164102E+03  0.7818608E-02  0.1038283E+00
         21   -1    0    0  501  502  0.00000000000E+00  0.00000000000E+00  0.45894860281E+03  0.45894860281E+03  0.00000000000E+00 0.  1.
         21   -1    0    0  502  503 -0.00000000000E+00 -0.00000000000E+00 -0.49540290047E+03  0.49540290047E+03  0.00000000000E+00 0. -1.
    9000007    2    1    2  501    0  0.58559110030E+02 -0.97677445188E+02  0.21470194950E+03  0.46850223329E+03  0.40053384727E+03 0.  0.
    9000005    1    3    3    0    0 -0.30443148769E+02  0.14634297616E+03  0.37630622343E+02  0.15414316628E+03  0.99999687468E+00 0.  0.
          4    1    3    3  501    0  0.89002258799E+02 -0.24402042135E+03  0.17707132716E+03  0.31435906701E+03  0.00000000000E+00 0.  1.
   -9000007    1    1    2    0  503 -0.58559110030E+02  0.97677445188E+02 -0.25115624716E+03  0.48584927000E+03  0.40000000000E+03 0. -1.
<mgrwt>
<rscale>  2 0.41628173E+03</rscale>
<asrwt>0</asrwt>
<pdfrwt beam="1">  1       21 0.70607478E-01 0.41641015E+03</pdfrwt>
<pdfrwt beam="2">  1       21 0.76215831E-01 0.41641015E+03</pdfrwt>
<totfact> 0.24481724E+03</totfact>
</mgrwt>
</event>
<event>
 6    1  0.8739326E-004  0.4767188E+03  0.7818608E-02  0.1020180E+00
         21   -1    0    0  501  502  0.00000000000E+00  0.00000000000E+00  0.88683176180E+03  0.88683176180E+03  0.00000000000E+00 0. -1.
         21   -1    0    0  502  503 -0.00000000000E+00 -0.00000000000E+00 -0.25529361792E+03  0.25529361792E+03  0.00000000000E+00 0.  1.
    9000007    2    1    2  501    0 -0.21134730899E+03 -0.15031020310E+03  0.30338249294E+03  0.56337934438E+03  0.39761099894E+03 0.  0.
    9000005    1    3    3    0    0 -0.13077484105E+03 -0.65196730757E+02  0.39076094983E+03  0.41719035542E+03  0.99999687468E+00 0.  0.
          4    1    3    3  501    0 -0.80572467941E+02 -0.85113472341E+02 -0.87378456886E+02  0.14618898896E+03  0.00000000000E+00 0.  1.
   -9000007    1    1    2    0  503  0.21134730899E+03  0.15031020310E+03  0.32815565094E+03  0.57874603534E+03  0.40000000000E+03 0. -1.
<mgrwt>
<rscale>  2 0.47621735E+03</rscale>
<asrwt>0</asrwt>
<pdfrwt beam="1">  1       21 0.13643565E+00 0.47671883E+03</pdfrwt>
<pdfrwt beam="2">  1       21 0.39275941E-01 0.47671883E+03</pdfrwt>
<totfact> 0.20317950E+03</totfact>
</mgrwt>
</event>
<event>
 6    1  0.8739326E-004  0.4114328E+03  0.7818608E-02  0.1040567E+00
         21   -1    0    0  501  502  0.00000000000E+00  0.00000000000E+00  0.31869569758E+03  0.31869569758E+03  0.00000000000E+00 0.  1.
         21   -1    0    0  502  503 -0.00000000000E+00 -0.00000000000E+00 -0.56087118139E+03  0.56087118139E+03  0.00000000000E+00 0.  1.
    9000007    2    1    2  501    0  0.46622276675E+02 -0.24039537186E+02 -0.23963890263E+03  0.47613414571E+03  0.40807521981E+03 0.  0.
    9000005    1    3    3    0    0  0.12395182442E+03  0.15681175303E+03 -0.57325029742E+02  0.20794504008E+03  0.99999687468E+00 0.  0.
          4    1    3    3  501    0 -0.77329547742E+02 -0.18085129022E+03 -0.18231387289E+03  0.26818910562E+03  0.00000000000E+00 0.  1.
   -9000007    1    1    2    0  503 -0.46622276675E+02  0.24039537186E+02 -0.25365811806E+01  0.40343273327E+03  0.40000000000E+03 0.  1.
<mgrwt>
<rscale>  2 0.40941598E+03</rscale>
<asrwt>0</asrwt>
<pdfrwt beam="1">  1       21 0.49030108E-01 0.41143277E+03</pdfrwt>
<pdfrwt beam="2">  1       21 0.86287873E-01 0.41143277E+03</pdfrwt>
<totfact> 0.40785053E+03</totfact>
</mgrwt>
</event>
<event>
 6    1  0.8739326E-004  0.6497465E+03  0.7818608E-02  0.9807688E-01
         21   -1    0    0  501  502  0.00000000000E+00  0.00000000000E+00  0.54297240411E+03  0.54297240411E+03  0.00000000000E+00 0.  1.
         21   -1    0    0  502  503 -0.00000000000E+00 -0.00000000000E+00 -0.85796613674E+03  0.85796613674E+03  0.00000000000E+00 0. -1.
    9000007    2    1    2  501    0  0.51017091381E+03 -0.43544265504E+02 -0.37335465592E+03  0.74857632419E+03  0.39850012507E+03 0.  0.
    9000005    1    3    3    0    0  0.29245810227E+03  0.16147133297E+03 -0.27823333352E+03  0.43476375289E+03  0.99999687468E+00 0.  0.
          4    1    3    3  501    0  0.21771281154E+03 -0.20501559848E+03 -0.95121322401E+02  0.31381257129E+03  0.00000000000E+00 0.  1.
   -9000007    1    1    2    0  503 -0.51017091381E+03  0.43544265504E+02  0.58360923291E+02  0.65236221666E+03  0.40000000000E+03 0. -1.
<mgrwt>
<rscale>  2 0.64951577E+03</rscale>
<asrwt>0</asrwt>
<pdfrwt beam="1">  1       21 0.83534216E-01 0.64974646E+03</pdfrwt>
<pdfrwt beam="2">  1       21 0.13199479E+00 0.64974646E+03</pdfrwt>
<totfact> 0.40022035E+02</totfact>
</mgrwt>
</event>
<event>
 6    1  0.8739326E-004  0.4242496E+03  0.7818608E-02  0.1035707E+00
         21   -1    0    0  501  502  0.00000000000E+00  0.00000000000E+00  0.66843251866E+03  0.66843251866E+03  0.00000000000E+00 0.  1.
         21   -1    0    0  502  503 -0.00000000000E+00 -0.00000000000E+00 -0.27014575593E+03  0.27014575593E+03  0.00000000000E+00 0.  1.
    9000007    2    1    2  501    0 -0.10612182402E+03 -0.92557962721E+02  0.22768606037E+03  0.48148592326E+03  0.40019861846E+03 0.  0.
    9000005    1    3    3    0    0 -0.25813344903E+02  0.97276619543E+02 -0.67695301931E+02  0.12129601552E+03  0.99999687468E+00 0.  0.
          4    1    3    3  501    0 -0.80308479115E+02 -0.18983458226E+03  0.29538136230E+03  0.36018990774E+03  0.00000000000E+00 0.  1.
   -9000007    1    1    2    0  503  0.10612182402E+03  0.92557962721E+02  0.17060070235E+03  0.45709235132E+03  0.40000000000E+03 0.  1.
<mgrwt>
<rscale>  2 0.42420279E+03</rscale>
<asrwt>0</asrwt>
<pdfrwt beam="1">  1       21 0.10283577E+00 0.42424963E+03</pdfrwt>
<pdfrwt beam="2">  1       21 0.41560886E-01 0.42424963E+03</pdfrwt>
<totfact> 0.37716592E+03</totfact>
</mgrwt>
</event>
<event>
 6    1  0.8739326E-004  0.5358869E+03  0.7818608E-02  0.1004856E+00
         21   -1    0    0  501  502  0.00000000000E+00  0.00000000000E+00  0.62257789481E+03  0.62257789481E+03  0.00000000000E+00 0.  1.
         21   -1    0    0  502  503 -0.00000000000E+00 -0.00000000000E+00 -0.46651614841E+03  0.46651614841E+03  0.00000000000E+00 0. -1.
    9000007    2    1    2  501    0  0.95510490152E+02 -0.34249345068E+03  0.13907105271E+03  0.55363844174E+03  0.40093733798E+03 0.  0.
    9000005    1    3    3    0    0 -0.36402054524E+02 -0.16171283109E+03 -0.12491448324E+03  0.20755909382E+03  0.99999687468E+00 0.  0.
          4    1    3    3  501    0  0.13191254468E+03 -0.18078061959E+03  0.26398553595E+03  0.34607934792E+03  0.00000000000E+00 0.  1.
   -9000007    1    1    2    0  503 -0.95510490152E+02  0.34249345068E+03  0.16990693691E+02  0.53545560148E+03  0.40000000000E+03 0.  1.
<mgrwt>
<rscale>  2 0.53571158E+03</rscale>
<asrwt>0</asrwt>
<pdfrwt beam="1">  1       21 0.95781215E-01 0.53588690E+03</pdfrwt>
<pdfrwt beam="2">  1       21 0.71771715E-01 0.53588690E+03</pdfrwt>
<totfact> 0.13222571E+03</totfact>
</mgrwt>
</event>
<event>
 6    1  0.8739326E-004  0.4125778E+03  0.7818608E-02  0.1039566E+00
         21   -1    0    0  501  502  0.00000000000E+00  0.00000000000E+00  0.76976956522E+03  0.76976956522E+03  0.00000000000E+00 0.  1.
         21   -1    0    0  502  503 -0.00000000000E+00 -0.00000000000E+00 -0.22099172069E+03  0.22099172069E+03  0.00000000000E+00 0.  1.
    9000007    2    1    2  501    0 -0.70252765719E+02  0.72697705264E+02  0.25849933130E+03  0.48629917367E+03  0.39930511465E+03 0.  0.
    9000005    1    3    3    0    0 -0.13776513146E+03  0.60211521964E+02  0.34472009743E+03  0.37608191181E+03  0.99999687468E+00 0.  0.
          4    1    3    3  501    0  0.67512365738E+02  0.12486183300E+02 -0.86220766128E+02  0.11021726186E+03  0.00000000000E+00 0.  1.
   -9000007    1    1    2    0  503  0.70252765719E+02 -0.72697705264E+02  0.29027851324E+03  0.50446211224E+03  0.40000000000E+03 0. -1.
<mgrwt>
<rscale>  2 0.41240924E+03</rscale>
<asrwt>0</asrwt>
<pdfrwt beam="1">  1       21 0.11842609E+00 0.41257776E+03</pdfrwt>
<pdfrwt beam="2">  1       21 0.33998727E-01 0.41257776E+03</pdfrwt>
<totfact> 0.40218200E+03</totfact>
</mgrwt>
</event>
<event>
 6    1  0.8739326E-004  0.4172204E+03  0.7818608E-02  0.1038015E+00
         21   -1    0    0  501  502  0.00000000000E+00  0.00000000000E+00  0.72485374693E+03  0.72485374693E+03  0.00000000000E+00 0. -1.
         21   -1    0    0  502  503 -0.00000000000E+00 -0.00000000000E+00 -0.34660657636E+03  0.34660657636E+03  0.00000000000E+00 0. -1.
    9000007    2    1    2  501    0  0.73076041802E+01 -0.11840382904E+03  0.48634403387E+03  0.64046403599E+03  0.39948816542E+03 0.  0.
    9000005    1    3    3    0    0  0.82014503413E+02 -0.43490467748E+02  0.52094455801E+03  0.52915218233E+03  0.99999687468E+00 0.  0.
          4    1    3    3  501    0 -0.74706899233E+02 -0.74913361296E+02 -0.34600524143E+02  0.11131185366E+03  0.00000000000E+00 0.  1.
   -9000007    1    1    2    0  503 -0.73076041802E+01  0.11840382904E+03 -0.10809686329E+03  0.43099628730E+03  0.40000000000E+03 0. -1.
<mgrwt>
<rscale>  2 0.41709768E+03</rscale>
<asrwt>0</asrwt>
<pdfrwt beam="1">  1       21 0.11151596E+00 0.41722041E+03</pdfrwt>
<pdfrwt beam="2">  1       21 0.53324089E-01 0.41722041E+03</pdfrwt>
<totfact> 0.18324591E+03</totfact>
</mgrwt>
</event>
<event>
 6    1  0.8739326E-004  0.5604083E+03  0.7818608E-02  0.9992493E-01
         21   -1    0    0  501  502  0.00000000000E+00  0.00000000000E+00  0.77077334530E+03  0.77077334530E+03  0.00000000000E+00 0. -1.
         21   -1    0    0  502  503 -0.00000000000E+00 -0.00000000000E+00 -0.53139923809E+03  0.53139923809E+03  0.00000000000E+00 0.  1.
    9000007    2    1    2  501    0  0.13713814314E+03 -0.36776424881E+03  0.43613572488E+03  0.70822599725E+03  0.39662612075E+03 0.  0.
    9000005    1    3    3    0    0 -0.15341508362E+02 -0.34632102616E+03  0.43239280470E+03  0.55420046245E+03  0.99999687468E+00 0.  0.
          4    1    3    3  501    0  0.15247965150E+03 -0.21443222653E+02  0.37429201845E+01  0.15402553480E+03  0.00000000000E+00 0.  1.
   -9000007    1    1    2    0  503 -0.13713814314E+03  0.36776424881E+03 -0.19676161767E+03  0.59394658615E+03  0.40000000000E+03 0.  1.
<mgrwt>
<rscale>  2 0.55980650E+03</rscale>
<asrwt>0</asrwt>
<pdfrwt beam="1">  1       21 0.11858052E+00 0.56040826E+03</pdfrwt>
<pdfrwt beam="2">  1       21 0.81753728E-01 0.56040826E+03</pdfrwt>
<totfact> 0.57254776E+02</totfact>
</mgrwt>
</event>
<event>
 6    1  0.8739326E-004  0.6168686E+03  0.7818608E-02  0.9871205E-01
         21   -1    0    0  501  502  0.00000000000E+00  0.00000000000E+00  0.17901451830E+04  0.17901451830E+04  0.00000000000E+00 0.  1.
         21   -1    0    0  502  503 -0.00000000000E+00 -0.00000000000E+00 -0.21702766568E+03  0.21702766568E+03  0.00000000000E+00 0. -1.
    9000007    2    1    2  501    0  0.27582542467E+03 -0.38006209493E+03  0.93229494885E+03  0.11176896138E+04  0.39941124197E+03 0.  0.
    9000005    1    3    3    0    0  0.14999740702E+03 -0.40708146939E+03  0.47802405269E+03  0.64554050204E+03  0.99999687468E+00 0.  0.
          4    1    3    3  501    0  0.12582801764E+03  0.27019374456E+02  0.45427089616E+03  0.47214911174E+03  0.00000000000E+00 0.  1.
   -9000007    1    1    2    0  503 -0.27582542467E+03  0.38006209493E+03  0.64082256844E+03  0.88948323487E+03  0.40000000000E+03 0. -1.
<mgrwt>
<rscale>  2 0.61677317E+03</rscale>
<asrwt>0</asrwt>
<pdfrwt beam="1">  1       21 0.27540694E+00 0.61686859E+03</pdfrwt>
<pdfrwt beam="2">  1       21 0.33388873E-01 0.61686859E+03</pdfrwt>
<totfact> 0.30073629E+02</totfact>
</mgrwt>
</event>
<event>
 6    1  0.8739326E-004  0.4289358E+03  0.7818608E-02  0.1034202E+00
         21   -1    0    0  501  502  0.00000000000E+00  0.00000000000E+00  0.17903430450E+03  0.17903430450E+03  0.00000000000E+00 0. -1.
         21   -1    0    0  502  503 -0.00000000000E+00 -0.00000000000E+00 -0.11374047333E+04  0.11374047333E+04  0.00000000000E+00 0. -1.
    9000007    2    1    2  501    0 -0.14000713793E+03 -0.65794533412E+02 -0.27461349062E+03  0.50931174313E+03  0.40006869806E+03 0.  0.
    9000005    1    3    3    0    0  0.37793154718E+02 -0.74232319583E+02 -0.31580478072E+03  0.32660743919E+03  0.99999687468E+00 0.  0.
          4    1    3    3  501    0 -0.17780029264E+03  0.84377861713E+01  0.41191290102E+02  0.18270430395E+03  0.00000000000E+00 0.  1.
   -9000007    1    1    2    0  503  0.14000713793E+03  0.65794533412E+02 -0.68375693822E+03  0.80712729471E+03  0.40000000000E+03 0.  1.
<mgrwt>
<rscale>  2 0.42891974E+03</rscale>
<asrwt>0</asrwt>
<pdfrwt beam="1">  1       21 0.27543739E-01 0.42893576E+03</pdfrwt>
<pdfrwt beam="2">  1       21 0.17498534E+00 0.42893576E+03</pdfrwt>
<totfact> 0.21296074E+03</totfact>
</mgrwt>
</event>
<event>
 6    1  0.8739326E-004  0.4030153E+03  0.7818608E-02  0.1042757E+00
         21   -1    0    0  501  502  0.00000000000E+00  0.00000000000E+00  0.10058871471E+03  0.10058871471E+03  0.00000000000E+00 0.  1.
         21   -1    0    0  502  503 -0.00000000000E+00 -0.00000000000E+00 -0.18528557042E+04  0.18528557042E+04  0.00000000000E+00 0.  1.
    9000007    2    1    2  501    0  0.46239016971E+02 -0.11377900937E+02 -0.52558660214E+03  0.66231612318E+03  0.40019228798E+03 0.  0.
    9000005    1    3    3    0    0 -0.59594670042E+02  0.16227820314E+03 -0.12588798244E+03  0.21385631631E+03  0.99999687468E+00 0.  0.
          4    1    3    3  501    0  0.10583368701E+03 -0.17365610407E+03 -0.39969861970E+03  0.44845980687E+03  0.00000000000E+00 0.  1.
   -9000007    1    1    2    0  503 -0.46239016971E+02  0.11377900937E+02 -0.12266803873E+04  0.12911282957E+04  0.40000000000E+03 0.  1.
<mgrwt>
<rscale>  2 0.40296760E+03</rscale>
<asrwt>0</asrwt>
<pdfrwt beam="1">  1       21 0.15475187E-01 0.40301535E+03</pdfrwt>
<pdfrwt beam="2">  1       21 0.28505472E+00 0.40301535E+03</pdfrwt>
<totfact> 0.12895691E+03</totfact>
</mgrwt>
</event>
<event>
 6    1  0.8739326E-004  0.4764915E+03  0.7818608E-02  0.1020170E+00
         21   -1    0    0  501  502  0.00000000000E+00  0.00000000000E+00  0.13370628938E+04  0.13370628938E+04  0.00000000000E+00 0.  1.
         21   -1    0    0  502  503 -0.00000000000E+00 -0.00000000000E+00 -0.16993390344E+03  0.16993390344E+03  0.00000000000E+00 0. -1.
    9000007    2    1    2  501    0 -0.54268155849E+01  0.25887203337E+03  0.54347545886E+03  0.72214782620E+03  0.39885803053E+03 0.  0.
    9000005    1    3    3    0    0 -0.59640569400E+02  0.75170738837E+02 -0.43024447087E+02  0.10516530101E+03  0.99999687468E+00 0.  0.
          4    1    3    3  501    0  0.54213753815E+02  0.18370129454E+03  0.58649990595E+03  0.61698252519E+03  0.00000000000E+00 0.  1.
   -9000007    1    1    2    0  503  0.54268155849E+01 -0.25887203337E+03  0.62365353146E+03  0.78484897101E+03  0.40000000000E+03 0. -1.
<mgrwt>
<rscale>  2 0.47625179E+03</rscale>
<asrwt>0</asrwt>
<pdfrwt beam="1">  1       21 0.20570198E+00 0.47649153E+03</pdfrwt>
<pdfrwt beam="2">  1       21 0.26143678E-01 0.47649153E+03</pdfrwt>
<totfact> 0.14239782E+03</totfact>
</mgrwt>
</event>
<event>
 6    1  0.8739326E-004  0.4742759E+03  0.7818608E-02  0.1020800E+00
         21   -1    0    0  501  502  0.00000000000E+00  0.00000000000E+00  0.56483956360E+03  0.56483956360E+03  0.00000000000E+00 0.  1.
         21   -1    0    0  502  503 -0.00000000000E+00 -0.00000000000E+00 -0.51099687635E+03  0.51099687635E+03  0.00000000000E+00 0.  1.
    9000007    2    1    2  501    0  0.19364826502E+03 -0.16564403115E+03  0.28065617934E+03  0.55011602396E+03  0.39865041480E+03 0.  0.
    9000005    1    3    3    0    0  0.21209819616E+03 -0.73278853925E+02 -0.29168687946E+02  0.22629018449E+03  0.99999687468E+00 0.  0.
          4    1    3    3  501    0 -0.18449931140E+02 -0.92365177222E+02  0.30982486728E+03  0.32382583947E+03  0.00000000000E+00 0.  1.
   -9000007    1    1    2    0  503 -0.19364826502E+03  0.16564403115E+03 -0.22681349209E+03  0.52572041599E+03  0.40000000000E+03 0.  1.
<mgrwt>
<rscale>  2 0.47399119E+03</rscale>
<asrwt>0</asrwt>
<pdfrwt beam="1">  1       21 0.86898394E-01 0.47427586E+03</pdfrwt>
<pdfrwt beam="2">  1       21 0.78614904E-01 0.47427586E+03</pdfrwt>
<totfact> 0.13831691E+03</totfact>
</mgrwt>
</event>
<event>
 6    1  0.8739326E-004  0.5133197E+03  0.7818608E-02  0.1010367E+00
         21   -1    0    0  501  502  0.00000000000E+00  0.00000000000E+00  0.14608314346E+03  0.14608314346E+03  0.00000000000E+00 0. -1.
         21   -1    0    0  502  503 -0.00000000000E+00 -0.00000000000E+00 -0.18509922605E+04  0.18509922605E+04  0.00000000000E+00 0.  1.
    9000007    2    1    2  501    0 -0.30172299744E+03 -0.11111355340E+03 -0.69235785574E+03  0.86189125780E+03  0.40014266322E+03 0.  0.
    9000005    1    3    3    0    0 -0.31015799161E+03 -0.13949262418E+03 -0.25888667257E+03  0.42741020248E+03  0.99999687468E+00 0.  0.
          4    1    3    3  501    0  0.84349941723E+01  0.28379070783E+02 -0.43347118318E+03  0.43448105532E+03  0.00000000000E+00 0.  1.
   -9000007    1    1    2    0  503  0.30172299744E+03  0.11111355340E+03 -0.10125512613E+04  0.11351841462E+04  0.40000000000E+03 0.  1.
<mgrwt>
<rscale>  2 0.51329192E+03</rscale>
<asrwt>0</asrwt>
<pdfrwt beam="1">  1       21 0.22474328E-01 0.51331972E+03</pdfrwt>
<pdfrwt beam="2">  1       21 0.28476806E+00 0.51331972E+03</pdfrwt>
<totfact> 0.60331261E+02</totfact>
</mgrwt>
</event>
<event>
 6    1  0.8739326E-004  0.4407210E+03  0.7818608E-02  0.1030634E+00
         21   -1    0    0  501  502  0.00000000000E+00  0.00000000000E+00  0.21441509369E+03  0.21441509369E+03  0.00000000000E+00 0. -1.
         21   -1    0    0  502  503 -0.00000000000E+00 -0.00000000000E+00 -0.10693254208E+04  0.10693254208E+04  0.00000000000E+00 0. -1.
    9000007    2    1    2  501    0  0.16235579195E+03 -0.81436710801E+02 -0.17487400659E+03  0.47414756845E+03  0.40155156261E+03 0.  0.
    9000005    1    3    3    0    0  0.28957778466E+03 -0.10029313614E+03 -0.87634907828E+02  0.31873952310E+03  0.99999687468E+00 0.  0.
          4    1    3    3  501    0 -0.12722199271E+03  0.18856425335E+02 -0.87239098763E+02  0.15540804534E+03  0.00000000000E+00 0.  1.
   -9000007    1    1    2    0  503 -0.16235579195E+03  0.81436710801E+02 -0.68003632053E+03  0.80959294604E+03  0.40000000000E+03 0. -1.
<mgrwt>
<rscale>  2 0.44036727E+03</rscale>
<asrwt>0</asrwt>
<pdfrwt beam="1">  1       21 0.32986938E-01 0.44072100E+03</pdfrwt>
<pdfrwt beam="2">  1       21 0.16451160E+00 0.44072100E+03</pdfrwt>
<totfact> 0.17649894E+03</totfact>
</mgrwt>
</event>
<event>
 6    1  0.8739326E-004  0.6065129E+03  0.7818608E-02  0.9892235E-01
         21   -1    0    0  501  502  0.00000000000E+00  0.00000000000E+00  0.81683670419E+03  0.81683670419E+03  0.00000000000E+00 0. -1.
         21   -1    0    0  502  503 -0.00000000000E+00 -0.00000000000E+00 -0.49162339046E+03  0.49162339046E+03  0.00000000000E+00 0. -1.
    9000007    2    1    2  501    0  0.13657468731E+03 -0.43429592915E+03  0.35307131621E+03  0.70179571660E+03  0.40073965890E+03 0.  0.
    9000005    1    3    3    0    0  0.21650225895E+03 -0.25222692124E+03  0.37573632197E+03  0.50166765052E+03  0.99999687468E+00 0.  0.
          4    1    3    3  501    0 -0.79927571643E+02 -0.18206900790E+03 -0.22665005757E+02  0.20012806608E+03  0.00000000000E+00 0.  1.
   -9000007    1    1    2    0  503 -0.13657468731E+03  0.43429592915E+03 -0.27858002488E+02  0.60666437805E+03  0.40000000000E+03 0. -1.
<mgrwt>
<rscale>  2 0.60639073E+03</rscale>
<asrwt>0</asrwt>
<pdfrwt beam="1">  1       21 0.12566719E+00 0.60651288E+03</pdfrwt>
<pdfrwt beam="2">  1       21 0.75634368E-01 0.60651288E+03</pdfrwt>
<totfact> 0.58122519E+02</totfact>
</mgrwt>
</event>
<event>
 6    1  0.8739326E-004  0.8745685E+03  0.7818608E-02  0.9457957E-01
         21   -1    0    0  501  502  0.00000000000E+00  0.00000000000E+00  0.15139838716E+04  0.15139838716E+04  0.00000000000E+00 0. -1.
         21   -1    0    0  502  503 -0.00000000000E+00 -0.00000000000E+00 -0.50517893354E+03  0.50517893354E+03  0.00000000000E+00 0.  1.
    9000007    2    1    2  501    0  0.26797864792E+03  0.73010787249E+03  0.50541940985E+03  0.10100706135E+04  0.39990474261E+03 0.  0.
    9000005    1    3    3    0    0 -0.46934122218E+02  0.98012946470E+01 -0.32125572252E+02  0.57722868877E+02  0.99999687468E+00 0.  0.
          4    1    3    3  501    0  0.31491277014E+03  0.72030657784E+03  0.53754498210E+03  0.95234774461E+03  0.00000000000E+00 0.  1.
   -9000007    1    1    2    0  503 -0.26797864792E+03 -0.73010787249E+03  0.50338552819E+03  0.10090921916E+04  0.40000000000E+03 0. -1.
<mgrwt>
<rscale>  2 0.87455761E+03</rscale>
<asrwt>0</asrwt>
<pdfrwt beam="1">  1       21 0.23292059E+00 0.87456850E+03</pdfrwt>
<pdfrwt beam="2">  1       21 0.77719837E-01 0.87456850E+03</pdfrwt>
<totfact> 0.81748211E+01</totfact>
</mgrwt>
</event>
<event>
 6    1  0.8739326E-004  0.4388515E+03  0.7818608E-02  0.1031160E+00
         21   -1    0    0  501  502  0.00000000000E+00  0.00000000000E+00  0.11261456931E+04  0.11261456931E+04  0.00000000000E+00 0. -1.
         21   -1    0    0  502  503 -0.00000000000E+00 -0.00000000000E+00 -0.17658415758E+03  0.17658415758E+03  0.00000000000E+00 0. -1.
    9000007    2    1    2  501    0 -0.10257110877E+03 -0.14624762893E+03  0.35643510482E+03  0.56536415842E+03  0.40085090291E+03 0.  0.
    9000005    1    3    3    0    0 -0.24386635411E+02  0.46519813394E+02 -0.71982867163E+02  0.89114163766E+02  0.99999687468E+00 0.  0.
          4    1    3    3  501    0 -0.78184473360E+02 -0.19276744232E+03  0.42841797198E+03  0.47624999466E+03  0.00000000000E+00 0.  1.
   -9000007    1    1    2    0  503  0.10257110877E+03  0.14624762893E+03  0.59312643072E+03  0.73736569227E+03  0.40000000000E+03 0.  1.
<mgrwt>
<rscale>  2 0.43865711E+03</rscale>
<asrwt>0</asrwt>
<pdfrwt beam="1">  1       21 0.17325318E+00 0.43885151E+03</pdfrwt>
<pdfrwt beam="2">  1       21 0.27166794E-01 0.43885151E+03</pdfrwt>
<totfact> 0.22422538E+03</totfact>
</mgrwt>
</event>
<event>
 6    1  0.8739326E-004  0.4733621E+03  0.7818608E-02  0.1021016E+00
         21   -1    0    0  501  502  0.00000000000E+00  0.00000000000E+00  0.11623785616E+03  0.11623785616E+03  0.00000000000E+00 0. -1.
         21   -1    0    0  502  503 -0.00000000000E+00 -0.00000000000E+00 -0.20295586005E+04  0.20295586005E+04  0.00000000000E+00 0. -1.
    9000007    2    1    2  501    0 -0.24115613947E+03 -0.76911899834E+02 -0.71298123409E+03  0.85549158424E+03  0.39931427046E+03 0.  0.
    9000005    1    3    3    0    0  0.67770365149E+02 -0.13403367011E+03 -0.15966172404E+03  0.21920472904E+03  0.99999687468E+00 0.  0.
          4    1    3    3  501    0 -0.30892650462E+03  0.57121770278E+02 -0.55331951006E+03  0.63628685520E+03  0.00000000000E+00 0.  1.
   -9000007    1    1    2    0  503  0.24115613947E+03  0.76911899834E+02 -0.12003395103E+04  0.12903048724E+04  0.40000000000E+03 0. -1.
<mgrwt>
<rscale>  2 0.47321725E+03</rscale>
<asrwt>0</asrwt>
<pdfrwt beam="1">  1       21 0.17882749E-01 0.47336215E+03</pdfrwt>
<pdfrwt beam="2">  1       21 0.31223975E+00 0.47336215E+03</pdfrwt>
<totfact> 0.64963734E+02</totfact>
</mgrwt>
</event>
<event>
 6    1  0.8739326E-004  0.4381957E+03  0.7818608E-02  0.1031315E+00
         21   -1    0    0  501  502  0.00000000000E+00  0.00000000000E+00  0.26095913303E+04  0.26095913303E+04  0.00000000000E+00 0. -1.
         21   -1    0    0  502  503 -0.00000000000E+00 -0.00000000000E+00 -0.76748831668E+02  0.76748831668E+02  0.00000000000E+00 0. -1.
    9000007    2    1    2  501    0 -0.10577726731E+03  0.14377746568E+03  0.99249514280E+03  0.10849249233E+04  0.40019331687E+03 0.  0.
    9000005    1    3    3    0    0 -0.12427979988E+03  0.12484810231E+03  0.12259709653E+03  0.21462424229E+03  0.99999687468E+00 0.  0.
          4    1    3    3  501    0  0.18502532571E+02  0.18929363373E+02  0.86989804627E+03  0.87030068104E+03  0.00000000000E+00 0.  1.
   -9000007    1    1    2    0  503  0.10577726731E+03 -0.14377746568E+03  0.15403473558E+04  0.16014152386E+04  0.40000000000E+03 0. -1.
<mgrwt>
<rscale>  2 0.43815157E+03</rscale>
<asrwt>0</asrwt>
<pdfrwt beam="1">  1       21 0.40147552E+00 0.43819571E+03</pdfrwt>
<pdfrwt beam="2">  1       21 0.11807515E-01 0.43819571E+03</pdfrwt>
<totfact> 0.40108060E+02</totfact>
</mgrwt>
</event>
<event>
 6    1  0.8739326E-004  0.4177872E+03  0.7818608E-02  0.1037810E+00
         21   -1    0    0  501  502  0.00000000000E+00  0.00000000000E+00  0.12677249485E+03  0.12677249485E+03  0.00000000000E+00 0. -1.
         21   -1    0    0  502  503 -0.00000000000E+00 -0.00000000000E+00 -0.14178553206E+04  0.14178553206E+04  0.00000000000E+00 0. -1.
    9000007    2    1    2  501    0  0.98582443232E+01 -0.11931758042E+03 -0.77841355703E+03  0.88344429399E+03  0.40026526809E+03 0.  0.
    9000005    1    3    3    0    0 -0.17180572041E+03 -0.71523880925E+02 -0.19077638950E+03  0.26651360546E+03  0.99999687468E+00 0.  0.
          4    1    3    3  501    0  0.18166396474E+03 -0.47793699491E+02 -0.58763716752E+03  0.61693068853E+03  0.00000000000E+00 0.  1.
   -9000007    1    1    2    0  503 -0.98582443232E+01  0.11931758042E+03 -0.51266926877E+03  0.66118352151E+03  0.40000000000E+03 0. -1.
<mgrwt>
<rscale>  2 0.41772366E+03</rscale>
<asrwt>0</asrwt>
<pdfrwt beam="1">  1       21 0.19503460E-01 0.41778721E+03</pdfrwt>
<pdfrwt beam="2">  1       21 0.21813159E+00 0.41778721E+03</pdfrwt>
<totfact> 0.21341779E+03</totfact>
</mgrwt>
</event>
<event>
 6    1  0.8739326E-004  0.4103852E+03  0.7818608E-02  0.1040259E+00
         21   -1    0    0  501  502  0.00000000000E+00  0.00000000000E+00  0.80385940771E+02  0.80385940771E+02  0.00000000000E+00 0.  1.
         21   -1    0    0  502  503 -0.00000000000E+00 -0.00000000000E+00 -0.20941199507E+04  0.20941199507E+04  0.00000000000E+00 0.  1.
    9000007    2    1    2  501    0 -0.85344524983E+02 -0.33649599496E+02 -0.99985664825E+03  0.10807219603E+04  0.39978826270E+03 0.  0.
    9000005    1    3    3    0    0 -0.13244128499E+03  0.14640383767E+03 -0.70432617453E+03  0.73147189814E+03  0.99999687468E+00 0.  0.
          4    1    3    3  501    0  0.47096760007E+02 -0.18005343717E+03 -0.29553047373E+03  0.34925006219E+03  0.00000000000E+00 0.  1.
   -9000007    1    1    2    0  503  0.85344524983E+02  0.33649599496E+02 -0.10138773616E+04  0.10937839311E+04  0.40000000000E+03 0.  1.
<mgrwt>
<rscale>  2 0.41033356E+03</rscale>
<asrwt>0</asrwt>
<pdfrwt beam="1">  1       21 0.12367069E-01 0.41038516E+03</pdfrwt>
<pdfrwt beam="2">  1       21 0.32217227E+00 0.41038516E+03</pdfrwt>
<totfact> 0.11619180E+03</totfact>
</mgrwt>
</event>
<event>
 6    1  0.8739326E-004  0.5599171E+03  0.7818608E-02  0.9993609E-01
         21   -1    0    0  501  502  0.00000000000E+00  0.00000000000E+00  0.60705911307E+03  0.60705911307E+03  0.00000000000E+00 0.  1.
         21   -1    0    0  502  503 -0.00000000000E+00 -0.00000000000E+00 -0.57782457972E+03  0.57782457972E+03  0.00000000000E+00 0. -1.
    9000007    2    1    2  501    0 -0.26285103196E+03 -0.29054515181E+03 -0.18197704232E+03  0.58645451575E+03  0.39661833653E+03 0.  0.
    9000005    1    3    3    0    0 -0.19712078145E+03 -0.33493318283E+03 -0.26596880398E+03  0.47093231374E+03  0.99999687468E+00 0.  0.
          4    1    3    3  501    0 -0.65730250502E+02  0.44388031018E+02  0.83991761670E+02  0.11552220201E+03  0.00000000000E+00 0.  1.
   -9000007    1    1    2    0  503  0.26285103196E+03  0.29054515181E+03  0.21121157566E+03  0.59842917704E+03  0.40000000000E+03 0.  1.
<mgrwt>
<rscale>  2 0.55931341E+03</rscale>
<asrwt>0</asrwt>
<pdfrwt beam="1">  1       21 0.93393710E-01 0.55991709E+03</pdfrwt>
<pdfrwt beam="2">  1       21 0.88896088E-01 0.55991709E+03</pdfrwt>
<totfact> 0.84823484E+02</totfact>
</mgrwt>
</event>
<event>
 6    1  0.8739326E-004  0.4260033E+03  0.7818608E-02  0.1035166E+00
         21   -1    0    0  501  502  0.00000000000E+00  0.00000000000E+00  0.11201669056E+04  0.11201669056E+04  0.00000000000E+00 0. -1.
         21   -1    0    0  502  503 -0.00000000000E+00 -0.00000000000E+00 -0.43089876810E+03  0.43089876810E+03  0.00000000000E+00 0. -1.
    9000007    2    1    2  501    0  0.77242989636E+02  0.12454851777E+03  0.95739070918E+03  0.10477084187E+04  0.39952114820E+03 0.  0.
    9000005    1    3    3    0    0  0.23745274605E+03  0.35389803744E+02  0.59404899090E+03  0.64072728083E+03  0.99999687468E+00 0.  0.
          4    1    3    3  501    0 -0.16020975642E+03  0.89158714023E+02  0.36334171828E+03  0.40698113787E+03  0.00000000000E+00 0.  1.
   -9000007    1    1    2    0  503 -0.77242989636E+02 -0.12454851777E+03 -0.26812257167E+03  0.50335725500E+03  0.40000000000E+03 0. -1.
<mgrwt>
<rscale>  2 0.42589086E+03</rscale>
<asrwt>0</asrwt>
<pdfrwt beam="1">  1       21 0.17233337E+00 0.42600330E+03</pdfrwt>
<pdfrwt beam="2">  1       21 0.66292118E-01 0.42600330E+03</pdfrwt>
<totfact> 0.35756874E+02</totfact>
</mgrwt>
</event>
<event>
 6    1  0.8739326E-004  0.4722997E+03  0.7818608E-02  0.1021291E+00
         21   -1    0    0  501  502  0.00000000000E+00  0.00000000000E+00  0.78489054082E+03  0.78489054082E+03  0.00000000000E+00 0. -1.
         21   -1    0    0  502  503 -0.00000000000E+00 -0.00000000000E+00 -0.29489272608E+03  0.29489272608E+03  0.00000000000E+00 0.  1.
    9000007    2    1    2  501    0 -0.16719113578E+02 -0.25057426237E+03  0.14141991564E+03  0.49277939855E+03  0.39970608373E+03 0.  0.
    9000005    1    3    3    0    0 -0.14707449089E+03 -0.25879522182E+03  0.19032057230E+03  0.35331118429E+03  0.99999687468E+00 0.  0.
          4    1    3    3  501    0  0.13035537731E+03  0.82209594488E+01 -0.48900656660E+02  0.13946821426E+03  0.00000000000E+00 0.  1.
   -9000007    1    1    2    0  503  0.16719113578E+02  0.25057426237E+03  0.34857789909E+03  0.58700386835E+03  0.40000000000E+03 0. -1.
<mgrwt>
<rscale>  2 0.47223745E+03</rscale>
<asrwt>0</asrwt>
<pdfrwt beam="1">  1       21 0.12075239E+00 0.47229968E+03</pdfrwt>
<pdfrwt beam="2">  1       21 0.45368112E-01 0.47229968E+03</pdfrwt>
<totfact> 0.20694418E+03</totfact>
</mgrwt>
</event>
<event>
 6    1  0.8739326E-004  0.4819605E+03  0.7818608E-02  0.1018614E+00
         21   -1    0    0  501  502  0.00000000000E+00  0.00000000000E+00  0.15889452075E+03  0.15889452075E+03  0.00000000000E+00 0. -1.
         21   -1    0    0  502  503 -0.00000000000E+00 -0.00000000000E+00 -0.15436396498E+04  0.15436396498E+04  0.00000000000E+00 0. -1.
    9000007    2    1    2  501    0 -0.25523585095E+03  0.83101747087E+02 -0.88932464508E+03  0.10115257076E+04  0.40029325845E+03 0.  0.
    9000005    1    3    3    0    0 -0.13041801933E+03 -0.95448141154E+02 -0.71349154767E+03  0.73156708237E+03  0.99999687468E+00 0.  0.
          4    1    3    3  501    0 -0.12481783163E+03  0.17854988824E+03 -0.17583309741E+03  0.27995862521E+03  0.00000000000E+00 0.  1.
   -9000007    1    1    2    0  503  0.25523585095E+03 -0.83101747087E+02 -0.49542048399E+03  0.69100846300E+03  0.40000000000E+03 0. -1.
<mgrwt>
<rscale>  2 0.48189961E+03</rscale>
<asrwt>0</asrwt>
<pdfrwt beam="1">  1       21 0.24445310E-01 0.48196051E+03</pdfrwt>
<pdfrwt beam="2">  1       21 0.23748303E+00 0.48196051E+03</pdfrwt>
<totfact> 0.10134665E+03</totfact>
</mgrwt>
</event>
<event>
 6    1  0.8739326E-004  0.4125197E+03  0.7818608E-02  0.1039900E+00
         21   -1    0    0  501  502  0.00000000000E+00  0.00000000000E+00  0.11628674338E+04  0.11628674338E+04  0.00000000000E+00 0. -1.
         21   -1    0    0  502  503 -0.00000000000E+00 -0.00000000000E+00 -0.23997959259E+03  0.23997959259E+03  0.00000000000E+00 0. -1.
    9000007    2    1    2  501    0 -0.58245638921E+02 -0.56019440371E+02  0.90475663604E+03  0.99436266594E+03  0.40452664784E+03 0.  0.
    9000005    1    3    3    0    0 -0.23597921583E+01  0.17379577637E+03  0.43458305727E+03  0.46805338815E+03  0.99999687468E+00 0.  0.
          4    1    3    3  501    0 -0.55885846762E+02 -0.22981521674E+03  0.47017357877E+03  0.52630927779E+03  0.00000000000E+00 0.  1.
   -9000007    1    1    2    0  503  0.58245638921E+02  0.56019440371E+02  0.18131205194E+02  0.40848436048E+03  0.40000000000E+03 0. -1.
<mgrwt>
<rscale>  2 0.41140575E+03</rscale>
<asrwt>0</asrwt>
<pdfrwt beam="1">  1       21 0.17890268E+00 0.41251975E+03</pdfrwt>
<pdfrwt beam="2">  1       21 0.36919938E-01 0.41251975E+03</pdfrwt>
<totfact> 0.11203587E+03</totfact>
</mgrwt>
</event>
<event>
 6    1  0.8739326E-004  0.4183213E+03  0.7818608E-02  0.1037624E+00
         21   -1    0    0  501  502  0.00000000000E+00  0.00000000000E+00  0.91068344014E+02  0.91068344014E+02  0.00000000000E+00 0.  1.
         21   -1    0    0  502  503 -0.00000000000E+00 -0.00000000000E+00 -0.23289381403E+04  0.23289381403E+04  0.00000000000E+00 0.  1.
    9000007    2    1    2  501    0 -0.89834035330E+02  0.83201962729E+02 -0.61239859860E+03  0.74156990970E+03  0.39987643953E+03 0.  0.
    9000005    1    3    3    0    0  0.15931253494E+03  0.45214933395E+02 -0.26194201776E+03  0.30990239537E+03  0.99999687468E+00 0.  0.
          4    1    3    3  501    0 -0.24914657027E+03  0.37987029334E+02 -0.35045658084E+03  0.43166751433E+03  0.00000000000E+00 0.  1.
   -9000007    1    1    2    0  503  0.89834035330E+02 -0.83201962729E+02 -0.16254711976E+04  0.16784365746E+04  0.40000000000E+03 0.  1.
<mgrwt>
<rscale>  2 0.41829177E+03</rscale>
<asrwt>0</asrwt>
<pdfrwt beam="1">  1       21 0.14010515E-01 0.41832131E+03</pdfrwt>
<pdfrwt beam="2">  1       21 0.35829816E+00 0.41832131E+03</pdfrwt>
<totfact> 0.55476701E+02</totfact>
</mgrwt>
</event>
<event>
 6    1  0.8739326E-004  0.7696107E+03  0.7818608E-02  0.9605203E-01
         21   -1    0    0  501  502  0.00000000000E+00  0.00000000000E+00  0.78248746759E+03  0.78248746759E+03  0.00000000000E+00 0. -1.
         21   -1    0    0  502  503 -0.00000000000E+00 -0.00000000000E+00 -0.13737359745E+04  0.13737359745E+04  0.00000000000E+00 0. -1.
    9000007    2    1    2  501    0  0.27273287471E+03  0.59826193779E+03  0.42700721627E+03  0.87984368476E+03  0.39936096417E+03 0.  0.
    9000005    1    3    3    0    0  0.23562711570E+03  0.89780364997E+02  0.19959943287E+03  0.32159226543E+03  0.99999687468E+00 0.  0.
          4    1    3    3  501    0  0.37105759008E+02  0.50848157280E+03  0.22740778340E+03  0.55825141932E+03  0.00000000000E+00 0.  1.
   -9000007    1    1    2    0  503 -0.27273287471E+03 -0.59826193779E+03 -0.10182557232E+04  0.12763797574E+04  0.40000000000E+03 0. -1.
<mgrwt>
<rscale>  2 0.76952766E+03</rscale>
<asrwt>0</asrwt>
<pdfrwt beam="1">  1       21 0.12038269E+00 0.76961066E+03</pdfrwt>
<pdfrwt beam="2">  1       21 0.21134399E+00 0.76961066E+03</pdfrwt>
<totfact> 0.40080827E+01</totfact>
</mgrwt>
</event>
<event>
 6    1  0.8739326E-004  0.7164392E+03  0.7818608E-02  0.9689652E-01
         21   -1    0    0  501  502  0.00000000000E+00  0.00000000000E+00  0.20024917711E+03  0.20024917711E+03  0.00000000000E+00 0. -1.
         21   -1    0    0  502  503 -0.00000000000E+00 -0.00000000000E+00 -0.28006354239E+04  0.28006354239E+04  0.00000000000E+00 0. -1.
    9000007    2    1    2  501    0  0.21072204960E+03 -0.55537474141E+03 -0.17383106492E+04  0.18801619674E+04  0.40054990313E+03 0.  0.
    9000005    1    3    3    0    0  0.10568947170E+03 -0.53106090613E+03 -0.10296440643E+04  0.11633416737E+04  0.99999687468E+00 0.  0.
          4    1    3    3  501    0  0.10503257790E+03 -0.24313835284E+02 -0.70866658484E+03  0.71682029371E+03  0.00000000000E+00 0.  1.
   -9000007    1    1    2    0  503 -0.21072204960E+03  0.55537474141E+03 -0.86207559763E+03  0.11207226337E+04  0.40000000000E+03 0. -1.
<mgrwt>
<rscale>  2 0.71636235E+03</rscale>
<asrwt>0</asrwt>
<pdfrwt beam="1">  1       21 0.30807567E-01 0.71643919E+03</pdfrwt>
<pdfrwt beam="2">  1       21 0.43086697E+00 0.71643919E+03</pdfrwt>
<totfact> 0.35545870E+01</totfact>
</mgrwt>
</event>
<event>
 6    1  0.8739326E-004  0.4010753E+03  0.7818608E-02  0.1043421E+00
         21   -1    0    0  501  502  0.00000000000E+00  0.00000000000E+00  0.81484526218E+03  0.81484526218E+03  0.00000000000E+00 0.  1.
         21   -1    0    0  502  503 -0.00000000000E+00 -0.00000000000E+00 -0.22940959061E+03  0.22940959061E+03  0.00000000000E+00 0.  1.
    9000007    2    1    2  501    0  0.28084442088E+02  0.85230790482E+01  0.48788986910E+03  0.63148789391E+03  0.39984879269E+03 0.  0.
    9000005    1    3    3    0    0 -0.15024504838E+03  0.11043680598E+03  0.16602491136E+03  0.24967005000E+03  0.99999687468E+00 0.  0.
          4    1    3    3  501    0  0.17832949047E+03 -0.10191372694E+03  0.32186495774E+03  0.38181784391E+03  0.00000000000E+00 0.  1.
   -9000007    1    1    2    0  503 -0.28084442088E+02 -0.85230790482E+01  0.97545802474E+02  0.41276695888E+03  0.40000000000E+03 0.  1.
<mgrwt>
<rscale>  2 0.40103757E+03</rscale>
<asrwt>0</asrwt>
<pdfrwt beam="1">  1       21 0.12536081E+00 0.40107528E+03</pdfrwt>
<pdfrwt beam="2">  1       21 0.35293783E-01 0.40107528E+03</pdfrwt>
<totfact> 0.32409756E+03</totfact>
</mgrwt>
</event>
<event>
 6    1  0.8739326E-004  0.7192565E+03  0.7818608E-02  0.9684891E-01
         21   -1    0    0  501  502  0.00000000000E+00  0.00000000000E+00  0.17436751337E+04  0.17436751337E+04  0.00000000000E+00 0. -1.
         21   -1    0    0  502  503 -0.00000000000E+00 -0.00000000000E+00 -0.56541720220E+03  0.56541720220E+03  0.00000000000E+00 0. -1.
    9000007    2    1    2  501    0  0.12278101150E+03  0.58492290963E+03  0.13851428703E+04  0.15607532651E+04  0.40014996767E+03 0.  0.
    9000005    1    3    3    0    0  0.17102503474E+03  0.53363395109E+03  0.13808348218E+04  0.14902082276E+04  0.99999687468E+00 0.  0.
          4    1    3    3  501    0 -0.48244023236E+02  0.51288958534E+02  0.43080484066E+01  0.70545037576E+02  0.00000000000E+00 0.  1.
   -9000007    1    1    2    0  503 -0.12278101150E+03 -0.58492290963E+03 -0.20688493873E+03  0.74833907078E+03  0.40000000000E+03 0. -1.
<mgrwt>
<rscale>  2 0.71923569E+03</rscale>
<asrwt>0</asrwt>
<pdfrwt beam="1">  1       21 0.26825771E+00 0.71925655E+03</pdfrwt>
<pdfrwt beam="2">  1       21 0.86987263E-01 0.71925655E+03</pdfrwt>
<totfact> 0.39577955E+01</totfact>
</mgrwt>
</event>
<event>
 6    1  0.8739326E-004  0.4639761E+03  0.7818608E-02  0.1023635E+00
         21   -1    0    0  501  502  0.00000000000E+00  0.00000000000E+00  0.36863652032E+03  0.36863652032E+03  0.00000000000E+00 0. -1.
         21   -1    0    0  502  503 -0.00000000000E+00 -0.00000000000E+00 -0.60719751040E+03  0.60719751040E+03  0.00000000000E+00 0.  1.
    9000007    2    1    2  501    0 -0.21987650841E+03 -0.83235268659E+02 -0.23839478655E+02  0.46458153306E+03  0.39999236395E+03 0.  0.
    9000005    1    3    3    0    0 -0.29506979470E+03  0.41309061463E+02  0.48887357882E+02  0.30193309864E+03  0.99999687468E+00 0.  0.
          4    1    3    3  501    0  0.75193286285E+02 -0.12454433012E+03 -0.72726836537E+02  0.16264843442E+03  0.00000000000E+00 0.  1.
   -9000007    1    1    2    0  503  0.21987650841E+03  0.83235268659E+02 -0.21472151143E+03  0.51125249766E+03  0.40000000000E+03 0.  1.
<mgrwt>
<rscale>  2 0.46397442E+03</rscale>
<asrwt>0</asrwt>
<pdfrwt beam="1">  1       21 0.56713311E-01 0.46397607E+03</pdfrwt>
<pdfrwt beam="2">  1       21 0.93415001E-01 0.46397607E+03</pdfrwt>
<totfact> 0.24275705E+03</totfact>
</mgrwt>
</event>
<event>
 6    1  0.8739326E-004  0.4618215E+03  0.7818608E-02  0.1024268E+00
         21   -1    0    0  501  502  0.00000000000E+00  0.00000000000E+00  0.77314414113E+03  0.77314414113E+03  0.00000000000E+00 0.  1.
         21   -1    0    0  502  503 -0.00000000000E+00 -0.00000000000E+00 -0.47081523676E+03  0.47081523676E+03  0.00000000000E+00 0. -1.
    9000007    2    1    2  501    0 -0.20374773681E+03 -0.10763088356E+03  0.55154248466E+03  0.71935957238E+03  0.40022685396E+03 0.  0.
    9000005    1    3    3    0    0  0.12189461881E+03 -0.44908999383E+02  0.16676856467E+03  0.21139505784E+03  0.99999687468E+00 0.  0.
          4    1    3    3  501    0 -0.32564235562E+03 -0.62721884181E+02  0.38477391998E+03  0.50796451454E+03  0.00000000000E+00 0.  1.
   -9000007    1    1    2    0  503  0.20374773681E+03  0.10763088356E+03 -0.24921358029E+03  0.52459980552E+03  0.40000000000E+03 0. -1.
<mgrwt>
<rscale>  2 0.46177233E+03</rscale>
<asrwt>0</asrwt>
<pdfrwt beam="1">  1       21 0.11894525E+00 0.46182148E+03</pdfrwt>
<pdfrwt beam="2">  1       21 0.72433113E-01 0.46182148E+03</pdfrwt>
<totfact> 0.77923889E+02</totfact>
</mgrwt>
</event>
<event>
 6    1  0.8739326E-004  0.4478646E+03  0.7818608E-02  0.1028374E+00
         21   -1    0    0  501  502  0.00000000000E+00  0.00000000000E+00  0.18404793979E+04  0.18404793979E+04  0.00000000000E+00 0. -1.
         21   -1    0    0  502  503 -0.00000000000E+00 -0.00000000000E+00 -0.27549096196E+03  0.27549096196E+03  0.00000000000E+00 0. -1.
    9000007    2    1    2  501    0 -0.90567342741E+02  0.17994513379E+03  0.16050519689E+04  0.16663174032E+04  0.39979891294E+03 0.  0.
    9000005    1    3    3    0    0  0.15449397646E+03  0.35614354155E+02  0.69522641337E+03  0.71307610872E+03  0.99999687468E+00 0.  0.
          4    1    3    3  501    0 -0.24506131921E+03  0.14433077964E+03  0.90982555552E+03  0.95324129453E+03  0.00000000000E+00 0.  1.
   -9000007    1    1    2    0  503  0.90567342741E+02 -0.17994513379E+03 -0.40063532914E+02  0.44965295664E+03  0.40000000000E+03 0. -1.
<mgrwt>
<rscale>  2 0.44781969E+03</rscale>
<asrwt>0</asrwt>
<pdfrwt beam="1">  1       21 0.28315067E+00 0.44786459E+03</pdfrwt>
<pdfrwt beam="2">  1       21 0.42383226E-01 0.44786459E+03</pdfrwt>
<totfact> 0.17993588E+02</totfact>
</mgrwt>
</event>
<event>
 6    1  0.8739326E-004  0.5320944E+03  0.7818608E-02  0.1005791E+00
         21   -1    0    0  501  502  0.00000000000E+00  0.00000000000E+00  0.62794595674E+03  0.62794595674E+03  0.00000000000E+00 0.  1.
         21   -1    0    0  502  503 -0.00000000000E+00 -0.00000000000E+00 -0.68732895037E+03  0.68732895037E+03  0.00000000000E+00 0.  1.
    9000007    2    1    2  501    0  0.34793873026E+03  0.45420846795E+02  0.35680163473E+03  0.63974988299E+03  0.39855751519E+03 0.  0.
    9000005    1    3    3    0    0  0.33064829021E+03  0.93743022081E+02  0.73004980272E+02  0.35134992977E+03  0.99999687468E+00 0.  0.
          4    1    3    3  501    0  0.17290440043E+02 -0.48322175287E+02  0.28379665445E+03  0.28839995323E+03  0.00000000000E+00 0.  1.
   -9000007    1    1    2    0  503 -0.34793873026E+03 -0.45420846795E+02 -0.41618462836E+03  0.67552502412E+03  0.40000000000E+03 0.  1.
<mgrwt>
<rscale>  2 0.53182328E+03</rscale>
<asrwt>0</asrwt>
<pdfrwt beam="1">  1       21 0.96607069E-01 0.53209437E+03</pdfrwt>
<pdfrwt beam="2">  1       21 0.10574292E+00 0.53209437E+03</pdfrwt>
<totfact> 0.51846219E+02</totfact>
</mgrwt>
</event>
<event>
 6    1  0.8739326E-004  0.4206641E+03  0.7818608E-02  0.1036862E+00
         21   -1    0    0  501  502  0.00000000000E+00  0.00000000000E+00  0.54530128064E+03  0.54530128064E+03  0.00000000000E+00 0. -1.
         21   -1    0    0  502  503 -0.00000000000E+00 -0.00000000000E+00 -0.51312216622E+03  0.51312216622E+03  0.00000000000E+00 0. -1.
    9000007    2    1    2  501    0  0.10584011084E+03  0.75065358645E+02  0.33703334034E+03  0.53902664653E+03  0.40015161631E+03 0.  0.
    9000005    1    3    3    0    0  0.54322213204E+02  0.92443948030E+02  0.42351251071E+03  0.43687599281E+03  0.99999687468E+00 0.  0.
          4    1    3    3  501    0  0.51517897634E+02 -0.17378589385E+02 -0.86479170370E+02  0.10215065371E+03  0.00000000000E+00 0.  1.
   -9000007    1    1    2    0  503 -0.10584011084E+03 -0.75065358645E+02 -0.30485422593E+03  0.51939680033E+03  0.40000000000E+03 0. -1.
<mgrwt>
<rscale>  2 0.42062800E+03</rscale>
<asrwt>0</asrwt>
<pdfrwt beam="1">  1       21 0.83892504E-01 0.42066406E+03</pdfrwt>
<pdfrwt beam="2">  1       21 0.78941872E-01 0.42066406E+03</pdfrwt>
<totfact> 0.15195507E+03</totfact>
</mgrwt>
</event>
<event>
 6    1  0.8739326E-004  0.6410883E+03  0.7818608E-02  0.9823774E-01
         21   -1    0    0  501  502  0.00000000000E+00  0.00000000000E+00  0.15126898702E+04  0.15126898702E+04  0.00000000000E+00 0. -1.
         21   -1    0    0  502  503 -0.00000000000E+00 -0.00000000000E+00 -0.27552118128E+03  0.27552118128E+03  0.00000000000E+00 0. -1.
    9000007    2    1    2  501    0 -0.35987888268E+03 -0.34854175048E+03  0.72533303067E+03  0.96786362319E+03  0.39957205320E+03 0.  0.
    9000005    1    3    3    0    0 -0.18230372730E+03 -0.41135776642E+03  0.54925065415E+03  0.71001911387E+03  0.99999687468E+00 0.  0.
          4    1    3    3  501    0 -0.17757515538E+03  0.62816015945E+02  0.17608237652E+03  0.25784450932E+03  0.00000000000E+00 0.  1.
   -9000007    1    1    2    0  503  0.35987888268E+03  0.34854175048E+03  0.51183565823E+03  0.82034742827E+03  0.40000000000E+03 0. -1.
<mgrwt>
<rscale>  2 0.64102152E+03</rscale>
<asrwt>0</asrwt>
<pdfrwt beam="1">  1       21 0.23272151E+00 0.64108826E+03</pdfrwt>
<pdfrwt beam="2">  1       21 0.42387875E-01 0.64108826E+03</pdfrwt>
<totfact> 0.33619670E+02</totfact>
</mgrwt>
</event>
<event>
 6    1  0.8739326E-004  0.5443919E+03  0.7818608E-02  0.1002821E+00
         21   -1    0    0  501  502  0.00000000000E+00  0.00000000000E+00  0.75783659717E+03  0.75783659717E+03  0.00000000000E+00 0. -1.
         21   -1    0    0  502  503 -0.00000000000E+00 -0.00000000000E+00 -0.40766697859E+03  0.40766697859E+03  0.00000000000E+00 0.  1.
    9000007    2    1    2  501    0 -0.43624568544E+02  0.36668715849E+03  0.29351083328E+03  0.61817114192E+03  0.39953019444E+03 0.  0.
    9000005    1    3    3    0    0  0.95949865534E+02  0.29324755739E+03  0.28605503458E+02  0.30987058820E+03  0.99999687468E+00 0.  0.
          4    1    3    3  501    0 -0.13957443408E+03  0.73439601101E+02  0.26490532982E+03  0.30830055372E+03  0.00000000000E+00 0.  1.
   -9000007    1    1    2    0  503  0.43624568544E+02 -0.36668715849E+03  0.56658785300E+02  0.54733243384E+03  0.40000000000E+03 0. -1.
<mgrwt>
<rscale>  2 0.54430564E+03</rscale>
<asrwt>0</asrwt>
<pdfrwt beam="1">  1       21 0.11659025E+00 0.54439193E+03</pdfrwt>
<pdfrwt beam="2">  1       21 0.62717997E-01 0.54439193E+03</pdfrwt>
<totfact> 0.10976312E+03</totfact>
</mgrwt>
</event>
<event>
 6    1  0.8739326E-004  0.4394164E+03  0.7818608E-02  0.1030946E+00
         21   -1    0    0  501  502  0.00000000000E+00  0.00000000000E+00  0.36119521325E+03  0.36119521325E+03  0.00000000000E+00 0. -1.
         21   -1    0    0  502  503 -0.00000000000E+00 -0.00000000000E+00 -0.55276412465E+03  0.55276412465E+03  0.00000000000E+00 0. -1.
    9000007    2    1    2  501    0  0.27450023007E+02  0.17981453258E+03 -0.12138469437E+02  0.43932047161E+03  0.39971035068E+03 0.  0.
    9000005    1    3    3    0    0  0.22687387176E+01 -0.13970641896E+02 -0.18069692283E+03  0.18125314873E+03  0.99999687468E+00 0.  0.
          4    1    3    3  501    0  0.25181284289E+02  0.19378517448E+03  0.16855845339E+03  0.25806732287E+03  0.00000000000E+00 0.  1.
   -9000007    1    1    2    0  503 -0.27450023007E+02 -0.17981453258E+03 -0.17943044196E+03  0.47463886629E+03  0.40000000000E+03 0.  1.
<mgrwt>
<rscale>  2 0.43935047E+03</rscale>
<asrwt>0</asrwt>
<pdfrwt beam="1">  1       21 0.55568494E-01 0.43941640E+03</pdfrwt>
<pdfrwt beam="2">  1       21 0.85040635E-01 0.43941640E+03</pdfrwt>
<totfact> 0.31959331E+03</totfact>
</mgrwt>
</event>
<event>
 6    1  0.8739326E-004  0.5645498E+03  0.7818608E-02  0.9982202E-01
         21   -1    0    0  501  502  0.00000000000E+00  0.00000000000E+00  0.11398782461E+04  0.11398782461E+04  0.00000000000E+00 0. -1.
         21   -1    0    0  502  503 -0.00000000000E+00 -0.00000000000E+00 -0.38809741056E+03  0.38809741056E+03  0.00000000000E+00 0.  1.
    9000007    2    1    2  501    0  0.37815210567E+03 -0.12219477938E+03  0.78063634034E+03  0.96338446009E+03  0.40098122519E+03 0.  0.
    9000005    1    3    3    0    0 -0.13289365088E+02 -0.41235929721E+02  0.42846373216E+03  0.43064971717E+03  0.99999687468E+00 0.  0.
          4    1    3    3  501    0  0.39144147076E+03 -0.80958849662E+02  0.35217260818E+03  0.53273474293E+03  0.00000000000E+00 0.  1.
   -9000007    1    1    2    0  503 -0.37815210567E+03  0.12219477938E+03 -0.28855504762E+02  0.56459119661E+03  0.40000000000E+03 0.  1.
<mgrwt>
<rscale>  2 0.56437563E+03</rscale>
<asrwt>0</asrwt>
<pdfrwt beam="1">  1       21 0.17536588E+00 0.56454984E+03</pdfrwt>
<pdfrwt beam="2">  1       21 0.59707294E-01 0.56454984E+03</pdfrwt>
<totfact> 0.40305194E+02</totfact>
</mgrwt>
</event>
<event>
 6    1  0.8739326E-004  0.4079921E+03  0.7818608E-02  0.1041147E+00
         21   -1    0    0  501  502  0.00000000000E+00  0.00000000000E+00  0.56266855778E+03  0.56266855778E+03  0.00000000000E+00 0. -1.
         21   -1    0    0  502  503 -0.00000000000E+00 -0.00000000000E+00 -0.68201761016E+03  0.68201761016E+03  0.00000000000E+00 0. -1.
    9000007    2    1    2  501    0 -0.31382427250E+02 -0.73977820133E+02  0.40918875246E+03  0.57699628053E+03  0.39878778566E+03 0.  0.
    9000005    1    3    3    0    0  0.13254096146E+03 -0.16886796292E+03  0.25048071670E+03  0.32988647259E+03  0.99999687468E+00 0.  0.
          4    1    3    3  501    0 -0.16392338871E+03  0.94890142790E+02  0.15870803576E+03  0.24710980794E+03  0.00000000000E+00 0.  1.
   -9000007    1    1    2    0  503  0.31382427250E+02  0.73977820133E+02 -0.52853780483E+03  0.66768988741E+03  0.40000000000E+03 0. -1.
<mgrwt>
<rscale>  2 0.40769470E+03</rscale>
<asrwt>0</asrwt>
<pdfrwt beam="1">  1       21 0.86564393E-01 0.40799213E+03</pdfrwt>
<pdfrwt beam="2">  1       21 0.10492579E+00 0.40799213E+03</pdfrwt>
<totfact> 0.72307953E+02</totfact>
</mgrwt>
</event>
<event>
 6    1  0.8739326E-004  0.5604758E+03  0.7818608E-02  0.9991018E-01
         21   -1    0    0  501  502  0.00000000000E+00  0.00000000000E+00  0.28190331729E+03  0.28190331729E+03  0.00000000000E+00 0.  1.
         21   -1    0    0  502  503 -0.00000000000E+00 -0.00000000000E+00 -0.11923136205E+04  0.11923136205E+04  0.00000000000E+00 0.  1.
    9000007    2    1    2  501    0 -0.14664081056E+03  0.36407494630E+03 -0.26655016604E+03  0.62063040434E+03  0.40009875523E+03 0.  0.
    9000005    1    3    3    0    0  0.52337737521E+02 -0.49174180722E+02 -0.11868869714E+03  0.13872759509E+03  0.99999687468E+00 0.  0.
          4    1    3    3  501    0 -0.19897854808E+03  0.41324912702E+03 -0.14786146890E+03  0.48190280925E+03  0.00000000000E+00 0.  1.
   -9000007    1    1    2    0  503  0.14664081056E+03 -0.36407494630E+03 -0.64386013713E+03  0.85358653341E+03  0.40000000000E+03 0.  1.
<mgrwt>
<rscale>  2 0.56045816E+03</rscale>
<asrwt>0</asrwt>
<pdfrwt beam="1">  1       21 0.43369741E-01 0.56047579E+03</pdfrwt>
<pdfrwt beam="2">  1       21 0.18343287E+00 0.56047579E+03</pdfrwt>
<totfact> 0.70190148E+02</totfact>
</mgrwt>
</event>
<event>
 6    1  0.8739326E-004  0.4005704E+03  0.7818608E-02  0.1043627E+00
         21   -1    0    0  501  502  0.00000000000E+00  0.00000000000E+00  0.11918020134E+03  0.11918020134E+03  0.00000000000E+00 0.  1.
         21   -1    0    0  502  503 -0.00000000000E+00 -0.00000000000E+00 -0.19217846453E+04  0.19217846453E+04  0.00000000000E+00 0.  1.
    9000007    2    1    2  501    0 -0.17816742667E+02 -0.11798933042E+02 -0.34164424642E+03  0.52608486792E+03  0.39948447529E+03 0.  0.
    9000005    1    3    3    0    0  0.12552561580E+02 -0.11026856969E+03 -0.39482309478E+03  0.41012559104E+03  0.99999687468E+00 0.  0.
          4    1    3    3  501    0 -0.30369304247E+02  0.98469636645E+02  0.53178848356E+02  0.11595927688E+03  0.00000000000E+00 0.  1.
   -9000007    1    1    2    0  503  0.17816742667E+02  0.11798933042E+02 -0.14609601975E+04  0.15148799787E+04  0.40000000000E+03 0.  1.
<mgrwt>
<rscale>  2 0.40044165E+03</rscale>
<asrwt>0</asrwt>
<pdfrwt beam="1">  1       21 0.18335416E-01 0.40057041E+03</pdfrwt>
<pdfrwt beam="2">  1       21 0.29565917E+00 0.40057041E+03</pdfrwt>
<totfact> 0.81280332E+02</totfact>
</mgrwt>
</event>
<event>
 6    1  0.8739326E-004  0.5531798E+03  0.7818608E-02  0.1000867E+00
         21   -1    0    0  501  502  0.00000000000E+00  0.00000000000E+00  0.11866072099E+04  0.11866072099E+04  0.00000000000E+00 0.  1.
         21   -1    0    0  502  503 -0.00000000000E+00 -0.00000000000E+00 -0.27071939815E+03  0.27071939815E+03  0.00000000000E+00 0.  1.
    9000007    2    1    2  501    0 -0.38087243770E+03 -0.30726273927E+02  0.62111406726E+03  0.83050966653E+03  0.39743641498E+03 0.  0.
    9000005    1    3    3    0    0  0.48234213084E+02  0.48850098876E+02  0.24480807824E+03  0.25425354794E+03  0.99999687468E+00 0.  0.
          4    1    3    3  501    0 -0.42910665078E+03 -0.79576372803E+02  0.37630598901E+03  0.57625611860E+03  0.00000000000E+00 0.  1.
   -9000007    1    1    2    0  503  0.38087243770E+03  0.30726273927E+02  0.29477374445E+03  0.62681694148E+03  0.40000000000E+03 0.  1.
<mgrwt>
<rscale>  2 0.55271653E+03</rscale>
<asrwt>0</asrwt>
<pdfrwt beam="1">  1       21 0.18255495E+00 0.55317982E+03</pdfrwt>
<pdfrwt beam="2">  1       21 0.41649139E-01 0.55317982E+03</pdfrwt>
<totfact> 0.77682545E+02</totfact>
</mgrwt>
</event>
<event>
 6    1  0.8739326E-004  0.5307392E+03  0.7818608E-02  0.1006092E+00
         21   -1    0    0  501  502  0.00000000000E+00  0.00000000000E+00  0.91862193383E+03  0.91862193383E+03  0.00000000000E+00 0. -1.
         21   -1    0    0  502  503 -0.00000000000E+00 -0.00000000000E+00 -0.84569812932E+03  0.84569812932E+03  0.00000000000E+00 0. -1.
    9000007    2    1    2  501    0  0.25232214434E+03 -0.23944625226E+03  0.74101401287E+03  0.91147453273E+03  0.40085294599E+03 0.  0.
    9000005    1    3    3    0    0  0.36254297896E+03 -0.18587489642E+03  0.58982685747E+03  0.71685675731E+03  0.99999687468E+00 0.  0.
          4    1    3    3  501    0 -0.11022083463E+03 -0.53571355841E+02  0.15118715540E+03  0.19461777542E+03  0.00000000000E+00 0.  1.
   -9000007    1    1    2    0  503 -0.25232214434E+03  0.23944625226E+03 -0.66809020836E+03  0.85284553042E+03  0.40000000000E+03 0. -1.
<mgrwt>
<rscale>  2 0.53057811E+03</rscale>
<asrwt>0</asrwt>
<pdfrwt beam="1">  1       21 0.14132645E+00 0.53073916E+03</pdfrwt>
<pdfrwt beam="2">  1       21 0.13010740E+00 0.53073916E+03</pdfrwt>
<totfact> 0.11670944E+02</totfact>
</mgrwt>
</event>
<event>
 6    1  0.8739326E-004  0.4815581E+03  0.7818608E-02  0.1018758E+00
         21   -1    0    0  501  502  0.00000000000E+00  0.00000000000E+00  0.22649574485E+03  0.22649574485E+03  0.00000000000E+00 0. -1.
         21   -1    0    0  502  503 -0.00000000000E+00 -0.00000000000E+00 -0.12078252811E+04  0.12078252811E+04  0.00000000000E+00 0.  1.
    9000007    2    1    2  501    0  0.25009681147E+03  0.92956633313E+02 -0.20990194779E+03  0.52531614421E+03  0.40088511184E+03 0.  0.
    9000005    1    3    3    0    0  0.14130083645E+03 -0.11607270959E+03  0.34192395937E+02  0.18603472855E+03  0.99999687468E+00 0.  0.
          4    1    3    3  501    0  0.10879597502E+03  0.20902934290E+03 -0.24409434372E+03  0.33928141566E+03  0.00000000000E+00 0.  1.
   -9000007    1    1    2    0  503 -0.25009681147E+03 -0.92956633313E+02 -0.77142758844E+03  0.90900488172E+03  0.40000000000E+03 0.  1.
<mgrwt>
<rscale>  2 0.48137387E+03</rscale>
<asrwt>0</asrwt>
<pdfrwt beam="1">  1       21 0.34845499E-01 0.48155812E+03</pdfrwt>
<pdfrwt beam="2">  1       21 0.18581928E+00 0.48155812E+03</pdfrwt>
<totfact> 0.10928230E+03</totfact>
</mgrwt>
</event>
<event>
 6    1  0.8739326E-004  0.4232236E+03  0.7818608E-02  0.1036044E+00
         21   -1    0    0  501  502  0.00000000000E+00  0.00000000000E+00  0.45974178525E+03  0.45974178525E+03  0.00000000000E+00 0.  1.
         21   -1    0    0  502  503 -0.00000000000E+00 -0.00000000000E+00 -0.39117950916E+03  0.39117950916E+03  0.00000000000E+00 0.  1.
    9000007    2    1    2  501    0  0.42529190860E+02 -0.13156545566E+03  0.52636402606E+01  0.42299032042E+03  0.39971853105E+03 0.  0.
    9000005    1    3    3    0    0  0.13353799786E+03 -0.88518058797E+02 -0.16194986477E+03  0.22780825774E+03  0.99999687468E+00 0.  0.
          4    1    3    3  501    0 -0.91008806995E+02 -0.43047396866E+02  0.16721350503E+03  0.19518206268E+03  0.00000000000E+00 0.  1.
   -9000007    1    1    2    0  503 -0.42529190860E+02  0.13156545566E+03  0.63298635824E+02  0.42793097399E+03  0.40000000000E+03 0. -1.
<mgrwt>
<rscale>  2 0.42315706E+03</rscale>
<asrwt>0</asrwt>
<pdfrwt beam="1">  1       21 0.70729505E-01 0.42322358E+03</pdfrwt>
<pdfrwt beam="2">  1       21 0.60181463E-01 0.42322358E+03</pdfrwt>
<totfact> 0.41245804E+03</totfact>
</mgrwt>
</event>
<event>
 6    1  0.8739326E-004  0.7082753E+03  0.7818608E-02  0.9703543E-01
         21   -1    0    0  501  502  0.00000000000E+00  0.00000000000E+00  0.57431156644E+03  0.57431156644E+03  0.00000000000E+00 0. -1.
         21   -1    0    0  502  503 -0.00000000000E+00 -0.00000000000E+00 -0.99012507591E+03  0.99012507591E+03  0.00000000000E+00 0.  1.
    9000007    2    1    2  501    0  0.42368852966E+02  0.58297405982E+03  0.61883187754E+02  0.71012521865E+03  0.39849017943E+03 0.  0.
    9000005    1    3    3    0    0  0.56611766857E+02  0.11330293237E+03  0.18515802630E+03  0.22433666960E+03  0.99999687468E+00 0.  0.
          4    1    3    3  501    0 -0.14242913891E+02  0.46967112746E+03 -0.12327483855E+03  0.48578854904E+03  0.00000000000E+00 0.  1.
   -9000007    1    1    2    0  503 -0.42368852966E+02 -0.58297405982E+03 -0.47769669722E+03  0.85431142370E+03  0.40000000000E+03 0.  1.
<mgrwt>
<rscale>  2 0.70806229E+03</rscale>
<asrwt>0</asrwt>
<pdfrwt beam="1">  1       21 0.88355626E-01 0.70827528E+03</pdfrwt>
<pdfrwt beam="2">  1       21 0.15232693E+00 0.70827528E+03</pdfrwt>
<totfact> 0.23360101E+02</totfact>
</mgrwt>
</event>
<event>
 6    1  0.8739326E-004  0.8270739E+03  0.7818608E-02  0.9521644E-01
         21   -1    0    0  501  502  0.00000000000E+00  0.00000000000E+00  0.50604158125E+03  0.50604158125E+03  0.00000000000E+00 0. -1.
         21   -1    0    0  502  503 -0.00000000000E+00 -0.00000000000E+00 -0.14280707645E+04  0.14280707645E+04  0.00000000000E+00 0. -1.
    9000007    2    1    2  501    0 -0.49581593741E+03  0.52746359327E+03 -0.23740656373E+03  0.86044600224E+03  0.39994269619E+03 0.  0.
    9000005    1    3    3    0    0 -0.24385927898E+03  0.85533260857E+02 -0.23860809029E+03  0.35173584890E+03  0.99999687468E+00 0.  0.
          4    1    3    3  501    0 -0.25195665843E+03  0.44193033242E+03  0.12015265560E+01  0.50871015333E+03  0.00000000000E+00 0.  1.
   -9000007    1    1    2    0  503  0.49581593741E+03 -0.52746359327E+03 -0.68462261947E+03  0.10736663435E+04  0.40000000000E+03 0. -1.
<mgrwt>
<rscale>  2 0.82706700E+03</rscale>
<asrwt>0</asrwt>
<pdfrwt beam="1">  1       21 0.77852551E-01 0.82707393E+03</pdfrwt>
<pdfrwt beam="2">  1       21 0.21970319E+00 0.82707393E+03</pdfrwt>
<totfact> 0.10064510E+02</totfact>
</mgrwt>
</event>
<event>
 6    1  0.8739326E-004  0.5272954E+03  0.7818608E-02  0.1006958E+00
         21   -1    0    0  501  502  0.00000000000E+00  0.00000000000E+00  0.12184152272E+04  0.12184152272E+04  0.00000000000E+00 0. -1.
         21   -1    0    0  502  503 -0.00000000000E+00 -0.00000000000E+00 -0.26350924720E+03  0.26350924720E+03  0.00000000000E+00 0. -1.
    9000007    2    1    2  501    0 -0.21984531325E+03 -0.26178407520E+03  0.75098028056E+03  0.91761201246E+03  0.40146925141E+03 0.  0.
    9000005    1    3    3    0    0  0.95223886037E+02 -0.52355024411E+02  0.34931797944E+03  0.36583150193E+03  0.99999687468E+00 0.  0.
          4    1    3    3  501    0 -0.31506919928E+03 -0.20942905079E+03  0.40166230113E+03  0.55178051053E+03  0.00000000000E+00 0.  1.
   -9000007    1    1    2    0  503  0.21984531325E+03  0.26178407520E+03  0.20392569940E+03  0.56431246191E+03  0.40000000000E+03 0. -1.
<mgrwt>
<rscale>  2 0.52701572E+03</rscale>
<asrwt>0</asrwt>
<pdfrwt beam="1">  1       21 0.18744849E+00 0.52729539E+03</pdfrwt>
<pdfrwt beam="2">  1       21 0.40539885E-01 0.52729539E+03</pdfrwt>
<totfact> 0.76685720E+02</totfact>
</mgrwt>
</event>
<event>
 6    1  0.8739326E-004  0.4428835E+03  0.7818608E-02  0.1029931E+00
         21   -1    0    0  501  502  0.00000000000E+00  0.00000000000E+00  0.63429872382E+03  0.63429872382E+03  0.00000000000E+00 0.  1.
         21   -1    0    0  502  503 -0.00000000000E+00 -0.00000000000E+00 -0.31231839878E+03  0.31231839878E+03  0.00000000000E+00 0.  1.
    9000007    2    1    2  501    0 -0.15116856778E+02  0.18951856640E+03  0.10941747147E+03  0.45536487264E+03  0.39904783899E+03 0.  0.
    9000005    1    3    3    0    0 -0.15423769278E+03 -0.49780812820E+02  0.14417538286E+02  0.16271527464E+03  0.99999687468E+00 0.  0.
          4    1    3    3  501    0  0.13912083600E+03  0.23929937922E+03  0.94999933182E+02  0.29264959800E+03  0.00000000000E+00 0.  1.
   -9000007    1    1    2    0  503  0.15116856778E+02 -0.18951856640E+03  0.21256285357E+03  0.49125224996E+03  0.40000000000E+03 0.  1.
<mgrwt>
<rscale>  2 0.44266841E+03</rscale>
<asrwt>0</asrwt>
<pdfrwt beam="1">  1       21 0.97584419E-01 0.44288351E+03</pdfrwt>
<pdfrwt beam="2">  1       21 0.48048985E-01 0.44288351E+03</pdfrwt>
<totfact> 0.31416091E+03</totfact>
</mgrwt>
</event>
<event>
 6    1  0.8739326E-004  0.6106034E+03  0.7818608E-02  0.9888089E-01
         21   -1    0    0  501  502  0.00000000000E+00  0.00000000000E+00  0.33292451239E+03  0.33292451239E+03  0.00000000000E+00 0. -1.
         21   -1    0    0  502  503 -0.00000000000E+00 -0.00000000000E+00 -0.12182193594E+04  0.12182193594E+04  0.00000000000E+00 0.  1.
    9000007    2    1    2  501    0  0.31800321499E+03 -0.31808754764E+03 -0.68298510346E+03  0.91613602531E+03  0.41295378994E+03 0.  0.
    9000005    1    3    3    0    0  0.40284571618E+03 -0.25072848037E+03 -0.64626023361E+03  0.80174979355E+03  0.99999687468E+00 0.  0.
          4    1    3    3  501    0 -0.84842501193E+02 -0.67359067274E+02 -0.36724869850E+02  0.11438623177E+03  0.00000000000E+00 0.  1.
   -9000007    1    1    2    0  503 -0.31800321499E+03  0.31808754764E+03 -0.20230974352E+03  0.63500784643E+03  0.40000000000E+03 0.  1.
<mgrwt>
<rscale>  2 0.60842050E+03</rscale>
<asrwt>0</asrwt>
<pdfrwt beam="1">  1       21 0.51219156E-01 0.61060344E+03</pdfrwt>
<pdfrwt beam="2">  1       21 0.18741836E+00 0.61060344E+03</pdfrwt>
<totfact> 0.45428950E+02</totfact>
</mgrwt>
</event>
<event>
 6    1  0.8739326E-004  0.5755644E+03  0.7818608E-02  0.9957863E-01
         21   -1    0    0  501  502  0.00000000000E+00  0.00000000000E+00  0.62961192336E+03  0.62961192336E+03  0.00000000000E+00 0.  1.
         21   -1    0    0  502  503 -0.00000000000E+00 -0.00000000000E+00 -0.53967712728E+03  0.53967712728E+03  0.00000000000E+00 0.  1.
    9000007    2    1    2  501    0 -0.37450367596E+03  0.17612888837E+03  0.13986052017E+03  0.59156336612E+03  0.39888828312E+03 0.  0.
    9000005    1    3    3    0    0 -0.29256968023E+02 -0.11175875208E+03  0.74102293482E+02  0.13725209921E+03  0.99999687468E+00 0.  0.
          4    1    3    3  501    0 -0.34524670793E+03  0.28788764045E+03  0.65758226693E+02  0.45431126691E+03  0.00000000000E+00 0.  1.
   -9000007    1    1    2    0  503  0.37450367596E+03 -0.17612888837E+03 -0.49925724095E+02  0.57772568452E+03  0.40000000000E+03 0.  1.
<mgrwt>
<rscale>  2 0.57537130E+03</rscale>
<asrwt>0</asrwt>
<pdfrwt beam="1">  1       21 0.96863373E-01 0.57556441E+03</pdfrwt>
<pdfrwt beam="2">  1       21 0.83027251E-01 0.57556441E+03</pdfrwt>
<totfact> 0.90791080E+02</totfact>
</mgrwt>
</event>
<event>
 6    1  0.8739326E-004  0.4060149E+03  0.7818608E-02  0.1041774E+00
         21   -1    0    0  501  502  0.00000000000E+00  0.00000000000E+00  0.71777367001E+03  0.71777367001E+03  0.00000000000E+00 0. -1.
         21   -1    0    0  502  503 -0.00000000000E+00 -0.00000000000E+00 -0.24449544871E+03  0.24449544871E+03  0.00000000000E+00 0. -1.
    9000007    2    1    2  501    0 -0.47877207725E+02 -0.50555391516E+02  0.35647338296E+03  0.53978663993E+03  0.39930974099E+03 0.  0.
    9000005    1    3    3    0    0  0.11795201707E+03  0.67471757206E+02  0.78784847632E+01  0.13611828263E+03  0.99999687468E+00 0.  0.
          4    1    3    3  501    0 -0.16582922479E+03 -0.11802714872E+03  0.34859489820E+03  0.40366835729E+03  0.00000000000E+00 0.  1.
   -9000007    1    1    2    0  503  0.47877207725E+02  0.50555391516E+02  0.11680483834E+03  0.42248247880E+03  0.40000000000E+03 0.  1.
<mgrwt>
<rscale>  2 0.40584476E+03</rscale>
<asrwt>0</asrwt>
<pdfrwt beam="1">  1       21 0.11042672E+00 0.40601487E+03</pdfrwt>
<pdfrwt beam="2">  1       21 0.37614685E-01 0.40601487E+03</pdfrwt>
<totfact> 0.39113613E+03</totfact>
</mgrwt>
</event>
<event>
 6    1  0.8739326E-004  0.5414792E+03  0.7818608E-02  0.1003492E+00
         21   -1    0    0  501  502  0.00000000000E+00  0.00000000000E+00  0.87843553162E+03  0.87843553162E+03  0.00000000000E+00 0. -1.
         21   -1    0    0  502  503 -0.00000000000E+00 -0.00000000000E+00 -0.36603076621E+03  0.36603076621E+03  0.00000000000E+00 0. -1.
    9000007    2    1    2  501    0 -0.20519105183E+03  0.30163057070E+03  0.44112677746E+03  0.69842150068E+03  0.40014421136E+03 0.  0.
    9000005    1    3    3    0    0 -0.32056626170E+03  0.27379940334E+03  0.36304341004E+03  0.55635452634E+03  0.99999687468E+00 0.  0.
          4    1    3    3  501    0  0.11537520987E+03  0.27831167363E+02  0.78083367414E+02  0.14206697434E+03  0.00000000000E+00 0.  1.
   -9000007    1    1    2    0  503  0.20519105183E+03 -0.30163057070E+03  0.71277987957E+02  0.54604479716E+03  0.40000000000E+03 0. -1.
<mgrwt>
<rscale>  2 0.54145259E+03</rscale>
<asrwt>0</asrwt>
<pdfrwt beam="1">  1       21 0.13514393E+00 0.54147923E+03</pdfrwt>
<pdfrwt beam="2">  1       21 0.56312426E-01 0.54147923E+03</pdfrwt>
<totfact> 0.95026387E+02</totfact>
</mgrwt>
</event>
<event>
 6    1  0.8739326E-004  0.4152353E+03  0.7818608E-02  0.1039275E+00
         21   -1    0    0  501  502  0.00000000000E+00  0.00000000000E+00  0.74775312053E+03  0.74775312053E+03  0.00000000000E+00 0.  1.
         21   -1    0    0  502  503 -0.00000000000E+00 -0.00000000000E+00 -0.41532716341E+03  0.41532716341E+03  0.00000000000E+00 0.  1.
    9000007    2    1    2  501    0 -0.11144601248E+03 -0.37003229927E+00  0.55767581886E+03  0.69068442151E+03  0.39194680832E+03 0.  0.
    9000005    1    3    3    0    0 -0.17263409420E+03  0.15539731690E+03  0.25579358350E+03  0.34551731351E+03  0.99999687468E+00 0.  0.
          4    1    3    3  501    0  0.61188081723E+02 -0.15576734919E+03  0.30188223536E+03  0.34516710800E+03  0.00000000000E+00 0.  1.
   -9000007    1    1    2    0  503  0.11144601248E+03  0.37003229927E+00 -0.22524986174E+03  0.47239586242E+03  0.40000000000E+03 0.  1.
<mgrwt>
<rscale>  2 0.41328358E+03</rscale>
<asrwt>0</asrwt>
<pdfrwt beam="1">  1       21 0.11503894E+00 0.41523530E+03</pdfrwt>
<pdfrwt beam="2">  1       21 0.63896486E-01 0.41523530E+03</pdfrwt>
<totfact> 0.11448045E+03</totfact>
</mgrwt>
</event>
<event>
 6    1  0.8739326E-004  0.4761804E+03  0.7818608E-02  0.1020262E+00
         21   -1    0    0  501  502  0.00000000000E+00  0.00000000000E+00  0.33813020525E+03  0.33813020525E+03  0.00000000000E+00 0. -1.
         21   -1    0    0  502  503 -0.00000000000E+00 -0.00000000000E+00 -0.83238602016E+03  0.83238602016E+03  0.00000000000E+00 0. -1.
    9000007    2    1    2  501    0  0.25621107998E+03  0.11215342711E+02  0.11835173546E+02  0.47632749746E+03  0.40122052800E+03 0.  0.
    9000005    1    3    3    0    0 -0.37528584702E+01 -0.11920636273E+03  0.11697832392E+03  0.16706037568E+03  0.99999687468E+00 0.  0.
          4    1    3    3  501    0  0.25996393845E+03  0.13042170544E+03 -0.10514315037E+03  0.30926712178E+03  0.00000000000E+00 0.  1.
   -9000007    1    1    2    0  503 -0.25621107998E+03 -0.11215342711E+02 -0.50609098845E+03  0.69418872795E+03  0.40000000000E+03 0. -1.
<mgrwt>
<rscale>  2 0.47592325E+03</rscale>
<asrwt>0</asrwt>
<pdfrwt beam="1">  1       21 0.52020032E-01 0.47618044E+03</pdfrwt>
<pdfrwt beam="2">  1       21 0.12805939E+00 0.47618044E+03</pdfrwt>
<totfact> 0.13291088E+03</totfact>
</mgrwt>
</event>
<event>
 6    1  0.8739326E-004  0.5864386E+03  0.7818608E-02  0.9934068E-01
         21   -1    0    0  501  502  0.00000000000E+00  0.00000000000E+00  0.22284717022E+04  0.22284717022E+04  0.00000000000E+00 0. -1.
         21   -1    0    0  502  503 -0.00000000000E+00 -0.00000000000E+00 -0.25297063992E+03  0.25297063992E+03  0.00000000000E+00 0.  1.
    9000007    2    1    2  501    0 -0.25005479907E+03  0.34802331601E+03  0.17628740125E+04  0.18578576298E+04  0.40032806288E+03 0.  0.
    9000005    1    3    3    0    0 -0.23806118695E+03  0.28345786011E+03  0.17527504727E+04  0.17914119311E+04  0.99999687468E+00 0.  0.
          4    1    3    3  501    0 -0.11993612128E+02  0.64565455903E+02  0.10123539740E+02  0.66445698767E+02  0.00000000000E+00 0.  1.
   -9000007    1    1    2    0  503  0.25005479907E+03 -0.34802331601E+03  0.21262704977E+03  0.62358471223E+03  0.40000000000E+03 0.  1.
<mgrwt>
<rscale>  2 0.58638258E+03</rscale>
<asrwt>0</asrwt>
<pdfrwt beam="1">  1       21 0.34284179E+00 0.58643856E+03</pdfrwt>
<pdfrwt beam="2">  1       21 0.38918561E-01 0.58643856E+03</pdfrwt>
<totfact> 0.86276552E+01</totfact>
</mgrwt>
</event>
<event>
 6    1  0.8739326E-004  0.4014724E+03  0.7818608E-02  0.1043272E+00
         21   -1    0    0  501  502  0.00000000000E+00  0.00000000000E+00  0.33013461320E+03  0.33013461320E+03  0.00000000000E+00 0. -1.
         21   -1    0    0  502  503 -0.00000000000E+00 -0.00000000000E+00 -0.49179443279E+03  0.49179443279E+03  0.00000000000E+00 0. -1.
    9000007    2    1    2  501    0 -0.90134941057E+01  0.32968104856E+02 -0.11592984355E+03  0.41787537416E+03  0.40001495059E+03 0.  0.
    9000005    1    3    3    0    0  0.29240412721E+02  0.95495427064E+01  0.14748866496E+03  0.15066552953E+03  0.99999687468E+00 0.  0.
          4    1    3    3  501    0 -0.38253906826E+02  0.23418562149E+02 -0.26341850851E+03  0.26720984463E+03  0.00000000000E+00 0.  1.
   -9000007    1    1    2    0  503  0.90134941057E+01 -0.32968104856E+02 -0.45729976036E+02  0.40405367183E+03  0.40000000000E+03 0. -1.
<mgrwt>
<rscale>  2 0.40146869E+03</rscale>
<asrwt>0</asrwt>
<pdfrwt beam="1">  1       21 0.50789941E-01 0.40147241E+03</pdfrwt>
<pdfrwt beam="2">  1       21 0.75660682E-01 0.40147241E+03</pdfrwt>
<totfact> 0.51458910E+03</totfact>
</mgrwt>
</event>
<event>
 6    1  0.8739326E-004  0.4028972E+03  0.7818608E-02  0.1043074E+00
         21   -1    0    0  501  502  0.00000000000E+00  0.00000000000E+00  0.77084627968E+03  0.77084627968E+03  0.00000000000E+00 0. -1.
         21   -1    0    0  502  503 -0.00000000000E+00 -0.00000000000E+00 -0.48188887578E+03  0.48188887578E+03  0.00000000000E+00 0. -1.
    9000007    2    1    2  501    0  0.36384657934E+02  0.31659262993E+02  0.61573152846E+03  0.73397945116E+03  0.39657832433E+03 0.  0.
    9000005    1    3    3    0    0 -0.51700783402E+02  0.18675041622E+03  0.45231606798E+03  0.49207673620E+03  0.99999687468E+00 0.  0.
          4    1    3    3  501    0  0.88085441336E+02 -0.15509115323E+03  0.16341546048E+03  0.24190271497E+03  0.00000000000E+00 0.  1.
   -9000007    1    1    2    0  503 -0.36384657934E+02 -0.31659262993E+02 -0.32677412456E+03  0.51875570430E+03  0.40000000000E+03 0.  1.
<mgrwt>
<rscale>  2 0.40204528E+03</rscale>
<asrwt>0</asrwt>
<pdfrwt beam="1">  1       21 0.11859174E+00 0.40289720E+03</pdfrwt>
<pdfrwt beam="2">  1       21 0.74136750E-01 0.40289720E+03</pdfrwt>
<totfact> 0.76478554E+02</totfact>
</mgrwt>
</event>
<event>
 6    1  0.8739326E-004  0.4469041E+03  0.7818608E-02  0.1028730E+00
         21   -1    0    0  501  502  0.00000000000E+00  0.00000000000E+00  0.78228810009E+03  0.78228810009E+03  0.00000000000E+00 0. -1.
         21   -1    0    0  502  503 -0.00000000000E+00 -0.00000000000E+00 -0.25485613831E+03  0.25485613831E+03  0.00000000000E+00 0. -1.
    9000007    2    1    2  501    0 -0.19662752592E+03 -0.32571236685E+02  0.25043298058E+03  0.51135748980E+03  0.39880638812E+03 0.  0.
    9000005    1    3    3    0    0 -0.24877396734E+03  0.40666870577E+02  0.73543688686E+01  0.25218518577E+03  0.99999687468E+00 0.  0.
          4    1    3    3  501    0  0.52146441417E+02 -0.73238107263E+02  0.24307861171E+03  0.25917230403E+03  0.00000000000E+00 0.  1.
   -9000007    1    1    2    0  503  0.19662752592E+03  0.32571236685E+02  0.27699898121E+03  0.52578674859E+03  0.40000000000E+03 0. -1.
<mgrwt>
<rscale>  2 0.44663685E+03</rscale>
<asrwt>0</asrwt>
<pdfrwt beam="1">  1       21 0.12035201E+00 0.44690409E+03</pdfrwt>
<pdfrwt beam="2">  1       21 0.39208637E-01 0.44690409E+03</pdfrwt>
<totfact> 0.28522695E+03</totfact>
</mgrwt>
</event>
<event>
 6    1  0.8739326E-004  0.4202938E+03  0.7818608E-02  0.1036989E+00
         21   -1    0    0  501  502  0.00000000000E+00  0.00000000000E+00  0.52938757821E+03  0.52938757821E+03  0.00000000000E+00 0.  1.
         21   -1    0    0  502  503 -0.00000000000E+00 -0.00000000000E+00 -0.72447352157E+03  0.72447352157E+03  0.00000000000E+00 0.  1.
    9000007    2    1    2  501    0  0.35175697347E+02 -0.12413536328E+03  0.36302308063E+03  0.55519622964E+03  0.39976265237E+03 0.  0.
    9000005    1    3    3    0    0 -0.17434868868E+03 -0.11539340481E+03  0.20291339501E+03  0.29135536547E+03  0.99999687468E+00 0.  0.
          4    1    3    3  501    0  0.20952438602E+03 -0.87419584714E+01  0.16010968562E+03  0.26384086417E+03  0.00000000000E+00 0.  1.
   -9000007    1    1    2    0  503 -0.35175697347E+02  0.12413536328E+03 -0.55810902400E+03  0.69866487014E+03  0.40000000000E+03 0.  1.
<mgrwt>
<rscale>  2 0.42023737E+03</rscale>
<asrwt>0</asrwt>
<pdfrwt beam="1">  1       21 0.81444243E-01 0.42029385E+03</pdfrwt>
<pdfrwt beam="2">  1       21 0.11145747E+00 0.42029385E+03</pdfrwt>
<totfact> 0.71385440E+02</totfact>
</mgrwt>
</event>
<event>
 6    1  0.8739326E-004  0.6546919E+03  0.7818608E-02  0.9798102E-01
         21   -1    0    0  501  502  0.00000000000E+00  0.00000000000E+00  0.19479197091E+03  0.19479197091E+03  0.00000000000E+00 0. -1.
         21   -1    0    0  502  503 -0.00000000000E+00 -0.00000000000E+00 -0.22503650679E+04  0.22503650679E+04  0.00000000000E+00 0.  1.
    9000007    2    1    2  501    0 -0.50247683771E+03  0.12703767715E+03 -0.84433773326E+03  0.10683082271E+04  0.39969327802E+03 0.  0.
    9000005    1    3    3    0    0 -0.17127816916E+03  0.23027400459E+03 -0.51712891966E+03  0.59142679003E+03  0.99999687468E+00 0.  0.
          4    1    3    3  501    0 -0.33119866855E+03 -0.10323632744E+03 -0.32720881359E+03  0.47688143710E+03  0.00000000000E+00 0.  1.
   -9000007    1    1    2    0  503  0.50247683771E+03 -0.12703767715E+03 -0.12112353637E+04  0.13768488116E+04  0.40000000000E+03 0.  1.
<mgrwt>
<rscale>  2 0.65464510E+03</rscale>
<asrwt>0</asrwt>
<pdfrwt beam="1">  1       21 0.29967994E-01 0.65469195E+03</pdfrwt>
<pdfrwt beam="2">  1       21 0.34621002E+00 0.65469195E+03</pdfrwt>
<totfact> 0.13546813E+02</totfact>
</mgrwt>
</event>
<event>
 6    1  0.8739326E-004  0.6485731E+03  0.7818608E-02  0.9809877E-01
         21   -1    0    0  501  502  0.00000000000E+00  0.00000000000E+00  0.45575655621E+03  0.45575655621E+03  0.00000000000E+00 0.  1.
         21   -1    0    0  502  503 -0.00000000000E+00 -0.00000000000E+00 -0.10832786193E+04  0.10832786193E+04  0.00000000000E+00 0. -1.
    9000007    2    1    2  501    0  0.49783011210E+03  0.10800219121E+03 -0.16753636970E+02  0.64878949921E+03  0.40143223103E+03 0.  0.
    9000005    1    3    3    0    0  0.11419431718E+03 -0.10760039393E+03  0.10906508303E+03  0.19108736007E+03  0.99999687468E+00 0.  0.
          4    1    3    3  501    0  0.38363579493E+03  0.21560258514E+03 -0.12581872000E+03  0.45770213914E+03  0.00000000000E+00 0.  1.
   -9000007    1    1    2    0  503 -0.49783011210E+03 -0.10800219121E+03 -0.61076842609E+03  0.89024567628E+03  0.40000000000E+03 0. -1.
<mgrwt>
<rscale>  2 0.64835166E+03</rscale>
<asrwt>0</asrwt>
<pdfrwt beam="1">  1       21 0.70116394E-01 0.64857315E+03</pdfrwt>
<pdfrwt beam="2">  1       21 0.16665825E+00 0.64857315E+03</pdfrwt>
<totfact> 0.31641053E+02</totfact>
</mgrwt>
</event>
<event>
 6    1  0.8739326E-004  0.5468660E+03  0.7818608E-02  0.1002277E+00
         21   -1    0    0  501  502  0.00000000000E+00  0.00000000000E+00  0.12793885392E+04  0.12793885392E+04  0.00000000000E+00 0.  1.
         21   -1    0    0  502  503 -0.00000000000E+00 -0.00000000000E+00 -0.29772530554E+03  0.29772530554E+03  0.00000000000E+00 0. -1.
    9000007    2    1    2  501    0 -0.31738337362E+03  0.19312116559E+03  0.85784342754E+03  0.10173287656E+04  0.40129101741E+03 0.  0.
    9000005    1    3    3    0    0 -0.37013353164E+03  0.15971569360E+03  0.44765346558E+03  0.60241394345E+03  0.99999687468E+00 0.  0.
          4    1    3    3  501    0  0.52750158011E+02  0.33405471991E+02  0.41018996197E+03  0.41491482214E+03  0.00000000000E+00 0.  1.
   -9000007    1    1    2    0  503  0.31738337362E+03 -0.19312116559E+03  0.12381980611E+03  0.55978507915E+03  0.40000000000E+03 0. -1.
<mgrwt>
<rscale>  2 0.54662923E+03</rscale>
<asrwt>0</asrwt>
<pdfrwt beam="1">  1       21 0.19682900E+00 0.54686604E+03</pdfrwt>
<pdfrwt beam="2">  1       21 0.45803894E-01 0.54686604E+03</pdfrwt>
<totfact> 0.50850051E+02</totfact>
</mgrwt>
</event>
<event>
 6    1  0.8739326E-004  0.4418386E+03  0.7818608E-02  0.1030209E+00
         21   -1    0    0  501  502  0.00000000000E+00  0.00000000000E+00  0.23445918833E+03  0.23445918833E+03  0.00000000000E+00 0. -1.
         21   -1    0    0  502  503 -0.00000000000E+00 -0.00000000000E+00 -0.11115126025E+04  0.11115126025E+04  0.00000000000E+00 0. -1.
    9000007    2    1    2  501    0 -0.77250805387E+02 -0.17020151999E+03 -0.10118808214E+03  0.45327740988E+03  0.40035626384E+03 0.  0.
    9000005    1    3    3    0    0 -0.12822779864E+03  0.57972621891E+02  0.75984594105E+02  0.15993077180E+03  0.99999687468E+00 0.  0.
          4    1    3    3  501    0  0.50976993256E+02 -0.22817414188E+03 -0.17717267624E+03  0.29334663808E+03  0.00000000000E+00 0.  1.
   -9000007    1    1    2    0  503  0.77250805387E+02  0.17020151999E+03 -0.77586533201E+03  0.89269438094E+03  0.40000000000E+03 0. -1.
<mgrwt>
<rscale>  2 0.44175792E+03</rscale>
<asrwt>0</asrwt>
<pdfrwt beam="1">  1       21 0.36070645E-01 0.44183864E+03</pdfrwt>
<pdfrwt beam="2">  1       21 0.17100194E+00 0.44183864E+03</pdfrwt>
<totfact> 0.13200486E+03</totfact>
</mgrwt>
</event>
<event>
 6    1  0.8739326E-004  0.5280748E+03  0.7818608E-02  0.1006704E+00
         21   -1    0    0  501  502  0.00000000000E+00  0.00000000000E+00  0.47723228836E+03  0.47723228836E+03  0.00000000000E+00 0. -1.
         21   -1    0    0  502  503 -0.00000000000E+00 -0.00000000000E+00 -0.87700772608E+03  0.87700772608E+03  0.00000000000E+00 0.  1.
    9000007    2    1    2  501    0  0.19152067452E+03 -0.28667554943E+03  0.19133387812E+03  0.56160310975E+03  0.39990794011E+03 0.  0.
    9000005    1    3    3    0    0  0.10831988848E+03 -0.28993328183E+03  0.29572267699E+03  0.42807406817E+03  0.99999687468E+00 0.  0.
          4    1    3    3  501    0  0.83200786039E+02  0.32577324071E+01 -0.10438879887E+03  0.13352904159E+03  0.00000000000E+00 0.  1.
   -9000007    1    1    2    0  503 -0.19152067452E+03  0.28667554943E+03 -0.59110931584E+03  0.79263690469E+03  0.40000000000E+03 0.  1.
<mgrwt>
<rscale>  2 0.52805741E+03</rscale>
<asrwt>0</asrwt>
<pdfrwt beam="1">  1       21 0.73420353E-01 0.52807484E+03</pdfrwt>
<pdfrwt beam="2">  1       21 0.13492426E+00 0.52807484E+03</pdfrwt>
<totfact> 0.53113321E+02</totfact>
</mgrwt>
</event>
<event>
 6    1  0.8739326E-004  0.4049874E+03  0.7818608E-02  0.1042119E+00
         21   -1    0    0  501  502  0.00000000000E+00  0.00000000000E+00  0.25194497696E+03  0.25194497696E+03  0.00000000000E+00 0.  1.
         21   -1    0    0  502  503 -0.00000000000E+00 -0.00000000000E+00 -0.68654761698E+03  0.68654761698E+03  0.00000000000E+00 0.  1.
    9000007    2    1    2  501    0 -0.35130478451E+02 -0.47721290176E+02 -0.10918557712E+03  0.41944756999E+03  0.40062863311E+03 0.  0.
    9000005    1    3    3    0    0 -0.16610624074E+03  0.82628921430E+02  0.30224790593E+02  0.18797169955E+03  0.99999687468E+00 0.  0.
          4    1    3    3  501    0  0.13097576229E+03 -0.13035021161E+03 -0.13941036771E+03  0.23147587045E+03  0.00000000000E+00 0.  1.
   -9000007    1    1    2    0  503  0.35130478451E+02  0.47721290176E+02 -0.32541706290E+03  0.51904502394E+03  0.40000000000E+03 0. -1.
<mgrwt>
<rscale>  2 0.40483182E+03</rscale>
<asrwt>0</asrwt>
<pdfrwt beam="1">  1       21 0.38760766E-01 0.40498737E+03</pdfrwt>
<pdfrwt beam="2">  1       21 0.10562271E+00 0.40498737E+03</pdfrwt>
<totfact> 0.41071035E+03</totfact>
</mgrwt>
</event>
<event>
 6    1  0.8739326E-004  0.5303566E+03  0.7818608E-02  0.1006147E+00
         21   -1    0    0  501  502  0.00000000000E+00  0.00000000000E+00  0.87259625214E+03  0.87259625214E+03  0.00000000000E+00 0.  1.
         21   -1    0    0  502  503 -0.00000000000E+00 -0.00000000000E+00 -0.92925038106E+03  0.92925038106E+03  0.00000000000E+00 0. -1.
    9000007    2    1    2  501    0  0.33539501121E+03  0.93745764135E+02  0.69976312162E+03  0.87802568803E+03  0.39997825019E+03 0.  0.
    9000005    1    3    3    0    0  0.23654097082E+03 -0.14031109160E+03  0.33372788668E+03  0.43245131014E+03  0.99999687468E+00 0.  0.
          4    1    3    3  501    0  0.98854040393E+02  0.23405685573E+03  0.36603523493E+03  0.44557437789E+03  0.00000000000E+00 0.  1.
   -9000007    1    1    2    0  503 -0.33539501121E+03 -0.93745764135E+02 -0.75641725053E+03  0.92382094517E+03  0.40000000000E+03 0. -1.
<mgrwt>
<rscale>  2 0.53035246E+03</rscale>
<asrwt>0</asrwt>
<pdfrwt beam="1">  1       21 0.13424558E+00 0.53035656E+03</pdfrwt>
<pdfrwt beam="2">  1       21 0.14296160E+00 0.53035656E+03</pdfrwt>
<totfact> 0.10427032E+02</totfact>
</mgrwt>
</event>
<event>
 6    1  0.8739326E-004  0.4091208E+03  0.7818608E-02  0.1040930E+00
         21   -1    0    0  501  502  0.00000000000E+00  0.00000000000E+00  0.32062109383E+03  0.32062109383E+03  0.00000000000E+00 0. -1.
         21   -1    0    0  502  503 -0.00000000000E+00 -0.00000000000E+00 -0.51810462288E+03  0.51810462288E+03  0.00000000000E+00 0. -1.
    9000007    2    1    2  501    0  0.68407556952E+02 -0.51963797104E+02 -0.94985499741E+02  0.41696076312E+03  0.39680499337E+03 0.  0.
    9000005    1    3    3    0    0 -0.81961508902E+02 -0.59075443694E+02 -0.20631644531E+03  0.22972825814E+03  0.99999687468E+00 0.  0.
          4    1    3    3  501    0  0.15036906585E+03  0.71116465897E+01  0.11133094557E+03  0.18723250499E+03  0.00000000000E+00 0.  1.
   -9000007    1    1    2    0  503 -0.68407556952E+02  0.51963797104E+02 -0.10249802931E+03  0.42176495358E+03  0.40000000000E+03 0. -1.
<mgrwt>
<rscale>  2 0.40833775E+03</rscale>
<asrwt>0</asrwt>
<pdfrwt beam="1">  1       21 0.49326323E-01 0.40912080E+03</pdfrwt>
<pdfrwt beam="2">  1       21 0.79708403E-01 0.40912080E+03</pdfrwt>
<totfact> 0.48453877E+03</totfact>
</mgrwt>
</event>
<event>
 6    1  0.8739326E-004  0.4836889E+03  0.7818608E-02  0.1018129E+00
         21   -1    0    0  501  502  0.00000000000E+00  0.00000000000E+00  0.12926694413E+04  0.12926694413E+04  0.00000000000E+00 0. -1.
         21   -1    0    0  502  503 -0.00000000000E+00 -0.00000000000E+00 -0.26313390132E+03  0.26313390132E+03  0.00000000000E+00 0. -1.
    9000007    2    1    2  501    0 -0.23444187327E+03 -0.13781134742E+03  0.94943923637E+03  0.10655275251E+04  0.39994885138E+03 0.  0.
    9000005    1    3    3    0    0 -0.14846025990E+03 -0.27682334189E+03  0.70071033098E+03  0.76789815687E+03  0.99999687468E+00 0.  0.
          4    1    3    3  501    0 -0.85981613374E+02  0.13901199447E+03  0.24872890539E+03  0.29762936821E+03  0.00000000000E+00 0.  1.
   -9000007    1    1    2    0  503  0.23444187327E+03  0.13781134742E+03  0.80096303620E+02  0.49027581755E+03  0.40000000000E+03 0. -1.
<mgrwt>
<rscale>  2 0.48367833E+03</rscale>
<asrwt>0</asrwt>
<pdfrwt beam="1">  1       21 0.19887222E+00 0.48368891E+03</pdfrwt>
<pdfrwt beam="2">  1       21 0.40482139E-01 0.48368891E+03</pdfrwt>
<totfact> 0.65451191E+02</totfact>
</mgrwt>
</event>
<event>
 6    1  0.8739326E-004  0.4475789E+03  0.7818608E-02  0.1028450E+00
         21   -1    0    0  501  502  0.00000000000E+00  0.00000000000E+00  0.14135155658E+04  0.14135155658E+04  0.00000000000E+00 0. -1.
         21   -1    0    0  502  503 -0.00000000000E+00 -0.00000000000E+00 -0.17178872555E+03  0.17178872555E+03  0.00000000000E+00 0. -1.
    9000007    2    1    2  501    0 -0.67257434923E+02  0.18921755341E+03  0.95252743460E+03  0.10524223708E+04  0.39994685616E+03 0.  0.
    9000005    1    3    3    0    0  0.84774205825E+02  0.19110163421E+03  0.83352984788E+03  0.85934830416E+03  0.99999687468E+00 0.  0.
          4    1    3    3  501    0 -0.15203164075E+03 -0.18840808079E+01  0.11899758672E+03  0.19307406660E+03  0.00000000000E+00 0.  1.
   -9000007    1    1    2    0  503  0.67257434923E+02 -0.18921755341E+03  0.28919940567E+03  0.53288192061E+03  0.40000000000E+03 0. -1.
<mgrwt>
<rscale>  2 0.44756700E+03</rscale>
<asrwt>0</asrwt>
<pdfrwt beam="1">  1       21 0.21746393E+00 0.44757887E+03</pdfrwt>
<pdfrwt beam="2">  1       21 0.26429035E-01 0.44757887E+03</pdfrwt>
<totfact> 0.11839274E+03</totfact>
</mgrwt>
</event>
<event>
 6    1  0.8739326E-004  0.4815684E+03  0.7818608E-02  0.1018705E+00
         21   -1    0    0  501  502  0.00000000000E+00  0.00000000000E+00  0.32593744736E+03  0.32593744736E+03  0.00000000000E+00 0. -1.
         21   -1    0    0  502  503 -0.00000000000E+00 -0.00000000000E+00 -0.72031513374E+03  0.72031513374E+03  0.00000000000E+00 0. -1.
    9000007    2    1    2  501    0  0.26811054236E+03 -0.48426646187E+01 -0.25503061055E+03  0.54493000843E+03  0.40000173430E+03 0.  0.
    9000005    1    3    3    0    0  0.30935882920E+03 -0.19185075068E+02 -0.33339497589E+03  0.45521880701E+03  0.99999687468E+00 0.  0.
          4    1    3    3  501    0 -0.41248286843E+02  0.14342410449E+02  0.78364365339E+02  0.89711201418E+02  0.00000000000E+00 0.  1.
   -9000007    1    1    2    0  503 -0.26811054236E+03  0.48426646187E+01 -0.13934707583E+03  0.50132257267E+03  0.40000000000E+03 0. -1.
<mgrwt>
<rscale>  2 0.48156802E+03</rscale>
<asrwt>0</asrwt>
<pdfrwt beam="1">  1       21 0.50144223E-01 0.48156838E+03</pdfrwt>
<pdfrwt beam="2">  1       21 0.11081771E+00 0.48156838E+03</pdfrwt>
<totfact> 0.20710695E+03</totfact>
</mgrwt>
</event>
<event>
 6    1  0.8739326E-004  0.4452054E+03  0.7818608E-02  0.1029184E+00
         21   -1    0    0  501  502  0.00000000000E+00  0.00000000000E+00  0.53130394367E+03  0.53130394367E+03  0.00000000000E+00 0. -1.
         21   -1    0    0  502  503 -0.00000000000E+00 -0.00000000000E+00 -0.40815578914E+03  0.40815578914E+03  0.00000000000E+00 0. -1.
    9000007    2    1    2  501    0 -0.18665472644E+03 -0.55725140662E+02  0.19981911265E+03  0.48799133522E+03  0.40032809953E+03 0.  0.
    9000005    1    3    3    0    0 -0.23225548297E+03  0.11970333244E+03  0.91578606904E+02  0.27687386732E+03  0.99999687468E+00 0.  0.
          4    1    3    3  501    0  0.45600756529E+02 -0.17542847310E+03  0.10824050574E+03  0.21111746791E+03  0.00000000000E+00 0.  1.
   -9000007    1    1    2    0  503  0.18665472644E+03  0.55725140662E+02 -0.76670958122E+02  0.45146839759E+03  0.40000000000E+03 0. -1.
<mgrwt>
<rscale>  2 0.44513165E+03</rscale>
<asrwt>0</asrwt>
<pdfrwt beam="1">  1       21 0.81739068E-01 0.44520542E+03</pdfrwt>
<pdfrwt beam="2">  1       21 0.62793198E-01 0.44520542E+03</pdfrwt>
<totfact> 0.26776897E+03</totfact>
</mgrwt>
</event>
<event>
 6    1  0.8739326E-004  0.4489928E+03  0.7818608E-02  0.1028031E+00
         21   -1    0    0  501  502  0.00000000000E+00  0.00000000000E+00  0.32919714632E+04  0.32919714632E+04  0.00000000000E+00 0.  1.
         21   -1    0    0  502  503 -0.00000000000E+00 -0.00000000000E+00 -0.14117193686E+03  0.14117193686E+03  0.00000000000E+00 0. -1.
    9000007    2    1    2  501    0  0.20290823990E+03 -0.18060375141E+02  0.28672735736E+04  0.29022150651E+04  0.40012074104E+03 0.  0.
    9000005    1    3    3    0    0 -0.73213190320E+02 -0.73582324175E+02  0.26282499725E+03  0.28258186220E+03  0.99999687468E+00 0.  0.
          4    1    3    3  501    0  0.27612143022E+03  0.55521949034E+02  0.26044485763E+04  0.26196332029E+04  0.00000000000E+00 0.  1.
   -9000007    1    1    2    0  503 -0.20290823990E+03  0.18060375141E+02  0.28352595277E+03  0.53092833496E+03  0.40000000000E+03 0. -1.
<mgrwt>
<rscale>  2 0.44896590E+03</rscale>
<asrwt>0</asrwt>
<pdfrwt beam="1">  1       21 0.50645709E+00 0.44899280E+03</pdfrwt>
<pdfrwt beam="2">  1       21 0.21718762E-01 0.44899280E+03</pdfrwt>
<totfact> 0.24680683E+01</totfact>
</mgrwt>
</event>
<event>
 6    1  0.8739326E-004  0.4539916E+03  0.7818608E-02  0.1026556E+00
         21   -1    0    0  501  502  0.00000000000E+00  0.00000000000E+00  0.24781501225E+03  0.24781501225E+03  0.00000000000E+00 0. -1.
         21   -1    0    0  502  503 -0.00000000000E+00 -0.00000000000E+00 -0.12539220699E+04  0.12539220699E+04  0.00000000000E+00 0. -1.
    9000007    2    1    2  501    0 -0.21442012105E+03  0.11506707518E+02 -0.67026021917E+02  0.45867352498E+03  0.39972555869E+03 0.  0.
    9000005    1    3    3    0    0 -0.24399951268E+03  0.89230232423E+01  0.11806813967E+03  0.27121295716E+03  0.99999687468E+00 0.  0.
          4    1    3    3  501    0  0.29579391631E+02  0.25836842758E+01 -0.18509416158E+03  0.18746056782E+03  0.00000000000E+00 0.  1.
   -9000007    1    1    2    0  503  0.21442012105E+03 -0.11506707518E+02 -0.93908103570E+03  0.10430635571E+04  0.40000000000E+03 0. -1.
<mgrwt>
<rscale>  2 0.45393116E+03</rscale>
<asrwt>0</asrwt>
<pdfrwt beam="1">  1       21 0.38125387E-01 0.45399162E+03</pdfrwt>
<pdfrwt beam="2">  1       21 0.19291109E+00 0.45399162E+03</pdfrwt>
<totfact> 0.82341958E+02</totfact>
</mgrwt>
</event>
<event>
 6    1  0.8739326E-004  0.4097701E+03  0.7818608E-02  0.1040454E+00
         21   -1    0    0  501  502  0.00000000000E+00  0.00000000000E+00  0.24781180639E+03  0.24781180639E+03  0.00000000000E+00 0. -1.
         21   -1    0    0  502  503 -0.00000000000E+00 -0.00000000000E+00 -0.77311658379E+03  0.77311658379E+03  0.00000000000E+00 0. -1.
    9000007    2    1    2  501    0 -0.73884214389E+02  0.48902435472E+02 -0.83110877643E+02  0.41811351784E+03  0.40007645580E+03 0.  0.
    9000005    1    3    3    0    0 -0.13578957207E+03  0.20211060001E+03 -0.34891640260E+02  0.24597952978E+03  0.99999687468E+00 0.  0.
          4    1    3    3  501    0  0.61905357677E+02 -0.15320816454E+03 -0.48219237383E+02  0.17213398805E+03  0.00000000000E+00 0.  1.
   -9000007    1    1    2    0  503  0.73884214389E+02 -0.48902435472E+02 -0.44219389976E+03  0.60281487234E+03  0.40000000000E+03 0. -1.
<mgrwt>
<rscale>  2 0.40975139E+03</rscale>
<asrwt>0</asrwt>
<pdfrwt beam="1">  1       21 0.38124894E-01 0.40977005E+03</pdfrwt>
<pdfrwt beam="2">  1       21 0.11894101E+00 0.40977005E+03</pdfrwt>
<totfact> 0.31570383E+03</totfact>
</mgrwt>
</event>
<event>
 6    1  0.8739326E-004  0.4255802E+03  0.7818608E-02  0.1035333E+00
         21   -1    0    0  501  502  0.00000000000E+00  0.00000000000E+00  0.17044470370E+04  0.17044470370E+04  0.00000000000E+00 0. -1.
         21   -1    0    0  502  503 -0.00000000000E+00 -0.00000000000E+00 -0.18398020451E+03  0.18398020451E+03  0.00000000000E+00 0.  1.
    9000007    2    1    2  501    0  0.11688313398E+03 -0.86352790515E+02  0.13743116458E+04  0.14384496754E+04  0.39910712520E+03 0.  0.
    9000005    1    3    3    0    0  0.14357756812E+03  0.12951234083E+03  0.46736685985E+03  0.50578725387E+03  0.99999687468E+00 0.  0.
          4    1    3    3  501    0 -0.26694434136E+02 -0.21586513135E+03  0.90694478594E+03  0.93266242150E+03  0.00000000000E+00 0.  1.
   -9000007    1    1    2    0  503 -0.11688313398E+03  0.86352790515E+02  0.14615518671E+03  0.44997756615E+03  0.40000000000E+03 0.  1.
<mgrwt>
<rscale>  2 0.42537023E+03</rscale>
<asrwt>0</asrwt>
<pdfrwt beam="1">  1       21 0.26222261E+00 0.42558016E+03</pdfrwt>
<pdfrwt beam="2">  1       21 0.28304648E-01 0.42558016E+03</pdfrwt>
<totfact> 0.55151812E+02</totfact>
</mgrwt>
</event>
<event>
 6    1  0.8739326E-004  0.4256414E+03  0.7818608E-02  0.1035265E+00
         21   -1    0    0  501  502  0.00000000000E+00  0.00000000000E+00  0.88273959034E+03  0.88273959034E+03  0.00000000000E+00 0. -1.
         21   -1    0    0  502  503 -0.00000000000E+00 -0.00000000000E+00 -0.23118017696E+03  0.23118017696E+03  0.00000000000E+00 0.  1.
    9000007    2    1    2  501    0 -0.61186309694E+02 -0.13201068817E+03  0.51269251530E+03  0.66619820018E+03  0.39974471903E+03 0.  0.
    9000005    1    3    3    0    0 -0.18805231779E+03  0.46484515129E+02  0.32220993829E+03  0.37595841353E+03  0.99999687468E+00 0.  0.
          4    1    3    3  501    0  0.12686600810E+03 -0.17849520330E+03  0.19048257700E+03  0.29023978665E+03  0.00000000000E+00 0.  1.
   -9000007    1    1    2    0  503  0.61186309694E+02  0.13201068817E+03  0.13886689808E+03  0.44772156712E+03  0.40000000000E+03 0.  1.
<mgrwt>
<rscale>  2 0.42558140E+03</rscale>
<asrwt>0</asrwt>
<pdfrwt beam="1">  1       21 0.13580609E+00 0.42564138E+03</pdfrwt>
<pdfrwt beam="2">  1       21 0.35566182E-01 0.42564138E+03</pdfrwt>
<totfact> 0.25678881E+03</totfact>
</mgrwt>
</event>
<event>
 6    1  0.8739326E-004  0.5206359E+03  0.7818608E-02  0.1008544E+00
         21   -1    0    0  501  502  0.00000000000E+00  0.00000000000E+00  0.13689478701E+04  0.13689478701E+04  0.00000000000E+00 0.  1.
         21   -1    0    0  502  503 -0.00000000000E+00 -0.00000000000E+00 -0.28829611132E+03  0.28829611132E+03  0.00000000000E+00 0. -1.
    9000007    2    1    2  501    0  0.28605643085E+03  0.17024356361E+03  0.10043645676E+04  0.11312868652E+04  0.40031317007E+03 0.  0.
    9000005    1    3    3    0    0  0.42786317059E+02  0.26076935449E+02 -0.30375080021E+02  0.58603079867E+02  0.99999687468E+00 0.  0.
          4    1    3    3  501    0  0.24327011379E+03  0.14416662816E+03  0.10347396476E+04  0.10726837853E+04  0.00000000000E+00 0.  1.
   -9000007    1    1    2    0  503 -0.28605643085E+03 -0.17024356361E+03  0.76287191195E+02  0.52595711624E+03  0.40000000000E+03 0. -1.
<mgrwt>
<rscale>  2 0.52057575E+03</rscale>
<asrwt>0</asrwt>
<pdfrwt beam="1">  1       21 0.21060736E+00 0.52063594E+03</pdfrwt>
<pdfrwt beam="2">  1       21 0.44353249E-01 0.52063594E+03</pdfrwt>
<totfact> 0.44527461E+02</totfact>
</mgrwt>
</event>
<event>
 6    1  0.8739326E-004  0.5528617E+03  0.7818608E-02  0.1000838E+00
         21   -1    0    0  501  502  0.00000000000E+00  0.00000000000E+00  0.30963508946E+03  0.30963508946E+03  0.00000000000E+00 0. -1.
         21   -1    0    0  502  503 -0.00000000000E+00 -0.00000000000E+00 -0.12352785893E+04  0.12352785893E+04  0.00000000000E+00 0. -1.
    9000007    2    1    2  501    0 -0.26726017376E+03  0.27244822786E+03 -0.11650621279E+03  0.56493450213E+03  0.39990155880E+03 0.  0.
    9000005    1    3    3    0    0 -0.33307292231E+03  0.71063058682E+02 -0.81627591550E+02  0.35021649530E+03  0.99999687468E+00 0.  0.
          4    1    3    3  501    0  0.65812748549E+02  0.20138516918E+03 -0.34878621243E+02  0.21471800683E+03  0.00000000000E+00 0.  1.
   -9000007    1    1    2    0  503  0.26726017376E+03 -0.27244822786E+03 -0.80913728701E+03  0.97997917660E+03  0.40000000000E+03 0. -1.
<mgrwt>
<rscale>  2 0.55284387E+03</rscale>
<asrwt>0</asrwt>
<pdfrwt beam="1">  1       21 0.47636169E-01 0.55286168E+03</pdfrwt>
<pdfrwt beam="2">  1       21 0.19004285E+00 0.55286168E+03</pdfrwt>
<totfact> 0.51957280E+02</totfact>
</mgrwt>
</event>
<event>
 6    1  0.8739326E-004  0.4905774E+03  0.7818608E-02  0.1016919E+00
         21   -1    0    0  501  502  0.00000000000E+00  0.00000000000E+00  0.77998846623E+03  0.77998846623E+03  0.00000000000E+00 0.  1.
         21   -1    0    0  502  503 -0.00000000000E+00 -0.00000000000E+00 -0.59347475049E+03  0.59347475049E+03  0.00000000000E+00 0.  1.
    9000007    2    1    2  501    0  0.86276726965E+02  0.27059652290E+03  0.57360868729E+03  0.74855628860E+03  0.38812812220E+03 0.  0.
    9000005    1    3    3    0    0 -0.14889293539E+03  0.74057616262E+02  0.13893060831E+03  0.21669414079E+03  0.99999687468E+00 0.  0.
          4    1    3    3  501    0  0.23516966236E+03  0.19653890663E+03  0.43467807898E+03  0.53186214780E+03  0.00000000000E+00 0.  1.
   -9000007    1    1    2    0  503 -0.86276726965E+02 -0.27059652290E+03 -0.38709497155E+03  0.62490692813E+03  0.40000000000E+03 0.  1.
<mgrwt>
<rscale>  2 0.48815173E+03</rscale>
<asrwt>0</asrwt>
<pdfrwt beam="1">  1       21 0.11999823E+00 0.49057737E+03</pdfrwt>
<pdfrwt beam="2">  1       21 0.91303808E-01 0.49057737E+03</pdfrwt>
<totfact> 0.43965656E+02</totfact>
</mgrwt>
</event>
<event>
 6    1  0.8739326E-004  0.4422105E+03  0.7818608E-02  0.1030228E+00
         21   -1    0    0  501  502  0.00000000000E+00  0.00000000000E+00  0.39499404630E+03  0.39499404630E+03  0.00000000000E+00 0. -1.
         21   -1    0    0  502  503 -0.00000000000E+00 -0.00000000000E+00 -0.49624984888E+03  0.49624984888E+03  0.00000000000E+00 0. -1.
    9000007    2    1    2  501    0 -0.18087651357E+03 -0.53233202276E+02 -0.87833437699E+02  0.44882978276E+03  0.39772273525E+03 0.  0.
    9000005    1    3    3    0    0 -0.19892064211E+03 -0.36675827042E+02 -0.22900675958E+03  0.30554808798E+03  0.99999687468E+00 0.  0.
          4    1    3    3  501    0  0.18044128534E+02 -0.16557375234E+02  0.14117332188E+03  0.14328169478E+03  0.00000000000E+00 0.  1.
   -9000007    1    1    2    0  503  0.18087651357E+03  0.53233202276E+02 -0.13422364880E+02  0.44241411242E+03  0.40000000000E+03 0. -1.
<mgrwt>
<rscale>  2 0.44169485E+03</rscale>
<asrwt>0</asrwt>
<pdfrwt beam="1">  1       21 0.60768315E-01 0.44221046E+03</pdfrwt>
<pdfrwt beam="2">  1       21 0.76346131E-01 0.44221046E+03</pdfrwt>
<totfact> 0.33717876E+03</totfact>
</mgrwt>
</event>
<event>
 6    1  0.8739326E-004  0.5934961E+03  0.7818608E-02  0.9919017E-01
         21   -1    0    0  501  502  0.00000000000E+00  0.00000000000E+00  0.22070219361E+03  0.22070219361E+03  0.00000000000E+00 0. -1.
         21   -1    0    0  502  503 -0.00000000000E+00 -0.00000000000E+00 -0.16344113129E+04  0.16344113129E+04  0.00000000000E+00 0. -1.
    9000007    2    1    2  501    0 -0.14894645446E+03 -0.41237429461E+03 -0.56436943396E+03  0.81895931613E+03  0.39992986677E+03 0.  0.
    9000005    1    3    3    0    0 -0.16622310688E+03 -0.12035842836E+02 -0.65466652210E+02  0.17905827353E+03  0.99999687468E+00 0.  0.
          4    1    3    3  501    0  0.17276652418E+02 -0.40033845177E+03 -0.49890278175E+03  0.63990104261E+03  0.00000000000E+00 0.  1.
   -9000007    1    1    2    0  503  0.14894645446E+03  0.41237429461E+03 -0.84933968533E+03  0.10361541904E+04  0.40000000000E+03 0. -1.
<mgrwt>
<rscale>  2 0.59348427E+03</rscale>
<asrwt>0</asrwt>
<pdfrwt beam="1">  1       21 0.33954183E-01 0.59349609E+03</pdfrwt>
<pdfrwt beam="2">  1       21 0.25144790E+00 0.59349609E+03</pdfrwt>
<totfact> 0.41214880E+02</totfact>
</mgrwt>
</event>
<event>
 6    1  0.8739326E-004  0.5739398E+03  0.7818608E-02  0.9961883E-01
         21   -1    0    0  501  502  0.00000000000E+00  0.00000000000E+00  0.68142120511E+03  0.68142120511E+03  0.00000000000E+00 0.  1.
         21   -1    0    0  502  503 -0.00000000000E+00 -0.00000000000E+00 -0.52540606181E+03  0.52540606181E+03  0.00000000000E+00 0. -1.
    9000007    2    1    2  501    0  0.25406906108E+03  0.32095179104E+03  0.25143292407E+03  0.62659826656E+03  0.40230054980E+03 0.  0.
    9000005    1    3    3    0    0  0.30344113737E+02  0.15731144330E+03 -0.92401155163E+02  0.18495034172E+03  0.99999687468E+00 0.  0.
          4    1    3    3  501    0  0.22372494734E+03  0.16364034774E+03  0.34383407924E+03  0.44164792484E+03  0.00000000000E+00 0.  1.
   -9000007    1    1    2    0  503 -0.25406906108E+03 -0.32095179104E+03 -0.95417780766E+02  0.58022900036E+03  0.40000000000E+03 0.  1.
<mgrwt>
<rscale>  2 0.57353680E+03</rscale>
<asrwt>0</asrwt>
<pdfrwt beam="1">  1       21 0.10483403E+00 0.57393978E+03</pdfrwt>
<pdfrwt beam="2">  1       21 0.80831701E-01 0.57393978E+03</pdfrwt>
<totfact> 0.79663442E+02</totfact>
</mgrwt>
</event>
<event>
 6    1  0.8739326E-004  0.4442507E+03  0.7818608E-02  0.1029473E+00
         21   -1    0    0  501  502  0.00000000000E+00  0.00000000000E+00  0.24140546427E+04  0.24140546427E+04  0.00000000000E+00 0. -1.
         21   -1    0    0  502  503 -0.00000000000E+00 -0.00000000000E+00 -0.81749581692E+02  0.81749581692E+02  0.00000000000E+00 0. -1.
    9000007    2    1    2  501    0  0.59429689857E+02  0.18320455224E+03  0.11974101100E+04  0.12771646773E+04  0.40032842183E+03 0.  0.
    9000005    1    3    3    0    0  0.26099250321E+02  0.22150734564E+03  0.27828119906E+03  0.35663440774E+03  0.99999687468E+00 0.  0.
          4    1    3    3  501    0  0.33330439536E+02 -0.38302793399E+02  0.91912891097E+03  0.92053026956E+03  0.00000000000E+00 0.  1.
   -9000007    1    1    2    0  503 -0.59429689857E+02 -0.18320455224E+03  0.11348949510E+04  0.12186395471E+04  0.40000000000E+03 0. -1.
<mgrwt>
<rscale>  2 0.44417665E+03</rscale>
<asrwt>0</asrwt>
<pdfrwt beam="1">  1       21 0.37139297E+00 0.44425065E+03</pdfrwt>
<pdfrwt beam="2">  1       21 0.12576861E-01 0.44425065E+03</pdfrwt>
<totfact> 0.55194078E+02</totfact>
</mgrwt>
</event>
<event>
 6    1  0.8739326E-004  0.4232521E+03  0.7818608E-02  0.1036113E+00
         21   -1    0    0  501  502  0.00000000000E+00  0.00000000000E+00  0.15519115964E+04  0.15519115964E+04  0.00000000000E+00 0. -1.
         21   -1    0    0  502  503 -0.00000000000E+00 -0.00000000000E+00 -0.18569776750E+03  0.18569776750E+03  0.00000000000E+00 0. -1.
    9000007    2    1    2  501    0  0.45517737261E+02  0.13065409855E+03  0.12181927870E+04  0.12892204850E+04  0.39868964715E+03 0.  0.
    9000005    1    3    3    0    0 -0.15905412073E+03  0.11932126071E+03  0.41305217740E+03  0.45841997974E+03  0.99999687468E+00 0.  0.
          4    1    3    3  501    0  0.20457185799E+03  0.11332837849E+02  0.80514060960E+03  0.83080050525E+03  0.00000000000E+00 0.  1.
   -9000007    1    1    2    0  503 -0.45517737261E+02 -0.13065409855E+03  0.14802104189E+03  0.44838887890E+03  0.40000000000E+03 0. -1.
<mgrwt>
<rscale>  2 0.42294224E+03</rscale>
<asrwt>0</asrwt>
<pdfrwt beam="1">  1       21 0.23875562E+00 0.42325212E+03</pdfrwt>
<pdfrwt beam="2">  1       21 0.28568888E-01 0.42325212E+03</pdfrwt>
<totfact> 0.75491341E+02</totfact>
</mgrwt>
</event>
<event>
 6    1  0.8739326E-004  0.5542554E+03  0.7818608E-02  0.1000554E+00
         21   -1    0    0  501  502  0.00000000000E+00  0.00000000000E+00  0.69991707960E+03  0.69991707960E+03  0.00000000000E+00 0. -1.
         21   -1    0    0  502  503 -0.00000000000E+00 -0.00000000000E+00 -0.44089665490E+03  0.44089665490E+03  0.00000000000E+00 0. -1.
    9000007    2    1    2  501    0  0.81671866950E+02 -0.37487160690E+03  0.17276410731E+03  0.57988667347E+03  0.39902644246E+03 0.  0.
    9000005    1    3    3    0    0  0.17700153436E+03 -0.41228867978E+03  0.16149970602E+03  0.47685915497E+03  0.99999687468E+00 0.  0.
          4    1    3    3  501    0 -0.95329667409E+02  0.37417072884E+02  0.11264401287E+02  0.10302751850E+03  0.00000000000E+00 0.  1.
   -9000007    1    1    2    0  503 -0.81671866950E+02  0.37487160690E+03  0.86256317389E+02  0.56092706103E+03  0.40000000000E+03 0. -1.
<mgrwt>
<rscale>  2 0.55407974E+03</rscale>
<asrwt>0</asrwt>
<pdfrwt beam="1">  1       21 0.10767955E+00 0.55425537E+03</pdfrwt>
<pdfrwt beam="2">  1       21 0.67830255E-01 0.55425537E+03</pdfrwt>
<totfact> 0.11206124E+03</totfact>
</mgrwt>
</event>
<event>
 6    1  0.8739326E-004  0.4382873E+03  0.7818608E-02  0.1031288E+00
         21   -1    0    0  501  502  0.00000000000E+00  0.00000000000E+00  0.99312685617E+03  0.99312685617E+03  0.00000000000E+00 0. -1.
         21   -1    0    0  502  503 -0.00000000000E+00 -0.00000000000E+00 -0.19785341406E+03  0.19785341406E+03  0.00000000000E+00 0. -1.
    9000007    2    1    2  501    0 -0.17624686346E+03  0.29556494081E+02  0.48760767073E+03  0.65563480224E+03  0.40019896319E+03 0.  0.
    9000005    1    3    3    0    0 -0.17159454246E+03  0.27295131784E+02  0.55832059554E+03  0.58473292931E+03  0.99999687468E+00 0.  0.
          4    1    3    3  501    0 -0.46523210067E+01  0.22613622970E+01 -0.70712924811E+02  0.70901872934E+02  0.00000000000E+00 0.  1.
   -9000007    1    1    2    0  503  0.17624686346E+03 -0.29556494081E+02  0.30766577138E+03  0.53534546799E+03  0.40000000000E+03 0. -1.
<mgrwt>
<rscale>  2 0.43824187E+03</rscale>
<asrwt>0</asrwt>
<pdfrwt beam="1">  1       21 0.15278874E+00 0.43828730E+03</pdfrwt>
<pdfrwt beam="2">  1       21 0.30438987E-01 0.43828730E+03</pdfrwt>
<totfact> 0.25466956E+03</totfact>
</mgrwt>
</event>
<event>
 6    1  0.8739326E-004  0.6039354E+03  0.7818608E-02  0.9897731E-01
         21   -1    0    0  501  502  0.00000000000E+00  0.00000000000E+00  0.89442306834E+03  0.89442306834E+03  0.00000000000E+00 0. -1.
         21   -1    0    0  502  503 -0.00000000000E+00 -0.00000000000E+00 -0.40880187714E+03  0.40880187714E+03  0.00000000000E+00 0. -1.
    9000007    2    1    2  501    0 -0.41610364849E+03 -0.17775195106E+03  0.20175558042E+03  0.63590366799E+03  0.39866045495E+03 0.  0.
    9000005    1    3    3    0    0 -0.31425823657E+03 -0.25655796513E+03  0.11105939147E+02  0.40583810886E+03  0.99999687468E+00 0.  0.
          4    1    3    3  501    0 -0.10184541192E+03  0.78806014071E+02  0.19064964127E+03  0.23006555914E+03  0.00000000000E+00 0.  1.
   -9000007    1    1    2    0  503  0.41610364849E+03  0.17775195106E+03  0.28386561078E+03  0.66732127748E+03  0.40000000000E+03 0. -1.
<mgrwt>
<rscale>  2 0.60371371E+03</rscale>
<asrwt>0</asrwt>
<pdfrwt beam="1">  1       21 0.13760355E+00 0.60393543E+03</pdfrwt>
<pdfrwt beam="2">  1       21 0.62892597E-01 0.60393543E+03</pdfrwt>
<totfact> 0.69563737E+02</totfact>
</mgrwt>
</event>
<event>
 6    1  0.8739326E-004  0.4048014E+03  0.7818608E-02  0.1042313E+00
         21   -1    0    0  501  502  0.00000000000E+00  0.00000000000E+00  0.14478384589E+04  0.14478384589E+04  0.00000000000E+00 0.  1.
         21   -1    0    0  502  503 -0.00000000000E+00 -0.00000000000E+00 -0.19320720215E+03  0.19320720215E+03  0.00000000000E+00 0.  1.
    9000007    2    1    2  501    0 -0.10661474351E+02 -0.44958660217E+02  0.11583358878E+04  0.12270314750E+04  0.40215577032E+03 0.  0.
    9000005    1    3    3    0    0  0.17775891383E+03 -0.48499762209E+02  0.81302350130E+03  0.83364181279E+03  0.99999687468E+00 0.  0.
          4    1    3    3  501    0 -0.18842038819E+03  0.35411019917E+01  0.34531238651E+03  0.39338966225E+03  0.00000000000E+00 0.  1.
   -9000007    1    1    2    0  503  0.10661474351E+02  0.44958660217E+02  0.96295368985E+02  0.41401418605E+03  0.40000000000E+03 0.  1.
<mgrwt>
<rscale>  2 0.40426498E+03</rscale>
<asrwt>0</asrwt>
<pdfrwt beam="1">  1       21 0.22274437E+00 0.40480145E+03</pdfrwt>
<pdfrwt beam="2">  1       21 0.29724186E-01 0.40480145E+03</pdfrwt>
<totfact> 0.88805510E+02</totfact>
</mgrwt>
</event>
<event>
 6    1  0.8739326E-004  0.4193555E+03  0.7818608E-02  0.1037330E+00
         21   -1    0    0  501  502  0.00000000000E+00  0.00000000000E+00  0.16618019665E+03  0.16618019665E+03  0.00000000000E+00 0. -1.
         21   -1    0    0  502  503 -0.00000000000E+00 -0.00000000000E+00 -0.16136217825E+04  0.16136217825E+04  0.00000000000E+00 0. -1.
    9000007    2    1    2  501    0  0.21223650929E+02 -0.12413148750E+03 -0.20050074771E+03  0.46423346197E+03  0.39931577459E+03 0.  0.
    9000005    1    3    3    0    0  0.62598714406E+02  0.55609806294E+02  0.88216208409E+02  0.12163120085E+03  0.99999687468E+00 0.  0.
          4    1    3    3  501    0 -0.41375063477E+02 -0.17974129380E+03 -0.28871695612E+03  0.34260226112E+03  0.00000000000E+00 0.  1.
   -9000007    1    1    2    0  503 -0.21223650929E+02  0.12413148750E+03 -0.12469408382E+04  0.13155685172E+04  0.40000000000E+03 0. -1.
<mgrwt>
<rscale>  2 0.41919230E+03</rscale>
<asrwt>0</asrwt>
<pdfrwt beam="1">  1       21 0.25566184E-01 0.41935554E+03</pdfrwt>
<pdfrwt beam="2">  1       21 0.24824951E+00 0.41935554E+03</pdfrwt>
<totfact> 0.82190717E+02</totfact>
</mgrwt>
</event>
<event>
 6    1  0.8739326E-004  0.4192622E+03  0.7818608E-02  0.1037365E+00
         21   -1    0    0  501  502  0.00000000000E+00  0.00000000000E+00  0.16823134455E+03  0.16823134455E+03  0.00000000000E+00 0.  1.
         21   -1    0    0  502  503 -0.00000000000E+00 -0.00000000000E+00 -0.10810382614E+04  0.10810382614E+04  0.00000000000E+00 0.  1.
    9000007    2    1    2  501    0  0.11017478124E+03  0.55208744204E+02 -0.57377934791E+03  0.71063598244E+03  0.40074215102E+03 0.  0.
    9000005    1    3    3    0    0 -0.59956584018E+02  0.15129456874E+03 -0.45199214175E+03  0.48039851654E+03  0.99999687468E+00 0.  0.
          4    1    3    3  501    0  0.17013136526E+03 -0.96085824540E+02 -0.12178720615E+03  0.23023746590E+03  0.00000000000E+00 0.  1.
   -9000007    1    1    2    0  503 -0.11017478124E+03 -0.55208744204E+02 -0.33902756894E+03  0.53863362349E+03  0.40000000000E+03 0.  1.
<mgrwt>
<rscale>  2 0.41908472E+03</rscale>
<asrwt>0</asrwt>
<pdfrwt beam="1">  1       21 0.25881744E-01 0.41926216E+03</pdfrwt>
<pdfrwt beam="2">  1       21 0.16631358E+00 0.41926216E+03</pdfrwt>
<totfact> 0.27912658E+03</totfact>
</mgrwt>
</event>
<event>
 6    1  0.8739326E-004  0.6709728E+03  0.7818608E-02  0.9768409E-01
         21   -1    0    0  501  502  0.00000000000E+00  0.00000000000E+00  0.21917294330E+04  0.21917294330E+04  0.00000000000E+00 0. -1.
         21   -1    0    0  502  503 -0.00000000000E+00 -0.00000000000E+00 -0.54854355949E+03  0.54854355949E+03  0.00000000000E+00 0.  1.
    9000007    2    1    2  501    0  0.47599327495E+03  0.25103877550E+03  0.19055703618E+04  0.20202482121E+04  0.40076722660E+03 0.  0.
    9000005    1    3    3    0    0  0.51285003385E+03  0.13655021948E+03  0.13247137790E+04  0.14270699759E+04  0.99999687468E+00 0.  0.
          4    1    3    3  501    0 -0.36856758903E+02  0.11448855602E+03  0.58085658281E+03  0.59317823622E+03  0.00000000000E+00 0.  1.
   -9000007    1    1    2    0  503 -0.47599327495E+03 -0.25103877550E+03 -0.26238448837E+03  0.72002478037E+03  0.40000000000E+03 0.  1.
<mgrwt>
<rscale>  2 0.67085823E+03</rscale>
<asrwt>0</asrwt>
<pdfrwt beam="1">  1       21 0.33718914E+00 0.67097275E+03</pdfrwt>
<pdfrwt beam="2">  1       21 0.84391318E-01 0.67097275E+03</pdfrwt>
<totfact> 0.16378480E+01</totfact>
</mgrwt>
</event>
<event>
 6    1  0.8739326E-004  0.6115112E+03  0.7818608E-02  0.9882023E-01
         21   -1    0    0  501  502  0.00000000000E+00  0.00000000000E+00  0.20597766506E+04  0.20597766506E+04  0.00000000000E+00 0.  1.
         21   -1    0    0  502  503 -0.00000000000E+00 -0.00000000000E+00 -0.18505100863E+03  0.18505100863E+03  0.00000000000E+00 0. -1.
    9000007    2    1    2  501    0 -0.93836204938E+02 -0.45292457081E+03  0.10942491537E+04  0.12533189861E+04  0.39935118670E+03 0.  0.
    9000005    1    3    3    0    0  0.69705077826E+02 -0.41715375079E+03  0.91519089449E+03  0.10081921558E+04  0.99999687468E+00 0.  0.
          4    1    3    3  501    0 -0.16354128276E+03 -0.35770820024E+02  0.17905825918E+03  0.24512683026E+03  0.00000000000E+00 0.  1.
   -9000007    1    1    2    0  503  0.93836204938E+02  0.45292457081E+03  0.78047648831E+03  0.99150867319E+03  0.40000000000E+03 0. -1.
<mgrwt>
<rscale>  2 0.61140508E+03</rscale>
<asrwt>0</asrwt>
<pdfrwt beam="1">  1       21 0.31688870E+00 0.61151116E+03</pdfrwt>
<pdfrwt beam="2">  1       21 0.28469387E-01 0.61151116E+03</pdfrwt>
<totfact> 0.23166214E+02</totfact>
</mgrwt>
</event>
<event>
 6    1  0.8739326E-004  0.5627387E+03  0.7818608E-02  0.9986013E-01
         21   -1    0    0  501  502  0.00000000000E+00  0.00000000000E+00  0.40256265596E+03  0.40256265596E+03  0.00000000000E+00 0.  1.
         21   -1    0    0  502  503 -0.00000000000E+00 -0.00000000000E+00 -0.79278745207E+03  0.79278745207E+03  0.00000000000E+00 0.  1.
    9000007    2    1    2  501    0 -0.39358226612E+03  0.38670277556E+02 -0.14112523952E+03  0.58016478663E+03  0.40034042494E+03 0.  0.
    9000005    1    3    3    0    0 -0.15275596066E+02 -0.10468730766E+03 -0.14015523567E+03  0.17560542787E+03  0.99999687468E+00 0.  0.
          4    1    3    3  501    0 -0.37830667006E+03  0.14335758522E+03 -0.97000385108E+00  0.40455935875E+03  0.00000000000E+00 0.  1.
   -9000007    1    1    2    0  503  0.39358226612E+03 -0.38670277556E+02 -0.24909955659E+03  0.61518532140E+03  0.40000000000E+03 0.  1.
<mgrwt>
<rscale>  2 0.56267816E+03</rscale>
<asrwt>0</asrwt>
<pdfrwt beam="1">  1       21 0.61932717E-01 0.56273870E+03</pdfrwt>
<pdfrwt beam="2">  1       21 0.12196730E+00 0.56273870E+03</pdfrwt>
<totfact> 0.99997408E+02</totfact>
</mgrwt>
</event>
<event>
 6    1  0.8739326E-004  0.5246041E+03  0.7818608E-02  0.1007550E+00
         21   -1    0    0  501  502  0.00000000000E+00  0.00000000000E+00  0.33895318320E+03  0.33895318320E+03  0.00000000000E+00 0. -1.
         21   -1    0    0  502  503 -0.00000000000E+00 -0.00000000000E+00 -0.21104562273E+04  0.21104562273E+04  0.00000000000E+00 0.  1.
    9000007    2    1    2  501    0  0.33859358968E+03  0.23745941996E+02 -0.18464084559E+04  0.19194845956E+04  0.39998429729E+03 0.  0.
    9000005    1    3    3    0    0 -0.73608736287E+02  0.15646724512E+02 -0.10048868366E+03  0.12554696963E+03  0.99999687468E+00 0.  0.
          4    1    3    3  501    0  0.41220232596E+03  0.80992174840E+01 -0.17459197722E+04  0.17939376260E+04  0.00000000000E+00 0.  1.
   -9000007    1    1    2    0  503 -0.33859358968E+03 -0.23745941996E+02  0.74905411787E+02  0.52992481490E+03  0.40000000000E+03 0. -1.
<mgrwt>
<rscale>  2 0.52460113E+03</rscale>
<asrwt>0</asrwt>
<pdfrwt beam="1">  1       21 0.52146643E-01 0.52460413E+03</pdfrwt>
<pdfrwt beam="2">  1       21 0.32468557E+00 0.52460413E+03</pdfrwt>
<totfact> 0.62268361E+01</totfact>
</mgrwt>
</event>
<event>
 6    1  0.8739326E-004  0.4715082E+03  0.7818608E-02  0.1021500E+00
         21   -1    0    0  501  502  0.00000000000E+00  0.00000000000E+00  0.12211121998E+04  0.12211121998E+04  0.00000000000E+00 0.  1.
         21   -1    0    0  502  503 -0.00000000000E+00 -0.00000000000E+00 -0.21254653995E+03  0.21254653995E+03  0.00000000000E+00 0.  1.
    9000007    2    1    2  501    0  0.24651869051E+03  0.38583881355E+02  0.77588835355E+03  0.90792219973E+03  0.40007474665E+03 0.  0.
    9000005    1    3    3    0    0  0.30730735873E+03 -0.85917976322E+02  0.43117295998E+03  0.53640547424E+03  0.99999687468E+00 0.  0.
          4    1    3    3  501    0 -0.60788668220E+02  0.12450185768E+03  0.34471539358E+03  0.37151672549E+03  0.00000000000E+00 0.  1.
   -9000007    1    1    2    0  503 -0.24651869051E+03 -0.38583881355E+02  0.23267730635E+03  0.52573654007E+03  0.40000000000E+03 0.  1.
<mgrwt>
<rscale>  2 0.47149234E+03</rscale>
<asrwt>0</asrwt>
<pdfrwt beam="1">  1       21 0.18786341E+00 0.47150820E+03</pdfrwt>
<pdfrwt beam="2">  1       21 0.32699468E-01 0.47150820E+03</pdfrwt>
<totfact> 0.12076619E+03</totfact>
</mgrwt>
</event>
<event>
 6    1  0.8739326E-004  0.4513420E+03  0.7818608E-02  0.1027335E+00
         21   -1    0    0  501  502  0.00000000000E+00  0.00000000000E+00  0.71260141449E+03  0.71260141449E+03  0.00000000000E+00 0. -1.
         21   -1    0    0  502  503 -0.00000000000E+00 -0.00000000000E+00 -0.94199741813E+03  0.94199741813E+03  0.00000000000E+00 0. -1.
    9000007    2    1    2  501    0  0.24901471689E+02  0.20722495139E+03  0.57580094562E+03  0.73161216377E+03  0.40018416439E+03 0.  0.
    9000005    1    3    3    0    0  0.87326300794E+02  0.23684789042E+03  0.60579500665E+03  0.65628606269E+03  0.99999687468E+00 0.  0.
          4    1    3    3  501    0 -0.62424829105E+02 -0.29622939038E+02 -0.29994061033E+02  0.75326101076E+02  0.00000000000E+00 0.  1.
   -9000007    1    1    2    0  503 -0.24901471689E+02 -0.20722495139E+03 -0.80519694926E+03  0.92298666885E+03  0.40000000000E+03 0. -1.
<mgrwt>
<rscale>  2 0.45130121E+03</rscale>
<asrwt>0</asrwt>
<pdfrwt beam="1">  1       21 0.10963099E+00 0.45134203E+03</pdfrwt>
<pdfrwt beam="2">  1       21 0.14492268E+00 0.45134203E+03</pdfrwt>
<totfact> 0.17521916E+02</totfact>
</mgrwt>
</event>
<event>
 6    1  0.8739326E-004  0.4521064E+03  0.7818608E-02  0.1027199E+00
         21   -1    0    0  501  502  0.00000000000E+00  0.00000000000E+00  0.61876714005E+03  0.61876714005E+03  0.00000000000E+00 0. -1.
         21   -1    0    0  502  503 -0.00000000000E+00 -0.00000000000E+00 -0.10446742547E+04  0.10446742547E+04  0.00000000000E+00 0.  1.
    9000007    2    1    2  501    0 -0.20992069495E+03 -0.18261560696E+02  0.47540008238E+03  0.65509877133E+03  0.39843315513E+03 0.  0.
    9000005    1    3    3    0    0 -0.23172060644E+02 -0.70294829686E+02  0.45407315805E+03  0.46006710416E+03  0.99999687468E+00 0.  0.
          4    1    3    3  501    0 -0.18674863431E+03  0.52033268990E+02  0.21326924329E+02  0.19503166717E+03  0.00000000000E+00 0.  1.
   -9000007    1    1    2    0  503  0.20992069495E+03  0.18261560696E+02 -0.90130719705E+03  0.10083426234E+04  0.40000000000E+03 0.  1.
<mgrwt>
<rscale>  2 0.45175957E+03</rscale>
<asrwt>0</asrwt>
<pdfrwt beam="1">  1       21 0.95194946E-01 0.45210638E+03</pdfrwt>
<pdfrwt beam="2">  1       21 0.16071911E+00 0.45210638E+03</pdfrwt>
<totfact> 0.18633384E+02</totfact>
</mgrwt>
</event>
<event>
 6    1  0.8739326E-004  0.4614581E+03  0.7818608E-02  0.1024385E+00
         21   -1    0    0  501  502  0.00000000000E+00  0.00000000000E+00  0.40250710912E+03  0.40250710912E+03  0.00000000000E+00 0. -1.
         21   -1    0    0  502  503 -0.00000000000E+00 -0.00000000000E+00 -0.52978032976E+03  0.52978032976E+03  0.00000000000E+00 0.  1.
    9000007    2    1    2  501    0 -0.21677873964E+03  0.77139684856E+02 -0.41877716123E+02  0.46299441194E+03  0.39958294438E+03 0.  0.
    9000005    1    3    3    0    0 -0.27814351783E+03  0.74716795915E+02  0.10281545199E+03  0.30580783716E+03  0.99999687468E+00 0.  0.
          4    1    3    3  501    0  0.61364778192E+02  0.24228889412E+01 -0.14469316811E+03  0.15718657478E+03  0.00000000000E+00 0.  1.
   -9000007    1    1    2    0  503  0.21677873964E+03 -0.77139684856E+02 -0.85395504521E+02  0.46929302694E+03  0.40000000000E+03 0. -1.
<mgrwt>
<rscale>  2 0.46136768E+03</rscale>
<asrwt>0</asrwt>
<pdfrwt beam="1">  1       21 0.61924171E-01 0.46145807E+03</pdfrwt>
<pdfrwt beam="2">  1       21 0.81504666E-01 0.46145807E+03</pdfrwt>
<totfact> 0.27636974E+03</totfact>
</mgrwt>
</event>
<event>
 6    1  0.8739326E-004  0.6438170E+03  0.7818608E-02  0.9822017E-01
         21   -1    0    0  501  502  0.00000000000E+00  0.00000000000E+00  0.32791849641E+03  0.32791849641E+03  0.00000000000E+00 0. -1.
         21   -1    0    0  502  503 -0.00000000000E+00 -0.00000000000E+00 -0.14647557652E+04  0.14647557652E+04  0.00000000000E+00 0.  1.
    9000007    2    1    2  501    0 -0.15003566009E+03  0.48165295696E+03 -0.90926062114E+03  0.11098189323E+04  0.38786971402E+03 0.  0.
    9000005    1    3    3    0    0  0.71332755696E+02  0.13033283740E+03 -0.52235759183E+02  0.15749471442E+03  0.99999687468E+00 0.  0.
          4    1    3    3  501    0 -0.22136841578E+03  0.35132011957E+03 -0.85702486196E+03  0.95232421787E+03  0.00000000000E+00 0.  1.
   -9000007    1    1    2    0  503  0.15003566009E+03 -0.48165295696E+03 -0.22757664767E+03  0.68285532934E+03  0.40000000000E+03 0. -1.
<mgrwt>
<rscale>  2 0.64194241E+03</rscale>
<asrwt>0</asrwt>
<pdfrwt beam="1">  1       21 0.50449000E-01 0.64381695E+03</pdfrwt>
<pdfrwt beam="2">  1       21 0.22534704E+00 0.64381695E+03</pdfrwt>
<totfact> 0.25890219E+02</totfact>
</mgrwt>
</event>
<event>
 6    1  0.8739326E-004  0.5619207E+03  0.7818608E-02  0.9987813E-01
         21   -1    0    0  501  502  0.00000000000E+00  0.00000000000E+00  0.10431795914E+04  0.10431795914E+04  0.00000000000E+00 0.  1.
         21   -1    0    0  502  503 -0.00000000000E+00 -0.00000000000E+00 -0.38023309912E+03  0.38023309912E+03  0.00000000000E+00 0.  1.
    9000007    2    1    2  501    0 -0.39440611876E+03  0.31924244640E+01  0.65311121557E+03  0.86157364704E+03  0.40023556974E+03 0.  0.
    9000005    1    3    3    0    0 -0.80706888273E+01  0.14817150396E+03  0.19454231459E+03  0.24467865204E+03  0.99999687468E+00 0.  0.
          4    1    3    3  501    0 -0.38633542994E+03 -0.14497907949E+03  0.45856890099E+03  0.61689499501E+03  0.00000000000E+00 0.  1.
   -9000007    1    1    2    0  503  0.39440611876E+03 -0.31924244640E+01  0.98352766976E+01  0.56183904346E+03  0.40000000000E+03 0.  1.
<mgrwt>
<rscale>  2 0.56187877E+03</rscale>
<asrwt>0</asrwt>
<pdfrwt beam="1">  1       21 0.16048917E+00 0.56192071E+03</pdfrwt>
<pdfrwt beam="2">  1       21 0.58497400E-01 0.56192071E+03</pdfrwt>
<totfact> 0.54369964E+02</totfact>
</mgrwt>
</event>
<event>
 6    1  0.8739326E-004  0.4930968E+03  0.7818608E-02  0.1015794E+00
         21   -1    0    0  501  502  0.00000000000E+00  0.00000000000E+00  0.19820009949E+04  0.19820009949E+04  0.00000000000E+00 0.  1.
         21   -1    0    0  502  503 -0.00000000000E+00 -0.00000000000E+00 -0.12312215234E+03  0.12312215234E+03  0.00000000000E+00 0.  1.
    9000007    2    1    2  501    0  0.26884112128E+03 -0.10425383824E+03  0.10298521622E+04  0.11405353347E+04  0.39633440746E+03 0.  0.
    9000005    1    3    3    0    0 -0.47599753840E+01  0.43852823460E+02  0.64110833949E+03  0.64262479757E+03  0.99999687468E+00 0.  0.
          4    1    3    3  501    0  0.27360109667E+03 -0.14810666170E+03  0.38874382270E+03  0.49791053717E+03  0.00000000000E+00 0.  1.
   -9000007    1    1    2    0  503 -0.26884112128E+03  0.10425383824E+03  0.82902668036E+03  0.96458781250E+03  0.40000000000E+03 0.  1.
<mgrwt>
<rscale>  2 0.49235286E+03</rscale>
<asrwt>0</asrwt>
<pdfrwt beam="1">  1       21 0.30492321E+00 0.49309676E+03</pdfrwt>
<pdfrwt beam="2">  1       21 0.18941871E-01 0.49309676E+03</pdfrwt>
<totfact> 0.63831955E+02</totfact>
</mgrwt>
</event>
<event>
 6    1  0.8739326E-004  0.4181710E+03  0.7818608E-02  0.1037684E+00
         21   -1    0    0  501  502  0.00000000000E+00  0.00000000000E+00  0.72133169706E+03  0.72133169706E+03  0.00000000000E+00 0. -1.
         21   -1    0    0  502  503 -0.00000000000E+00 -0.00000000000E+00 -0.80268562105E+03  0.80268562105E+03  0.00000000000E+00 0. -1.
    9000007    2    1    2  501    0 -0.72026034113E+02 -0.98383166797E+02  0.59603294057E+03  0.72795201842E+03  0.39973976258E+03 0.  0.
    9000005    1    3    3    0    0  0.12366976957E+03  0.84485127914E+02  0.20051090905E+03  0.25027499553E+03  0.99999687468E+00 0.  0.
          4    1    3    3  501    0 -0.19569580368E+03 -0.18286829471E+03  0.39552203151E+03  0.47767702289E+03  0.00000000000E+00 0.  1.
   -9000007    1    1    2    0  503  0.72026034113E+02  0.98383166797E+02 -0.67738686455E+03  0.79606529969E+03  0.40000000000E+03 0. -1.
<mgrwt>
<rscale>  2 0.41810877E+03</rscale>
<asrwt>0</asrwt>
<pdfrwt beam="1">  1       21 0.11097411E+00 0.41817101E+03</pdfrwt>
<pdfrwt beam="2">  1       21 0.12349010E+00 0.41817101E+03</pdfrwt>
<totfact> 0.26299659E+02</totfact>
</mgrwt>
</event>
<event>
 6    1  0.8739326E-004  0.4162035E+03  0.7818608E-02  0.1038331E+00
         21   -1    0    0  501  502  0.00000000000E+00  0.00000000000E+00  0.82476508002E+03  0.82476508002E+03  0.00000000000E+00 0. -1.
         21   -1    0    0  502  503 -0.00000000000E+00 -0.00000000000E+00 -0.21162521226E+03  0.21162521226E+03  0.00000000000E+00 0. -1.
    9000007    2    1    2  501    0 -0.93677040050E+02 -0.66707876102E+02  0.25960503852E+03  0.49030220043E+03  0.39972008100E+03 0.  0.
    9000005    1    3    3    0    0 -0.69486643931E+02 -0.23543261327E+03  0.15158018741E+03  0.28850383410E+03  0.99999687468E+00 0.  0.
          4    1    3    3  501    0 -0.24190396119E+02  0.16872473717E+03  0.10802485110E+03  0.20179836633E+03  0.00000000000E+00 0.  1.
   -9000007    1    1    2    0  503  0.93677040050E+02  0.66707876102E+02  0.35353482925E+03  0.54608809185E+03  0.40000000000E+03 0. -1.
<mgrwt>
<rscale>  2 0.41613620E+03</rscale>
<asrwt>0</asrwt>
<pdfrwt beam="1">  1       21 0.12688693E+00 0.41620347E+03</pdfrwt>
<pdfrwt beam="2">  1       21 0.32557725E-01 0.41620347E+03</pdfrwt>
<totfact> 0.36731981E+03</totfact>
</mgrwt>
</event>
<event>
 6    1  0.8739326E-004  0.4410211E+03  0.7818608E-02  0.1030439E+00
         21   -1    0    0  501  502  0.00000000000E+00  0.00000000000E+00  0.16725727871E+04  0.16725727871E+04  0.00000000000E+00 0. -1.
         21   -1    0    0  502  503 -0.00000000000E+00 -0.00000000000E+00 -0.25922100538E+03  0.25922100538E+03  0.00000000000E+00 0. -1.
    9000007    2    1    2  501    0  0.33324420582E+02 -0.18256383767E+03  0.14239813646E+04  0.14907120995E+04  0.40007444936E+03 0.  0.
    9000005    1    3    3    0    0 -0.45877336207E+02 -0.29230467660E+03  0.11109560472E+04  0.11496830401E+04  0.99999687468E+00 0.  0.
          4    1    3    3  501    0  0.79201756789E+02  0.10974083893E+03  0.31302531742E+03  0.34102905940E+03  0.00000000000E+00 0.  1.
   -9000007    1    1    2    0  503 -0.33324420582E+02  0.18256383767E+03 -0.10629582907E+02  0.44108169296E+03  0.40000000000E+03 0. -1.
<mgrwt>
<rscale>  2 0.44100424E+03</rscale>
<asrwt>0</asrwt>
<pdfrwt beam="1">  1       21 0.25731888E+00 0.44102113E+03</pdfrwt>
<pdfrwt beam="2">  1       21 0.39880156E-01 0.44102113E+03</pdfrwt>
<totfact> 0.29367185E+02</totfact>
</mgrwt>
</event>
<event>
 6    1  0.8739326E-004  0.4437475E+03  0.7818608E-02  0.1029622E+00
         21   -1    0    0  501  502  0.00000000000E+00  0.00000000000E+00  0.44665109920E+03  0.44665109920E+03  0.00000000000E+00 0.  1.
         21   -1    0    0  502  503 -0.00000000000E+00 -0.00000000000E+00 -0.75091171084E+03  0.75091171084E+03  0.00000000000E+00 0.  1.
    9000007    2    1    2  501    0  0.16282368828E+03  0.10198202535E+03  0.23280913325E+03  0.50088799506E+03  0.39972090777E+03 0.  0.
    9000005    1    3    3    0    0 -0.13021385651E+03  0.14291577234E+02  0.11080580774E+03  0.17157745956E+03  0.99999687468E+00 0.  0.
          4    1    3    3  501    0  0.29303754479E+03  0.87690448116E+02  0.12200332551E+03  0.32931053549E+03  0.00000000000E+00 0.  1.
   -9000007    1    1    2    0  503 -0.16282368828E+03 -0.10198202535E+03 -0.53706974489E+03  0.69667481499E+03  0.40000000000E+03 0.  1.
<mgrwt>
<rscale>  2 0.44368465E+03</rscale>
<asrwt>0</asrwt>
<pdfrwt beam="1">  1       21 0.68715554E-01 0.44374755E+03</pdfrwt>
<pdfrwt beam="2">  1       21 0.11552488E+00 0.44374755E+03</pdfrwt>
<totfact> 0.95161298E+02</totfact>
</mgrwt>
</event>
<event>
 6    1  0.8739326E-004  0.6401141E+03  0.7818608E-02  0.9825653E-01
         21   -1    0    0  501  502  0.00000000000E+00  0.00000000000E+00  0.10864255802E+04  0.10864255802E+04  0.00000000000E+00 0.  1.
         21   -1    0    0  502  503 -0.00000000000E+00 -0.00000000000E+00 -0.47270774718E+03  0.47270774718E+03  0.00000000000E+00 0.  1.
    9000007    2    1    2  501    0  0.17572024367E+03  0.46742065923E+03  0.65774298886E+03  0.91780822184E+03  0.40048272868E+03 0.  0.
    9000005    1    3    3    0    0  0.26744523133E+03  0.44708228221E+03  0.44466446634E+03  0.68493576812E+03  0.99999687468E+00 0.  0.
          4    1    3    3  501    0 -0.91724987664E+02  0.20338377017E+02  0.21307852252E+03  0.23287245372E+03  0.00000000000E+00 0.  1.
   -9000007    1    1    2    0  503 -0.17572024367E+03 -0.46742065923E+03 -0.44025155799E+02  0.64132510558E+03  0.40000000000E+03 0.  1.
<mgrwt>
<rscale>  2 0.64003864E+03</rscale>
<asrwt>0</asrwt>
<pdfrwt beam="1">  1       21 0.16714240E+00 0.64011412E+03</pdfrwt>
<pdfrwt beam="2">  1       21 0.72724269E-01 0.64011412E+03</pdfrwt>
<totfact> 0.28955477E+02</totfact>
</mgrwt>
</event>
<event>
 6    1  0.8739326E-004  0.4763597E+03  0.7818608E-02  0.1020314E+00
         21   -1    0    0  501  502  0.00000000000E+00  0.00000000000E+00  0.25003090822E+04  0.25003090822E+04  0.00000000000E+00 0.  1.
         21   -1    0    0  502  503 -0.00000000000E+00 -0.00000000000E+00 -0.48420106438E+03  0.48420106438E+03  0.00000000000E+00 0.  1.
    9000007    2    1    2  501    0 -0.17615387595E+03 -0.18308761549E+03  0.23545103930E+04  0.24022151780E+04  0.40294826932E+03 0.  0.
    9000005    1    3    3    0    0 -0.20920595245E+03 -0.17507242759E+03  0.76230279639E+03  0.80964439035E+03  0.99999687468E+00 0.  0.
          4    1    3    3  501    0  0.33052076507E+02 -0.80151878919E+01  0.15922075966E+04  0.15925707877E+04  0.00000000000E+00 0.  1.
   -9000007    1    1    2    0  503  0.17615387595E+03  0.18308761549E+03 -0.33840237515E+03  0.58229496860E+03  0.40000000000E+03 0.  1.
<mgrwt>
<rscale>  2 0.47573566E+03</rscale>
<asrwt>0</asrwt>
<pdfrwt beam="1">  1       21 0.38466293E+00 0.47635971E+03</pdfrwt>
<pdfrwt beam="2">  1       21 0.74492473E-01 0.47635971E+03</pdfrwt>
<totfact> 0.12417722E+01</totfact>
</mgrwt>
</event>
<event>
 6    1  0.8739326E-004  0.4322852E+03  0.7818608E-02  0.1033154E+00
         21   -1    0    0  501  502  0.00000000000E+00  0.00000000000E+00  0.88047654439E+03  0.88047654439E+03  0.00000000000E+00 0.  1.
         21   -1    0    0  502  503 -0.00000000000E+00 -0.00000000000E+00 -0.27073132051E+03  0.27073132051E+03  0.00000000000E+00 0.  1.
    9000007    2    1    2  501    0  0.15064862669E+03  0.63431471265E+02  0.57267035523E+03  0.71751084375E+03  0.40018984852E+03 0.  0.
    9000005    1    3    3    0    0  0.26222203976E+03  0.13779504895E+03  0.36147519790E+03  0.46734697211E+03  0.99999687468E+00 0.  0.
          4    1    3    3  501    0 -0.11157341307E+03 -0.74363577683E+02  0.21119515733E+03  0.25016387163E+03  0.00000000000E+00 0.  1.
   -9000007    1    1    2    0  503 -0.15064862669E+03 -0.63431471265E+02  0.37074868646E+02  0.43369702115E+03  0.40000000000E+03 0.  1.
<mgrwt>
<rscale>  2 0.43224123E+03</rscale>
<asrwt>0</asrwt>
<pdfrwt beam="1">  1       21 0.13545793E+00 0.43228518E+03</pdfrwt>
<pdfrwt beam="2">  1       21 0.41650973E-01 0.43228518E+03</pdfrwt>
<totfact> 0.18660447E+03</totfact>
</mgrwt>
</event>
<event>
 6    1  0.8739326E-004  0.4329885E+03  0.7818608E-02  0.1032955E+00
         21   -1    0    0  501  502  0.00000000000E+00  0.00000000000E+00  0.18837780356E+03  0.18837780356E+03  0.00000000000E+00 0. -1.
         21   -1    0    0  502  503 -0.00000000000E+00 -0.00000000000E+00 -0.11905739366E+04  0.11905739366E+04  0.00000000000E+00 0. -1.
    9000007    2    1    2  501    0  0.69265864862E+02  0.15060297095E+03 -0.78089166065E+03  0.89268567680E+03  0.39952085928E+03 0.  0.
    9000005    1    3    3    0    0  0.10330951059E+03  0.19099702963E+02 -0.74474589649E+03  0.75212040523E+03  0.99999687468E+00 0.  0.
          4    1    3    3  501    0 -0.34043645723E+02  0.13150326799E+03 -0.36145764158E+02  0.14056527157E+03  0.00000000000E+00 0.  1.
   -9000007    1    1    2    0  503 -0.69265864862E+02 -0.15060297095E+03 -0.22130447241E+03  0.48626606339E+03  0.40000000000E+03 0.  1.
<mgrwt>
<rscale>  2 0.43287778E+03</rscale>
<asrwt>0</asrwt>
<pdfrwt beam="1">  1       21 0.28981201E-01 0.43298847E+03</pdfrwt>
<pdfrwt beam="2">  1       21 0.18316522E+00 0.43298847E+03</pdfrwt>
<totfact> 0.16834923E+03</totfact>
</mgrwt>
</event>
<event>
 6    1  0.8739326E-004  0.5869918E+03  0.7818608E-02  0.9932932E-01
         21   -1    0    0  501  502  0.00000000000E+00  0.00000000000E+00  0.65367151213E+03  0.65367151213E+03  0.00000000000E+00 0.  1.
         21   -1    0    0  502  503 -0.00000000000E+00 -0.00000000000E+00 -0.83969007014E+03  0.83969007014E+03  0.00000000000E+00 0. -1.
    9000007    2    1    2  501    0 -0.35966244129E+03 -0.23495172111E+03  0.36277605225E+03  0.68978525910E+03  0.39954706438E+03 0.  0.
    9000005    1    3    3    0    0 -0.16880040944E+03 -0.28217033859E+03  0.68496568536E+02  0.33586672670E+03  0.99999687468E+00 0.  0.
          4    1    3    3  501    0 -0.19086203186E+03  0.47218617487E+02  0.29427948371E+03  0.35391853240E+03  0.00000000000E+00 0.  1.
   -9000007    1    1    2    0  503  0.35966244129E+03  0.23495172111E+03 -0.54879461025E+03  0.80357632318E+03  0.40000000000E+03 0. -1.
<mgrwt>
<rscale>  2 0.58691465E+03</rscale>
<asrwt>0</asrwt>
<pdfrwt beam="1">  1       21 0.10056485E+00 0.58699181E+03</pdfrwt>
<pdfrwt beam="2">  1       21 0.12918309E+00 0.58699181E+03</pdfrwt>
<totfact> 0.27717737E+02</totfact>
</mgrwt>
</event>
<event>
 6    1  0.8739326E-004  0.4321449E+03  0.7818608E-02  0.1033191E+00
         21   -1    0    0  501  502  0.00000000000E+00  0.00000000000E+00  0.26394591209E+04  0.26394591209E+04  0.00000000000E+00 0. -1.
         21   -1    0    0  502  503 -0.00000000000E+00 -0.00000000000E+00 -0.74003091166E+02  0.74003091166E+02  0.00000000000E+00 0. -1.
    9000007    2    1    2  501    0  0.58140256256E+02 -0.15264658288E+03  0.15677351448E+04  0.16262050057E+04  0.40008495035E+03 0.  0.
    9000005    1    3    3    0    0  0.12198239092E+03 -0.26097963061E+03  0.84877774958E+03  0.89633405573E+03  0.99999687468E+00 0.  0.
          4    1    3    3  501    0 -0.63842134667E+02  0.10833304773E+03  0.71895739524E+03  0.72987094993E+03  0.00000000000E+00 0.  1.
   -9000007    1    1    2    0  503 -0.58140256256E+02  0.15264658288E+03  0.99772088487E+03  0.10872572064E+04  0.40000000000E+03 0. -1.
<mgrwt>
<rscale>  2 0.43212526E+03</rscale>
<asrwt>0</asrwt>
<pdfrwt beam="1">  1       21 0.40607056E+00 0.43214492E+03</pdfrwt>
<pdfrwt beam="2">  1       21 0.11385093E-01 0.43214492E+03</pdfrwt>
<totfact> 0.40192246E+02</totfact>
</mgrwt>
</event>
<event>
 6    1  0.8739326E-004  0.4055427E+03  0.7818608E-02  0.1042017E+00
         21   -1    0    0  501  502  0.00000000000E+00  0.00000000000E+00  0.98818024539E+03  0.98818024539E+03  0.00000000000E+00 0. -1.
         21   -1    0    0  502  503 -0.00000000000E+00 -0.00000000000E+00 -0.19972280975E+03  0.19972280975E+03  0.00000000000E+00 0. -1.
    9000007    2    1    2  501    0  0.31732969226E+02  0.46167623645E+02  0.63981817551E+03  0.75751711153E+03  0.40165463491E+03 0.  0.
    9000005    1    3    3    0    0  0.10812188398E+03  0.63461280224E+02  0.13249583427E+02  0.12607230995E+03  0.99999687468E+00 0.  0.
          4    1    3    3  501    0 -0.76388914752E+02 -0.17293656578E+02  0.62656859208E+03  0.63144480157E+03  0.00000000000E+00 0.  1.
   -9000007    1    1    2    0  503 -0.31732969226E+02 -0.46167623645E+02  0.14863926013E+03  0.43038594361E+03  0.40000000000E+03 0. -1.
<mgrwt>
<rscale>  2 0.40513239E+03</rscale>
<asrwt>0</asrwt>
<pdfrwt beam="1">  1       21 0.15202773E+00 0.40554269E+03</pdfrwt>
<pdfrwt beam="2">  1       21 0.30726587E-01 0.40554269E+03</pdfrwt>
<totfact> 0.25680918E+03</totfact>
</mgrwt>
</event>
<event>
 6    1  0.8739326E-004  0.4660872E+03  0.7818608E-02  0.1023035E+00
         21   -1    0    0  501  502  0.00000000000E+00  0.00000000000E+00  0.99699094531E+03  0.99699094531E+03  0.00000000000E+00 0. -1.
         21   -1    0    0  502  503 -0.00000000000E+00 -0.00000000000E+00 -0.24677210065E+03  0.24677210065E+03  0.00000000000E+00 0. -1.
    9000007    2    1    2  501    0  0.14427800008E+03 -0.19084324203E+03  0.58793448327E+03  0.75023138711E+03  0.39992861020E+03 0.  0.
    9000005    1    3    3    0    0  0.76787115893E+02 -0.29015979353E+03  0.54596269311E+03  0.62302907574E+03  0.99999687468E+00 0.  0.
          4    1    3    3  501    0  0.67490884191E+02  0.99316551499E+02  0.41971790159E+02  0.12720231138E+03  0.00000000000E+00 0.  1.
   -9000007    1    1    2    0  503 -0.14427800008E+03  0.19084324203E+03  0.16228436139E+03  0.49353165885E+03  0.40000000000E+03 0. -1.
<mgrwt>
<rscale>  2 0.46607189E+03</rscale>
<asrwt>0</asrwt>
<pdfrwt beam="1">  1       21 0.15338322E+00 0.46608721E+03</pdfrwt>
<pdfrwt beam="2">  1       21 0.37964939E-01 0.46608721E+03</pdfrwt>
<totfact> 0.15960538E+03</totfact>
</mgrwt>
</event>
<event>
 6    1  0.8739326E-004  0.6838728E+03  0.7818608E-02  0.9745372E-01
         21   -1    0    0  501  502  0.00000000000E+00  0.00000000000E+00  0.26575478030E+03  0.26575478030E+03  0.00000000000E+00 0. -1.
         21   -1    0    0  502  503 -0.00000000000E+00 -0.00000000000E+00 -0.28559761236E+04  0.28559761236E+04  0.00000000000E+00 0.  1.
    9000007    2    1    2  501    0  0.95158678172E+02  0.54646754742E+03 -0.32750974744E+03  0.75793190220E+03  0.39939476622E+03 0.  0.
    9000005    1    3    3    0    0  0.23871006952E+03  0.39982394021E+03 -0.15791633262E+03  0.49171155016E+03  0.99999687468E+00 0.  0.
          4    1    3    3  501    0 -0.14355139134E+03  0.14664360721E+03 -0.16959341482E+03  0.26622035205E+03  0.00000000000E+00 0.  1.
   -9000007    1    1    2    0  503 -0.95158678172E+02 -0.54646754742E+03 -0.22627115959E+04  0.23637990017E+04  0.40000000000E+03 0.  1.
<mgrwt>
<rscale>  2 0.68378429E+03</rscale>
<asrwt>0</asrwt>
<pdfrwt beam="1">  1       21 0.40885351E-01 0.68387276E+03</pdfrwt>
<pdfrwt beam="2">  1       21 0.43938094E+00 0.68387276E+03</pdfrwt>
<totfact> 0.17731453E+01</totfact>
</mgrwt>
</event>
<event>
 6    1  0.8739326E-004  0.4847035E+03  0.7818608E-02  0.1018003E+00
         21   -1    0    0  501  502  0.00000000000E+00  0.00000000000E+00  0.47906902441E+03  0.47906902441E+03  0.00000000000E+00 0. -1.
         21   -1    0    0  502  503 -0.00000000000E+00 -0.00000000000E+00 -0.65015287340E+03  0.65015287340E+03  0.00000000000E+00 0. -1.
    9000007    2    1    2  501    0 -0.20278044638E+03 -0.17791626206E+03  0.19615462212E+03  0.52289014011E+03  0.40269511681E+03 0.  0.
    9000005    1    3    3    0    0 -0.30693023733E+02 -0.10178820751E+03 -0.11665920732E+03  0.15783938526E+03  0.99999687468E+00 0.  0.
          4    1    3    3  501    0 -0.17208742265E+03 -0.76128054550E+02  0.31281382944E+03  0.36505075485E+03  0.00000000000E+00 0.  1.
   -9000007    1    1    2    0  503  0.20278044638E+03  0.17791626206E+03 -0.36723847112E+03  0.60633175771E+03  0.40000000000E+03 0.  1.
<mgrwt>
<rscale>  2 0.48414331E+03</rscale>
<asrwt>0</asrwt>
<pdfrwt beam="1">  1       21 0.73702927E-01 0.48470348E+03</pdfrwt>
<pdfrwt beam="2">  1       21 0.10002352E+00 0.48470348E+03</pdfrwt>
<totfact> 0.11410003E+03</totfact>
</mgrwt>
</event>
<event>
 6    1  0.8739326E-004  0.7058108E+03  0.7818608E-02  0.9707394E-01
         21   -1    0    0  501  502  0.00000000000E+00  0.00000000000E+00  0.45840396719E+03  0.45840396719E+03  0.00000000000E+00 0.  1.
         21   -1    0    0  502  503 -0.00000000000E+00 -0.00000000000E+00 -0.14132639680E+04  0.14132639680E+04  0.00000000000E+00 0.  1.
    9000007    2    1    2  501    0  0.57928484903E+03 -0.50970240420E+02 -0.27458805150E+02  0.70623158797E+03  0.39980016025E+03 0.  0.
    9000005    1    3    3    0    0  0.20069129278E+03 -0.17936601545E+02 -0.20440832528E+03  0.28702348355E+03  0.99999687468E+00 0.  0.
          4    1    3    3  501    0  0.37859355625E+03 -0.33033638874E+02  0.17694952013E+03  0.41920810442E+03  0.00000000000E+00 0.  1.
   -9000007    1    1    2    0  503 -0.57928484903E+03  0.50970240420E+02 -0.92740119569E+03  0.11654363472E+04  0.40000000000E+03 0.  1.
<mgrwt>
<rscale>  2 0.70578250E+03</rscale>
<asrwt>0</asrwt>
<pdfrwt beam="1">  1       21 0.70523687E-01 0.70581081E+03</pdfrwt>
<pdfrwt beam="2">  1       21 0.21742523E+00 0.70581081E+03</pdfrwt>
<totfact> 0.13598026E+02</totfact>
</mgrwt>
</event>
<event>
 6    1  0.8739326E-004  0.4056624E+03  0.7818608E-02  0.1042237E+00
         21   -1    0    0  501  502  0.00000000000E+00  0.00000000000E+00  0.34931229304E+03  0.34931229304E+03  0.00000000000E+00 0. -1.
         21   -1    0    0  502  503 -0.00000000000E+00 -0.00000000000E+00 -0.51576440355E+03  0.51576440355E+03  0.00000000000E+00 0. -1.
    9000007    2    1    2  501    0  0.53596325380E+02 -0.41102830441E+02 -0.21757103160E+03  0.45620611455E+03  0.39525290182E+03 0.  0.
    9000005    1    3    3    0    0 -0.52153441397E+02  0.44417626923E+02 -0.29285134523E+03  0.30075873625E+03  0.99999687468E+00 0.  0.
          4    1    3    3  501    0  0.10574976678E+03 -0.85520457364E+02  0.75280313631E+02  0.15544737830E+03  0.00000000000E+00 0.  1.
   -9000007    1    1    2    0  503 -0.53596325380E+02  0.41102830441E+02  0.51118921091E+02  0.40887058204E+03  0.40000000000E+03 0. -1.
<mgrwt>
<rscale>  2 0.40448732E+03</rscale>
<asrwt>0</asrwt>
<pdfrwt beam="1">  1       21 0.53740353E-01 0.40566243E+03</pdfrwt>
<pdfrwt beam="2">  1       21 0.79348369E-01 0.40566243E+03</pdfrwt>
<totfact> 0.40837615E+03</totfact>
</mgrwt>
</event>
<event>
 6    1  0.8739326E-004  0.4767688E+03  0.7818608E-02  0.1020073E+00
         21   -1    0    0  501  502  0.00000000000E+00  0.00000000000E+00  0.50072235395E+03  0.50072235395E+03  0.00000000000E+00 0.  1.
         21   -1    0    0  502  503 -0.00000000000E+00 -0.00000000000E+00 -0.60106328399E+03  0.60106328399E+03  0.00000000000E+00 0.  1.
    9000007    2    1    2  501    0  0.11585272066E+03 -0.23076913913E+03  0.22291896015E+03  0.52630913531E+03  0.40078946426E+03 0.  0.
    9000005    1    3    3    0    0 -0.14806048049E+03 -0.99936634598E+02  0.53375602453E+02  0.18643817138E+03  0.99999687468E+00 0.  0.
          4    1    3    3  501    0  0.26391320115E+03 -0.13083250453E+03  0.16954335770E+03  0.33987096393E+03  0.00000000000E+00 0.  1.
   -9000007    1    1    2    0  503 -0.11585272066E+03  0.23076913913E+03 -0.32325989020E+03  0.57547650262E+03  0.40000000000E+03 0.  1.
<mgrwt>
<rscale>  2 0.47660280E+03</rscale>
<asrwt>0</asrwt>
<pdfrwt beam="1">  1       21 0.77034208E-01 0.47676875E+03</pdfrwt>
<pdfrwt beam="2">  1       21 0.92471274E-01 0.47676875E+03</pdfrwt>
<totfact> 0.12496427E+03</totfact>
</mgrwt>
</event>
<event>
 6    1  0.8739326E-004  0.4486922E+03  0.7818608E-02  0.1028128E+00
         21   -1    0    0  501  502  0.00000000000E+00  0.00000000000E+00  0.17976474069E+03  0.17976474069E+03  0.00000000000E+00 0. -1.
         21   -1    0    0  502  503 -0.00000000000E+00 -0.00000000000E+00 -0.13528363172E+04  0.13528363172E+04  0.00000000000E+00 0. -1.
    9000007    2    1    2  501    0 -0.17229625010E+01  0.20281969043E+03 -0.90495380196E+03  0.10100822195E+04  0.40023232133E+03 0.  0.
    9000005    1    3    3    0    0 -0.18027529225E+03  0.55295411493E+02 -0.58817218074E+03  0.61766032552E+03  0.99999687468E+00 0.  0.
          4    1    3    3  501    0  0.17855232974E+03  0.14752427894E+03 -0.31678162122E+03  0.39242189398E+03  0.00000000000E+00 0.  1.
   -9000007    1    1    2    0  503  0.17229625010E+01 -0.20281969043E+03 -0.26811777451E+03  0.52251883836E+03  0.40000000000E+03 0. -1.
<mgrwt>
<rscale>  2 0.44864040E+03</rscale>
<asrwt>0</asrwt>
<pdfrwt beam="1">  1       21 0.27656114E-01 0.44869222E+03</pdfrwt>
<pdfrwt beam="2">  1       21 0.20812866E+00 0.44869222E+03</pdfrwt>
<totfact> 0.12443889E+03</totfact>
</mgrwt>
</event>
<event>
 6    1  0.8739326E-004  0.4000374E+03  0.7818608E-02  0.1043770E+00
         21   -1    0    0  501  502  0.00000000000E+00  0.00000000000E+00  0.28151292574E+04  0.28151292574E+04  0.00000000000E+00 0.  1.
         21   -1    0    0  502  503 -0.00000000000E+00 -0.00000000000E+00 -0.57526290546E+02  0.57526290546E+02  0.00000000000E+00 0.  1.
    9000007    2    1    2  501    0 -0.13531271118E+01 -0.42829593567E-01  0.15355846535E+04  0.15868365128E+04  0.40003507062E+03 0.  0.
    9000005    1    3    3    0    0 -0.61900406140E+02 -0.11753767961E+03  0.17431845713E+03  0.21916817948E+03  0.99999687468E+00 0.  0.
          4    1    3    3  501    0  0.60547279028E+02  0.11749485001E+03  0.13612661963E+04  0.13676683333E+04  0.00000000000E+00 0.  1.
   -9000007    1    1    2    0  503  0.13531271118E+01  0.42829593567E-01  0.12220183134E+04  0.12858190351E+04  0.40000000000E+03 0.  1.
<mgrwt>
<rscale>  2 0.40002859E+03</rscale>
<asrwt>0</asrwt>
<pdfrwt beam="1">  1       21 0.43309670E+00 0.40003736E+03</pdfrwt>
<pdfrwt beam="2">  1       21 0.88502007E-02 0.40003736E+03</pdfrwt>
<totfact> 0.43038898E+02</totfact>
</mgrwt>
</event>
<event>
 6    1  0.8739326E-004  0.5057634E+03  0.7818608E-02  0.1012498E+00
         21   -1    0    0  501  502  0.00000000000E+00  0.00000000000E+00  0.45619619880E+03  0.45619619880E+03  0.00000000000E+00 0. -1.
         21   -1    0    0  502  503 -0.00000000000E+00 -0.00000000000E+00 -0.58137821172E+03  0.58137821172E+03  0.00000000000E+00 0.  1.
    9000007    2    1    2  501    0 -0.40536599382E+01  0.30948378332E+03 -0.16845970536E+03  0.52996274501E+03  0.39583480705E+03 0.  0.
    9000005    1    3    3    0    0 -0.23726524684E+02 -0.61543080637E+02  0.63818040643E+02  0.91783664414E+02  0.99999687468E+00 0.  0.
          4    1    3    3  501    0  0.19672864746E+02  0.37102686396E+03 -0.23227774600E+03  0.43817908060E+03  0.00000000000E+00 0.  1.
   -9000007    1    1    2    0  503  0.40536599382E+01 -0.30948378332E+03  0.43277692448E+02  0.50761166551E+03  0.40000000000E+03 0. -1.
<mgrwt>
<rscale>  2 0.50493949E+03</rscale>
<asrwt>0</asrwt>
<pdfrwt beam="1">  1       21 0.70184031E-01 0.50576343E+03</pdfrwt>
<pdfrwt beam="2">  1       21 0.89442801E-01 0.50576343E+03</pdfrwt>
<totfact> 0.16549794E+03</totfact>
</mgrwt>
</event>
<event>
 6    1  0.8739326E-004  0.6116241E+03  0.7818608E-02  0.9881646E-01
         21   -1    0    0  501  502  0.00000000000E+00  0.00000000000E+00  0.15308005622E+04  0.15308005622E+04  0.00000000000E+00 0.  1.
         21   -1    0    0  502  503 -0.00000000000E+00 -0.00000000000E+00 -0.40412632327E+03  0.40412632327E+03  0.00000000000E+00 0.  1.
    9000007    2    1    2  501    0 -0.22632498024E+03 -0.40335844604E+03  0.11717548063E+04  0.13217765856E+04  0.40020367749E+03 0.  0.
    9000005    1    3    3    0    0  0.62609763232E+02 -0.23215500252E+03  0.28113517632E+03  0.36993771774E+03  0.99999687468E+00 0.  0.
          4    1    3    3  501    0 -0.28893474348E+03 -0.17120344352E+03  0.89061963003E+03  0.95183886790E+03  0.00000000000E+00 0.  1.
   -9000007    1    1    2    0  503  0.22632498024E+03  0.40335844604E+03 -0.45080567375E+02  0.61315029987E+03  0.40000000000E+03 0.  1.
<mgrwt>
<rscale>  2 0.61159076E+03</rscale>
<asrwt>0</asrwt>
<pdfrwt beam="1">  1       21 0.23550778E+00 0.61162408E+03</pdfrwt>
<pdfrwt beam="2">  1       21 0.62173281E-01 0.61162408E+03</pdfrwt>
<totfact> 0.14309958E+02</totfact>
</mgrwt>
</event>
<event>
 6    1  0.8739326E-004  0.6682716E+03  0.7818608E-02  0.9773336E-01
         21   -1    0    0  501  502  0.00000000000E+00  0.00000000000E+00  0.16076528684E+04  0.16076528684E+04  0.00000000000E+00 0. -1.
         21   -1    0    0  502  503 -0.00000000000E+00 -0.00000000000E+00 -0.36835870900E+03  0.36835870900E+03  0.00000000000E+00 0. -1.
    9000007    2    1    2  501    0 -0.53029576539E+03 -0.73303140290E+02  0.11099856601E+04  0.12953445243E+04  0.39907683691E+03 0.  0.
    9000005    1    3    3    0    0 -0.28417043177E+03 -0.20409903456E+03  0.82787374955E+03  0.89876871073E+03  0.99999687468E+00 0.  0.
          4    1    3    3  501    0 -0.24612533362E+03  0.13079589427E+03  0.28211191055E+03  0.39657581354E+03  0.00000000000E+00 0.  1.
   -9000007    1    1    2    0  503  0.53029576539E+03  0.73303140290E+02  0.12930849925E+03  0.68066705308E+03  0.40000000000E+03 0. -1.
<mgrwt>
<rscale>  2 0.66813353E+03</rscale>
<asrwt>0</asrwt>
<pdfrwt beam="1">  1       21 0.24733121E+00 0.66827161E+03</pdfrwt>
<pdfrwt beam="2">  1       21 0.56670571E-01 0.66827161E+03</pdfrwt>
<totfact> 0.14464252E+02</totfact>
</mgrwt>
</event>
<event>
 6    1  0.8739326E-004  0.6374951E+03  0.7818608E-02  0.9830564E-01
         21   -1    0    0  501  502  0.00000000000E+00  0.00000000000E+00  0.30567530255E+04  0.30567530255E+04  0.00000000000E+00 0. -1.
         21   -1    0    0  502  503 -0.00000000000E+00 -0.00000000000E+00 -0.13296666336E+03  0.13296666336E+03  0.00000000000E+00 0.  1.
    9000007    2    1    2  501    0 -0.32004295706E+03 -0.37932257437E+03  0.14856635581E+04  0.16166620583E+04  0.40010860132E+03 0.  0.
    9000005    1    3    3    0    0 -0.18223617254E+03 -0.90951530562E+02  0.10859324730E+04  0.11048676570E+04  0.99999687468E+00 0.  0.
          4    1    3    3  501    0 -0.13780678451E+03 -0.28837104380E+03  0.39973108509E+03  0.51179440125E+03  0.00000000000E+00 0.  1.
   -9000007    1    1    2    0  503  0.32004295706E+03  0.37932257437E+03  0.14381228040E+04  0.15730576306E+04  0.40000000000E+03 0. -1.
<mgrwt>
<rscale>  2 0.63747806E+03</rscale>
<asrwt>0</asrwt>
<pdfrwt beam="1">  1       21 0.47026965E+00 0.63749510E+03</pdfrwt>
<pdfrwt beam="2">  1       21 0.20456412E-01 0.63749510E+03</pdfrwt>
<totfact> 0.44401428E+01</totfact>
</mgrwt>
</event>
<event>
 6    1  0.8739326E-004  0.5341264E+03  0.7818608E-02  0.1005265E+00
         21   -1    0    0  501  502  0.00000000000E+00  0.00000000000E+00  0.53473733868E+03  0.53473733868E+03  0.00000000000E+00 0.  1.
         21   -1    0    0  502  503 -0.00000000000E+00 -0.00000000000E+00 -0.53305557410E+03  0.53305557410E+03  0.00000000000E+00 0. -1.
    9000007    2    1    2  501    0  0.33235852223E+03 -0.12177354654E+03  0.38772018661E+01  0.53366202631E+03  0.39936091658E+03 0.  0.
    9000005    1    3    3    0    0  0.21335093443E+03 -0.14598991280E+03 -0.17877918178E+03  0.31431619699E+03  0.99999687468E+00 0.  0.
          4    1    3    3  501    0  0.11900758781E+03  0.24216366257E+02  0.18265638365E+03  0.21934582931E+03  0.00000000000E+00 0.  1.
   -9000007    1    1    2    0  503 -0.33235852223E+03  0.12177354654E+03 -0.21954372892E+01  0.53413088647E+03  0.40000000000E+03 0.  1.
<mgrwt>
<rscale>  2 0.53400673E+03</rscale>
<asrwt>0</asrwt>
<pdfrwt beam="1">  1       21 0.82267284E-01 0.53412637E+03</pdfrwt>
<pdfrwt beam="2">  1       21 0.82008549E-01 0.53412637E+03</pdfrwt>
<totfact> 0.13964367E+03</totfact>
</mgrwt>
</event>
<event>
 6    1  0.8739326E-004  0.5061182E+03  0.7818608E-02  0.1012231E+00
         21   -1    0    0  501  502  0.00000000000E+00  0.00000000000E+00  0.88289949692E+03  0.88289949692E+03  0.00000000000E+00 0.  1.
         21   -1    0    0  502  503 -0.00000000000E+00 -0.00000000000E+00 -0.29788650047E+03  0.29788650047E+03  0.00000000000E+00 0. -1.
    9000007    2    1    2  501    0  0.30352340813E+03  0.63475958488E+02  0.19505580189E+03  0.54186325545E+03  0.39926603307E+03 0.  0.
    9000005    1    3    3    0    0  0.36659570841E+03  0.11088531886E+03  0.63167115067E+02  0.38817399679E+03  0.99999687468E+00 0.  0.
          4    1    3    3  501    0 -0.63072300281E+02 -0.47409360377E+02  0.13188868682E+03  0.15368925865E+03  0.00000000000E+00 0.  1.
   -9000007    1    1    2    0  503 -0.30352340813E+03 -0.63475958488E+02  0.38995719456E+03  0.63892274195E+03  0.40000000000E+03 0.  1.
<mgrwt>
<rscale>  2 0.50597319E+03</rscale>
<asrwt>0</asrwt>
<pdfrwt beam="1">  1       21 0.13583069E+00 0.50611822E+03</pdfrwt>
<pdfrwt beam="2">  1       21 0.45828693E-01 0.50611822E+03</pdfrwt>
<totfact> 0.14752068E+03</totfact>
</mgrwt>
</event>
<event>
 6    1  0.8739326E-004  0.4384666E+03  0.7818608E-02  0.1031800E+00
         21   -1    0    0  501  502  0.00000000000E+00  0.00000000000E+00  0.56685737221E+03  0.56685737221E+03  0.00000000000E+00 0.  1.
         21   -1    0    0  502  503 -0.00000000000E+00 -0.00000000000E+00 -0.35143642497E+03  0.35143642497E+03  0.00000000000E+00 0. -1.
    9000007    2    1    2  501    0 -0.12591586794E+03 -0.12805518540E+03  0.21085019451E+03  0.47980340037E+03  0.39179147793E+03 0.  0.
    9000005    1    3    3    0    0 -0.12373878533E+03  0.66181967535E+02 -0.54850871539E+02  0.15066837068E+03  0.99999687468E+00 0.  0.
          4    1    3    3  501    0 -0.21770826097E+01 -0.19423715294E+03  0.26570106605E+03  0.32913502969E+03  0.00000000000E+00 0.  1.
   -9000007    1    1    2    0  503  0.12591586794E+03  0.12805518540E+03  0.45707527270E+01  0.43849039680E+03  0.40000000000E+03 0. -1.
<mgrwt>
<rscale>  2 0.43658569E+03</rscale>
<asrwt>0</asrwt>
<pdfrwt beam="1">  1       21 0.87208827E-01 0.43846657E+03</pdfrwt>
<pdfrwt beam="2">  1       21 0.54067142E-01 0.43846657E+03</pdfrwt>
<totfact> 0.31971071E+03</totfact>
</mgrwt>
</event>
<event>
 6    1  0.8739326E-004  0.4036137E+03  0.7818608E-02  0.1042542E+00
         21   -1    0    0  501  502  0.00000000000E+00  0.00000000000E+00  0.46200422910E+03  0.46200422910E+03  0.00000000000E+00 0. -1.
         21   -1    0    0  502  503 -0.00000000000E+00 -0.00000000000E+00 -0.37705696666E+03  0.37705696666E+03  0.00000000000E+00 0. -1.
    9000007    2    1    2  501    0 -0.21376031659E+01 -0.53846614333E+02  0.14945531818E+03  0.43032495259E+03  0.39992329948E+03 0.  0.
    9000005    1    3    3    0    0 -0.13810306706E+02  0.12583378131E+03 -0.71424717542E+02  0.14535252100E+03  0.99999687468E+00 0.  0.
          4    1    3    3  501    0  0.11672703540E+02 -0.17968039565E+03  0.22088003572E+03  0.28497243159E+03  0.00000000000E+00 0.  1.
   -9000007    1    1    2    0  503  0.21376031659E+01  0.53846614333E+02 -0.64508055748E+02  0.40873624317E+03  0.40000000000E+03 0.  1.
<mgrwt>
<rscale>  2 0.40359471E+03</rscale>
<asrwt>0</asrwt>
<pdfrwt beam="1">  1       21 0.71077574E-01 0.40361371E+03</pdfrwt>
<pdfrwt beam="2">  1       21 0.58008764E-01 0.40361371E+03</pdfrwt>
<totfact> 0.44518851E+03</totfact>
</mgrwt>
</event>
<event>
 6    1  0.8739326E-004  0.4441806E+03  0.7818608E-02  0.1029523E+00
         21   -1    0    0  501  502  0.00000000000E+00  0.00000000000E+00  0.16458304353E+04  0.16458304353E+04  0.00000000000E+00 0. -1.
         21   -1    0    0  502  503 -0.00000000000E+00 -0.00000000000E+00 -0.25932323139E+03  0.25932323139E+03  0.00000000000E+00 0. -1.
    9000007    2    1    2  501    0 -0.35057511120E+02  0.18991414804E+03  0.13919947752E+04  0.14609391620E+04  0.39924599981E+03 0.  0.
    9000005    1    3    3    0    0 -0.10842273558E+03  0.17480513336E+03  0.13663780587E+04  0.13817750625E+04  0.99999687468E+00 0.  0.
          4    1    3    3  501    0  0.73365224465E+02  0.15109014685E+02  0.25616716496E+02  0.79164099499E+02  0.00000000000E+00 0.  1.
   -9000007    1    1    2    0  503  0.35057511120E+02 -0.18991414804E+03 -0.54875712509E+01  0.44421450466E+03  0.40000000000E+03 0. -1.
<mgrwt>
<rscale>  2 0.44401079E+03</rscale>
<asrwt>0</asrwt>
<pdfrwt beam="1">  1       21 0.25320468E+00 0.44418061E+03</pdfrwt>
<pdfrwt beam="2">  1       21 0.39895883E-01 0.44418061E+03</pdfrwt>
<totfact> 0.31036118E+02</totfact>
</mgrwt>
</event>
<event>
 6    1  0.8739326E-004  0.4068840E+03  0.7818608E-02  0.1041486E+00
         21   -1    0    0  501  502  0.00000000000E+00  0.00000000000E+00  0.43176328391E+03  0.43176328391E+03  0.00000000000E+00 0.  1.
         21   -1    0    0  502  503 -0.00000000000E+00 -0.00000000000E+00 -0.39231371812E+03  0.39231371812E+03  0.00000000000E+00 0.  1.
    9000007    2    1    2  501    0  0.61514392493E+02 -0.33919126470E+02 -0.44691248252E+02  0.40933105062E+03  0.40077434263E+03 0.  0.
    9000005    1    3    3    0    0 -0.41961778669E+01 -0.21333693562E+03 -0.12571492214E+01  0.21338424596E+03  0.99999687468E+00 0.  0.
          4    1    3    3  501    0  0.65710570360E+02  0.17941780915E+03 -0.43434099030E+02  0.19594680466E+03  0.00000000000E+00 0.  1.
   -9000007    1    1    2    0  503 -0.61514392493E+02  0.33919126470E+02  0.84140814046E+02  0.41474595141E+03  0.40000000000E+03 0.  1.
<mgrwt>
<rscale>  2 0.40669321E+03</rscale>
<asrwt>0</asrwt>
<pdfrwt beam="1">  1       21 0.66425121E-01 0.40688401E+03</pdfrwt>
<pdfrwt beam="2">  1       21 0.60355956E-01 0.40688401E+03</pdfrwt>
<totfact> 0.47452048E+03</totfact>
</mgrwt>
</event>
<event>
 6    1  0.8739326E-004  0.5027782E+03  0.7818608E-02  0.1013071E+00
         21   -1    0    0  501  502  0.00000000000E+00  0.00000000000E+00  0.27897699398E+03  0.27897699398E+03  0.00000000000E+00 0.  1.
         21   -1    0    0  502  503 -0.00000000000E+00 -0.00000000000E+00 -0.97093380197E+03  0.97093380197E+03  0.00000000000E+00 0.  1.
    9000007    2    1    2  501    0  0.15032503076E+03 -0.26493071064E+03 -0.18393147135E+03  0.53515514610E+03  0.39971783539E+03 0.  0.
    9000005    1    3    3    0    0 -0.11326905861E+03 -0.18334790639E+03 -0.13669315115E+03  0.25521040728E+03  0.99999687468E+00 0.  0.
          4    1    3    3  501    0  0.26359408937E+03 -0.81582804248E+02 -0.47238320199E+02  0.27994473882E+03  0.00000000000E+00 0.  1.
   -9000007    1    1    2    0  503 -0.15032503076E+03  0.26493071064E+03 -0.50802533664E+03  0.71475564984E+03  0.40000000000E+03 0.  1.
<mgrwt>
<rscale>  2 0.50272205E+03</rscale>
<asrwt>0</asrwt>
<pdfrwt beam="1">  1       21 0.42919538E-01 0.50277818E+03</pdfrwt>
<pdfrwt beam="2">  1       21 0.14937443E+00 0.50277818E+03</pdfrwt>
<totfact> 0.13130024E+03</totfact>
</mgrwt>
</event>
<event>
 6    1  0.8739326E-004  0.4859457E+03  0.7818608E-02  0.1017572E+00
         21   -1    0    0  501  502  0.00000000000E+00  0.00000000000E+00  0.21924691136E+03  0.21924691136E+03  0.00000000000E+00 0.  1.
         21   -1    0    0  502  503 -0.00000000000E+00 -0.00000000000E+00 -0.10929524061E+04  0.10929524061E+04  0.00000000000E+00 0.  1.
    9000007    2    1    2  501    0  0.27237489152E+03 -0.44216957647E+02 -0.35277680777E+03  0.59980201413E+03  0.39895834267E+03 0.  0.
    9000005    1    3    3    0    0  0.77126557414E+02  0.47794833988E+01 -0.38784383548E+03  0.39546831736E+03  0.99999687468E+00 0.  0.
          4    1    3    3  501    0  0.19524833411E+03 -0.48996441046E+02  0.35067027707E+02  0.20433369678E+03  0.00000000000E+00 0.  1.
   -9000007    1    1    2    0  503 -0.27237489152E+03  0.44216957647E+02 -0.52092868693E+03  0.71239730329E+03  0.40000000000E+03 0. -1.
<mgrwt>
<rscale>  2 0.48573129E+03</rscale>
<asrwt>0</asrwt>
<pdfrwt beam="1">  1       21 0.33730294E-01 0.48594570E+03</pdfrwt>
<pdfrwt beam="2">  1       21 0.16814652E+00 0.48594570E+03</pdfrwt>
<totfact> 0.15577254E+03</totfact>
</mgrwt>
</event>
<event>
 6    1  0.8739326E-004  0.4169935E+03  0.7818608E-02  0.1038072E+00
         21   -1    0    0  501  502  0.00000000000E+00  0.00000000000E+00  0.74026310463E+03  0.74026310463E+03  0.00000000000E+00 0.  1.
         21   -1    0    0  502  503 -0.00000000000E+00 -0.00000000000E+00 -0.23474113969E+03  0.23474113969E+03  0.00000000000E+00 0.  1.
    9000007    2    1    2  501    0  0.27685398246E+02  0.11352238422E+03  0.25428866732E+03  0.48841203021E+03  0.40028711187E+03 0.  0.
    9000005    1    3    3    0    0 -0.93601251268E+02 -0.16817005240E+02  0.29141430331E+03  0.30654086526E+03  0.99999687468E+00 0.  0.
          4    1    3    3  501    0  0.12128664951E+03  0.13033938946E+03 -0.37125635990E+02  0.18187116496E+03  0.00000000000E+00 0.  1.
   -9000007    1    1    2    0  503 -0.27685398246E+02 -0.11352238422E+03  0.25123329762E+03  0.48659221411E+03  0.40000000000E+03 0. -1.
<mgrwt>
<rscale>  2 0.41692459E+03</rscale>
<asrwt>0</asrwt>
<pdfrwt beam="1">  1       21 0.11388663E+00 0.41699351E+03</pdfrwt>
<pdfrwt beam="2">  1       21 0.36114022E-01 0.41699351E+03</pdfrwt>
<totfact> 0.39189941E+03</totfact>
</mgrwt>
</event>
<event>
 6    1  0.8739326E-004  0.5185793E+03  0.7818608E-02  0.1009054E+00
         21   -1    0    0  501  502  0.00000000000E+00  0.00000000000E+00  0.17530178280E+03  0.17530178280E+03  0.00000000000E+00 0.  1.
         21   -1    0    0  502  503 -0.00000000000E+00 -0.00000000000E+00 -0.15745051363E+04  0.15745051363E+04  0.00000000000E+00 0. -1.
    9000007    2    1    2  501    0  0.32700055003E+03 -0.42053551528E+02 -0.84107515548E+03  0.98809506655E+03  0.40028312786E+03 0.  0.
    9000005    1    3    3    0    0 -0.45860963859E+02 -0.60516335616E+02 -0.41378159171E+03  0.42069188311E+03  0.99999687468E+00 0.  0.
          4    1    3    3  501    0  0.37286151388E+03  0.18462784088E+02 -0.42729356377E+03  0.56740318343E+03  0.00000000000E+00 0.  1.
   -9000007    1    1    2    0  503 -0.32700055003E+03  0.42053551528E+02 -0.55812819804E+03  0.76171185258E+03  0.40000000000E+03 0.  1.
<mgrwt>
<rscale>  2 0.51852462E+03</rscale>
<asrwt>0</asrwt>
<pdfrwt beam="1">  1       21 0.26969503E-01 0.51857925E+03</pdfrwt>
<pdfrwt beam="2">  1       21 0.24223157E+00 0.51857925E+03</pdfrwt>
<totfact> 0.76866915E+02</totfact>
</mgrwt>
</event>
<event>
 6    1  0.8739326E-004  0.4044788E+03  0.7818608E-02  0.1042249E+00
         21   -1    0    0  501  502  0.00000000000E+00  0.00000000000E+00  0.22467845960E+03  0.22467845960E+03  0.00000000000E+00 0. -1.
         21   -1    0    0  502  503 -0.00000000000E+00 -0.00000000000E+00 -0.19829931643E+04  0.19829931643E+04  0.00000000000E+00 0. -1.
    9000007    2    1    2  501    0  0.54496174184E+02 -0.25164307634E+02 -0.96134541562E+00  0.40437078799E+03  0.39988965305E+03 0.  0.
    9000005    1    3    3    0    0  0.11490412151E+03  0.32489261028E+02  0.17369252911E+03  0.21078093814E+03  0.99999687468E+00 0.  0.
          4    1    3    3  501    0 -0.60407947326E+02 -0.57653568662E+02 -0.17465387452E+03  0.19358984985E+03  0.00000000000E+00 0.  1.
   -9000007    1    1    2    0  503 -0.54496174184E+02  0.25164307634E+02 -0.17573533593E+04  0.18033008359E+04  0.40000000000E+03 0. -1.
<mgrwt>
<rscale>  2 0.40445149E+03</rscale>
<asrwt>0</asrwt>
<pdfrwt beam="1">  1       21 0.34565917E-01 0.40447877E+03</pdfrwt>
<pdfrwt beam="2">  1       21 0.30507587E+00 0.40447877E+03</pdfrwt>
<totfact> 0.20739760E+02</totfact>
</mgrwt>
</event>
<event>
 6    1  0.8739326E-004  0.4226184E+03  0.7818608E-02  0.1036232E+00
         21   -1    0    0  501  502  0.00000000000E+00  0.00000000000E+00  0.15849088177E+03  0.15849088177E+03  0.00000000000E+00 0. -1.
         21   -1    0    0  502  503 -0.00000000000E+00 -0.00000000000E+00 -0.16740136348E+04  0.16740136348E+04  0.00000000000E+00 0. -1.
    9000007    2    1    2  501    0 -0.85517417450E+02  0.10555366783E+03 -0.23383896399E+03  0.48299788798E+03  0.40018932175E+03 0.  0.
    9000005    1    3    3    0    0  0.24142915385E+02  0.48708166300E+02  0.10724320733E+03  0.12023922546E+03  0.99999687468E+00 0.  0.
          4    1    3    3  501    0 -0.10966033284E+03  0.56845501526E+02 -0.34108217132E+03  0.36275866252E+03  0.00000000000E+00 0.  1.
   -9000007    1    1    2    0  503  0.85517417450E+02 -0.10555366783E+03 -0.12816837891E+04  0.13495066286E+04  0.40000000000E+03 0. -1.
<mgrwt>
<rscale>  2 0.42257356E+03</rscale>
<asrwt>0</asrwt>
<pdfrwt beam="1">  1       21 0.24383212E-01 0.42261838E+03</pdfrwt>
<pdfrwt beam="2">  1       21 0.25754056E+00 0.42261838E+03</pdfrwt>
<totfact> 0.78935188E+02</totfact>
</mgrwt>
</event>
<event>
 6    1  0.8739326E-004  0.4011028E+03  0.7818608E-02  0.1043399E+00
         21   -1    0    0  501  502  0.00000000000E+00  0.00000000000E+00  0.84423303838E+03  0.84423303838E+03  0.00000000000E+00 0. -1.
         21   -1    0    0  502  503 -0.00000000000E+00 -0.00000000000E+00 -0.21652127882E+03  0.21652127882E+03  0.00000000000E+00 0. -1.
    9000007    2    1    2  501    0  0.18739291564E+02  0.23072369911E+02  0.49748570220E+03  0.63904076357E+03  0.39999697288E+03 0.  0.
    9000005    1    3    3    0    0  0.25266671012E+02 -0.55024690694E+02  0.54436327883E+03  0.54772118873E+03  0.99999687468E+00 0.  0.
          4    1    3    3  501    0 -0.65273794480E+01  0.78097060605E+02 -0.46877576637E+02  0.91319574840E+02  0.00000000000E+00 0.  1.
   -9000007    1    1    2    0  503 -0.18739291564E+02 -0.23072369911E+02  0.13022605736E+03  0.42171355363E+03  0.40000000000E+03 0. -1.
<mgrwt>
<rscale>  2 0.40110209E+03</rscale>
<asrwt>0</asrwt>
<pdfrwt beam="1">  1       21 0.12988200E+00 0.40110285E+03</pdfrwt>
<pdfrwt beam="2">  1       21 0.33310966E-01 0.40110285E+03</pdfrwt>
<totfact> 0.33236919E+03</totfact>
</mgrwt>
</event>
<event>
 6    1  0.8739326E-004  0.4703962E+03  0.7818608E-02  0.1021836E+00
         21   -1    0    0  501  502  0.00000000000E+00  0.00000000000E+00  0.35585605614E+03  0.35585605614E+03  0.00000000000E+00 0. -1.
         21   -1    0    0  502  503 -0.00000000000E+00 -0.00000000000E+00 -0.63609137990E+03  0.63609137990E+03  0.00000000000E+00 0. -1.
    9000007    2    1    2  501    0  0.23886695363E+03  0.64924495728E+02 -0.64419939973E+02  0.47440623811E+03  0.39954816782E+03 0.  0.
    9000005    1    3    3    0    0  0.77113482407E+02  0.17110272560E+03 -0.17065908879E+03  0.25366938415E+03  0.99999687468E+00 0.  0.
          4    1    3    3  501    0  0.16175347122E+03 -0.10617822987E+03  0.10623914882E+03  0.22073685395E+03  0.00000000000E+00 0.  1.
   -9000007    1    1    2    0  503 -0.23886695363E+03 -0.64924495728E+02 -0.21581538378E+03  0.51754119794E+03  0.40000000000E+03 0. -1.
<mgrwt>
<rscale>  2 0.47030016E+03</rscale>
<asrwt>0</asrwt>
<pdfrwt beam="1">  1       21 0.54747086E-01 0.47039623E+03</pdfrwt>
<pdfrwt beam="2">  1       21 0.97860212E-01 0.47039623E+03</pdfrwt>
<totfact> 0.23380097E+03</totfact>
</mgrwt>
</event>
<event>
 6    1  0.8739326E-004  0.4088606E+03  0.7818608E-02  0.1040797E+00
         21   -1    0    0  501  502  0.00000000000E+00  0.00000000000E+00  0.14575020705E+04  0.14575020705E+04  0.00000000000E+00 0. -1.
         21   -1    0    0  502  503 -0.00000000000E+00 -0.00000000000E+00 -0.13618716197E+03  0.13618716197E+03  0.00000000000E+00 0. -1.
    9000007    2    1    2  501    0 -0.76114390000E+02  0.30915559356E+02  0.97861763168E+03  0.10605939354E+04  0.40052197776E+03 0.  0.
    9000005    1    3    3    0    0  0.47501885868E+02  0.17526515037E+03  0.25908547930E+03  0.31638676912E+03  0.99999687468E+00 0.  0.
          4    1    3    3  501    0 -0.12361627587E+03 -0.14434959101E+03  0.71953215238E+03  0.74420716631E+03  0.00000000000E+00 0.  1.
   -9000007    1    1    2    0  503  0.76114390000E+02 -0.30915559356E+02  0.34269727688E+03  0.53309529707E+03  0.40000000000E+03 0. -1.
<mgrwt>
<rscale>  2 0.40873276E+03</rscale>
<asrwt>0</asrwt>
<pdfrwt beam="1">  1       21 0.22423108E+00 0.40886064E+03</pdfrwt>
<pdfrwt beam="2">  1       21 0.20951872E-01 0.40886064E+03</pdfrwt>
<totfact> 0.17105678E+03</totfact>
</mgrwt>
</event>
<event>
 6    1  0.8739326E-004  0.4185980E+03  0.7818608E-02  0.1037530E+00
         21   -1    0    0  501  502  0.00000000000E+00  0.00000000000E+00  0.71895570109E+02  0.71895570109E+02  0.00000000000E+00 0. -1.
         21   -1    0    0  502  503 -0.00000000000E+00 -0.00000000000E+00 -0.29815565101E+04  0.29815565101E+04  0.00000000000E+00 0. -1.
    9000007    2    1    2  501    0  0.12169497568E+03 -0.18723466581E+02 -0.80232444887E+03  0.90495788145E+03  0.40008000529E+03 0.  0.
    9000005    1    3    3    0    0  0.24472740740E+03  0.16640820766E+02 -0.30488746466E+03  0.39131290159E+03  0.99999687468E+00 0.  0.
          4    1    3    3  501    0 -0.12303243172E+03 -0.35364287347E+02 -0.49743698421E+03  0.51364497986E+03  0.00000000000E+00 0.  1.
   -9000007    1    1    2    0  503 -0.12169497568E+03  0.18723466581E+02 -0.21073364911E+04  0.21484941988E+04  0.40000000000E+03 0. -1.
<mgrwt>
<rscale>  2 0.41857883E+03</rscale>
<asrwt>0</asrwt>
<pdfrwt beam="1">  1       21 0.11060856E-01 0.41859795E+03</pdfrwt>
<pdfrwt beam="2">  1       21 0.45870104E+00 0.41859795E+03</pdfrwt>
<totfact> 0.19137405E+02</totfact>
</mgrwt>
</event>
<event>
 6    1  0.8739326E-004  0.1340468E+04  0.7818608E-02  0.8998097E-01
         21   -1    0    0  501  502  0.00000000000E+00  0.00000000000E+00  0.14146772518E+04  0.14146772518E+04  0.00000000000E+00 0. -1.
         21   -1    0    0  502  503 -0.00000000000E+00 -0.00000000000E+00 -0.15598697940E+04  0.15598697940E+04  0.00000000000E+00 0.  1.
    9000007    2    1    2  501    0  0.12193325098E+04 -0.38740437277E+03  0.56848865824E+03  0.14559309740E+04  0.39962698721E+03 0.  0.
    9000005    1    3    3    0    0  0.29316349821E+03 -0.12415183129E+03  0.34109367790E+03  0.46658805277E+03  0.99999687468E+00 0.  0.
          4    1    3    3  501    0  0.92616901160E+03 -0.26325254149E+03  0.22739498035E+03  0.98934292120E+03  0.00000000000E+00 0.  1.
   -9000007    1    1    2    0  503 -0.12193325098E+04  0.38740437277E+03 -0.71368120043E+03  0.15186160717E+04  0.40000000000E+03 0. -1.
<mgrwt>
<rscale>  2 0.13404400E+04</rscale>
<asrwt>0</asrwt>
<pdfrwt beam="1">  1       21 0.21764265E+00 0.13404678E+04</pdfrwt>
<pdfrwt beam="2">  1       21 0.23997997E+00 0.13404678E+04</pdfrwt>
<totfact> 0.39552992E+00</totfact>
</mgrwt>
</event>
<event>
 6    1  0.8739326E-004  0.4297405E+03  0.7818608E-02  0.1033977E+00
         21   -1    0    0  501  502  0.00000000000E+00  0.00000000000E+00  0.56029760878E+03  0.56029760878E+03  0.00000000000E+00 0.  1.
         21   -1    0    0  502  503 -0.00000000000E+00 -0.00000000000E+00 -0.71897454325E+03  0.71897454325E+03  0.00000000000E+00 0. -1.
    9000007    2    1    2  501    0  0.13775125681E+03  0.72934374755E+02  0.39156286233E+03  0.58137626742E+03  0.40047728698E+03 0.  0.
    9000005    1    3    3    0    0  0.27480842638E+03  0.94438523556E+02  0.25284291126E+03  0.38518676471E+03  0.99999687468E+00 0.  0.
          4    1    3    3  501    0 -0.13705716957E+03 -0.21504148801E+02  0.13871995108E+03  0.19618950271E+03  0.00000000000E+00 0.  1.
   -9000007    1    1    2    0  503 -0.13775125681E+03 -0.72934374755E+02 -0.55023979681E+03  0.69789588462E+03  0.40000000000E+03 0. -1.
<mgrwt>
<rscale>  2 0.42962926E+03</rscale>
<asrwt>0</asrwt>
<pdfrwt beam="1">  1       21 0.86199632E-01 0.42974049E+03</pdfrwt>
<pdfrwt beam="2">  1       21 0.11061147E+00 0.42974049E+03</pdfrwt>
<totfact> 0.63463447E+02</totfact>
</mgrwt>
</event>
<event>
 6    1  0.8739326E-004  0.4250185E+03  0.7818608E-02  0.1035527E+00
         21   -1    0    0  501  502  0.00000000000E+00  0.00000000000E+00  0.19589692597E+04  0.19589692597E+04  0.00000000000E+00 0.  1.
         21   -1    0    0  502  503 -0.00000000000E+00 -0.00000000000E+00 -0.14512490591E+03  0.14512490591E+03  0.00000000000E+00 0.  1.
    9000007    2    1    2  501    0 -0.85825664049E+02  0.11141560742E+03  0.15441774154E+04  0.16016006434E+04  0.40107511596E+03 0.  0.
    9000005    1    3    3    0    0 -0.89578027514E+02 -0.48929177182E+02  0.13305794048E+04  0.13344889808E+04  0.99999687468E+00 0.  0.
          4    1    3    3  501    0  0.37523634656E+01  0.16034478461E+03  0.21359801055E+03  0.26711166259E+03  0.00000000000E+00 0.  1.
   -9000007    1    1    2    0  503  0.85825664049E+02 -0.11141560742E+03  0.26966693843E+03  0.50249352221E+03  0.40000000000E+03 0.  1.
<mgrwt>
<rscale>  2 0.42476468E+03</rscale>
<asrwt>0</asrwt>
<pdfrwt beam="1">  1       21 0.30137987E+00 0.42501851E+03</pdfrwt>
<pdfrwt beam="2">  1       21 0.22326910E-01 0.42501851E+03</pdfrwt>
<totfact> 0.50878671E+02</totfact>
</mgrwt>
</event>
<event>
 6    1  0.8739326E-004  0.5216231E+03  0.7818608E-02  0.1008402E+00
         21   -1    0    0  501  502  0.00000000000E+00  0.00000000000E+00  0.72776603915E+03  0.72776603915E+03  0.00000000000E+00 0.  1.
         21   -1    0    0  502  503 -0.00000000000E+00 -0.00000000000E+00 -0.37256961875E+03  0.37256961875E+03  0.00000000000E+00 0.  1.
    9000007    2    1    2  501    0 -0.13791114051E+02 -0.33153003279E+03  0.18523929948E+03  0.55353790697E+03  0.40247765021E+03 0.  0.
    9000005    1    3    3    0    0  0.19390039249E+03 -0.15989941161E+03  0.73500378716E+02  0.26185585674E+03  0.99999687468E+00 0.  0.
          4    1    3    3  501    0 -0.20769150654E+03 -0.17163062118E+03  0.11173892077E+03  0.29168205024E+03  0.00000000000E+00 0.  1.
   -9000007    1    1    2    0  503  0.13791114051E+02  0.33153003279E+03  0.16995712092E+03  0.54679775093E+03  0.40000000000E+03 0.  1.
<mgrwt>
<rscale>  2 0.52114507E+03</rscale>
<asrwt>0</asrwt>
<pdfrwt beam="1">  1       21 0.11196401E+00 0.52162306E+03</pdfrwt>
<pdfrwt beam="2">  1       21 0.57318403E-01 0.52162306E+03</pdfrwt>
<totfact> 0.14924816E+03</totfact>
</mgrwt>
</event>
<event>
 6    1  0.8739326E-004  0.4166353E+03  0.7818608E-02  0.1038176E+00
         21   -1    0    0  501  502  0.00000000000E+00  0.00000000000E+00  0.40577137953E+03  0.40577137953E+03  0.00000000000E+00 0. -1.
         21   -1    0    0  502  503 -0.00000000000E+00 -0.00000000000E+00 -0.99930149215E+03  0.99930149215E+03  0.00000000000E+00 0. -1.
    9000007    2    1    2  501    0  0.18942520059E+02  0.11458524471E+03  0.23456420955E+03  0.47812691653E+03  0.40012046003E+03 0.  0.
    9000005    1    3    3    0    0 -0.13886989292E+02  0.90422360037E+02  0.34682799579E+03  0.35869166469E+03  0.99999687468E+00 0.  0.
          4    1    3    3  501    0  0.32829509351E+02  0.24162884670E+02 -0.11226378624E+03  0.11943525183E+03  0.00000000000E+00 0.  1.
   -9000007    1    1    2    0  503 -0.18942520059E+02 -0.11458524471E+03 -0.82809432217E+03  0.92694595516E+03  0.40000000000E+03 0. -1.
<mgrwt>
<rscale>  2 0.41660638E+03</rscale>
<asrwt>0</asrwt>
<pdfrwt beam="1">  1       21 0.62426366E-01 0.41663531E+03</pdfrwt>
<pdfrwt beam="2">  1       21 0.15373869E+00 0.41663531E+03</pdfrwt>
<totfact> 0.56475190E+02</totfact>
</mgrwt>
</event>
<event>
 6    1  0.8739326E-004  0.6134901E+03  0.7818608E-02  0.9877854E-01
         21   -1    0    0  501  502  0.00000000000E+00  0.00000000000E+00  0.48128752204E+03  0.48128752204E+03  0.00000000000E+00 0.  1.
         21   -1    0    0  502  503 -0.00000000000E+00 -0.00000000000E+00 -0.14229606100E+04  0.14229606100E+04  0.00000000000E+00 0. -1.
    9000007    2    1    2  501    0 -0.43467245283E+03 -0.16561988330E+03  0.16825678506E+03  0.63605476745E+03  0.39985651738E+03 0.  0.
    9000005    1    3    3    0    0  0.13511832463E+02 -0.15744820431E+03  0.87312587071E+02  0.18054637773E+03  0.99999687468E+00 0.  0.
          4    1    3    3  501    0 -0.44818428529E+03 -0.81716789910E+01  0.80944197985E+02  0.45550838972E+03  0.00000000000E+00 0.  1.
   -9000007    1    1    2    0  503  0.43467245283E+03  0.16561988330E+03 -0.11099298730E+04  0.12681933646E+04  0.40000000000E+03 0. -1.
<mgrwt>
<rscale>  2 0.61346670E+03</rscale>
<asrwt>0</asrwt>
<pdfrwt beam="1">  1       21 0.74044235E-01 0.61349009E+03</pdfrwt>
<pdfrwt beam="2">  1       21 0.21891701E+00 0.61349009E+03</pdfrwt>
<totfact> 0.12315597E+02</totfact>
</mgrwt>
</event>
<event>
 6    1  0.8739326E-004  0.4043735E+03  0.7818608E-02  0.1042610E+00
         21   -1    0    0  501  502  0.00000000000E+00  0.00000000000E+00  0.44415963351E+03  0.44415963351E+03  0.00000000000E+00 0.  1.
         21   -1    0    0  502  503 -0.00000000000E+00 -0.00000000000E+00 -0.49940564134E+03  0.49940564134E+03  0.00000000000E+00 0.  1.
    9000007    2    1    2  501    0 -0.12365403240E+02  0.15085783772E+02 -0.27282335944E+03  0.48780175283E+03  0.40390281076E+03 0.  0.
    9000005    1    3    3    0    0  0.16763260738E+03 -0.45721613813E+02 -0.25026892884E+02  0.17555199340E+03  0.99999687468E+00 0.  0.
          4    1    3    3  501    0 -0.17999801062E+03  0.60807397585E+02 -0.24779646656E+03  0.31224975943E+03  0.00000000000E+00 0.  1.
   -9000007    1    1    2    0  503  0.12365403240E+02 -0.15085783772E+02  0.21757735161E+03  0.45576352202E+03  0.40000000000E+03 0.  1.
<mgrwt>
<rscale>  2 0.40339545E+03</rscale>
<asrwt>0</asrwt>
<pdfrwt beam="1">  1       21 0.68332251E-01 0.40437355E+03</pdfrwt>
<pdfrwt beam="2">  1       21 0.76831637E-01 0.40437355E+03</pdfrwt>
<totfact> 0.25993761E+03</totfact>
</mgrwt>
</event>
<event>
 6    1  0.8739326E-004  0.4867188E+03  0.7818608E-02  0.1017382E+00
         21   -1    0    0  501  502  0.00000000000E+00  0.00000000000E+00  0.72568723455E+03  0.72568723455E+03  0.00000000000E+00 0. -1.
         21   -1    0    0  502  503 -0.00000000000E+00 -0.00000000000E+00 -0.49440644015E+03  0.49440644015E+03  0.00000000000E+00 0. -1.
    9000007    2    1    2  501    0 -0.18281106347E+03 -0.20583021057E+03  0.47211137868E+03  0.67807399716E+03  0.40138414423E+03 0.  0.
    9000005    1    3    3    0    0  0.55709607387E+02 -0.20719711007E+03  0.34893332703E+03  0.40962137332E+03  0.99999687468E+00 0.  0.
          4    1    3    3  501    0 -0.23852067085E+03  0.13668994978E+01  0.12317805164E+03  0.26845262384E+03  0.00000000000E+00 0.  1.
   -9000007    1    1    2    0  503  0.18281106347E+03  0.20583021057E+03 -0.24083058428E+03  0.54201967753E+03  0.40000000000E+03 0. -1.
<mgrwt>
<rscale>  2 0.48643334E+03</rscale>
<asrwt>0</asrwt>
<pdfrwt beam="1">  1       21 0.11164419E+00 0.48671880E+03</pdfrwt>
<pdfrwt beam="2">  1       21 0.76062529E-01 0.48671880E+03</pdfrwt>
<totfact> 0.80880340E+02</totfact>
</mgrwt>
</event>
<event>
 6    1  0.8739326E-004  0.4077141E+03  0.7818608E-02  0.1041277E+00
         21   -1    0    0  501  502  0.00000000000E+00  0.00000000000E+00  0.17520995982E+03  0.17520995982E+03  0.00000000000E+00 0. -1.
         21   -1    0    0  502  503 -0.00000000000E+00 -0.00000000000E+00 -0.14079485225E+04  0.14079485225E+04  0.00000000000E+00 0.  1.
    9000007    2    1    2  501    0  0.48075441915E+02  0.51134169792E+02 -0.16328951074E+03  0.43919728275E+03  0.40162773487E+03 0.  0.
    9000005    1    3    3    0    0 -0.17957280040E+02 -0.16969504883E+03 -0.10871661076E+03  0.20233431482E+03  0.99999687468E+00 0.  0.
          4    1    3    3  501    0  0.66032721955E+02  0.22082921862E+03 -0.54572899981E+02  0.23686296793E+03  0.00000000000E+00 0.  1.
   -9000007    1    1    2    0  503 -0.48075441915E+02 -0.51134169792E+02 -0.10694490519E+04  0.11439611996E+04  0.40000000000E+03 0.  1.
<mgrwt>
<rscale>  2 0.40731267E+03</rscale>
<asrwt>0</asrwt>
<pdfrwt beam="1">  1       21 0.26955379E-01 0.40771410E+03</pdfrwt>
<pdfrwt beam="2">  1       21 0.21660746E+00 0.40771410E+03</pdfrwt>
<totfact> 0.11762202E+03</totfact>
</mgrwt>
</event>
<event>
 6    1  0.8739326E-004  0.4092010E+03  0.7818608E-02  0.1040643E+00
         21   -1    0    0  501  502  0.00000000000E+00  0.00000000000E+00  0.71682722990E+03  0.71682722990E+03  0.00000000000E+00 0.  1.
         21   -1    0    0  502  503 -0.00000000000E+00 -0.00000000000E+00 -0.44931101557E+03  0.44931101557E+03  0.00000000000E+00 0.  1.
    9000007    2    1    2  501    0  0.13178189943E+02  0.85274727304E+02  0.53778601351E+03  0.67573921594E+03  0.39995530728E+03 0.  0.
    9000005    1    3    3    0    0 -0.19174764843E+03  0.66646699406E+02  0.28171382807E+03  0.34723568961E+03  0.99999687468E+00 0.  0.
          4    1    3    3  501    0  0.20492583837E+03  0.18628027898E+02  0.25607218544E+03  0.32850352633E+03  0.00000000000E+00 0.  1.
   -9000007    1    1    2    0  503 -0.13178189943E+02 -0.85274727304E+02 -0.27026979919E+03  0.49039902953E+03  0.40000000000E+03 0.  1.
<mgrwt>
<rscale>  2 0.40919006E+03</rscale>
<asrwt>0</asrwt>
<pdfrwt beam="1">  1       21 0.11028111E+00 0.40920098E+03</pdfrwt>
<pdfrwt beam="2">  1       21 0.69124772E-01 0.40920098E+03</pdfrwt>
<totfact> 0.10701485E+03</totfact>
</mgrwt>
</event>
<event>
 6    1  0.8739326E-004  0.4011723E+03  0.7818608E-02  0.1043389E+00
         21   -1    0    0  501  502  0.00000000000E+00  0.00000000000E+00  0.48008144499E+03  0.48008144499E+03  0.00000000000E+00 0.  1.
         21   -1    0    0  502  503 -0.00000000000E+00 -0.00000000000E+00 -0.41163826943E+03  0.41163826943E+03  0.00000000000E+00 0.  1.
    9000007    2    1    2  501    0  0.28893230250E+02 -0.10218113862E+02  0.22648500775E+03  0.46053941649E+03  0.39982729621E+03 0.  0.
    9000005    1    3    3    0    0  0.11967653243E+03 -0.51763718234E+02 -0.69788415535E+02  0.14789651070E+03  0.99999687468E+00 0.  0.
          4    1    3    3  501    0 -0.90783302179E+02  0.41545604373E+02  0.29627342328E+03  0.31264290579E+03  0.00000000000E+00 0.  1.
   -9000007    1    1    2    0  503 -0.28893230250E+02  0.10218113862E+02 -0.15804183219E+03  0.43118029793E+03  0.40000000000E+03 0.  1.
<mgrwt>
<rscale>  2 0.40112926E+03</rscale>
<asrwt>0</asrwt>
<pdfrwt beam="1">  1       21 0.73858684E-01 0.40117232E+03</pdfrwt>
<pdfrwt beam="2">  1       21 0.63328964E-01 0.40117232E+03</pdfrwt>
<totfact> 0.33714247E+03</totfact>
</mgrwt>
</event>
<event>
 6    1  0.8739326E-004  0.4130809E+03  0.7818608E-02  0.1039348E+00
         21   -1    0    0  501  502  0.00000000000E+00  0.00000000000E+00  0.31527642265E+03  0.31527642265E+03  0.00000000000E+00 0.  1.
         21   -1    0    0  502  503 -0.00000000000E+00 -0.00000000000E+00 -0.58522268775E+03  0.58522268775E+03  0.00000000000E+00 0. -1.
    9000007    2    1    2  501    0 -0.64634198816E+02 -0.80023987843E+02 -0.25855729711E+03  0.48732707979E+03  0.40006797987E+03 0.  0.
    9000005    1    3    3    0    0  0.99673183221E+02  0.11834256453E+03 -0.11160427642E+03  0.19077793516E+03  0.99999687468E+00 0.  0.
          4    1    3    3  501    0 -0.16430738204E+03 -0.19836655237E+03 -0.14695302069E+03  0.29654914463E+03  0.00000000000E+00 0.  1.
   -9000007    1    1    2    0  503  0.64634198816E+02  0.80023987843E+02 -0.11388967990E+02  0.41317203061E+03  0.40000000000E+03 0.  1.
<mgrwt>
<rscale>  2 0.41306441E+03</rscale>
<asrwt>0</asrwt>
<pdfrwt beam="1">  1       21 0.48504066E-01 0.41308087E+03</pdfrwt>
<pdfrwt beam="2">  1       21 0.90034258E-01 0.41308087E+03</pdfrwt>
<totfact> 0.37732620E+03</totfact>
</mgrwt>
</event>
<event>
 6    1  0.8739326E-004  0.7425137E+03  0.7818608E-02  0.9647266E-01
         21   -1    0    0  501  502  0.00000000000E+00  0.00000000000E+00  0.28148335092E+03  0.28148335092E+03  0.00000000000E+00 0. -1.
         21   -1    0    0  502  503 -0.00000000000E+00 -0.00000000000E+00 -0.21467798814E+04  0.21467798814E+04  0.00000000000E+00 0.  1.
    9000007    2    1    2  501    0 -0.20149763942E+02 -0.62523638094E+03 -0.57247354115E+03  0.93738502577E+03  0.39954747675E+03 0.  0.
    9000005    1    3    3    0    0 -0.13134124043E+03 -0.45151972256E+03 -0.19872654455E+03  0.51050349734E+03  0.99999687468E+00 0.  0.
          4    1    3    3  501    0  0.11119147649E+03 -0.17371665839E+03 -0.37374699660E+03  0.42688152843E+03  0.00000000000E+00 0.  1.
   -9000007    1    1    2    0  503  0.20149763942E+02  0.62523638094E+03 -0.12928229893E+04  0.14908782066E+04  0.40000000000E+03 0.  1.
<mgrwt>
<rscale>  2 0.74245274E+03</rscale>
<asrwt>0</asrwt>
<pdfrwt beam="1">  1       21 0.43305133E-01 0.74251367E+03</pdfrwt>
<pdfrwt beam="2">  1       21 0.33027381E+00 0.74251367E+03</pdfrwt>
<totfact> 0.77092689E+01</totfact>
</mgrwt>
</event>
<event>
 6    1  0.8739326E-004  0.4147028E+03  0.7818608E-02  0.1038810E+00
         21   -1    0    0  501  502  0.00000000000E+00  0.00000000000E+00  0.97344585428E+03  0.97344585428E+03  0.00000000000E+00 0.  1.
         21   -1    0    0  502  503 -0.00000000000E+00 -0.00000000000E+00 -0.48184652896E+03  0.48184652896E+03  0.00000000000E+00 0. -1.
    9000007    2    1    2  501    0  0.42182640121E+02 -0.10099010069E+03  0.82490394608E+03  0.92324882695E+03  0.39992936958E+03 0.  0.
    9000005    1    3    3    0    0  0.45528191079E+02  0.13870969886E+03  0.16072938734E+03  0.21713620769E+03  0.99999687468E+00 0.  0.
          4    1    3    3  501    0 -0.33455509574E+01 -0.23969979955E+03  0.66417455874E+03  0.70611261927E+03  0.00000000000E+00 0.  1.
   -9000007    1    1    2    0  503 -0.42182640121E+02  0.10099010069E+03 -0.33330462076E+03  0.53204355629E+03  0.40000000000E+03 0. -1.
<mgrwt>
<rscale>  2 0.41468572E+03</rscale>
<asrwt>0</asrwt>
<pdfrwt beam="1">  1       21 0.14976090E+00 0.41470276E+03</pdfrwt>
<pdfrwt beam="2">  1       21 0.74130235E-01 0.41470276E+03</pdfrwt>
<totfact> 0.41333507E+02</totfact>
</mgrwt>
</event>
<event>
 6    1  0.8739326E-004  0.4254088E+03  0.7818608E-02  0.1035338E+00
         21   -1    0    0  501  502  0.00000000000E+00  0.00000000000E+00  0.11776240885E+03  0.11776240885E+03  0.00000000000E+00 0. -1.
         21   -1    0    0  502  503 -0.00000000000E+00 -0.00000000000E+00 -0.17236634825E+04  0.17236634825E+04  0.00000000000E+00 0.  1.
    9000007    2    1    2  501    0  0.12604984770E+03 -0.71303051130E+02 -0.49893907293E+03  0.65553485071E+03  0.39976624770E+03 0.  0.
    9000005    1    3    3    0    0  0.34974216865E+02  0.58133662523E+01  0.67719856764E+02  0.76445863632E+02  0.99999687468E+00 0.  0.
          4    1    3    3  501    0  0.91075630833E+02 -0.77116417382E+02 -0.56665892969E+03  0.57908898708E+03  0.00000000000E+00 0.  1.
   -9000007    1    1    2    0  503 -0.12604984770E+03  0.71303051130E+02 -0.11069620008E+04  0.11858910407E+04  0.40000000000E+03 0.  1.
<mgrwt>
<rscale>  2 0.42535389E+03</rscale>
<asrwt>0</asrwt>
<pdfrwt beam="1">  1       21 0.18117295E-01 0.42540885E+03</pdfrwt>
<pdfrwt beam="2">  1       21 0.26517897E+00 0.42540885E+03</pdfrwt>
<totfact> 0.12494687E+03</totfact>
</mgrwt>
</event>
<event>
 6    1  0.8739326E-004  0.4062770E+03  0.7818608E-02  0.1041773E+00
         21   -1    0    0  501  502  0.00000000000E+00  0.00000000000E+00  0.27041802138E+04  0.27041802138E+04  0.00000000000E+00 0.  1.
         21   -1    0    0  502  503 -0.00000000000E+00 -0.00000000000E+00 -0.13479748909E+03  0.13479748909E+03  0.00000000000E+00 0.  1.
    9000007    2    1    2  501    0  0.66630617308E+02  0.24927800528E+02  0.23353113518E+04  0.23700955834E+04  0.39826238860E+03 0.  0.
    9000005    1    3    3    0    0  0.33027075260E+02  0.73293311890E+02  0.78001337904E+02  0.11201743604E+03  0.99999687468E+00 0.  0.
          4    1    3    3  501    0  0.33603542048E+02 -0.48365511362E+02  0.22573100139E+04  0.22580781473E+04  0.00000000000E+00 0.  1.
   -9000007    1    1    2    0  503 -0.66630617308E+02 -0.24927800528E+02  0.23407137298E+03  0.46888211957E+03  0.40000000000E+03 0.  1.
<mgrwt>
<rscale>  2 0.40584870E+03</rscale>
<asrwt>0</asrwt>
<pdfrwt beam="1">  1       21 0.41602769E+00 0.40627704E+03</pdfrwt>
<pdfrwt beam="2">  1       21 0.20738077E-01 0.40627704E+03</pdfrwt>
<totfact> 0.11588480E+02</totfact>
</mgrwt>
</event>
<event>
 6    1  0.8739326E-004  0.4892534E+03  0.7818608E-02  0.1016634E+00
         21   -1    0    0  501  502  0.00000000000E+00  0.00000000000E+00  0.11893414921E+04  0.11893414921E+04  0.00000000000E+00 0.  1.
         21   -1    0    0  502  503 -0.00000000000E+00 -0.00000000000E+00 -0.20162965178E+03  0.20162965178E+03  0.00000000000E+00 0.  1.
    9000007    2    1    2  501    0 -0.25011399176E+03  0.12966074918E+03  0.52621326885E+03  0.71840155626E+03  0.39978928571E+03 0.  0.
    9000005    1    3    3    0    0 -0.29425029938E+01 -0.11277190448E+03  0.25419496860E+03  0.27810473354E+03  0.99999687468E+00 0.  0.
          4    1    3    3  501    0 -0.24717148877E+03  0.24243265366E+03  0.27201830025E+03  0.44029682271E+03  0.00000000000E+00 0.  1.
   -9000007    1    1    2    0  503  0.25011399176E+03 -0.12966074918E+03  0.46149857151E+03  0.67256958767E+03  0.40000000000E+03 0.  1.
<mgrwt>
<rscale>  2 0.48921036E+03</rscale>
<asrwt>0</asrwt>
<pdfrwt beam="1">  1       21 0.18297561E+00 0.48925343E+03</pdfrwt>
<pdfrwt beam="2">  1       21 0.31019947E-01 0.48925343E+03</pdfrwt>
<totfact> 0.14408261E+03</totfact>
</mgrwt>
</event>
<event>
 6    1  0.8739326E-004  0.4477709E+03  0.7818608E-02  0.1028953E+00
         21   -1    0    0  501  502  0.00000000000E+00  0.00000000000E+00  0.37855110254E+03  0.37855110254E+03  0.00000000000E+00 0.  1.
         21   -1    0    0  502  503 -0.00000000000E+00 -0.00000000000E+00 -0.58111653376E+03  0.58111653376E+03  0.00000000000E+00 0.  1.
    9000007    2    1    2  501    0  0.10142706015E+03 -0.15361062448E+03 -0.25653322102E+03  0.51605046483E+03  0.40818514951E+03 0.  0.
    9000005    1    3    3    0    0  0.15792994950E+03  0.80768606219E+02 -0.20206509400E+03  0.26888052906E+03  0.99999687468E+00 0.  0.
          4    1    3    3  501    0 -0.56502889347E+02 -0.23437923070E+03 -0.54468127018E+02  0.24716993577E+03  0.00000000000E+00 0.  1.
   -9000007    1    1    2    0  503 -0.10142706015E+03  0.15361062448E+03  0.53967789798E+02  0.44361717147E+03  0.40000000000E+03 0.  1.
<mgrwt>
<rscale>  2 0.44589701E+03</rscale>
<asrwt>0</asrwt>
<pdfrwt beam="1">  1       21 0.58238632E-01 0.44777091E+03</pdfrwt>
<pdfrwt beam="2">  1       21 0.89402543E-01 0.44777091E+03</pdfrwt>
<totfact> 0.25583173E+03</totfact>
</mgrwt>
</event>
<event>
 6    1  0.8739326E-004  0.4322193E+03  0.7818608E-02  0.1033262E+00
         21   -1    0    0  501  502  0.00000000000E+00  0.00000000000E+00  0.25553826003E+03  0.25553826003E+03  0.00000000000E+00 0. -1.
         21   -1    0    0  502  503 -0.00000000000E+00 -0.00000000000E+00 -0.73004225431E+03  0.73004225431E+03  0.00000000000E+00 0. -1.
    9000007    2    1    2  501    0 -0.11482587274E+02  0.15992168676E+03 -0.25716641468E+03  0.50293942697E+03  0.40138099937E+03 0.  0.
    9000005    1    3    3    0    0 -0.10047035766E+03 -0.45984886692E+02  0.51064718731E+02  0.12172718704E+03  0.99999687468E+00 0.  0.
          4    1    3    3  501    0  0.88987770384E+02  0.20590657345E+03 -0.30823113341E+03  0.38121223993E+03  0.00000000000E+00 0.  1.
   -9000007    1    1    2    0  503  0.11482587274E+02 -0.15992168676E+03 -0.21733757960E+03  0.48264108737E+03  0.40000000000E+03 0. -1.
<mgrwt>
<rscale>  2 0.43189838E+03</rscale>
<asrwt>0</asrwt>
<pdfrwt beam="1">  1       21 0.39313578E-01 0.43221928E+03</pdfrwt>
<pdfrwt beam="2">  1       21 0.11231419E+00 0.43221928E+03</pdfrwt>
<totfact> 0.33925746E+03</totfact>
</mgrwt>
</event>
<event>
 6    1  0.8739326E-004  0.4065142E+03  0.7818608E-02  0.1041570E+00
         21   -1    0    0  501  502  0.00000000000E+00  0.00000000000E+00  0.19567716916E+03  0.19567716916E+03  0.00000000000E+00 0. -1.
         21   -1    0    0  502  503 -0.00000000000E+00 -0.00000000000E+00 -0.26465755787E+04  0.26465755787E+04  0.00000000000E+00 0. -1.
    9000007    2    1    2  501    0  0.36647439596E+02  0.60771144431E+02 -0.52731076006E+02  0.40991997324E+03  0.40027197162E+03 0.  0.
    9000005    1    3    3    0    0 -0.39416038608E+02 -0.11304548735E+03  0.10801533901E+03  0.16124893725E+03  0.99999687468E+00 0.  0.
          4    1    3    3  501    0  0.76063478204E+02  0.17381663178E+03 -0.16074641501E+03  0.24867103599E+03  0.00000000000E+00 0.  1.
   -9000007    1    1    2    0  503 -0.36647439596E+02 -0.60771144431E+02 -0.23981673335E+04  0.24323327746E+04  0.40000000000E+03 0. -1.
<mgrwt>
<rscale>  2 0.40644726E+03</rscale>
<asrwt>0</asrwt>
<pdfrwt beam="1">  1       21 0.30104179E-01 0.40651423E+03</pdfrwt>
<pdfrwt beam="2">  1       21 0.40716548E+00 0.40651423E+03</pdfrwt>
<totfact> 0.64097846E+01</totfact>
</mgrwt>
</event>
<event>
 6    1  0.8739326E-004  0.5858816E+03  0.7818608E-02  0.9936076E-01
         21   -1    0    0  501  502  0.00000000000E+00  0.00000000000E+00  0.26184424580E+04  0.26184424580E+04  0.00000000000E+00 0.  1.
         21   -1    0    0  502  503 -0.00000000000E+00 -0.00000000000E+00 -0.31276030013E+03  0.31276030013E+03  0.00000000000E+00 0. -1.
    9000007    2    1    2  501    0 -0.41336615815E+03 -0.11129069563E+03  0.22703133642E+04  0.23442545908E+04  0.39742875471E+03 0.  0.
    9000005    1    3    3    0    0  0.75831615487E+02 -0.43745617221E+02  0.43077519218E+03  0.43958205050E+03  0.99999687468E+00 0.  0.
          4    1    3    3  501    0 -0.48919777364E+03 -0.67545078414E+02  0.18395381720E+04  0.19046725403E+04  0.00000000000E+00 0.  1.
   -9000007    1    1    2    0  503  0.41336615815E+03  0.11129069563E+03  0.35368793708E+02  0.58694816740E+03  0.40000000000E+03 0. -1.
<mgrwt>
<rscale>  2 0.58544295E+03</rscale>
<asrwt>0</asrwt>
<pdfrwt beam="1">  1       21 0.40283729E+00 0.58588156E+03</pdfrwt>
<pdfrwt beam="2">  1       21 0.48116971E-01 0.58588156E+03</pdfrwt>
<totfact> 0.23123338E+01</totfact>
</mgrwt>
</event>
<event>
 6    1  0.8739326E-004  0.4928492E+03  0.7818608E-02  0.1015664E+00
         21   -1    0    0  501  502  0.00000000000E+00  0.00000000000E+00  0.39336367801E+03  0.39336367801E+03  0.00000000000E+00 0. -1.
         21   -1    0    0  502  503 -0.00000000000E+00 -0.00000000000E+00 -0.69163168726E+03  0.69163168726E+03  0.00000000000E+00 0. -1.
    9000007    2    1    2  501    0 -0.12430580398E+03  0.25970827442E+03  0.28523361005E+02  0.49364697356E+03  0.39996678822E+03 0.  0.
    9000005    1    3    3    0    0 -0.15468616180E+02  0.28435376556E+03 -0.11902670236E+03  0.30864979823E+03  0.99999687468E+00 0.  0.
          4    1    3    3  501    0 -0.10883718780E+03 -0.24645491142E+02  0.14755006337E+03  0.18499717534E+03  0.00000000000E+00 0.  1.
   -9000007    1    1    2    0  503  0.12430580398E+03 -0.25970827442E+03 -0.32679137025E+03  0.59134839171E+03  0.40000000000E+03 0. -1.
<mgrwt>
<rscale>  2 0.49284245E+03</rscale>
<asrwt>0</asrwt>
<pdfrwt beam="1">  1       21 0.60517489E-01 0.49284919E+03</pdfrwt>
<pdfrwt beam="2">  1       21 0.10640487E+00 0.49284919E+03</pdfrwt>
<totfact> 0.15188212E+03</totfact>
</mgrwt>
</event>
<event>
 6    1  0.8739326E-004  0.5448188E+03  0.7818608E-02  0.1002776E+00
         21   -1    0    0  501  502  0.00000000000E+00  0.00000000000E+00  0.87979058688E+03  0.87979058688E+03  0.00000000000E+00 0. -1.
         21   -1    0    0  502  503 -0.00000000000E+00 -0.00000000000E+00 -0.59078720860E+03  0.59078720860E+03  0.00000000000E+00 0. -1.
    9000007    2    1    2  501    0 -0.32051957793E+03  0.18079811885E+03  0.62691639475E+03  0.83057313432E+03  0.40175465875E+03 0.  0.
    9000005    1    3    3    0    0 -0.11626144045E+03  0.15135843817E+03  0.22842303624E+02  0.19222088900E+03  0.99999687468E+00 0.  0.
          4    1    3    3  501    0 -0.20425813747E+03  0.29439680679E+02  0.60407409113E+03  0.63835224531E+03  0.00000000000E+00 0.  1.
   -9000007    1    1    2    0  503  0.32051957793E+03 -0.18079811885E+03 -0.33791301647E+03  0.64000466116E+03  0.40000000000E+03 0. -1.
<mgrwt>
<rscale>  2 0.54449540E+03</rscale>
<asrwt>0</asrwt>
<pdfrwt beam="1">  1       21 0.13535240E+00 0.54481884E+03</pdfrwt>
<pdfrwt beam="2">  1       21 0.90890340E-01 0.54481884E+03</pdfrwt>
<totfact> 0.31819425E+02</totfact>
</mgrwt>
</event>
<event>
 6    1  0.8739326E-004  0.4617054E+03  0.7818608E-02  0.1024321E+00
         21   -1    0    0  501  502  0.00000000000E+00  0.00000000000E+00  0.65959321977E+03  0.65959321977E+03  0.00000000000E+00 0. -1.
         21   -1    0    0  502  503 -0.00000000000E+00 -0.00000000000E+00 -0.44331679794E+03  0.44331679794E+03  0.00000000000E+00 0. -1.
    9000007    2    1    2  501    0 -0.20284752467E+03  0.10769432520E+03  0.39562783903E+03  0.60802405429E+03  0.40053299195E+03 0.  0.
    9000005    1    3    3    0    0 -0.55211724007E+01  0.12869191484E+03  0.38867192484E+03  0.40946178997E+03  0.99999687468E+00 0.  0.
          4    1    3    3  501    0 -0.19732635227E+03 -0.20997589648E+02  0.69559141894E+01  0.19856226432E+03  0.00000000000E+00 0.  1.
   -9000007    1    1    2    0  503  0.20284752467E+03 -0.10769432520E+03 -0.17935141720E+03  0.49488596343E+03  0.40000000000E+03 0. -1.
<mgrwt>
<rscale>  2 0.46158977E+03</rscale>
<asrwt>0</asrwt>
<pdfrwt beam="1">  1       21 0.10147588E+00 0.46170539E+03</pdfrwt>
<pdfrwt beam="2">  1       21 0.68202584E-01 0.46170539E+03</pdfrwt>
<totfact> 0.13241794E+03</totfact>
</mgrwt>
</event>
<event>
 6    1  0.8739326E-004  0.5339772E+03  0.7818608E-02  0.1005465E+00
         21   -1    0    0  501  502  0.00000000000E+00  0.00000000000E+00  0.94073605097E+03  0.94073605097E+03  0.00000000000E+00 0.  1.
         21   -1    0    0  502  503 -0.00000000000E+00 -0.00000000000E+00 -0.30133380935E+03  0.30133380935E+03  0.00000000000E+00 0. -1.
    9000007    2    1    2  501    0 -0.49219809849E+02  0.34539168539E+03  0.31214591580E+03  0.61851977507E+03  0.40424452177E+03 0.  0.
    9000005    1    3    3    0    0 -0.15530843790E+03  0.38877968900E+03  0.25787890970E+03  0.49170406701E+03  0.99999687468E+00 0.  0.
          4    1    3    3  501    0  0.10608862805E+03 -0.43388003605E+02  0.54267006106E+02  0.12681570806E+03  0.00000000000E+00 0.  1.
   -9000007    1    1    2    0  503  0.49219809849E+02 -0.34539168539E+03  0.32725632582E+03  0.62355008525E+03  0.40000000000E+03 0.  1.
<mgrwt>
<rscale>  2 0.53317387E+03</rscale>
<asrwt>0</asrwt>
<pdfrwt beam="1">  1       21 0.14472862E+00 0.53397719E+03</pdfrwt>
<pdfrwt beam="2">  1       21 0.46359048E-01 0.53397719E+03</pdfrwt>
<totfact> 0.12034096E+03</totfact>
</mgrwt>
</event>
<event>
 6    1  0.8739326E-004  0.5070540E+03  0.7818608E-02  0.1011957E+00
         21   -1    0    0  501  502  0.00000000000E+00  0.00000000000E+00  0.38940619950E+03  0.38940619950E+03  0.00000000000E+00 0. -1.
         21   -1    0    0  502  503 -0.00000000000E+00 -0.00000000000E+00 -0.72538405661E+03  0.72538405661E+03  0.00000000000E+00 0.  1.
    9000007    2    1    2  501    0  0.21969075568E+03  0.22087053566E+03 -0.33512055772E+03  0.60779069337E+03  0.40006989025E+03 0.  0.
    9000005    1    3    3    0    0  0.21511722654E+03  0.88602070923E+02  0.15356174776E+02  0.23315780112E+03  0.99999687468E+00 0.  0.
          4    1    3    3  501    0  0.45735291395E+01  0.13226846473E+03 -0.35047673250E+03  0.37463289225E+03  0.00000000000E+00 0.  1.
   -9000007    1    1    2    0  503 -0.21969075568E+03 -0.22087053566E+03 -0.85729938752E+00  0.50699956274E+03  0.40000000000E+03 0. -1.
<mgrwt>
<rscale>  2 0.50704019E+03</rscale>
<asrwt>0</asrwt>
<pdfrwt beam="1">  1       21 0.59908647E-01 0.50705398E+03</pdfrwt>
<pdfrwt beam="2">  1       21 0.11159755E+00 0.50705398E+03</pdfrwt>
<totfact> 0.13727384E+03</totfact>
</mgrwt>
</event>
<event>
 6    1  0.8739326E-004  0.4042429E+03  0.7818608E-02  0.1042463E+00
         21   -1    0    0  501  502  0.00000000000E+00  0.00000000000E+00  0.54569689929E+03  0.54569689929E+03  0.00000000000E+00 0.  1.
         21   -1    0    0  502  503 -0.00000000000E+00 -0.00000000000E+00 -0.40777444755E+03  0.40777444755E+03  0.00000000000E+00 0.  1.
    9000007    2    1    2  501    0 -0.22922314002E+02  0.39239437251E+02 -0.17803896646E+03  0.44171282595E+03  0.40168044653E+03 0.  0.
    9000005    1    3    3    0    0 -0.11504765450E+03 -0.54636847087E+02  0.81177365217E+02  0.15103612973E+03  0.99999687468E+00 0.  0.
          4    1    3    3  501    0  0.92125340499E+02  0.93876284339E+02 -0.25921633167E+03  0.29067669623E+03  0.00000000000E+00 0.  1.
   -9000007    1    1    2    0  503  0.22922314002E+02 -0.39239437251E+02  0.31596141819E+03  0.51175852089E+03  0.40000000000E+03 0.  1.
<mgrwt>
<rscale>  2 0.40382485E+03</rscale>
<asrwt>0</asrwt>
<pdfrwt beam="1">  1       21 0.83953369E-01 0.40424293E+03</pdfrwt>
<pdfrwt beam="2">  1       21 0.62734530E-01 0.40424293E+03</pdfrwt>
<totfact> 0.25615260E+03</totfact>
</mgrwt>
</event>
<event>
 6    1  0.8739326E-004  0.5779774E+03  0.7818608E-02  0.9952226E-01
         21   -1    0    0  501  502  0.00000000000E+00  0.00000000000E+00  0.21561334861E+04  0.21561334861E+04  0.00000000000E+00 0. -1.
         21   -1    0    0  502  503 -0.00000000000E+00 -0.00000000000E+00 -0.17097237176E+03  0.17097237176E+03  0.00000000000E+00 0.  1.
    9000007    2    1    2  501    0  0.35298599634E+03  0.22239314327E+03  0.13491419522E+04  0.14677001339E+04  0.39987729628E+03 0.  0.
    9000005    1    3    3    0    0  0.44134932995E+03  0.20581170760E+03  0.11057918104E+04  0.12082732381E+04  0.99999687468E+00 0.  0.
          4    1    3    3  501    0 -0.88363333613E+02  0.16581435663E+02  0.24335014180E+03  0.25942689577E+03  0.00000000000E+00 0.  1.
   -9000007    1    1    2    0  503 -0.35298599634E+03 -0.22239314327E+03  0.63601916219E+03  0.85940572400E+03  0.40000000000E+03 0.  1.
<mgrwt>
<rscale>  2 0.57795613E+03</rscale>
<asrwt>0</asrwt>
<pdfrwt beam="1">  1       21 0.33171283E+00 0.57797736E+03</pdfrwt>
<pdfrwt beam="2">  1       21 0.26303443E-01 0.57797736E+03</pdfrwt>
<totfact> 0.22322530E+02</totfact>
</mgrwt>
</event>
<event>
 6    1  0.8739326E-004  0.4690527E+03  0.7818608E-02  0.1022380E+00
         21   -1    0    0  501  502  0.00000000000E+00  0.00000000000E+00  0.27030566812E+03  0.27030566812E+03  0.00000000000E+00 0. -1.
         21   -1    0    0  502  503 -0.00000000000E+00 -0.00000000000E+00 -0.87167057374E+03  0.87167057374E+03  0.00000000000E+00 0. -1.
    9000007    2    1    2  501    0 -0.21971227873E+03 -0.10833737585E+03 -0.45267892139E+03  0.64992137263E+03  0.39682377991E+03 0.  0.
    9000005    1    3    3    0    0 -0.18389541419E+03 -0.24596611089E+03 -0.22207581988E+03  0.37899277148E+03  0.99999687468E+00 0.  0.
          4    1    3    3  501    0 -0.35816864539E+02  0.13762873504E+03 -0.23060310151E+03  0.27092860115E+03  0.00000000000E+00 0.  1.
   -9000007    1    1    2    0  503  0.21971227873E+03  0.10833737585E+03 -0.14868598423E+03  0.49205486923E+03  0.40000000000E+03 0. -1.
<mgrwt>
<rscale>  2 0.46837485E+03</rscale>
<asrwt>0</asrwt>
<pdfrwt beam="1">  1       21 0.41585487E-01 0.46905274E+03</pdfrwt>
<pdfrwt beam="2">  1       21 0.13410317E+00 0.46905274E+03</pdfrwt>
<totfact> 0.18945343E+03</totfact>
</mgrwt>
</event>
<event>
 6    1  0.8739326E-004  0.6909458E+03  0.7818608E-02  0.9732892E-01
         21   -1    0    0  501  502  0.00000000000E+00  0.00000000000E+00  0.14273407464E+04  0.14273407464E+04  0.00000000000E+00 0.  1.
         21   -1    0    0  502  503 -0.00000000000E+00 -0.00000000000E+00 -0.57345864686E+03  0.57345864686E+03  0.00000000000E+00 0. -1.
    9000007    2    1    2  501    0  0.55285658693E+03 -0.10768888359E+03  0.10728531163E+04  0.12760955865E+04  0.40019849508E+03 0.  0.
    9000005    1    3    3    0    0  0.10145285637E+03 -0.79747358168E+02  0.20490795331E+02  0.13066444003E+03  0.99999687468E+00 0.  0.
          4    1    3    3  501    0  0.45140373056E+03 -0.27941525421E+02  0.10523623209E+04  0.11454311465E+04  0.00000000000E+00 0.  1.
   -9000007    1    1    2    0  503 -0.55285658693E+03  0.10768888359E+03 -0.21897101673E+03  0.72470380676E+03  0.40000000000E+03 0. -1.
<mgrwt>
<rscale>  2 0.69091709E+03</rscale>
<asrwt>0</asrwt>
<pdfrwt beam="1">  1       21 0.21959088E+00 0.69094583E+03</pdfrwt>
<pdfrwt beam="2">  1       21 0.88224408E-01 0.69094583E+03</pdfrwt>
<totfact> 0.78562523E+01</totfact>
</mgrwt>
</event>
<event>
 6    1  0.8739326E-004  0.4082450E+03  0.7818608E-02  0.1040982E+00
         21   -1    0    0  501  502  0.00000000000E+00  0.00000000000E+00  0.91767223984E+02  0.91767223984E+02  0.00000000000E+00 0. -1.
         21   -1    0    0  502  503 -0.00000000000E+00 -0.00000000000E+00 -0.19317438439E+04  0.19317438439E+04  0.00000000000E+00 0. -1.
    9000007    2    1    2  501    0 -0.35419568940E+02 -0.73548674816E+02 -0.11683792014E+04  0.12375676564E+04  0.39974966239E+03 0.  0.
    9000005    1    3    3    0    0 -0.78976110733E+02 -0.12499482555E+03 -0.12963833735E+03  0.19664188513E+03  0.99999687468E+00 0.  0.
          4    1    3    3  501    0  0.43556541793E+02  0.51446150731E+02 -0.10387408640E+04  0.10409257713E+04  0.00000000000E+00 0.  1.
   -9000007    1    1    2    0  503  0.35419568940E+02  0.73548674816E+02 -0.67159741853E+03  0.78594341146E+03  0.40000000000E+03 0.  1.
<mgrwt>
<rscale>  2 0.40818363E+03</rscale>
<asrwt>0</asrwt>
<pdfrwt beam="1">  1       21 0.14118035E-01 0.40824497E+03</pdfrwt>
<pdfrwt beam="2">  1       21 0.29719135E+00 0.40824497E+03</pdfrwt>
<totfact> 0.12886291E+03</totfact>
</mgrwt>
</event>
<event>
 6    1  0.8739326E-004  0.4071460E+03  0.7818608E-02  0.1041628E+00
         21   -1    0    0  501  502  0.00000000000E+00  0.00000000000E+00  0.45451789027E+03  0.45451789027E+03  0.00000000000E+00 0. -1.
         21   -1    0    0  502  503 -0.00000000000E+00 -0.00000000000E+00 -0.39620990747E+03  0.39620990747E+03  0.00000000000E+00 0. -1.
    9000007    2    1    2  501    0 -0.47812695046E+02  0.59007043581E+02  0.15473585523E+03  0.43231864442E+03  0.39646984805E+03 0.  0.
    9000005    1    3    3    0    0 -0.52568740835E+00  0.88564988336E+02  0.28081785900E+03  0.29445492598E+03  0.99999687468E+00 0.  0.
          4    1    3    3  501    0 -0.47287007638E+02 -0.29557944755E+02 -0.12608200376E+03  0.13786371844E+03  0.00000000000E+00 0.  1.
   -9000007    1    1    2    0  503  0.47812695046E+02 -0.59007043581E+02 -0.96427872433E+02  0.41840915332E+03  0.40000000000E+03 0. -1.
<mgrwt>
<rscale>  2 0.40627633E+03</rscale>
<asrwt>0</asrwt>
<pdfrwt beam="1">  1       21 0.69925830E-01 0.40714602E+03</pdfrwt>
<pdfrwt beam="2">  1       21 0.60955370E-01 0.40714602E+03</pdfrwt>
<totfact> 0.41393964E+03</totfact>
</mgrwt>
</event>
<event>
 6    1  0.8739326E-004  0.4337669E+03  0.7818608E-02  0.1032700E+00
         21   -1    0    0  501  502  0.00000000000E+00  0.00000000000E+00  0.22764534134E+03  0.22764534134E+03  0.00000000000E+00 0. -1.
         21   -1    0    0  502  503 -0.00000000000E+00 -0.00000000000E+00 -0.99623572578E+03  0.99623572578E+03  0.00000000000E+00 0. -1.
    9000007    2    1    2  501    0 -0.11745686563E+03 -0.11872340009E+03 -0.13140448607E+03  0.45323378718E+03  0.40032782300E+03 0.  0.
    9000005    1    3    3    0    0 -0.16424787529E+03 -0.23797805412E+03 -0.14665846653E+03  0.32422310927E+03  0.99999687468E+00 0.  0.
          4    1    3    3  501    0  0.46791009665E+02  0.11925465404E+03  0.15253980462E+02  0.12901067791E+03  0.00000000000E+00 0.  1.
   -9000007    1    1    2    0  503  0.11745686563E+03  0.11872340009E+03 -0.63718589837E+03  0.77064727995E+03  0.40000000000E+03 0. -1.
<mgrwt>
<rscale>  2 0.43369125E+03</rscale>
<asrwt>0</asrwt>
<pdfrwt beam="1">  1       21 0.35022361E-01 0.43376690E+03</pdfrwt>
<pdfrwt beam="2">  1       21 0.15326703E+00 0.43376690E+03</pdfrwt>
<totfact> 0.19094212E+03</totfact>
</mgrwt>
</event>
<event>
 6    1  0.8739326E-004  0.5641245E+03  0.7818608E-02  0.9982857E-01
         21   -1    0    0  501  502  0.00000000000E+00  0.00000000000E+00  0.11133061741E+04  0.11133061741E+04  0.00000000000E+00 0. -1.
         21   -1    0    0  502  503 -0.00000000000E+00 -0.00000000000E+00 -0.33009462984E+03  0.33009462984E+03  0.00000000000E+00 0.  1.
    9000007    2    1    2  501    0  0.11432640342E+01  0.39778777296E+03  0.12708088547E+03  0.57810093640E+03  0.39976833523E+03 0.  0.
    9000005    1    3    3    0    0  0.15589112073E+03  0.51183888275E+02 -0.30884685845E+02  0.16696315688E+03  0.99999687468E+00 0.  0.
          4    1    3    3  501    0 -0.15474785670E+03  0.34660388468E+03  0.15796557132E+03  0.41113777952E+03  0.00000000000E+00 0.  1.
   -9000007    1    1    2    0  503 -0.11432640342E+01 -0.39778777296E+03  0.65613065883E+03  0.86529986758E+03  0.40000000000E+03 0.  1.
<mgrwt>
<rscale>  2 0.56408341E+03</rscale>
<asrwt>0</asrwt>
<pdfrwt beam="1">  1       21 0.17127787E+00 0.56412447E+03</pdfrwt>
<pdfrwt beam="2">  1       21 0.50783790E-01 0.56412447E+03</pdfrwt>
<totfact> 0.61334170E+02</totfact>
</mgrwt>
</event>
<event>
 6    1  0.8739326E-004  0.4316944E+03  0.7818608E-02  0.1033518E+00
         21   -1    0    0  501  502  0.00000000000E+00  0.00000000000E+00  0.37981342259E+03  0.37981342259E+03  0.00000000000E+00 0.  1.
         21   -1    0    0  502  503 -0.00000000000E+00 -0.00000000000E+00 -0.66826336474E+03  0.66826336474E+03  0.00000000000E+00 0.  1.
    9000007    2    1    2  501    0 -0.14919311741E+03  0.44729360578E+02 -0.41677533787E+03  0.60005144300E+03  0.40261737420E+03 0.  0.
    9000005    1    3    3    0    0 -0.53187143665E+02  0.15229473487E+03 -0.24284142929E+01  0.16133646740E+03  0.99999687468E+00 0.  0.
          4    1    3    3  501    0 -0.96005973747E+02 -0.10756537430E+03 -0.41434692357E+03  0.43871497560E+03  0.00000000000E+00 0.  1.
   -9000007    1    1    2    0  503  0.14919311741E+03 -0.44729360578E+02  0.12832539572E+03  0.44802534434E+03  0.40000000000E+03 0.  1.
<mgrwt>
<rscale>  2 0.43108309E+03</rscale>
<asrwt>0</asrwt>
<pdfrwt beam="1">  1       21 0.58432835E-01 0.43169440E+03</pdfrwt>
<pdfrwt beam="2">  1       21 0.10280975E+00 0.43169440E+03</pdfrwt>
<totfact> 0.18265985E+03</totfact>
</mgrwt>
</event>
<event>
 6    1  0.8739326E-004  0.7460504E+03  0.7818608E-02  0.9641591E-01
         21   -1    0    0  501  502  0.00000000000E+00  0.00000000000E+00  0.69371055436E+03  0.69371055436E+03  0.00000000000E+00 0. -1.
         21   -1    0    0  502  503 -0.00000000000E+00 -0.00000000000E+00 -0.93945782821E+03  0.93945782821E+03  0.00000000000E+00 0.  1.
    9000007    2    1    2  501    0  0.32983889889E+03  0.53638267064E+03  0.18916507872E+03  0.76965878622E+03  0.40011392330E+03 0.  0.
    9000005    1    3    3    0    0  0.31629943999E+02  0.24183661237E+03  0.24630805013E+03  0.34663245086E+03  0.99999687468E+00 0.  0.
          4    1    3    3  501    0  0.29820895489E+03  0.29454605827E+03 -0.57142971419E+02  0.42302633535E+03  0.00000000000E+00 0.  1.
   -9000007    1    1    2    0  503 -0.32983889889E+03 -0.53638267064E+03 -0.43491235257E+03  0.86350959635E+03  0.40000000000E+03 0.  1.
<mgrwt>
<rscale>  2 0.74603514E+03</rscale>
<asrwt>0</asrwt>
<pdfrwt beam="1">  1       21 0.10672470E+00 0.74605041E+03</pdfrwt>
<pdfrwt beam="2">  1       21 0.14453197E+00 0.74605041E+03</pdfrwt>
<totfact> 0.16822926E+02</totfact>
</mgrwt>
</event>
<event>
 6    1  0.8739326E-004  0.4033300E+03  0.7818608E-02  0.1042670E+00
         21   -1    0    0  501  502  0.00000000000E+00  0.00000000000E+00  0.34286367125E+03  0.34286367125E+03  0.00000000000E+00 0. -1.
         21   -1    0    0  502  503 -0.00000000000E+00 -0.00000000000E+00 -0.54408551465E+03  0.54408551465E+03  0.00000000000E+00 0. -1.
    9000007    2    1    2  501    0 -0.42058560537E+02 -0.23612697708E+02  0.58562795078E+02  0.40755942757E+03  0.40043551794E+03 0.  0.
    9000005    1    3    3    0    0 -0.14491774696E+02 -0.69468683585E+02 -0.16397773939E+03  0.17867738676E+03  0.99999687468E+00 0.  0.
          4    1    3    3  501    0 -0.27566785841E+02  0.45855985877E+02  0.22254053446E+03  0.22888204080E+03  0.00000000000E+00 0.  1.
   -9000007    1    1    2    0  503  0.42058560537E+02  0.23612697708E+02 -0.25978463848E+03  0.47938975834E+03  0.40000000000E+03 0.  1.
<mgrwt>
<rscale>  2 0.40322186E+03</rscale>
<asrwt>0</asrwt>
<pdfrwt beam="1">  1       21 0.52748257E-01 0.40333000E+03</pdfrwt>
<pdfrwt beam="2">  1       21 0.83705464E-01 0.40333000E+03</pdfrwt>
<totfact> 0.37591770E+03</totfact>
</mgrwt>
</event>
<event>
 6    1  0.8739326E-004  0.4160710E+03  0.7818608E-02  0.1038353E+00
         21   -1    0    0  501  502  0.00000000000E+00  0.00000000000E+00  0.63729621087E+03  0.63729621087E+03  0.00000000000E+00 0. -1.
         21   -1    0    0  502  503 -0.00000000000E+00 -0.00000000000E+00 -0.27664162485E+03  0.27664162485E+03  0.00000000000E+00 0. -1.
    9000007    2    1    2  501    0  0.11440868857E+03  0.48268591591E+01  0.24178485729E+03  0.48122238766E+03  0.40000302821E+03 0.  0.
    9000005    1    3    3    0    0  0.15766864441E+03 -0.17120167926E+03  0.11205029316E+03  0.25831315221E+03  0.99999687468E+00 0.  0.
          4    1    3    3  501    0 -0.43259955847E+02  0.17602853842E+03  0.12973456413E+03  0.22290923545E+03  0.00000000000E+00 0.  1.
   -9000007    1    1    2    0  503 -0.11440868857E+03 -0.48268591591E+01  0.11886972873E+03  0.43271544807E+03  0.40000000000E+03 0.  1.
<mgrwt>
<rscale>  2 0.41607026E+03</rscale>
<asrwt>0</asrwt>
<pdfrwt beam="1">  1       21 0.98045570E-01 0.41607099E+03</pdfrwt>
<pdfrwt beam="2">  1       21 0.42560250E-01 0.41607099E+03</pdfrwt>
<totfact> 0.40438084E+03</totfact>
</mgrwt>
</event>
<event>
 6    1  0.8739326E-004  0.5060383E+03  0.7818608E-02  0.1012240E+00
         21   -1    0    0  501  502  0.00000000000E+00  0.00000000000E+00  0.56382798771E+03  0.56382798771E+03  0.00000000000E+00 0.  1.
         21   -1    0    0  502  503 -0.00000000000E+00 -0.00000000000E+00 -0.46307236683E+03  0.46307236683E+03  0.00000000000E+00 0. -1.
    9000007    2    1    2  501    0 -0.17431381267E+03  0.25553776367E+03 -0.22157159411E+02  0.50652317835E+03  0.40048712407E+03 0.  0.
    9000005    1    3    3    0    0 -0.18873353904E+03  0.26695792264E+03 -0.16242018679E+03  0.36505917095E+03  0.99999687468E+00 0.  0.
          4    1    3    3  501    0  0.14419726369E+02 -0.11420158979E+02  0.14026302738E+03  0.14146400740E+03  0.00000000000E+00 0.  1.
   -9000007    1    1    2    0  503  0.17431381267E+03 -0.25553776367E+03  0.12291278030E+03  0.52037717620E+03  0.40000000000E+03 0.  1.
<mgrwt>
<rscale>  2 0.50594194E+03</rscale>
<asrwt>0</asrwt>
<pdfrwt beam="1">  1       21 0.86742767E-01 0.50603833E+03</pdfrwt>
<pdfrwt beam="2">  1       21 0.71241903E-01 0.50603833E+03</pdfrwt>
<totfact> 0.17200123E+03</totfact>
</mgrwt>
</event>
<event>
 6    1  0.8739326E-004  0.6539394E+03  0.7818608E-02  0.9799530E-01
         21   -1    0    0  501  502  0.00000000000E+00  0.00000000000E+00  0.19842405788E+04  0.19842405788E+04  0.00000000000E+00 0. -1.
         21   -1    0    0  502  503 -0.00000000000E+00 -0.00000000000E+00 -0.21968202354E+03  0.21968202354E+03  0.00000000000E+00 0.  1.
    9000007    2    1    2  501    0 -0.50139224912E+03 -0.12744643990E+03  0.10353317499E+04  0.12244285921E+04  0.39959574847E+03 0.  0.
    9000005    1    3    3    0    0 -0.10050946839E+03 -0.76998971043E+02  0.66302519951E+03  0.67500697030E+03  0.99999687468E+00 0.  0.
          4    1    3    3  501    0 -0.40088278073E+03 -0.50447468859E+02  0.37230655039E+03  0.54942162176E+03  0.00000000000E+00 0.  1.
   -9000007    1    1    2    0  503  0.50139224912E+03  0.12744643990E+03  0.72922680540E+03  0.97949401031E+03  0.40000000000E+03 0. -1.
<mgrwt>
<rscale>  2 0.65387763E+03</rscale>
<asrwt>0</asrwt>
<pdfrwt beam="1">  1       21 0.30526777E+00 0.65393943E+03</pdfrwt>
<pdfrwt beam="2">  1       21 0.33797236E-01 0.65393943E+03</pdfrwt>
<totfact> 0.18989680E+02</totfact>
</mgrwt>
</event>
<event>
 6    1  0.8739326E-004  0.4038034E+03  0.7818608E-02  0.1042544E+00
         21   -1    0    0  501  502  0.00000000000E+00  0.00000000000E+00  0.42681396987E+03  0.42681396987E+03  0.00000000000E+00 0.  1.
         21   -1    0    0  502  503 -0.00000000000E+00 -0.00000000000E+00 -0.52853749303E+03  0.52853749303E+03  0.00000000000E+00 0.  1.
    9000007    2    1    2  501    0  0.30550925359E+02 -0.37829549733E+02  0.20128470403E+03  0.45119035808E+03  0.40086503124E+03 0.  0.
    9000005    1    3    3    0    0  0.39174321962E+01 -0.11661878295E+03  0.30012666174E+03  0.32201288778E+03  0.99999687468E+00 0.  0.
          4    1    3    3  501    0  0.26633493163E+02  0.78789233217E+02 -0.98841957713E+02  0.12917747030E+03  0.00000000000E+00 0.  1.
   -9000007    1    1    2    0  503 -0.30550925359E+02  0.37829549733E+02 -0.30300822718E+03  0.50416110482E+03  0.40000000000E+03 0.  1.
<mgrwt>
<rscale>  2 0.40358857E+03</rscale>
<asrwt>0</asrwt>
<pdfrwt beam="1">  1       21 0.65663688E-01 0.40380343E+03</pdfrwt>
<pdfrwt beam="2">  1       21 0.81313461E-01 0.40380343E+03</pdfrwt>
<totfact> 0.24941725E+03</totfact>
</mgrwt>
</event>
<event>
 6    1  0.8739326E-004  0.4562148E+03  0.7818608E-02  0.1025899E+00
         21   -1    0    0  501  502  0.00000000000E+00  0.00000000000E+00  0.15236780563E+04  0.15236780563E+04  0.00000000000E+00 0.  1.
         21   -1    0    0  502  503 -0.00000000000E+00 -0.00000000000E+00 -0.15629665953E+03  0.15629665953E+03  0.00000000000E+00 0.  1.
    9000007    2    1    2  501    0 -0.16776309845E+03 -0.14075269155E+03  0.98245753336E+03  0.10832150004E+04  0.40022013286E+03 0.  0.
    9000005    1    3    3    0    0 -0.14843363230E+03  0.48411542702E+01  0.79625729525E+02  0.16851479689E+03  0.99999687468E+00 0.  0.
          4    1    3    3  501    0 -0.19329466147E+02 -0.14559384582E+03  0.90283180384E+03  0.91470020346E+03  0.00000000000E+00 0.  1.
   -9000007    1    1    2    0  503  0.16776309845E+03  0.14075269155E+03  0.38492386338E+03  0.59675971544E+03  0.40000000000E+03 0.  1.
<mgrwt>
<rscale>  2 0.45616650E+03</rscale>
<asrwt>0</asrwt>
<pdfrwt beam="1">  1       21 0.23441200E+00 0.45621479E+03</pdfrwt>
<pdfrwt beam="2">  1       21 0.24045641E-01 0.45621479E+03</pdfrwt>
<totfact> 0.11069786E+03</totfact>
</mgrwt>
</event>
<event>
 6    1  0.8739326E-004  0.5021955E+03  0.7818608E-02  0.1013308E+00
         21   -1    0    0  501  502  0.00000000000E+00  0.00000000000E+00  0.73481067146E+03  0.73481067146E+03  0.00000000000E+00 0. -1.
         21   -1    0    0  502  503 -0.00000000000E+00 -0.00000000000E+00 -0.34583371559E+03  0.34583371559E+03  0.00000000000E+00 0.  1.
    9000007    2    1    2  501    0  0.18726426449E+03 -0.23902381778E+03  0.24984619389E+03  0.55953244211E+03  0.39806173259E+03 0.  0.
    9000005    1    3    3    0    0  0.47665298935E+02  0.10198015576E+03  0.13020672105E+03  0.17212415023E+03  0.99999687468E+00 0.  0.
          4    1    3    3  501    0  0.13959896556E+03 -0.34100397355E+03  0.11963947284E+03  0.38740829188E+03  0.00000000000E+00 0.  1.
   -9000007    1    1    2    0  503 -0.18726426449E+03  0.23902381778E+03  0.13913076198E+03  0.52111194493E+03  0.40000000000E+03 0.  1.
<mgrwt>
<rscale>  2 0.50180941E+03</rscale>
<asrwt>0</asrwt>
<pdfrwt beam="1">  1       21 0.11304780E+00 0.50219547E+03</pdfrwt>
<pdfrwt beam="2">  1       21 0.53205187E-01 0.50219547E+03</pdfrwt>
<totfact> 0.17232829E+03</totfact>
</mgrwt>
</event>
<event>
 6    1  0.8739326E-004  0.4637471E+03  0.7818608E-02  0.1023708E+00
         21   -1    0    0  501  502  0.00000000000E+00  0.00000000000E+00  0.11174995344E+03  0.11174995344E+03  0.00000000000E+00 0. -1.
         21   -1    0    0  502  503 -0.00000000000E+00 -0.00000000000E+00 -0.20344143966E+04  0.20344143966E+04  0.00000000000E+00 0. -1.
    9000007    2    1    2  501    0 -0.19926611349E+03 -0.12347461565E+03 -0.12114361614E+04  0.12971657438E+04  0.40013551316E+03 0.  0.
    9000005    1    3    3    0    0 -0.25330235459E+03  0.70052594600E+02 -0.68356970380E+03  0.73235100109E+03  0.99999687468E+00 0.  0.
          4    1    3    3  501    0  0.54036241093E+02 -0.19352721025E+03 -0.52786645764E+03  0.56481474269E+03  0.00000000000E+00 0.  1.
   -9000007    1    1    2    0  503  0.19926611349E+03  0.12347461565E+03 -0.71122828172E+03  0.84899860625E+03  0.40000000000E+03 0. -1.
<mgrwt>
<rscale>  2 0.46371789E+03</rscale>
<asrwt>0</asrwt>
<pdfrwt beam="1">  1       21 0.17192301E-01 0.46374712E+03</pdfrwt>
<pdfrwt beam="2">  1       21 0.31298682E+00 0.46374712E+03</pdfrwt>
<totfact> 0.69601583E+02</totfact>
</mgrwt>
</event>
<event>
 6    1  0.8739326E-004  0.4051663E+03  0.7818608E-02  0.1042007E+00
         21   -1    0    0  501  502  0.00000000000E+00  0.00000000000E+00  0.73686630622E+02  0.73686630622E+02  0.00000000000E+00 0. -1.
         21   -1    0    0  502  503 -0.00000000000E+00 -0.00000000000E+00 -0.23354722032E+04  0.23354722032E+04  0.00000000000E+00 0. -1.
    9000007    2    1    2  501    0  0.55826870229E+02 -0.32297290098E+02 -0.87214200065E+03  0.96165442575E+03  0.39998476331E+03 0.  0.
    9000005    1    3    3    0    0  0.42660526253E+02 -0.19734947648E+03 -0.26990382272E+03  0.33706944370E+03  0.99999687468E+00 0.  0.
          4    1    3    3  501    0  0.13166343976E+02  0.16505218638E+03 -0.60223817794E+03  0.62458498205E+03  0.00000000000E+00 0.  1.
   -9000007    1    1    2    0  503 -0.55826870229E+02  0.32297290098E+02 -0.13896435719E+04  0.14475044080E+04  0.40000000000E+03 0. -1.
<mgrwt>
<rscale>  2 0.40516257E+03</rscale>
<asrwt>0</asrwt>
<pdfrwt beam="1">  1       21 0.11336406E-01 0.40516633E+03</pdfrwt>
<pdfrwt beam="2">  1       21 0.35930337E+00 0.40516633E+03</pdfrwt>
<totfact> 0.81214997E+02</totfact>
</mgrwt>
</event>
<event>
 6    1  0.8739326E-004  0.4834318E+03  0.7818608E-02  0.1018599E+00
         21   -1    0    0  501  502  0.00000000000E+00  0.00000000000E+00  0.53284984338E+03  0.53284984338E+03  0.00000000000E+00 0.  1.
         21   -1    0    0  502  503 -0.00000000000E+00 -0.00000000000E+00 -0.54513297870E+03  0.54513297870E+03  0.00000000000E+00 0. -1.
    9000007    2    1    2  501    0 -0.25535111842E+03  0.53404593970E+02 -0.25031759382E+03  0.54439435915E+03  0.40700132206E+03 0.  0.
    9000005    1    3    3    0    0 -0.17765022544E+03  0.21482374101E+03 -0.23498500141E+03  0.36459264005E+03  0.99999687468E+00 0.  0.
          4    1    3    3  501    0 -0.77700892973E+02 -0.16141914704E+03 -0.15332592418E+02  0.17980171910E+03  0.00000000000E+00 0.  1.
   -9000007    1    1    2    0  503  0.25535111842E+03 -0.53404593970E+02  0.23803445851E+03  0.53358846293E+03  0.40000000000E+03 0.  1.
<mgrwt>
<rscale>  2 0.48195520E+03</rscale>
<asrwt>0</asrwt>
<pdfrwt beam="1">  1       21 0.81976899E-01 0.48343182E+03</pdfrwt>
<pdfrwt beam="2">  1       21 0.83866612E-01 0.48343182E+03</pdfrwt>
<totfact> 0.13597639E+03</totfact>
</mgrwt>
</event>
<event>
 6    1  0.8739326E-004  0.4564657E+03  0.7818608E-02  0.1025832E+00
         21   -1    0    0  501  502  0.00000000000E+00  0.00000000000E+00  0.29893049692E+03  0.29893049692E+03  0.00000000000E+00 0. -1.
         21   -1    0    0  502  503 -0.00000000000E+00 -0.00000000000E+00 -0.86967611011E+03  0.86967611011E+03  0.00000000000E+00 0.  1.
    9000007    2    1    2  501    0 -0.21290541275E+03  0.52689562956E+02 -0.24775519199E+02  0.45713752944E+03  0.40031985917E+03 0.  0.
    9000005    1    3    3    0    0 -0.20851136836E+03 -0.13875969236E+03  0.42740238649E+02  0.25408457441E+03  0.99999687468E+00 0.  0.
          4    1    3    3  501    0 -0.43940443942E+01  0.19144925532E+03 -0.67515757848E+02  0.20305295503E+03  0.00000000000E+00 0.  1.
   -9000007    1    1    2    0  503  0.21290541275E+03 -0.52689562956E+02 -0.54597009400E+03  0.71146907759E+03  0.40000000000E+03 0.  1.
<mgrwt>
<rscale>  2 0.45639552E+03</rscale>
<asrwt>0</asrwt>
<pdfrwt beam="1">  1       21 0.45989307E-01 0.45646566E+03</pdfrwt>
<pdfrwt beam="2">  1       21 0.13379633E+00 0.45646566E+03</pdfrwt>
<totfact> 0.15522178E+03</totfact>
</mgrwt>
</event>
<event>
 6    1  0.8739326E-004  0.4169481E+03  0.7818608E-02  0.1038068E+00
         21   -1    0    0  501  502  0.00000000000E+00  0.00000000000E+00  0.14229896118E+03  0.14229896118E+03  0.00000000000E+00 0. -1.
         21   -1    0    0  502  503 -0.00000000000E+00 -0.00000000000E+00 -0.15128657368E+04  0.15128657368E+04  0.00000000000E+00 0. -1.
    9000007    2    1    2  501    0  0.11147871611E+03 -0.37112041569E+02 -0.32216007281E+03  0.52690877742E+03  0.40005117101E+03 0.  0.
    9000005    1    3    3    0    0  0.23270972996E+02  0.12411524294E+03 -0.31901763085E+03  0.34310258014E+03  0.99999687468E+00 0.  0.
          4    1    3    3  501    0  0.88207743117E+02 -0.16122728451E+03 -0.31424419629E+01  0.18380619728E+03  0.00000000000E+00 0.  1.
   -9000007    1    1    2    0  503 -0.11147871611E+03  0.37112041569E+02 -0.10484067028E+04  0.11282559205E+04  0.40000000000E+03 0. -1.
<mgrwt>
<rscale>  2 0.41693586E+03</rscale>
<asrwt>0</asrwt>
<pdfrwt beam="1">  1       21 0.21892149E-01 0.41694813E+03</pdfrwt>
<pdfrwt beam="2">  1       21 0.23274856E+00 0.41694813E+03</pdfrwt>
<totfact> 0.13848909E+03</totfact>
</mgrwt>
</event>
<event>
 6    1  0.8739326E-004  0.4594749E+03  0.7818608E-02  0.1024949E+00
         21   -1    0    0  501  502  0.00000000000E+00  0.00000000000E+00  0.81118097159E+03  0.81118097159E+03  0.00000000000E+00 0.  1.
         21   -1    0    0  502  503 -0.00000000000E+00 -0.00000000000E+00 -0.26023390586E+03  0.26023390586E+03  0.00000000000E+00 0. -1.
    9000007    2    1    2  501    0  0.11947359746E+03  0.19194596714E+03  0.26538385077E+03  0.53043101028E+03  0.39976402243E+03 0.  0.
    9000005    1    3    3    0    0  0.12490620564E+03 -0.99925763848E+02  0.49804787877E+02  0.16753577342E+03  0.99999687468E+00 0.  0.
          4    1    3    3  501    0 -0.54326081769E+01  0.29187173098E+03  0.21557906289E+03  0.36289523686E+03  0.00000000000E+00 0.  1.
   -9000007    1    1    2    0  503 -0.11947359746E+03 -0.19194596714E+03  0.28556321496E+03  0.54098386716E+03  0.40000000000E+03 0. -1.
<mgrwt>
<rscale>  2 0.45942355E+03</rscale>
<asrwt>0</asrwt>
<pdfrwt beam="1">  1       21 0.12479707E+00 0.45947491E+03</pdfrwt>
<pdfrwt beam="2">  1       21 0.40035986E-01 0.45947491E+03</pdfrwt>
<totfact> 0.24784627E+03</totfact>
</mgrwt>
</event>
<event>
 6    1  0.8739326E-004  0.4312464E+03  0.7818608E-02  0.1034436E+00
         21   -1    0    0  501  502  0.00000000000E+00  0.00000000000E+00  0.32737532194E+03  0.32737532194E+03  0.00000000000E+00 0. -1.
         21   -1    0    0  502  503 -0.00000000000E+00 -0.00000000000E+00 -0.61992127894E+03  0.61992127894E+03  0.00000000000E+00 0. -1.
    9000007    2    1    2  501    0 -0.47390201554E+02  0.11579168540E+03  0.84022220235E+01  0.43132823744E+03  0.41269832259E+03 0.  0.
    9000005    1    3    3    0    0 -0.15675377539E+02  0.26464725230E+03 -0.47221471542E+02  0.26928563456E+03  0.99999687468E+00 0.  0.
          4    1    3    3  501    0 -0.31714824015E+02 -0.14885556691E+03  0.55623693566E+02  0.16204260288E+03  0.00000000000E+00 0.  1.
   -9000007    1    1    2    0  503  0.47390201554E+02 -0.11579168540E+03 -0.30094817903E+03  0.51596836344E+03  0.40000000000E+03 0. -1.
<mgrwt>
<rscale>  2 0.42817985E+03</rscale>
<asrwt>0</asrwt>
<pdfrwt beam="1">  1       21 0.50365434E-01 0.43124639E+03</pdfrwt>
<pdfrwt beam="2">  1       21 0.95372504E-01 0.43124639E+03</pdfrwt>
<totfact> 0.30169386E+03</totfact>
</mgrwt>
</event>
<event>
 6    1  0.8739326E-004  0.6774002E+03  0.7818608E-02  0.9756716E-01
         21   -1    0    0  501  502  0.00000000000E+00  0.00000000000E+00  0.25217836620E+04  0.25217836620E+04  0.00000000000E+00 0.  1.
         21   -1    0    0  502  503 -0.00000000000E+00 -0.00000000000E+00 -0.48677811395E+03  0.48677811395E+03  0.00000000000E+00 0.  1.
    9000007    2    1    2  501    0 -0.37995317878E+03 -0.39307328593E+03  0.22078910779E+04  0.23094477419E+04  0.39986852126E+03 0.  0.
    9000005    1    3    3    0    0 -0.56607876848E+02  0.20930903366E+01  0.95263261569E+03  0.95431584563E+03  0.99999687468E+00 0.  0.
          4    1    3    3  501    0 -0.32334530193E+03 -0.39516637627E+03  0.12552584623E+04  0.13551318963E+04  0.00000000000E+00 0.  1.
   -9000007    1    1    2    0  503  0.37995317878E+03  0.39307328593E+03 -0.17288552989E+03  0.69911403406E+03  0.40000000000E+03 0.  1.
<mgrwt>
<rscale>  2 0.67738079E+03</rscale>
<asrwt>0</asrwt>
<pdfrwt beam="1">  1       21 0.38796671E+00 0.67740020E+03</pdfrwt>
<pdfrwt beam="2">  1       21 0.74888942E-01 0.67740020E+03</pdfrwt>
<totfact> 0.10332273E+01</totfact>
</mgrwt>
</event>
<event>
 6    1  0.8739326E-004  0.6225977E+03  0.7818608E-02  0.9859638E-01
         21   -1    0    0  501  502  0.00000000000E+00  0.00000000000E+00  0.40043318687E+03  0.40043318687E+03  0.00000000000E+00 0. -1.
         21   -1    0    0  502  503 -0.00000000000E+00 -0.00000000000E+00 -0.11467784644E+04  0.11467784644E+04  0.00000000000E+00 0.  1.
    9000007    2    1    2  501    0  0.93032526241E+02  0.46794528018E+03 -0.67625165314E+02  0.62618568695E+03  0.39988437751E+03 0.  0.
    9000005    1    3    3    0    0 -0.71399832104E+02  0.18230018385E+03  0.13634527784E+03  0.23858400583E+03  0.99999687468E+00 0.  0.
          4    1    3    3  501    0  0.16443235835E+03  0.28564509633E+03 -0.20397044315E+03  0.38760168112E+03  0.00000000000E+00 0.  1.
   -9000007    1    1    2    0  503 -0.93032526241E+02 -0.46794528018E+03 -0.67872011218E+03  0.92102596427E+03  0.40000000000E+03 0.  1.
<mgrwt>
<rscale>  2 0.62257908E+03</rscale>
<asrwt>0</asrwt>
<pdfrwt beam="1">  1       21 0.61605105E-01 0.62259765E+03</pdfrwt>
<pdfrwt beam="2">  1       21 0.17642746E+00 0.62259765E+03</pdfrwt>
<totfact> 0.36185178E+02</totfact>
</mgrwt>
</event>
<event>
 6    1  0.8739326E-004  0.4930932E+03  0.7818608E-02  0.1015605E+00
         21   -1    0    0  501  502  0.00000000000E+00  0.00000000000E+00  0.17501836634E+03  0.17501836634E+03  0.00000000000E+00 0.  1.
         21   -1    0    0  502  503 -0.00000000000E+00 -0.00000000000E+00 -0.14008283423E+04  0.14008283423E+04  0.00000000000E+00 0.  1.
    9000007    2    1    2  501    0 -0.25541894125E+03 -0.13336084655E+03 -0.54025982155E+03  0.73145167955E+03  0.40014614055E+03 0.  0.
    9000005    1    3    3    0    0 -0.11897158582E+03  0.87852254597E+02 -0.41959682295E+03  0.44489858473E+03  0.99999687468E+00 0.  0.
          4    1    3    3  501    0 -0.13644735543E+03 -0.22121310115E+03 -0.12066299860E+03  0.28655309483E+03  0.00000000000E+00 0.  1.
   -9000007    1    1    2    0  503  0.25541894125E+03  0.13336084655E+03 -0.68555015441E+03  0.84439502909E+03  0.40000000000E+03 0.  1.
<mgrwt>
<rscale>  2 0.49306353E+03</rscale>
<asrwt>0</asrwt>
<pdfrwt beam="1">  1       21 0.26925903E-01 0.49309318E+03</pdfrwt>
<pdfrwt beam="2">  1       21 0.21551205E+00 0.49309318E+03</pdfrwt>
<totfact> 0.11513695E+03</totfact>
</mgrwt>
</event>
<event>
 6    1  0.8739326E-004  0.4167495E+03  0.7818608E-02  0.1038198E+00
         21   -1    0    0  501  502  0.00000000000E+00  0.00000000000E+00  0.13445157967E+04  0.13445157967E+04  0.00000000000E+00 0. -1.
         21   -1    0    0  502  503 -0.00000000000E+00 -0.00000000000E+00 -0.43078862696E+03  0.43078862696E+03  0.00000000000E+00 0. -1.
    9000007    2    1    2  501    0  0.65270297492E+02  0.93421395229E+02  0.12000539569E+04  0.12703580919E+04  0.40086458245E+03 0.  0.
    9000005    1    3    3    0    0 -0.65340306150E+02 -0.13624175190E+03  0.48854923049E+03  0.51138294963E+03  0.99999687468E+00 0.  0.
          4    1    3    3  501    0  0.13061060364E+03  0.22966314713E+03  0.71150472640E+03  0.75897514230E+03  0.00000000000E+00 0.  1.
   -9000007    1    1    2    0  503 -0.65270297492E+02 -0.93421395229E+02 -0.28632678719E+03  0.50494633169E+03  0.40000000000E+03 0. -1.
<mgrwt>
<rscale>  2 0.41654150E+03</rscale>
<asrwt>0</asrwt>
<pdfrwt beam="1">  1       21 0.20684858E+00 0.41674954E+03</pdfrwt>
<pdfrwt beam="2">  1       21 0.66275174E-01 0.41674954E+03</pdfrwt>
<totfact> 0.20865456E+02</totfact>
</mgrwt>
</event>
<event>
 6    1  0.8739326E-004  0.4744020E+03  0.7818608E-02  0.1020689E+00
         21   -1    0    0  501  502  0.00000000000E+00  0.00000000000E+00  0.43258968982E+03  0.43258968982E+03  0.00000000000E+00 0. -1.
         21   -1    0    0  502  503 -0.00000000000E+00 -0.00000000000E+00 -0.54924844252E+03  0.54924844252E+03  0.00000000000E+00 0. -1.
    9000007    2    1    2  501    0 -0.12307365600E+03  0.22329871652E+03  0.54564994433E+02  0.47752968190E+03  0.40005976663E+03 0.  0.
    9000005    1    3    3    0    0 -0.18334632070E+03 -0.40637297441E+02 -0.37630277146E+02  0.19153146219E+03  0.99999687468E+00 0.  0.
          4    1    3    3  501    0  0.60272664696E+02  0.26393601397E+03  0.92195271579E+02  0.28599821971E+03  0.00000000000E+00 0.  1.
   -9000007    1    1    2    0  503  0.12307365600E+03 -0.22329871652E+03 -0.17122374713E+03  0.50430845044E+03  0.40000000000E+03 0. -1.
<mgrwt>
<rscale>  2 0.47438940E+03</rscale>
<asrwt>0</asrwt>
<pdfrwt beam="1">  1       21 0.66552260E-01 0.47440200E+03</pdfrwt>
<pdfrwt beam="2">  1       21 0.84499760E-01 0.47440200E+03</pdfrwt>
<totfact> 0.21553509E+03</totfact>
</mgrwt>
</event>
<event>
 6    1  0.8739326E-004  0.4160217E+03  0.7818608E-02  0.1038379E+00
         21   -1    0    0  501  502  0.00000000000E+00  0.00000000000E+00  0.42938126435E+03  0.42938126435E+03  0.00000000000E+00 0.  1.
         21   -1    0    0  502  503 -0.00000000000E+00 -0.00000000000E+00 -0.44039068770E+03  0.44039068770E+03  0.00000000000E+00 0.  1.
    9000007    2    1    2  501    0 -0.26211507073E+02  0.11083398069E+03 -0.13229452670E+03  0.43654996430E+03  0.40012849831E+03 0.  0.
    9000005    1    3    3    0    0  0.57132170120E+02  0.10863750350E+03  0.11950029454E+03  0.17131115673E+03  0.99999687468E+00 0.  0.
          4    1    3    3  501    0 -0.83343677192E+02  0.21964771886E+01 -0.25179482124E+03  0.26523880757E+03  0.00000000000E+00 0.  1.
   -9000007    1    1    2    0  503  0.26211507073E+02 -0.11083398069E+03  0.12128510334E+03  0.43322198775E+03  0.40000000000E+03 0.  1.
<mgrwt>
<rscale>  2 0.41599077E+03</rscale>
<asrwt>0</asrwt>
<pdfrwt beam="1">  1       21 0.66058657E-01 0.41602167E+03</pdfrwt>
<pdfrwt beam="2">  1       21 0.67752413E-01 0.41602167E+03</pdfrwt>
<totfact> 0.37077195E+03</totfact>
</mgrwt>
</event>
<event>
 6    1  0.8739326E-004  0.4270348E+03  0.7818608E-02  0.1034954E+00
         21   -1    0    0  501  502  0.00000000000E+00  0.00000000000E+00  0.29751075930E+03  0.29751075930E+03  0.00000000000E+00 0. -1.
         21   -1    0    0  502  503 -0.00000000000E+00 -0.00000000000E+00 -0.61024054660E+03  0.61024054660E+03  0.00000000000E+00 0.  1.
    9000007    2    1    2  501    0  0.11047740734E+03  0.92307163838E+02 -0.15306377928E+03  0.45363776928E+03  0.40203586303E+03 0.  0.
    9000005    1    3    3    0    0 -0.11507667235E+03 -0.24276928142E+02  0.50706309894E+02  0.12807864622E+03  0.99999687468E+00 0.  0.
          4    1    3    3  501    0  0.22555407969E+03  0.11658409198E+03 -0.20377008917E+03  0.32555912306E+03  0.00000000000E+00 0.  1.
   -9000007    1    1    2    0  503 -0.11047740734E+03 -0.92307163838E+02 -0.15966600802E+03  0.45411353663E+03  0.40000000000E+03 0.  1.
<mgrwt>
<rscale>  2 0.42655494E+03</rscale>
<asrwt>0</asrwt>
<pdfrwt beam="1">  1       21 0.45770887E-01 0.42703478E+03</pdfrwt>
<pdfrwt beam="2">  1       21 0.93883160E-01 0.42703478E+03</pdfrwt>
<totfact> 0.38400898E+03</totfact>
</mgrwt>
</event>
<event>
 6    1  0.8739326E-004  0.4365173E+03  0.7818608E-02  0.1031879E+00
         21   -1    0    0  501  502  0.00000000000E+00  0.00000000000E+00  0.64291043067E+03  0.64291043067E+03  0.00000000000E+00 0. -1.
         21   -1    0    0  502  503 -0.00000000000E+00 -0.00000000000E+00 -0.35675574506E+03  0.35675574506E+03  0.00000000000E+00 0. -1.
    9000007    2    1    2  501    0  0.14914049556E+03  0.87469319805E+02  0.34966179465E+03  0.55929482991E+03  0.40081612592E+03 0.  0.
    9000005    1    3    3    0    0  0.82632714885E+02  0.50688728308E+02  0.43462147847E+03  0.44530252895E+03  0.99999687468E+00 0.  0.
          4    1    3    3  501    0  0.66507780678E+02  0.36780591498E+02 -0.84959683822E+02  0.11399230095E+03  0.00000000000E+00 0.  1.
   -9000007    1    1    2    0  503 -0.14914049556E+03 -0.87469319805E+02 -0.63507109046E+02  0.44037134582E+03  0.40000000000E+03 0. -1.
<mgrwt>
<rscale>  2 0.43632985E+03</rscale>
<asrwt>0</asrwt>
<pdfrwt beam="1">  1       21 0.98909297E-01 0.43651728E+03</pdfrwt>
<pdfrwt beam="2">  1       21 0.54885499E-01 0.43651728E+03</pdfrwt>
<totfact> 0.22945618E+03</totfact>
</mgrwt>
</event>
<event>
 6    1  0.8739326E-004  0.5127813E+03  0.7818608E-02  0.1010513E+00
         21   -1    0    0  501  502  0.00000000000E+00  0.00000000000E+00  0.47052918985E+03  0.47052918985E+03  0.00000000000E+00 0.  1.
         21   -1    0    0  502  503 -0.00000000000E+00 -0.00000000000E+00 -0.13193593718E+04  0.13193593718E+04  0.00000000000E+00 0. -1.
    9000007    2    1    2  501    0  0.14157728536E+03 -0.28743450543E+03  0.25514503126E+03  0.57275093836E+03  0.40035225461E+03 0.  0.
    9000005    1    3    3    0    0  0.89460220408E+02  0.19364717573E+02 -0.75527144629E+02  0.11867380879E+03  0.99999687468E+00 0.  0.
          4    1    3    3  501    0  0.52117064949E+02 -0.30679922300E+03  0.33067217589E+03  0.45407712957E+03  0.00000000000E+00 0.  1.
   -9000007    1    1    2    0  503 -0.14157728536E+03  0.28743450543E+03 -0.11039752132E+04  0.12171376233E+04  0.40000000000E+03 0. -1.
<mgrwt>
<rscale>  2 0.51271253E+03</rscale>
<asrwt>0</asrwt>
<pdfrwt beam="1">  1       21 0.72389107E-01 0.51278129E+03</pdfrwt>
<pdfrwt beam="2">  1       21 0.20297836E+00 0.51278129E+03</pdfrwt>
<totfact> 0.17250995E+02</totfact>
</mgrwt>
</event>
<event>
 6    1  0.8739326E-004  0.4133316E+03  0.7818608E-02  0.1039299E+00
         21   -1    0    0  501  502  0.00000000000E+00  0.00000000000E+00  0.96499488651E+03  0.96499488651E+03  0.00000000000E+00 0. -1.
         21   -1    0    0  502  503 -0.00000000000E+00 -0.00000000000E+00 -0.18509265475E+03  0.18509265475E+03  0.00000000000E+00 0.  1.
    9000007    2    1    2  501    0 -0.41984399501E+02 -0.93142025572E+02  0.51166559098E+03  0.65775734496E+03  0.40050583157E+03 0.  0.
    9000005    1    3    3    0    0  0.10685673924E+03  0.12093508647E+02  0.45400590487E+03  0.46656937032E+03  0.99999687468E+00 0.  0.
          4    1    3    3  501    0 -0.14884113874E+03 -0.10523553422E+03  0.57659686115E+02  0.19118797464E+03  0.00000000000E+00 0.  1.
   -9000007    1    1    2    0  503  0.41984399501E+02  0.93142025572E+02  0.26823664078E+03  0.49233019630E+03  0.40000000000E+03 0.  1.
<mgrwt>
<rscale>  2 0.41320906E+03</rscale>
<asrwt>0</asrwt>
<pdfrwt beam="1">  1       21 0.14846075E+00 0.41333164E+03</pdfrwt>
<pdfrwt beam="2">  1       21 0.28475794E-01 0.41333164E+03</pdfrwt>
<totfact> 0.31733280E+03</totfact>
</mgrwt>
</event>
<event>
 6    1  0.8739326E-004  0.4658371E+03  0.7818608E-02  0.1023138E+00
         21   -1    0    0  501  502  0.00000000000E+00  0.00000000000E+00  0.17549768175E+03  0.17549768175E+03  0.00000000000E+00 0. -1.
         21   -1    0    0  502  503 -0.00000000000E+00 -0.00000000000E+00 -0.19561316119E+04  0.19561316119E+04  0.00000000000E+00 0.  1.
    9000007    2    1    2  501    0 -0.83866804841E+02  0.22354092252E+03 -0.24294350515E+03  0.52492582750E+03  0.39940129279E+03 0.  0.
    9000005    1    3    3    0    0 -0.23015416897E+03  0.16655978065E+03 -0.72518662014E+02  0.29321162726E+03  0.99999687468E+00 0.  0.
          4    1    3    3  501    0  0.14628736413E+03  0.56981141879E+02 -0.17042484313E+03  0.23171420024E+03  0.00000000000E+00 0.  1.
   -9000007    1    1    2    0  503  0.83866804841E+02 -0.22354092252E+03 -0.15376904250E+04  0.16067034662E+04  0.40000000000E+03 0.  1.
<mgrwt>
<rscale>  2 0.46570853E+03</rscale>
<asrwt>0</asrwt>
<pdfrwt beam="1">  1       21 0.26999642E-01 0.46583708E+03</pdfrwt>
<pdfrwt beam="2">  1       21 0.30094335E+00 0.46583708E+03</pdfrwt>
<totfact> 0.34556857E+02</totfact>
</mgrwt>
</event>
<event>
 6    1  0.8739326E-004  0.4594472E+03  0.7818608E-02  0.1024965E+00
         21   -1    0    0  501  502  0.00000000000E+00  0.00000000000E+00  0.98251889358E+03  0.98251889358E+03  0.00000000000E+00 0.  1.
         21   -1    0    0  502  503 -0.00000000000E+00 -0.00000000000E+00 -0.22155961499E+03  0.22155961499E+03  0.00000000000E+00 0.  1.
    9000007    2    1    2  501    0 -0.12027114692E+03  0.19061719435E+03  0.27466732061E+03  0.53528860736E+03  0.40036444972E+03 0.  0.
    9000005    1    3    3    0    0 -0.13630664159E+02 -0.27897218396E+02  0.28999900736E+03  0.29165814589E+03  0.99999687468E+00 0.  0.
          4    1    3    3  501    0 -0.10664048276E+03  0.21851441274E+03 -0.15331686748E+02  0.24363046148E+03  0.00000000000E+00 0.  1.
   -9000007    1    1    2    0  503  0.12027114692E+03 -0.19061719435E+03  0.48629195798E+03  0.66878990121E+03  0.40000000000E+03 0.  1.
<mgrwt>
<rscale>  2 0.45936782E+03</rscale>
<asrwt>0</asrwt>
<pdfrwt beam="1">  1       21 0.15115675E+00 0.45944723E+03</pdfrwt>
<pdfrwt beam="2">  1       21 0.34086095E-01 0.45944723E+03</pdfrwt>
<totfact> 0.20730954E+03</totfact>
</mgrwt>
</event>
<event>
 6    1  0.8739326E-004  0.4833317E+03  0.7818608E-02  0.1018349E+00
         21   -1    0    0  501  502  0.00000000000E+00  0.00000000000E+00  0.32375641067E+03  0.32375641067E+03  0.00000000000E+00 0.  1.
         21   -1    0    0  502  503 -0.00000000000E+00 -0.00000000000E+00 -0.16482530253E+04  0.16482530253E+04  0.00000000000E+00 0.  1.
    9000007    2    1    2  501    0  0.21347148144E+03 -0.16208240844E+03  0.77616715305E+02  0.48952416775E+03  0.40220489280E+03 0.  0.
    9000005    1    3    3    0    0 -0.11037700551E+03 -0.64170770856E+02 -0.35953988529E+02  0.13264486595E+03  0.99999687468E+00 0.  0.
          4    1    3    3  501    0  0.32384848696E+03 -0.97911637587E+02  0.11357070383E+03  0.35687930179E+03  0.00000000000E+00 0.  1.
   -9000007    1    1    2    0  503 -0.21347148144E+03  0.16208240844E+03 -0.14021133300E+04  0.14824852682E+04  0.40000000000E+03 0.  1.
<mgrwt>
<rscale>  2 0.48287276E+03</rscale>
<asrwt>0</asrwt>
<pdfrwt beam="1">  1       21 0.49808679E-01 0.48333172E+03</pdfrwt>
<pdfrwt beam="2">  1       21 0.25357739E+00 0.48333172E+03</pdfrwt>
<totfact> 0.18984256E+02</totfact>
</mgrwt>
</event>
<event>
 6    1  0.8739326E-004  0.4349160E+03  0.7818608E-02  0.1032374E+00
         21   -1    0    0  501  502  0.00000000000E+00  0.00000000000E+00  0.80515728755E+03  0.80515728755E+03  0.00000000000E+00 0. -1.
         21   -1    0    0  502  503 -0.00000000000E+00 -0.00000000000E+00 -0.23487947573E+03  0.23487947573E+03  0.00000000000E+00 0. -1.
    9000007    2    1    2  501    0  0.14878373434E+03 -0.79970125626E+02  0.26560894662E+03  0.50960775011E+03  0.40077440767E+03 0.  0.
    9000005    1    3    3    0    0 -0.67250969295E+00 -0.21644893224E+03  0.20552461307E+03  0.29848276183E+03  0.99999687468E+00 0.  0.
          4    1    3    3  501    0  0.14945624404E+03  0.13647880662E+03  0.60084333553E+02  0.21112498828E+03  0.00000000000E+00 0.  1.
   -9000007    1    1    2    0  503 -0.14878373434E+03  0.79970125626E+02  0.30466886520E+03  0.53042901318E+03  0.40000000000E+03 0. -1.
<mgrwt>
<rscale>  2 0.43473753E+03</rscale>
<asrwt>0</asrwt>
<pdfrwt beam="1">  1       21 0.12387035E+00 0.43491602E+03</pdfrwt>
<pdfrwt beam="2">  1       21 0.36135304E-01 0.43491602E+03</pdfrwt>
<totfact> 0.31441905E+03</totfact>
</mgrwt>
</event>
<event>
 6    1  0.8739326E-004  0.4209949E+03  0.7818608E-02  0.1036955E+00
         21   -1    0    0  501  502  0.00000000000E+00  0.00000000000E+00  0.62212984833E+03  0.62212984833E+03  0.00000000000E+00 0. -1.
         21   -1    0    0  502  503 -0.00000000000E+00 -0.00000000000E+00 -0.31838381384E+03  0.31838381384E+03  0.00000000000E+00 0. -1.
    9000007    2    1    2  501    0  0.11178531380E+03  0.50488635486E+02  0.30878963836E+03  0.52209939779E+03  0.40273028408E+03 0.  0.
    9000005    1    3    3    0    0 -0.80125458248E+02 -0.62363328245E+02  0.27971680040E+03  0.29757648124E+03  0.99999687468E+00 0.  0.
          4    1    3    3  501    0  0.19191077205E+03  0.11285196373E+03  0.29072837966E+02  0.22452291655E+03  0.00000000000E+00 0.  1.
   -9000007    1    1    2    0  503 -0.11178531380E+03 -0.50488635486E+02 -0.50436038796E+01  0.41841426438E+03  0.40000000000E+03 0. -1.
<mgrwt>
<rscale>  2 0.42034065E+03</rscale>
<asrwt>0</asrwt>
<pdfrwt beam="1">  1       21 0.95712284E-01 0.42099494E+03</pdfrwt>
<pdfrwt beam="2">  1       21 0.48982125E-01 0.42099494E+03</pdfrwt>
<totfact> 0.31856852E+03</totfact>
</mgrwt>
</event>
<event>
 6    1  0.8739326E-004  0.4616824E+03  0.7818608E-02  0.1024334E+00
         21   -1    0    0  501  502  0.00000000000E+00  0.00000000000E+00  0.35018241420E+03  0.35018241420E+03  0.00000000000E+00 0. -1.
         21   -1    0    0  502  503 -0.00000000000E+00 -0.00000000000E+00 -0.66858247973E+03  0.66858247973E+03  0.00000000000E+00 0.  1.
    9000007    2    1    2  501    0 -0.11740525748E+03 -0.19841039218E+03 -0.57378726087E+01  0.46117335427E+03  0.39937108220E+03 0.  0.
    9000005    1    3    3    0    0 -0.89291186597E+02 -0.11432888929E+03  0.19423427799E+03  0.24242930035E+03  0.99999687468E+00 0.  0.
          4    1    3    3  501    0 -0.28114070885E+02 -0.84081502891E+02 -0.19997215060E+03  0.21874405392E+03  0.00000000000E+00 0.  1.
   -9000007    1    1    2    0  503  0.11740525748E+03  0.19841039218E+03 -0.31266219293E+03  0.55759153965E+03  0.40000000000E+03 0. -1.
<mgrwt>
<rscale>  2 0.46154619E+03</rscale>
<asrwt>0</asrwt>
<pdfrwt beam="1">  1       21 0.53874218E-01 0.46168244E+03</pdfrwt>
<pdfrwt beam="2">  1       21 0.10285884E+00 0.46168244E+03</pdfrwt>
<totfact> 0.21506246E+03</totfact>
</mgrwt>
</event>
<event>
 6    1  0.8739326E-004  0.4466337E+03  0.7818608E-02  0.1028921E+00
         21   -1    0    0  501  502  0.00000000000E+00  0.00000000000E+00  0.15933373936E+03  0.15933373936E+03  0.00000000000E+00 0.  1.
         21   -1    0    0  502  503 -0.00000000000E+00 -0.00000000000E+00 -0.12478786217E+04  0.12478786217E+04  0.00000000000E+00 0. -1.
    9000007    2    1    2  501    0  0.38630245289E+02  0.19490854332E+03 -0.57710614400E+03  0.72820483592E+03  0.39717646646E+03 0.  0.
    9000005    1    3    3    0    0 -0.35223897286E+02 -0.83793376446E+01 -0.49582855784E+03  0.49714977120E+03  0.99999687468E+00 0.  0.
          4    1    3    3  501    0  0.73854142576E+02  0.20328788096E+03 -0.81277586156E+02  0.23105506472E+03  0.00000000000E+00 0.  1.
   -9000007    1    1    2    0  503 -0.38630245289E+02 -0.19490854332E+03 -0.51143873833E+03  0.67900752513E+03  0.40000000000E+03 0.  1.
<mgrwt>
<rscale>  2 0.44600059E+03</rscale>
<asrwt>0</asrwt>
<pdfrwt beam="1">  1       21 0.24512884E-01 0.44663367E+03</pdfrwt>
<pdfrwt beam="2">  1       21 0.19198132E+00 0.44663367E+03</pdfrwt>
<totfact> 0.20205262E+03</totfact>
</mgrwt>
</event>
<event>
 6    1  0.8739326E-004  0.4121771E+03  0.7818608E-02  0.1039651E+00
         21   -1    0    0  501  502  0.00000000000E+00  0.00000000000E+00  0.70737187103E+03  0.70737187103E+03  0.00000000000E+00 0.  1.
         21   -1    0    0  502  503 -0.00000000000E+00 -0.00000000000E+00 -0.28639114459E+03  0.28639114459E+03  0.00000000000E+00 0.  1.
    9000007    2    1    2  501    0  0.98633593707E+02  0.12702817400E+02  0.41021008977E+03  0.58144523285E+03  0.39989535341E+03 0.  0.
    9000005    1    3    3    0    0  0.21542349159E+03  0.36423923682E+02  0.83874393248E+02  0.23402969210E+03  0.99999687468E+00 0.  0.
          4    1    3    3  501    0 -0.11678989789E+03 -0.23721106282E+02  0.32633569653E+03  0.34741554076E+03  0.00000000000E+00 0.  1.
   -9000007    1    1    2    0  503 -0.98633593707E+02 -0.12702817400E+02  0.10770636668E+02  0.41231778277E+03  0.40000000000E+03 0.  1.
<mgrwt>
<rscale>  2 0.41215169E+03</rscale>
<asrwt>0</asrwt>
<pdfrwt beam="1">  1       21 0.10882644E+00 0.41217708E+03</pdfrwt>
<pdfrwt beam="2">  1       21 0.44060176E-01 0.41217708E+03</pdfrwt>
<totfact> 0.29199603E+03</totfact>
</mgrwt>
</event>
<event>
 6    1  0.8739326E-004  0.4165950E+03  0.7818608E-02  0.1038190E+00
         21   -1    0    0  501  502  0.00000000000E+00  0.00000000000E+00  0.61473644330E+03  0.61473644330E+03  0.00000000000E+00 0. -1.
         21   -1    0    0  502  503 -0.00000000000E+00 -0.00000000000E+00 -0.28485027043E+03  0.28485027043E+03  0.00000000000E+00 0. -1.
    9000007    2    1    2  501    0  0.24893387997E+02  0.11327338257E+03  0.20805428484E+03  0.46565866796E+03  0.40012606719E+03 0.  0.
    9000005    1    3    3    0    0 -0.13063085832E+03  0.19857487256E+03  0.13870594196E+03  0.27520308771E+03  0.99999687468E+00 0.  0.
          4    1    3    3  501    0  0.15552424632E+03 -0.85301489995E+02  0.69348342878E+02  0.19045558025E+03  0.00000000000E+00 0.  1.
   -9000007    1    1    2    0  503 -0.24893387997E+02 -0.11327338257E+03  0.12183188803E+03  0.43392804577E+03  0.40000000000E+03 0. -1.
<mgrwt>
<rscale>  2 0.41656474E+03</rscale>
<asrwt>0</asrwt>
<pdfrwt beam="1">  1       21 0.94574837E-01 0.41659502E+03</pdfrwt>
<pdfrwt beam="2">  1       21 0.43823119E-01 0.41659502E+03</pdfrwt>
<totfact> 0.41481958E+03</totfact>
</mgrwt>
</event>
<event>
 6    1  0.8739326E-004  0.4427856E+03  0.7818608E-02  0.1029926E+00
         21   -1    0    0  501  502  0.00000000000E+00  0.00000000000E+00  0.62918325361E+03  0.62918325361E+03  0.00000000000E+00 0.  1.
         21   -1    0    0  502  503 -0.00000000000E+00 -0.00000000000E+00 -0.31841053638E+03  0.31841053638E+03  0.00000000000E+00 0.  1.
    9000007    2    1    2  501    0 -0.15576793203E+03 -0.10697283776E+03  0.22611351248E+03  0.49717840658E+03  0.40044002144E+03 0.  0.
    9000005    1    3    3    0    0 -0.18314144764E+03  0.11520414070E+03  0.84446802967E+02  0.23226072936E+03  0.99999687468E+00 0.  0.
          4    1    3    3  501    0  0.27373515612E+02 -0.22217697847E+03  0.14166670951E+03  0.26491767722E+03  0.00000000000E+00 0.  1.
   -9000007    1    1    2    0  503  0.15576793203E+03  0.10697283776E+03  0.84659204752E+02  0.45041538342E+03  0.40000000000E+03 0.  1.
<mgrwt>
<rscale>  2 0.44268605E+03</rscale>
<asrwt>0</asrwt>
<pdfrwt beam="1">  1       21 0.96797423E-01 0.44278555E+03</pdfrwt>
<pdfrwt beam="2">  1       21 0.48986237E-01 0.44278555E+03</pdfrwt>
<totfact> 0.30752149E+03</totfact>
</mgrwt>
</event>
<event>
 6    1  0.8739326E-004  0.4179131E+03  0.7818608E-02  0.1037765E+00
         21   -1    0    0  501  502  0.00000000000E+00  0.00000000000E+00  0.55832636654E+03  0.55832636654E+03  0.00000000000E+00 0.  1.
         21   -1    0    0  502  503 -0.00000000000E+00 -0.00000000000E+00 -0.31795634295E+03  0.31795634295E+03  0.00000000000E+00 0.  1.
    9000007    2    1    2  501    0  0.11565607960E+03 -0.33135203147E+02  0.17679691781E+03  0.45377139578E+03  0.40022126261E+03 0.  0.
    9000005    1    3    3    0    0  0.13071287867E+03  0.16967413708E+03  0.10007568317E+03  0.23641343405E+03  0.99999687468E+00 0.  0.
          4    1    3    3  501    0 -0.15056799068E+02 -0.20280934023E+03  0.76721234641E+02  0.21735796173E+03  0.00000000000E+00 0.  1.
   -9000007    1    1    2    0  503 -0.11565607960E+03  0.33135203147E+02  0.63573105777E+02  0.42251131371E+03  0.40000000000E+03 0. -1.
<mgrwt>
<rscale>  2 0.41786008E+03</rscale>
<asrwt>0</asrwt>
<pdfrwt beam="1">  1       21 0.85896364E-01 0.41791306E+03</pdfrwt>
<pdfrwt beam="2">  1       21 0.48916361E-01 0.41791306E+03</pdfrwt>
<totfact> 0.41326447E+03</totfact>
</mgrwt>
</event>
<event>
 6    1  0.8739326E-004  0.4932029E+03  0.7818608E-02  0.1015584E+00
         21   -1    0    0  501  502  0.00000000000E+00  0.00000000000E+00  0.23763255779E+03  0.23763255779E+03  0.00000000000E+00 0.  1.
         21   -1    0    0  502  503 -0.00000000000E+00 -0.00000000000E+00 -0.20523317164E+04  0.20523317164E+04  0.00000000000E+00 0.  1.
    9000007    2    1    2  501    0 -0.27640882033E+03 -0.82748221747E+02 -0.96422729416E+02  0.50230575218E+03  0.39970566892E+03 0.  0.
    9000005    1    3    3    0    0 -0.21715656616E+03  0.77579200663E+02 -0.19759818521E+03  0.30368001151E+03  0.99999687468E+00 0.  0.
          4    1    3    3  501    0 -0.59252254178E+02 -0.16032742241E+03  0.10117545579E+03  0.19862574067E+03  0.00000000000E+00 0.  1.
   -9000007    1    1    2    0  503  0.27640882033E+03  0.82748221747E+02 -0.17182764292E+04  0.17876585220E+04  0.40000000000E+03 0.  1.
<mgrwt>
<rscale>  2 0.49314322E+03</rscale>
<asrwt>0</asrwt>
<pdfrwt beam="1">  1       21 0.36558853E-01 0.49320290E+03</pdfrwt>
<pdfrwt beam="2">  1       21 0.31574336E+00 0.49320290E+03</pdfrwt>
<totfact> 0.15097450E+02</totfact>
</mgrwt>
</event>
<event>
 6    1  0.8739326E-004  0.4727057E+03  0.7818608E-02  0.1021220E+00
         21   -1    0    0  501  502  0.00000000000E+00  0.00000000000E+00  0.14676576893E+04  0.14676576893E+04  0.00000000000E+00 0.  1.
         21   -1    0    0  502  503 -0.00000000000E+00 -0.00000000000E+00 -0.18122815456E+03  0.18122815456E+03  0.00000000000E+00 0.  1.
    9000007    2    1    2  501    0  0.18305972998E+03  0.17066372024E+03  0.97495407615E+03  0.10835063860E+04  0.40101579475E+03 0.  0.
    9000005    1    3    3    0    0  0.11999671604E+03  0.30236435905E+03  0.71008024170E+03  0.78104952924E+03  0.99999687468E+00 0.  0.
          4    1    3    3  501    0  0.63063013945E+02 -0.13170063881E+03  0.26487383446E+03  0.30245685671E+03  0.00000000000E+00 0.  1.
   -9000007    1    1    2    0  503 -0.18305972998E+03 -0.17066372024E+03  0.31147545863E+03  0.56537945795E+03  0.40000000000E+03 0.  1.
<mgrwt>
<rscale>  2 0.47249015E+03</rscale>
<asrwt>0</asrwt>
<pdfrwt beam="1">  1       21 0.22579348E+00 0.47270566E+03</pdfrwt>
<pdfrwt beam="2">  1       21 0.27881256E-01 0.47270566E+03</pdfrwt>
<totfact> 0.93208234E+02</totfact>
</mgrwt>
</event>
<event>
 6    1  0.8739326E-004  0.5427411E+03  0.7818608E-02  0.1003199E+00
         21   -1    0    0  501  502  0.00000000000E+00  0.00000000000E+00  0.61280039903E+03  0.61280039903E+03  0.00000000000E+00 0. -1.
         21   -1    0    0  502  503 -0.00000000000E+00 -0.00000000000E+00 -0.49836099552E+03  0.49836099552E+03  0.00000000000E+00 0. -1.
    9000007    2    1    2  501    0 -0.18971397304E+03 -0.31396902888E+03 -0.47880069338E+02  0.54466730462E+03  0.39975245967E+03 0.  0.
    9000005    1    3    3    0    0 -0.30269335845E+03 -0.27370145089E+03 -0.89356370204E+02  0.41775748271E+03  0.99999687468E+00 0.  0.
          4    1    3    3  501    0  0.11297938540E+03 -0.40267577986E+02  0.41476300866E+02  0.12690982191E+03  0.00000000000E+00 0.  1.
   -9000007    1    1    2    0  503  0.18971397304E+03  0.31396902888E+03  0.16231947284E+03  0.56649408993E+03  0.40000000000E+03 0. -1.
<mgrwt>
<rscale>  2 0.54269553E+03</rscale>
<asrwt>0</asrwt>
<pdfrwt beam="1">  1       21 0.94276984E-01 0.54274114E+03</pdfrwt>
<pdfrwt beam="2">  1       21 0.76670923E-01 0.54274114E+03</pdfrwt>
<totfact> 0.11785138E+03</totfact>
</mgrwt>
</event>
<event>
 6    1  0.8739326E-004  0.6186148E+03  0.7818608E-02  0.9867686E-01
         21   -1    0    0  501  502  0.00000000000E+00  0.00000000000E+00  0.82235906367E+03  0.82235906367E+03  0.00000000000E+00 0. -1.
         21   -1    0    0  502  503 -0.00000000000E+00 -0.00000000000E+00 -0.51769082551E+03  0.51769082551E+03  0.00000000000E+00 0.  1.
    9000007    2    1    2  501    0  0.47152571390E+03 -0.18648573495E+02  0.36584907431E+03  0.71841706921E+03  0.39949126649E+03 0.  0.
    9000005    1    3    3    0    0 -0.62149679797E+02  0.43042572269E+01  0.10935296744E+03  0.12585778010E+03  0.99999687468E+00 0.  0.
          4    1    3    3  501    0  0.53367539369E+03 -0.22952830722E+02  0.25649610687E+03  0.59255928911E+03  0.00000000000E+00 0.  1.
   -9000007    1    1    2    0  503 -0.47152571390E+03  0.18648573495E+02 -0.61180836153E+02  0.62163281998E+03  0.40000000000E+03 0.  1.
<mgrwt>
<rscale>  2 0.61853257E+03</rscale>
<asrwt>0</asrwt>
<pdfrwt beam="1">  1       21 0.12651678E+00 0.61861480E+03</pdfrwt>
<pdfrwt beam="2">  1       21 0.79644742E-01 0.61861480E+03</pdfrwt>
<totfact> 0.50485418E+02</totfact>
</mgrwt>
</event>
<event>
 6    1  0.8739326E-004  0.4114715E+03  0.7818608E-02  0.1039921E+00
         21   -1    0    0  501  502  0.00000000000E+00  0.00000000000E+00  0.84284111590E+03  0.84284111590E+03  0.00000000000E+00 0. -1.
         21   -1    0    0  502  503 -0.00000000000E+00 -0.00000000000E+00 -0.24856847097E+03  0.24856847097E+03  0.00000000000E+00 0. -1.
    9000007    2    1    2  501    0 -0.96218640249E+02  0.71270722721E+01  0.53663977557E+03  0.67592147690E+03  0.39947311840E+03 0.  0.
    9000005    1    3    3    0    0 -0.19619629576E+03 -0.59262138854E+02  0.10976244711E+03  0.23249469319E+03  0.99999687468E+00 0.  0.
          4    1    3    3  501    0  0.99977655515E+02  0.66389211126E+02  0.42687732846E+03  0.44342678371E+03  0.00000000000E+00 0.  1.
   -9000007    1    1    2    0  503  0.96218640249E+02 -0.71270722721E+01  0.57632869357E+02  0.41548810996E+03  0.40000000000E+03 0. -1.
<mgrwt>
<rscale>  2 0.41134343E+03</rscale>
<asrwt>0</asrwt>
<pdfrwt beam="1">  1       21 0.12966786E+00 0.41147153E+03</pdfrwt>
<pdfrwt beam="2">  1       21 0.38241304E-01 0.41147153E+03</pdfrwt>
<totfact> 0.25133052E+03</totfact>
</mgrwt>
</event>
<event>
 6    1  0.8739326E-004  0.6342396E+03  0.7818608E-02  0.9836822E-01
         21   -1    0    0  501  502  0.00000000000E+00  0.00000000000E+00  0.82144427241E+03  0.82144427241E+03  0.00000000000E+00 0.  1.
         21   -1    0    0  502  503 -0.00000000000E+00 -0.00000000000E+00 -0.49527660989E+03  0.49527660989E+03  0.00000000000E+00 0.  1.
    9000007    2    1    2  501    0 -0.53826185318E+02 -0.48921530380E+03  0.93098809652E+02  0.64103607273E+03  0.40003873123E+03 0.  0.
    9000005    1    3    3    0    0  0.11698561575E+03 -0.29234396426E+03 -0.84028715436E+02  0.32590252031E+03  0.99999687468E+00 0.  0.
          4    1    3    3  501    0 -0.17081180107E+03 -0.19687133954E+03  0.17712752509E+03  0.31513355242E+03  0.00000000000E+00 0.  1.
   -9000007    1    1    2    0  503  0.53826185318E+02  0.48921530380E+03  0.23306885286E+03  0.67568480956E+03  0.40000000000E+03 0. -1.
<mgrwt>
<rscale>  2 0.63423348E+03</rscale>
<asrwt>0</asrwt>
<pdfrwt beam="1">  1       21 0.12637604E+00 0.63423959E+03</pdfrwt>
<pdfrwt beam="2">  1       21 0.76196402E-01 0.63423959E+03</pdfrwt>
<totfact> 0.55824108E+02</totfact>
</mgrwt>
</event>
<event>
 6    1  0.8739326E-004  0.4667466E+03  0.7818608E-02  0.1023050E+00
         21   -1    0    0  501  502  0.00000000000E+00  0.00000000000E+00  0.25448701007E+03  0.25448701007E+03  0.00000000000E+00 0. -1.
         21   -1    0    0  502  503 -0.00000000000E+00 -0.00000000000E+00 -0.92203078193E+03  0.92203078193E+03  0.00000000000E+00 0. -1.
    9000007    2    1    2  501    0 -0.90653612580E+02 -0.21664383877E+03 -0.17115087484E+03  0.49713679538E+03  0.40336055956E+03 0.  0.
    9000005    1    3    3    0    0 -0.53265122303E+02 -0.29230150060E+03  0.10008357212E+02  0.29728522957E+03  0.99999687468E+00 0.  0.
          4    1    3    3  501    0 -0.37388490278E+02  0.75657661835E+02 -0.18115923205E+03  0.19985156581E+03  0.00000000000E+00 0.  1.
   -9000007    1    1    2    0  503  0.90653612580E+02  0.21664383877E+03 -0.49639289703E+03  0.67938099662E+03  0.40000000000E+03 0. -1.
<mgrwt>
<rscale>  2 0.46601961E+03</rscale>
<asrwt>0</asrwt>
<pdfrwt beam="1">  1       21 0.39151848E-01 0.46674658E+03</pdfrwt>
<pdfrwt beam="2">  1       21 0.14185089E+00 0.46674658E+03</pdfrwt>
<totfact> 0.18508065E+03</totfact>
</mgrwt>
</event>
<event>
 6    1  0.8739326E-004  0.4060706E+03  0.7818608E-02  0.1041794E+00
         21   -1    0    0  501  502  0.00000000000E+00  0.00000000000E+00  0.16781596870E+03  0.16781596870E+03  0.00000000000E+00 0.  1.
         21   -1    0    0  502  503 -0.00000000000E+00 -0.00000000000E+00 -0.12858441134E+04  0.12858441134E+04  0.00000000000E+00 0.  1.
    9000007    2    1    2  501    0  0.49136139420E+02 -0.39536577677E+02 -0.20504517378E+03  0.45490315154E+03  0.40114318243E+03 0.  0.
    9000005    1    3    3    0    0  0.13153258569E+03  0.73350436976E+02 -0.26342691321E+03  0.30344002093E+03  0.99999687468E+00 0.  0.
          4    1    3    3  501    0 -0.82396446272E+02 -0.11288701465E+03  0.58381739425E+02  0.15146313061E+03  0.00000000000E+00 0.  1.
   -9000007    1    1    2    0  503 -0.49136139420E+02  0.39536577677E+02 -0.91298297088E+03  0.99875693053E+03  0.40000000000E+03 0.  1.
<mgrwt>
<rscale>  2 0.40578801E+03</rscale>
<asrwt>0</asrwt>
<pdfrwt beam="1">  1       21 0.25817841E-01 0.40607063E+03</pdfrwt>
<pdfrwt beam="2">  1       21 0.19782218E+00 0.40607063E+03</pdfrwt>
<totfact> 0.16989594E+03</totfact>
</mgrwt>
</event>
<event>
 6    1  0.8739326E-004  0.4127424E+03  0.7818608E-02  0.1039472E+00
         21   -1    0    0  501  502  0.00000000000E+00  0.00000000000E+00  0.21484347079E+03  0.21484347079E+03  0.00000000000E+00 0.  1.
         21   -1    0    0  502  503 -0.00000000000E+00 -0.00000000000E+00 -0.89323837039E+03  0.89323837039E+03  0.00000000000E+00 0.  1.
    9000007    2    1    2  501    0 -0.25461052074E+02  0.97657246681E+02 -0.15324331108E+03  0.44027244178E+03  0.40021382734E+03 0.  0.
    9000005    1    3    3    0    0 -0.44561983559E+02  0.64716431359E+02 -0.28888781729E+03  0.29938463193E+03  0.99999687468E+00 0.  0.
          4    1    3    3  501    0  0.19100931485E+02  0.32940815322E+02  0.13564450621E+03  0.14088780984E+03  0.00000000000E+00 0.  1.
   -9000007    1    1    2    0  503  0.25461052074E+02 -0.97657246681E+02 -0.52515158853E+03  0.66780939940E+03  0.40000000000E+03 0.  1.
<mgrwt>
<rscale>  2 0.41269058E+03</rscale>
<asrwt>0</asrwt>
<pdfrwt beam="1">  1       21 0.33052841E-01 0.41274243E+03</pdfrwt>
<pdfrwt beam="2">  1       21 0.13742129E+00 0.41274243E+03</pdfrwt>
<totfact> 0.29005772E+03</totfact>
</mgrwt>
</event>
<event>
 6    1  0.8739326E-004  0.4448955E+03  0.7818608E-02  0.1029342E+00
         21   -1    0    0  501  502  0.00000000000E+00  0.00000000000E+00  0.35110306877E+03  0.35110306877E+03  0.00000000000E+00 0. -1.
         21   -1    0    0  502  503 -0.00000000000E+00 -0.00000000000E+00 -0.57066864658E+03  0.57066864658E+03  0.00000000000E+00 0. -1.
    9000007    2    1    2  501    0 -0.15941002188E+03  0.11189488245E+03 -0.16549724948E+03  0.47360276961E+03  0.39872073436E+03 0.  0.
    9000005    1    3    3    0    0 -0.29376785783E+03  0.77018974547E+02 -0.12981594846E+03  0.33027966514E+03  0.99999687468E+00 0.  0.
          4    1    3    3  501    0  0.13435783595E+03  0.34875907907E+02 -0.35681301016E+02  0.14332310448E+03  0.00000000000E+00 0.  1.
   -9000007    1    1    2    0  503  0.15941002188E+03 -0.11189488245E+03 -0.54068328340E+02  0.44816894574E+03  0.40000000000E+03 0. -1.
<mgrwt>
<rscale>  2 0.44460778E+03</rscale>
<asrwt>0</asrwt>
<pdfrwt beam="1">  1       21 0.54015857E-01 0.44489552E+03</pdfrwt>
<pdfrwt beam="2">  1       21 0.87795176E-01 0.44489552E+03</pdfrwt>
<totfact> 0.31462565E+03</totfact>
</mgrwt>
</event>
<event>
 6    1  0.8739326E-004  0.4218284E+03  0.7818608E-02  0.1036580E+00
         21   -1    0    0  501  502  0.00000000000E+00  0.00000000000E+00  0.64668987932E+03  0.64668987932E+03  0.00000000000E+00 0.  1.
         21   -1    0    0  502  503 -0.00000000000E+00 -0.00000000000E+00 -0.28267423336E+03  0.28267423336E+03  0.00000000000E+00 0.  1.
    9000007    2    1    2  501    0  0.13041196037E+03 -0.30526701961E+02  0.26175986804E+03  0.49531871982E+03  0.39860161408E+03 0.  0.
    9000005    1    3    3    0    0 -0.93534255523E+02 -0.25971622512E+02  0.25318925169E+03  0.27116227484E+03  0.99999687468E+00 0.  0.
          4    1    3    3  501    0  0.22394621590E+03 -0.45550794481E+01  0.85706163554E+01  0.22415644498E+03  0.00000000000E+00 0.  1.
   -9000007    1    1    2    0  503 -0.13041196037E+03  0.30526701961E+02  0.10225577791E+03  0.43404539285E+03  0.40000000000E+03 0.  1.
<mgrwt>
<rscale>  2 0.42149651E+03</rscale>
<asrwt>0</asrwt>
<pdfrwt beam="1">  1       21 0.99490750E-01 0.42182835E+03</pdfrwt>
<pdfrwt beam="2">  1       21 0.43488344E-01 0.42182835E+03</pdfrwt>
<totfact> 0.37244080E+03</totfact>
</mgrwt>
</event>
<event>
 6    1  0.8739326E-004  0.4273647E+03  0.7818608E-02  0.1034708E+00
         21   -1    0    0  501  502  0.00000000000E+00  0.00000000000E+00  0.17654012239E+03  0.17654012239E+03  0.00000000000E+00 0.  1.
         21   -1    0    0  502  503 -0.00000000000E+00 -0.00000000000E+00 -0.14128297435E+04  0.14128297435E+04  0.00000000000E+00 0.  1.
    9000007    2    1    2  501    0 -0.26232857299E+02 -0.14816363181E+03 -0.20665132946E+03  0.47456242231E+03  0.39983008405E+03 0.  0.
    9000005    1    3    3    0    0 -0.66891636559E+02  0.12829825961E+03 -0.43992365389E+02  0.15123247887E+03  0.99999687468E+00 0.  0.
          4    1    3    3  501    0  0.40658779260E+02 -0.27646189141E+03 -0.16265896407E+03  0.32332994344E+03  0.00000000000E+00 0.  1.
   -9000007    1    1    2    0  503  0.26232857299E+02  0.14816363181E+03 -0.10296382916E+04  0.11148074435E+04  0.40000000000E+03 0.  1.
<mgrwt>
<rscale>  2 0.42732498E+03</rscale>
<asrwt>0</asrwt>
<pdfrwt beam="1">  1       21 0.27160019E-01 0.42736474E+03</pdfrwt>
<pdfrwt beam="2">  1       21 0.21735842E+00 0.42736474E+03</pdfrwt>
<totfact> 0.11349605E+03</totfact>
</mgrwt>
</event>
<event>
 6    1  0.8739326E-004  0.4147117E+03  0.7818608E-02  0.1038878E+00
         21   -1    0    0  501  502  0.00000000000E+00  0.00000000000E+00  0.50269235681E+03  0.50269235681E+03  0.00000000000E+00 0.  1.
         21   -1    0    0  502  503 -0.00000000000E+00 -0.00000000000E+00 -0.38282943060E+03  0.38282943060E+03  0.00000000000E+00 0. -1.
    9000007    2    1    2  501    0 -0.10621009240E+02 -0.10537758131E+03  0.20570725475E+03  0.46292684042E+03  0.40095952969E+03 0.  0.
    9000005    1    3    3    0    0 -0.12390358529E+03 -0.14185239674E+03 -0.37607367974E+02  0.19206643389E+03  0.99999687468E+00 0.  0.
          4    1    3    3  501    0  0.11328257605E+03  0.36474815427E+02  0.24331462272E+03  0.27086040653E+03  0.00000000000E+00 0.  1.
   -9000007    1    1    2    0  503  0.10621009240E+02  0.10537758131E+03 -0.85844328544E+02  0.42259494699E+03  0.40000000000E+03 0.  1.
<mgrwt>
<rscale>  2 0.41447958E+03</rscale>
<asrwt>0</asrwt>
<pdfrwt beam="1">  1       21 0.77337285E-01 0.41471169E+03</pdfrwt>
<pdfrwt beam="2">  1       21 0.58896836E-01 0.41471169E+03</pdfrwt>
<totfact> 0.35408342E+03</totfact>
</mgrwt>
</event>
<event>
 6    1  0.8739326E-004  0.4738454E+03  0.7818608E-02  0.1020917E+00
         21   -1    0    0  501  502  0.00000000000E+00  0.00000000000E+00  0.11439399369E+04  0.11439399369E+04  0.00000000000E+00 0. -1.
         21   -1    0    0  502  503 -0.00000000000E+00 -0.00000000000E+00 -0.31346124338E+03  0.31346124338E+03  0.00000000000E+00 0. -1.
    9000007    2    1    2  501    0 -0.99671230126E+02  0.23143487470E+03  0.86194087420E+03  0.98360130255E+03  0.40128916808E+03 0.  0.
    9000005    1    3    3    0    0 -0.98170815790E+02 -0.45577569782E+02  0.57371416625E+03  0.58383539503E+03  0.99999687468E+00 0.  0.
          4    1    3    3  501    0 -0.15004143356E+01  0.27701244448E+03  0.28822670795E+03  0.39976590752E+03  0.00000000000E+00 0.  1.
   -9000007    1    1    2    0  503  0.99671230126E+02 -0.23143487470E+03 -0.31462180657E+02  0.47379987775E+03  0.40000000000E+03 0. -1.
<mgrwt>
<rscale>  2 0.47357233E+03</rscale>
<asrwt>0</asrwt>
<pdfrwt beam="1">  1       21 0.17599076E+00 0.47384539E+03</pdfrwt>
<pdfrwt beam="2">  1       21 0.48224807E-01 0.47384539E+03</pdfrwt>
<totfact> 0.65626273E+02</totfact>
</mgrwt>
</event>
<event>
 6    1  0.8739326E-004  0.4337675E+03  0.7818608E-02  0.1032716E+00
         21   -1    0    0  501  502  0.00000000000E+00  0.00000000000E+00  0.42126596069E+03  0.42126596069E+03  0.00000000000E+00 0. -1.
         21   -1    0    0  502  503 -0.00000000000E+00 -0.00000000000E+00 -0.46561441072E+03  0.46561441072E+03  0.00000000000E+00 0. -1.
    9000007    2    1    2  501    0  0.67725555551E+02  0.15351711322E+03  0.68574884303E+02  0.43865505490E+03  0.39945148330E+03 0.  0.
    9000005    1    3    3    0    0  0.23139620165E+03  0.52142206706E+02  0.99683210128E+01  0.23740972869E+03  0.99999687468E+00 0.  0.
          4    1    3    3  501    0 -0.16367064610E+03  0.10137490651E+03  0.58606563291E+02  0.20124532622E+03  0.00000000000E+00 0.  1.
   -9000007    1    1    2    0  503 -0.67725555551E+02 -0.15351711322E+03 -0.11292333433E+03  0.44822531651E+03  0.40000000000E+03 0. -1.
<mgrwt>
<rscale>  2 0.43364102E+03</rscale>
<asrwt>0</asrwt>
<pdfrwt beam="1">  1       21 0.64810148E-01 0.43376751E+03</pdfrwt>
<pdfrwt beam="2">  1       21 0.71632986E-01 0.43376751E+03</pdfrwt>
<totfact> 0.33912431E+03</totfact>
</mgrwt>
</event>
<event>
 6    1  0.8739326E-004  0.5417243E+03  0.7818608E-02  0.1003429E+00
         21   -1    0    0  501  502  0.00000000000E+00  0.00000000000E+00  0.12929597588E+04  0.12929597588E+04  0.00000000000E+00 0.  1.
         21   -1    0    0  502  503 -0.00000000000E+00 -0.00000000000E+00 -0.26379206083E+03  0.26379206083E+03  0.00000000000E+00 0. -1.
    9000007    2    1    2  501    0  0.28604195558E+03 -0.22725574261E+03  0.80541585450E+03  0.97063744481E+03  0.39997147108E+03 0.  0.
    9000005    1    3    3    0    0  0.90838775426E+02 -0.14595134044E+03  0.39941816871E+02  0.17649313195E+03  0.99999687468E+00 0.  0.
          4    1    3    3  501    0  0.19520318016E+03 -0.81304402168E+02  0.76547403763E+03  0.79414431286E+03  0.00000000000E+00 0.  1.
   -9000007    1    1    2    0  503 -0.28604195558E+03  0.22725574261E+03  0.22375184346E+03  0.58611437480E+03  0.40000000000E+03 0. -1.
<mgrwt>
<rscale>  2 0.54171899E+03</rscale>
<asrwt>0</asrwt>
<pdfrwt beam="1">  1       21 0.19891688E+00 0.54172426E+03</pdfrwt>
<pdfrwt beam="2">  1       21 0.40583394E-01 0.54172426E+03</pdfrwt>
<totfact> 0.63523364E+02</totfact>
</mgrwt>
</event>
<event>
 6    1  0.8739326E-004  0.4209864E+03  0.7818608E-02  0.1036866E+00
         21   -1    0    0  501  502  0.00000000000E+00  0.00000000000E+00  0.88504384148E+03  0.88504384148E+03  0.00000000000E+00 0. -1.
         21   -1    0    0  502  503 -0.00000000000E+00 -0.00000000000E+00 -0.20178424488E+03  0.20178424488E+03  0.00000000000E+00 0. -1.
    9000007    2    1    2  501    0  0.11281634944E+03  0.67097269657E+02  0.39826278680E+03  0.57844559857E+03  0.39844258164E+03 0.  0.
    9000005    1    3    3    0    0 -0.13586184015E+03  0.44552456249E+00  0.24128286089E+03  0.27690622429E+03  0.99999687468E+00 0.  0.
          4    1    3    3  501    0  0.24867818959E+03  0.66651745095E+02  0.15697992591E+03  0.30153937428E+03  0.00000000000E+00 0.  1.
   -9000007    1    1    2    0  503 -0.11281634944E+03 -0.67097269657E+02  0.28499680980E+03  0.50838248779E+03  0.40000000000E+03 0. -1.
<mgrwt>
<rscale>  2 0.42061606E+03</rscale>
<asrwt>0</asrwt>
<pdfrwt beam="1">  1       21 0.13616059E+00 0.42098643E+03</pdfrwt>
<pdfrwt beam="2">  1       21 0.31043731E-01 0.42098643E+03</pdfrwt>
<totfact> 0.33576506E+03</totfact>
</mgrwt>
</event>
<event>
 6    1  0.8739326E-004  0.4027542E+03  0.7818608E-02  0.1043017E+00
         21   -1    0    0  501  502  0.00000000000E+00  0.00000000000E+00  0.44104082528E+03  0.44104082528E+03  0.00000000000E+00 0. -1.
         21   -1    0    0  502  503 -0.00000000000E+00 -0.00000000000E+00 -0.38085177531E+03  0.38085177531E+03  0.00000000000E+00 0. -1.
    9000007    2    1    2  501    0  0.36827729395E+02  0.29234394439E+02 -0.51659923868E+02  0.40389604029E+03  0.39780941688E+03 0.  0.
    9000005    1    3    3    0    0 -0.12170586200E+03  0.13258212019E+03 -0.10358541408E+03  0.20765662389E+03  0.99999687468E+00 0.  0.
          4    1    3    3  501    0  0.15853359139E+03 -0.10334772575E+03  0.51925490216E+02  0.19623941641E+03  0.00000000000E+00 0.  1.
   -9000007    1    1    2    0  503 -0.36827729395E+02 -0.29234394439E+02  0.11184897384E+03  0.41799656030E+03  0.40000000000E+03 0. -1.
<mgrwt>
<rscale>  2 0.40220920E+03</rscale>
<asrwt>0</asrwt>
<pdfrwt beam="1">  1       21 0.67852435E-01 0.40275418E+03</pdfrwt>
<pdfrwt beam="2">  1       21 0.58592581E-01 0.40275418E+03</pdfrwt>
<totfact> 0.48356611E+03</totfact>
</mgrwt>
</event>
<event>
 6    1  0.8739326E-004  0.4137730E+03  0.7818608E-02  0.1039151E+00
         21   -1    0    0  501  502  0.00000000000E+00  0.00000000000E+00  0.34189360725E+03  0.34189360725E+03  0.00000000000E+00 0.  1.
         21   -1    0    0  502  503 -0.00000000000E+00 -0.00000000000E+00 -0.88208219679E+03  0.88208219679E+03  0.00000000000E+00 0. -1.
    9000007    2    1    2  501    0 -0.45562676173E+02 -0.93544054850E+02  0.13249058005E+03  0.43446727791E+03  0.40047673355E+03 0.  0.
    9000005    1    3    3    0    0  0.13980568642E+03  0.22675597036E+02 -0.49339722599E+02  0.14998406874E+03  0.99999687468E+00 0.  0.
          4    1    3    3  501    0 -0.18536836259E+03 -0.11621965189E+03  0.18183030265E+03  0.28448320916E+03  0.00000000000E+00 0.  1.
   -9000007    1    1    2    0  503  0.45562676173E+02  0.93544054850E+02 -0.67267916958E+03  0.78950852614E+03  0.40000000000E+03 0. -1.
<mgrwt>
<rscale>  2 0.41365756E+03</rscale>
<asrwt>0</asrwt>
<pdfrwt beam="1">  1       21 0.52599017E-01 0.41377296E+03</pdfrwt>
<pdfrwt beam="2">  1       21 0.13570495E+00 0.41377296E+03</pdfrwt>
<totfact> 0.11455825E+03</totfact>
</mgrwt>
</event>
<event>
 6    1  0.8739326E-004  0.4021696E+03  0.7818608E-02  0.1043488E+00
         21   -1    0    0  501  502  0.00000000000E+00  0.00000000000E+00  0.16040044326E+03  0.16040044326E+03  0.00000000000E+00 0. -1.
         21   -1    0    0  502  503 -0.00000000000E+00 -0.00000000000E+00 -0.16152262741E+04  0.16152262741E+04  0.00000000000E+00 0. -1.
    9000007    2    1    2  501    0  0.41001296164E+02 -0.77001713657E+01 -0.17437755726E+03  0.43350594029E+03  0.39468907872E+03 0.  0.
    9000005    1    3    3    0    0 -0.10405984816E+03  0.23747445756E+02  0.83797841017E+02  0.13570361577E+03  0.99999687468E+00 0.  0.
          4    1    3    3  501    0  0.14506114432E+03 -0.31447617122E+02 -0.25817539828E+03  0.29780232452E+03  0.00000000000E+00 0.  1.
   -9000007    1    1    2    0  503 -0.41001296164E+02  0.77001713657E+01 -0.12804482736E+04  0.13421207771E+04  0.40000000000E+03 0. -1.
<mgrwt>
<rscale>  2 0.40084259E+03</rscale>
<asrwt>0</asrwt>
<pdfrwt beam="1">  1       21 0.24676990E-01 0.40216961E+03</pdfrwt>
<pdfrwt beam="2">  1       21 0.24849636E+00 0.40216961E+03</pdfrwt>
<totfact> 0.88580041E+02</totfact>
</mgrwt>
</event>
<event>
 6    1  0.8739326E-004  0.7754324E+03  0.7818608E-02  0.9596376E-01
         21   -1    0    0  501  502  0.00000000000E+00  0.00000000000E+00  0.12568816853E+04  0.12568816853E+04  0.00000000000E+00 0.  1.
         21   -1    0    0  502  503 -0.00000000000E+00 -0.00000000000E+00 -0.11799196513E+04  0.11799196513E+04  0.00000000000E+00 0.  1.
    9000007    2    1    2  501    0  0.53617430262E+03  0.39218937366E+03  0.97805954435E+03  0.12479901191E+04  0.39947900768E+03 0.  0.
    9000005    1    3    3    0    0  0.42608987354E+03  0.22022600071E+03  0.36764224704E+03  0.60432929230E+03  0.99999687468E+00 0.  0.
          4    1    3    3  501    0  0.11008442908E+03  0.17196337295E+03  0.61041729731E+03  0.64366082685E+03  0.00000000000E+00 0.  1.
   -9000007    1    1    2    0  503 -0.53617430262E+03 -0.39218937366E+03 -0.90109751032E+03  0.11888112174E+04  0.40000000000E+03 0.  1.
<mgrwt>
<rscale>  2 0.77536522E+03</rscale>
<asrwt>0</asrwt>
<pdfrwt beam="1">  1       21 0.19336641E+00 0.77543239E+03</pdfrwt>
<pdfrwt beam="2">  1       21 0.18152610E+00 0.77543239E+03</pdfrwt>
<totfact> 0.17018497E+01</totfact>
</mgrwt>
</event>
<event>
 6    1  0.8739326E-004  0.4825543E+03  0.7818608E-02  0.1018441E+00
         21   -1    0    0  501  502  0.00000000000E+00  0.00000000000E+00  0.37341426438E+03  0.37341426438E+03  0.00000000000E+00 0. -1.
         21   -1    0    0  502  503 -0.00000000000E+00 -0.00000000000E+00 -0.62572107852E+03  0.62572107852E+03  0.00000000000E+00 0.  1.
    9000007    2    1    2  501    0  0.74397814548E+02  0.25932071582E+03 -0.15598674183E+03  0.50713958601E+03  0.40009552311E+03 0.  0.
    9000005    1    3    3    0    0  0.70674367498E+02  0.11773238801E+03  0.12930878973E+03  0.18862010630E+03  0.99999687468E+00 0.  0.
          4    1    3    3  501    0  0.37234470500E+01  0.14158832781E+03 -0.28529553155E+03  0.31851947971E+03  0.00000000000E+00 0.  1.
   -9000007    1    1    2    0  503 -0.74397814548E+02 -0.25932071582E+03 -0.96320072316E+02  0.49199575688E+03  0.40000000000E+03 0. -1.
<mgrwt>
<rscale>  2 0.48253454E+03</rscale>
<asrwt>0</asrwt>
<pdfrwt beam="1">  1       21 0.57448348E-01 0.48255435E+03</pdfrwt>
<pdfrwt beam="2">  1       21 0.96264781E-01 0.48255435E+03</pdfrwt>
<totfact> 0.21819970E+03</totfact>
</mgrwt>
</event>
<event>
 6    1  0.8739326E-004  0.5631008E+03  0.7818608E-02  0.9985218E-01
         21   -1    0    0  501  502  0.00000000000E+00  0.00000000000E+00  0.37015486942E+03  0.37015486942E+03  0.00000000000E+00 0. -1.
         21   -1    0    0  502  503 -0.00000000000E+00 -0.00000000000E+00 -0.12839726900E+04  0.12839726900E+04  0.00000000000E+00 0. -1.
    9000007    2    1    2  501    0 -0.99997900895E+02 -0.38310749209E+03 -0.93436740804E+03  0.10909284683E+04  0.40038923437E+03 0.  0.
    9000005    1    3    3    0    0  0.91277991705E+02 -0.32333883560E+03 -0.73549936989E+03  0.80860373329E+03  0.99999687468E+00 0.  0.
          4    1    3    3  501    0 -0.19127589260E+03 -0.59768656489E+02 -0.19886803815E+03  0.28232473499E+03  0.00000000000E+00 0.  1.
   -9000007    1    1    2    0  503  0.99997900895E+02  0.38310749209E+03  0.20549587494E+02  0.56319909111E+03  0.40000000000E+03 0. -1.
<mgrwt>
<rscale>  2 0.56303158E+03</rscale>
<asrwt>0</asrwt>
<pdfrwt beam="1">  1       21 0.56946904E-01 0.56310076E+03</pdfrwt>
<pdfrwt beam="2">  1       21 0.19753426E+00 0.56310076E+03</pdfrwt>
<totfact> 0.31327244E+02</totfact>
</mgrwt>
</event>
<event>
 6    1  0.8739326E-004  0.6618717E+03  0.7818608E-02  0.9784814E-01
         21   -1    0    0  501  502  0.00000000000E+00  0.00000000000E+00  0.25420909518E+04  0.25420909518E+04  0.00000000000E+00 0. -1.
         21   -1    0    0  502  503 -0.00000000000E+00 -0.00000000000E+00 -0.26990930093E+03  0.26990930093E+03  0.00000000000E+00 0.  1.
    9000007    2    1    2  501    0 -0.22605601652E+03 -0.47641671349E+03  0.19815598297E+04  0.20891342552E+04  0.39978540502E+03 0.  0.
    9000005    1    3    3    0    0 -0.55284356825E+02 -0.44890900609E+03  0.16959663588E+04  0.17552431587E+04  0.99999687468E+00 0.  0.
          4    1    3    3  501    0 -0.17077165970E+03 -0.27507707400E+02  0.28559347085E+03  0.33389109649E+03  0.00000000000E+00 0.  1.
   -9000007    1    1    2    0  503  0.22605601652E+03  0.47641671349E+03  0.29062182122E+03  0.72286599759E+03  0.40000000000E+03 0.  1.
<mgrwt>
<rscale>  2 0.66183933E+03</rscale>
<asrwt>0</asrwt>
<pdfrwt beam="1">  1       21 0.39109090E+00 0.66187175E+03</pdfrwt>
<pdfrwt beam="2">  1       21 0.41524510E-01 0.66187175E+03</pdfrwt>
<totfact> 0.36109034E+01</totfact>
</mgrwt>
</event>
<event>
 6    1  0.8739326E-004  0.5047379E+03  0.7818608E-02  0.1012636E+00
         21   -1    0    0  501  502  0.00000000000E+00  0.00000000000E+00  0.26384607469E+03  0.26384607469E+03  0.00000000000E+00 0. -1.
         21   -1    0    0  502  503 -0.00000000000E+00 -0.00000000000E+00 -0.22336899966E+04  0.22336899966E+04  0.00000000000E+00 0. -1.
    9000007    2    1    2  501    0 -0.22922243914E+03  0.20217225990E+03 -0.43621462139E+02  0.50661931919E+03  0.40167617970E+03 0.  0.
    9000005    1    3    3    0    0 -0.28391702366E+03  0.19485150787E+03  0.95170585936E+02  0.35725960710E+03  0.99999687468E+00 0.  0.
          4    1    3    3  501    0  0.54694584522E+02  0.73207520247E+01 -0.13879204807E+03  0.14935971209E+03  0.00000000000E+00 0.  1.
   -9000007    1    1    2    0  503  0.22922243914E+03 -0.20217225990E+03 -0.19262224598E+04  0.19909167521E+04  0.40000000000E+03 0. -1.
<mgrwt>
<rscale>  2 0.50440430E+03</rscale>
<asrwt>0</asrwt>
<pdfrwt beam="1">  1       21 0.40591703E-01 0.50473786E+03</pdfrwt>
<pdfrwt beam="2">  1       21 0.34364462E+00 0.50473786E+03</pdfrwt>
<totfact> 0.81797226E+01</totfact>
</mgrwt>
</event>
<event>
 6    1  0.8739326E-004  0.4560965E+03  0.7818608E-02  0.1025960E+00
         21   -1    0    0  501  502  0.00000000000E+00  0.00000000000E+00  0.84431750287E+03  0.84431750287E+03  0.00000000000E+00 0. -1.
         21   -1    0    0  502  503 -0.00000000000E+00 -0.00000000000E+00 -0.24628575743E+03  0.24628575743E+03  0.00000000000E+00 0. -1.
    9000007    2    1    2  501    0  0.19481162341E+03  0.10036136264E+03  0.28305471397E+03  0.53631587809E+03  0.39936296557E+03 0.  0.
    9000005    1    3    3    0    0 -0.23367059299E+02  0.17589232752E+03  0.24470850199E+03  0.30227037778E+03  0.99999687468E+00 0.  0.
          4    1    3    3  501    0  0.21817868271E+03 -0.75530964880E+02  0.38346211978E+02  0.23404550031E+03  0.00000000000E+00 0.  1.
   -9000007    1    1    2    0  503 -0.19481162341E+03 -0.10036136264E+03  0.31497703146E+03  0.55428738221E+03  0.40000000000E+03 0. -1.
<mgrwt>
<rscale>  2 0.45595674E+03</rscale>
<asrwt>0</asrwt>
<pdfrwt beam="1">  1       21 0.12989500E+00 0.45609645E+03</pdfrwt>
<pdfrwt beam="2">  1       21 0.37890117E-01 0.45609645E+03</pdfrwt>
<totfact> 0.25055991E+03</totfact>
</mgrwt>
</event>
<event>
 6    1  0.8739326E-004  0.4010077E+03  0.7818608E-02  0.1043481E+00
         21   -1    0    0  501  502  0.00000000000E+00  0.00000000000E+00  0.11492164328E+04  0.11492164328E+04  0.00000000000E+00 0.  1.
         21   -1    0    0  502  503 -0.00000000000E+00 -0.00000000000E+00 -0.14818388951E+03  0.14818388951E+03  0.00000000000E+00 0.  1.
    9000007    2    1    2  501    0  0.11856488289E+02  0.25818914310E+02  0.65513844925E+03  0.76782509919E+03  0.39942684264E+03 0.  0.
    9000005    1    3    3    0    0 -0.11946852785E+03 -0.12520114667E+03  0.44579880228E+03  0.47821086184E+03  0.99999687468E+00 0.  0.
          4    1    3    3  501    0  0.13132501614E+03  0.15102006098E+03  0.20933964697E+03  0.28961423735E+03  0.00000000000E+00 0.  1.
   -9000007    1    1    2    0  503 -0.11856488289E+02 -0.25818914310E+02  0.34589409403E+03  0.52957522311E+03  0.40000000000E+03 0.  1.
<mgrwt>
<rscale>  2 0.40086472E+03</rscale>
<asrwt>0</asrwt>
<pdfrwt beam="1">  1       21 0.17680252E+00 0.40100772E+03</pdfrwt>
<pdfrwt beam="2">  1       21 0.22797522E-01 0.40100772E+03</pdfrwt>
<totfact> 0.30216608E+03</totfact>
</mgrwt>
</event>
<event>
 6    1  0.8739326E-004  0.4000977E+03  0.7818608E-02  0.1043788E+00
         21   -1    0    0  501  502  0.00000000000E+00  0.00000000000E+00  0.23252898662E+03  0.23252898662E+03  0.00000000000E+00 0. -1.
         21   -1    0    0  502  503 -0.00000000000E+00 -0.00000000000E+00 -0.10754116194E+04  0.10754116194E+04  0.00000000000E+00 0. -1.
    9000007    2    1    2  501    0 -0.87510329535E+01  0.12641636888E+01 -0.28551152155E+02  0.40062922671E+03  0.39951274112E+03 0.  0.
    9000005    1    3    3    0    0 -0.19863676143E+03  0.37209467955E+02  0.14570231764E+02  0.20261885190E+03  0.99999687468E+00 0.  0.
          4    1    3    3  501    0  0.18988572848E+03 -0.35945304266E+02 -0.43121383919E+02  0.19801037480E+03  0.00000000000E+00 0.  1.
   -9000007    1    1    2    0  503  0.87510329535E+01 -0.12641636888E+01 -0.81433148059E+03  0.90731137928E+03  0.40000000000E+03 0. -1.
<mgrwt>
<rscale>  2 0.39997587E+03</rscale>
<asrwt>0</asrwt>
<pdfrwt beam="1">  1       21 0.35773690E-01 0.40009771E+03</pdfrwt>
<pdfrwt beam="2">  1       21 0.16544794E+00 0.40009771E+03</pdfrwt>
<totfact> 0.15019410E+03</totfact>
</mgrwt>
</event>
<event>
 6    1  0.8739326E-004  0.4210456E+03  0.7818608E-02  0.1036745E+00
         21   -1    0    0  501  502  0.00000000000E+00  0.00000000000E+00  0.60235130990E+03  0.60235130990E+03  0.00000000000E+00 0. -1.
         21   -1    0    0  502  503 -0.00000000000E+00 -0.00000000000E+00 -0.31669839641E+03  0.31669839641E+03  0.00000000000E+00 0. -1.
    9000007    2    1    2  501    0 -0.13081785262E+03  0.12886938607E+02  0.20176107275E+02  0.42129744023E+03  0.39975626836E+03 0.  0.
    9000005    1    3    3    0    0 -0.24722055251E+03  0.10850331319E+03  0.19017356199E+02  0.27065407883E+03  0.99999687468E+00 0.  0.
          4    1    3    3  501    0  0.11640269989E+03 -0.95616374581E+02  0.11587510755E+01  0.15064336140E+03  0.00000000000E+00 0.  1.
   -9000007    1    1    2    0  503  0.13081785262E+03 -0.12886938607E+02  0.26547680621E+03  0.49775226608E+03  0.40000000000E+03 0. -1.
<mgrwt>
<rscale>  2 0.42098769E+03</rscale>
<asrwt>0</asrwt>
<pdfrwt beam="1">  1       21 0.92669432E-01 0.42104558E+03</pdfrwt>
<pdfrwt beam="2">  1       21 0.48722830E-01 0.42104558E+03</pdfrwt>
<totfact> 0.34800275E+03</totfact>
</mgrwt>
</event>
<event>
 6    1  0.8739326E-004  0.4884049E+03  0.7818608E-02  0.1016925E+00
         21   -1    0    0  501  502  0.00000000000E+00  0.00000000000E+00  0.24838161567E+03  0.24838161567E+03  0.00000000000E+00 0.  1.
         21   -1    0    0  502  503 -0.00000000000E+00 -0.00000000000E+00 -0.10755417757E+04  0.10755417757E+04  0.00000000000E+00 0.  1.
    9000007    2    1    2  501    0 -0.27547523289E+03 -0.39710908975E+02 -0.63263724685E+03  0.79923041070E+03  0.40134250094E+03 0.  0.
    9000005    1    3    3    0    0 -0.18666177314E+03 -0.17771817461E+03 -0.17103656631E+03  0.30932325188E+03  0.99999687468E+00 0.  0.
          4    1    3    3  501    0 -0.88813459750E+02  0.13800726564E+03 -0.46160068054E+03  0.48990715883E+03  0.00000000000E+00 0.  1.
   -9000007    1    1    2    0  503  0.27547523289E+03  0.39710908975E+02 -0.19452291321E+03  0.52469298070E+03  0.40000000000E+03 0.  1.
<mgrwt>
<rscale>  2 0.48812904E+03</rscale>
<asrwt>0</asrwt>
<pdfrwt beam="1">  1       21 0.38212557E-01 0.48840492E+03</pdfrwt>
<pdfrwt beam="2">  1       21 0.16546796E+00 0.48840492E+03</pdfrwt>
<totfact> 0.12637134E+03</totfact>
</mgrwt>
</event>
<event>
 6    1  0.8739326E-004  0.6645510E+03  0.7818608E-02  0.9780171E-01
         21   -1    0    0  501  502  0.00000000000E+00  0.00000000000E+00  0.43855240333E+03  0.43855240333E+03  0.00000000000E+00 0. -1.
         21   -1    0    0  502  503 -0.00000000000E+00 -0.00000000000E+00 -0.10254711542E+04  0.10254711542E+04  0.00000000000E+00 0.  1.
    9000007    2    1    2  501    0 -0.52585434308E+03 -0.71450862325E+02 -0.39429597247E+03  0.77211926457E+03  0.39883684502E+03 0.  0.
    9000005    1    3    3    0    0 -0.38223532933E+03 -0.22312129979E+03 -0.19580113344E+03  0.48396905403E+03  0.99999687468E+00 0.  0.
          4    1    3    3  501    0 -0.14361901375E+03  0.15167043746E+03 -0.19849483903E+03  0.28815021054E+03  0.00000000000E+00 0.  1.
   -9000007    1    1    2    0  503  0.52585434308E+03  0.71450862325E+02 -0.19262277842E+03  0.69190429297E+03  0.40000000000E+03 0. -1.
<mgrwt>
<rscale>  2 0.66437605E+03</rscale>
<asrwt>0</asrwt>
<pdfrwt beam="1">  1       21 0.67469602E-01 0.66455099E+03</pdfrwt>
<pdfrwt beam="2">  1       21 0.15776479E+00 0.66455099E+03</pdfrwt>
<totfact> 0.40124766E+02</totfact>
</mgrwt>
</event>
<event>
 6    1  0.8739326E-004  0.5132283E+03  0.7818608E-02  0.1010404E+00
         21   -1    0    0  501  502  0.00000000000E+00  0.00000000000E+00  0.80047438800E+03  0.80047438800E+03  0.00000000000E+00 0. -1.
         21   -1    0    0  502  503 -0.00000000000E+00 -0.00000000000E+00 -0.50115272907E+03  0.50115272907E+03  0.00000000000E+00 0.  1.
    9000007    2    1    2  501    0 -0.32152571278E+03 -0.49508900578E+01  0.53124087698E+03  0.73843104199E+03  0.39957507318E+03 0.  0.
    9000005    1    3    3    0    0 -0.35509816014E+03 -0.77686898831E+02  0.23809105800E+03  0.43453228818E+03  0.99999687468E+00 0.  0.
          4    1    3    3  501    0  0.33572447358E+02  0.72736008773E+02  0.29314981898E+03  0.30389875380E+03  0.00000000000E+00 0.  1.
   -9000007    1    1    2    0  503  0.32152571278E+03  0.49508900578E+01 -0.23191921804E+03  0.56319607508E+03  0.40000000000E+03 0.  1.
<mgrwt>
<rscale>  2 0.51314551E+03</rscale>
<asrwt>0</asrwt>
<pdfrwt beam="1">  1       21 0.12314991E+00 0.51322831E+03</pdfrwt>
<pdfrwt beam="2">  1       21 0.77100420E-01 0.51322831E+03</pdfrwt>
<totfact> 0.60556303E+02</totfact>
</mgrwt>
</event>
<event>
 6    1  0.8739326E-004  0.5353045E+03  0.7818608E-02  0.1005037E+00
         21   -1    0    0  501  502  0.00000000000E+00  0.00000000000E+00  0.95185965421E+03  0.95185965421E+03  0.00000000000E+00 0.  1.
         21   -1    0    0  502  503 -0.00000000000E+00 -0.00000000000E+00 -0.55168004179E+03  0.55168004179E+03  0.00000000000E+00 0.  1.
    9000007    2    1    2  501    0 -0.13624131196E+03  0.32861717009E+03  0.70745237646E+03  0.88631405567E+03  0.39813666090E+03 0.  0.
    9000005    1    3    3    0    0 -0.78577269115E+02 -0.24106592194E+02 -0.11910876146E+02  0.83056510721E+02  0.99999687468E+00 0.  0.
          4    1    3    3  501    0 -0.57664042845E+02  0.35272376229E+03  0.71936325260E+03  0.80325754495E+03  0.00000000000E+00 0.  1.
   -9000007    1    1    2    0  503  0.13624131196E+03 -0.32861717009E+03 -0.30727276404E+03  0.61722564033E+03  0.40000000000E+03 0.  1.
<mgrwt>
<rscale>  2 0.53495646E+03</rscale>
<asrwt>0</asrwt>
<pdfrwt beam="1">  1       21 0.14643995E+00 0.53530453E+03</pdfrwt>
<pdfrwt beam="2">  1       21 0.84873853E-01 0.53530453E+03</pdfrwt>
<totfact> 0.30416020E+02</totfact>
</mgrwt>
</event>
<event>
 6    1  0.8739326E-004  0.5436295E+03  0.7818608E-02  0.1003340E+00
         21   -1    0    0  501  502  0.00000000000E+00  0.00000000000E+00  0.12129109700E+04  0.12129109700E+04  0.00000000000E+00 0. -1.
         21   -1    0    0  502  503 -0.00000000000E+00 -0.00000000000E+00 -0.24940306476E+03  0.24940306476E+03  0.00000000000E+00 0. -1.
    9000007    2    1    2  501    0  0.34750167719E+03 -0.90394607648E+02  0.34958602999E+03  0.64633078148E+03  0.40817212787E+03 0.  0.
    9000005    1    3    3    0    0  0.30075153172E+03 -0.20824569979E+03  0.12165509324E+03  0.38551098171E+03  0.99999687468E+00 0.  0.
          4    1    3    3  501    0  0.46750145466E+02  0.11785109214E+03  0.22793093675E+03  0.26081979976E+03  0.00000000000E+00 0.  1.
   -9000007    1    1    2    0  503 -0.34750167719E+03  0.90394607648E+02  0.61392187525E+03  0.81598325329E+03  0.40000000000E+03 0. -1.
<mgrwt>
<rscale>  2 0.54209588E+03</rscale>
<asrwt>0</asrwt>
<pdfrwt beam="1">  1       21 0.18660169E+00 0.54362955E+03</pdfrwt>
<pdfrwt beam="2">  1       21 0.38369703E-01 0.54362955E+03</pdfrwt>
<totfact> 0.86537725E+02</totfact>
</mgrwt>
</event>
<event>
 6    1  0.8739326E-004  0.4486521E+03  0.7818608E-02  0.1028175E+00
         21   -1    0    0  501  502  0.00000000000E+00  0.00000000000E+00  0.53016926606E+03  0.53016926606E+03  0.00000000000E+00 0. -1.
         21   -1    0    0  502  503 -0.00000000000E+00 -0.00000000000E+00 -0.41511294592E+03  0.41511294592E+03  0.00000000000E+00 0. -1.
    9000007    2    1    2  501    0  0.78041178791E+02  0.18761193523E+03 -0.81723882747E+02  0.45537292233E+03  0.39924559053E+03 0.  0.
    9000005    1    3    3    0    0 -0.10884781581E+02  0.28224863705E+03  0.30022206943E+02  0.28405123567E+03  0.99999687468E+00 0.  0.
          4    1    3    3  501    0  0.88925960373E+02 -0.94636701819E+02 -0.11174608969E+03  0.17132168666E+03  0.00000000000E+00 0.  1.
   -9000007    1    1    2    0  503 -0.78041178791E+02 -0.18761193523E+03  0.19678020289E+03  0.48990928964E+03  0.40000000000E+03 0. -1.
<mgrwt>
<rscale>  2 0.44848384E+03</rscale>
<asrwt>0</asrwt>
<pdfrwt beam="1">  1       21 0.81564502E-01 0.44865205E+03</pdfrwt>
<pdfrwt beam="2">  1       21 0.63863530E-01 0.44865205E+03</pdfrwt>
<totfact> 0.25890153E+03</totfact>
</mgrwt>
</event>
<event>
 6    1  0.8739326E-004  0.4032581E+03  0.7818608E-02  0.1042725E+00
         21   -1    0    0  501  502  0.00000000000E+00  0.00000000000E+00  0.51296639594E+03  0.51296639594E+03  0.00000000000E+00 0. -1.
         21   -1    0    0  502  503 -0.00000000000E+00 -0.00000000000E+00 -0.51560181177E+03  0.51560181177E+03  0.00000000000E+00 0. -1.
    9000007    2    1    2  501    0 -0.28241219254E+02  0.42655584466E+02  0.31835214273E+03  0.51315567575E+03  0.39920370167E+03 0.  0.
    9000005    1    3    3    0    0 -0.72600777746E+02  0.16133741977E+03  0.34126445721E+03  0.38439961719E+03  0.99999687468E+00 0.  0.
          4    1    3    3  501    0  0.44359558492E+02 -0.11868183530E+03 -0.22912314483E+02  0.12875605856E+03  0.00000000000E+00 0.  1.
   -9000007    1    1    2    0  503  0.28241219254E+02 -0.42655584466E+02 -0.32098755856E+03  0.51541253196E+03  0.40000000000E+03 0. -1.
<mgrwt>
<rscale>  2 0.40306045E+03</rscale>
<asrwt>0</asrwt>
<pdfrwt beam="1">  1       21 0.78917907E-01 0.40325806E+03</pdfrwt>
<pdfrwt beam="2">  1       21 0.79323356E-01 0.40325806E+03</pdfrwt>
<totfact> 0.17438737E+03</totfact>
</mgrwt>
</event>
<event>
 6    1  0.8739326E-004  0.5571233E+03  0.7818608E-02  0.9998602E-01
         21   -1    0    0  501  502  0.00000000000E+00  0.00000000000E+00  0.49127070236E+03  0.49127070236E+03  0.00000000000E+00 0. -1.
         21   -1    0    0  502  503 -0.00000000000E+00 -0.00000000000E+00 -0.64323598198E+03  0.64323598198E+03  0.00000000000E+00 0. -1.
    9000007    2    1    2  501    0  0.33243413792E+02 -0.38636933904E+03 -0.24051238416E+00  0.55709279837E+03  0.39995741953E+03 0.  0.
    9000005    1    3    3    0    0  0.21087287160E+03 -0.25560832847E+03 -0.37201241108E+02  0.33344852360E+03  0.99999687468E+00 0.  0.
          4    1    3    3  501    0 -0.17762945781E+03 -0.13076101057E+03  0.36960728724E+02  0.22364427477E+03  0.00000000000E+00 0.  1.
   -9000007    1    1    2    0  503 -0.33243413792E+02  0.38636933904E+03 -0.15172476724E+03  0.57741388596E+03  0.40000000000E+03 0. -1.
<mgrwt>
<rscale>  2 0.55711567E+03</rscale>
<asrwt>0</asrwt>
<pdfrwt beam="1">  1       21 0.75580109E-01 0.55712332E+03</pdfrwt>
<pdfrwt beam="2">  1       21 0.98959381E-01 0.55712332E+03</pdfrwt>
<totfact> 0.10781619E+03</totfact>
</mgrwt>
</event>
<event>
 6    1  0.8739326E-004  0.4370941E+03  0.7818608E-02  0.1031666E+00
         21   -1    0    0  501  502  0.00000000000E+00  0.00000000000E+00  0.54199239400E+03  0.54199239400E+03  0.00000000000E+00 0.  1.
         21   -1    0    0  502  503 -0.00000000000E+00 -0.00000000000E+00 -0.75959568014E+03  0.75959568014E+03  0.00000000000E+00 0.  1.
    9000007    2    1    2  501    0 -0.11800161233E+03  0.13086983758E+03  0.36779441529E+03  0.57101175113E+03  0.39966284930E+03 0.  0.
    9000005    1    3    3    0    0 -0.24296105909E+02 -0.10559050861E+03  0.28278155220E+03  0.30283008855E+03  0.99999687468E+00 0.  0.
          4    1    3    3  501    0 -0.93705506418E+02  0.23646034620E+03  0.85012863088E+02  0.26818166258E+03  0.00000000000E+00 0.  1.
   -9000007    1    1    2    0  503  0.11800161233E+03 -0.13086983758E+03 -0.58539770143E+03  0.73057632301E+03  0.40000000000E+03 0.  1.
<mgrwt>
<rscale>  2 0.43701700E+03</rscale>
<asrwt>0</asrwt>
<pdfrwt beam="1">  1       21 0.83383445E-01 0.43709415E+03</pdfrwt>
<pdfrwt beam="2">  1       21 0.11686087E+00 0.43709415E+03</pdfrwt>
<totfact> 0.59601599E+02</totfact>
</mgrwt>
</event>
<event>
 6    1  0.8739326E-004  0.4927476E+03  0.7818608E-02  0.1015756E+00
         21   -1    0    0  501  502  0.00000000000E+00  0.00000000000E+00  0.46056687667E+03  0.46056687667E+03  0.00000000000E+00 0. -1.
         21   -1    0    0  502  503 -0.00000000000E+00 -0.00000000000E+00 -0.60976225421E+03  0.60976225421E+03  0.00000000000E+00 0.  1.
    9000007    2    1    2  501    0  0.17609532647E+03 -0.22757552086E+03  0.12368463918E+03  0.50706748189E+03  0.39877231539E+03 0.  0.
    9000005    1    3    3    0    0 -0.72473243876E+02 -0.88257214602E+02  0.18328332835E+03  0.21595250740E+03  0.99999687468E+00 0.  0.
          4    1    3    3  501    0  0.24856857035E+03 -0.13931830626E+03 -0.59598689169E+02  0.29111497450E+03  0.00000000000E+00 0.  1.
   -9000007    1    1    2    0  503 -0.17609532647E+03  0.22757552086E+03 -0.27288001671E+03  0.56326164899E+03  0.40000000000E+03 0.  1.
<mgrwt>
<rscale>  2 0.49249838E+03</rscale>
<asrwt>0</asrwt>
<pdfrwt beam="1">  1       21 0.70856443E-01 0.49274758E+03</pdfrwt>
<pdfrwt beam="2">  1       21 0.93809577E-01 0.49274758E+03</pdfrwt>
<totfact> 0.14521976E+03</totfact>
</mgrwt>
</event>
<event>
 6    1  0.8739326E-004  0.4030472E+03  0.7818608E-02  0.1042779E+00
         21   -1    0    0  501  502  0.00000000000E+00  0.00000000000E+00  0.96834508686E+03  0.96834508686E+03  0.00000000000E+00 0. -1.
         21   -1    0    0  502  503 -0.00000000000E+00 -0.00000000000E+00 -0.19933947443E+03  0.19933947443E+03  0.00000000000E+00 0. -1.
    9000007    2    1    2  501    0 -0.23210150449E+02  0.43684089049E+02  0.61753795177E+03  0.73711579448E+03  0.39942403768E+03 0.  0.
    9000005    1    3    3    0    0 -0.18656498712E+03 -0.69626647894E+02  0.25386452776E+03  0.32264928787E+03  0.99999687468E+00 0.  0.
          4    1    3    3  501    0  0.16335483667E+03  0.11331073694E+03  0.36367342401E+03  0.41446650661E+03  0.00000000000E+00 0.  1.
   -9000007    1    1    2    0  503  0.23210150449E+02 -0.43684089049E+02  0.15146766066E+03  0.43056876680E+03  0.40000000000E+03 0. -1.
<mgrwt>
<rscale>  2 0.40290418E+03</rscale>
<asrwt>0</asrwt>
<pdfrwt beam="1">  1       21 0.14897616E+00 0.40304716E+03</pdfrwt>
<pdfrwt beam="2">  1       21 0.30667612E-01 0.40304716E+03</pdfrwt>
<totfact> 0.27263845E+03</totfact>
</mgrwt>
</event>
<event>
 6    1  0.8739326E-004  0.4233075E+03  0.7818608E-02  0.1036679E+00
         21   -1    0    0  501  502  0.00000000000E+00  0.00000000000E+00  0.43886080873E+03  0.43886080873E+03  0.00000000000E+00 0.  1.
         21   -1    0    0  502  503 -0.00000000000E+00 -0.00000000000E+00 -0.91070204289E+03  0.91070204289E+03  0.00000000000E+00 0.  1.
    9000007    2    1    2  501    0  0.10072178063E+03  0.95101712607E+02  0.27029523491E+03  0.49518837192E+03  0.39110458556E+03 0.  0.
    9000005    1    3    3    0    0 -0.18800403177E+02 -0.62727855594E+02  0.28899972765E+03  0.29632765919E+03  0.99999687468E+00 0.  0.
          4    1    3    3  501    0  0.11952218381E+03  0.15782956820E+03 -0.18704492741E+02  0.19886071273E+03  0.00000000000E+00 0.  1.
   -9000007    1    1    2    0  503 -0.10072178063E+03 -0.95101712607E+02 -0.74213646906E+03  0.85437447969E+03  0.40000000000E+03 0.  1.
<mgrwt>
<rscale>  2 0.42119282E+03</rscale>
<asrwt>0</asrwt>
<pdfrwt beam="1">  1       21 0.67517047E-01 0.42330747E+03</pdfrwt>
<pdfrwt beam="2">  1       21 0.14010801E+00 0.42330747E+03</pdfrwt>
<totfact> 0.60740293E+02</totfact>
</mgrwt>
</event>
<event>
 6    1  0.8739326E-004  0.4390351E+03  0.7818608E-02  0.1031159E+00
         21   -1    0    0  501  502  0.00000000000E+00  0.00000000000E+00  0.54067327924E+03  0.54067327924E+03  0.00000000000E+00 0.  1.
         21   -1    0    0  502  503 -0.00000000000E+00 -0.00000000000E+00 -0.38737648104E+03  0.38737648104E+03  0.00000000000E+00 0.  1.
    9000007    2    1    2  501    0  0.15065808694E+03 -0.10026960687E+03 -0.57036080996E+02  0.44123175189E+03  0.39834719921E+03 0.  0.
    9000005    1    3    3    0    0 -0.12920886010E+03 -0.89982835777E+02 -0.18690200757E+02  0.15856280730E+03  0.99999687468E+00 0.  0.
          4    1    3    3  501    0  0.27986694703E+03 -0.10286771092E+02 -0.38345880239E+02  0.28266894458E+03  0.00000000000E+00 0.  1.
   -9000007    1    1    2    0  503 -0.15065808694E+03  0.10026960687E+03  0.21033287920E+03  0.48681800839E+03  0.40000000000E+03 0.  1.
<mgrwt>
<rscale>  2 0.43865832E+03</rscale>
<asrwt>0</asrwt>
<pdfrwt beam="1">  1       21 0.83180505E-01 0.43903514E+03</pdfrwt>
<pdfrwt beam="2">  1       21 0.59596382E-01 0.43903514E+03</pdfrwt>
<totfact> 0.28905478E+03</totfact>
</mgrwt>
</event>
<event>
 6    1  0.8739326E-004  0.4681336E+03  0.7818608E-02  0.1022492E+00
         21   -1    0    0  501  502  0.00000000000E+00  0.00000000000E+00  0.26850506546E+03  0.26850506546E+03  0.00000000000E+00 0.  1.
         21   -1    0    0  502  503 -0.00000000000E+00 -0.00000000000E+00 -0.97417487652E+03  0.97417487652E+03  0.00000000000E+00 0. -1.
    9000007    2    1    2  501    0  0.18543155476E+03  0.15736658845E+03 -0.10156549795E+03  0.47842139556E+03  0.39927731804E+03 0.  0.
    9000005    1    3    3    0    0  0.11521502307E+03  0.19278845104E+03 -0.23403272543E+03  0.32436739195E+03  0.99999687468E+00 0.  0.
          4    1    3    3  501    0  0.70216531689E+02 -0.35421862593E+02  0.13246722748E+03  0.15405400361E+03  0.00000000000E+00 0.  1.
   -9000007    1    1    2    0  503 -0.18543155476E+03 -0.15736658845E+03 -0.60410431311E+03  0.76425854642E+03  0.40000000000E+03 0.  1.
<mgrwt>
<rscale>  2 0.46797923E+03</rscale>
<asrwt>0</asrwt>
<pdfrwt beam="1">  1       21 0.41308472E-01 0.46813364E+03</pdfrwt>
<pdfrwt beam="2">  1       21 0.14987306E+00 0.46813364E+03</pdfrwt>
<totfact> 0.14277221E+03</totfact>
</mgrwt>
</event>
<event>
 6    1  0.8739326E-004  0.4543328E+03  0.7818608E-02  0.1026497E+00
         21   -1    0    0  501  502  0.00000000000E+00  0.00000000000E+00  0.18001361040E+04  0.18001361040E+04  0.00000000000E+00 0. -1.
         21   -1    0    0  502  503 -0.00000000000E+00 -0.00000000000E+00 -0.13062800130E+03  0.13062800130E+03  0.00000000000E+00 0. -1.
    9000007    2    1    2  501    0 -0.18084440761E+03  0.11393998518E+03  0.11749833934E+04  0.12597635777E+04  0.40091305401E+03 0.  0.
    9000005    1    3    3    0    0 -0.18554238331E+03  0.17925573989E+03  0.11653597711E+04  0.11935757170E+04  0.99999687468E+00 0.  0.
          4    1    3    3  501    0  0.46979756958E+01 -0.65315754714E+02  0.96236223405E+01  0.66187860642E+02  0.00000000000E+00 0.  1.
   -9000007    1    1    2    0  503  0.18084440761E+03 -0.11393998518E+03  0.49452470933E+03  0.67100052766E+03  0.40000000000E+03 0. -1.
<mgrwt>
<rscale>  2 0.45413130E+03</rscale>
<asrwt>0</asrwt>
<pdfrwt beam="1">  1       21 0.27694400E+00 0.45433280E+03</pdfrwt>
<pdfrwt beam="2">  1       21 0.20096617E-01 0.45433280E+03</pdfrwt>
<totfact> 0.85850345E+02</totfact>
</mgrwt>
</event>
<event>
 6    1  0.8739326E-004  0.6451642E+03  0.7818608E-02  0.9817322E-01
         21   -1    0    0  501  502  0.00000000000E+00  0.00000000000E+00  0.47797734438E+03  0.47797734438E+03  0.00000000000E+00 0.  1.
         21   -1    0    0  502  503 -0.00000000000E+00 -0.00000000000E+00 -0.13412821847E+04  0.13412821847E+04  0.00000000000E+00 0.  1.
    9000007    2    1    2  501    0  0.43692392321E+03 -0.25560592851E+03  0.11003184230E+03  0.65151760421E+03  0.39513450484E+03 0.  0.
    9000005    1    3    3    0    0  0.36280772404E+03 -0.92820223382E+02 -0.87971890384E+02  0.38468830497E+03  0.99999687468E+00 0.  0.
          4    1    3    3  501    0  0.74116199170E+02 -0.16278570513E+03  0.19800373269E+03  0.26682929924E+03  0.00000000000E+00 0.  1.
   -9000007    1    1    2    0  503 -0.43692392321E+03  0.25560592851E+03 -0.97333668258E+03  0.11677419248E+04  0.40000000000E+03 0.  1.
<mgrwt>
<rscale>  2 0.64441162E+03</rscale>
<asrwt>0</asrwt>
<pdfrwt beam="1">  1       21 0.73534976E-01 0.64516425E+03</pdfrwt>
<pdfrwt beam="2">  1       21 0.20635110E+00 0.64516425E+03</pdfrwt>
<totfact> 0.14951322E+02</totfact>
</mgrwt>
</event>
<event>
 6    1  0.8739326E-004  0.4651280E+03  0.7818608E-02  0.1023394E+00
         21   -1    0    0  501  502  0.00000000000E+00  0.00000000000E+00  0.12652109176E+04  0.12652109176E+04  0.00000000000E+00 0.  1.
         21   -1    0    0  502  503 -0.00000000000E+00 -0.00000000000E+00 -0.17097707017E+03  0.17097707017E+03  0.00000000000E+00 0.  1.
    9000007    2    1    2  501    0  0.12668153515E+03 -0.19783499303E+03  0.51141178109E+03  0.69129305771E+03  0.40144387650E+03 0.  0.
    9000005    1    3    3    0    0 -0.68378284322E+02  0.52163146696E+02  0.29527117526E+03  0.30754292477E+03  0.99999687468E+00 0.  0.
          4    1    3    3  501    0  0.19505981948E+03 -0.24999813973E+03  0.21614060582E+03  0.38375013294E+03  0.00000000000E+00 0.  1.
   -9000007    1    1    2    0  503 -0.12668153515E+03  0.19783499303E+03  0.58282206636E+03  0.74489493008E+03  0.40000000000E+03 0.  1.
<mgrwt>
<rscale>  2 0.46481631E+03</rscale>
<asrwt>0</asrwt>
<pdfrwt beam="1">  1       21 0.19464783E+00 0.46512803E+03</pdfrwt>
<pdfrwt beam="2">  1       21 0.26304165E-01 0.46512803E+03</pdfrwt>
<totfact> 0.16758917E+03</totfact>
</mgrwt>
</event>
<event>
 6    1  0.8739326E-004  0.4420624E+03  0.7818608E-02  0.1030126E+00
         21   -1    0    0  501  502  0.00000000000E+00  0.00000000000E+00  0.84690831669E+02  0.84690831669E+02  0.00000000000E+00 0. -1.
         21   -1    0    0  502  503 -0.00000000000E+00 -0.00000000000E+00 -0.23154072442E+04  0.23154072442E+04  0.00000000000E+00 0. -1.
    9000007    2    1    2  501    0 -0.52290931554E+02 -0.18047750786E+03 -0.11887867571E+04  0.12683189988E+04  0.40014079593E+03 0.  0.
    9000005    1    3    3    0    0  0.46636982274E+02 -0.14851663724E+03 -0.11449632744E+04  0.11554973386E+04  0.99999687468E+00 0.  0.
          4    1    3    3  501    0 -0.98927913828E+02 -0.31960870625E+02 -0.43823482629E+02  0.11282166022E+03  0.00000000000E+00 0.  1.
   -9000007    1    1    2    0  503  0.52290931554E+02  0.18047750786E+03 -0.10419296555E+04  0.11317790771E+04  0.40000000000E+03 0. -1.
<mgrwt>
<rscale>  2 0.44203050E+03</rscale>
<asrwt>0</asrwt>
<pdfrwt beam="1">  1       21 0.13029358E-01 0.44206236E+03</pdfrwt>
<pdfrwt beam="2">  1       21 0.35621652E+00 0.44206236E+03</pdfrwt>
<totfact> 0.64336758E+02</totfact>
</mgrwt>
</event>
<event>
 6    1  0.8739326E-004  0.5614248E+03  0.7818608E-02  0.9988988E-01
         21   -1    0    0  501  502  0.00000000000E+00  0.00000000000E+00  0.29256931157E+03  0.29256931157E+03  0.00000000000E+00 0. -1.
         21   -1    0    0  502  503 -0.00000000000E+00 -0.00000000000E+00 -0.11111576746E+04  0.11111576746E+04  0.00000000000E+00 0.  1.
    9000007    2    1    2  501    0 -0.34466731664E+03 -0.19000005015E+03 -0.28602126198E+03  0.63008411292E+03  0.40037763278E+03 0.  0.
    9000005    1    3    3    0    0 -0.61354308565E+02 -0.26197001243E+03 -0.14140510075E+03  0.30395565648E+03  0.99999687468E+00 0.  0.
          4    1    3    3  501    0 -0.28331300808E+03  0.71969962272E+02 -0.14461616122E+03  0.32612845644E+03  0.00000000000E+00 0.  1.
   -9000007    1    1    2    0  503  0.34466731664E+03  0.19000005015E+03 -0.53256710108E+03  0.77364287328E+03  0.40000000000E+03 0. -1.
<mgrwt>
<rscale>  2 0.56135750E+03</rscale>
<asrwt>0</asrwt>
<pdfrwt beam="1">  1       21 0.45010664E-01 0.56142482E+03</pdfrwt>
<pdfrwt beam="2">  1       21 0.17094733E+00 0.56142482E+03</pdfrwt>
<totfact> 0.79767880E+02</totfact>
</mgrwt>
</event>
<event>
 6    1  0.8739326E-004  0.4546063E+03  0.7818608E-02  0.1026383E+00
         21   -1    0    0  501  502  0.00000000000E+00  0.00000000000E+00  0.63225944773E+03  0.63225944773E+03  0.00000000000E+00 0.  1.
         21   -1    0    0  502  503 -0.00000000000E+00 -0.00000000000E+00 -0.37685666965E+03  0.37685666965E+03  0.00000000000E+00 0.  1.
    9000007    2    1    2  501    0  0.21105986264E+03  0.42400306283E+02  0.31197237256E+03  0.55135616871E+03  0.40040331160E+03 0.  0.
    9000005    1    3    3    0    0  0.29249796942E+03 -0.27782197847E+02  0.94292291471E+02  0.30857567768E+03  0.99999687468E+00 0.  0.
          4    1    3    3  501    0 -0.81438106779E+02  0.70182504130E+02  0.21768008109E+03  0.24278049103E+03  0.00000000000E+00 0.  1.
   -9000007    1    1    2    0  503 -0.21105986264E+03 -0.42400306283E+02 -0.56569594470E+02  0.45775994867E+03  0.40000000000E+03 0.  1.
<mgrwt>
<rscale>  2 0.45451745E+03</rscale>
<asrwt>0</asrwt>
<pdfrwt beam="1">  1       21 0.97270684E-01 0.45460627E+03</pdfrwt>
<pdfrwt beam="2">  1       21 0.57977949E-01 0.45460627E+03</pdfrwt>
<totfact> 0.21069693E+03</totfact>
</mgrwt>
</event>
<event>
 6    1  0.8739326E-004  0.4674635E+03  0.7818608E-02  0.1022664E+00
         21   -1    0    0  501  502  0.00000000000E+00  0.00000000000E+00  0.14039540002E+04  0.14039540002E+04  0.00000000000E+00 0. -1.
         21   -1    0    0  502  503 -0.00000000000E+00 -0.00000000000E+00 -0.20007131100E+03  0.20007131100E+03  0.00000000000E+00 0. -1.
    9000007    2    1    2  501    0 -0.21275124841E+03  0.11366242084E+03  0.98055472032E+03  0.10862824974E+04  0.40042460582E+03 0.  0.
    9000005    1    3    3    0    0  0.10711340721E+03  0.24306287299E+02  0.42557056272E+03  0.43951721406E+03  0.99999687468E+00 0.  0.
          4    1    3    3  501    0 -0.31986465562E+03  0.89356133537E+02  0.55498415760E+03  0.64676528331E+03  0.00000000000E+00 0.  1.
   -9000007    1    1    2    0  503  0.21275124841E+03 -0.11366242084E+03  0.22332796893E+03  0.51774281387E+03  0.40000000000E+03 0. -1.
<mgrwt>
<rscale>  2 0.46737254E+03</rscale>
<asrwt>0</asrwt>
<pdfrwt beam="1">  1       21 0.21599292E+00 0.46746348E+03</pdfrwt>
<pdfrwt beam="2">  1       21 0.30780203E-01 0.46746348E+03</pdfrwt>
<totfact> 0.88715264E+02</totfact>
</mgrwt>
</event>
<event>
 6    1  0.8739326E-004  0.6651310E+03  0.7818608E-02  0.9778844E-01
         21   -1    0    0  501  502  0.00000000000E+00  0.00000000000E+00  0.69867886471E+03  0.69867886471E+03  0.00000000000E+00 0.  1.
         21   -1    0    0  502  503 -0.00000000000E+00 -0.00000000000E+00 -0.64253047053E+03  0.64253047053E+03  0.00000000000E+00 0. -1.
    9000007    2    1    2  501    0  0.34168683380E+03 -0.40700050741E+03 -0.53217168514E+02  0.66714692587E+03  0.39981701847E+03 0.  0.
    9000005    1    3    3    0    0  0.36197239392E+03 -0.43332531954E+03 -0.13355993000E+03  0.58020177646E+03  0.99999687468E+00 0.  0.
          4    1    3    3  501    0 -0.20285560124E+02  0.26324812129E+02  0.80342761487E+02  0.86945149413E+02  0.00000000000E+00 0.  1.
   -9000007    1    1    2    0  503 -0.34168683380E+03  0.40700050741E+03  0.10936556269E+03  0.67406240937E+03  0.40000000000E+03 0.  1.
<mgrwt>
<rscale>  2 0.66510354E+03</rscale>
<asrwt>0</asrwt>
<pdfrwt beam="1">  1       21 0.10748906E+00 0.66513104E+03</pdfrwt>
<pdfrwt beam="2">  1       21 0.98850841E-01 0.66513104E+03</pdfrwt>
<totfact> 0.45031973E+02</totfact>
</mgrwt>
</event>
<event>
 6    1  0.8739326E-004  0.4920056E+03  0.7818608E-02  0.1015898E+00
         21   -1    0    0  501  502  0.00000000000E+00  0.00000000000E+00  0.43241070236E+03  0.43241070236E+03  0.00000000000E+00 0.  1.
         21   -1    0    0  502  503 -0.00000000000E+00 -0.00000000000E+00 -0.56678285952E+03  0.56678285952E+03  0.00000000000E+00 0.  1.
    9000007    2    1    2  501    0 -0.22541667749E+03 -0.17679596296E+03 -0.12331693808E+03  0.50706379354E+03  0.39979636378E+03 0.  0.
    9000005    1    3    3    0    0 -0.25427280149E+03 -0.13243936300E+03  0.79451997661E+02  0.29750371825E+03  0.99999687468E+00 0.  0.
          4    1    3    3  501    0  0.28856123993E+02 -0.44356599966E+02 -0.20276893574E+03  0.20956007529E+03  0.00000000000E+00 0.  1.
   -9000007    1    1    2    0  503  0.22541667749E+03  0.17679596296E+03 -0.11055219076E+02  0.49212976833E+03  0.40000000000E+03 0.  1.
<mgrwt>
<rscale>  2 0.49196419E+03</rscale>
<asrwt>0</asrwt>
<pdfrwt beam="1">  1       21 0.66524724E-01 0.49200558E+03</pdfrwt>
<pdfrwt beam="2">  1       21 0.87197363E-01 0.49200558E+03</pdfrwt>
<totfact> 0.19915415E+03</totfact>
</mgrwt>
</event>
<event>
 6    1  0.8739326E-004  0.4074316E+03  0.7818608E-02  0.1041338E+00
         21   -1    0    0  501  502  0.00000000000E+00  0.00000000000E+00  0.13673689276E+03  0.13673689276E+03  0.00000000000E+00 0. -1.
         21   -1    0    0  502  503 -0.00000000000E+00 -0.00000000000E+00 -0.13387387317E+04  0.13387387317E+04  0.00000000000E+00 0. -1.
    9000007    2    1    2  501    0 -0.76173366998E+01 -0.70436326439E+02 -0.37340798077E+03  0.55266086423E+03  0.40122463890E+03 0.  0.
    9000005    1    3    3    0    0 -0.16728151125E+03 -0.11394746382E+03 -0.83720152624E+02  0.21903696598E+03  0.99999687468E+00 0.  0.
          4    1    3    3  501    0  0.15966417455E+03  0.43511137383E+02 -0.28968782814E+03  0.33362389825E+03  0.00000000000E+00 0.  1.
   -9000007    1    1    2    0  503  0.76173366998E+01  0.70436326439E+02 -0.82859385820E+03  0.92281476026E+03  0.40000000000E+03 0. -1.
<mgrwt>
<rscale>  2 0.40712979E+03</rscale>
<asrwt>0</asrwt>
<pdfrwt beam="1">  1       21 0.21036445E-01 0.40743160E+03</pdfrwt>
<pdfrwt beam="2">  1       21 0.20595980E+00 0.40743160E+03</pdfrwt>
<totfact> 0.22263377E+03</totfact>
</mgrwt>
</event>
<event>
 6    1  0.8739326E-004  0.5331077E+03  0.7818608E-02  0.1005561E+00
         21   -1    0    0  501  502  0.00000000000E+00  0.00000000000E+00  0.45509832813E+03  0.45509832813E+03  0.00000000000E+00 0.  1.
         21   -1    0    0  502  503 -0.00000000000E+00 -0.00000000000E+00 -0.97530877158E+03  0.97530877158E+03  0.00000000000E+00 0.  1.
    9000007    2    1    2  501    0 -0.76016817919E+02 -0.34412978360E+03  0.16999081965E+03  0.55829377671E+03  0.39823510365E+03 0.  0.
    9000005    1    3    3    0    0 -0.17824186633E+03 -0.37928700060E+02  0.14794335399E+03  0.23472747002E+03  0.99999687468E+00 0.  0.
          4    1    3    3  501    0  0.10222504841E+03 -0.30620108354E+03  0.22047465660E+02  0.32356630669E+03  0.00000000000E+00 0.  1.
   -9000007    1    1    2    0  503  0.76016817919E+02  0.34412978360E+03 -0.69020126310E+03  0.87211332300E+03  0.40000000000E+03 0.  1.
<mgrwt>
<rscale>  2 0.53277670E+03</rscale>
<asrwt>0</asrwt>
<pdfrwt beam="1">  1       21 0.70015129E-01 0.53310774E+03</pdfrwt>
<pdfrwt beam="2">  1       21 0.15004750E+00 0.53310774E+03</pdfrwt>
<totfact> 0.44384978E+02</totfact>
</mgrwt>
</event>
<event>
 6    1  0.8739326E-004  0.4255082E+03  0.7818608E-02  0.1035298E+00
         21   -1    0    0  501  502  0.00000000000E+00  0.00000000000E+00  0.70001295211E+03  0.70001295211E+03  0.00000000000E+00 0. -1.
         21   -1    0    0  502  503 -0.00000000000E+00 -0.00000000000E+00 -0.47605461009E+03  0.47605461009E+03  0.00000000000E+00 0. -1.
    9000007    2    1    2  501    0  0.12903215184E+03  0.65623943055E+02  0.50943744409E+03  0.66376480422E+03  0.40012673963E+03 0.  0.
    9000005    1    3    3    0    0  0.22026186631E+03  0.13142472001E+03  0.48501468925E+03  0.54866018223E+03  0.99999687468E+00 0.  0.
          4    1    3    3  501    0 -0.91229714470E+02 -0.65800776955E+02  0.24422754843E+02  0.11510462199E+03  0.00000000000E+00 0.  1.
   -9000007    1    1    2    0  503 -0.12903215184E+03 -0.65623943055E+02 -0.28547910207E+03  0.51230275798E+03  0.40000000000E+03 0. -1.
<mgrwt>
<rscale>  2 0.42547838E+03</rscale>
<asrwt>0</asrwt>
<pdfrwt beam="1">  1       21 0.10769430E+00 0.42550817E+03</pdfrwt>
<pdfrwt beam="2">  1       21 0.73239171E-01 0.42550817E+03</pdfrwt>
<totfact> 0.98893946E+02</totfact>
</mgrwt>
</event>
<event>
 6    1  0.8739326E-004  0.4404707E+03  0.7818608E-02  0.1030616E+00
         21   -1    0    0  501  502  0.00000000000E+00  0.00000000000E+00  0.29163255074E+03  0.29163255074E+03  0.00000000000E+00 0.  1.
         21   -1    0    0  502  503 -0.00000000000E+00 -0.00000000000E+00 -0.66593421057E+03  0.66593421057E+03  0.00000000000E+00 0. -1.
    9000007    2    1    2  501    0  0.27797980401E+02  0.18232305075E+03 -0.16915629412E+03  0.47166652091E+03  0.39980124131E+03 0.  0.
    9000005    1    3    3    0    0 -0.63842010446E+01 -0.11359781909E+03 -0.12748715312E+03  0.17087772450E+03  0.99999687468E+00 0.  0.
          4    1    3    3  501    0  0.34182181445E+02  0.29592086984E+03 -0.41669141001E+02  0.30078879641E+03  0.00000000000E+00 0.  1.
   -9000007    1    1    2    0  503 -0.27797980401E+02 -0.18232305075E+03 -0.20514536571E+03  0.48590024040E+03  0.40000000000E+03 0.  1.
<mgrwt>
<rscale>  2 0.44042555E+03</rscale>
<asrwt>0</asrwt>
<pdfrwt beam="1">  1       21 0.44866547E-01 0.44047068E+03</pdfrwt>
<pdfrwt beam="2">  1       21 0.10245142E+00 0.44047068E+03</pdfrwt>
<totfact> 0.32268437E+03</totfact>
</mgrwt>
</event>
<event>
 6    1  0.8739326E-004  0.5185153E+03  0.7818608E-02  0.1009071E+00
         21   -1    0    0  501  502  0.00000000000E+00  0.00000000000E+00  0.40825559338E+03  0.40825559338E+03  0.00000000000E+00 0.  1.
         21   -1    0    0  502  503 -0.00000000000E+00 -0.00000000000E+00 -0.67546546412E+03  0.67546546412E+03  0.00000000000E+00 0. -1.
    9000007    2    1    2  501    0  0.26945928025E+03  0.18974302563E+03 -0.47129993101E+02  0.52065279163E+03  0.40030909769E+03 0.  0.
    9000005    1    3    3    0    0  0.76347979765E+02  0.28716406959E+03 -0.63110319335E+02  0.30376986236E+03  0.99999687468E+00 0.  0.
          4    1    3    3  501    0  0.19311130049E+03 -0.97421043958E+02  0.15980326234E+02  0.21688292927E+03  0.00000000000E+00 0.  1.
   -9000007    1    1    2    0  503 -0.26945928025E+03 -0.18974302563E+03 -0.22007987764E+03  0.56306826587E+03  0.40000000000E+03 0. -1.
<mgrwt>
<rscale>  2 0.51845562E+03</rscale>
<asrwt>0</asrwt>
<pdfrwt beam="1">  1       21 0.62808553E-01 0.51851528E+03</pdfrwt>
<pdfrwt beam="2">  1       21 0.10391776E+00 0.51851528E+03</pdfrwt>
<totfact> 0.14703327E+03</totfact>
</mgrwt>
</event>
<event>
 6    1  0.8739326E-004  0.6288061E+03  0.7818608E-02  0.9847547E-01
         21   -1    0    0  501  502  0.00000000000E+00  0.00000000000E+00  0.70236957042E+03  0.70236957042E+03  0.00000000000E+00 0. -1.
         21   -1    0    0  502  503 -0.00000000000E+00 -0.00000000000E+00 -0.57655480527E+03  0.57655480527E+03  0.00000000000E+00 0. -1.
    9000007    2    1    2  501    0 -0.41441399349E+03 -0.25230566569E+03  0.16221507125E+03  0.64906559054E+03  0.39946877793E+03 0.  0.
    9000005    1    3    3    0    0 -0.32232103396E+03  0.36717294870E+02  0.68293640591E+02  0.33151776726E+03  0.99999687468E+00 0.  0.
          4    1    3    3  501    0 -0.92092959538E+02 -0.28902296056E+03  0.93921430657E+02  0.31754782327E+03  0.00000000000E+00 0.  1.
   -9000007    1    1    2    0  503  0.41441399349E+03  0.25230566569E+03 -0.36400306099E+02  0.62985878515E+03  0.40000000000E+03 0. -1.
<mgrwt>
<rscale>  2 0.62872163E+03</rscale>
<asrwt>0</asrwt>
<pdfrwt beam="1">  1       21 0.10805686E+00 0.62880610E+03</pdfrwt>
<pdfrwt beam="2">  1       21 0.88700739E-01 0.62880610E+03</pdfrwt>
<totfact> 0.58349086E+02</totfact>
</mgrwt>
</event>
<event>
 6    1  0.8739326E-004  0.5725257E+03  0.7818608E-02  0.9964555E-01
         21   -1    0    0  501  502  0.00000000000E+00  0.00000000000E+00  0.23521069724E+03  0.23521069724E+03  0.00000000000E+00 0. -1.
         21   -1    0    0  502  503 -0.00000000000E+00 -0.00000000000E+00 -0.15917099321E+04  0.15917099321E+04  0.00000000000E+00 0.  1.
    9000007    2    1    2  501    0  0.31915638952E+03 -0.25675850630E+03 -0.35393589316E+03  0.67239952272E+03  0.39882924937E+03 0.  0.
    9000005    1    3    3    0    0  0.28495616607E+03 -0.25968500628E+03 -0.76754959803E+02  0.39310131380E+03  0.99999687468E+00 0.  0.
          4    1    3    3  501    0  0.34200223452E+02  0.29264999749E+01 -0.27718093336E+03  0.27929820892E+03  0.00000000000E+00 0.  1.
   -9000007    1    1    2    0  503 -0.31915638952E+03  0.25675850630E+03 -0.10025633417E+04  0.11545211066E+04  0.40000000000E+03 0.  1.
<mgrwt>
<rscale>  2 0.57232130E+03</rscale>
<asrwt>0</asrwt>
<pdfrwt beam="1">  1       21 0.36186263E-01 0.57252575E+03</pdfrwt>
<pdfrwt beam="2">  1       21 0.24487844E+00 0.57252575E+03</pdfrwt>
<totfact> 0.40127034E+02</totfact>
</mgrwt>
</event>
<event>
 6    1  0.8739326E-004  0.4436112E+03  0.7818608E-02  0.1029705E+00
         21   -1    0    0  501  502  0.00000000000E+00  0.00000000000E+00  0.23977772488E+03  0.23977772488E+03  0.00000000000E+00 0.  1.
         21   -1    0    0  502  503 -0.00000000000E+00 -0.00000000000E+00 -0.86048019597E+03  0.86048019597E+03  0.00000000000E+00 0.  1.
    9000007    2    1    2  501    0 -0.17913092393E+03  0.63227641096E+02 -0.19019671298E+03  0.48266515026E+03  0.40088057466E+03 0.  0.
    9000005    1    3    3    0    0  0.45405922498E+02  0.17680610032E+03 -0.31695489383E+02  0.18527735682E+03  0.99999687468E+00 0.  0.
          4    1    3    3  501    0 -0.22453684643E+03 -0.11357845923E+03 -0.15850122360E+03  0.29738779344E+03  0.00000000000E+00 0.  1.
   -9000007    1    1    2    0  503  0.17913092393E+03 -0.63227641096E+02 -0.43050575811E+03  0.61759277058E+03  0.40000000000E+03 0.  1.
<mgrwt>
<rscale>  2 0.44341212E+03</rscale>
<asrwt>0</asrwt>
<pdfrwt beam="1">  1       21 0.36888880E-01 0.44361116E+03</pdfrwt>
<pdfrwt beam="2">  1       21 0.13238157E+00 0.44361116E+03</pdfrwt>
<totfact> 0.25309372E+03</totfact>
</mgrwt>
</event>
<event>
 6    1  0.8739326E-004  0.4347433E+03  0.7818608E-02  0.1032382E+00
         21   -1    0    0  501  502  0.00000000000E+00  0.00000000000E+00  0.60151876177E+03  0.60151876177E+03  0.00000000000E+00 0.  1.
         21   -1    0    0  502  503 -0.00000000000E+00 -0.00000000000E+00 -0.33848805359E+03  0.33848805359E+03  0.00000000000E+00 0.  1.
    9000007    2    1    2  501    0  0.15298187697E+03  0.74055807657E+02  0.25765960664E+03  0.50536148171E+03  0.40014252083E+03 0.  0.
    9000005    1    3    3    0    0  0.21076634774E+03 -0.28211181133E+02  0.31068080236E+03  0.37648623485E+03  0.99999687468E+00 0.  0.
          4    1    3    3  501    0 -0.57784470769E+02  0.10226698879E+03 -0.53021195723E+02  0.12887524686E+03  0.00000000000E+00 0.  1.
   -9000007    1    1    2    0  503 -0.15298187697E+03 -0.74055807657E+02  0.53711015335E+01  0.43464533365E+03  0.40000000000E+03 0. -1.
<mgrwt>
<rscale>  2 0.43471052E+03</rscale>
<asrwt>0</asrwt>
<pdfrwt beam="1">  1       21 0.92541348E-01 0.43474332E+03</pdfrwt>
<pdfrwt beam="2">  1       21 0.52075085E-01 0.43474332E+03</pdfrwt>
<totfact> 0.30153664E+03</totfact>
</mgrwt>
</event>
<event>
 6    1  0.8739326E-004  0.4412287E+03  0.7818608E-02  0.1030416E+00
         21   -1    0    0  501  502  0.00000000000E+00  0.00000000000E+00  0.19599866602E+04  0.19599866602E+04  0.00000000000E+00 0.  1.
         21   -1    0    0  502  503 -0.00000000000E+00 -0.00000000000E+00 -0.10211016682E+03  0.10211016682E+03  0.00000000000E+00 0.  1.
    9000007    2    1    2  501    0  0.34452842000E+02 -0.18156897413E+03  0.75530270257E+03  0.87473704377E+03  0.40065999618E+03 0.  0.
    9000005    1    3    3    0    0  0.15793576122E+03  0.24274364354E+02  0.49728264927E+03  0.52232555240E+03  0.99999687468E+00 0.  0.
          4    1    3    3  501    0 -0.12348291922E+03 -0.20584333849E+03  0.25802005330E+03  0.35241149136E+03  0.00000000000E+00 0.  1.
   -9000007    1    1    2    0  503 -0.34452842000E+02  0.18156897413E+03  0.11025737908E+04  0.11873597832E+04  0.40000000000E+03 0. -1.
<mgrwt>
<rscale>  2 0.44107877E+03</rscale>
<asrwt>0</asrwt>
<pdfrwt beam="1">  1       21 0.30153638E+00 0.44122865E+03</pdfrwt>
<pdfrwt beam="2">  1       21 0.15709258E-01 0.44122865E+03</pdfrwt>
<totfact> 0.97762187E+02</totfact>
</mgrwt>
</event>
<event>
 6    1  0.8739326E-004  0.4138644E+03  0.7818608E-02  0.1039117E+00
         21   -1    0    0  501  502  0.00000000000E+00  0.00000000000E+00  0.24872845688E+03  0.24872845688E+03  0.00000000000E+00 0.  1.
         21   -1    0    0  502  503 -0.00000000000E+00 -0.00000000000E+00 -0.14327838480E+04  0.14327838480E+04  0.00000000000E+00 0.  1.
    9000007    2    1    2  501    0 -0.12301745039E+02  0.10382314486E+03  0.14025737574E+02  0.41410196514E+03  0.40044117905E+03 0.  0.
    9000005    1    3    3    0    0  0.17748943959E+02  0.39467217085E+02 -0.19166575371E+03  0.19649286851E+03  0.99999687468E+00 0.  0.
          4    1    3    3  501    0 -0.30050688998E+02  0.64355927777E+02  0.20569149128E+03  0.21760909663E+03  0.00000000000E+00 0.  1.
   -9000007    1    1    2    0  503  0.12301745039E+02 -0.10382314486E+03 -0.11980811287E+04  0.12674103397E+04  0.40000000000E+03 0.  1.
<mgrwt>
<rscale>  2 0.41375761E+03</rscale>
<asrwt>0</asrwt>
<pdfrwt beam="1">  1       21 0.38265917E-01 0.41386437E+03</pdfrwt>
<pdfrwt beam="2">  1       21 0.22042828E+00 0.41386437E+03</pdfrwt>
<totfact> 0.55002943E+02</totfact>
</mgrwt>
</event>
<event>
 6    1  0.8739326E-004  0.4395184E+03  0.7818608E-02  0.1030948E+00
         21   -1    0    0  501  502  0.00000000000E+00  0.00000000000E+00  0.22218038866E+03  0.22218038866E+03  0.00000000000E+00 0.  1.
         21   -1    0    0  502  503 -0.00000000000E+00 -0.00000000000E+00 -0.91055691491E+03  0.91055691491E+03  0.00000000000E+00 0. -1.
    9000007    2    1    2  501    0  0.13671399200E+03 -0.12035655611E+03 -0.22163166540E+03  0.49162328770E+03  0.39924484430E+03 0.  0.
    9000005    1    3    3    0    0  0.83376342634E+02  0.12684362997E+03 -0.17978274832E+03  0.23529504365E+03  0.99999687468E+00 0.  0.
          4    1    3    3  501    0  0.53337649362E+02 -0.24720018609E+03 -0.41848917078E+02  0.25632824406E+03  0.00000000000E+00 0.  1.
   -9000007    1    1    2    0  503 -0.13671399200E+03  0.12035655611E+03 -0.46674486085E+03  0.64111401586E+03  0.40000000000E+03 0. -1.
<mgrwt>
<rscale>  2 0.43934650E+03</rscale>
<asrwt>0</asrwt>
<pdfrwt beam="1">  1       21 0.34181598E-01 0.43951839E+03</pdfrwt>
<pdfrwt beam="2">  1       21 0.14008568E+00 0.43951839E+03</pdfrwt>
<totfact> 0.25494069E+03</totfact>
</mgrwt>
</event>
<event>
 6    1  0.8739326E-004  0.4085459E+03  0.7818608E-02  0.1040922E+00
         21   -1    0    0  501  502  0.00000000000E+00  0.00000000000E+00  0.38494970681E+03  0.38494970681E+03  0.00000000000E+00 0.  1.
         21   -1    0    0  502  503 -0.00000000000E+00 -0.00000000000E+00 -0.55968824633E+03  0.55968824633E+03  0.00000000000E+00 0.  1.
    9000007    2    1    2  501    0  0.41990658176E+02 -0.67415982713E+02 -0.31231573634E+03  0.51424787985E+03  0.40075133520E+03 0.  0.
    9000005    1    3    3    0    0  0.62875301669E+02  0.16028185718E+03 -0.18423786984E+03  0.25216694862E+03  0.99999687468E+00 0.  0.
          4    1    3    3  501    0 -0.20884643493E+02 -0.22769783989E+03 -0.12807786650E+03  0.26208093123E+03  0.00000000000E+00 0.  1.
   -9000007    1    1    2    0  503 -0.41990658176E+02  0.67415982713E+02  0.13757719682E+03  0.43039007329E+03  0.40000000000E+03 0.  1.
<mgrwt>
<rscale>  2 0.40836154E+03</rscale>
<asrwt>0</asrwt>
<pdfrwt beam="1">  1       21 0.59223032E-01 0.40854591E+03</pdfrwt>
<pdfrwt beam="2">  1       21 0.86105884E-01 0.40854591E+03</pdfrwt>
<totfact> 0.27347933E+03</totfact>
</mgrwt>
</event>
<event>
 6    1  0.8739326E-004  0.5298017E+03  0.7818608E-02  0.1006286E+00
         21   -1    0    0  501  502  0.00000000000E+00  0.00000000000E+00  0.63961740398E+03  0.63961740398E+03  0.00000000000E+00 0. -1.
         21   -1    0    0  502  503 -0.00000000000E+00 -0.00000000000E+00 -0.43900287865E+03  0.43900287865E+03  0.00000000000E+00 0.  1.
    9000007    2    1    2  501    0 -0.22883868671E+03 -0.26119702368E+03  0.11292279726E+03  0.54170234766E+03  0.40012353794E+03 0.  0.
    9000005    1    3    3    0    0 -0.26629061711E+03 -0.15884372731E+03  0.22673174648E+03  0.38412277636E+03  0.99999687468E+00 0.  0.
          4    1    3    3  501    0  0.37451930403E+02 -0.10235329637E+03 -0.11380894922E+03  0.15757957130E+03  0.00000000000E+00 0.  1.
   -9000007    1    1    2    0  503  0.22883868671E+03  0.26119702368E+03  0.87691728076E+02  0.53691793496E+03  0.40000000000E+03 0.  1.
<mgrwt>
<rscale>  2 0.52977841E+03</rscale>
<asrwt>0</asrwt>
<pdfrwt beam="1">  1       21 0.98402678E-01 0.52980173E+03</pdfrwt>
<pdfrwt beam="2">  1       21 0.67538904E-01 0.52980173E+03</pdfrwt>
<totfact> 0.14237611E+03</totfact>
</mgrwt>
</event>
<event>
 6    1  0.8739326E-004  0.4168323E+03  0.7818608E-02  0.1038153E+00
         21   -1    0    0  501  502  0.00000000000E+00  0.00000000000E+00  0.35611483572E+03  0.35611483572E+03  0.00000000000E+00 0.  1.
         21   -1    0    0  502  503 -0.00000000000E+00 -0.00000000000E+00 -0.73630727312E+03  0.73630727312E+03  0.00000000000E+00 0.  1.
    9000007    2    1    2  501    0  0.11499015261E+03 -0.38625063500E+01  0.12752651134E+03  0.43590387981E+03  0.40063889874E+03 0.  0.
    9000005    1    3    3    0    0  0.20631825633E+02 -0.34926954126E+02 -0.14251001804E+03  0.14817445660E+03  0.99999687468E+00 0.  0.
          4    1    3    3  501    0  0.94358326976E+02  0.31064447776E+02  0.27003652937E+03  0.28772942321E+03  0.00000000000E+00 0.  1.
   -9000007    1    1    2    0  503 -0.11499015261E+03  0.38625063500E+01 -0.50771894873E+03  0.65651822903E+03  0.40000000000E+03 0.  1.
<mgrwt>
<rscale>  2 0.41667872E+03</rscale>
<asrwt>0</asrwt>
<pdfrwt beam="1">  1       21 0.54786898E-01 0.41683232E+03</pdfrwt>
<pdfrwt beam="2">  1       21 0.11327804E+00 0.41683232E+03</pdfrwt>
<totfact> 0.16631137E+03</totfact>
</mgrwt>
</event>
<event>
 6    1  0.8739326E-004  0.4298293E+03  0.7818608E-02  0.1033964E+00
         21   -1    0    0  501  502  0.00000000000E+00  0.00000000000E+00  0.61597909206E+03  0.61597909206E+03  0.00000000000E+00 0.  1.
         21   -1    0    0  502  503 -0.00000000000E+00 -0.00000000000E+00 -0.30479868980E+03  0.30479868980E+03  0.00000000000E+00 0. -1.
    9000007    2    1    2  501    0  0.67678537307E+02 -0.14203101505E+03  0.21623420929E+03  0.48058694459E+03  0.39931614593E+03 0.  0.
    9000005    1    3    3    0    0 -0.14011141535E+03 -0.80193637507E+02 -0.16786684565E+02  0.16231149368E+03  0.99999687468E+00 0.  0.
          4    1    3    3  501    0  0.20778995265E+03 -0.61837377548E+02  0.23302089385E+03  0.31827545092E+03  0.00000000000E+00 0.  1.
   -9000007    1    1    2    0  503 -0.67678537307E+02  0.14203101505E+03  0.94946192976E+02  0.44019083726E+03  0.40000000000E+03 0. -1.
<mgrwt>
<rscale>  2 0.42967009E+03</rscale>
<asrwt>0</asrwt>
<pdfrwt beam="1">  1       21 0.94766014E-01 0.42982926E+03</pdfrwt>
<pdfrwt beam="2">  1       21 0.46892106E-01 0.42982926E+03</pdfrwt>
<totfact> 0.35653350E+03</totfact>
</mgrwt>
</event>
<event>
 6    1  0.8739326E-004  0.6167533E+03  0.7818608E-02  0.9871598E-01
         21   -1    0    0  501  502  0.00000000000E+00  0.00000000000E+00  0.45510422521E+03  0.45510422521E+03  0.00000000000E+00 0. -1.
         21   -1    0    0  502  503 -0.00000000000E+00 -0.00000000000E+00 -0.10943448764E+04  0.10943448764E+04  0.00000000000E+00 0. -1.
    9000007    2    1    2  501    0 -0.57598523102E+02 -0.46497250383E+03 -0.69700305353E+03  0.93069752443E+03  0.40108304149E+03 0.  0.
    9000005    1    3    3    0    0 -0.21508468420E+03 -0.29120337212E+03 -0.30258433926E+03  0.47182529359E+03  0.99999687468E+00 0.  0.
          4    1    3    3  501    0  0.15748616110E+03 -0.17376913171E+03 -0.39441871427E+03  0.45887223084E+03  0.00000000000E+00 0.  1.
   -9000007    1    1    2    0  503  0.57598523102E+02  0.46497250383E+03  0.57762402308E+02  0.61875157721E+03  0.40000000000E+03 0. -1.
<mgrwt>
<rscale>  2 0.61657728E+03</rscale>
<asrwt>0</asrwt>
<pdfrwt beam="1">  1       21 0.70016035E-01 0.61675329E+03</pdfrwt>
<pdfrwt beam="2">  1       21 0.16836075E+00 0.61675329E+03</pdfrwt>
<totfact> 0.31166826E+02</totfact>
</mgrwt>
</event>
<event>
 6    1  0.8739326E-004  0.6400628E+03  0.7818608E-02  0.9825860E-01
         21   -1    0    0  501  502  0.00000000000E+00  0.00000000000E+00  0.83862407855E+03  0.83862407855E+03  0.00000000000E+00 0.  1.
         21   -1    0    0  502  503 -0.00000000000E+00 -0.00000000000E+00 -0.52910755969E+03  0.52910755969E+03  0.00000000000E+00 0. -1.
    9000007    2    1    2  501    0  0.47374521007E+03  0.15674186616E+03  0.34517670278E+03  0.72720514746E+03  0.40084639660E+03 0.  0.
    9000005    1    3    3    0    0  0.43476392676E+03 -0.27925644085E+02  0.31130153484E+03  0.53545229404E+03  0.99999687468E+00 0.  0.
          4    1    3    3  501    0  0.38981283317E+02  0.18466751025E+03  0.33875167941E+02  0.19175285341E+03  0.00000000000E+00 0.  1.
   -9000007    1    1    2    0  503 -0.47374521007E+03 -0.15674186616E+03 -0.35660183928E+02  0.64052649078E+03  0.40000000000E+03 0.  1.
<mgrwt>
<rscale>  2 0.63993031E+03</rscale>
<asrwt>0</asrwt>
<pdfrwt beam="1">  1       21 0.12901909E+00 0.64006279E+03</pdfrwt>
<pdfrwt beam="2">  1       21 0.81401163E-01 0.64006279E+03</pdfrwt>
<totfact> 0.45283912E+02</totfact>
</mgrwt>
</event>
<event>
 6    1  0.8739326E-004  0.4305211E+03  0.7818608E-02  0.1033718E+00
         21   -1    0    0  501  502  0.00000000000E+00  0.00000000000E+00  0.58860953172E+03  0.58860953172E+03  0.00000000000E+00 0.  1.
         21   -1    0    0  502  503 -0.00000000000E+00 -0.00000000000E+00 -0.37917501975E+03  0.37917501975E+03  0.00000000000E+00 0.  1.
    9000007    2    1    2  501    0 -0.15569613077E+03  0.33273523688E+02  0.30425172605E+03  0.52694590003E+03  0.39969295246E+03 0.  0.
    9000005    1    3    3    0    0 -0.16517517362E+03 -0.14250416410E+03  0.60706786596E+02  0.22644334545E+03  0.99999687468E+00 0.  0.
          4    1    3    3  501    0  0.94790428503E+01  0.17577768779E+03  0.24354493945E+03  0.30050255458E+03  0.00000000000E+00 0.  1.
   -9000007    1    1    2    0  503  0.15569613077E+03 -0.33273523688E+02 -0.94817214070E+02  0.44083865144E+03  0.40000000000E+03 0.  1.
<mgrwt>
<rscale>  2 0.43044976E+03</rscale>
<asrwt>0</asrwt>
<pdfrwt beam="1">  1       21 0.90555313E-01 0.43052109E+03</pdfrwt>
<pdfrwt beam="2">  1       21 0.58334618E-01 0.43052109E+03</pdfrwt>
<totfact> 0.24889611E+03</totfact>
</mgrwt>
</event>
<event>
 6    1  0.8739326E-004  0.4459333E+03  0.7818608E-02  0.1028946E+00
         21   -1    0    0  501  502  0.00000000000E+00  0.00000000000E+00  0.10257616227E+03  0.10257616227E+03  0.00000000000E+00 0.  1.
         21   -1    0    0  502  503 -0.00000000000E+00 -0.00000000000E+00 -0.19856775624E+04  0.19856775624E+04  0.00000000000E+00 0.  1.
    9000007    2    1    2  501    0  0.89713248511E+02 -0.17552213604E+03 -0.78033206292E+03  0.89873420055E+03  0.39993567934E+03 0.  0.
    9000005    1    3    3    0    0  0.14544716262E+01  0.12840099945E+03 -0.19891318836E+03  0.23676230410E+03  0.99999687468E+00 0.  0.
          4    1    3    3  501    0  0.88258776884E+02 -0.30392313549E+03 -0.58141887456E+03  0.66197189644E+03  0.00000000000E+00 0.  1.
   -9000007    1    1    2    0  503 -0.89713248511E+02  0.17552213604E+03 -0.11027693372E+04  0.11895195241E+04  0.40000000000E+03 0.  1.
<mgrwt>
<rscale>  2 0.44591885E+03</rscale>
<asrwt>0</asrwt>
<pdfrwt beam="1">  1       21 0.15780947E-01 0.44593328E+03</pdfrwt>
<pdfrwt beam="2">  1       21 0.30548888E+00 0.44593328E+03</pdfrwt>
<totfact> 0.91538614E+02</totfact>
</mgrwt>
</event>
<event>
 6    1  0.8739326E-004  0.4159202E+03  0.7818608E-02  0.1039022E+00
         21   -1    0    0  501  502  0.00000000000E+00  0.00000000000E+00  0.11336068867E+04  0.11336068867E+04  0.00000000000E+00 0. -1.
         21   -1    0    0  502  503 -0.00000000000E+00 -0.00000000000E+00 -0.14988412363E+03  0.14988412363E+03  0.00000000000E+00 0.  1.
    9000007    2    1    2  501    0  0.76543548910E+02  0.84443301421E+02  0.48464630727E+03  0.63382425364E+03  0.39225190288E+03 0.  0.
    9000005    1    3    3    0    0 -0.75599069987E+02  0.14987825571E+03  0.42641519195E+03  0.45826807311E+03  0.99999687468E+00 0.  0.
          4    1    3    3  501    0  0.15214261890E+03 -0.65434954291E+02  0.58231115326E+02  0.17555618052E+03  0.00000000000E+00 0.  1.
   -9000007    1    1    2    0  503 -0.76543548910E+02 -0.84443301421E+02  0.49907645583E+03  0.64966675673E+03  0.40000000000E+03 0.  1.
<mgrwt>
<rscale>  2 0.41404604E+03</rscale>
<asrwt>0</asrwt>
<pdfrwt beam="1">  1       21 0.17440105E+00 0.41592017E+03</pdfrwt>
<pdfrwt beam="2">  1       21 0.23059097E-01 0.41592017E+03</pdfrwt>
<totfact> 0.30549473E+03</totfact>
</mgrwt>
</event>
<event>
 6    1  0.8739326E-004  0.4248259E+03  0.7818608E-02  0.1035514E+00
         21   -1    0    0  501  502  0.00000000000E+00  0.00000000000E+00  0.10574819126E+04  0.10574819126E+04  0.00000000000E+00 0.  1.
         21   -1    0    0  502  503 -0.00000000000E+00 -0.00000000000E+00 -0.20317130854E+03  0.20317130854E+03  0.00000000000E+00 0.  1.
    9000007    2    1    2  501    0 -0.64973584046E+02 -0.12749701197E+03  0.67936694891E+03  0.80121624268E+03  0.39991369265E+03 0.  0.
    9000005    1    3    3    0    0 -0.72652566836E+02  0.13735336478E+03  0.19742315506E+03  0.25123941656E+03  0.99999687468E+00 0.  0.
          4    1    3    3  501    0  0.76789827897E+01 -0.26485037675E+03  0.48194379385E+03  0.54997682612E+03  0.00000000000E+00 0.  1.
   -9000007    1    1    2    0  503  0.64973584046E+02  0.12749701197E+03  0.17494365512E+03  0.45943697843E+03  0.40000000000E+03 0.  1.
<mgrwt>
<rscale>  2 0.42480559E+03</rscale>
<asrwt>0</asrwt>
<pdfrwt beam="1">  1       21 0.16268952E+00 0.42482591E+03</pdfrwt>
<pdfrwt beam="2">  1       21 0.31257125E-01 0.42482591E+03</pdfrwt>
<totfact> 0.20418589E+03</totfact>
</mgrwt>
</event>
<event>
 6    1  0.8739326E-004  0.4555240E+03  0.7818608E-02  0.1026775E+00
         21   -1    0    0  501  502  0.00000000000E+00  0.00000000000E+00  0.14032988124E+04  0.14032988124E+04  0.00000000000E+00 0. -1.
         21   -1    0    0  502  503 -0.00000000000E+00 -0.00000000000E+00 -0.41434811371E+03  0.41434811371E+03  0.00000000000E+00 0. -1.
    9000007    2    1    2  501    0 -0.18178346806E+03 -0.12023668292E+03 -0.24020154966E+03  0.50680088679E+03  0.38942042218E+03 0.  0.
    9000005    1    3    3    0    0 -0.10444385502E+03  0.10084879373E+03 -0.23045267520E+03  0.27237553772E+03  0.99999687468E+00 0.  0.
          4    1    3    3  501    0 -0.77339613039E+02 -0.22108547665E+03 -0.97488744596E+01  0.23442534907E+03  0.00000000000E+00 0.  1.
   -9000007    1    1    2    0  503  0.18178346806E+03  0.12023668292E+03  0.12291522483E+04  0.13108460393E+04  0.40000000000E+03 0. -1.
<mgrwt>
<rscale>  2 0.45319078E+03</rscale>
<asrwt>0</asrwt>
<pdfrwt beam="1">  1       21 0.21589212E+00 0.45552397E+03</pdfrwt>
<pdfrwt beam="2">  1       21 0.63745865E-01 0.45552397E+03</pdfrwt>
<totfact> 0.19443595E+02</totfact>
</mgrwt>
</event>
<event>
 6    1  0.8739326E-004  0.4090687E+03  0.7818608E-02  0.1040707E+00
         21   -1    0    0  501  502  0.00000000000E+00  0.00000000000E+00  0.30900410674E+03  0.30900410674E+03  0.00000000000E+00 0. -1.
         21   -1    0    0  502  503 -0.00000000000E+00 -0.00000000000E+00 -0.73171261238E+03  0.73171261238E+03  0.00000000000E+00 0. -1.
    9000007    2    1    2  501    0 -0.26680790811E+02  0.81395987781E+02  0.54232446059E+02  0.41237776376E+03  0.39972126590E+03 0.  0.
    9000005    1    3    3    0    0  0.18518261436E+03  0.54813270936E+02  0.47050352318E+01  0.19318445248E+03  0.99999687468E+00 0.  0.
          4    1    3    3  501    0 -0.21186340517E+03  0.26582716845E+02  0.49527410827E+02  0.21919331128E+03  0.00000000000E+00 0.  1.
   -9000007    1    1    2    0  503  0.26680790811E+02 -0.81395987781E+02 -0.47694095170E+03  0.62833895537E+03  0.40000000000E+03 0. -1.
<mgrwt>
<rscale>  2 0.40900051E+03</rscale>
<asrwt>0</asrwt>
<pdfrwt beam="1">  1       21 0.47539094E-01 0.40906866E+03</pdfrwt>
<pdfrwt beam="2">  1       21 0.11257117E+00 0.40906866E+03</pdfrwt>
<totfact> 0.22926868E+03</totfact>
</mgrwt>
</event>
<event>
 6    1  0.8739326E-004  0.5720645E+03  0.7818608E-02  0.9966574E-01
         21   -1    0    0  501  502  0.00000000000E+00  0.00000000000E+00  0.63574609397E+03  0.63574609397E+03  0.00000000000E+00 0.  1.
         21   -1    0    0  502  503 -0.00000000000E+00 -0.00000000000E+00 -0.10307802020E+04  0.10307802020E+04  0.00000000000E+00 0.  1.
    9000007    2    1    2  501    0 -0.31028535967E+03 -0.26642213464E+03  0.39362354069E+03  0.69223750658E+03  0.39622659613E+03 0.  0.
    9000005    1    3    3    0    0  0.33836311895E+02 -0.79926317516E+02 -0.50365612167E+02  0.10035341109E+03  0.99999687468E+00 0.  0.
          4    1    3    3  501    0 -0.34412167156E+03 -0.18649581713E+03  0.44398915285E+03  0.59188409549E+03  0.00000000000E+00 0.  1.
   -9000007    1    1    2    0  503  0.31028535967E+03  0.26642213464E+03 -0.78865764874E+03  0.97428878941E+03  0.40000000000E+03 0.  1.
<mgrwt>
<rscale>  2 0.57140532E+03</rscale>
<asrwt>0</asrwt>
<pdfrwt beam="1">  1       21 0.97807091E-01 0.57206447E+03</pdfrwt>
<pdfrwt beam="2">  1       21 0.15858157E+00 0.57206447E+03</pdfrwt>
<totfact> 0.17154388E+02</totfact>
</mgrwt>
</event>
<event>
 6    1  0.8739326E-004  0.4144106E+03  0.7818608E-02  0.1038923E+00
         21   -1    0    0  501  502  0.00000000000E+00  0.00000000000E+00  0.66191462200E+03  0.66191462200E+03  0.00000000000E+00 0.  1.
         21   -1    0    0  502  503 -0.00000000000E+00 -0.00000000000E+00 -0.52808641288E+03  0.52808641288E+03  0.00000000000E+00 0.  1.
    9000007    2    1    2  501    0 -0.79867382492E+02  0.71648179646E+02  0.49142808623E+03  0.64283567365E+03  0.40027975086E+03 0.  0.
    9000005    1    3    3    0    0 -0.12143321369E+03  0.20822653957E+03  0.18193622755E+03  0.30200349015E+03  0.99999687468E+00 0.  0.
          4    1    3    3  501    0  0.41565831203E+02 -0.13657835993E+03  0.30949185868E+03  0.34083218350E+03  0.00000000000E+00 0.  1.
   -9000007    1    1    2    0  503  0.79867382492E+02 -0.71648179646E+02 -0.35759987710E+03  0.54716536124E+03  0.40000000000E+03 0.  1.
<mgrwt>
<rscale>  2 0.41434302E+03</rscale>
<asrwt>0</asrwt>
<pdfrwt beam="1">  1       21 0.10183302E+00 0.41441059E+03</pdfrwt>
<pdfrwt beam="2">  1       21 0.81244064E-01 0.41441059E+03</pdfrwt>
<totfact> 0.89912894E+02</totfact>
</mgrwt>
</event>
<event>
 6    1  0.8739326E-004  0.4526533E+03  0.7818608E-02  0.1026942E+00
         21   -1    0    0  501  502  0.00000000000E+00  0.00000000000E+00  0.19743688077E+03  0.19743688077E+03  0.00000000000E+00 0. -1.
         21   -1    0    0  502  503 -0.00000000000E+00 -0.00000000000E+00 -0.12517399514E+04  0.12517399514E+04  0.00000000000E+00 0. -1.
    9000007    2    1    2  501    0 -0.12500943345E+03 -0.17107797631E+03 -0.22734317712E+03  0.50643736768E+03  0.39987354848E+03 0.  0.
    9000005    1    3    3    0    0 -0.22960815028E+03 -0.12150741395E+03 -0.97370491769E+01  0.25996108255E+03  0.99999687468E+00 0.  0.
          4    1    3    3  501    0  0.10459871683E+03 -0.49570562357E+02 -0.21760612794E+03  0.24647628513E+03  0.00000000000E+00 0.  1.
   -9000007    1    1    2    0  503  0.12500943345E+03  0.17107797631E+03 -0.82695989352E+03  0.94273946449E+03  0.40000000000E+03 0. -1.
<mgrwt>
<rscale>  2 0.45262539E+03</rscale>
<asrwt>0</asrwt>
<pdfrwt beam="1">  1       21 0.30374904E-01 0.45265332E+03</pdfrwt>
<pdfrwt beam="2">  1       21 0.19257538E+00 0.45265332E+03</pdfrwt>
<totfact> 0.13100409E+03</totfact>
</mgrwt>
</event>
<event>
 6    1  0.8739326E-004  0.4407104E+03  0.7818608E-02  0.1030533E+00
         21   -1    0    0  501  502  0.00000000000E+00  0.00000000000E+00  0.42884185084E+03  0.42884185084E+03  0.00000000000E+00 0. -1.
         21   -1    0    0  502  503 -0.00000000000E+00 -0.00000000000E+00 -0.17285337022E+04  0.17285337022E+04  0.00000000000E+00 0. -1.
    9000007    2    1    2  501    0  0.18412711271E+03  0.16494700923E+02  0.27682048745E+03  0.52043755079E+03  0.40006348647E+03 0.  0.
    9000005    1    3    3    0    0 -0.92971787332E+01 -0.14092303412E+03  0.22511064052E+03  0.26574713460E+03  0.99999687468E+00 0.  0.
          4    1    3    3  501    0  0.19342429144E+03  0.15741773505E+03  0.51709846924E+02  0.25469041618E+03  0.00000000000E+00 0.  1.
   -9000007    1    1    2    0  503 -0.18412711271E+03 -0.16494700923E+02 -0.15765123388E+04  0.16369380023E+04  0.40000000000E+03 0. -1.
<mgrwt>
<rscale>  2 0.44069600E+03</rscale>
<asrwt>0</asrwt>
<pdfrwt beam="1">  1       21 0.65975668E-01 0.44071041E+03</pdfrwt>
<pdfrwt beam="2">  1       21 0.26592827E+00 0.44071041E+03</pdfrwt>
<totfact> 0.88775286E+01</totfact>
</mgrwt>
</event>
<event>
 6    1  0.8739326E-004  0.4194386E+03  0.7818608E-02  0.1037259E+00
         21   -1    0    0  501  502  0.00000000000E+00  0.00000000000E+00  0.19928660893E+03  0.19928660893E+03  0.00000000000E+00 0. -1.
         21   -1    0    0  502  503 -0.00000000000E+00 -0.00000000000E+00 -0.12784293853E+04  0.12784293853E+04  0.00000000000E+00 0. -1.
    9000007    2    1    2  501    0  0.12362305709E+03  0.23432489714E+02 -0.12846874771E+03  0.43867179374E+03  0.40012120872E+03 0.  0.
    9000005    1    3    3    0    0  0.25481731605E+03  0.75015535763E+02 -0.13415475612E+03  0.29758644752E+03  0.99999687468E+00 0.  0.
          4    1    3    3  501    0 -0.13119425897E+03 -0.51583046049E+02  0.56860084070E+01  0.14108534622E+03  0.00000000000E+00 0.  1.
   -9000007    1    1    2    0  503 -0.12362305709E+03 -0.23432489714E+02 -0.95067402861E+03  0.10390442005E+04  0.40000000000E+03 0. -1.
<mgrwt>
<rscale>  2 0.41940967E+03</rscale>
<asrwt>0</asrwt>
<pdfrwt beam="1">  1       21 0.30659478E-01 0.41943858E+03</pdfrwt>
<pdfrwt beam="2">  1       21 0.19668145E+00 0.41943858E+03</pdfrwt>
<totfact> 0.12248530E+03</totfact>
</mgrwt>
</event>
<event>
 6    1  0.8739326E-004  0.4811461E+03  0.7818608E-02  0.1018826E+00
         21   -1    0    0  501  502  0.00000000000E+00  0.00000000000E+00  0.62999699355E+03  0.62999699355E+03  0.00000000000E+00 0.  1.
         21   -1    0    0  502  503 -0.00000000000E+00 -0.00000000000E+00 -0.49684479254E+03  0.49684479254E+03  0.00000000000E+00 0. -1.
    9000007    2    1    2  501    0  0.57635913935E+02 -0.26111230318E+03  0.35414918489E+03  0.59736921802E+03  0.39990849458E+03 0.  0.
    9000005    1    3    3    0    0  0.18496665157E+03 -0.29587814573E+03  0.25045938723E+03  0.42952001579E+03  0.99999687468E+00 0.  0.
          4    1    3    3  501    0 -0.12733073763E+03  0.34765842548E+02  0.10368979765E+03  0.16784920224E+03  0.00000000000E+00 0.  1.
   -9000007    1    1    2    0  503 -0.57635913935E+02  0.26111230318E+03 -0.22099698388E+03  0.52947256806E+03  0.40000000000E+03 0. -1.
<mgrwt>
<rscale>  2 0.48112704E+03</rscale>
<asrwt>0</asrwt>
<pdfrwt beam="1">  1       21 0.96922615E-01 0.48114606E+03</pdfrwt>
<pdfrwt beam="2">  1       21 0.76437660E-01 0.48114606E+03</pdfrwt>
<totfact> 0.11345591E+03</totfact>
</mgrwt>
</event>
<event>
 6    1  0.8739326E-004  0.7512099E+03  0.7818608E-02  0.9634448E-01
         21   -1    0    0  501  502  0.00000000000E+00  0.00000000000E+00  0.21794283736E+04  0.21794283736E+04  0.00000000000E+00 0.  1.
         21   -1    0    0  502  503 -0.00000000000E+00 -0.00000000000E+00 -0.25820973571E+03  0.25820973571E+03  0.00000000000E+00 0. -1.
    9000007    2    1    2  501    0  0.57782877931E+03 -0.25812862034E+03  0.93250066537E+03  0.11974446921E+04  0.40472190076E+03 0.  0.
    9000005    1    3    3    0    0  0.27838341347E+03 -0.29687496703E+03  0.33167329006E+03  0.52501451626E+03  0.99999687468E+00 0.  0.
          4    1    3    3  501    0  0.29944536583E+03  0.38746346692E+02  0.60082737531E+03  0.67243017587E+03  0.00000000000E+00 0.  1.
   -9000007    1    1    2    0  503 -0.57782877931E+03  0.25812862034E+03  0.98871797249E+03  0.12401934172E+04  0.40000000000E+03 0. -1.
<mgrwt>
<rscale>  2 0.75057574E+03</rscale>
<asrwt>0</asrwt>
<pdfrwt beam="1">  1       21 0.33529666E+00 0.75120989E+03</pdfrwt>
<pdfrwt beam="2">  1       21 0.39724576E-01 0.75120989E+03</pdfrwt>
<totfact> 0.85688263E+01</totfact>
</mgrwt>
</event>
<event>
 6    1  0.8739326E-004  0.6603568E+03  0.7818608E-02  0.9788121E-01
         21   -1    0    0  501  502  0.00000000000E+00  0.00000000000E+00  0.29081131840E+04  0.29081131840E+04  0.00000000000E+00 0.  1.
         21   -1    0    0  502  503 -0.00000000000E+00 -0.00000000000E+00 -0.15043316544E+03  0.15043316544E+03  0.00000000000E+00 0. -1.
    9000007    2    1    2  501    0 -0.14825340907E+03 -0.50407541092E+03  0.14870029994E+04  0.16265228928E+04  0.39790414368E+03 0.  0.
    9000005    1    3    3    0    0  0.85375634924E+02  0.11843302058E+02  0.12894856239E+03  0.15510639761E+03  0.99999687468E+00 0.  0.
          4    1    3    3  501    0 -0.23362904400E+03 -0.51591871298E+03  0.13580544370E+04  0.14714164952E+04  0.00000000000E+00 0.  1.
   -9000007    1    1    2    0  503  0.14825340907E+03  0.50407541092E+03  0.12706770191E+04  0.14320234566E+04  0.40000000000E+03 0. -1.
<mgrwt>
<rscale>  2 0.66003971E+03</rscale>
<asrwt>0</asrwt>
<pdfrwt beam="1">  1       21 0.44740199E+00 0.66035679E+03</pdfrwt>
<pdfrwt beam="2">  1       21 0.23143566E-01 0.66035679E+03</pdfrwt>
<totfact> 0.49689826E+01</totfact>
</mgrwt>
</event>
<event>
 6    1  0.8739326E-004  0.5340717E+03  0.7818608E-02  0.1005257E+00
         21   -1    0    0  501  502  0.00000000000E+00  0.00000000000E+00  0.55424465680E+03  0.55424465680E+03  0.00000000000E+00 0. -1.
         21   -1    0    0  502  503 -0.00000000000E+00 -0.00000000000E+00 -0.52212023281E+03  0.52212023281E+03  0.00000000000E+00 0. -1.
    9000007    2    1    2  501    0 -0.25772999175E+03 -0.24250328380E+03  0.81050941901E+02  0.54005677345E+03  0.39982430149E+03 0.  0.
    9000005    1    3    3    0    0 -0.15437380702E+03 -0.35126197420E+03  0.51368691370E+02  0.38711237291E+03  0.99999687468E+00 0.  0.
          4    1    3    3  501    0 -0.10335618473E+03  0.10875869040E+03  0.29682250531E+02  0.15294440054E+03  0.00000000000E+00 0.  1.
   -9000007    1    1    2    0  503  0.25772999175E+03  0.24250328380E+03 -0.48926517906E+02  0.53630811616E+03  0.40000000000E+03 0. -1.
<mgrwt>
<rscale>  2 0.53403881E+03</rscale>
<asrwt>0</asrwt>
<pdfrwt beam="1">  1       21 0.85268409E-01 0.53407171E+03</pdfrwt>
<pdfrwt beam="2">  1       21 0.80326190E-01 0.53407171E+03</pdfrwt>
<totfact> 0.13474777E+03</totfact>
</mgrwt>
</event>
<event>
 6    1  0.8739326E-004  0.6751667E+03  0.7818608E-02  0.9761405E-01
         21   -1    0    0  501  502  0.00000000000E+00  0.00000000000E+00  0.63663520313E+03  0.63663520313E+03  0.00000000000E+00 0. -1.
         21   -1    0    0  502  503 -0.00000000000E+00 -0.00000000000E+00 -0.82289342513E+03  0.82289342513E+03  0.00000000000E+00 0.  1.
    9000007    2    1    2  501    0 -0.25612820157E+03 -0.47752849639E+03  0.17188674361E+03  0.69670300147E+03  0.40275910805E+03 0.  0.
    9000005    1    3    3    0    0 -0.24676225923E+03 -0.19462130462E+03  0.25165406543E+03  0.40261623593E+03  0.99999687468E+00 0.  0.
          4    1    3    3  501    0 -0.93659423365E+01 -0.28290719177E+03 -0.79767321821E+02  0.29408676553E+03  0.00000000000E+00 0.  1.
   -9000007    1    1    2    0  503  0.25612820157E+03  0.47752849639E+03 -0.35814496561E+03  0.76282562680E+03  0.40000000000E+03 0.  1.
<mgrwt>
<rscale>  2 0.67475572E+03</rscale>
<asrwt>0</asrwt>
<pdfrwt beam="1">  1       21 0.97943877E-01 0.67516666E+03</pdfrwt>
<pdfrwt beam="2">  1       21 0.12659899E+00 0.67516666E+03</pdfrwt>
<totfact> 0.30261015E+02</totfact>
</mgrwt>
</event>
<event>
 6    1  0.8739326E-004  0.4125647E+03  0.7818608E-02  0.1039730E+00
         21   -1    0    0  501  502  0.00000000000E+00  0.00000000000E+00  0.37251417487E+03  0.37251417487E+03  0.00000000000E+00 0. -1.
         21   -1    0    0  502  503 -0.00000000000E+00 -0.00000000000E+00 -0.45441971794E+03  0.45441971794E+03  0.00000000000E+00 0. -1.
    9000007    2    1    2  501    0 -0.81344071913E+02  0.38299665974E+02 -0.29501069291E+02  0.41361809185E+03  0.40264859415E+03 0.  0.
    9000005    1    3    3    0    0  0.15761298503E+03 -0.36658888946E+02 -0.38397238923E+01  0.16186868339E+03  0.99999687468E+00 0.  0.
          4    1    3    3  501    0 -0.23895705694E+03  0.74958554920E+02 -0.25661345399E+02  0.25174940847E+03  0.00000000000E+00 0.  1.
   -9000007    1    1    2    0  503  0.81344071913E+02 -0.38299665974E+02 -0.52404473776E+02  0.41331580096E+03  0.40000000000E+03 0.  1.
<mgrwt>
<rscale>  2 0.41191702E+03</rscale>
<asrwt>0</asrwt>
<pdfrwt beam="1">  1       21 0.57309873E-01 0.41256468E+03</pdfrwt>
<pdfrwt beam="2">  1       21 0.69910726E-01 0.41256468E+03</pdfrwt>
<totfact> 0.47283931E+03</totfact>
</mgrwt>
</event>
<event>
 6    1  0.8739326E-004  0.6161247E+03  0.7818608E-02  0.9872646E-01
         21   -1    0    0  501  502  0.00000000000E+00  0.00000000000E+00  0.16836214508E+03  0.16836214508E+03  0.00000000000E+00 0. -1.
         21   -1    0    0  502  503 -0.00000000000E+00 -0.00000000000E+00 -0.22561572921E+04  0.22561572921E+04  0.00000000000E+00 0.  1.
    9000007    2    1    2  501    0  0.38911509061E+03 -0.26049017504E+03 -0.10041197759E+04  0.11780773025E+04  0.40042967096E+03 0.  0.
    9000005    1    3    3    0    0  0.32582323384E+03 -0.36474691886E+03 -0.85935292444E+03  0.98878184816E+03  0.99999687468E+00 0.  0.
          4    1    3    3  501    0  0.63291856779E+02  0.10425674382E+03 -0.14476685141E+03  0.18929545434E+03  0.00000000000E+00 0.  1.
   -9000007    1    1    2    0  503 -0.38911509061E+03  0.26049017504E+03 -0.10836753712E+04  0.12464421347E+04  0.40000000000E+03 0.  1.
<mgrwt>
<rscale>  2 0.61605487E+03</rscale>
<asrwt>0</asrwt>
<pdfrwt beam="1">  1       21 0.25901871E-01 0.61612467E+03</pdfrwt>
<pdfrwt beam="2">  1       21 0.34710108E+00 0.61612467E+03</pdfrwt>
<totfact> 0.18167882E+02</totfact>
</mgrwt>
</event>
<event>
 6    1  0.8739326E-004  0.4377043E+03  0.7818608E-02  0.1031639E+00
         21   -1    0    0  501  502  0.00000000000E+00  0.00000000000E+00  0.15988606150E+04  0.15988606150E+04  0.00000000000E+00 0. -1.
         21   -1    0    0  502  503 -0.00000000000E+00 -0.00000000000E+00 -0.56983243417E+03  0.56983243417E+03  0.00000000000E+00 0. -1.
    9000007    2    1    2  501    0  0.45050863063E+02 -0.16573951324E+03  0.14791226566E+04  0.15425267744E+04  0.40259886986E+03 0.  0.
    9000005    1    3    3    0    0  0.17152104421E+03 -0.19032895687E+03  0.12797635992E+04  0.13051591666E+04  0.99999687468E+00 0.  0.
          4    1    3    3  501    0 -0.12647018114E+03  0.24589443626E+02  0.19935905741E+03  0.23736760779E+03  0.00000000000E+00 0.  1.
   -9000007    1    1    2    0  503 -0.45050863063E+02  0.16573951324E+03 -0.45009447578E+03  0.62616627475E+03  0.40000000000E+03 0. -1.
<mgrwt>
<rscale>  2 0.43710572E+03</rscale>
<asrwt>0</asrwt>
<pdfrwt beam="1">  1       21 0.24597855E+00 0.43770426E+03</pdfrwt>
<pdfrwt beam="2">  1       21 0.87666529E-01 0.43770426E+03</pdfrwt>
<totfact> 0.61452311E+01</totfact>
</mgrwt>
</event>
<event>
 6    1  0.8739326E-004  0.4285159E+03  0.7818608E-02  0.1034347E+00
         21   -1    0    0  501  502  0.00000000000E+00  0.00000000000E+00  0.36303115461E+03  0.36303115461E+03  0.00000000000E+00 0.  1.
         21   -1    0    0  502  503 -0.00000000000E+00 -0.00000000000E+00 -0.64158029025E+03  0.64158029025E+03  0.00000000000E+00 0.  1.
    9000007    2    1    2  501    0 -0.13880349945E+03  0.66026339585E+02  0.92038007857E+02  0.43807749187E+03  0.39976868938E+03 0.  0.
    9000005    1    3    3    0    0 -0.22247839160E+03 -0.80652379198E+02 -0.16687254967E+02  0.23723597002E+03  0.99999687468E+00 0.  0.
          4    1    3    3  501    0  0.83674892152E+02  0.14667871878E+03  0.10872526282E+03  0.20084152184E+03  0.00000000000E+00 0.  1.
   -9000007    1    1    2    0  503  0.13880349945E+03 -0.66026339585E+02 -0.37058714349E+03  0.56653395300E+03  0.40000000000E+03 0.  1.
<mgrwt>
<rscale>  2 0.42846193E+03</rscale>
<asrwt>0</asrwt>
<pdfrwt beam="1">  1       21 0.55850947E-01 0.42851591E+03</pdfrwt>
<pdfrwt beam="2">  1       21 0.98704660E-01 0.42851591E+03</pdfrwt>
<totfact> 0.22277275E+03</totfact>
</mgrwt>
</event>
<event>
 6    1  0.8739326E-004  0.4370979E+03  0.7818608E-02  0.1031658E+00
         21   -1    0    0  501  502  0.00000000000E+00  0.00000000000E+00  0.11162455314E+04  0.11162455314E+04  0.00000000000E+00 0. -1.
         21   -1    0    0  502  503 -0.00000000000E+00 -0.00000000000E+00 -0.25009210808E+03  0.25009210808E+03  0.00000000000E+00 0. -1.
    9000007    2    1    2  501    0  0.14876039612E+03 -0.93428435490E+02  0.81717054070E+03  0.92672661730E+03  0.40024492827E+03 0.  0.
    9000005    1    3    3    0    0  0.91378034026E+02  0.15365210759E+03  0.27279366360E+03  0.32615379526E+03  0.99999687468E+00 0.  0.
          4    1    3    3  501    0  0.57382362094E+02 -0.24708054308E+03  0.54437687710E+03  0.60057282204E+03  0.00000000000E+00 0.  1.
   -9000007    1    1    2    0  503 -0.14876039612E+03  0.93428435490E+02  0.48982882596E+02  0.43961102215E+03  0.40000000000E+03 0. -1.
<mgrwt>
<rscale>  2 0.43704177E+03</rscale>
<asrwt>0</asrwt>
<pdfrwt beam="1">  1       21 0.17173008E+00 0.43709785E+03</pdfrwt>
<pdfrwt beam="2">  1       21 0.38475710E-01 0.43709785E+03</pdfrwt>
<totfact> 0.11457341E+03</totfact>
</mgrwt>
</event>
<event>
 6    1  0.8739326E-004  0.5165102E+03  0.7818608E-02  0.1009963E+00
         21   -1    0    0  501  502  0.00000000000E+00  0.00000000000E+00  0.86802104569E+03  0.86802104569E+03  0.00000000000E+00 0. -1.
         21   -1    0    0  502  503 -0.00000000000E+00 -0.00000000000E+00 -0.51867611623E+03  0.51867611623E+03  0.00000000000E+00 0.  1.
    9000007    2    1    2  501    0 -0.31547642924E+03 -0.25629779415E+02  0.62185562739E+03  0.80838553012E+03  0.40816722184E+03 0.  0.
    9000005    1    3    3    0    0 -0.36561614743E+03  0.38063708210E+02  0.29413030133E+03  0.47078407715E+03  0.99999687468E+00 0.  0.
          4    1    3    3  501    0  0.50139718186E+02 -0.63693487625E+02  0.32772532606E+03  0.33760145297E+03  0.00000000000E+00 0.  1.
   -9000007    1    1    2    0  503  0.31547642924E+03  0.25629779415E+02 -0.27251069792E+03  0.57831163181E+03  0.40000000000E+03 0.  1.
<mgrwt>
<rscale>  2 0.51489522E+03</rscale>
<asrwt>0</asrwt>
<pdfrwt beam="1">  1       21 0.13354170E+00 0.51651016E+03</pdfrwt>
<pdfrwt beam="2">  1       21 0.79796326E-01 0.51651016E+03</pdfrwt>
<totfact> 0.45266124E+02</totfact>
</mgrwt>
</event>
<event>
 6    1  0.8739326E-004  0.5607250E+03  0.7818608E-02  0.9990521E-01
         21   -1    0    0  501  502  0.00000000000E+00  0.00000000000E+00  0.39158044961E+03  0.39158044961E+03  0.00000000000E+00 0. -1.
         21   -1    0    0  502  503 -0.00000000000E+00 -0.00000000000E+00 -0.91677491061E+03  0.91677491061E+03  0.00000000000E+00 0.  1.
    9000007    2    1    2  501    0  0.38685073968E+03  0.68985398114E+02 -0.31764571698E+02  0.56143800495E+03  0.39973887157E+03 0.  0.
    9000005    1    3    3    0    0 -0.75397119619E+02  0.26953362265E+02  0.43643633948E+02  0.91197456994E+02  0.99999687468E+00 0.  0.
          4    1    3    3  501    0  0.46224785930E+03  0.42032035848E+02 -0.75408205645E+02  0.47024054796E+03  0.00000000000E+00 0.  1.
   -9000007    1    1    2    0  503 -0.38685073968E+03 -0.68985398114E+02 -0.49342988931E+03  0.74691735527E+03  0.40000000000E+03 0.  1.
<mgrwt>
<rscale>  2 0.56067839E+03</rscale>
<asrwt>0</asrwt>
<pdfrwt beam="1">  1       21 0.60243147E-01 0.56072496E+03</pdfrwt>
<pdfrwt beam="2">  1       21 0.14104229E+00 0.56072496E+03</pdfrwt>
<totfact> 0.72665901E+02</totfact>
</mgrwt>
</event>
<event>
 6    1  0.8739326E-004  0.4098139E+03  0.7818608E-02  0.1040800E+00
         21   -1    0    0  501  502  0.00000000000E+00  0.00000000000E+00  0.10375479093E+04  0.10375479093E+04  0.00000000000E+00 0.  1.
         21   -1    0    0  502  503 -0.00000000000E+00 -0.00000000000E+00 -0.43254770447E+03  0.43254770447E+03  0.00000000000E+00 0.  1.
    9000007    2    1    2  501    0  0.35709116280E+02 -0.55954124277E+02  0.88639600820E+03  0.97654763929E+03  0.40440252650E+03 0.  0.
    9000005    1    3    3    0    0  0.11693894697E+03 -0.84673732384E+02  0.79022620158E+02  0.16459019644E+03  0.99999687468E+00 0.  0.
          4    1    3    3  501    0 -0.81229830687E+02  0.28719608107E+02  0.80737338804E+03  0.81195744285E+03  0.00000000000E+00 0.  1.
   -9000007    1    1    2    0  503 -0.35709116280E+02  0.55954124277E+02 -0.28139580334E+03  0.49354797451E+03  0.40000000000E+03 0.  1.
<mgrwt>
<rscale>  2 0.40872359E+03</rscale>
<asrwt>0</asrwt>
<pdfrwt beam="1">  1       21 0.15962276E+00 0.40981387E+03</pdfrwt>
<pdfrwt beam="2">  1       21 0.66545801E-01 0.40981387E+03</pdfrwt>
<totfact> 0.44355721E+02</totfact>
</mgrwt>
</event>
<event>
 6    1  0.8739326E-004  0.5404172E+03  0.7818608E-02  0.1003743E+00
         21   -1    0    0  501  502  0.00000000000E+00  0.00000000000E+00  0.10798937561E+04  0.10798937561E+04  0.00000000000E+00 0. -1.
         21   -1    0    0  502  503 -0.00000000000E+00 -0.00000000000E+00 -0.44004138326E+03  0.44004138326E+03  0.00000000000E+00 0. -1.
    9000007    2    1    2  501    0 -0.33929374130E+03 -0.12969417064E+03  0.79181547475E+03  0.95865659429E+03  0.40013735009E+03 0.  0.
    9000005    1    3    3    0    0 -0.40554895411E+03 -0.19132975164E+03  0.68420526982E+03  0.81805554780E+03  0.99999687468E+00 0.  0.
          4    1    3    3  501    0  0.66255212807E+02  0.61635581000E+02  0.10761020493E+03  0.14060104649E+03  0.00000000000E+00 0.  1.
   -9000007    1    1    2    0  503  0.33929374130E+03  0.12969417064E+03 -0.15196310193E+03  0.56127854505E+03  0.40000000000E+03 0. -1.
<mgrwt>
<rscale>  2 0.54039175E+03</rscale>
<asrwt>0</asrwt>
<pdfrwt beam="1">  1       21 0.16613750E+00 0.54041717E+03</pdfrwt>
<pdfrwt beam="2">  1       21 0.67698675E-01 0.54041717E+03</pdfrwt>
<totfact> 0.35943857E+02</totfact>
</mgrwt>
</event>
<event>
 6    1  0.8739326E-004  0.4854878E+03  0.7818608E-02  0.1017660E+00
         21   -1    0    0  501  502  0.00000000000E+00  0.00000000000E+00  0.60146457780E+03  0.60146457780E+03  0.00000000000E+00 0. -1.
         21   -1    0    0  502  503 -0.00000000000E+00 -0.00000000000E+00 -0.39927886207E+03  0.39927886207E+03  0.00000000000E+00 0.  1.
    9000007    2    1    2  501    0  0.14293900844E+03  0.23508897874E+03  0.31708367896E+02  0.48619420589E+03  0.39960104754E+03 0.  0.
    9000005    1    3    3    0    0  0.17197624643E+02  0.29775186877E+03  0.11864330095E+03  0.32098156724E+03  0.99999687468E+00 0.  0.
          4    1    3    3  501    0  0.12574138379E+03 -0.62662890035E+02 -0.86934933057E+02  0.16521263866E+03  0.00000000000E+00 0.  1.
   -9000007    1    1    2    0  503 -0.14293900844E+03 -0.23508897874E+03  0.17047734784E+03  0.51454923398E+03  0.40000000000E+03 0. -1.
<mgrwt>
<rscale>  2 0.48540560E+03</rscale>
<asrwt>0</asrwt>
<pdfrwt beam="1">  1       21 0.92533012E-01 0.48548778E+03</pdfrwt>
<pdfrwt beam="2">  1       21 0.61427517E-01 0.48548778E+03</pdfrwt>
<totfact> 0.20693476E+03</totfact>
</mgrwt>
</event>
<event>
 6    1  0.8739326E-004  0.4148848E+03  0.7818608E-02  0.1038817E+00
         21   -1    0    0  501  502  0.00000000000E+00  0.00000000000E+00  0.25993100894E+03  0.25993100894E+03  0.00000000000E+00 0. -1.
         21   -1    0    0  502  503 -0.00000000000E+00 -0.00000000000E+00 -0.71017625812E+03  0.71017625812E+03  0.00000000000E+00 0. -1.
    9000007    2    1    2  501    0 -0.59598364538E+01 -0.10657764078E+03 -0.97444400778E+02  0.42617459494E+03  0.40091777332E+03 0.  0.
    9000005    1    3    3    0    0  0.51297386821E+02  0.35033909477E+02 -0.22109033575E+03  0.22965350697E+03  0.99999687468E+00 0.  0.
          4    1    3    3  501    0 -0.57257223275E+02 -0.14161155025E+03  0.12364593497E+03  0.19652108797E+03  0.00000000000E+00 0.  1.
   -9000007    1    1    2    0  503  0.59598364538E+01  0.10657764078E+03 -0.35280084840E+03  0.54393267212E+03  0.40000000000E+03 0. -1.
<mgrwt>
<rscale>  2 0.41466289E+03</rscale>
<asrwt>0</asrwt>
<pdfrwt beam="1">  1       21 0.39989387E-01 0.41488477E+03</pdfrwt>
<pdfrwt beam="2">  1       21 0.10925788E+00 0.41488477E+03</pdfrwt>
<totfact> 0.35306665E+03</totfact>
</mgrwt>
</event>
<event>
 6    1  0.8739326E-004  0.4024533E+03  0.7818608E-02  0.1042956E+00
         21   -1    0    0  501  502  0.00000000000E+00  0.00000000000E+00  0.11911217453E+03  0.11911217453E+03  0.00000000000E+00 0.  1.
         21   -1    0    0  502  503 -0.00000000000E+00 -0.00000000000E+00 -0.35607812307E+04  0.35607812307E+04  0.00000000000E+00 0.  1.
    9000007    2    1    2  501    0 -0.37736462585E+02 -0.18387849032E+02 -0.27418451632E+03  0.48697617112E+03  0.40025802759E+03 0.  0.
    9000005    1    3    3    0    0  0.17809638835E+03 -0.41852460886E+02 -0.99082444224E+02  0.20805836386E+03  0.99999687468E+00 0.  0.
          4    1    3    3  501    0 -0.21583285094E+03  0.23464611854E+02 -0.17510207209E+03  0.27891780726E+03  0.00000000000E+00 0.  1.
   -9000007    1    1    2    0  503  0.37736462585E+02  0.18387849032E+02 -0.31674845399E+04  0.31929172341E+04  0.40000000000E+03 0.  1.
<mgrwt>
<rscale>  2 0.40238911E+03</rscale>
<asrwt>0</asrwt>
<pdfrwt beam="1">  1       21 0.18324952E-01 0.40245328E+03</pdfrwt>
<pdfrwt beam="2">  1       21 0.54781243E+00 0.40245328E+03</pdfrwt>
<totfact> 0.17614721E+01</totfact>
</mgrwt>
</event>
<event>
 6    1  0.8739326E-004  0.7473878E+03  0.7818608E-02  0.9640144E-01
         21   -1    0    0  501  502  0.00000000000E+00  0.00000000000E+00  0.83224263282E+03  0.83224263282E+03  0.00000000000E+00 0. -1.
         21   -1    0    0  502  503 -0.00000000000E+00 -0.00000000000E+00 -0.75855277312E+03  0.75855277312E+03  0.00000000000E+00 0.  1.
    9000007    2    1    2  501    0 -0.27558893800E+03  0.56572040809E+03  0.30922659682E+03  0.80883223710E+03  0.40323647742E+03 0.  0.
    9000005    1    3    3    0    0 -0.20342143003E+03  0.39991151011E+03  0.40480021103E+03  0.60429604082E+03  0.99999687468E+00 0.  0.
          4    1    3    3  501    0 -0.72167507973E+02  0.16580889798E+03 -0.95573614211E+02  0.20453619628E+03  0.00000000000E+00 0.  1.
   -9000007    1    1    2    0  503  0.27558893800E+03 -0.56572040809E+03 -0.23553673711E+03  0.78196316883E+03  0.40000000000E+03 0.  1.
<mgrwt>
<rscale>  2 0.74695211E+03</rscale>
<asrwt>0</asrwt>
<pdfrwt beam="1">  1       21 0.12803733E+00 0.74738778E+03</pdfrwt>
<pdfrwt beam="2">  1       21 0.11670043E+00 0.74738778E+03</pdfrwt>
<totfact> 0.18560187E+02</totfact>
</mgrwt>
</event>
<event>
 6    1  0.8739326E-004  0.4087549E+03  0.7818608E-02  0.1041140E+00
         21   -1    0    0  501  502  0.00000000000E+00  0.00000000000E+00  0.45183613023E+03  0.45183613023E+03  0.00000000000E+00 0. -1.
         21   -1    0    0  502  503 -0.00000000000E+00 -0.00000000000E+00 -0.37508693055E+03  0.37508693055E+03  0.00000000000E+00 0. -1.
    9000007    2    1    2  501    0 -0.39820954893E+02 -0.74127239705E+02  0.10237886161E+03  0.41736545105E+03  0.39576752306E+03 0.  0.
    9000005    1    3    3    0    0 -0.49989607110E+02 -0.47115956801E+02  0.25394590203E+03  0.26307488545E+03  0.99999687468E+00 0.  0.
          4    1    3    3  501    0  0.10168652216E+02 -0.27011282904E+02 -0.15156704042E+03  0.15429056560E+03  0.00000000000E+00 0.  1.
   -9000007    1    1    2    0  503  0.39820954893E+02  0.74127239705E+02 -0.25629661928E+02  0.40955760973E+03  0.40000000000E+03 0. -1.
<mgrwt>
<rscale>  2 0.40771571E+03</rscale>
<asrwt>0</asrwt>
<pdfrwt beam="1">  1       21 0.69513251E-01 0.40875489E+03</pdfrwt>
<pdfrwt beam="2">  1       21 0.57705682E-01 0.40875489E+03</pdfrwt>
<totfact> 0.47247758E+03</totfact>
</mgrwt>
</event>
<event>
 6    1  0.8739326E-004  0.4944537E+03  0.7818608E-02  0.1015254E+00
         21   -1    0    0  501  502  0.00000000000E+00  0.00000000000E+00  0.11932493157E+04  0.11932493157E+04  0.00000000000E+00 0.  1.
         21   -1    0    0  502  503 -0.00000000000E+00 -0.00000000000E+00 -0.21626149596E+03  0.21626149596E+03  0.00000000000E+00 0.  1.
    9000007    2    1    2  501    0  0.29017638031E+03  0.42658858249E+01  0.65101128629E+03  0.81749625963E+03  0.40032975178E+03 0.  0.
    9000005    1    3    3    0    0 -0.10439215143E+02  0.13781212311E+03  0.83304163334E+02  0.16137453985E+03  0.99999687468E+00 0.  0.
          4    1    3    3  501    0  0.30061559545E+03 -0.13354623728E+03  0.56770712296E+03  0.65612171979E+03  0.00000000000E+00 0.  1.
   -9000007    1    1    2    0  503 -0.29017638031E+03 -0.42658858249E+01  0.32597653348E+03  0.59201455206E+03  0.40000000000E+03 0.  1.
<mgrwt>
<rscale>  2 0.49438693E+03</rscale>
<asrwt>0</asrwt>
<pdfrwt beam="1">  1       21 0.18357681E+00 0.49445368E+03</pdfrwt>
<pdfrwt beam="2">  1       21 0.33271000E-01 0.49445368E+03</pdfrwt>
<totfact> 0.12372103E+03</totfact>
</mgrwt>
</event>
<event>
 6    1  0.8739326E-004  0.4464613E+03  0.7818608E-02  0.1028808E+00
         21   -1    0    0  501  502  0.00000000000E+00  0.00000000000E+00  0.49968969005E+03  0.49968969005E+03  0.00000000000E+00 0.  1.
         21   -1    0    0  502  503 -0.00000000000E+00 -0.00000000000E+00 -0.40654827857E+03  0.40654827857E+03  0.00000000000E+00 0.  1.
    9000007    2    1    2  501    0  0.19093504723E+03  0.53586512318E+02 -0.16798996575E+02  0.44643953464E+03  0.39962275365E+03 0.  0.
    9000005    1    3    3    0    0  0.18227032972E+02  0.20732887077E+03 -0.46653552270E+02  0.21329566174E+03  0.99999687468E+00 0.  0.
          4    1    3    3  501    0  0.17270801426E+03 -0.15374235845E+03  0.29854555694E+02  0.23314387290E+03  0.00000000000E+00 0.  1.
   -9000007    1    1    2    0  503 -0.19093504723E+03 -0.53586512318E+02  0.10994040806E+03  0.45979843398E+03  0.40000000000E+03 0.  1.
<mgrwt>
<rscale>  2 0.44637680E+03</rscale>
<asrwt>0</asrwt>
<pdfrwt beam="1">  1       21 0.76875337E-01 0.44646132E+03</pdfrwt>
<pdfrwt beam="2">  1       21 0.62545889E-01 0.44646132E+03</pdfrwt>
<totfact> 0.31100851E+03</totfact>
</mgrwt>
</event>
<event>
 6    1  0.8739326E-004  0.5954684E+03  0.7818608E-02  0.9915021E-01
         21   -1    0    0  501  502  0.00000000000E+00  0.00000000000E+00  0.96134588072E+03  0.96134588072E+03  0.00000000000E+00 0. -1.
         21   -1    0    0  502  503 -0.00000000000E+00 -0.00000000000E+00 -0.37733666028E+03  0.37733666028E+03  0.00000000000E+00 0.  1.
    9000007    2    1    2  501    0  0.43501554899E+03  0.70428680929E+02  0.19046705903E+03  0.62518821043E+03  0.40047955119E+03 0.  0.
    9000005    1    3    3    0    0  0.29807258332E+03  0.13539016951E+03  0.29530838064E+03  0.44089205322E+03  0.99999687468E+00 0.  0.
          4    1    3    3  501    0  0.13694296566E+03 -0.64961488576E+02 -0.10484132161E+03  0.18429615720E+03  0.00000000000E+00 0.  1.
   -9000007    1    1    2    0  503 -0.43501554899E+03 -0.70428680929E+02  0.39354216140E+03  0.71349433057E+03  0.40000000000E+03 0. -1.
<mgrwt>
<rscale>  2 0.59538777E+03</rscale>
<asrwt>0</asrwt>
<pdfrwt beam="1">  1       21 0.14789936E+00 0.59546839E+03</pdfrwt>
<pdfrwt beam="2">  1       21 0.58051794E-01 0.59546839E+03</pdfrwt>
<totfact> 0.68506262E+02</totfact>
</mgrwt>
</event>
<event>
 6    1  0.8739326E-004  0.5298506E+03  0.7818608E-02  0.1006433E+00
         21   -1    0    0  501  502  0.00000000000E+00  0.00000000000E+00  0.10986461801E+04  0.10986461801E+04  0.00000000000E+00 0.  1.
         21   -1    0    0  502  503 -0.00000000000E+00 -0.00000000000E+00 -0.29065378301E+03  0.29065378301E+03  0.00000000000E+00 0. -1.
    9000007    2    1    2  501    0  0.19860397619E+03  0.28512828514E+03  0.15717880814E+03  0.55007412586E+03  0.39640217944E+03 0.  0.
    9000005    1    3    3    0    0  0.50121079192E+02  0.32635742137E+03  0.32204827680E+00  0.33018539152E+03  0.99999687468E+00 0.  0.
          4    1    3    3  501    0  0.14848289700E+03 -0.41229136231E+02  0.15685675986E+03  0.21988873434E+03  0.00000000000E+00 0.  1.
   -9000007    1    1    2    0  503 -0.19860397619E+03 -0.28512828514E+03  0.65081358890E+03  0.83922583721E+03  0.40000000000E+03 0.  1.
<mgrwt>
<rscale>  2 0.52917161E+03</rscale>
<asrwt>0</asrwt>
<pdfrwt beam="1">  1       21 0.16902249E+00 0.52985062E+03</pdfrwt>
<pdfrwt beam="2">  1       21 0.44715967E-01 0.52985062E+03</pdfrwt>
<totfact> 0.84513180E+02</totfact>
</mgrwt>
</event>
<event>
 6    1  0.8739326E-004  0.5237514E+03  0.7818608E-02  0.1007811E+00
         21   -1    0    0  501  502  0.00000000000E+00  0.00000000000E+00  0.83688662790E+03  0.83688662790E+03  0.00000000000E+00 0. -1.
         21   -1    0    0  502  503 -0.00000000000E+00 -0.00000000000E+00 -0.39004068803E+03  0.39004068803E+03  0.00000000000E+00 0. -1.
    9000007    2    1    2  501    0 -0.31422987527E+03 -0.12119997565E+03  0.46971090468E+03  0.70352244853E+03  0.40110553847E+03 0.  0.
    9000005    1    3    3    0    0 -0.31406992113E+03  0.38731473212E+01  0.12717258124E+03  0.33886395801E+03  0.99999687468E+00 0.  0.
          4    1    3    3  501    0 -0.15995414337E+00 -0.12507312297E+03  0.34253832344E+03  0.36465849051E+03  0.00000000000E+00 0.  1.
   -9000007    1    1    2    0  503  0.31422987527E+03  0.12119997565E+03 -0.22864964805E+02  0.52340486741E+03  0.40000000000E+03 0. -1.
<mgrwt>
<rscale>  2 0.52353970E+03</rscale>
<asrwt>0</asrwt>
<pdfrwt beam="1">  1       21 0.12875179E+00 0.52375137E+03</pdfrwt>
<pdfrwt beam="2">  1       21 0.60006260E-01 0.52375137E+03</pdfrwt>
<totfact> 0.94459856E+02</totfact>
</mgrwt>
</event>
<event>
 6    1  0.8739326E-004  0.4263130E+03  0.7818608E-02  0.1035051E+00
         21   -1    0    0  501  502  0.00000000000E+00  0.00000000000E+00  0.24121486803E+03  0.24121486803E+03  0.00000000000E+00 0.  1.
         21   -1    0    0  502  503 -0.00000000000E+00 -0.00000000000E+00 -0.89105414749E+03  0.89105414749E+03  0.00000000000E+00 0.  1.
    9000007    2    1    2  501    0  0.23732800103E+02 -0.14553197102E+03 -0.10199515467E+03  0.43809613687E+03  0.39972792393E+03 0.  0.
    9000005    1    3    3    0    0 -0.15584204678E+03  0.38749397596E+02 -0.81196035963E+02  0.17995014757E+03  0.99999687468E+00 0.  0.
          4    1    3    3  501    0  0.17957484689E+03 -0.18428136862E+03 -0.20799118711E+02  0.25814598930E+03  0.00000000000E+00 0.  1.
   -9000007    1    1    2    0  503 -0.23732800103E+02  0.14553197102E+03 -0.54784412479E+03  0.69417287865E+03  0.40000000000E+03 0.  1.
<mgrwt>
<rscale>  2 0.42624920E+03</rscale>
<asrwt>0</asrwt>
<pdfrwt beam="1">  1       21 0.37109980E-01 0.42631303E+03</pdfrwt>
<pdfrwt beam="2">  1       21 0.13708525E+00 0.42631303E+03</pdfrwt>
<totfact> 0.22977080E+03</totfact>
</mgrwt>
</event>
<event>
 6    1  0.8739326E-004  0.4134005E+03  0.7818608E-02  0.1039268E+00
         21   -1    0    0  501  502  0.00000000000E+00  0.00000000000E+00  0.90067807405E+02  0.90067807405E+02  0.00000000000E+00 0.  1.
         21   -1    0    0  502  503 -0.00000000000E+00 -0.00000000000E+00 -0.18985655142E+04  0.18985655142E+04  0.00000000000E+00 0.  1.
    9000007    2    1    2  501    0 -0.94965170398E+02 -0.43377558055E+02 -0.86520433473E+03  0.95872925719E+03  0.39960386837E+03 0.  0.
    9000005    1    3    3    0    0 -0.12415883347E+02  0.56414813390E+02  0.22223828137E+02  0.61900596604E+02  0.99999687468E+00 0.  0.
          4    1    3    3  501    0 -0.82549287051E+02 -0.99792371445E+02 -0.88742816287E+03  0.89682866058E+03  0.00000000000E+00 0.  1.
   -9000007    1    1    2    0  503  0.94965170398E+02  0.43377558055E+02 -0.94329337209E+03  0.10299040644E+04  0.40000000000E+03 0.  1.
<mgrwt>
<rscale>  2 0.41330467E+03</rscale>
<asrwt>0</asrwt>
<pdfrwt beam="1">  1       21 0.13856587E-01 0.41340053E+03</pdfrwt>
<pdfrwt beam="2">  1       21 0.29208697E+00 0.41340053E+03</pdfrwt>
<totfact> 0.14268073E+03</totfact>
</mgrwt>
</event>
<event>
 6    1  0.8739326E-004  0.4620401E+03  0.7818608E-02  0.1024211E+00
         21   -1    0    0  501  502  0.00000000000E+00  0.00000000000E+00  0.92175343903E+03  0.92175343903E+03  0.00000000000E+00 0. -1.
         21   -1    0    0  502  503 -0.00000000000E+00 -0.00000000000E+00 -0.46533390919E+03  0.46533390919E+03  0.00000000000E+00 0. -1.
    9000007    2    1    2  501    0  0.74122707532E+02 -0.21905911157E+03  0.71985267105E+03  0.85522449933E+03  0.39967487550E+03 0.  0.
    9000005    1    3    3    0    0  0.83858860978E+02 -0.27282421445E+03  0.24185064793E+03  0.37410973852E+03  0.99999687468E+00 0.  0.
          4    1    3    3  501    0 -0.97361534458E+01  0.53765102875E+02  0.47800202312E+03  0.48111476081E+03  0.00000000000E+00 0.  1.
   -9000007    1    1    2    0  503 -0.74122707532E+02  0.21905911157E+03 -0.26343314122E+03  0.53186284889E+03  0.40000000000E+03 0. -1.
<mgrwt>
<rscale>  2 0.46196974E+03</rscale>
<asrwt>0</asrwt>
<pdfrwt beam="1">  1       21 0.14180822E+00 0.46204012E+03</pdfrwt>
<pdfrwt beam="2">  1       21 0.71589832E-01 0.46204012E+03</pdfrwt>
<totfact> 0.50645951E+02</totfact>
</mgrwt>
</event>
<event>
 6    1  0.8739326E-004  0.4181536E+03  0.7818608E-02  0.1037834E+00
         21   -1    0    0  501  502  0.00000000000E+00  0.00000000000E+00  0.22548878844E+03  0.22548878844E+03  0.00000000000E+00 0.  1.
         21   -1    0    0  502  503 -0.00000000000E+00 -0.00000000000E+00 -0.98876831744E+03  0.98876831744E+03  0.00000000000E+00 0.  1.
    9000007    2    1    2  501    0 -0.24674845549E+02  0.11207904159E+03 -0.97895616036E+02  0.42946011863E+03  0.40209685685E+03 0.  0.
    9000005    1    3    3    0    0 -0.19343861486E+02  0.20926158060E+03 -0.19878456432E+03  0.28927650630E+03  0.99999687468E+00 0.  0.
          4    1    3    3  501    0 -0.53309840631E+01 -0.97182539012E+02  0.10088894828E+03  0.14018361233E+03  0.00000000000E+00 0.  1.
   -9000007    1    1    2    0  503  0.24674845549E+02 -0.11207904159E+03 -0.66538391296E+03  0.78479698725E+03  0.40000000000E+03 0.  1.
<mgrwt>
<rscale>  2 0.41764871E+03</rscale>
<asrwt>0</asrwt>
<pdfrwt beam="1">  1       21 0.34690584E-01 0.41815361E+03</pdfrwt>
<pdfrwt beam="2">  1       21 0.15211820E+00 0.41815361E+03</pdfrwt>
<totfact> 0.19998668E+03</totfact>
</mgrwt>
</event>
<event>
 6    1  0.8739326E-004  0.5556182E+03  0.7818608E-02  0.1000242E+00
         21   -1    0    0  501  502  0.00000000000E+00  0.00000000000E+00  0.12561189347E+04  0.12561189347E+04  0.00000000000E+00 0. -1.
         21   -1    0    0  502  503 -0.00000000000E+00 -0.00000000000E+00 -0.28897541154E+03  0.28897541154E+03  0.00000000000E+00 0.  1.
    9000007    2    1    2  501    0  0.23374465572E+03 -0.30543574488E+03  0.78364264933E+03  0.96062866801E+03  0.40097889922E+03 0.  0.
    9000005    1    3    3    0    0  0.14433587806E+02 -0.10624336497E+03  0.60551349520E+03  0.61493379637E+03  0.99999687468E+00 0.  0.
          4    1    3    3  501    0  0.21931106791E+03 -0.19919237991E+03  0.17812915413E+03  0.34569487164E+03  0.00000000000E+00 0.  1.
   -9000007    1    1    2    0  503 -0.23374465572E+03  0.30543574488E+03  0.18350087382E+03  0.58446567823E+03  0.40000000000E+03 0. -1.
<mgrwt>
<rscale>  2 0.55544165E+03</rscale>
<asrwt>0</asrwt>
<pdfrwt beam="1">  1       21 0.19324906E+00 0.55561825E+03</pdfrwt>
<pdfrwt beam="2">  1       21 0.44457756E-01 0.55561825E+03</pdfrwt>
<totfact> 0.57078268E+02</totfact>
</mgrwt>
</event>
<event>
 6    1  0.8739326E-004  0.4651231E+03  0.7818608E-02  0.1023397E+00
         21   -1    0    0  501  502  0.00000000000E+00  0.00000000000E+00  0.34213195074E+03  0.34213195074E+03  0.00000000000E+00 0. -1.
         21   -1    0    0  502  503 -0.00000000000E+00 -0.00000000000E+00 -0.67606305588E+03  0.67606305588E+03  0.00000000000E+00 0. -1.
    9000007    2    1    2  501    0  0.22262272570E+03 -0.74837514979E+02 -0.35166316086E+02  0.46645056322E+03  0.40146970806E+03 0.  0.
    9000005    1    3    3    0    0  0.31596825304E+03 -0.11774373728E+03  0.39426494677E+02  0.33949222830E+03  0.99999687468E+00 0.  0.
          4    1    3    3  501    0 -0.93345527341E+02  0.42906222302E+02 -0.74592810763E+02  0.12695833492E+03  0.00000000000E+00 0.  1.
   -9000007    1    1    2    0  503 -0.22262272570E+03  0.74837514979E+02 -0.29876478905E+03  0.55174444340E+03  0.40000000000E+03 0. -1.
<mgrwt>
<rscale>  2 0.46480574E+03</rscale>
<asrwt>0</asrwt>
<pdfrwt beam="1">  1       21 0.52635686E-01 0.46512306E+03</pdfrwt>
<pdfrwt beam="2">  1       21 0.10400970E+00 0.46512306E+03</pdfrwt>
<totfact> 0.21971536E+03</totfact>
</mgrwt>
</event>
<event>
 6    1  0.8739326E-004  0.4033643E+03  0.7818608E-02  0.1042677E+00
         21   -1    0    0  501  502  0.00000000000E+00  0.00000000000E+00  0.12459118866E+04  0.12459118866E+04  0.00000000000E+00 0.  1.
         21   -1    0    0  502  503 -0.00000000000E+00 -0.00000000000E+00 -0.16341725525E+03  0.16341725525E+03  0.00000000000E+00 0.  1.
    9000007    2    1    2  501    0 -0.38914601961E+02  0.34473281253E+02  0.85774934445E+03  0.94757899583E+03  0.39933602649E+03 0.  0.
    9000005    1    3    3    0    0 -0.50989645290E+02  0.19849012279E+03  0.65613326810E+03  0.68739372871E+03  0.99999687468E+00 0.  0.
          4    1    3    3  501    0  0.12075043330E+02 -0.16401684154E+03  0.20161607636E+03  0.26018526712E+03  0.00000000000E+00 0.  1.
   -9000007    1    1    2    0  503  0.38914601961E+02 -0.34473281253E+02  0.22474528689E+03  0.46175014602E+03  0.40000000000E+03 0.  1.
<mgrwt>
<rscale>  2 0.40319959E+03</rscale>
<asrwt>0</asrwt>
<pdfrwt beam="1">  1       21 0.19167875E+00 0.40336429E+03</pdfrwt>
<pdfrwt beam="2">  1       21 0.25141117E-01 0.40336429E+03</pdfrwt>
<totfact> 0.19704775E+03</totfact>
</mgrwt>
</event>
<event>
 6    1  0.8739326E-004  0.4405463E+03  0.7818608E-02  0.1030591E+00
         21   -1    0    0  501  502  0.00000000000E+00  0.00000000000E+00  0.28026032255E+03  0.28026032255E+03  0.00000000000E+00 0. -1.
         21   -1    0    0  502  503 -0.00000000000E+00 -0.00000000000E+00 -0.88480405324E+03  0.88480405324E+03  0.00000000000E+00 0. -1.
    9000007    2    1    2  501    0 -0.40114468446E+01  0.18456702661E+03 -0.30490812848E+02  0.44144995395E+03  0.39983408203E+03 0.  0.
    9000005    1    3    3    0    0 -0.83607526368E+02  0.28840057837E+03  0.20632019439E+02  0.30098470441E+03  0.99999687468E+00 0.  0.
          4    1    3    3  501    0  0.79596079523E+02 -0.10383355176E+03 -0.51122832287E+02  0.14046524954E+03  0.00000000000E+00 0.  1.
   -9000007    1    1    2    0  503  0.40114468446E+01 -0.18456702661E+03 -0.57405291784E+03  0.72361442184E+03  0.40000000000E+03 0. -1.
<mgrwt>
<rscale>  2 0.44050868E+03</rscale>
<asrwt>0</asrwt>
<pdfrwt beam="1">  1       21 0.43116973E-01 0.44054634E+03</pdfrwt>
<pdfrwt beam="2">  1       21 0.13612370E+00 0.44054634E+03</pdfrwt>
<totfact> 0.17088392E+03</totfact>
</mgrwt>
</event>
<event>
 6    1  0.8739326E-004  0.4174248E+03  0.7818608E-02  0.1038006E+00
         21   -1    0    0  501  502  0.00000000000E+00  0.00000000000E+00  0.97853523378E+03  0.97853523378E+03  0.00000000000E+00 0. -1.
         21   -1    0    0  502  503 -0.00000000000E+00 -0.00000000000E+00 -0.23151460279E+03  0.23151460279E+03  0.00000000000E+00 0. -1.
    9000007    2    1    2  501    0 -0.44732240935E+02 -0.11064580639E+03  0.66518892935E+03  0.78467953290E+03  0.39875078655E+03 0.  0.
    9000005    1    3    3    0    0  0.82451154313E+01 -0.20547834048E+03  0.14097144133E+03  0.24932564569E+03  0.99999687468E+00 0.  0.
          4    1    3    3  501    0 -0.52977356366E+02  0.94832534087E+02  0.52421748801E+03  0.53535388721E+03  0.00000000000E+00 0.  1.
   -9000007    1    1    2    0  503  0.44732240935E+02  0.11064580639E+03  0.81831701645E+02  0.42537030367E+03  0.40000000000E+03 0. -1.
<mgrwt>
<rscale>  2 0.41712525E+03</rscale>
<asrwt>0</asrwt>
<pdfrwt beam="1">  1       21 0.15054388E+00 0.41742481E+03</pdfrwt>
<pdfrwt beam="2">  1       21 0.35617632E-01 0.41742481E+03</pdfrwt>
<totfact> 0.19509612E+03</totfact>
</mgrwt>
</event>
<event>
 6    1  0.8739326E-004  0.4197642E+03  0.7818608E-02  0.1037160E+00
         21   -1    0    0  501  502  0.00000000000E+00  0.00000000000E+00  0.20510745231E+03  0.20510745231E+03  0.00000000000E+00 0.  1.
         21   -1    0    0  502  503 -0.00000000000E+00 -0.00000000000E+00 -0.12195754702E+04  0.12195754702E+04  0.00000000000E+00 0.  1.
    9000007    2    1    2  501    0  0.42028569907E+02 -0.12014815776E+03 -0.11961608796E+03  0.43626906334E+03  0.39977582046E+03 0.  0.
    9000005    1    3    3    0    0  0.10101733764E+03 -0.95795877190E+02 -0.25279118310E+03  0.28859267981E+03  0.99999687468E+00 0.  0.
          4    1    3    3  501    0 -0.58988767736E+02 -0.24352280567E+02  0.13317509514E+03  0.14767638353E+03  0.00000000000E+00 0.  1.
   -9000007    1    1    2    0  503 -0.42028569907E+02  0.12014815776E+03 -0.89485192994E+03  0.98841385918E+03  0.40000000000E+03 0.  1.
<mgrwt>
<rscale>  2 0.41971078E+03</rscale>
<asrwt>0</asrwt>
<pdfrwt beam="1">  1       21 0.31554992E-01 0.41976420E+03</pdfrwt>
<pdfrwt beam="2">  1       21 0.18762700E+00 0.41976420E+03</pdfrwt>
<totfact> 0.13321211E+03</totfact>
</mgrwt>
</event>
<event>
 6    1  0.8739326E-004  0.4334238E+03  0.7818608E-02  0.1032788E+00
         21   -1    0    0  501  502  0.00000000000E+00  0.00000000000E+00  0.10378748473E+04  0.10378748473E+04  0.00000000000E+00 0. -1.
         21   -1    0    0  502  503 -0.00000000000E+00 -0.00000000000E+00 -0.19355582717E+03  0.19355582717E+03  0.00000000000E+00 0. -1.
    9000007    2    1    2  501    0  0.95823261129E+02  0.13665304910E+03  0.26516983201E+03  0.50805668039E+03  0.39993799204E+03 0.  0.
    9000005    1    3    3    0    0 -0.52312776646E+02 -0.12218866841E+03  0.10596714422E+03  0.16999039072E+03  0.99999687468E+00 0.  0.
          4    1    3    3  501    0  0.14813603778E+03  0.25884171751E+03  0.15920268779E+03  0.33806628967E+03  0.00000000000E+00 0.  1.
   -9000007    1    1    2    0  503 -0.95823261129E+02 -0.13665304910E+03  0.57914918810E+03  0.72337399406E+03  0.40000000000E+03 0. -1.
<mgrwt>
<rscale>  2 0.43340945E+03</rscale>
<asrwt>0</asrwt>
<pdfrwt beam="1">  1       21 0.15967305E+00 0.43342376E+03</pdfrwt>
<pdfrwt beam="2">  1       21 0.29777820E-01 0.43342376E+03</pdfrwt>
<totfact> 0.23605837E+03</totfact>
</mgrwt>
</event>
<event>
 6    1  0.8739326E-004  0.8156930E+03  0.7818608E-02  0.9537666E-01
         21   -1    0    0  501  502  0.00000000000E+00  0.00000000000E+00  0.81258388270E+03  0.81258388270E+03  0.00000000000E+00 0.  1.
         21   -1    0    0  502  503 -0.00000000000E+00 -0.00000000000E+00 -0.97672128307E+03  0.97672128307E+03  0.00000000000E+00 0. -1.
    9000007    2    1    2  501    0 -0.25532344663E+03  0.66344929366E+03  0.27795831347E+03  0.86151011953E+03  0.39947945424E+03 0.  0.
    9000005    1    3    3    0    0 -0.96874104009E+02 -0.22970278741E+02  0.85462560154E+02  0.13121385184E+03  0.99999687468E+00 0.  0.
          4    1    3    3  501    0 -0.15844934262E+03  0.68641957240E+03  0.19249575331E+03  0.73029626768E+03  0.00000000000E+00 0.  1.
   -9000007    1    1    2    0  503  0.25532344663E+03 -0.66344929366E+03 -0.44209571383E+03  0.92779504625E+03  0.40000000000E+03 0. -1.
<mgrwt>
<rscale>  2 0.81562918E+03</rscale>
<asrwt>0</asrwt>
<pdfrwt beam="1">  1       21 0.12501291E+00 0.81569297E+03</pdfrwt>
<pdfrwt beam="2">  1       21 0.15026481E+00 0.81569297E+03</pdfrwt>
<totfact> 0.98935393E+01</totfact>
</mgrwt>
</event>
<event>
 6    1  0.8739326E-004  0.5156351E+03  0.7818608E-02  0.1009856E+00
         21   -1    0    0  501  502  0.00000000000E+00  0.00000000000E+00  0.16808478748E+04  0.16808478748E+04  0.00000000000E+00 0.  1.
         21   -1    0    0  502  503 -0.00000000000E+00 -0.00000000000E+00 -0.11485752530E+04  0.11485752530E+04  0.00000000000E+00 0. -1.
    9000007    2    1    2  501    0  0.24292584306E+02  0.32448337557E+03  0.15800366373E+04  0.16616521645E+04  0.39836233489E+03 0.  0.
    9000005    1    3    3    0    0  0.16327059749E+03  0.32536530750E+02  0.80209907667E+03  0.81919463049E+03  0.99999687468E+00 0.  0.
          4    1    3    3  501    0 -0.13897801318E+03  0.29194684482E+03  0.77793756066E+03  0.84245753402E+03  0.00000000000E+00 0.  1.
   -9000007    1    1    2    0  503 -0.24292584306E+02 -0.32448337557E+03 -0.10477640155E+04  0.11677709634E+04  0.40000000000E+03 0. -1.
<mgrwt>
<rscale>  2 0.51531750E+03</rscale>
<asrwt>0</asrwt>
<pdfrwt beam="1">  1       21 0.25859198E+00 0.51563513E+03</pdfrwt>
<pdfrwt beam="2">  1       21 0.17670388E+00 0.51563513E+03</pdfrwt>
<totfact> 0.79496441E+00</totfact>
</mgrwt>
</event>
<event>
 6    1  0.8739326E-004  0.5302199E+03  0.7818608E-02  0.1006184E+00
         21   -1    0    0  501  502  0.00000000000E+00  0.00000000000E+00  0.41441051200E+03  0.41441051200E+03  0.00000000000E+00 0.  1.
         21   -1    0    0  502  503 -0.00000000000E+00 -0.00000000000E+00 -0.76811916619E+03  0.76811916619E+03  0.00000000000E+00 0. -1.
    9000007    2    1    2  501    0 -0.24032913134E+03 -0.25155833349E+03 -0.37907626344E+03  0.65179132258E+03  0.40011676816E+03 0.  0.
    9000005    1    3    3    0    0 -0.22299289754E+03 -0.35533299149E+02 -0.37173912773E+03  0.43494761383E+03  0.99999687468E+00 0.  0.
          4    1    3    3  501    0 -0.17336233807E+02 -0.21602503434E+03 -0.73371357138E+01  0.21684370875E+03  0.00000000000E+00 0.  1.
   -9000007    1    1    2    0  503  0.24032913134E+03  0.25155833349E+03  0.25367609251E+02  0.53073835561E+03  0.40000000000E+03 0.  1.
<mgrwt>
<rscale>  2 0.53019784E+03</rscale>
<asrwt>0</asrwt>
<pdfrwt beam="1">  1       21 0.63755463E-01 0.53021987E+03</pdfrwt>
<pdfrwt beam="2">  1       21 0.11817218E+00 0.53021987E+03</pdfrwt>
<totfact> 0.10279277E+03</totfact>
</mgrwt>
</event>
<event>
 6    1  0.8739326E-004  0.4373749E+03  0.7818608E-02  0.1031570E+00
         21   -1    0    0  501  502  0.00000000000E+00  0.00000000000E+00  0.16708857612E+03  0.16708857612E+03  0.00000000000E+00 0.  1.
         21   -1    0    0  502  503 -0.00000000000E+00 -0.00000000000E+00 -0.17565355595E+04  0.17565355595E+04  0.00000000000E+00 0.  1.
    9000007    2    1    2  501    0 -0.92674650103E+02 -0.15014689291E+03 -0.22704354838E+03  0.49279367749E+03  0.40020514176E+03 0.  0.
    9000005    1    3    3    0    0 -0.17554527997E+03 -0.18836888923E+03 -0.28546528840E+03  0.38443518911E+03  0.99999687468E+00 0.  0.
          4    1    3    3  501    0  0.82870629870E+02  0.38221996323E+02  0.58421740016E+02  0.10835848838E+03  0.00000000000E+00 0.  1.
   -9000007    1    1    2    0  503  0.92674650103E+02  0.15014689291E+03 -0.13624034350E+04  0.14308304581E+04  0.40000000000E+03 0.  1.
<mgrwt>
<rscale>  2 0.43732800E+03</rscale>
<asrwt>0</asrwt>
<pdfrwt beam="1">  1       21 0.25705936E-01 0.43737494E+03</pdfrwt>
<pdfrwt beam="2">  1       21 0.27023623E+00 0.43737494E+03</pdfrwt>
<totfact> 0.59182833E+02</totfact>
</mgrwt>
</event>
<event>
 6    1  0.8739326E-004  0.4855970E+03  0.7818608E-02  0.1017673E+00
         21   -1    0    0  501  502  0.00000000000E+00  0.00000000000E+00  0.98595068335E+03  0.98595068335E+03  0.00000000000E+00 0. -1.
         21   -1    0    0  502  503 -0.00000000000E+00 -0.00000000000E+00 -0.16951693323E+04  0.16951693323E+04  0.00000000000E+00 0.  1.
    9000007    2    1    2  501    0  0.85668665732E+02  0.25988816245E+03  0.88794055452E+03  0.10120488672E+04  0.40115271910E+03 0.  0.
    9000005    1    3    3    0    0  0.31658883553E+02  0.34930373251E+03  0.80691965799E+03  0.87984982633E+03  0.99999687468E+00 0.  0.
          4    1    3    3  501    0  0.54009782178E+02 -0.89415570062E+02  0.81020896524E+02  0.13219904090E+03  0.00000000000E+00 0.  1.
   -9000007    1    1    2    0  503 -0.85668665732E+02 -0.25988816245E+03 -0.15971592035E+04  0.16690711485E+04  0.40000000000E+03 0.  1.
<mgrwt>
<rscale>  2 0.48535890E+03</rscale>
<asrwt>0</asrwt>
<pdfrwt beam="1">  1       21 0.15168472E+00 0.48559704E+03</pdfrwt>
<pdfrwt beam="2">  1       21 0.26079528E+00 0.48559704E+03</pdfrwt>
<totfact> 0.12094711E+01</totfact>
</mgrwt>
</event>
<event>
 6    1  0.8739326E-004  0.4536788E+03  0.7818608E-02  0.1026676E+00
         21   -1    0    0  501  502  0.00000000000E+00  0.00000000000E+00  0.11125671162E+04  0.11125671162E+04  0.00000000000E+00 0. -1.
         21   -1    0    0  502  503 -0.00000000000E+00 -0.00000000000E+00 -0.24316720871E+03  0.24316720871E+03  0.00000000000E+00 0.  1.
    9000007    2    1    2  501    0 -0.18837623597E+03 -0.98893387124E+02  0.76717734830E+03  0.89128307893E+03  0.40069805933E+03 0.  0.
    9000005    1    3    3    0    0 -0.12137698898E+03 -0.20563593768E+03  0.71685634799E+03  0.75558092616E+03  0.99999687468E+00 0.  0.
          4    1    3    3  501    0 -0.66999246990E+02  0.10674255056E+03  0.50321000309E+02  0.13570215278E+03  0.00000000000E+00 0.  1.
   -9000007    1    1    2    0  503  0.18837623597E+03  0.98893387124E+02  0.10222255922E+03  0.46445124600E+03  0.40000000000E+03 0.  1.
<mgrwt>
<rscale>  2 0.45352460E+03</rscale>
<asrwt>0</asrwt>
<pdfrwt beam="1">  1       21 0.17116417E+00 0.45367879E+03</pdfrwt>
<pdfrwt beam="2">  1       21 0.37410340E-01 0.45367879E+03</pdfrwt>
<totfact> 0.12160513E+03</totfact>
</mgrwt>
</event>
<event>
 6    1  0.8739326E-004  0.4864530E+03  0.7818608E-02  0.1017429E+00
         21   -1    0    0  501  502  0.00000000000E+00  0.00000000000E+00  0.42728094303E+03  0.42728094303E+03  0.00000000000E+00 0.  1.
         21   -1    0    0  502  503 -0.00000000000E+00 -0.00000000000E+00 -0.73318169459E+03  0.73318169459E+03  0.00000000000E+00 0. -1.
    9000007    2    1    2  501    0  0.80846627193E+01 -0.27671494570E+03  0.13483072237E+03  0.50404755929E+03  0.39905901241E+03 0.  0.
    9000005    1    3    3    0    0  0.19927821150E+03 -0.18461681877E+03  0.97183575864E+02  0.28851485709E+03  0.99999687468E+00 0.  0.
          4    1    3    3  501    0 -0.19119354878E+03 -0.92098126926E+02  0.37647146511E+02  0.21553270220E+03  0.00000000000E+00 0.  1.
   -9000007    1    1    2    0  503 -0.80846627193E+01  0.27671494570E+03 -0.44073147393E+03  0.65641507833E+03  0.40000000000E+03 0. -1.
<mgrwt>
<rscale>  2 0.48625952E+03</rscale>
<asrwt>0</asrwt>
<pdfrwt beam="1">  1       21 0.65735530E-01 0.48645300E+03</pdfrwt>
<pdfrwt beam="2">  1       21 0.11279718E+00 0.48645300E+03</pdfrwt>
<totfact> 0.10964890E+03</totfact>
</mgrwt>
</event>
<event>
 6    1  0.8739326E-004  0.4013721E+03  0.7818608E-02  0.1043316E+00
         21   -1    0    0  501  502  0.00000000000E+00  0.00000000000E+00  0.17654144891E+03  0.17654144891E+03  0.00000000000E+00 0. -1.
         21   -1    0    0  502  503 -0.00000000000E+00 -0.00000000000E+00 -0.10321252939E+04  0.10321252939E+04  0.00000000000E+00 0. -1.
    9000007    2    1    2  501    0 -0.36537920613E+01 -0.31500554313E+02 -0.22190354157E+03  0.45862916905E+03  0.40011735507E+03 0.  0.
    9000005    1    3    3    0    0 -0.56447496480E+02 -0.91887266446E+02 -0.31663733242E+03  0.33449931221E+03  0.99999687468E+00 0.  0.
          4    1    3    3  501    0  0.52793704419E+02  0.60386712133E+02  0.94733790857E+02  0.12412985684E+03  0.00000000000E+00 0.  1.
   -9000007    1    1    2    0  503  0.36537920613E+01  0.31500554313E+02 -0.63368030346E+03  0.75003757380E+03  0.40000000000E+03 0.  1.
<mgrwt>
<rscale>  2 0.40134281E+03</rscale>
<asrwt>0</asrwt>
<pdfrwt beam="1">  1       21 0.27160223E-01 0.40137206E+03</pdfrwt>
<pdfrwt beam="2">  1       21 0.15878851E+00 0.40137206E+03</pdfrwt>
<totfact> 0.29130893E+03</totfact>
</mgrwt>
</event>
<event>
 6    1  0.8739326E-004  0.5673327E+03  0.7818608E-02  0.9977517E-01
         21   -1    0    0  501  502  0.00000000000E+00  0.00000000000E+00  0.27839325987E+03  0.27839325987E+03  0.00000000000E+00 0.  1.
         21   -1    0    0  502  503 -0.00000000000E+00 -0.00000000000E+00 -0.19568424873E+04  0.19568424873E+04  0.00000000000E+00 0.  1.
    9000007    2    1    2  501    0  0.24494349357E+03 -0.31301875062E+03 -0.12270672190E+03  0.58045092830E+03  0.40483118369E+03 0.  0.
    9000005    1    3    3    0    0 -0.71291756913E+02 -0.58046377959E+02 -0.14713254578E+03  0.17349605938E+03  0.99999687468E+00 0.  0.
          4    1    3    3  501    0  0.31623525048E+03 -0.25497237266E+03  0.24425823883E+02  0.40695486892E+03  0.00000000000E+00 0.  1.
   -9000007    1    1    2    0  503 -0.24494349357E+03  0.31301875062E+03 -0.15557425056E+04  0.16547848189E+04  0.40000000000E+03 0.  1.
<mgrwt>
<rscale>  2 0.56647139E+03</rscale>
<asrwt>0</asrwt>
<pdfrwt beam="1">  1       21 0.42829733E-01 0.56733265E+03</pdfrwt>
<pdfrwt beam="2">  1       21 0.30105269E+00 0.56733265E+03</pdfrwt>
<totfact> 0.12856352E+02</totfact>
</mgrwt>
</event>
<event>
 6    1  0.8739326E-004  0.5128193E+03  0.7818608E-02  0.1010540E+00
         21   -1    0    0  501  502  0.00000000000E+00  0.00000000000E+00  0.46560060418E+03  0.46560060418E+03  0.00000000000E+00 0. -1.
         21   -1    0    0  502  503 -0.00000000000E+00 -0.00000000000E+00 -0.61893874990E+03  0.61893874990E+03  0.00000000000E+00 0. -1.
    9000007    2    1    2  501    0  0.26811719865E+03  0.17383389796E+03  0.85003558045E+02  0.51981656895E+03  0.40109675164E+03 0.  0.
    9000005    1    3    3    0    0  0.20504390791E+03  0.10375215346E+03 -0.14466724853E+03  0.27154580887E+03  0.99999687468E+00 0.  0.
          4    1    3    3  501    0  0.63073290739E+02  0.70081744497E+02  0.22967080658E+03  0.24827076008E+03  0.00000000000E+00 0.  1.
   -9000007    1    1    2    0  503 -0.26811719865E+03 -0.17383389796E+03 -0.23834170377E+03  0.56472278513E+03  0.40000000000E+03 0. -1.
<mgrwt>
<rscale>  2 0.51260485E+03</rscale>
<asrwt>0</asrwt>
<pdfrwt beam="1">  1       21 0.71630862E-01 0.51281933E+03</pdfrwt>
<pdfrwt beam="2">  1       21 0.95221346E-01 0.51281933E+03</pdfrwt>
<totfact> 0.13574924E+03</totfact>
</mgrwt>
</event>
<event>
 6    1  0.8739326E-004  0.4545155E+03  0.7818608E-02  0.1026407E+00
         21   -1    0    0  501  502  0.00000000000E+00  0.00000000000E+00  0.40473692784E+03  0.40473692784E+03  0.00000000000E+00 0.  1.
         21   -1    0    0  502  503 -0.00000000000E+00 -0.00000000000E+00 -0.65122435024E+03  0.65122435024E+03  0.00000000000E+00 0.  1.
    9000007    2    1    2  501    0 -0.37589248827E+01  0.21580133733E+03  0.12260690320E+03  0.47045724914E+03  0.39964136904E+03 0.  0.
    9000005    1    3    3    0    0  0.99009339784E+02  0.14779956392E+03 -0.10862280638E+03  0.20844057791E+03  0.99999687468E+00 0.  0.
          4    1    3    3  501    0 -0.10276826467E+03  0.68001773405E+02  0.23122970958E+03  0.26201667123E+03  0.00000000000E+00 0.  1.
   -9000007    1    1    2    0  503  0.37589248827E+01 -0.21580133733E+03 -0.36909432560E+03  0.58550402893E+03  0.40000000000E+03 0.  1.
<mgrwt>
<rscale>  2 0.45443659E+03</rscale>
<asrwt>0</asrwt>
<pdfrwt beam="1">  1       21 0.62267220E-01 0.45451551E+03</pdfrwt>
<pdfrwt beam="2">  1       21 0.10018836E+00 0.45451551E+03</pdfrwt>
<totfact> 0.16774380E+03</totfact>
</mgrwt>
</event>
<event>
 6    1  0.8739326E-004  0.6291173E+03  0.7818608E-02  0.9847048E-01
         21   -1    0    0  501  502  0.00000000000E+00  0.00000000000E+00  0.68918073976E+03  0.68918073976E+03  0.00000000000E+00 0.  1.
         21   -1    0    0  502  503 -0.00000000000E+00 -0.00000000000E+00 -0.57434682157E+03  0.57434682157E+03  0.00000000000E+00 0. -1.
    9000007    2    1    2  501    0 -0.19401461934E+03 -0.44513695518E+03  0.77342781154E+02  0.63329413891E+03  0.39911273996E+03 0.  0.
    9000005    1    3    3    0    0 -0.30026870863E+03 -0.25510954590E+03 -0.20631410842E+02  0.39454889798E+03  0.99999687468E+00 0.  0.
          4    1    3    3  501    0  0.10625408929E+03 -0.19002740928E+03  0.97974191996E+02  0.23874524093E+03  0.00000000000E+00 0.  1.
   -9000007    1    1    2    0  503  0.19401461934E+03  0.44513695518E+03  0.37491137040E+02  0.63023342242E+03  0.40000000000E+03 0.  1.
<mgrwt>
<rscale>  2 0.62897632E+03</rscale>
<asrwt>0</asrwt>
<pdfrwt beam="1">  1       21 0.10602781E+00 0.62911730E+03</pdfrwt>
<pdfrwt beam="2">  1       21 0.88361050E-01 0.62911730E+03</pdfrwt>
<totfact> 0.61726732E+02</totfact>
</mgrwt>
</event>
<event>
 6    1  0.8739326E-004  0.4020030E+03  0.7818608E-02  0.1043133E+00
         21   -1    0    0  501  502  0.00000000000E+00  0.00000000000E+00  0.21523908589E+03  0.21523908589E+03  0.00000000000E+00 0. -1.
         21   -1    0    0  502  503 -0.00000000000E+00 -0.00000000000E+00 -0.11860814954E+04  0.11860814954E+04  0.00000000000E+00 0. -1.
    9000007    2    1    2  501    0  0.25811596381E+02  0.22791365922E+02 -0.60697374807E+02  0.40655946973E+03  0.40052558751E+03 0.  0.
    9000005    1    3    3    0    0  0.59165452623E+02 -0.42303916781E+02  0.15908471992E+03  0.17492604227E+03  0.99999687468E+00 0.  0.
          4    1    3    3  501    0 -0.33353856242E+02  0.65095282703E+02 -0.21978209473E+03  0.23163342746E+03  0.00000000000E+00 0.  1.
   -9000007    1    1    2    0  503 -0.25811596381E+02 -0.22791365922E+02 -0.91014503471E+03  0.99476111156E+03  0.40000000000E+03 0. -1.
<mgrwt>
<rscale>  2 0.40187205E+03</rscale>
<asrwt>0</asrwt>
<pdfrwt beam="1">  1       21 0.33113707E-01 0.40200302E+03</pdfrwt>
<pdfrwt beam="2">  1       21 0.18247407E+00 0.40200302E+03</pdfrwt>
<totfact> 0.13243097E+03</totfact>
</mgrwt>
</event>
<event>
 6    1  0.8739326E-004  0.4868816E+03  0.7818608E-02  0.1017267E+00
         21   -1    0    0  501  502  0.00000000000E+00  0.00000000000E+00  0.10045017022E+04  0.10045017022E+04  0.00000000000E+00 0.  1.
         21   -1    0    0  502  503 -0.00000000000E+00 -0.00000000000E+00 -0.36722146456E+03  0.36722146456E+03  0.00000000000E+00 0. -1.
    9000007    2    1    2  501    0 -0.19622524920E+03 -0.19612718668E+03  0.72872811373E+03  0.87641221813E+03  0.40010434960E+03 0.  0.
    9000005    1    3    3    0    0  0.51977009236E+02 -0.15872974261E+03  0.89117920932E+02  0.18931387826E+03  0.99999687468E+00 0.  0.
          4    1    3    3  501    0 -0.24820225844E+03 -0.37397444069E+02  0.63961019280E+03  0.68709833987E+03  0.00000000000E+00 0.  1.
   -9000007    1    1    2    0  503  0.19622524920E+03  0.19612718668E+03 -0.91447876102E+02  0.49531094862E+03  0.40000000000E+03 0. -1.
<mgrwt>
<rscale>  2 0.48686018E+03</rscale>
<asrwt>0</asrwt>
<pdfrwt beam="1">  1       21 0.15453872E+00 0.48688162E+03</pdfrwt>
<pdfrwt beam="2">  1       21 0.56495610E-01 0.48688162E+03</pdfrwt>
<totfact> 0.67091444E+02</totfact>
</mgrwt>
</event>
<event>
 6    1  0.8739326E-004  0.4060206E+03  0.7818608E-02  0.1041823E+00
         21   -1    0    0  501  502  0.00000000000E+00  0.00000000000E+00  0.44904613645E+03  0.44904613645E+03  0.00000000000E+00 0. -1.
         21   -1    0    0  502  503 -0.00000000000E+00 -0.00000000000E+00 -0.36613062100E+03  0.36613062100E+03  0.00000000000E+00 0. -1.
    9000007    2    1    2  501    0 -0.61807616685E+02 -0.21335835777E+01  0.33039756546E+02  0.40736267605E+03  0.40128293095E+03 0.  0.
    9000005    1    3    3    0    0 -0.11487466637E+03 -0.16539533181E+03 -0.62557316331E+02  0.21087015573E+03  0.99999687468E+00 0.  0.
          4    1    3    3  501    0  0.53067049689E+02  0.16326174823E+03  0.95597072876E+02  0.19649252032E+03  0.00000000000E+00 0.  1.
   -9000007    1    1    2    0  503  0.61807616685E+02  0.21335835777E+01  0.49875758899E+02  0.40781408140E+03  0.40000000000E+03 0. -1.
<mgrwt>
<rscale>  2 0.40570325E+03</rscale>
<asrwt>0</asrwt>
<pdfrwt beam="1">  1       21 0.69084021E-01 0.40602060E+03</pdfrwt>
<pdfrwt beam="2">  1       21 0.56327788E-01 0.40602060E+03</pdfrwt>
<totfact> 0.50535862E+03</totfact>
</mgrwt>
</event>
<event>
 6    1  0.8739326E-004  0.4837005E+03  0.7818608E-02  0.1018133E+00
         21   -1    0    0  501  502  0.00000000000E+00  0.00000000000E+00  0.12708324012E+04  0.12708324012E+04  0.00000000000E+00 0.  1.
         21   -1    0    0  502  503 -0.00000000000E+00 -0.00000000000E+00 -0.34205859506E+03  0.34205859506E+03  0.00000000000E+00 0. -1.
    9000007    2    1    2  501    0 -0.20480318106E+02 -0.27119508600E+03  0.10124560243E+04  0.11220051320E+04  0.39982758423E+03 0.  0.
    9000005    1    3    3    0    0  0.54410939149E+02  0.92595034003E+02  0.29816260569E+03  0.31691691347E+03  0.99999687468E+00 0.  0.
          4    1    3    3  501    0 -0.74891257254E+02 -0.36379012000E+03  0.71429341861E+03  0.80508821858E+03  0.00000000000E+00 0.  1.
   -9000007    1    1    2    0  503  0.20480318106E+02  0.27119508600E+03 -0.83682218104E+02  0.49088586426E+03  0.40000000000E+03 0. -1.
<mgrwt>
<rscale>  2 0.48366490E+03</rscale>
<asrwt>0</asrwt>
<pdfrwt beam="1">  1       21 0.19551267E+00 0.48370055E+03</pdfrwt>
<pdfrwt beam="2">  1       21 0.52624400E-01 0.48370055E+03</pdfrwt>
<totfact> 0.39683288E+02</totfact>
</mgrwt>
</event>
<event>
 6    1  0.8739326E-004  0.4169076E+03  0.7818608E-02  0.1038095E+00
         21   -1    0    0  501  502  0.00000000000E+00  0.00000000000E+00  0.23000717131E+03  0.23000717131E+03  0.00000000000E+00 0.  1.
         21   -1    0    0  502  503 -0.00000000000E+00 -0.00000000000E+00 -0.78239600377E+03  0.78239600377E+03  0.00000000000E+00 0.  1.
    9000007    2    1    2  501    0 -0.58596443867E+02 -0.10098927109E+03 -0.18204372156E+03  0.45491965311E+03  0.40022443468E+03 0.  0.
    9000005    1    3    3    0    0 -0.10274834775E+03 -0.58075679829E+02 -0.29971240547E+03  0.32211571452E+03  0.99999687468E+00 0.  0.
          4    1    3    3  501    0  0.44151903880E+02 -0.42913591265E+02  0.11766868391E+03  0.13280393859E+03  0.00000000000E+00 0.  1.
   -9000007    1    1    2    0  503  0.58596443867E+02  0.10098927109E+03 -0.37034511089E+03  0.55748352197E+03  0.40000000000E+03 0.  1.
<mgrwt>
<rscale>  2 0.41685376E+03</rscale>
<asrwt>0</asrwt>
<pdfrwt beam="1">  1       21 0.35385718E-01 0.41690763E+03</pdfrwt>
<pdfrwt beam="2">  1       21 0.12036862E+00 0.41690763E+03</pdfrwt>
<totfact> 0.35540859E+03</totfact>
</mgrwt>
</event>
<event>
 6    1  0.8739326E-004  0.4465999E+03  0.7818608E-02  0.1028749E+00
         21   -1    0    0  501  502  0.00000000000E+00  0.00000000000E+00  0.10271883674E+03  0.10271883674E+03  0.00000000000E+00 0.  1.
         21   -1    0    0  502  503 -0.00000000000E+00 -0.00000000000E+00 -0.21282832342E+04  0.21282832342E+04  0.00000000000E+00 0.  1.
    9000007    2    1    2  501    0 -0.13595763662E+03 -0.14479989303E+03 -0.68197199870E+03  0.81513060008E+03  0.39987573094E+03 0.  0.
    9000005    1    3    3    0    0  0.12358595927E+03 -0.74642291914E+02 -0.40121359740E+03  0.42640158513E+03  0.99999687468E+00 0.  0.
          4    1    3    3  501    0 -0.25954359589E+03 -0.70157601117E+02 -0.28075840130E+03  0.38872901495E+03  0.00000000000E+00 0.  1.
   -9000007    1    1    2    0  503  0.13595763662E+03  0.14479989303E+03 -0.13435923988E+04  0.14158714709E+04  0.40000000000E+03 0.  1.
<mgrwt>
<rscale>  2 0.44657209E+03</rscale>
<asrwt>0</asrwt>
<pdfrwt beam="1">  1       21 0.15802898E-01 0.44659992E+03</pdfrwt>
<pdfrwt beam="2">  1       21 0.32742818E+00 0.44659992E+03</pdfrwt>
<totfact> 0.67303428E+02</totfact>
</mgrwt>
</event>
<event>
 6    1  0.8739326E-004  0.4116505E+03  0.7818608E-02  0.1039827E+00
         21   -1    0    0  501  502  0.00000000000E+00  0.00000000000E+00  0.10042845810E+04  0.10042845810E+04  0.00000000000E+00 0. -1.
         21   -1    0    0  502  503 -0.00000000000E+00 -0.00000000000E+00 -0.40695750972E+03  0.40695750972E+03  0.00000000000E+00 0.  1.
    9000007    2    1    2  501    0  0.46979433084E+02 -0.85141424205E+02  0.83856649254E+03  0.93411256150E+03  0.39989546870E+03 0.  0.
    9000005    1    3    3    0    0  0.18319531816E+03 -0.65106337366E+01  0.17958575092E+03  0.25662220261E+03  0.99999687468E+00 0.  0.
          4    1    3    3  501    0 -0.13621588507E+03 -0.78630790468E+02  0.65898074162E+03  0.67749035889E+03  0.00000000000E+00 0.  1.
   -9000007    1    1    2    0  503 -0.46979433084E+02  0.85141424205E+02 -0.24123942128E+03  0.47712952919E+03  0.40000000000E+03 0.  1.
<mgrwt>
<rscale>  2 0.41162510E+03</rscale>
<asrwt>0</asrwt>
<pdfrwt beam="1">  1       21 0.15450532E+00 0.41165049E+03</pdfrwt>
<pdfrwt beam="2">  1       21 0.62608848E-01 0.41165049E+03</pdfrwt>
<totfact> 0.55493576E+02</totfact>
</mgrwt>
</event>
<event>
 6    1  0.8739326E-004  0.4388245E+03  0.7818608E-02  0.1031134E+00
         21   -1    0    0  501  502  0.00000000000E+00  0.00000000000E+00  0.31408500343E+03  0.31408500343E+03  0.00000000000E+00 0. -1.
         21   -1    0    0  502  503 -0.00000000000E+00 -0.00000000000E+00 -0.63765095920E+03  0.63765095920E+03  0.00000000000E+00 0. -1.
    9000007    2    1    2  501    0  0.17956397369E+03 -0.17992364749E+02 -0.25596890605E+03  0.50773561694E+03  0.39963537132E+03 0.  0.
    9000005    1    3    3    0    0  0.27232278798E+03  0.51901587030E+02 -0.27448676914E+03  0.39012493130E+03  0.99999687468E+00 0.  0.
          4    1    3    3  501    0 -0.92758814290E+02 -0.69893951779E+02  0.18517863094E+02  0.11761068564E+03  0.00000000000E+00 0.  1.
   -9000007    1    1    2    0  503 -0.17956397369E+03  0.17992364749E+02 -0.67597049722E+02  0.44400034568E+03  0.40000000000E+03 0. -1.
<mgrwt>
<rscale>  2 0.43874140E+03</rscale>
<asrwt>0</asrwt>
<pdfrwt beam="1">  1       21 0.48320770E-01 0.43882450E+03</pdfrwt>
<pdfrwt beam="2">  1       21 0.98100147E-01 0.43882450E+03</pdfrwt>
<totfact> 0.30696625E+03</totfact>
</mgrwt>
</event>
<event>
 6    1  0.8739326E-004  0.4658866E+03  0.7818608E-02  0.1023135E+00
         21   -1    0    0  501  502  0.00000000000E+00  0.00000000000E+00  0.19535691773E+03  0.19535691773E+03  0.00000000000E+00 0.  1.
         21   -1    0    0  502  503 -0.00000000000E+00 -0.00000000000E+00 -0.13268665452E+04  0.13268665452E+04  0.00000000000E+00 0.  1.
    9000007    2    1    2  501    0 -0.20688625543E+03  0.11676910073E+03 -0.25801446452E+03  0.53256152810E+03  0.40076598127E+03 0.  0.
    9000005    1    3    3    0    0  0.37735984201E+02 -0.11596029446E+03 -0.31423791028E+02  0.12593351036E+03  0.99999687468E+00 0.  0.
          4    1    3    3  501    0 -0.24462223963E+03  0.23272939518E+03 -0.22659067349E+03  0.40662801775E+03  0.00000000000E+00 0.  1.
   -9000007    1    1    2    0  503  0.20688625543E+03 -0.11676910073E+03 -0.87349516299E+03  0.98966193487E+03  0.40000000000E+03 0.  1.
<mgrwt>
<rscale>  2 0.46572182E+03</rscale>
<asrwt>0</asrwt>
<pdfrwt beam="1">  1       21 0.30054911E-01 0.46588659E+03</pdfrwt>
<pdfrwt beam="2">  1       21 0.20413331E+00 0.46588659E+03</pdfrwt>
<totfact> 0.11127181E+03</totfact>
</mgrwt>
</event>
<event>
 6    1  0.8739326E-004  0.4131915E+03  0.7818608E-02  0.1039322E+00
         21   -1    0    0  501  502  0.00000000000E+00  0.00000000000E+00  0.50181183927E+03  0.50181183927E+03  0.00000000000E+00 0.  1.
         21   -1    0    0  502  503 -0.00000000000E+00 -0.00000000000E+00 -0.34788706244E+03  0.34788706244E+03  0.00000000000E+00 0.  1.
    9000007    2    1    2  501    0 -0.45214570516E+02  0.92279218183E+02  0.13233857006E+02  0.41340342108E+03  0.40020924789E+03 0.  0.
    9000005    1    3    3    0    0  0.40297630733E+02  0.19757840670E+03 -0.11037849307E+03  0.22988157291E+03  0.99999687468E+00 0.  0.
          4    1    3    3  501    0 -0.85512201249E+02 -0.10529918851E+03  0.12361235008E+03  0.18352184817E+03  0.00000000000E+00 0.  1.
   -9000007    1    1    2    0  503  0.45214570516E+02 -0.92279218183E+02  0.14069091982E+03  0.43629548063E+03  0.40000000000E+03 0. -1.
<mgrwt>
<rscale>  2 0.41314087E+03</rscale>
<asrwt>0</asrwt>
<pdfrwt beam="1">  1       21 0.77201821E-01 0.41319155E+03</pdfrwt>
<pdfrwt beam="2">  1       21 0.53521087E-01 0.41319155E+03</pdfrwt>
<totfact> 0.43750589E+03</totfact>
</mgrwt>
</event>
<event>
 6    1  0.8739326E-004  0.4486529E+03  0.7818608E-02  0.1028210E+00
         21   -1    0    0  501  502  0.00000000000E+00  0.00000000000E+00  0.13738827735E+03  0.13738827735E+03  0.00000000000E+00 0.  1.
         21   -1    0    0  502  503 -0.00000000000E+00 -0.00000000000E+00 -0.15211134045E+04  0.15211134045E+04  0.00000000000E+00 0.  1.
    9000007    2    1    2  501    0  0.14448712270E+03  0.14287375389E+03 -0.52673635079E+03  0.69117588307E+03  0.39872732526E+03 0.  0.
    9000005    1    3    3    0    0  0.47009362230E+02 -0.13156691479E+03 -0.26514767702E+03  0.29970656287E+03  0.99999687468E+00 0.  0.
          4    1    3    3  501    0  0.97477760474E+02  0.27444066867E+03 -0.26158867377E+03  0.39146932019E+03  0.00000000000E+00 0.  1.
   -9000007    1    1    2    0  503 -0.14448712270E+03 -0.14287375389E+03 -0.85698877637E+03  0.96732579879E+03  0.40000000000E+03 0.  1.
<mgrwt>
<rscale>  2 0.44836907E+03</rscale>
<asrwt>0</asrwt>
<pdfrwt beam="1">  1       21 0.21136657E-01 0.44865292E+03</pdfrwt>
<pdfrwt beam="2">  1       21 0.23401746E+00 0.44865292E+03</pdfrwt>
<totfact> 0.14322234E+03</totfact>
</mgrwt>
</event>
<event>
 6    1  0.8739326E-004  0.4118159E+03  0.7818608E-02  0.1039779E+00
         21   -1    0    0  501  502  0.00000000000E+00  0.00000000000E+00  0.27280176033E+03  0.27280176033E+03  0.00000000000E+00 0.  1.
         21   -1    0    0  502  503 -0.00000000000E+00 -0.00000000000E+00 -0.67763157184E+03  0.67763157184E+03  0.00000000000E+00 0. -1.
    9000007    2    1    2  501    0 -0.63528394323E+02  0.74541554255E+02 -0.65469344663E+02  0.41680628390E+03  0.39981113417E+03 0.  0.
    9000005    1    3    3    0    0  0.57110278100E+02 -0.47929823695E+02 -0.19027898364E+03  0.20436717807E+03  0.99999687468E+00 0.  0.
          4    1    3    3  501    0 -0.12063867242E+03  0.12247137795E+03  0.12480963898E+03  0.21243910582E+03  0.00000000000E+00 0.  1.
   -9000007    1    1    2    0  503  0.63528394323E+02 -0.74541554255E+02 -0.33936046684E+03  0.53362704827E+03  0.40000000000E+03 0. -1.
<mgrwt>
<rscale>  2 0.41176999E+03</rscale>
<asrwt>0</asrwt>
<pdfrwt beam="1">  1       21 0.41969502E-01 0.41181586E+03</pdfrwt>
<pdfrwt beam="2">  1       21 0.10425101E+00 0.41181586E+03</pdfrwt>
<totfact> 0.35910154E+03</totfact>
</mgrwt>
</event>
<event>
 6    1  0.8739326E-004  0.5966465E+03  0.7818608E-02  0.9912639E-01
         21   -1    0    0  501  502  0.00000000000E+00  0.00000000000E+00  0.61538324415E+03  0.61538324415E+03  0.00000000000E+00 0.  1.
         21   -1    0    0  502  503 -0.00000000000E+00 -0.00000000000E+00 -0.61868200014E+03  0.61868200014E+03  0.00000000000E+00 0. -1.
    9000007    2    1    2  501    0  0.27942469370E+03 -0.34254193538E+03  0.15654813421E+03  0.61684229814E+03  0.40071681461E+03 0.  0.
    9000005    1    3    3    0    0  0.13183871069E+03 -0.40148820026E+03  0.50048445177E+02  0.42553503668E+03  0.99999687468E+00 0.  0.
          4    1    3    3  501    0  0.14758598301E+03  0.58946264882E+02  0.10649968903E+03  0.19130726146E+03  0.00000000000E+00 0.  1.
   -9000007    1    1    2    0  503 -0.27942469370E+03  0.34254193538E+03 -0.15984689020E+03  0.61722294614E+03  0.40000000000E+03 0. -1.
<mgrwt>
<rscale>  2 0.59652621E+03</rscale>
<asrwt>0</asrwt>
<pdfrwt beam="1">  1       21 0.94674345E-01 0.59664655E+03</pdfrwt>
<pdfrwt beam="2">  1       21 0.95181846E-01 0.59664655E+03</pdfrwt>
<totfact> 0.68862440E+02</totfact>
</mgrwt>
</event>
<event>
 6    1  0.8739326E-004  0.4584500E+03  0.7818608E-02  0.1025305E+00
         21   -1    0    0  501  502  0.00000000000E+00  0.00000000000E+00  0.13431779654E+04  0.13431779654E+04  0.00000000000E+00 0.  1.
         21   -1    0    0  502  503 -0.00000000000E+00 -0.00000000000E+00 -0.20208120741E+03  0.20208120741E+03  0.00000000000E+00 0.  1.
    9000007    2    1    2  501    0 -0.15134979791E+03  0.16513524802E+03  0.93847730282E+03  0.10440296295E+04  0.39885060846E+03 0.  0.
    9000005    1    3    3    0    0 -0.36830382727E+02  0.12657229491E+03  0.40425940064E+02  0.13788502295E+03  0.99999687468E+00 0.  0.
          4    1    3    3  501    0 -0.11451941518E+03  0.38562953112E+02  0.89805136275E+03  0.90614460653E+03  0.00000000000E+00 0.  1.
   -9000007    1    1    2    0  503  0.15134979791E+03 -0.16513524802E+03  0.20261945515E+03  0.50122954329E+03  0.40000000000E+03 0.  1.
<mgrwt>
<rscale>  2 0.45819918E+03</rscale>
<asrwt>0</asrwt>
<pdfrwt beam="1">  1       21 0.20664276E+00 0.45845001E+03</pdfrwt>
<pdfrwt beam="2">  1       21 0.31089417E-01 0.45845001E+03</pdfrwt>
<totfact> 0.10046659E+03</totfact>
</mgrwt>
</event>
<event>
 6    1  0.8739326E-004  0.6432726E+03  0.7818608E-02  0.9819753E-01
         21   -1    0    0  501  502  0.00000000000E+00  0.00000000000E+00  0.10886693485E+04  0.10886693485E+04  0.00000000000E+00 0. -1.
         21   -1    0    0  502  503 -0.00000000000E+00 -0.00000000000E+00 -0.60133469016E+03  0.60133469016E+03  0.00000000000E+00 0. -1.
    9000007    2    1    2  501    0 -0.47212789011E+03  0.17369526723E+03  0.75666230012E+03  0.99314525163E+03  0.40090505603E+03 0.  0.
    9000005    1    3    3    0    0 -0.12361106641E+03  0.12124516916E+03  0.17218910064E+02  0.17400453339E+03  0.99999687468E+00 0.  0.
          4    1    3    3  501    0 -0.34851682370E+03  0.52450098064E+02  0.73944339005E+03  0.81914071824E+03  0.00000000000E+00 0.  1.
   -9000007    1    1    2    0  503  0.47212789011E+03 -0.17369526723E+03 -0.26932764175E+03  0.69685878705E+03  0.40000000000E+03 0. -1.
<mgrwt>
<rscale>  2 0.64313165E+03</rscale>
<asrwt>0</asrwt>
<pdfrwt beam="1">  1       21 0.16748759E+00 0.64327261E+03</pdfrwt>
<pdfrwt beam="2">  1       21 0.92513029E-01 0.64327261E+03</pdfrwt>
<totfact> 0.16360117E+02</totfact>
</mgrwt>
</event>
<event>
 6    1  0.8739326E-004  0.5537320E+03  0.7818608E-02  0.1000634E+00
         21   -1    0    0  501  502  0.00000000000E+00  0.00000000000E+00  0.27082416685E+03  0.27082416685E+03  0.00000000000E+00 0. -1.
         21   -1    0    0  502  503 -0.00000000000E+00 -0.00000000000E+00 -0.11810178120E+04  0.11810178120E+04  0.00000000000E+00 0. -1.
    9000007    2    1    2  501    0  0.32410815314E+03 -0.20389468760E+03 -0.30745001546E+03  0.63335616854E+03  0.39999423203E+03 0.  0.
    9000005    1    3    3    0    0  0.26961983335E+03 -0.50776654599E+02  0.12337739109E+02  0.27463856791E+03  0.99999687468E+00 0.  0.
          4    1    3    3  501    0  0.54488319795E+02 -0.15311803300E+03 -0.31978775457E+03  0.35871760062E+03  0.00000000000E+00 0.  1.
   -9000007    1    1    2    0  503 -0.32410815314E+03  0.20389468760E+03 -0.60274362971E+03  0.81848581033E+03  0.40000000000E+03 0.  1.
<mgrwt>
<rscale>  2 0.55373097E+03</rscale>
<asrwt>0</asrwt>
<pdfrwt beam="1">  1       21 0.41665256E-01 0.55373201E+03</pdfrwt>
<pdfrwt beam="2">  1       21 0.18169505E+00 0.55373201E+03</pdfrwt>
<totfact> 0.78696452E+02</totfact>
</mgrwt>
</event>
<event>
 6    1  0.8739326E-004  0.4573583E+03  0.7818608E-02  0.1025552E+00
         21   -1    0    0  501  502  0.00000000000E+00  0.00000000000E+00  0.21010757070E+03  0.21010757070E+03  0.00000000000E+00 0. -1.
         21   -1    0    0  502  503 -0.00000000000E+00 -0.00000000000E+00 -0.11461483455E+04  0.11461483455E+04  0.00000000000E+00 0. -1.
    9000007    2    1    2  501    0 -0.21997975361E+03 -0.27514352878E+02 -0.22218360430E+03  0.50847045307E+03  0.40003564343E+03 0.  0.
    9000005    1    3    3    0    0 -0.21483328838E+03 -0.31426542492E+02  0.60751807892E+02  0.22546119738E+03  0.99999687468E+00 0.  0.
          4    1    3    3  501    0 -0.51464652243E+01  0.39121896134E+01 -0.28293541219E+03  0.28300925569E+03  0.00000000000E+00 0.  1.
   -9000007    1    1    2    0  503  0.21997975361E+03  0.27514352878E+02 -0.71385717052E+03  0.84778546314E+03  0.40000000000E+03 0. -1.
<mgrwt>
<rscale>  2 0.45735054E+03</rscale>
<asrwt>0</asrwt>
<pdfrwt beam="1">  1       21 0.32324241E-01 0.45735834E+03</pdfrwt>
<pdfrwt beam="2">  1       21 0.17633052E+00 0.45735834E+03</pdfrwt>
<totfact> 0.14979088E+03</totfact>
</mgrwt>
</event>
<event>
 6    1  0.8739326E-004  0.5196790E+03  0.7818608E-02  0.1008790E+00
         21   -1    0    0  501  502  0.00000000000E+00  0.00000000000E+00  0.35019001724E+03  0.35019001724E+03  0.00000000000E+00 0. -1.
         21   -1    0    0  502  503 -0.00000000000E+00 -0.00000000000E+00 -0.86811355177E+03  0.86811355177E+03  0.00000000000E+00 0. -1.
    9000007    2    1    2  501    0  0.96020758485E+00 -0.33176101136E+03 -0.54751021860E+02  0.52217494071E+03  0.39950307089E+03 0.  0.
    9000005    1    3    3    0    0 -0.11111817253E+03 -0.13963505955E+03  0.13977989725E+03  0.22668175443E+03  0.99999687468E+00 0.  0.
          4    1    3    3  501    0  0.11207838012E+03 -0.19212595181E+03 -0.19453091911E+03  0.29549318628E+03  0.00000000000E+00 0.  1.
   -9000007    1    1    2    0  503 -0.96020758485E+00  0.33176101136E+03 -0.46317251266E+03  0.69612862830E+03  0.40000000000E+03 0. -1.
<mgrwt>
<rscale>  2 0.51958340E+03</rscale>
<asrwt>0</asrwt>
<pdfrwt beam="1">  1       21 0.53875388E-01 0.51967903E+03</pdfrwt>
<pdfrwt beam="2">  1       21 0.13355593E+00 0.51967903E+03</pdfrwt>
<totfact> 0.10871596E+03</totfact>
</mgrwt>
</event>
<event>
 6    1  0.8739326E-004  0.4680220E+03  0.7818608E-02  0.1022773E+00
         21   -1    0    0  501  502  0.00000000000E+00  0.00000000000E+00  0.93744896844E+02  0.93744896844E+02  0.00000000000E+00 0.  1.
         21   -1    0    0  502  503 -0.00000000000E+00 -0.00000000000E+00 -0.24503938659E+04  0.24503938659E+04  0.00000000000E+00 0.  1.
    9000007    2    1    2  501    0 -0.21764175766E+03  0.10805868865E+03 -0.87568292836E+03  0.99097907084E+03  0.39518895853E+03 0.  0.
    9000005    1    3    3    0    0  0.56519341634E+02 -0.75120535031E+02 -0.60918058453E+02  0.11202473210E+03  0.99999687468E+00 0.  0.
          4    1    3    3  501    0 -0.27416109930E+03  0.18317922368E+03 -0.81476486991E+03  0.87895433874E+03  0.00000000000E+00 0.  1.
   -9000007    1    1    2    0  503  0.21764175766E+03 -0.10805868865E+03 -0.14809660407E+04  0.15531596919E+04  0.40000000000E+03 0.  1.
<mgrwt>
<rscale>  2 0.46699236E+03</rscale>
<asrwt>0</asrwt>
<pdfrwt beam="1">  1       21 0.14422294E-01 0.46802202E+03</pdfrwt>
<pdfrwt beam="2">  1       21 0.37698361E+00 0.46802202E+03</pdfrwt>
<totfact> 0.39006128E+02</totfact>
</mgrwt>
</event>
<event>
 6    1  0.8739326E-004  0.4841333E+03  0.7818608E-02  0.1018031E+00
         21   -1    0    0  501  502  0.00000000000E+00  0.00000000000E+00  0.38012750747E+03  0.38012750747E+03  0.00000000000E+00 0.  1.
         21   -1    0    0  502  503 -0.00000000000E+00 -0.00000000000E+00 -0.10820869039E+04  0.10820869039E+04  0.00000000000E+00 0. -1.
    9000007    2    1    2  501    0  0.26686610376E+03 -0.56280970635E+02 -0.83066856388E+03  0.96126419948E+03  0.39954165389E+03 0.  0.
    9000005    1    3    3    0    0  0.16484192212E+03  0.63372209260E+02 -0.77435682270E+03  0.79424076013E+03  0.99999687468E+00 0.  0.
          4    1    3    3  501    0  0.10202418164E+03 -0.11965317989E+03 -0.56311741179E+02  0.16702343935E+03  0.00000000000E+00 0.  1.
   -9000007    1    1    2    0  503 -0.26686610376E+03  0.56280970635E+02  0.12870916746E+03  0.50095021188E+03  0.40000000000E+03 0.  1.
<mgrwt>
<rscale>  2 0.48403863E+03</rscale>
<asrwt>0</asrwt>
<pdfrwt beam="1">  1       21 0.58481154E-01 0.48413331E+03</pdfrwt>
<pdfrwt beam="2">  1       21 0.16647491E+00 0.48413331E+03</pdfrwt>
<totfact> 0.50599271E+02</totfact>
</mgrwt>
</event>
<event>
 6    1  0.8739326E-004  0.5788473E+03  0.7818608E-02  0.9950520E-01
         21   -1    0    0  501  502  0.00000000000E+00  0.00000000000E+00  0.39658399746E+03  0.39658399746E+03  0.00000000000E+00 0. -1.
         21   -1    0    0  502  503 -0.00000000000E+00 -0.00000000000E+00 -0.10728838589E+04  0.10728838589E+04  0.00000000000E+00 0. -1.
    9000007    2    1    2  501    0  0.41743415332E+03 -0.17909004420E+02  0.92357225286E+00  0.57884808118E+03  0.40061483161E+03 0.  0.
    9000005    1    3    3    0    0  0.15671564176E+03  0.16464948885E+03  0.95881652978E+02  0.24670536663E+03  0.99999687468E+00 0.  0.
          4    1    3    3  501    0  0.26071851155E+03 -0.18255849327E+03 -0.94958080725E+02  0.33214271455E+03  0.00000000000E+00 0.  1.
   -9000007    1    1    2    0  503 -0.41743415332E+03  0.17909004420E+02 -0.67722343365E+03  0.89061977515E+03  0.40000000000E+03 0. -1.
<mgrwt>
<rscale>  2 0.57874098E+03</rscale>
<asrwt>0</asrwt>
<pdfrwt beam="1">  1       21 0.61012924E-01 0.57884734E+03</pdfrwt>
<pdfrwt beam="2">  1       21 0.16505905E+00 0.57884734E+03</pdfrwt>
<totfact> 0.45492348E+02</totfact>
</mgrwt>
</event>
<event>
 6    1  0.8739326E-004  0.6155653E+03  0.7818608E-02  0.9873670E-01
         21   -1    0    0  501  502  0.00000000000E+00  0.00000000000E+00  0.70773078616E+03  0.70773078616E+03  0.00000000000E+00 0.  1.
         21   -1    0    0  502  503 -0.00000000000E+00 -0.00000000000E+00 -0.56182851875E+03  0.56182851875E+03  0.00000000000E+00 0.  1.
    9000007    2    1    2  501    0  0.40051128431E+03  0.24189127927E+03  0.21080158233E+03  0.65058224482E+03  0.39987406807E+03 0.  0.
    9000005    1    3    3    0    0 -0.22349466339E+02  0.66939164337E+02 -0.81314195293E+02  0.10767241391E+03  0.99999687468E+00 0.  0.
          4    1    3    3  501    0  0.42286075064E+03  0.17495211493E+03  0.29211577762E+03  0.54290983090E+03  0.00000000000E+00 0.  1.
   -9000007    1    1    2    0  503 -0.40051128431E+03 -0.24189127927E+03 -0.64899314929E+02  0.61897706009E+03  0.40000000000E+03 0.  1.
<mgrwt>
<rscale>  2 0.61554488E+03</rscale>
<asrwt>0</asrwt>
<pdfrwt beam="1">  1       21 0.10888166E+00 0.61556533E+03</pdfrwt>
<pdfrwt beam="2">  1       21 0.86435157E-01 0.61556533E+03</pdfrwt>
<totfact> 0.61125914E+02</totfact>
</mgrwt>
</event>
<event>
 6    1  0.8739326E-004  0.7472045E+03  0.7818608E-02  0.9639778E-01
         21   -1    0    0  501  502  0.00000000000E+00  0.00000000000E+00  0.90680304701E+03  0.90680304701E+03  0.00000000000E+00 0. -1.
         21   -1    0    0  502  503 -0.00000000000E+00 -0.00000000000E+00 -0.70934923687E+03  0.70934923687E+03  0.00000000000E+00 0. -1.
    9000007    2    1    2  501    0  0.53739964911E+03 -0.33093225859E+03 -0.19500135049E+03  0.77215252336E+03  0.39984928411E+03 0.  0.
    9000005    1    3    3    0    0  0.91474231407E+02 -0.12892626476E+03  0.11251188411E+03  0.19403463819E+03  0.99999687468E+00 0.  0.
          4    1    3    3  501    0  0.44592541771E+03 -0.20200599382E+03 -0.30751323460E+03  0.57811788517E+03  0.00000000000E+00 0.  1.
   -9000007    1    1    2    0  503 -0.53739964911E+03  0.33093225859E+03  0.39245516063E+03  0.84399976051E+03  0.40000000000E+03 0. -1.
<mgrwt>
<rscale>  2 0.74718432E+03</rscale>
<asrwt>0</asrwt>
<pdfrwt beam="1">  1       21 0.13950816E+00 0.74720449E+03</pdfrwt>
<pdfrwt beam="2">  1       21 0.10913065E+00 0.74720449E+03</pdfrwt>
<totfact> 0.17507117E+02</totfact>
</mgrwt>
</event>
<event>
 6    1  0.8739326E-004  0.4623915E+03  0.7818608E-02  0.1024116E+00
         21   -1    0    0  501  502  0.00000000000E+00  0.00000000000E+00  0.12925956810E+03  0.12925956810E+03  0.00000000000E+00 0. -1.
         21   -1    0    0  502  503 -0.00000000000E+00 -0.00000000000E+00 -0.17676117731E+04  0.17676117731E+04  0.00000000000E+00 0. -1.
    9000007    2    1    2  501    0  0.22469405165E+03  0.54625509999E+02 -0.57774569551E+03  0.73999730694E+03  0.40041798463E+03 0.  0.
    9000005    1    3    3    0    0  0.12018899456E+03  0.18040539252E+03 -0.52528724323E+03  0.56825978915E+03  0.99999687468E+00 0.  0.
          4    1    3    3  501    0  0.10450505709E+03 -0.12577988252E+03 -0.52458452277E+02  0.17173751780E+03  0.00000000000E+00 0.  1.
   -9000007    1    1    2    0  503 -0.22469405165E+03 -0.54625509999E+02 -0.10606065095E+04  0.11568740343E+04  0.40000000000E+03 0. -1.
<mgrwt>
<rscale>  2 0.46230102E+03</rscale>
<asrwt>0</asrwt>
<pdfrwt beam="1">  1       21 0.19886089E-01 0.46239153E+03</pdfrwt>
<pdfrwt beam="2">  1       21 0.27194024E+00 0.46239153E+03</pdfrwt>
<totfact> 0.93519004E+02</totfact>
</mgrwt>
</event>
<event>
 6    1  0.8739326E-004  0.4612197E+03  0.7818608E-02  0.1024437E+00
         21   -1    0    0  501  502  0.00000000000E+00  0.00000000000E+00  0.16747981867E+04  0.16747981867E+04  0.00000000000E+00 0.  1.
         21   -1    0    0  502  503 -0.00000000000E+00 -0.00000000000E+00 -0.18057633481E+03  0.18057633481E+03  0.00000000000E+00 0.  1.
    9000007    2    1    2  501    0 -0.40873363423E+02 -0.22568822689E+03  0.12525910299E+04  0.13348063111E+04  0.40014721333E+03 0.  0.
    9000005    1    3    3    0    0 -0.66721240886E+02 -0.33471203986E+03  0.82572678265E+03  0.89348172516E+03  0.99999687468E+00 0.  0.
          4    1    3    3  501    0  0.25847877463E+02  0.10902381297E+03  0.42686424723E+03  0.44132458591E+03  0.00000000000E+00 0.  1.
   -9000007    1    1    2    0  503  0.40873363423E+02  0.22568822689E+03  0.24163082205E+03  0.52056821047E+03  0.40000000000E+03 0.  1.
<mgrwt>
<rscale>  2 0.46118776E+03</rscale>
<asrwt>0</asrwt>
<pdfrwt beam="1">  1       21 0.25766125E+00 0.46121969E+03</pdfrwt>
<pdfrwt beam="2">  1       21 0.27780976E-01 0.46121969E+03</pdfrwt>
<totfact> 0.59835961E+02</totfact>
</mgrwt>
</event>
<event>
 6    1  0.8739326E-004  0.4538240E+03  0.7818608E-02  0.1026618E+00
         21   -1    0    0  501  502  0.00000000000E+00  0.00000000000E+00  0.23563700650E+03  0.23563700650E+03  0.00000000000E+00 0.  1.
         21   -1    0    0  502  503 -0.00000000000E+00 -0.00000000000E+00 -0.95211519348E+03  0.95211519348E+03  0.00000000000E+00 0. -1.
    9000007    2    1    2  501    0 -0.14706569571E+03 -0.15597415081E+03 -0.52902041762E+03  0.69673624315E+03  0.39952789100E+03 0.  0.
    9000005    1    3    3    0    0 -0.19941619332E+03 -0.52447103290E+02 -0.54209867858E+03  0.57999094313E+03  0.99999687468E+00 0.  0.
          4    1    3    3  501    0  0.52350497612E+02 -0.10352704752E+03  0.13078260958E+02  0.11674530002E+03  0.00000000000E+00 0.  1.
   -9000007    1    1    2    0  503  0.14706569571E+03  0.15597415081E+03 -0.18745776936E+03  0.49101595683E+03  0.40000000000E+03 0.  1.
<mgrwt>
<rscale>  2 0.45371998E+03</rscale>
<asrwt>0</asrwt>
<pdfrwt beam="1">  1       21 0.36251847E-01 0.45382403E+03</pdfrwt>
<pdfrwt beam="2">  1       21 0.14647926E+00 0.45382403E+03</pdfrwt>
<totfact> 0.19970072E+03</totfact>
</mgrwt>
</event>
<event>
 6    1  0.8739326E-004  0.4004786E+03  0.7818608E-02  0.1043645E+00
         21   -1    0    0  501  502  0.00000000000E+00  0.00000000000E+00  0.31411980019E+03  0.31411980019E+03  0.00000000000E+00 0. -1.
         21   -1    0    0  502  503 -0.00000000000E+00 -0.00000000000E+00 -0.61923223782E+03  0.61923223782E+03  0.00000000000E+00 0. -1.
    9000007    2    1    2  501    0  0.93440393438E+01  0.35857612280E+01  0.43276213332E+02  0.40281003131E+03  0.40035349621E+03 0.  0.
    9000005    1    3    3    0    0  0.54307738660E+02  0.12289965194E+03  0.17423751668E+03  0.22003037777E+03  0.99999687468E+00 0.  0.
          4    1    3    3  501    0 -0.44963699316E+02 -0.11931389072E+03 -0.13096130335E+03  0.18277965354E+03  0.00000000000E+00 0.  1.
   -9000007    1    1    2    0  503 -0.93440393438E+01 -0.35857612280E+01 -0.34838865097E+03  0.53054200670E+03  0.40000000000E+03 0. -1.
<mgrwt>
<rscale>  2 0.40039020E+03</rscale>
<asrwt>0</asrwt>
<pdfrwt beam="1">  1       21 0.48326123E-01 0.40047858E+03</pdfrwt>
<pdfrwt beam="2">  1       21 0.95266498E-01 0.40047858E+03</pdfrwt>
<totfact> 0.33412164E+03</totfact>
</mgrwt>
</event>
<event>
 6    1  0.8739326E-004  0.4669270E+03  0.7818608E-02  0.1022808E+00
         21   -1    0    0  501  502  0.00000000000E+00  0.00000000000E+00  0.21368346819E+03  0.21368346819E+03  0.00000000000E+00 0. -1.
         21   -1    0    0  502  503 -0.00000000000E+00 -0.00000000000E+00 -0.10200695556E+04  0.10200695556E+04  0.00000000000E+00 0.  1.
    9000007    2    1    2  501    0 -0.15331892151E+03 -0.18577991629E+03 -0.41350018846E+03  0.62352339605E+03  0.39972259203E+03 0.  0.
    9000005    1    3    3    0    0 -0.10851685292E+03 -0.67490382398E+02  0.54351763444E+02  0.13887394740E+03  0.99999687468E+00 0.  0.
          4    1    3    3  501    0 -0.44802068590E+02 -0.11828953389E+03 -0.46785195190E+03  0.48464944865E+03  0.00000000000E+00 0.  1.
   -9000007    1    1    2    0  503  0.15331892151E+03  0.18577991629E+03 -0.39288589900E+03  0.61022962778E+03  0.40000000000E+03 0. -1.
<mgrwt>
<rscale>  2 0.46686763E+03</rscale>
<asrwt>0</asrwt>
<pdfrwt beam="1">  1       21 0.32874379E-01 0.46692705E+03</pdfrwt>
<pdfrwt beam="2">  1       21 0.15693378E+00 0.46692705E+03</pdfrwt>
<totfact> 0.20059435E+03</totfact>
</mgrwt>
</event>
<event>
 6    1  0.8739326E-004  0.4238502E+03  0.7818608E-02  0.1035914E+00
         21   -1    0    0  501  502  0.00000000000E+00  0.00000000000E+00  0.94622539456E+03  0.94622539456E+03  0.00000000000E+00 0. -1.
         21   -1    0    0  502  503 -0.00000000000E+00 -0.00000000000E+00 -0.22828268792E+03  0.22828268792E+03  0.00000000000E+00 0. -1.
    9000007    2    1    2  501    0  0.26403059001E+02  0.13406007840E+03  0.11682946113E+03  0.43965683218E+03  0.40122285696E+03 0.  0.
    9000005    1    3    3    0    0 -0.17097765292E+03  0.14483220866E+03  0.40231295988E+02  0.22766045690E+03  0.99999687468E+00 0.  0.
          4    1    3    3  501    0  0.19738071192E+03 -0.10772130257E+02  0.76598165141E+02  0.21199637528E+03  0.00000000000E+00 0.  1.
   -9000007    1    1    2    0  503 -0.26403059001E+02 -0.13406007840E+03  0.60111324551E+03  0.73485125030E+03  0.40000000000E+03 0. -1.
<mgrwt>
<rscale>  2 0.42356057E+03</rscale>
<asrwt>0</asrwt>
<pdfrwt beam="1">  1       21 0.14557314E+00 0.42385022E+03</pdfrwt>
<pdfrwt beam="2">  1       21 0.35120414E-01 0.42385022E+03</pdfrwt>
<totfact> 0.21917107E+03</totfact>
</mgrwt>
</event>
<event>
 6    1  0.8739326E-004  0.4091558E+03  0.7818608E-02  0.1040699E+00
         21   -1    0    0  501  502  0.00000000000E+00  0.00000000000E+00  0.22824476369E+04  0.22824476369E+04  0.00000000000E+00 0.  1.
         21   -1    0    0  502  503 -0.00000000000E+00 -0.00000000000E+00 -0.10184725394E+03  0.10184725394E+03  0.00000000000E+00 0.  1.
    9000007    2    1    2  501    0  0.75167049600E+02  0.41932924602E+02  0.17214821283E+04  0.17693168203E+04  0.39946568936E+03 0.  0.
    9000005    1    3    3    0    0 -0.21364186791E+02  0.79852455728E+02  0.54286027311E+02  0.98898007654E+02  0.99999687468E+00 0.  0.
          4    1    3    3  501    0  0.96531236391E+02 -0.37919531126E+02  0.16671961010E+04  0.16704188126E+04  0.00000000000E+00 0.  1.
   -9000007    1    1    2    0  503 -0.75167049600E+02 -0.41932924602E+02  0.45911825471E+03  0.61497807060E+03  0.40000000000E+03 0.  1.
<mgrwt>
<rscale>  2 0.40902514E+03</rscale>
<asrwt>0</asrwt>
<pdfrwt beam="1">  1       21 0.35114575E+00 0.40915578E+03</pdfrwt>
<pdfrwt beam="2">  1       21 0.15668810E-01 0.40915578E+03</pdfrwt>
<totfact> 0.50199680E+02</totfact>
</mgrwt>
</event>
<event>
 6    1  0.8739326E-004  0.5639745E+03  0.7818608E-02  0.9983526E-01
         21   -1    0    0  501  502  0.00000000000E+00  0.00000000000E+00  0.13941941220E+04  0.13941941220E+04  0.00000000000E+00 0. -1.
         21   -1    0    0  502  503 -0.00000000000E+00 -0.00000000000E+00 -0.28124841035E+03  0.28124841035E+03  0.00000000000E+00 0.  1.
    9000007    2    1    2  501    0  0.17179725387E+03  0.35854283277E+03  0.92125641948E+03  0.10797815179E+04  0.39893292253E+03 0.  0.
    9000005    1    3    3    0    0  0.12046238737E+03  0.43987738441E+03  0.66769803693E+03  0.80859444013E+03  0.99999687468E+00 0.  0.
          4    1    3    3  501    0  0.51334866500E+02 -0.81334551645E+02  0.25355838255E+03  0.27118707781E+03  0.00000000000E+00 0.  1.
   -9000007    1    1    2    0  503 -0.17179725387E+03 -0.35854283277E+03  0.19168929217E+03  0.59566101442E+03  0.40000000000E+03 0.  1.
<mgrwt>
<rscale>  2 0.56378534E+03</rscale>
<asrwt>0</asrwt>
<pdfrwt beam="1">  1       21 0.21449140E+00 0.56397452E+03</pdfrwt>
<pdfrwt beam="2">  1       21 0.43268987E-01 0.56397452E+03</pdfrwt>
<totfact> 0.43446526E+02</totfact>
</mgrwt>
</event>
<event>
 6    1  0.8739326E-004  0.4549902E+03  0.7818608E-02  0.1026295E+00
         21   -1    0    0  501  502  0.00000000000E+00  0.00000000000E+00  0.20167088498E+04  0.20167088498E+04  0.00000000000E+00 0. -1.
         21   -1    0    0  502  503 -0.00000000000E+00 -0.00000000000E+00 -0.13960934327E+03  0.13960934327E+03  0.00000000000E+00 0. -1.
    9000007    2    1    2  501    0 -0.57271812728E+02 -0.20762366111E+03  0.14949761708E+04  0.15626803498E+04  0.40078482929E+03 0.  0.
    9000005    1    3    3    0    0 -0.15769631599E+03 -0.84035170505E+02  0.12939113511E+04  0.13061920313E+04  0.99999687468E+00 0.  0.
          4    1    3    3  501    0  0.10042450326E+03 -0.12358849060E+03  0.20106481966E+03  0.25648831858E+03  0.00000000000E+00 0.  1.
   -9000007    1    1    2    0  503  0.57271812728E+02  0.20762366111E+03  0.38212333572E+03  0.59363784321E+03  0.40000000000E+03 0. -1.
<mgrwt>
<rscale>  2 0.45481735E+03</rscale>
<asrwt>0</asrwt>
<pdfrwt beam="1">  1       21 0.31026288E+00 0.45499025E+03</pdfrwt>
<pdfrwt beam="2">  1       21 0.21478362E-01 0.45499025E+03</pdfrwt>
<totfact> 0.47621988E+02</totfact>
</mgrwt>
</event>
<event>
 6    1  0.8739326E-004  0.4101656E+03  0.7818608E-02  0.1040339E+00
         21   -1    0    0  501  502  0.00000000000E+00  0.00000000000E+00  0.17282796593E+03  0.17282796593E+03  0.00000000000E+00 0. -1.
         21   -1    0    0  502  503 -0.00000000000E+00 -0.00000000000E+00 -0.17021053304E+04  0.17021053304E+04  0.00000000000E+00 0.  1.
    9000007    2    1    2  501    0 -0.49718130762E+02 -0.74381620783E+02 -0.15112712385E+03  0.43712155491E+03  0.40028905577E+03 0.  0.
    9000005    1    3    3    0    0 -0.97936528470E+02 -0.21905337725E+03 -0.15306194481E+03  0.28461360585E+03  0.99999687468E+00 0.  0.
          4    1    3    3  501    0  0.48218397707E+02  0.14467175646E+03  0.19348209536E+01  0.15250794907E+03  0.00000000000E+00 0.  1.
   -9000007    1    1    2    0  503  0.49718130762E+02  0.74381620783E+02 -0.13781502406E+04  0.14378117414E+04  0.40000000000E+03 0.  1.
<mgrwt>
<rscale>  2 0.41009509E+03</rscale>
<asrwt>0</asrwt>
<pdfrwt beam="1">  1       21 0.26588918E-01 0.41016563E+03</pdfrwt>
<pdfrwt beam="2">  1       21 0.26186235E+00 0.41016563E+03</pdfrwt>
<totfact> 0.63219944E+02</totfact>
</mgrwt>
</event>
<event>
 6    1  0.8739326E-004  0.5424248E+03  0.7818608E-02  0.1003314E+00
         21   -1    0    0  501  502  0.00000000000E+00  0.00000000000E+00  0.17086462027E+03  0.17086462027E+03  0.00000000000E+00 0. -1.
         21   -1    0    0  502  503 -0.00000000000E+00 -0.00000000000E+00 -0.17310783738E+04  0.17310783738E+04  0.00000000000E+00 0.  1.
    9000007    2    1    2  501    0 -0.37863622652E+02 -0.36310511052E+03 -0.85948217018E+03  0.10163337534E+04  0.40118041112E+03 0.  0.
    9000005    1    3    3    0    0  0.13799669902E+03 -0.12585636714E+03 -0.12510234584E+03  0.22479882344E+03  0.99999687468E+00 0.  0.
          4    1    3    3  501    0 -0.17586032167E+03 -0.23724874338E+03 -0.73437982435E+03  0.79153492998E+03  0.00000000000E+00 0.  1.
   -9000007    1    1    2    0  503  0.37863622652E+02  0.36310511052E+03 -0.70073158332E+03  0.88560924062E+03  0.40000000000E+03 0.  1.
<mgrwt>
<rscale>  2 0.54220659E+03</rscale>
<asrwt>0</asrwt>
<pdfrwt beam="1">  1       21 0.26286865E-01 0.54242483E+03</pdfrwt>
<pdfrwt beam="2">  1       21 0.26631975E+00 0.54242483E+03</pdfrwt>
<totfact> 0.56832478E+02</totfact>
</mgrwt>
</event>
<event>
 6    1  0.8739326E-004  0.4061031E+03  0.7818608E-02  0.1041951E+00
         21   -1    0    0  501  502  0.00000000000E+00  0.00000000000E+00  0.14353536007E+04  0.14353536007E+04  0.00000000000E+00 0.  1.
         21   -1    0    0  502  503 -0.00000000000E+00 -0.00000000000E+00 -0.19027579125E+03  0.19027579125E+03  0.00000000000E+00 0.  1.
    9000007    2    1    2  501    0  0.65369019281E+02 -0.25428754487E+02  0.11356588617E+04  0.12050438045E+04  0.39684983349E+03 0.  0.
    9000005    1    3    3    0    0  0.21625748009E+03 -0.80733842212E+02  0.52336310970E+03  0.57200978625E+03  0.99999687468E+00 0.  0.
          4    1    3    3  501    0 -0.15088846081E+03  0.55305087724E+02  0.61229575201E+03  0.63303401825E+03  0.00000000000E+00 0.  1.
   -9000007    1    1    2    0  503 -0.65369019281E+02  0.25428754487E+02  0.10941894772E+03  0.42058558743E+03  0.40000000000E+03 0.  1.
<mgrwt>
<rscale>  2 0.40532526E+03</rscale>
<asrwt>0</asrwt>
<pdfrwt beam="1">  1       21 0.22082362E+00 0.40610310E+03</pdfrwt>
<pdfrwt beam="2">  1       21 0.29273200E-01 0.40610310E+03</pdfrwt>
<totfact> 0.94070592E+02</totfact>
</mgrwt>
</event>
<event>
 6    1  0.8739326E-004  0.4266601E+03  0.7818608E-02  0.1034934E+00
         21   -1    0    0  501  502  0.00000000000E+00  0.00000000000E+00  0.16012232859E+03  0.16012232859E+03  0.00000000000E+00 0.  1.
         21   -1    0    0  502  503 -0.00000000000E+00 -0.00000000000E+00 -0.15589042577E+04  0.15589042577E+04  0.00000000000E+00 0.  1.
    9000007    2    1    2  501    0  0.13531957427E+03  0.59821344457E+02 -0.25203542839E+03  0.49554078035E+03  0.40018599099E+03 0.  0.
    9000005    1    3    3    0    0  0.53285774621E+02 -0.11310463936E+03 -0.27566053867E+03  0.30269087498E+03  0.99999687468E+00 0.  0.
          4    1    3    3  501    0  0.82033799653E+02  0.17292598382E+03  0.23625110279E+02  0.19284990537E+03  0.00000000000E+00 0.  1.
   -9000007    1    1    2    0  503 -0.13531957427E+03 -0.59821344457E+02 -0.11467465007E+04  0.12234858059E+04  0.40000000000E+03 0.  1.
<mgrwt>
<rscale>  2 0.42661644E+03</rscale>
<asrwt>0</asrwt>
<pdfrwt beam="1">  1       21 0.24634204E-01 0.42666006E+03</pdfrwt>
<pdfrwt beam="2">  1       21 0.23983143E+00 0.42666006E+03</pdfrwt>
<totfact> 0.99166835E+02</totfact>
</mgrwt>
</event>
<event>
 6    1  0.8739326E-004  0.4533585E+03  0.7818608E-02  0.1026740E+00
         21   -1    0    0  501  502  0.00000000000E+00  0.00000000000E+00  0.14425904835E+04  0.14425904835E+04  0.00000000000E+00 0. -1.
         21   -1    0    0  502  503 -0.00000000000E+00 -0.00000000000E+00 -0.18538716436E+03  0.18538716436E+03  0.00000000000E+00 0.  1.
    9000007    2    1    2  501    0 -0.78935564941E+02 -0.19825007252E+03  0.23657977758E+03  0.51119372593E+03  0.39976883271E+03 0.  0.
    9000005    1    3    3    0    0  0.14843915828E+03  0.37280556738E+01  0.89384880850E+02  0.17331687462E+03  0.99999687468E+00 0.  0.
          4    1    3    3  501    0 -0.22737472322E+03 -0.20197812820E+03  0.14719489673E+03  0.33787685131E+03  0.00000000000E+00 0.  1.
   -9000007    1    1    2    0  503  0.78935564941E+02  0.19825007252E+03  0.10206235415E+04  0.11167839219E+04  0.40000000000E+03 0. -1.
<mgrwt>
<rscale>  2 0.45330749E+03</rscale>
<asrwt>0</asrwt>
<pdfrwt beam="1">  1       21 0.22193699E+00 0.45335848E+03</pdfrwt>
<pdfrwt beam="2">  1       21 0.28521103E-01 0.45335848E+03</pdfrwt>
<totfact> 0.95159958E+02</totfact>
</mgrwt>
</event>
<event>
 6    1  0.8739326E-004  0.4023399E+03  0.7818608E-02  0.1042982E+00
         21   -1    0    0  501  502  0.00000000000E+00  0.00000000000E+00  0.80526476866E+03  0.80526476866E+03  0.00000000000E+00 0.  1.
         21   -1    0    0  502  503 -0.00000000000E+00 -0.00000000000E+00 -0.27540766889E+03  0.27540766889E+03  0.00000000000E+00 0.  1.
    9000007    2    1    2  501    0 -0.40164811650E+02 -0.16253468269E+02  0.54581642723E+03  0.67801614807E+03  0.39989115704E+03 0.  0.
    9000005    1    3    3    0    0 -0.40147315663E+02 -0.19207705809E+03  0.15704821318E+03  0.25133751104E+03  0.99999687468E+00 0.  0.
          4    1    3    3  501    0 -0.17495986309E-01  0.17582358982E+03  0.38876821405E+03  0.42667863703E+03  0.00000000000E+00 0.  1.
   -9000007    1    1    2    0  503  0.40164811650E+02  0.16253468269E+02 -0.15959327461E+02  0.40265628948E+03  0.40000000000E+03 0.  1.
<mgrwt>
<rscale>  2 0.40231284E+03</rscale>
<asrwt>0</asrwt>
<pdfrwt beam="1">  1       21 0.12388689E+00 0.40233989E+03</pdfrwt>
<pdfrwt beam="2">  1       21 0.42370411E-01 0.40233989E+03</pdfrwt>
<totfact> 0.22974381E+03</totfact>
</mgrwt>
</event>
<event>
 6    1  0.8739326E-004  0.7212542E+03  0.7818608E-02  0.9682198E-01
         21   -1    0    0  501  502  0.00000000000E+00  0.00000000000E+00  0.27004850280E+03  0.27004850280E+03  0.00000000000E+00 0. -1.
         21   -1    0    0  502  503 -0.00000000000E+00 -0.00000000000E+00 -0.21230193142E+04  0.21230193142E+04  0.00000000000E+00 0. -1.
    9000007    2    1    2  501    0 -0.24594364283E+03 -0.54542571432E+03 -0.55940013449E+03  0.91276292225E+03  0.40277804865E+03 0.  0.
    9000005    1    3    3    0    0 -0.31257055527E+03 -0.38364951596E+03 -0.24321653847E+03  0.55140056919E+03  0.99999687468E+00 0.  0.
          4    1    3    3  501    0  0.66626912444E+02 -0.16177619836E+03 -0.31618359602E+03  0.36136235306E+03  0.00000000000E+00 0.  1.
   -9000007    1    1    2    0  503  0.24594364283E+03  0.54542571432E+03 -0.12935706769E+04  0.14803048947E+04  0.40000000000E+03 0. -1.
<mgrwt>
<rscale>  2 0.72086698E+03</rscale>
<asrwt>0</asrwt>
<pdfrwt beam="1">  1       21 0.41545922E-01 0.72125421E+03</pdfrwt>
<pdfrwt beam="2">  1       21 0.32661836E+00 0.72125421E+03</pdfrwt>
<totfact> 0.89313153E+01</totfact>
</mgrwt>
</event>
<event>
 6    1  0.8739326E-004  0.4559469E+03  0.7818608E-02  0.1025989E+00
         21   -1    0    0  501  502  0.00000000000E+00  0.00000000000E+00  0.55352573224E+03  0.55352573224E+03  0.00000000000E+00 0.  1.
         21   -1    0    0  502  503 -0.00000000000E+00 -0.00000000000E+00 -0.78632681612E+03  0.78632681612E+03  0.00000000000E+00 0.  1.
    9000007    2    1    2  501    0  0.88326429298E+02  0.19941414213E+03  0.36794078947E+03  0.58589077440E+03  0.40039982115E+03 0.  0.
    9000005    1    3    3    0    0 -0.85966675609E+02  0.12598543738E+03 -0.20459340877E+02  0.15389016983E+03  0.99999687468E+00 0.  0.
          4    1    3    3  501    0  0.17429310491E+03  0.73428704754E+02  0.38840013035E+03  0.43200060458E+03  0.00000000000E+00 0.  1.
   -9000007    1    1    2    0  503 -0.88326429298E+02 -0.19941414213E+03 -0.60074187336E+03  0.75396177396E+03  0.40000000000E+03 0.  1.
<mgrwt>
<rscale>  2 0.45585911E+03</rscale>
<asrwt>0</asrwt>
<pdfrwt beam="1">  1       21 0.85157806E-01 0.45594690E+03</pdfrwt>
<pdfrwt beam="2">  1       21 0.12097336E+00 0.45594690E+03</pdfrwt>
<totfact> 0.51542284E+02</totfact>
</mgrwt>
</event>
<event>
 6    1  0.8739326E-004  0.4018348E+03  0.7818608E-02  0.1043174E+00
         21   -1    0    0  501  502  0.00000000000E+00  0.00000000000E+00  0.23028712394E+04  0.23028712394E+04  0.00000000000E+00 0.  1.
         21   -1    0    0  502  503 -0.00000000000E+00 -0.00000000000E+00 -0.22700264422E+03  0.22700264422E+03  0.00000000000E+00 0.  1.
    9000007    2    1    2  501    0 -0.33162836423E+02 -0.19273023837E+02  0.20895792139E+04  0.21278052275E+04  0.39967808551E+03 0.  0.
    9000005    1    3    3    0    0  0.16854277535E+03  0.13263114198E+02  0.56977192992E+03  0.59432619785E+03  0.99999687468E+00 0.  0.
          4    1    3    3  501    0 -0.20170561178E+03 -0.32536138035E+02  0.15198072840E+04  0.15334790297E+04  0.00000000000E+00 0.  1.
   -9000007    1    1    2    0  503  0.33162836423E+02  0.19273023837E+02 -0.13710618679E+02  0.40206865612E+03  0.40000000000E+03 0.  1.
<mgrwt>
<rscale>  2 0.40175469E+03</rscale>
<asrwt>0</asrwt>
<pdfrwt beam="1">  1       21 0.35428787E+00 0.40183482E+03</pdfrwt>
<pdfrwt beam="2">  1       21 0.34923485E-01 0.40183482E+03</pdfrwt>
<totfact> 0.10265480E+02</totfact>
</mgrwt>
</event>
<event>
 6    1  0.8739326E-004  0.5184933E+03  0.7818608E-02  0.1009086E+00
         21   -1    0    0  501  502  0.00000000000E+00  0.00000000000E+00  0.93116398781E+03  0.93116398781E+03  0.00000000000E+00 0.  1.
         21   -1    0    0  502  503 -0.00000000000E+00 -0.00000000000E+00 -0.30028922376E+03  0.30028922376E+03  0.00000000000E+00 0. -1.
    9000007    2    1    2  501    0 -0.19188377068E+03 -0.26835773213E+03  0.19327533550E+03  0.55297807295E+03  0.39949235288E+03 0.  0.
    9000005    1    3    3    0    0 -0.52967968728E+02  0.10076191742E+03  0.15582654388E+00  0.11384021253E+03  0.99999687468E+00 0.  0.
          4    1    3    3  501    0 -0.13891580195E+03 -0.36911964955E+03  0.19311950896E+03  0.43913786042E+03  0.00000000000E+00 0.  1.
   -9000007    1    1    2    0  503  0.19188377068E+03  0.26835773213E+03  0.43759942855E+03  0.67847513861E+03  0.40000000000E+03 0.  1.
<mgrwt>
<rscale>  2 0.51839534E+03</rscale>
<asrwt>0</asrwt>
<pdfrwt beam="1">  1       21 0.14325600E+00 0.51849325E+03</pdfrwt>
<pdfrwt beam="2">  1       21 0.46198343E-01 0.51849325E+03</pdfrwt>
<totfact> 0.12529319E+03</totfact>
</mgrwt>
</event>
<event>
 6    1  0.8739326E-004  0.4407395E+03  0.7818608E-02  0.1030557E+00
         21   -1    0    0  501  502  0.00000000000E+00  0.00000000000E+00  0.74074510803E+03  0.74074510803E+03  0.00000000000E+00 0. -1.
         21   -1    0    0  502  503 -0.00000000000E+00 -0.00000000000E+00 -0.26346510297E+03  0.26346510297E+03  0.00000000000E+00 0. -1.
    9000007    2    1    2  501    0 -0.12798025859E+03 -0.13207686217E+03  0.27686347502E+03  0.52048505182E+03  0.40053471916E+03 0.  0.
    9000005    1    3    3    0    0 -0.18003367607E+03  0.41542339311E+02  0.28431436494E+03  0.33907749642E+03  0.99999687468E+00 0.  0.
          4    1    3    3  501    0  0.52053417477E+02 -0.17361920148E+03 -0.74508899277E+01  0.18140755539E+03  0.00000000000E+00 0.  1.
   -9000007    1    1    2    0  503  0.12798025859E+03  0.13207686217E+03  0.20041653004E+03  0.48372515918E+03  0.40000000000E+03 0. -1.
<mgrwt>
<rscale>  2 0.44061798E+03</rscale>
<asrwt>0</asrwt>
<pdfrwt beam="1">  1       21 0.11396079E+00 0.44073950E+03</pdfrwt>
<pdfrwt beam="2">  1       21 0.40533093E-01 0.44073950E+03</pdfrwt>
<totfact> 0.30626966E+03</totfact>
</mgrwt>
</event>
<event>
 6    1  0.8739326E-004  0.5183418E+03  0.7818608E-02  0.1009395E+00
         21   -1    0    0  501  502  0.00000000000E+00  0.00000000000E+00  0.51008971793E+03  0.51008971793E+03  0.00000000000E+00 0.  1.
         21   -1    0    0  502  503 -0.00000000000E+00 -0.00000000000E+00 -0.53378242723E+03  0.53378242723E+03  0.00000000000E+00 0. -1.
    9000007    2    1    2  501    0  0.97603289076E+02  0.30704095759E+03 -0.89656187066E+02  0.52603845363E+03  0.40605131590E+03 0.  0.
    9000005    1    3    3    0    0 -0.95621724595E+02 -0.33311336464E+01 -0.12646630907E+03  0.15858542805E+03  0.99999687468E+00 0.  0.
          4    1    3    3  501    0  0.19322501367E+03  0.31037209124E+03  0.36810122005E+02  0.36745302558E+03  0.00000000000E+00 0.  1.
   -9000007    1    1    2    0  503 -0.97603289076E+02 -0.30704095759E+03  0.65963477768E+02  0.51783369152E+03  0.40000000000E+03 0.  1.
<mgrwt>
<rscale>  2 0.51715608E+03</rscale>
<asrwt>0</asrwt>
<pdfrwt beam="1">  1       21 0.78475342E-01 0.51834180E+03</pdfrwt>
<pdfrwt beam="2">  1       21 0.82120373E-01 0.51834180E+03</pdfrwt>
<totfact> 0.15611858E+03</totfact>
</mgrwt>
</event>
<event>
 6    1  0.8739326E-004  0.4575891E+03  0.7818608E-02  0.1025513E+00
         21   -1    0    0  501  502  0.00000000000E+00  0.00000000000E+00  0.51676274594E+03  0.51676274594E+03  0.00000000000E+00 0. -1.
         21   -1    0    0  502  503 -0.00000000000E+00 -0.00000000000E+00 -0.50601805152E+03  0.50601805152E+03  0.00000000000E+00 0. -1.
    9000007    2    1    2  501    0 -0.12491700711E+03  0.18276380545E+03 -0.22331710794E+03  0.50917414392E+03  0.40047585556E+03 0.  0.
    9000005    1    3    3    0    0 -0.17385622890E+03  0.17333670620E+03 -0.31825838635E+03  0.40194651699E+03  0.99999687468E+00 0.  0.
          4    1    3    3  501    0  0.48939221796E+02  0.94270992452E+01  0.94941278409E+02  0.10722762693E+03  0.00000000000E+00 0.  1.
   -9000007    1    1    2    0  503  0.12491700711E+03 -0.18276380545E+03  0.23406180236E+03  0.51360665355E+03  0.40000000000E+03 0. -1.
<mgrwt>
<rscale>  2 0.45748496E+03</rscale>
<asrwt>0</asrwt>
<pdfrwt beam="1">  1       21 0.79501961E-01 0.45758909E+03</pdfrwt>
<pdfrwt beam="2">  1       21 0.77848931E-01 0.45758909E+03</pdfrwt>
<totfact> 0.17516001E+03</totfact>
</mgrwt>
</event>
<event>
 6    1  0.8739326E-004  0.4063566E+03  0.7818608E-02  0.1041626E+00
         21   -1    0    0  501  502  0.00000000000E+00  0.00000000000E+00  0.34437828034E+03  0.34437828034E+03  0.00000000000E+00 0. -1.
         21   -1    0    0  502  503 -0.00000000000E+00 -0.00000000000E+00 -0.60438003549E+03  0.60438003549E+03  0.00000000000E+00 0. -1.
    9000007    2    1    2  501    0  0.67814042348E+00  0.69891941895E+02  0.85905852384E+02  0.41533782844E+03  0.40030032831E+03 0.  0.
    9000005    1    3    3    0    0 -0.14721430759E+03  0.32743479974E+02  0.18102465779E+03  0.23561645647E+03  0.99999687468E+00 0.  0.
          4    1    3    3  501    0  0.14789244801E+03  0.37148461921E+02 -0.95118805403E+02  0.17972137197E+03  0.00000000000E+00 0.  1.
   -9000007    1    1    2    0  503 -0.67814042348E+00 -0.69891941895E+02 -0.34590760754E+03  0.53342048739E+03  0.40000000000E+03 0. -1.
<mgrwt>
<rscale>  2 0.40628263E+03</rscale>
<asrwt>0</asrwt>
<pdfrwt beam="1">  1       21 0.52981274E-01 0.40635661E+03</pdfrwt>
<pdfrwt beam="2">  1       21 0.92981544E-01 0.40635661E+03</pdfrwt>
<totfact> 0.29047377E+03</totfact>
</mgrwt>
</event>
<event>
 6    1  0.8739326E-004  0.4293800E+03  0.7818608E-02  0.1034119E+00
         21   -1    0    0  501  502  0.00000000000E+00  0.00000000000E+00  0.16341380007E+04  0.16341380007E+04  0.00000000000E+00 0. -1.
         21   -1    0    0  502  503 -0.00000000000E+00 -0.00000000000E+00 -0.11289434073E+03  0.11289434073E+03  0.00000000000E+00 0. -1.
    9000007    2    1    2  501    0 -0.11754216018E+03 -0.99345807110E+02  0.80487686082E+03  0.91224665652E+03  0.40085091049E+03 0.  0.
    9000005    1    3    3    0    0  0.71521507069E+02 -0.20004858396E+03  0.45203843519E+03  0.49947423237E+03  0.99999687468E+00 0.  0.
          4    1    3    3  501    0 -0.18906366725E+03  0.10070277685E+03  0.35283842563E+03  0.41277242416E+03  0.00000000000E+00 0.  1.
   -9000007    1    1    2    0  503  0.11754216018E+03  0.99345807110E+02  0.71636679917E+03  0.83478568493E+03  0.40000000000E+03 0. -1.
<mgrwt>
<rscale>  2 0.42918132E+03</rscale>
<asrwt>0</asrwt>
<pdfrwt beam="1">  1       21 0.25140583E+00 0.42938002E+03</pdfrwt>
<pdfrwt beam="2">  1       21 0.17368361E-01 0.42938002E+03</pdfrwt>
<totfact> 0.16371918E+03</totfact>
</mgrwt>
</event>
<event>
 6    1  0.8739326E-004  0.6684245E+03  0.7818608E-02  0.9772933E-01
         21   -1    0    0  501  502  0.00000000000E+00  0.00000000000E+00  0.51660140322E+03  0.51660140322E+03  0.00000000000E+00 0.  1.
         21   -1    0    0  502  503 -0.00000000000E+00 -0.00000000000E+00 -0.26594207769E+04  0.26594207769E+04  0.00000000000E+00 0.  1.
    9000007    2    1    2  501    0 -0.50905939724E+03 -0.16516925358E+03  0.23313077700E+03  0.70791329460E+03  0.40046088603E+03 0.  0.
    9000005    1    3    3    0    0 -0.20648463520E+03  0.92868889104E+02  0.21123661941E+03  0.30964890523E+03  0.99999687468E+00 0.  0.
          4    1    3    3  501    0 -0.30257476204E+03 -0.25803814268E+03  0.21894157587E+02  0.39826438937E+03  0.00000000000E+00 0.  1.
   -9000007    1    1    2    0  503  0.50905939724E+03  0.16516925358E+03 -0.23759501507E+04  0.24681088855E+04  0.40000000000E+03 0.  1.
<mgrwt>
<rscale>  2 0.66835546E+03</rscale>
<asrwt>0</asrwt>
<pdfrwt beam="1">  1       21 0.79477139E-01 0.66842447E+03</pdfrwt>
<pdfrwt beam="2">  1       21 0.40914166E+00 0.66842447E+03</pdfrwt>
<totfact> 0.65942646E+00</totfact>
</mgrwt>
</event>
<event>
 6    1  0.8739326E-004  0.5001986E+03  0.7818608E-02  0.1013728E+00
         21   -1    0    0  501  502  0.00000000000E+00  0.00000000000E+00  0.24305408823E+03  0.24305408823E+03  0.00000000000E+00 0.  1.
         21   -1    0    0  502  503 -0.00000000000E+00 -0.00000000000E+00 -0.11464804355E+04  0.11464804355E+04  0.00000000000E+00 0.  1.
    9000007    2    1    2  501    0  0.12374209667E+03 -0.27361941770E+03 -0.22965598001E+03  0.55040032705E+03  0.40002369758E+03 0.  0.
    9000005    1    3    3    0    0 -0.12514825213E+03  0.65345380786E+01 -0.63074152149E+02  0.14030015631E+03  0.99999687468E+00 0.  0.
          4    1    3    3  501    0  0.24889034880E+03 -0.28015395578E+03 -0.16658182786E+03  0.41010017074E+03  0.00000000000E+00 0.  1.
   -9000007    1    1    2    0  503 -0.12374209667E+03  0.27361941770E+03 -0.67377036721E+03  0.83913419663E+03  0.40000000000E+03 0.  1.
<mgrwt>
<rscale>  2 0.50019387E+03</rscale>
<asrwt>0</asrwt>
<pdfrwt beam="1">  1       21 0.37392938E-01 0.50019861E+03</pdfrwt>
<pdfrwt beam="2">  1       21 0.17638160E+00 0.50019861E+03</pdfrwt>
<totfact> 0.10950845E+03</totfact>
</mgrwt>
</event>
<event>
 6    1  0.8739326E-004  0.4179298E+03  0.7818608E-02  0.1037804E+00
         21   -1    0    0  501  502  0.00000000000E+00  0.00000000000E+00  0.73345238519E+03  0.73345238519E+03  0.00000000000E+00 0.  1.
         21   -1    0    0  502  503 -0.00000000000E+00 -0.00000000000E+00 -0.35118463013E+03  0.35118463013E+03  0.00000000000E+00 0.  1.
    9000007    2    1    2  501    0  0.17690764667E+01 -0.11847117293E+03  0.49951823675E+03  0.65129393656E+03  0.40078270236E+03 0.  0.
    9000005    1    3    3    0    0  0.29126400497E+02 -0.21207003882E+03  0.51011086018E+03  0.55320533099E+03  0.99999687468E+00 0.  0.
          4    1    3    3  501    0 -0.27357324030E+02  0.93598865884E+02 -0.10592623428E+02  0.98088605576E+02  0.00000000000E+00 0.  1.
   -9000007    1    1    2    0  503 -0.17690764667E+01  0.11847117293E+03 -0.11725048169E+03  0.43334307875E+03  0.40000000000E+03 0. -1.
<mgrwt>
<rscale>  2 0.41774205E+03</rscale>
<asrwt>0</asrwt>
<pdfrwt beam="1">  1       21 0.11283883E+00 0.41792981E+03</pdfrwt>
<pdfrwt beam="2">  1       21 0.54028405E-01 0.41792981E+03</pdfrwt>
<totfact> 0.17296035E+03</totfact>
</mgrwt>
</event>
<event>
 6    1  0.8739326E-004  0.5024700E+03  0.7818608E-02  0.1013171E+00
         21   -1    0    0  501  502  0.00000000000E+00  0.00000000000E+00  0.34638293679E+03  0.34638293679E+03  0.00000000000E+00 0.  1.
         21   -1    0    0  502  503 -0.00000000000E+00 -0.00000000000E+00 -0.16070667070E+04  0.16070667070E+04  0.00000000000E+00 0.  1.
    9000007    2    1    2  501    0  0.26547690078E+03  0.14831775437E+03  0.92141740643E+02  0.51032352182E+03  0.39932925693E+03 0.  0.
    9000005    1    3    3    0    0 -0.13459596515E+02  0.21455001728E+03  0.31206835758E+02  0.21722738604E+03  0.99999687468E+00 0.  0.
          4    1    3    3  501    0  0.27893649729E+03 -0.66232262911E+02  0.60934904885E+02  0.29309613577E+03  0.00000000000E+00 0.  1.
   -9000007    1    1    2    0  503 -0.26547690078E+03 -0.14831775437E+03 -0.13528255108E+04  0.14431261220E+04  0.40000000000E+03 0.  1.
<mgrwt>
<rscale>  2 0.50233654E+03</rscale>
<asrwt>0</asrwt>
<pdfrwt beam="1">  1       21 0.53289682E-01 0.50247004E+03</pdfrwt>
<pdfrwt beam="2">  1       21 0.24724104E+00 0.50247004E+03</pdfrwt>
<totfact> 0.17795357E+02</totfact>
</mgrwt>
</event>
<event>
 6    1  0.8739326E-004  0.4723157E+03  0.7818608E-02  0.1021295E+00
         21   -1    0    0  501  502  0.00000000000E+00  0.00000000000E+00  0.24672455055E+03  0.24672455055E+03  0.00000000000E+00 0. -1.
         21   -1    0    0  502  503 -0.00000000000E+00 -0.00000000000E+00 -0.15509056175E+04  0.15509056175E+04  0.00000000000E+00 0. -1.
    9000007    2    1    2  501    0  0.67936010997E+02  0.24179907227E+03 -0.71207119023E+02  0.47728670925E+03  0.39956233067E+03 0.  0.
    9000005    1    3    3    0    0 -0.15611318987E+03  0.18059534139E+03 -0.20820827048E+02  0.23962577536E+03  0.99999687468E+00 0.  0.
          4    1    3    3  501    0  0.22404920086E+03  0.61203730879E+02 -0.50386291975E+02  0.23766093390E+03  0.00000000000E+00 0.  1.
   -9000007    1    1    2    0  503 -0.67936010997E+02 -0.24179907227E+03 -0.12329739479E+04  0.13203434588E+04  0.40000000000E+03 0. -1.
<mgrwt>
<rscale>  2 0.47222299E+03</rscale>
<asrwt>0</asrwt>
<pdfrwt beam="1">  1       21 0.37957623E-01 0.47231567E+03</pdfrwt>
<pdfrwt beam="2">  1       21 0.23860086E+00 0.47231567E+03</pdfrwt>
<totfact> 0.41675901E+02</totfact>
</mgrwt>
</event>
<event>
 6    1  0.8739326E-004  0.4239162E+03  0.7818608E-02  0.1035828E+00
         21   -1    0    0  501  502  0.00000000000E+00  0.00000000000E+00  0.32360104930E+03  0.32360104930E+03  0.00000000000E+00 0. -1.
         21   -1    0    0  502  503 -0.00000000000E+00 -0.00000000000E+00 -0.70737585867E+03  0.70737585867E+03  0.00000000000E+00 0. -1.
    9000007    2    1    2  501    0 -0.84181584542E+02 -0.11099696741E+03  0.47403646830E+02  0.42655840474E+03  0.40037245281E+03 0.  0.
    9000005    1    3    3    0    0 -0.21305916410E+03 -0.14971693700E+03 -0.43707979037E+02  0.26404688230E+03  0.99999687468E+00 0.  0.
          4    1    3    3  501    0  0.12887757955E+03  0.38719969591E+02  0.91111625867E+02  0.16251152244E+03  0.00000000000E+00 0.  1.
   -9000007    1    1    2    0  503  0.84181584542E+02  0.11099696741E+03 -0.43117845620E+03  0.60441850322E+03  0.40000000000E+03 0. -1.
<mgrwt>
<rscale>  2 0.42382826E+03</rscale>
<asrwt>0</asrwt>
<pdfrwt beam="1">  1       21 0.49784777E-01 0.42391623E+03</pdfrwt>
<pdfrwt beam="2">  1       21 0.10882705E+00 0.42391623E+03</pdfrwt>
<totfact> 0.22478329E+03</totfact>
</mgrwt>
</event>
<event>
 6    1  0.8739326E-004  0.4390065E+03  0.7818608E-02  0.1031122E+00
         21   -1    0    0  501  502  0.00000000000E+00  0.00000000000E+00  0.15831321719E+03  0.15831321719E+03  0.00000000000E+00 0.  1.
         21   -1    0    0  502  503 -0.00000000000E+00 -0.00000000000E+00 -0.14584960489E+04  0.14584960489E+04  0.00000000000E+00 0.  1.
    9000007    2    1    2  501    0  0.18065101788E+03 -0.95869945821E+01 -0.97993142468E+03  0.10734054895E+04  0.39900757771E+03 0.  0.
    9000005    1    3    3    0    0  0.89471923668E+02 -0.14172388200E+03 -0.14033994225E+03  0.21860279787E+03  0.99999687468E+00 0.  0.
          4    1    3    3  501    0  0.91179094217E+02  0.13213688741E+03 -0.83959148243E+03  0.85480269162E+03  0.00000000000E+00 0.  1.
   -9000007    1    1    2    0  503 -0.18065101788E+03  0.95869945821E+01 -0.32025140705E+03  0.54340377662E+03  0.40000000000E+03 0.  1.
<mgrwt>
<rscale>  2 0.43878030E+03</rscale>
<asrwt>0</asrwt>
<pdfrwt beam="1">  1       21 0.24355880E-01 0.43900649E+03</pdfrwt>
<pdfrwt beam="2">  1       21 0.22438401E+00 0.43900649E+03</pdfrwt>
<totfact> 0.12590715E+03</totfact>
</mgrwt>
</event>
<event>
 6    1  0.8739326E-004  0.4524892E+03  0.7818608E-02  0.1027022E+00
         21   -1    0    0  501  502  0.00000000000E+00  0.00000000000E+00  0.83396189077E+03  0.83396189077E+03  0.00000000000E+00 0. -1.
         21   -1    0    0  502  503 -0.00000000000E+00 -0.00000000000E+00 -0.25586987407E+03  0.25586987407E+03  0.00000000000E+00 0. -1.
    9000007    2    1    2  501    0  0.20780196244E+03  0.32959761318E+02  0.40036018270E+03  0.60418106086E+03  0.40059764971E+03 0.  0.
    9000005    1    3    3    0    0  0.29357939911E+03  0.11189563182E+03  0.20018643331E+03  0.37253872830E+03  0.99999687468E+00 0.  0.
          4    1    3    3  501    0 -0.85777436669E+02 -0.78935870500E+02  0.20017374939E+03  0.23164233257E+03  0.00000000000E+00 0.  1.
   -9000007    1    1    2    0  503 -0.20780196244E+03 -0.32959761318E+02  0.17773183400E+03  0.48565070398E+03  0.40000000000E+03 0. -1.
<mgrwt>
<rscale>  2 0.45235689E+03</rscale>
<asrwt>0</asrwt>
<pdfrwt beam="1">  1       21 0.12830183E+00 0.45248920E+03</pdfrwt>
<pdfrwt beam="2">  1       21 0.39364596E-01 0.45248920E+03</pdfrwt>
<totfact> 0.23955346E+03</totfact>
</mgrwt>
</event>
<event>
 6    1  0.8739326E-004  0.4576367E+03  0.7818608E-02  0.1025475E+00
         21   -1    0    0  501  502  0.00000000000E+00  0.00000000000E+00  0.44673710090E+03  0.44673710090E+03  0.00000000000E+00 0.  1.
         21   -1    0    0  502  503 -0.00000000000E+00 -0.00000000000E+00 -0.98125631222E+03  0.98125631222E+03  0.00000000000E+00 0.  1.
    9000007    2    1    2  501    0 -0.20448911142E+03 -0.86819208219E+02  0.24875198618E+03  0.52087316727E+03  0.40009740582E+03 0.  0.
    9000005    1    3    3    0    0 -0.17433600522E+03  0.53131674762E+02 -0.50514678801E+02  0.18912628148E+03  0.99999687468E+00 0.  0.
          4    1    3    3  501    0 -0.30153106204E+02 -0.13995088298E+03  0.29926666498E+03  0.33174688579E+03  0.00000000000E+00 0.  1.
   -9000007    1    1    2    0  503  0.20448911142E+03  0.86819208219E+02 -0.78327119749E+03  0.90712024585E+03  0.40000000000E+03 0.  1.
<mgrwt>
<rscale>  2 0.45761536E+03</rscale>
<asrwt>0</asrwt>
<pdfrwt beam="1">  1       21 0.68728785E-01 0.45763665E+03</pdfrwt>
<pdfrwt beam="2">  1       21 0.15096251E+00 0.45763665E+03</pdfrwt>
<totfact> 0.46994566E+02</totfact>
</mgrwt>
</event>
<event>
 6    1  0.8739326E-004  0.4102186E+03  0.7818608E-02  0.1040418E+00
         21   -1    0    0  501  502  0.00000000000E+00  0.00000000000E+00  0.90745905176E+03  0.90745905176E+03  0.00000000000E+00 0.  1.
         21   -1    0    0  502  503 -0.00000000000E+00 -0.00000000000E+00 -0.28058741876E+03  0.28058741876E+03  0.00000000000E+00 0.  1.
    9000007    2    1    2  501    0  0.70833734219E+02 -0.57113240864E+02  0.66016053852E+03  0.77647935398E+03  0.39853344948E+03 0.  0.
    9000005    1    3    3    0    0  0.90239600765E+02 -0.85967225369E+01 -0.21215119465E+02  0.93103010007E+02  0.99999687468E+00 0.  0.
          4    1    3    3  501    0 -0.19405866546E+02 -0.48516518327E+02  0.68137565798E+03  0.68337634397E+03  0.00000000000E+00 0.  1.
   -9000007    1    1    2    0  503 -0.70833734219E+02  0.57113240864E+02 -0.33288905517E+02  0.41156711654E+03  0.40000000000E+03 0.  1.
<mgrwt>
<rscale>  2 0.40986071E+03</rscale>
<asrwt>0</asrwt>
<pdfrwt beam="1">  1       21 0.13960908E+00 0.41021865E+03</pdfrwt>
<pdfrwt beam="2">  1       21 0.43167296E-01 0.41021865E+03</pdfrwt>
<totfact> 0.16150185E+03</totfact>
</mgrwt>
</event>
<event>
 6    1  0.8739326E-004  0.4303205E+03  0.7818608E-02  0.1033842E+00
         21   -1    0    0  501  502  0.00000000000E+00  0.00000000000E+00  0.13028831374E+03  0.13028831374E+03  0.00000000000E+00 0.  1.
         21   -1    0    0  502  503 -0.00000000000E+00 -0.00000000000E+00 -0.18486038896E+04  0.18486038896E+04  0.00000000000E+00 0.  1.
    9000007    2    1    2  501    0  0.24307706960E+02  0.15386787822E+03 -0.38231016077E+03  0.57561865278E+03  0.40113537095E+03 0.  0.
    9000005    1    3    3    0    0 -0.22393337998E+02 -0.44572799778E+02  0.66232787247E+02  0.82921518118E+02  0.99999687468E+00 0.  0.
          4    1    3    3  501    0  0.46701044958E+02  0.19844067800E+03 -0.44854294801E+03  0.49269713466E+03  0.00000000000E+00 0.  1.
   -9000007    1    1    2    0  503 -0.24307706960E+02 -0.15386787822E+03 -0.13360054151E+04  0.14032735506E+04  0.40000000000E+03 0.  1.
<mgrwt>
<rscale>  2 0.43005576E+03</rscale>
<asrwt>0</asrwt>
<pdfrwt beam="1">  1       21 0.20044356E-01 0.43032055E+03</pdfrwt>
<pdfrwt beam="2">  1       21 0.28440059E+00 0.43032055E+03</pdfrwt>
<totfact> 0.78819362E+02</totfact>
</mgrwt>
</event>
<event>
 6    1  0.8739326E-004  0.5198078E+03  0.7818608E-02  0.1008793E+00
         21   -1    0    0  501  502  0.00000000000E+00  0.00000000000E+00  0.34860554505E+03  0.34860554505E+03  0.00000000000E+00 0. -1.
         21   -1    0    0  502  503 -0.00000000000E+00 -0.00000000000E+00 -0.77398762222E+03  0.77398762222E+03  0.00000000000E+00 0. -1.
    9000007    2    1    2  501    0 -0.24306581085E+03 -0.22391742580E+03 -0.22403700469E+03  0.56603244265E+03  0.40122331024E+03 0.  0.
    9000005    1    3    3    0    0 -0.32240170544E+03 -0.17838419352E+03 -0.27641950268E+03  0.46062188574E+03  0.99999687468E+00 0.  0.
          4    1    3    3  501    0  0.79335894587E+02 -0.45533232280E+02  0.52382497996E+02  0.10541055691E+03  0.00000000000E+00 0.  1.
   -9000007    1    1    2    0  503  0.24306581085E+03  0.22391742580E+03 -0.20134507249E+03  0.55656072463E+03  0.40000000000E+03 0. -1.
<mgrwt>
<rscale>  2 0.51957172E+03</rscale>
<asrwt>0</asrwt>
<pdfrwt beam="1">  1       21 0.53631623E-01 0.51980780E+03</pdfrwt>
<pdfrwt beam="2">  1       21 0.11907502E+00 0.51980780E+03</pdfrwt>
<totfact> 0.14774464E+03</totfact>
</mgrwt>
</event>
<event>
 6    1  0.8739326E-004  0.4009702E+03  0.7818608E-02  0.1043479E+00
         21   -1    0    0  501  502  0.00000000000E+00  0.00000000000E+00  0.38707735680E+03  0.38707735680E+03  0.00000000000E+00 0.  1.
         21   -1    0    0  502  503 -0.00000000000E+00 -0.00000000000E+00 -0.48434683171E+03  0.48434683171E+03  0.00000000000E+00 0.  1.
    9000007    2    1    2  501    0  0.22781256688E+02  0.16066551291E+02  0.11632529497E+03  0.41711169095E+03  0.39959162748E+03 0.  0.
    9000005    1    3    3    0    0  0.86097251742E+02  0.19114599940E+03  0.93472090411E+02  0.22953771264E+03  0.99999687468E+00 0.  0.
          4    1    3    3  501    0 -0.63315995054E+02 -0.17507944811E+03  0.22853204559E+02  0.18757397831E+03  0.00000000000E+00 0.  1.
   -9000007    1    1    2    0  503 -0.22781256688E+02 -0.16066551291E+02 -0.21359476988E+03  0.45431249757E+03  0.40000000000E+03 0. -1.
<mgrwt>
<rscale>  2 0.40086834E+03</rscale>
<asrwt>0</asrwt>
<pdfrwt beam="1">  1       21 0.59550363E-01 0.40097022E+03</pdfrwt>
<pdfrwt beam="2">  1       21 0.74514897E-01 0.40097022E+03</pdfrwt>
<totfact> 0.37824000E+03</totfact>
</mgrwt>
</event>
<event>
 6    1  0.8739326E-004  0.6644453E+03  0.7818608E-02  0.9780381E-01
         21   -1    0    0  501  502  0.00000000000E+00  0.00000000000E+00  0.62752697445E+03  0.62752697445E+03  0.00000000000E+00 0. -1.
         21   -1    0    0  502  503 -0.00000000000E+00 -0.00000000000E+00 -0.78494117091E+03  0.78494117091E+03  0.00000000000E+00 0. -1.
    9000007    2    1    2  501    0  0.16091487774E+03  0.50459361456E+03  0.14977627507E+03  0.68111713556E+03  0.40122226513E+03 0.  0.
    9000005    1    3    3    0    0  0.24198417952E+03  0.27136637475E+03 -0.45352958994E+02  0.36640680038E+03  0.99999687468E+00 0.  0.
          4    1    3    3  501    0 -0.81069301774E+02  0.23322723981E+03  0.19512923406E+03  0.31471033517E+03  0.00000000000E+00 0.  1.
   -9000007    1    1    2    0  503 -0.16091487774E+03 -0.50459361456E+03 -0.30719047153E+03  0.73135100980E+03  0.40000000000E+03 0. -1.
<mgrwt>
<rscale>  2 0.66426093E+03</rscale>
<asrwt>0</asrwt>
<pdfrwt beam="1">  1       21 0.96542612E-01 0.66444535E+03</pdfrwt>
<pdfrwt beam="2">  1       21 0.12076018E+00 0.66444535E+03</pdfrwt>
<totfact> 0.35544888E+02</totfact>
</mgrwt>
</event>
<event>
 6    1  0.8739326E-004  0.4401827E+03  0.7818608E-02  0.1030759E+00
         21   -1    0    0  501  502  0.00000000000E+00  0.00000000000E+00  0.11470058567E+04  0.11470058567E+04  0.00000000000E+00 0. -1.
         21   -1    0    0  502  503 -0.00000000000E+00 -0.00000000000E+00 -0.42077674623E+03  0.42077674623E+03  0.00000000000E+00 0.  1.
    9000007    2    1    2  501    0  0.10031411354E+03  0.15138108580E+03  0.97012920907E+03  0.10653222438E+04  0.40097586743E+03 0.  0.
    9000005    1    3    3    0    0 -0.14106728253E+03  0.13962955770E+03  0.44342608593E+03  0.48582310079E+03  0.99999687468E+00 0.  0.
          4    1    3    3  501    0  0.24138139608E+03  0.11751528098E+02  0.52670312313E+03  0.57949914297E+03  0.00000000000E+00 0.  1.
   -9000007    1    1    2    0  503 -0.10031411354E+03 -0.15138108580E+03 -0.24390009855E+03  0.50246035922E+03  0.40000000000E+03 0.  1.
<mgrwt>
<rscale>  2 0.43996033E+03</rscale>
<asrwt>0</asrwt>
<pdfrwt beam="1">  1       21 0.17646244E+00 0.44018269E+03</pdfrwt>
<pdfrwt beam="2">  1       21 0.64734885E-01 0.44018269E+03</pdfrwt>
<totfact> 0.34959713E+02</totfact>
</mgrwt>
</event>
<event>
 6    1  0.8739326E-004  0.4263101E+03  0.7818608E-02  0.1035061E+00
         21   -1    0    0  501  502  0.00000000000E+00  0.00000000000E+00  0.58630115555E+03  0.58630115555E+03  0.00000000000E+00 0.  1.
         21   -1    0    0  502  503 -0.00000000000E+00 -0.00000000000E+00 -0.41863557485E+03  0.41863557485E+03  0.00000000000E+00 0.  1.
    9000007    2    1    2  501    0  0.12605967773E+03 -0.76480611234E+02  0.34010186571E+03  0.54507305644E+03  0.39961860761E+03 0.  0.
    9000005    1    3    3    0    0 -0.56430463681E+02 -0.57240915932E+02  0.35211920939E+03  0.36117842862E+03  0.99999687468E+00 0.  0.
          4    1    3    3  501    0  0.18249014142E+03 -0.19239695302E+02 -0.12017343685E+02  0.18389462781E+03  0.00000000000E+00 0.  1.
   -9000007    1    1    2    0  503 -0.12605967773E+03  0.76480611234E+02 -0.17243628501E+03  0.45986367397E+03  0.40000000000E+03 0.  1.
<mgrwt>
<rscale>  2 0.42622064E+03</rscale>
<asrwt>0</asrwt>
<pdfrwt beam="1">  1       21 0.90200178E-01 0.42631013E+03</pdfrwt>
<pdfrwt beam="2">  1       21 0.64405473E-01 0.42631013E+03</pdfrwt>
<totfact> 0.20243457E+03</totfact>
</mgrwt>
</event>
<event>
 6    1  0.8739326E-004  0.5488104E+03  0.7818608E-02  0.1001794E+00
         21   -1    0    0  501  502  0.00000000000E+00  0.00000000000E+00  0.18408950276E+04  0.18408950276E+04  0.00000000000E+00 0. -1.
         21   -1    0    0  502  503 -0.00000000000E+00 -0.00000000000E+00 -0.44348039264E+03  0.44348039264E+03  0.00000000000E+00 0.  1.
    9000007    2    1    2  501    0 -0.35840331136E+03  0.11085198104E+03  0.16063574967E+04  0.16975209113E+04  0.40056427929E+03 0.  0.
    9000005    1    3    3    0    0 -0.29967284409E+03 -0.10834713857E+03  0.10271540018E+04  0.10754483992E+04  0.99999687468E+00 0.  0.
          4    1    3    3  501    0 -0.58730467275E+02  0.21919911962E+03  0.57920349486E+03  0.62207251208E+03  0.00000000000E+00 0.  1.
   -9000007    1    1    2    0  503  0.35840331136E+03 -0.11085198104E+03 -0.20894286166E+03  0.58685450900E+03  0.40000000000E+03 0.  1.
<mgrwt>
<rscale>  2 0.54870742E+03</rscale>
<asrwt>0</asrwt>
<pdfrwt beam="1">  1       21 0.28321462E+00 0.54881038E+03</pdfrwt>
<pdfrwt beam="2">  1       21 0.68227754E-01 0.54881038E+03</pdfrwt>
<totfact> 0.60750041E+01</totfact>
</mgrwt>
</event>
<event>
 6    1  0.8739326E-004  0.4349745E+03  0.7818608E-02  0.1032505E+00
         21   -1    0    0  501  502  0.00000000000E+00  0.00000000000E+00  0.45903759323E+03  0.45903759323E+03  0.00000000000E+00 0. -1.
         21   -1    0    0  502  503 -0.00000000000E+00 -0.00000000000E+00 -0.51084508117E+03  0.51084508117E+03  0.00000000000E+00 0. -1.
    9000007    2    1    2  501    0  0.12813457487E+03 -0.11306792134E+03  0.18995116338E+03  0.47223815307E+03  0.39714557109E+03 0.  0.
    9000005    1    3    3    0    0 -0.71271633661E+02 -0.19157093643E+03  0.15170965647E+03  0.25455036694E+03  0.99999687468E+00 0.  0.
          4    1    3    3  501    0  0.19940620854E+03  0.78503015086E+02  0.38241506905E+02  0.21768778613E+03  0.00000000000E+00 0.  1.
   -9000007    1    1    2    0  503 -0.12813457487E+03  0.11306792134E+03 -0.24175865132E+03  0.49764452132E+03  0.40000000000E+03 0. -1.
<mgrwt>
<rscale>  2 0.43431716E+03</rscale>
<asrwt>0</asrwt>
<pdfrwt beam="1">  1       21 0.70621168E-01 0.43497451E+03</pdfrwt>
<pdfrwt beam="2">  1       21 0.78591551E-01 0.43497451E+03</pdfrwt>
<totfact> 0.22645663E+03</totfact>
</mgrwt>
</event>
<event>
 6    1  0.8739326E-004  0.4524383E+03  0.7818608E-02  0.1027029E+00
         21   -1    0    0  501  502  0.00000000000E+00  0.00000000000E+00  0.32822406550E+03  0.32822406550E+03  0.00000000000E+00 0.  1.
         21   -1    0    0  502  503 -0.00000000000E+00 -0.00000000000E+00 -0.76288417110E+03  0.76288417110E+03  0.00000000000E+00 0.  1.
    9000007    2    1    2  501    0  0.59602926493E+02  0.20189337814E+03 -0.45096545202E+03  0.63880379344E+03  0.40048346111E+03 0.  0.
    9000005    1    3    3    0    0  0.13588468304E+03  0.13636895991E+03 -0.16915229419E+02  0.19325699287E+03  0.99999687468E+00 0.  0.
          4    1    3    3  501    0 -0.76281756548E+02  0.65524418228E+02 -0.43405022260E+03  0.44554680058E+03  0.00000000000E+00 0.  1.
   -9000007    1    1    2    0  503 -0.59602926493E+02 -0.20189337814E+03  0.16305346413E+02  0.45230444316E+03  0.40000000000E+03 0.  1.
<mgrwt>
<rscale>  2 0.45233133E+03</rscale>
<asrwt>0</asrwt>
<pdfrwt beam="1">  1       21 0.50496010E-01 0.45243834E+03</pdfrwt>
<pdfrwt beam="2">  1       21 0.11736680E+00 0.45243834E+03</pdfrwt>
<totfact> 0.17868109E+03</totfact>
</mgrwt>
</event>
<event>
 6    1  0.8739326E-004  0.4022412E+03  0.7818608E-02  0.1043118E+00
         21   -1    0    0  501  502  0.00000000000E+00  0.00000000000E+00  0.16879367210E+03  0.16879367210E+03  0.00000000000E+00 0.  1.
         21   -1    0    0  502  503 -0.00000000000E+00 -0.00000000000E+00 -0.11821737695E+04  0.11821737695E+04  0.00000000000E+00 0.  1.
    9000007    2    1    2  501    0  0.10661313496E+02  0.25399479261E+02 -0.21154906060E+03  0.45447884227E+03  0.40129691735E+03 0.  0.
    9000005    1    3    3    0    0 -0.14686747257E+03  0.54293074807E+02 -0.24509735128E+03  0.29084618627E+03  0.99999687468E+00 0.  0.
          4    1    3    3  501    0  0.15752878606E+03 -0.28893595545E+02  0.33548290672E+02  0.16363265600E+03  0.00000000000E+00 0.  1.
   -9000007    1    1    2    0  503 -0.10661313496E+02 -0.25399479261E+02 -0.80183103675E+03  0.89648859929E+03  0.40000000000E+03 0.  1.
<mgrwt>
<rscale>  2 0.40191738E+03</rscale>
<asrwt>0</asrwt>
<pdfrwt beam="1">  1       21 0.25968259E-01 0.40224124E+03</pdfrwt>
<pdfrwt beam="2">  1       21 0.18187288E+00 0.40224124E+03</pdfrwt>
<totfact> 0.21619131E+03</totfact>
</mgrwt>
</event>
<event>
 6    1  0.8739326E-004  0.4364338E+03  0.7818608E-02  0.1031964E+00
         21   -1    0    0  501  502  0.00000000000E+00  0.00000000000E+00  0.22503831119E+04  0.22503831119E+04  0.00000000000E+00 0. -1.
         21   -1    0    0  502  503 -0.00000000000E+00 -0.00000000000E+00 -0.84827559453E+02  0.84827559453E+02  0.00000000000E+00 0. -1.
    9000007    2    1    2  501    0 -0.16622502615E+03  0.39131062746E+02  0.99694316378E+03  0.10882876928E+04  0.40163718851E+03 0.  0.
    9000005    1    3    3    0    0  0.38956200719E+02  0.17348274638E+03  0.29172900902E+03  0.34164405975E+03  0.99999687468E+00 0.  0.
          4    1    3    3  501    0 -0.20518122687E+03 -0.13435168364E+03  0.70521415476E+03  0.74664363309E+03  0.00000000000E+00 0.  1.
   -9000007    1    1    2    0  503  0.16622502615E+03 -0.39131062746E+02  0.11686123886E+04  0.12469229785E+04  0.40000000000E+03 0.  1.
<mgrwt>
<rscale>  2 0.43605673E+03</rscale>
<asrwt>0</asrwt>
<pdfrwt beam="1">  1       21 0.34621274E+00 0.43643376E+03</pdfrwt>
<pdfrwt beam="2">  1       21 0.13050395E-01 0.43643376E+03</pdfrwt>
<totfact> 0.74135220E+02</totfact>
</mgrwt>
</event>
<event>
 6    1  0.8739326E-004  0.5678432E+03  0.7818608E-02  0.9974505E-01
         21   -1    0    0  501  502  0.00000000000E+00  0.00000000000E+00  0.19082571393E+03  0.19082571393E+03  0.00000000000E+00 0. -1.
         21   -1    0    0  502  503 -0.00000000000E+00 -0.00000000000E+00 -0.18884287781E+04  0.18884287781E+04  0.00000000000E+00 0.  1.
    9000007    2    1    2  501    0  0.39931382196E+03  0.53917723453E+02 -0.51143868782E+03  0.76420902626E+03  0.40010905403E+03 0.  0.
    9000005    1    3    3    0    0  0.17756050473E+03  0.17507768136E+03 -0.75870459760E+02  0.26064775849E+03  0.99999687468E+00 0.  0.
          4    1    3    3  501    0  0.22175331723E+03 -0.12115995791E+03 -0.43556822806E+03  0.50356126777E+03  0.00000000000E+00 0.  1.
   -9000007    1    1    2    0  503 -0.39931382196E+03 -0.53917723453E+02 -0.11861643764E+04  0.13150454658E+04  0.40000000000E+03 0.  1.
<mgrwt>
<rscale>  2 0.56782399E+03</rscale>
<asrwt>0</asrwt>
<pdfrwt beam="1">  1       21 0.29357801E-01 0.56784320E+03</pdfrwt>
<pdfrwt beam="2">  1       21 0.29052751E+00 0.56784320E+03</pdfrwt>
<totfact> 0.32157465E+02</totfact>
</mgrwt>
</event>
<event>
 6    1  0.8739326E-004  0.4582496E+03  0.7818608E-02  0.1025367E+00
         21   -1    0    0  501  502  0.00000000000E+00  0.00000000000E+00  0.60533279146E+03  0.60533279146E+03  0.00000000000E+00 0. -1.
         21   -1    0    0  502  503 -0.00000000000E+00 -0.00000000000E+00 -0.76302923563E+03  0.76302923563E+03  0.00000000000E+00 0.  1.
    9000007    2    1    2  501    0 -0.20390892098E+03 -0.91727140762E+02  0.42693170353E+03  0.62554119574E+03  0.39879617812E+03 0.  0.
    9000005    1    3    3    0    0  0.10313581958E+02 -0.10233327691E+03  0.39563298263E+03  0.40878469452E+03  0.99999687468E+00 0.  0.
          4    1    3    3  501    0 -0.21422250294E+03  0.10606136150E+02  0.31298720898E+02  0.21675650122E+03  0.00000000000E+00 0.  1.
   -9000007    1    1    2    0  503  0.20390892098E+03  0.91727140762E+02 -0.58462814770E+03  0.74282083135E+03  0.40000000000E+03 0.  1.
<mgrwt>
<rscale>  2 0.45798679E+03</rscale>
<asrwt>0</asrwt>
<pdfrwt beam="1">  1       21 0.93128122E-01 0.45824962E+03</pdfrwt>
<pdfrwt beam="2">  1       21 0.11738911E+00 0.45824962E+03</pdfrwt>
<totfact> 0.44977817E+02</totfact>
</mgrwt>
</event>
<event>
 6    1  0.8739326E-004  0.4957310E+03  0.7818608E-02  0.1014902E+00
         21   -1    0    0  501  502  0.00000000000E+00  0.00000000000E+00  0.10498795236E+03  0.10498795236E+03  0.00000000000E+00 0. -1.
         21   -1    0    0  502  503 -0.00000000000E+00 -0.00000000000E+00 -0.27683904380E+04  0.27683904380E+04  0.00000000000E+00 0.  1.
    9000007    2    1    2  501    0  0.22032251620E+03  0.19278362405E+03 -0.76694767710E+03  0.91321299487E+03  0.40005211878E+03 0.  0.
    9000005    1    3    3    0    0  0.14978825667E+03  0.29437551974E+03 -0.69657652663E+03  0.77091719783E+03  0.99999687468E+00 0.  0.
          4    1    3    3  501    0  0.70534259528E+02 -0.10159189569E+03 -0.70371150472E+02  0.14229579704E+03  0.00000000000E+00 0.  1.
   -9000007    1    1    2    0  503 -0.22032251620E+03 -0.19278362405E+03 -0.18964548086E+04  0.19601653955E+04  0.40000000000E+03 0.  1.
<mgrwt>
<rscale>  2 0.49572050E+03</rscale>
<asrwt>0</asrwt>
<pdfrwt beam="1">  1       21 0.16151992E-01 0.49573101E+03</pdfrwt>
<pdfrwt beam="2">  1       21 0.42590623E+00 0.49573101E+03</pdfrwt>
<totfact> 0.15029263E+02</totfact>
</mgrwt>
</event>
<event>
 6    1  0.8739326E-004  0.4519140E+03  0.7818608E-02  0.1028140E+00
         21   -1    0    0  501  502  0.00000000000E+00  0.00000000000E+00  0.17386526385E+04  0.17386526385E+04  0.00000000000E+00 0.  1.
         21   -1    0    0  502  503 -0.00000000000E+00 -0.00000000000E+00 -0.31016613849E+03  0.31016613849E+03  0.00000000000E+00 0.  1.
    9000007    2    1    2  501    0  0.11236014892E+03  0.14116076465E+03  0.15325926512E+04  0.15978317979E+04  0.41433688626E+03 0.  0.
    9000005    1    3    3    0    0  0.48670329977E+02 -0.14324157303E+03  0.38115175096E+03  0.41007878087E+03  0.99999687468E+00 0.  0.
          4    1    3    3  501    0  0.63689818942E+02  0.28440233769E+03  0.11514409003E+04  0.11877530171E+04  0.00000000000E+00 0.  1.
   -9000007    1    1    2    0  503 -0.11236014892E+03 -0.14116076465E+03 -0.10410615124E+03  0.45098697905E+03  0.40000000000E+03 0.  1.
<mgrwt>
<rscale>  2 0.44860084E+03</rscale>
<asrwt>0</asrwt>
<pdfrwt beam="1">  1       21 0.26748502E+00 0.45191395E+03</pdfrwt>
<pdfrwt beam="2">  1       21 0.47717868E-01 0.45191395E+03</pdfrwt>
<totfact> 0.17410801E+02</totfact>
</mgrwt>
</event>
<event>
 6    1  0.8739326E-004  0.5390349E+03  0.7818608E-02  0.1004069E+00
         21   -1    0    0  501  502  0.00000000000E+00  0.00000000000E+00  0.81464555255E+03  0.81464555255E+03  0.00000000000E+00 0.  1.
         21   -1    0    0  502  503 -0.00000000000E+00 -0.00000000000E+00 -0.38058271480E+03  0.38058271480E+03  0.00000000000E+00 0. -1.
    9000007    2    1    2  501    0  0.25091912682E+03  0.25982981724E+03  0.36701663293E+03  0.65211949767E+03  0.40010834565E+03 0.  0.
    9000005    1    3    3    0    0  0.33791864301E+03  0.22804386121E+03  0.18456315102E+03  0.44750147334E+03  0.99999687468E+00 0.  0.
          4    1    3    3  501    0 -0.86999516194E+02  0.31785956027E+02  0.18245348192E+03  0.20461802433E+03  0.00000000000E+00 0.  1.
   -9000007    1    1    2    0  503 -0.25091912682E+03 -0.25982981724E+03  0.67046204819E+02  0.54310876969E+03  0.40000000000E+03 0. -1.
<mgrwt>
<rscale>  2 0.53901480E+03</rscale>
<asrwt>0</asrwt>
<pdfrwt beam="1">  1       21 0.12533008E+00 0.53903491E+03</pdfrwt>
<pdfrwt beam="2">  1       21 0.58551187E-01 0.53903491E+03</pdfrwt>
<totfact> 0.10633606E+03</totfact>
</mgrwt>
</event>
<event>
 6    1  0.8739326E-004  0.4670341E+03  0.7818608E-02  0.1022776E+00
         21   -1    0    0  501  502  0.00000000000E+00  0.00000000000E+00  0.72078789649E+03  0.72078789649E+03  0.00000000000E+00 0.  1.
         21   -1    0    0  502  503 -0.00000000000E+00 -0.00000000000E+00 -0.30344764729E+03  0.30344764729E+03  0.00000000000E+00 0.  1.
    9000007    2    1    2  501    0  0.16336262030E+03  0.17673638134E+03  0.23767701902E+03  0.52403361407E+03  0.40024713504E+03 0.  0.
    9000005    1    3    3    0    0  0.68876492045E+02  0.23006824338E+03 -0.23412539605E+02  0.24129756479E+03  0.99999687468E+00 0.  0.
          4    1    3    3  501    0  0.94486128258E+02 -0.53331862041E+02  0.26108955862E+03  0.28273604928E+03  0.00000000000E+00 0.  1.
   -9000007    1    1    2    0  503 -0.16336262030E+03 -0.17673638134E+03  0.17966323018E+03  0.50020192971E+03  0.40000000000E+03 0.  1.
<mgrwt>
<rscale>  2 0.46698116E+03</rscale>
<asrwt>0</asrwt>
<pdfrwt beam="1">  1       21 0.11089045E+00 0.46703411E+03</pdfrwt>
<pdfrwt beam="2">  1       21 0.46684254E-01 0.46703411E+03</pdfrwt>
<totfact> 0.24185118E+03</totfact>
</mgrwt>
</event>
<event>
 6    1  0.8739326E-004  0.4086857E+03  0.7818608E-02  0.1040889E+00
         21   -1    0    0  501  502  0.00000000000E+00  0.00000000000E+00  0.31934032246E+03  0.31934032246E+03  0.00000000000E+00 0.  1.
         21   -1    0    0  502  503 -0.00000000000E+00 -0.00000000000E+00 -0.52540377846E+03  0.52540377846E+03  0.00000000000E+00 0.  1.
    9000007    2    1    2  501    0  0.42523800198E+02  0.66931884945E+02 -0.68532145526E+02  0.41439190542E+03  0.40091875175E+03 0.  0.
    9000005    1    3    3    0    0  0.13223718160E+03 -0.11409553739E+02 -0.19806300088E+03  0.23842567484E+03  0.99999687468E+00 0.  0.
          4    1    3    3  501    0 -0.89713381398E+02  0.78341438683E+02  0.12953085535E+03  0.17596623058E+03  0.00000000000E+00 0.  1.
   -9000007    1    1    2    0  503 -0.42523800198E+02 -0.66931884945E+02 -0.13753131047E+03  0.43035219549E+03  0.40000000000E+03 0.  1.
<mgrwt>
<rscale>  2 0.40846019E+03</rscale>
<asrwt>0</asrwt>
<pdfrwt beam="1">  1       21 0.49129281E-01 0.40868569E+03</pdfrwt>
<pdfrwt beam="2">  1       21 0.80831349E-01 0.40868569E+03</pdfrwt>
<totfact> 0.47322446E+03</totfact>
</mgrwt>
</event>
<event>
 6    1  0.8739326E-004  0.7494514E+03  0.7818608E-02  0.9636294E-01
         21   -1    0    0  501  502  0.00000000000E+00  0.00000000000E+00  0.34128562837E+03  0.34128562837E+03  0.00000000000E+00 0.  1.
         21   -1    0    0  502  503 -0.00000000000E+00 -0.00000000000E+00 -0.23470340202E+04  0.23470340202E+04  0.00000000000E+00 0. -1.
    9000007    2    1    2  501    0 -0.51592451222E+02  0.63167688733E+03 -0.26779712535E+03  0.79566223750E+03  0.39960683782E+03 0.  0.
    9000005    1    3    3    0    0 -0.17072860337E+03  0.10417704135E+03 -0.20621735110E+02  0.20106558111E+03  0.99999687468E+00 0.  0.
          4    1    3    3  501    0  0.11913615215E+03  0.52749984598E+03 -0.24717539024E+03  0.59459665640E+03  0.00000000000E+00 0.  1.
   -9000007    1    1    2    0  503  0.51592451222E+02 -0.63167688733E+03 -0.17379512664E+04  0.18926574110E+04  0.40000000000E+03 0. -1.
<mgrwt>
<rscale>  2 0.74939900E+03</rscale>
<asrwt>0</asrwt>
<pdfrwt beam="1">  1       21 0.52505482E-01 0.74945145E+03</pdfrwt>
<pdfrwt beam="2">  1       21 0.36108215E+00 0.74945145E+03</pdfrwt>
<totfact> 0.32729451E+01</totfact>
</mgrwt>
</event>
<event>
 6    1  0.8739326E-004  0.4691774E+03  0.7818608E-02  0.1022161E+00
         21   -1    0    0  501  502  0.00000000000E+00  0.00000000000E+00  0.46098350275E+03  0.46098350275E+03  0.00000000000E+00 0. -1.
         21   -1    0    0  502  503 -0.00000000000E+00 -0.00000000000E+00 -0.76013648438E+03  0.76013648438E+03  0.00000000000E+00 0.  1.
    9000007    2    1    2  501    0 -0.16101671407E+03 -0.18461806841E+03  0.22278667157E+03  0.51938555376E+03  0.40014652195E+03 0.  0.
    9000005    1    3    3    0    0  0.18369710816E+02 -0.26398850424E+03  0.17572023011E+03  0.31765700985E+03  0.99999687468E+00 0.  0.
          4    1    3    3  501    0 -0.17938642488E+03  0.79370435824E+02  0.47066441467E+02  0.20172854391E+03  0.00000000000E+00 0.  1.
   -9000007    1    1    2    0  503  0.16101671407E+03  0.18461806841E+03 -0.52193965320E+03  0.70173443337E+03  0.40000000000E+03 0.  1.
<mgrwt>
<rscale>  2 0.46914618E+03</rscale>
<asrwt>0</asrwt>
<pdfrwt beam="1">  1       21 0.70920539E-01 0.46917742E+03</pdfrwt>
<pdfrwt beam="2">  1       21 0.11694407E+00 0.46917742E+03</pdfrwt>
<totfact> 0.85051279E+02</totfact>
</mgrwt>
</event>
<event>
 6    1  0.8739326E-004  0.5562945E+03  0.7818608E-02  0.1000056E+00
         21   -1    0    0  501  502  0.00000000000E+00  0.00000000000E+00  0.12921633548E+04  0.12921633548E+04  0.00000000000E+00 0.  1.
         21   -1    0    0  502  503 -0.00000000000E+00 -0.00000000000E+00 -0.10421548653E+04  0.10421548653E+04  0.00000000000E+00 0. -1.
    9000007    2    1    2  501    0 -0.36871738876E+03 -0.11623725676E+03  0.11493479682E+04  0.12768329432E+04  0.39979744894E+03 0.  0.
    9000005    1    3    3    0    0 -0.43133668070E+03 -0.12704164236E+03  0.76578558288E+03  0.88804249333E+03  0.99999687468E+00 0.  0.
          4    1    3    3  501    0  0.62619291941E+02  0.10804385600E+02  0.38356238537E+03  0.38879044991E+03  0.00000000000E+00 0.  1.
   -9000007    1    1    2    0  503  0.36871738876E+03  0.11623725676E+03 -0.89933947877E+03  0.10574852768E+04  0.40000000000E+03 0. -1.
<mgrwt>
<rscale>  2 0.55625813E+03</rscale>
<asrwt>0</asrwt>
<pdfrwt beam="1">  1       21 0.19879436E+00 0.55629454E+03</pdfrwt>
<pdfrwt beam="2">  1       21 0.16033152E+00 0.55629454E+03</pdfrwt>
<totfact> 0.24672570E+01</totfact>
</mgrwt>
</event>
<event>
 6    1  0.8739326E-004  0.4873227E+03  0.7818608E-02  0.1017154E+00
         21   -1    0    0  501  502  0.00000000000E+00  0.00000000000E+00  0.67077261200E+03  0.67077261200E+03  0.00000000000E+00 0.  1.
         21   -1    0    0  502  503 -0.00000000000E+00 -0.00000000000E+00 -0.36366597728E+03  0.36366597728E+03  0.00000000000E+00 0.  1.
    9000007    2    1    2  501    0  0.65605875650E+02 -0.27051661237E+03  0.23822794755E+03  0.54227231450E+03  0.39977911350E+03 0.  0.
    9000005    1    3    3    0    0  0.11920728347E+03  0.27601000549E+02  0.20341084573E+03  0.23737978814E+03  0.99999687468E+00 0.  0.
          4    1    3    3  501    0 -0.53601407816E+02 -0.29811761292E+03  0.34817101820E+02  0.30489252636E+03  0.00000000000E+00 0.  1.
   -9000007    1    1    2    0  503 -0.65605875650E+02  0.27051661237E+03  0.68878687168E+02  0.49216627478E+03  0.40000000000E+03 0.  1.
<mgrwt>
<rscale>  2 0.48727732E+03</rscale>
<asrwt>0</asrwt>
<pdfrwt beam="1">  1       21 0.10319579E+00 0.48732265E+03</pdfrwt>
<pdfrwt beam="2">  1       21 0.55948612E-01 0.48732265E+03</pdfrwt>
<totfact> 0.19481573E+03</totfact>
</mgrwt>
</event>
<event>
 6    1  0.8739326E-004  0.4522928E+03  0.7818608E-02  0.1027063E+00
         21   -1    0    0  501  502  0.00000000000E+00  0.00000000000E+00  0.16173795174E+03  0.16173795174E+03  0.00000000000E+00 0. -1.
         21   -1    0    0  502  503 -0.00000000000E+00 -0.00000000000E+00 -0.12822174480E+04  0.12822174480E+04  0.00000000000E+00 0. -1.
    9000007    2    1    2  501    0 -0.21097919649E+03  0.75227365250E+01 -0.64620465342E+03  0.78858875465E+03  0.39965354616E+03 0.  0.
    9000005    1    3    3    0    0  0.63079380569E+01  0.52841682622E+02 -0.53983853857E+03  0.54245615604E+03  0.99999687468E+00 0.  0.
          4    1    3    3  501    0 -0.21728713454E+03 -0.45318946097E+02 -0.10636611485E+03  0.24613259862E+03  0.00000000000E+00 0.  1.
   -9000007    1    1    2    0  503  0.21097919649E+03 -0.75227365250E+01 -0.47427484280E+03  0.65536664504E+03  0.40000000000E+03 0. -1.
<mgrwt>
<rscale>  2 0.45221623E+03</rscale>
<asrwt>0</asrwt>
<pdfrwt beam="1">  1       21 0.24882761E-01 0.45229284E+03</pdfrwt>
<pdfrwt beam="2">  1       21 0.19726423E+00 0.45229284E+03</pdfrwt>
<totfact> 0.18031494E+03</totfact>
</mgrwt>
</event>
<event>
 6    1  0.8739326E-004  0.4479094E+03  0.7818608E-02  0.1028419E+00
         21   -1    0    0  501  502  0.00000000000E+00  0.00000000000E+00  0.30883357991E+03  0.30883357991E+03  0.00000000000E+00 0.  1.
         21   -1    0    0  502  503 -0.00000000000E+00 -0.00000000000E+00 -0.68057903585E+03  0.68057903585E+03  0.00000000000E+00 0. -1.
    9000007    2    1    2  501    0 -0.19344708294E+03 -0.48456377958E+02 -0.78211571543E+02  0.45468657772E+03  0.40106488199E+03 0.  0.
    9000005    1    3    3    0    0  0.88921029069E+02  0.95605244730E+02 -0.30962538561E+02  0.13419013011E+03  0.99999687468E+00 0.  0.
          4    1    3    3  501    0 -0.28236811201E+03 -0.14406162269E+03 -0.47249032982E+02  0.32049644761E+03  0.00000000000E+00 0.  1.
   -9000007    1    1    2    0  503  0.19344708294E+03  0.48456377958E+02 -0.29353388440E+03  0.53472603803E+03  0.40000000000E+03 0. -1.
<mgrwt>
<rscale>  2 0.44767090E+03</rscale>
<asrwt>0</asrwt>
<pdfrwt beam="1">  1       21 0.47512859E-01 0.44790940E+03</pdfrwt>
<pdfrwt beam="2">  1       21 0.10470447E+00 0.44790940E+03</pdfrwt>
<totfact> 0.27046218E+03</totfact>
</mgrwt>
</event>
<event>
 6    1  0.8739326E-004  0.4055985E+03  0.7818608E-02  0.1041912E+00
         21   -1    0    0  501  502  0.00000000000E+00  0.00000000000E+00  0.33889465748E+03  0.33889465748E+03  0.00000000000E+00 0.  1.
         21   -1    0    0  502  503 -0.00000000000E+00 -0.00000000000E+00 -0.55502517197E+03  0.55502517197E+03  0.00000000000E+00 0.  1.
    9000007    2    1    2  501    0  0.44345205860E+02 -0.45044971792E+02  0.50991546249E+02  0.40879124639E+03  0.40064273183E+03 0.  0.
    9000005    1    3    3    0    0 -0.15341786102E+03 -0.49389375020E+02 -0.71288657713E+02  0.17623683825E+03  0.99999687468E+00 0.  0.
          4    1    3    3  501    0  0.19776306688E+03  0.43444032283E+01  0.12228020396E+03  0.23255440814E+03  0.00000000000E+00 0.  1.
   -9000007    1    1    2    0  503 -0.44345205860E+02  0.45044971792E+02 -0.26712206074E+03  0.48512858306E+03  0.40000000000E+03 0.  1.
<mgrwt>
<rscale>  2 0.40543969E+03</rscale>
<asrwt>0</asrwt>
<pdfrwt beam="1">  1       21 0.52137641E-01 0.40559850E+03</pdfrwt>
<pdfrwt beam="2">  1       21 0.85388486E-01 0.40559850E+03</pdfrwt>
<totfact> 0.36758984E+03</totfact>
</mgrwt>
</event>
<event>
 6    1  0.8739326E-004  0.5119623E+03  0.7818608E-02  0.1010759E+00
         21   -1    0    0  501  502  0.00000000000E+00  0.00000000000E+00  0.11674882540E+04  0.11674882540E+04  0.00000000000E+00 0.  1.
         21   -1    0    0  502  503 -0.00000000000E+00 -0.00000000000E+00 -0.24489092790E+03  0.24489092790E+03  0.00000000000E+00 0. -1.
    9000007    2    1    2  501    0 -0.22784299591E+03 -0.22403794092E+03  0.25523711710E+03  0.57126380436E+03  0.39886202936E+03 0.  0.
    9000005    1    3    3    0    0 -0.21075095510E+02 -0.22207415988E+03 -0.23383662612E+02  0.22429642843E+03  0.99999687468E+00 0.  0.
          4    1    3    3  501    0 -0.20676790040E+03 -0.19637810468E+01  0.27862077971E+03  0.34696737593E+03  0.00000000000E+00 0.  1.
   -9000007    1    1    2    0  503  0.22784299591E+03  0.22403794092E+03  0.66736020897E+03  0.84111537751E+03  0.40000000000E+03 0.  1.
<mgrwt>
<rscale>  2 0.51174003E+03</rscale>
<asrwt>0</asrwt>
<pdfrwt beam="1">  1       21 0.17961357E+00 0.51196233E+03</pdfrwt>
<pdfrwt beam="2">  1       21 0.37675528E-01 0.51196233E+03</pdfrwt>
<totfact> 0.10179998E+03</totfact>
</mgrwt>
</event>
<event>
 6    1  0.8739326E-004  0.4623332E+03  0.7818608E-02  0.1024118E+00
         21   -1    0    0  501  502  0.00000000000E+00  0.00000000000E+00  0.94826384120E+03  0.94826384120E+03  0.00000000000E+00 0.  1.
         21   -1    0    0  502  503 -0.00000000000E+00 -0.00000000000E+00 -0.37302315548E+03  0.37302315548E+03  0.00000000000E+00 0. -1.
    9000007    2    1    2  501    0 -0.73331881009E+02 -0.21994194613E+03  0.70327662396E+03  0.84155245975E+03  0.39982559732E+03 0.  0.
    9000005    1    3    3    0    0  0.11086100666E+03  0.23345112178E+02  0.56933884279E+02  0.12679757188E+03  0.99999687468E+00 0.  0.
          4    1    3    3  501    0 -0.18419288767E+03 -0.24328705831E+03  0.64634273968E+03  0.71475488788E+03  0.00000000000E+00 0.  1.
   -9000007    1    1    2    0  503  0.73331881009E+02  0.21994194613E+03 -0.12803593823E+03  0.47973453692E+03  0.40000000000E+03 0. -1.
<mgrwt>
<rscale>  2 0.46229551E+03</rscale>
<asrwt>0</asrwt>
<pdfrwt beam="1">  1       21 0.14588674E+00 0.46233324E+03</pdfrwt>
<pdfrwt beam="2">  1       21 0.57388178E-01 0.46233324E+03</pdfrwt>
<totfact> 0.76644963E+02</totfact>
</mgrwt>
</event>
<event>
 6    1  0.8739326E-004  0.4310897E+03  0.7818608E-02  0.1033633E+00
         21   -1    0    0  501  502  0.00000000000E+00  0.00000000000E+00  0.14563164576E+03  0.14563164576E+03  0.00000000000E+00 0. -1.
         21   -1    0    0  502  503 -0.00000000000E+00 -0.00000000000E+00 -0.13815326810E+04  0.13815326810E+04  0.00000000000E+00 0. -1.
    9000007    2    1    2  501    0 -0.16073375190E+03  0.17266040334E+01 -0.40170075101E+03  0.58816036811E+03  0.39841034763E+03 0.  0.
    9000005    1    3    3    0    0 -0.20374414791E+03  0.13710392652E+02 -0.21487762331E+02  0.20533479149E+03  0.99999687468E+00 0.  0.
          4    1    3    3  501    0  0.43010396008E+02 -0.11983788619E+02 -0.38021298868E+03  0.38282557662E+03  0.00000000000E+00 0.  1.
   -9000007    1    1    2    0  503  0.16073375190E+03 -0.17266040334E+01 -0.83420028424E+03  0.93900395866E+03  0.40000000000E+03 0. -1.
<mgrwt>
<rscale>  2 0.43072057E+03</rscale>
<asrwt>0</asrwt>
<pdfrwt beam="1">  1       21 0.22404869E-01 0.43108969E+03</pdfrwt>
<pdfrwt beam="2">  1       21 0.21254348E+00 0.43108969E+03</pdfrwt>
<totfact> 0.17682070E+03</totfact>
</mgrwt>
</event>
<event>
 6    1  0.8739326E-004  0.4034108E+03  0.7818608E-02  0.1042660E+00
         21   -1    0    0  501  502  0.00000000000E+00  0.00000000000E+00  0.15137824658E+04  0.15137824658E+04  0.00000000000E+00 0.  1.
         21   -1    0    0  502  503 -0.00000000000E+00 -0.00000000000E+00 -0.12742229889E+03  0.12742229889E+03  0.00000000000E+00 0.  1.
    9000007    2    1    2  501    0 -0.10896007240E+02 -0.51201040417E+02  0.10185255547E+04  0.10952720111E+04  0.39935723756E+03 0.  0.
    9000005    1    3    3    0    0 -0.10432627595E+02  0.44069198334E+02 -0.22025081940E+02  0.50369020127E+02  0.99999687468E+00 0.  0.
          4    1    3    3  501    0 -0.46337964479E+00 -0.95270238751E+02  0.10405506367E+04  0.10449029910E+04  0.00000000000E+00 0.  1.
   -9000007    1    1    2    0  503  0.10896007240E+02  0.51201040417E+02  0.36783461219E+03  0.54593275358E+03  0.40000000000E+03 0.  1.
<mgrwt>
<rscale>  2 0.40325137E+03</rscale>
<asrwt>0</asrwt>
<pdfrwt beam="1">  1       21 0.23288960E+00 0.40341079E+03</pdfrwt>
<pdfrwt beam="2">  1       21 0.19603432E-01 0.40341079E+03</pdfrwt>
<totfact> 0.17178030E+03</totfact>
</mgrwt>
</event>
<event>
 6    1  0.8739326E-004  0.4587679E+03  0.7818608E-02  0.1025188E+00
         21   -1    0    0  501  502  0.00000000000E+00  0.00000000000E+00  0.40536220788E+03  0.40536220788E+03  0.00000000000E+00 0.  1.
         21   -1    0    0  502  503 -0.00000000000E+00 -0.00000000000E+00 -0.60133848847E+03  0.60133848847E+03  0.00000000000E+00 0.  1.
    9000007    2    1    2  501    0  0.71425508152E+02 -0.21153162134E+03  0.88834395665E+02  0.46728958102E+03  0.40077521459E+03 0.  0.
    9000005    1    3    3    0    0  0.35556064514E+02  0.92106521539E+02  0.12512953940E+03  0.15939337081E+03  0.99999687468E+00 0.  0.
          4    1    3    3  501    0  0.35869443637E+02 -0.30363814288E+03 -0.36295143740E+02  0.30789621020E+03  0.00000000000E+00 0.  1.
   -9000007    1    1    2    0  503 -0.71425508152E+02  0.21153162134E+03 -0.28481067625E+03  0.53941111533E+03  0.40000000000E+03 0.  1.
<mgrwt>
<rscale>  2 0.45859856E+03</rscale>
<asrwt>0</asrwt>
<pdfrwt beam="1">  1       21 0.62363416E-01 0.45876792E+03</pdfrwt>
<pdfrwt beam="2">  1       21 0.92513614E-01 0.45876792E+03</pdfrwt>
<totfact> 0.20217562E+03</totfact>
</mgrwt>
</event>
<event>
 6    1  0.8739326E-004  0.4438837E+03  0.7818608E-02  0.1029592E+00
         21   -1    0    0  501  502  0.00000000000E+00  0.00000000000E+00  0.33707825392E+03  0.33707825392E+03  0.00000000000E+00 0.  1.
         21   -1    0    0  502  503 -0.00000000000E+00 -0.00000000000E+00 -0.10516997350E+04  0.10516997350E+04  0.00000000000E+00 0.  1.
    9000007    2    1    2  501    0 -0.13424351089E+03 -0.13659577476E+03  0.10566010942E+03  0.45628583687E+03  0.40044098230E+03 0.  0.
    9000005    1    3    3    0    0 -0.23841069558E+03 -0.53805978468E+02 -0.52104458941E+02  0.24990121592E+03  0.99999687468E+00 0.  0.
          4    1    3    3  501    0  0.10416718468E+03 -0.82789796289E+02  0.15776456836E+03  0.20638462095E+03  0.00000000000E+00 0.  1.
   -9000007    1    1    2    0  503  0.13424351089E+03  0.13659577476E+03 -0.82028159047E+03  0.93249215201E+03  0.40000000000E+03 0.  1.
<mgrwt>
<rscale>  2 0.44378418E+03</rscale>
<asrwt>0</asrwt>
<pdfrwt beam="1">  1       21 0.51858193E-01 0.44388366E+03</pdfrwt>
<pdfrwt beam="2">  1       21 0.16179996E+00 0.44388366E+03</pdfrwt>
<totfact> 0.72379797E+02</totfact>
</mgrwt>
</event>
<event>
 6    1  0.8739326E-004  0.4176695E+03  0.7818608E-02  0.1037871E+00
         21   -1    0    0  501  502  0.00000000000E+00  0.00000000000E+00  0.55251369193E+03  0.55251369193E+03  0.00000000000E+00 0.  1.
         21   -1    0    0  502  503 -0.00000000000E+00 -0.00000000000E+00 -0.37405889807E+03  0.37405889807E+03  0.00000000000E+00 0.  1.
    9000007    2    1    2  501    0  0.71677058978E+02 -0.94161336527E+02  0.27284205034E+03  0.49888939853E+03  0.40055447751E+03 0.  0.
    9000005    1    3    3    0    0 -0.13914920522E+03  0.46454748838E+01 -0.12746346982E+01  0.13923615348E+03  0.99999687468E+00 0.  0.
          4    1    3    3  501    0  0.21082626420E+03 -0.98806811411E+02  0.27411668504E+03  0.35965324504E+03  0.00000000000E+00 0.  1.
   -9000007    1    1    2    0  503 -0.71677058978E+02  0.94161336527E+02 -0.94387256486E+02  0.42768319147E+03  0.40000000000E+03 0.  1.
<mgrwt>
<rscale>  2 0.41753655E+03</rscale>
<asrwt>0</asrwt>
<pdfrwt beam="1">  1       21 0.85002107E-01 0.41766954E+03</pdfrwt>
<pdfrwt beam="2">  1       21 0.57547523E-01 0.41766954E+03</pdfrwt>
<totfact> 0.29897110E+03</totfact>
</mgrwt>
</event>
<event>
 6    1  0.8739326E-004  0.5397943E+03  0.7818608E-02  0.1003888E+00
         21   -1    0    0  501  502  0.00000000000E+00  0.00000000000E+00  0.26741195304E+03  0.26741195304E+03  0.00000000000E+00 0.  1.
         21   -1    0    0  502  503 -0.00000000000E+00 -0.00000000000E+00 -0.15593987369E+04  0.15593987369E+04  0.00000000000E+00 0. -1.
    9000007    2    1    2  501    0  0.25054327567E+03 -0.26179717217E+03 -0.14461347493E+03  0.55882993205E+03  0.40008517028E+03 0.  0.
    9000005    1    3    3    0    0  0.37166332388E+02 -0.22510785384E+03 -0.23196274497E+03  0.32536532878E+03  0.99999687468E+00 0.  0.
          4    1    3    3  501    0  0.21337694328E+03 -0.36689318328E+02  0.87349270036E+02  0.23346460327E+03  0.00000000000E+00 0.  1.
   -9000007    1    1    2    0  503 -0.25054327567E+03  0.26179717217E+03 -0.11473733089E+04  0.12679807579E+04  0.40000000000E+03 0. -1.
<mgrwt>
<rscale>  2 0.53977847E+03</rscale>
<asrwt>0</asrwt>
<pdfrwt beam="1">  1       21 0.41140300E-01 0.53979425E+03</pdfrwt>
<pdfrwt beam="2">  1       21 0.23990750E+00 0.53979425E+03</pdfrwt>
<totfact> 0.33562757E+02</totfact>
</mgrwt>
</event>
<event>
 6    1  0.8739326E-004  0.4483640E+03  0.7818608E-02  0.1028324E+00
         21   -1    0    0  501  502  0.00000000000E+00  0.00000000000E+00  0.23086026795E+04  0.23086026795E+04  0.00000000000E+00 0.  1.
         21   -1    0    0  502  503 -0.00000000000E+00 -0.00000000000E+00 -0.17142089001E+03  0.17142089001E+03  0.00000000000E+00 0.  1.
    9000007    2    1    2  501    0  0.16120852101E+03 -0.12264622646E+03  0.19389800840E+04  0.19898050467E+04  0.39830901763E+03 0.  0.
    9000005    1    3    3    0    0 -0.94558494899E+02  0.34301841694E+02  0.97555604854E+03  0.98072857057E+03  0.99999687468E+00 0.  0.
          4    1    3    3  501    0  0.25576701591E+03 -0.15694806815E+03  0.96342403543E+03  0.10090764761E+04  0.00000000000E+00 0.  1.
   -9000007    1    1    2    0  503 -0.16120852101E+03  0.12264622646E+03  0.19820170556E+03  0.49021852290E+03  0.40000000000E+03 0.  1.
<mgrwt>
<rscale>  2 0.44798655E+03</rscale>
<asrwt>0</asrwt>
<pdfrwt beam="1">  1       21 0.35516962E+00 0.44836401E+03</pdfrwt>
<pdfrwt beam="2">  1       21 0.26372446E-01 0.44836401E+03</pdfrwt>
<totfact> 0.17140562E+02</totfact>
</mgrwt>
</event>
<event>
 6    1  0.8739326E-004  0.4806082E+03  0.7818608E-02  0.1019021E+00
         21   -1    0    0  501  502  0.00000000000E+00  0.00000000000E+00  0.21469421939E+03  0.21469421939E+03  0.00000000000E+00 0.  1.
         21   -1    0    0  502  503 -0.00000000000E+00 -0.00000000000E+00 -0.18408037486E+04  0.18408037486E+04  0.00000000000E+00 0.  1.
    9000007    2    1    2  501    0  0.26390862700E+03  0.24467629800E+02 -0.15017852486E+03  0.50352543024E+03  0.40092124072E+03 0.  0.
    9000005    1    3    3    0    0  0.19090838965E+03  0.44126455994E+02 -0.28682158156E+03  0.34736260161E+03  0.99999687468E+00 0.  0.
          4    1    3    3  501    0  0.73000237349E+02 -0.19658826194E+02  0.13664305670E+03  0.15616282863E+03  0.00000000000E+00 0.  1.
   -9000007    1    1    2    0  503 -0.26390862700E+03 -0.24467629800E+02 -0.14759310043E+04  0.15519725377E+04  0.40000000000E+03 0.  1.
<mgrwt>
<rscale>  2 0.48041606E+03</rscale>
<asrwt>0</asrwt>
<pdfrwt beam="1">  1       21 0.33029880E-01 0.48060823E+03</pdfrwt>
<pdfrwt beam="2">  1       21 0.28320058E+00 0.48060823E+03</pdfrwt>
<totfact> 0.29366427E+02</totfact>
</mgrwt>
</event>
<event>
 6    1  0.8739326E-004  0.4027171E+03  0.7818608E-02  0.1042937E+00
         21   -1    0    0  501  502  0.00000000000E+00  0.00000000000E+00  0.14788770458E+03  0.14788770458E+03  0.00000000000E+00 0.  1.
         21   -1    0    0  502  503 -0.00000000000E+00 -0.00000000000E+00 -0.11120564389E+04  0.11120564389E+04  0.00000000000E+00 0.  1.
    9000007    2    1    2  501    0 -0.90788597733E+01 -0.45811029426E+02 -0.56242223826E+03  0.69110205360E+03  0.39890123877E+03 0.  0.
    9000005    1    3    3    0    0  0.15331567356E+03 -0.86087893646E+02 -0.10679504835E+03  0.20572555393E+03  0.99999687468E+00 0.  0.
          4    1    3    3  501    0 -0.16239453334E+03  0.40276864220E+02 -0.45562718991E+03  0.48537649968E+03  0.00000000000E+00 0.  1.
   -9000007    1    1    2    0  503  0.90788597733E+01  0.45811029426E+02 -0.40174649601E+03  0.56884208983E+03  0.40000000000E+03 0. -1.
<mgrwt>
<rscale>  2 0.40244401E+03</rscale>
<asrwt>0</asrwt>
<pdfrwt beam="1">  1       21 0.22751954E-01 0.40271712E+03</pdfrwt>
<pdfrwt beam="2">  1       21 0.17108561E+00 0.40271712E+03</pdfrwt>
<totfact> 0.33303602E+03</totfact>
</mgrwt>
</event>
<event>
 6    1  0.8739326E-004  0.4288592E+03  0.7818608E-02  0.1034266E+00
         21   -1    0    0  501  502  0.00000000000E+00  0.00000000000E+00  0.11972352719E+04  0.11972352719E+04  0.00000000000E+00 0. -1.
         21   -1    0    0  502  503 -0.00000000000E+00 -0.00000000000E+00 -0.16365191990E+03  0.16365191990E+03  0.00000000000E+00 0. -1.
    9000007    2    1    2  501    0  0.13205033843E+03 -0.80516583661E+02  0.68664501760E+03  0.80926556423E+03  0.39938598014E+03 0.  0.
    9000005    1    3    3    0    0  0.25989863070E+03 -0.26864385039E+02  0.29641042906E+03  0.39513179557E+03  0.99999687468E+00 0.  0.
          4    1    3    3  501    0 -0.12784829227E+03 -0.53652198621E+02  0.39023458854E+03  0.41413376866E+03  0.00000000000E+00 0.  1.
   -9000007    1    1    2    0  503 -0.13205033843E+03  0.80516583661E+02  0.34693833442E+03  0.55162162758E+03  0.40000000000E+03 0. -1.
<mgrwt>
<rscale>  2 0.42871597E+03</rscale>
<asrwt>0</asrwt>
<pdfrwt beam="1">  1       21 0.18419004E+00 0.42885920E+03</pdfrwt>
<pdfrwt beam="2">  1       21 0.25177219E-01 0.42885920E+03</pdfrwt>
<totfact> 0.21862475E+03</totfact>
</mgrwt>
</event>
<event>
 6    1  0.8739326E-004  0.4293577E+03  0.7818608E-02  0.1034074E+00
         21   -1    0    0  501  502  0.00000000000E+00  0.00000000000E+00  0.64182622247E+03  0.64182622247E+03  0.00000000000E+00 0.  1.
         21   -1    0    0  502  503 -0.00000000000E+00 -0.00000000000E+00 -0.38947187424E+03  0.38947187424E+03  0.00000000000E+00 0.  1.
    9000007    2    1    2  501    0  0.14731517599E+03  0.50310525291E+02  0.39051369872E+03  0.58038689020E+03  0.40014382839E+03 0.  0.
    9000005    1    3    3    0    0  0.66715066487E+02  0.11591922244E+03  0.44385558558E+03  0.46356978663E+03  0.99999687468E+00 0.  0.
          4    1    3    3  501    0  0.80600109503E+02 -0.65608697153E+02 -0.53341886861E+02  0.11681710358E+03  0.00000000000E+00 0.  1.
   -9000007    1    1    2    0  503 -0.14731517599E+03 -0.50310525291E+02 -0.13815935048E+03  0.45091120651E+03  0.40000000000E+03 0.  1.
<mgrwt>
<rscale>  2 0.42932414E+03</rscale>
<asrwt>0</asrwt>
<pdfrwt beam="1">  1       21 0.98742495E-01 0.42935765E+03</pdfrwt>
<pdfrwt beam="2">  1       21 0.59918750E-01 0.42935765E+03</pdfrwt>
<totfact> 0.19093816E+03</totfact>
</mgrwt>
</event>
<event>
 6    1  0.8739326E-004  0.5752823E+03  0.7818608E-02  0.9958264E-01
         21   -1    0    0  501  502  0.00000000000E+00  0.00000000000E+00  0.19423477758E+04  0.19423477758E+04  0.00000000000E+00 0.  1.
         21   -1    0    0  502  503 -0.00000000000E+00 -0.00000000000E+00 -0.33192283635E+03  0.33192283635E+03  0.00000000000E+00 0. -1.
    9000007    2    1    2  501    0 -0.98327335842E+02 -0.40105633071E+03  0.15989076212E+04  0.16992514003E+04  0.40054374917E+03 0.  0.
    9000005    1    3    3    0    0  0.12542796713E+03 -0.12183787659E+03  0.86826779594E+03  0.88570119599E+03  0.99999687468E+00 0.  0.
          4    1    3    3  501    0 -0.22375530297E+03 -0.27921845411E+03  0.73063982524E+03  0.81355020432E+03  0.00000000000E+00 0.  1.
   -9000007    1    1    2    0  503  0.98327335842E+02  0.40105633071E+03  0.11517318273E+02  0.57501921185E+03  0.40000000000E+03 0. -1.
<mgrwt>
<rscale>  2 0.57518768E+03</rscale>
<asrwt>0</asrwt>
<pdfrwt beam="1">  1       21 0.29882273E+00 0.57528231E+03</pdfrwt>
<pdfrwt beam="2">  1       21 0.51065053E-01 0.57528231E+03</pdfrwt>
<totfact> 0.91037201E+01</totfact>
</mgrwt>
</event>
<event>
 6    1  0.8739326E-004  0.4579128E+03  0.7818608E-02  0.1025400E+00
         21   -1    0    0  501  502  0.00000000000E+00  0.00000000000E+00  0.14382670742E+03  0.14382670742E+03  0.00000000000E+00 0.  1.
         21   -1    0    0  502  503 -0.00000000000E+00 -0.00000000000E+00 -0.19892204156E+04  0.19892204156E+04  0.00000000000E+00 0. -1.
    9000007    2    1    2  501    0 -0.13688628767E+03 -0.17549315734E+03 -0.37134853706E+03  0.58956247115E+03  0.40018554121E+03 0.  0.
    9000005    1    3    3    0    0  0.89280025400E+02  0.75663016083E+02 -0.67643477270E+02  0.13517564481E+03  0.99999687468E+00 0.  0.
          4    1    3    3  501    0 -0.22616631307E+03 -0.25115617342E+03 -0.30370505979E+03  0.45438682634E+03  0.00000000000E+00 0.  1.
   -9000007    1    1    2    0  503  0.13688628767E+03  0.17549315734E+03 -0.14740451711E+04  0.15434846518E+04  0.40000000000E+03 0. -1.
<mgrwt>
<rscale>  2 0.45787230E+03</rscale>
<asrwt>0</asrwt>
<pdfrwt beam="1">  1       21 0.22127187E-01 0.45791284E+03</pdfrwt>
<pdfrwt beam="2">  1       21 0.30603389E+00 0.45791284E+03</pdfrwt>
<totfact> 0.47614312E+02</totfact>
</mgrwt>
</event>
<event>
 6    1  0.8739326E-004  0.4012049E+03  0.7818608E-02  0.1043392E+00
         21   -1    0    0  501  502  0.00000000000E+00  0.00000000000E+00  0.73593460674E+03  0.73593460674E+03  0.00000000000E+00 0. -1.
         21   -1    0    0  502  503 -0.00000000000E+00 -0.00000000000E+00 -0.22174905777E+03  0.22174905777E+03  0.00000000000E+00 0. -1.
    9000007    2    1    2  501    0 -0.25140969014E+02  0.78695731623E+01  0.19957774696E+03  0.44810337880E+03  0.40033905943E+03 0.  0.
    9000005    1    3    3    0    0 -0.45339908219E+02 -0.13216312276E+03 -0.60319674838E+02  0.15219152887E+03  0.99999687468E+00 0.  0.
          4    1    3    3  501    0  0.20198939206E+02  0.14003269592E+03  0.25989742180E+03  0.29591184993E+03  0.00000000000E+00 0.  1.
   -9000007    1    1    2    0  503  0.25140969014E+02 -0.78695731623E+01  0.31460780201E+03  0.50958028572E+03  0.40000000000E+03 0. -1.
<mgrwt>
<rscale>  2 0.40112028E+03</rscale>
<asrwt>0</asrwt>
<pdfrwt beam="1">  1       21 0.11322071E+00 0.40120489E+03</pdfrwt>
<pdfrwt beam="2">  1       21 0.34115240E-01 0.40120489E+03</pdfrwt>
<totfact> 0.44885197E+03</totfact>
</mgrwt>
</event>
<event>
 6    1  0.8739326E-004  0.4415471E+03  0.7818608E-02  0.1030296E+00
         21   -1    0    0  501  502  0.00000000000E+00  0.00000000000E+00  0.51746765075E+03  0.51746765075E+03  0.00000000000E+00 0.  1.
         21   -1    0    0  502  503 -0.00000000000E+00 -0.00000000000E+00 -0.37789210420E+03  0.37789210420E+03  0.00000000000E+00 0.  1.
    9000007    2    1    2  501    0  0.11234403736E+02  0.18594882491E+03  0.42770076586E+02  0.44361372417E+03  0.40032571677E+03 0.  0.
    9000005    1    3    3    0    0  0.69982179807E+02  0.10369690309E+02 -0.15641233678E+03  0.17167077520E+03  0.99999687468E+00 0.  0.
          4    1    3    3  501    0 -0.58747776071E+02  0.17557913460E+03  0.19918241336E+03  0.27194294897E+03  0.00000000000E+00 0.  1.
   -9000007    1    1    2    0  503 -0.11234403736E+02 -0.18594882491E+03  0.96805469965E+02  0.45174603078E+03  0.40000000000E+03 0.  1.
<mgrwt>
<rscale>  2 0.44147328E+03</rscale>
<asrwt>0</asrwt>
<pdfrwt beam="1">  1       21 0.79610408E-01 0.44154712E+03</pdfrwt>
<pdfrwt beam="2">  1       21 0.58137247E-01 0.44154712E+03</pdfrwt>
<totfact> 0.33747314E+03</totfact>
</mgrwt>
</event>
<event>
 6    1  0.8739326E-004  0.5108459E+03  0.7818608E-02  0.1011056E+00
         21   -1    0    0  501  502  0.00000000000E+00  0.00000000000E+00  0.52821351457E+03  0.52821351457E+03  0.00000000000E+00 0.  1.
         21   -1    0    0  502  503 -0.00000000000E+00 -0.00000000000E+00 -0.65732599023E+03  0.65732599023E+03  0.00000000000E+00 0. -1.
    9000007    2    1    2  501    0  0.30187780495E+03 -0.99162874309E+02  0.23188614056E+03  0.56001293807E+03  0.39859732044E+03 0.  0.
    9000005    1    3    3    0    0  0.24823332933E+03  0.99352413166E+01 -0.49652010241E+02  0.25334722601E+03  0.99999687468E+00 0.  0.
          4    1    3    3  501    0  0.53644475619E+02 -0.10909811563E+03  0.28153815080E+03  0.30666571206E+03  0.00000000000E+00 0.  1.
   -9000007    1    1    2    0  503 -0.30187780495E+03  0.99162874309E+02 -0.36099861622E+03  0.62552656673E+03  0.40000000000E+03 0. -1.
<mgrwt>
<rscale>  2 0.51057124E+03</rscale>
<asrwt>0</asrwt>
<pdfrwt beam="1">  1       21 0.81263617E-01 0.51084585E+03</pdfrwt>
<pdfrwt beam="2">  1       21 0.10112708E+00 0.51084585E+03</pdfrwt>
<totfact> 0.87873672E+02</totfact>
</mgrwt>
</event>
<event>
 6    1  0.8739326E-004  0.6391274E+03  0.7818608E-02  0.9827512E-01
         21   -1    0    0  501  502  0.00000000000E+00  0.00000000000E+00  0.17632153615E+04  0.17632153615E+04  0.00000000000E+00 0. -1.
         21   -1    0    0  502  503 -0.00000000000E+00 -0.00000000000E+00 -0.25760439542E+03  0.25760439542E+03  0.00000000000E+00 0.  1.
    9000007    2    1    2  501    0  0.42960407902E+01  0.49815607999E+03  0.43179885358E+03  0.77131970132E+03  0.40038218704E+03 0.  0.
    9000005    1    3    3    0    0  0.14748893994E+03  0.14736711865E+03  0.30950782082E+03  0.37318379682E+03  0.99999687468E+00 0.  0.
          4    1    3    3  501    0 -0.14319289915E+03  0.35078896134E+03  0.12229103276E+03  0.39813590450E+03  0.00000000000E+00 0.  1.
   -9000007    1    1    2    0  503 -0.42960407902E+01 -0.49815607999E+03  0.10738121125E+04  0.12495000556E+04  0.40000000000E+03 0.  1.
<mgrwt>
<rscale>  2 0.63906755E+03</rscale>
<asrwt>0</asrwt>
<pdfrwt beam="1">  1       21 0.27126389E+00 0.63912740E+03</pdfrwt>
<pdfrwt beam="2">  1       21 0.39631447E-01 0.63912740E+03</pdfrwt>
<totfact> 0.22251030E+02</totfact>
</mgrwt>
</event>
<event>
 6    1  0.8739326E-004  0.5028048E+03  0.7818608E-02  0.1013070E+00
         21   -1    0    0  501  502  0.00000000000E+00  0.00000000000E+00  0.23058989571E+03  0.23058989571E+03  0.00000000000E+00 0.  1.
         21   -1    0    0  502  503 -0.00000000000E+00 -0.00000000000E+00 -0.12492616301E+04  0.12492616301E+04  0.00000000000E+00 0.  1.
    9000007    2    1    2  501    0 -0.29851700656E+03 -0.58192911201E+02 -0.25004893259E+03  0.56154883630E+03  0.40039206878E+03 0.  0.
    9000005    1    3    3    0    0 -0.15129688941E+03 -0.21386001255E+03 -0.22593364073E+03  0.34593910407E+03  0.99999687468E+00 0.  0.
          4    1    3    3  501    0 -0.14722011715E+03  0.15566710134E+03 -0.24115291859E+02  0.21560973224E+03  0.00000000000E+00 0.  1.
   -9000007    1    1    2    0  503  0.29851700656E+03  0.58192911201E+02 -0.76862280179E+03  0.91830268950E+03  0.40000000000E+03 0.  1.
<mgrwt>
<rscale>  2 0.50272670E+03</rscale>
<asrwt>0</asrwt>
<pdfrwt beam="1">  1       21 0.35475369E-01 0.50280476E+03</pdfrwt>
<pdfrwt beam="2">  1       21 0.19219410E+00 0.50280476E+03</pdfrwt>
<totfact> 0.94430237E+02</totfact>
</mgrwt>
</event>
<event>
 6    1  0.8739326E-004  0.4502695E+03  0.7818608E-02  0.1027648E+00
         21   -1    0    0  501  502  0.00000000000E+00  0.00000000000E+00  0.16268670737E+03  0.16268670737E+03  0.00000000000E+00 0. -1.
         21   -1    0    0  502  503 -0.00000000000E+00 -0.00000000000E+00 -0.12473663845E+04  0.12473663845E+04  0.00000000000E+00 0. -1.
    9000007    2    1    2  501    0 -0.13520652409E+03  0.15615007819E+03 -0.56596178029E+03  0.72322566990E+03  0.40009871505E+03 0.  0.
    9000005    1    3    3    0    0  0.12993315384E+03  0.76473304055E+02 -0.99020178293E+02  0.18037956204E+03  0.99999687468E+00 0.  0.
          4    1    3    3  501    0 -0.26513967793E+03  0.79676774137E+02 -0.46694160199E+03  0.54284610786E+03  0.00000000000E+00 0.  1.
   -9000007    1    1    2    0  503  0.13520652409E+03 -0.15615007819E+03 -0.51871789688E+03  0.68682742200E+03  0.40000000000E+03 0.  1.
<mgrwt>
<rscale>  2 0.45024758E+03</rscale>
<asrwt>0</asrwt>
<pdfrwt beam="1">  1       21 0.25028726E-01 0.45026951E+03</pdfrwt>
<pdfrwt beam="2">  1       21 0.19190251E+00 0.45026951E+03</pdfrwt>
<totfact> 0.19397785E+03</totfact>
</mgrwt>
</event>
<event>
 6    1  0.8739326E-004  0.4701842E+03  0.7818608E-02  0.1021884E+00
         21   -1    0    0  501  502  0.00000000000E+00  0.00000000000E+00  0.18279542912E+03  0.18279542912E+03  0.00000000000E+00 0. -1.
         21   -1    0    0  502  503 -0.00000000000E+00 -0.00000000000E+00 -0.12477649975E+04  0.12477649975E+04  0.00000000000E+00 0. -1.
    9000007    2    1    2  501    0  0.22199816727E+03 -0.10858162000E+03 -0.65872416309E+03  0.80918414464E+03  0.39973529043E+03 0.  0.
    9000005    1    3    3    0    0  0.80443025416E+02 -0.16802131149E+03 -0.67163899030E+02  0.19802583362E+03  0.99999687468E+00 0.  0.
          4    1    3    3  501    0  0.14155514185E+03  0.59439691488E+02 -0.59156026406E+03  0.61115831102E+03  0.00000000000E+00 0.  1.
   -9000007    1    1    2    0  503 -0.22199816727E+03  0.10858162000E+03 -0.40624540525E+03  0.62137628194E+03  0.40000000000E+03 0. -1.
<mgrwt>
<rscale>  2 0.47012787E+03</rscale>
<asrwt>0</asrwt>
<pdfrwt beam="1">  1       21 0.28122374E-01 0.47018417E+03</pdfrwt>
<pdfrwt beam="2">  1       21 0.19196384E+00 0.47018417E+03</pdfrwt>
<totfact> 0.15293870E+03</totfact>
</mgrwt>
</event>
<event>
 6    1  0.8739326E-004  0.7881918E+03  0.7818608E-02  0.9577306E-01
         21   -1    0    0  501  502  0.00000000000E+00  0.00000000000E+00  0.25524299091E+04  0.25524299091E+04  0.00000000000E+00 0.  1.
         21   -1    0    0  502  503 -0.00000000000E+00 -0.00000000000E+00 -0.10657394332E+04  0.10657394332E+04  0.00000000000E+00 0.  1.
    9000007    2    1    2  501    0  0.54529234976E+03 -0.40484879921E+03  0.23324985681E+04  0.24620388886E+04  0.39979947681E+03 0.  0.
    9000005    1    3    3    0    0  0.27825278027E+03  0.15400254221E+02  0.64533419215E+03  0.70293598365E+03  0.99999687468E+00 0.  0.
          4    1    3    3  501    0  0.26703956949E+03 -0.42024905343E+03  0.16871643760E+04  0.17591029049E+04  0.00000000000E+00 0.  1.
   -9000007    1    1    2    0  503 -0.54529234976E+03  0.40484879921E+03 -0.84580809224E+03  0.11561304536E+04  0.40000000000E+03 0.  1.
<mgrwt>
<rscale>  2 0.78816635E+03</rscale>
<asrwt>0</asrwt>
<pdfrwt beam="1">  1       21 0.39268152E+00 0.78819179E+03</pdfrwt>
<pdfrwt beam="2">  1       21 0.16395991E+00 0.78819179E+03</pdfrwt>
<totfact> 0.12454518E+00</totfact>
</mgrwt>
</event>
<event>
 6    1  0.8739326E-004  0.5091005E+03  0.7818608E-02  0.1011456E+00
         21   -1    0    0  501  502  0.00000000000E+00  0.00000000000E+00  0.12776183565E+04  0.12776183565E+04  0.00000000000E+00 0. -1.
         21   -1    0    0  502  503 -0.00000000000E+00 -0.00000000000E+00 -0.31058783491E+03  0.31058783491E+03  0.00000000000E+00 0.  1.
    9000007    2    1    2  501    0 -0.27917577209E+03 -0.14575400185E+03  0.95140998873E+03  0.10788660872E+04  0.39948432581E+03 0.  0.
    9000005    1    3    3    0    0  0.49684697411E+02 -0.16853599267E+03  0.39148760065E+03  0.42911128095E+03  0.99999687468E+00 0.  0.
          4    1    3    3  501    0 -0.32886046950E+03  0.22781990817E+02  0.55992238808E+03  0.64975480620E+03  0.00000000000E+00 0.  1.
   -9000007    1    1    2    0  503  0.27917577209E+03  0.14575400185E+03  0.15620532882E+02  0.50934010428E+03  0.40000000000E+03 0.  1.
<mgrwt>
<rscale>  2 0.50899922E+03</rscale>
<asrwt>0</asrwt>
<pdfrwt beam="1">  1       21 0.19655667E+00 0.50910052E+03</pdfrwt>
<pdfrwt beam="2">  1       21 0.47782745E-01 0.50910052E+03</pdfrwt>
<totfact> 0.47427446E+02</totfact>
</mgrwt>
</event>
<event>
 6    1  0.8739326E-004  0.4288138E+03  0.7818608E-02  0.1034306E+00
         21   -1    0    0  501  502  0.00000000000E+00  0.00000000000E+00  0.13973932888E+03  0.13973932888E+03  0.00000000000E+00 0. -1.
         21   -1    0    0  502  503 -0.00000000000E+00 -0.00000000000E+00 -0.16010557225E+04  0.16010557225E+04  0.00000000000E+00 0. -1.
    9000007    2    1    2  501    0 -0.43999343804E+02 -0.14555743947E+03 -0.11003587678E+04  0.11809617565E+04  0.40094680688E+03 0.  0.
    9000005    1    3    3    0    0 -0.12435250222E+03 -0.21924970114E+03 -0.10049614224E+04  0.10360899752E+04  0.99999687468E+00 0.  0.
          4    1    3    3  501    0  0.80353158421E+02  0.73692261669E+02 -0.95397345453E+02  0.14487178130E+03  0.00000000000E+00 0.  1.
   -9000007    1    1    2    0  503  0.43999343804E+02  0.14555743947E+03 -0.36095762580E+03  0.55983329489E+03  0.40000000000E+03 0. -1.
<mgrwt>
<rscale>  2 0.42859232E+03</rscale>
<asrwt>0</asrwt>
<pdfrwt beam="1">  1       21 0.21498357E-01 0.42881377E+03</pdfrwt>
<pdfrwt beam="2">  1       21 0.24631628E+00 0.42881377E+03</pdfrwt>
<totfact> 0.11745464E+03</totfact>
</mgrwt>
</event>
<event>
 6    1  0.8739326E-004  0.5335264E+03  0.7818608E-02  0.1005384E+00
         21   -1    0    0  501  502  0.00000000000E+00  0.00000000000E+00  0.19129647095E+04  0.19129647095E+04  0.00000000000E+00 0. -1.
         21   -1    0    0  502  503 -0.00000000000E+00 -0.00000000000E+00 -0.15245949231E+03  0.15245949231E+03  0.00000000000E+00 0.  1.
    9000007    2    1    2  501    0  0.33062991322E+03 -0.12360693637E+03  0.10405949362E+04  0.11693965087E+04  0.40006944268E+03 0.  0.
    9000005    1    3    3    0    0  0.31095245560E+03  0.85469893904E+02  0.66543482003E+03  0.73945995977E+03  0.99999687468E+00 0.  0.
          4    1    3    3  501    0  0.19677457616E+02 -0.20907683027E+03  0.37516011619E+03  0.42993654889E+03  0.00000000000E+00 0.  1.
   -9000007    1    1    2    0  503 -0.33062991322E+03  0.12360693637E+03  0.71991028095E+03  0.89602769313E+03  0.40000000000E+03 0. -1.
<mgrwt>
<rscale>  2 0.53351334E+03</rscale>
<asrwt>0</asrwt>
<pdfrwt beam="1">  1       21 0.29430225E+00 0.53352636E+03</pdfrwt>
<pdfrwt beam="2">  1       21 0.23455308E-01 0.53352636E+03</pdfrwt>
<totfact> 0.48169885E+02</totfact>
</mgrwt>
</event>
<event>
 6    1  0.8739326E-004  0.4061795E+03  0.7818608E-02  0.1041709E+00
         21   -1    0    0  501  502  0.00000000000E+00  0.00000000000E+00  0.70573912024E+03  0.70573912024E+03  0.00000000000E+00 0.  1.
         21   -1    0    0  502  503 -0.00000000000E+00 -0.00000000000E+00 -0.33265389928E+03  0.33265389928E+03  0.00000000000E+00 0.  1.
    9000007    2    1    2  501    0  0.66890411703E+02 -0.67842143834E+01  0.47017247221E+03  0.62132433561E+03  0.40057636433E+03 0.  0.
    9000005    1    3    3    0    0 -0.52018504691E+02 -0.18444036550E+03  0.20328753269E+03  0.27937608021E+03  0.99999687468E+00 0.  0.
          4    1    3    3  501    0  0.11890891639E+03  0.17765615112E+03  0.26688493952E+03  0.34194825540E+03  0.00000000000E+00 0.  1.
   -9000007    1    1    2    0  503 -0.66890411703E+02  0.67842143834E+01 -0.97087251254E+02  0.41706868391E+03  0.40000000000E+03 0.  1.
<mgrwt>
<rscale>  2 0.40603731E+03</rscale>
<asrwt>0</asrwt>
<pdfrwt beam="1">  1       21 0.10857525E+00 0.40617949E+03</pdfrwt>
<pdfrwt beam="2">  1       21 0.51177523E-01 0.40617949E+03</pdfrwt>
<totfact> 0.21473643E+03</totfact>
</mgrwt>
</event>
<event>
 6    1  0.8739326E-004  0.4390660E+03  0.7818608E-02  0.1031128E+00
         21   -1    0    0  501  502  0.00000000000E+00  0.00000000000E+00  0.60057363994E+03  0.60057363994E+03  0.00000000000E+00 0.  1.
         21   -1    0    0  502  503 -0.00000000000E+00 -0.00000000000E+00 -0.40864060658E+03  0.40864060658E+03  0.00000000000E+00 0. -1.
    9000007    2    1    2  501    0  0.86576889118E+02 -0.15900753510E+03  0.33074559819E+03  0.54872767548E+03  0.39866082974E+03 0.  0.
    9000005    1    3    3    0    0  0.90939231377E+02 -0.28193597372E+03  0.15536294553E+03  0.33450931514E+03  0.99999687468E+00 0.  0.
          4    1    3    3  501    0 -0.43623422591E+01  0.12292843862E+03  0.17538265266E+03  0.21421836034E+03  0.00000000000E+00 0.  1.
   -9000007    1    1    2    0  503 -0.86576889118E+02  0.15900753510E+03 -0.13881256483E+03  0.46048657103E+03  0.40000000000E+03 0. -1.
<mgrwt>
<rscale>  2 0.43876077E+03</rscale>
<asrwt>0</asrwt>
<pdfrwt beam="1">  1       21 0.92395945E-01 0.43906600E+03</pdfrwt>
<pdfrwt beam="2">  1       21 0.62867785E-01 0.43906600E+03</pdfrwt>
<totfact> 0.20069992E+03</totfact>
</mgrwt>
</event>
<event>
 6    1  0.8739326E-004  0.6582282E+03  0.7818608E-02  0.9791606E-01
         21   -1    0    0  501  502  0.00000000000E+00  0.00000000000E+00  0.24342784210E+04  0.24342784210E+04  0.00000000000E+00 0.  1.
         21   -1    0    0  502  503 -0.00000000000E+00 -0.00000000000E+00 -0.19817952401E+03  0.19817952401E+03  0.00000000000E+00 0.  1.
    9000007    2    1    2  501    0  0.46483629071E+03  0.23914772746E+03  0.15388591006E+04  0.16736004236E+04  0.39948295794E+03 0.  0.
    9000005    1    3    3    0    0  0.57333865698E+02 -0.90545791587E+02  0.48351685834E+03  0.49525272824E+03  0.99999687468E+00 0.  0.
          4    1    3    3  501    0  0.40750242501E+03  0.32969351905E+03  0.10553422423E+04  0.11783476954E+04  0.00000000000E+00 0.  1.
   -9000007    1    1    2    0  503 -0.46483629071E+03 -0.23914772746E+03  0.69723979643E+03  0.95885752144E+03  0.40000000000E+03 0.  1.
<mgrwt>
<rscale>  2 0.65814970E+03</rscale>
<asrwt>0</asrwt>
<pdfrwt beam="1">  1       21 0.37450435E+00 0.65822824E+03</pdfrwt>
<pdfrwt beam="2">  1       21 0.30489159E-01 0.65822824E+03</pdfrwt>
<totfact> 0.86829058E+01</totfact>
</mgrwt>
</event>
<event>
 6    1  0.8739326E-004  0.4062731E+03  0.7818608E-02  0.1041649E+00
         21   -1    0    0  501  502  0.00000000000E+00  0.00000000000E+00  0.59963599275E+03  0.59963599275E+03  0.00000000000E+00 0.  1.
         21   -1    0    0  502  503 -0.00000000000E+00 -0.00000000000E+00 -0.54790568188E+03  0.54790568188E+03  0.00000000000E+00 0. -1.
    9000007    2    1    2  501    0  0.45718935193E+02  0.52690261879E+02  0.43073297954E+03  0.59210535281E+03  0.40023913406E+03 0.  0.
    9000005    1    3    3    0    0  0.12247258070E+03 -0.39710911380E+02 -0.15780056485E+02  0.12971699844E+03  0.99999687468E+00 0.  0.
          4    1    3    3  501    0 -0.76753645512E+02  0.92401173259E+02  0.44651303603E+03  0.46238835437E+03  0.00000000000E+00 0.  1.
   -9000007    1    1    2    0  503 -0.45718935193E+02 -0.52690261879E+02 -0.37900266867E+03  0.55543632182E+03  0.40000000000E+03 0. -1.
<mgrwt>
<rscale>  2 0.40621421E+03</rscale>
<asrwt>0</asrwt>
<pdfrwt beam="1">  1       21 0.92251692E-01 0.40627312E+03</pdfrwt>
<pdfrwt beam="2">  1       21 0.84293181E-01 0.40627312E+03</pdfrwt>
<totfact> 0.10506876E+03</totfact>
</mgrwt>
</event>
<event>
 6    1  0.8739326E-004  0.6831916E+03  0.7818608E-02  0.9746826E-01
         21   -1    0    0  501  502  0.00000000000E+00  0.00000000000E+00  0.15943363126E+03  0.15943363126E+03  0.00000000000E+00 0.  1.
         21   -1    0    0  502  503 -0.00000000000E+00 -0.00000000000E+00 -0.36840530413E+04  0.36840530413E+04  0.00000000000E+00 0. -1.
    9000007    2    1    2  501    0  0.46792875731E+03 -0.29415028265E+03 -0.89013732605E+03  0.11220940949E+04  0.40158310219E+03 0.  0.
    9000005    1    3    3    0    0  0.12983030872E+03 -0.10313799876E+03 -0.17229341415E+02  0.16670694662E+03  0.99999687468E+00 0.  0.
          4    1    3    3  501    0  0.33809844859E+03 -0.19101228388E+03 -0.87290798463E+03  0.95538714832E+03  0.00000000000E+00 0.  1.
   -9000007    1    1    2    0  503 -0.46792875731E+03  0.29415028265E+03 -0.26344820840E+04  0.27213925776E+04  0.40000000000E+03 0. -1.
<mgrwt>
<rscale>  2 0.68295910E+03</rscale>
<asrwt>0</asrwt>
<pdfrwt beam="1">  1       21 0.24528252E-01 0.68319155E+03</pdfrwt>
<pdfrwt beam="2">  1       21 0.56677737E+00 0.68319155E+03</pdfrwt>
<totfact> 0.60380880E+00</totfact>
</mgrwt>
</event>
<event>
 6    1  0.8739326E-004  0.4510814E+03  0.7818608E-02  0.1027441E+00
         21   -1    0    0  501  502  0.00000000000E+00  0.00000000000E+00  0.89245569222E+03  0.89245569222E+03  0.00000000000E+00 0.  1.
         21   -1    0    0  502  503 -0.00000000000E+00 -0.00000000000E+00 -0.29963853046E+03  0.29963853046E+03  0.00000000000E+00 0.  1.
    9000007    2    1    2  501    0 -0.97534048307E+02  0.18428652506E+03  0.58829167934E+03  0.74099013947E+03  0.39938061158E+03 0.  0.
    9000005    1    3    3    0    0 -0.12876559036E+03 -0.99073783472E+02  0.25559280777E+03  0.30286114840E+03  0.99999687468E+00 0.  0.
          4    1    3    3  501    0  0.31231542052E+02  0.28336030853E+03  0.33269887157E+03  0.43812899107E+03  0.00000000000E+00 0.  1.
   -9000007    1    1    2    0  503  0.97534048307E+02 -0.18428652506E+03  0.45254824234E+01  0.45110408321E+03  0.40000000000E+03 0.  1.
<mgrwt>
<rscale>  2 0.45094403E+03</rscale>
<asrwt>0</asrwt>
<pdfrwt beam="1">  1       21 0.13730087E+00 0.45108138E+03</pdfrwt>
<pdfrwt beam="2">  1       21 0.46098236E-01 0.45108138E+03</pdfrwt>
<totfact> 0.14463212E+03</totfact>
</mgrwt>
</event>
<event>
 6    1  0.8739326E-004  0.4051914E+03  0.7818608E-02  0.1042042E+00
         21   -1    0    0  501  502  0.00000000000E+00  0.00000000000E+00  0.20161034411E+03  0.20161034411E+03  0.00000000000E+00 0.  1.
         21   -1    0    0  502  503 -0.00000000000E+00 -0.00000000000E+00 -0.95153190099E+03  0.95153190099E+03  0.00000000000E+00 0.  1.
    9000007    2    1    2  501    0 -0.64635351597E+02  0.15278355275E+01 -0.15497087053E+03  0.43331839016E+03  0.39946062832E+03 0.  0.
    9000005    1    3    3    0    0  0.40043108355E+02  0.13284168117E+03  0.67730070371E+02  0.15439794431E+03  0.99999687468E+00 0.  0.
          4    1    3    3  501    0 -0.10467845995E+03 -0.13131384564E+03 -0.22270094090E+03  0.27892044585E+03  0.00000000000E+00 0.  1.
   -9000007    1    1    2    0  503  0.64635351597E+02 -0.15278355275E+01 -0.59495068636E+03  0.71982385495E+03  0.40000000000E+03 0.  1.
<mgrwt>
<rscale>  2 0.40505821E+03</rscale>
<asrwt>0</asrwt>
<pdfrwt beam="1">  1       21 0.31016975E-01 0.40519139E+03</pdfrwt>
<pdfrwt beam="2">  1       21 0.14638953E+00 0.40519139E+03</pdfrwt>
<totfact> 0.27918035E+03</totfact>
</mgrwt>
</event>
<event>
 6    1  0.8739326E-004  0.4719296E+03  0.7818608E-02  0.1021429E+00
         21   -1    0    0  501  502  0.00000000000E+00  0.00000000000E+00  0.30064015795E+03  0.30064015795E+03  0.00000000000E+00 0.  1.
         21   -1    0    0  502  503 -0.00000000000E+00 -0.00000000000E+00 -0.83824164152E+03  0.83824164152E+03  0.00000000000E+00 0.  1.
    9000007    2    1    2  501    0  0.63867488015E+02  0.24072204966E+03 -0.46426628805E+03  0.66201262232E+03  0.40086327429E+03 0.  0.
    9000005    1    3    3    0    0  0.89305932411E+02 -0.23427398573E+02  0.33257791899E+02  0.98140069714E+02  0.99999687468E+00 0.  0.
          4    1    3    3  501    0 -0.25438444396E+02  0.26414944823E+03 -0.49752407995E+03  0.56387255261E+03  0.00000000000E+00 0.  1.
   -9000007    1    1    2    0  503 -0.63867488015E+02 -0.24072204966E+03 -0.73335195522E+02  0.47686917715E+03  0.40000000000E+03 0.  1.
<mgrwt>
<rscale>  2 0.47174621E+03</rscale>
<asrwt>0</asrwt>
<pdfrwt beam="1">  1       21 0.46252332E-01 0.47192958E+03</pdfrwt>
<pdfrwt beam="2">  1       21 0.12896025E+00 0.47192958E+03</pdfrwt>
<totfact> 0.16778873E+03</totfact>
</mgrwt>
</event>
<event>
 6    1  0.8739326E-004  0.4024557E+03  0.7818608E-02  0.1043086E+00
         21   -1    0    0  501  502  0.00000000000E+00  0.00000000000E+00  0.52994969709E+03  0.52994969709E+03  0.00000000000E+00 0. -1.
         21   -1    0    0  502  503 -0.00000000000E+00 -0.00000000000E+00 -0.30762371242E+03  0.30762371242E+03  0.00000000000E+00 0. -1.
    9000007    2    1    2  501    0  0.10901404640E+02 -0.20473460527E+02  0.15506358792E+03  0.43129489269E+03  0.40178671575E+03 0.  0.
    9000005    1    3    3    0    0 -0.13724231235E+03  0.12948840423E+03  0.99414484951E+02  0.21327667229E+03  0.99999687468E+00 0.  0.
          4    1    3    3  501    0  0.14814371699E+03 -0.14996186476E+03  0.55649102966E+02  0.21801822040E+03  0.00000000000E+00 0.  1.
   -9000007    1    1    2    0  503 -0.10901404640E+02  0.20473460527E+02  0.67262396745E+02  0.40627851681E+03  0.40000000000E+03 0.  1.
<mgrwt>
<rscale>  2 0.40200900E+03</rscale>
<asrwt>0</asrwt>
<pdfrwt beam="1">  1       21 0.81530722E-01 0.40245567E+03</pdfrwt>
<pdfrwt beam="2">  1       21 0.47326725E-01 0.40245567E+03</pdfrwt>
<totfact> 0.50315445E+03</totfact>
</mgrwt>
</event>
<event>
 6    1  0.8739326E-004  0.6999315E+03  0.7818608E-02  0.9717487E-01
         21   -1    0    0  501  502  0.00000000000E+00  0.00000000000E+00  0.57807109994E+03  0.57807109994E+03  0.00000000000E+00 0.  1.
         21   -1    0    0  502  503 -0.00000000000E+00 -0.00000000000E+00 -0.92403652905E+03  0.92403652905E+03  0.00000000000E+00 0. -1.
    9000007    2    1    2  501    0  0.57410719050E+03  0.17465425028E+02  0.43782632647E+02  0.70097863882E+03  0.39943713636E+03 0.  0.
    9000005    1    3    3    0    0  0.57675772016E+03  0.12623648284E+03  0.28413078552E+02  0.59109510266E+03  0.99999687468E+00 0.  0.
          4    1    3    3  501    0 -0.26505296563E+01 -0.10877105781E+03  0.15369554096E+02  0.10988353616E+03  0.00000000000E+00 0.  1.
   -9000007    1    1    2    0  503 -0.57410719050E+03 -0.17465425028E+02 -0.38974806175E+03  0.80112899017E+03  0.40000000000E+03 0. -1.
<mgrwt>
<rscale>  2 0.69985111E+03</rscale>
<asrwt>0</asrwt>
<pdfrwt beam="1">  1       21 0.88934016E-01 0.69993150E+03</pdfrwt>
<pdfrwt beam="2">  1       21 0.14215947E+00 0.69993150E+03</pdfrwt>
<totfact> 0.27862639E+02</totfact>
</mgrwt>
</event>
<event>
 6    1  0.8739326E-004  0.4249566E+03  0.7818608E-02  0.1035470E+00
         21   -1    0    0  501  502  0.00000000000E+00  0.00000000000E+00  0.63601634298E+03  0.63601634298E+03  0.00000000000E+00 0.  1.
         21   -1    0    0  502  503 -0.00000000000E+00 -0.00000000000E+00 -0.41371722003E+03  0.41371722003E+03  0.00000000000E+00 0.  1.
    9000007    2    1    2  501    0  0.73683111170E+02  0.12312147273E+03  0.40516198082E+03  0.58710312442E+03  0.39993218186E+03 0.  0.
    9000005    1    3    3    0    0  0.48899834384E+02  0.10055192039E+03 -0.55770850697E+02  0.12495307231E+03  0.99999687468E+00 0.  0.
          4    1    3    3  501    0  0.24783276786E+02  0.22569552341E+02  0.46093283151E+03  0.46215005211E+03  0.00000000000E+00 0.  1.
   -9000007    1    1    2    0  503 -0.73683111170E+02 -0.12312147273E+03 -0.18286285786E+03  0.46263043859E+03  0.40000000000E+03 0.  1.
<mgrwt>
<rscale>  2 0.42494062E+03</rscale>
<asrwt>0</asrwt>
<pdfrwt beam="1">  1       21 0.97848668E-01 0.42495658E+03</pdfrwt>
<pdfrwt beam="2">  1       21 0.63648803E-01 0.42495658E+03</pdfrwt>
<totfact> 0.17119253E+03</totfact>
</mgrwt>
</event>
<event>
 6    1  0.8739326E-004  0.5145160E+03  0.7818608E-02  0.1010059E+00
         21   -1    0    0  501  502  0.00000000000E+00  0.00000000000E+00  0.23194118066E+03  0.23194118066E+03  0.00000000000E+00 0. -1.
         21   -1    0    0  502  503 -0.00000000000E+00 -0.00000000000E+00 -0.11470987496E+04  0.11470987496E+04  0.00000000000E+00 0.  1.
    9000007    2    1    2  501    0  0.32192494702E+03 -0.33030183382E+02 -0.40867670911E+03  0.65706380467E+03  0.39998690767E+03 0.  0.
    9000005    1    3    3    0    0  0.28726878513E+03 -0.19606897865E+03 -0.27902511913E+03  0.44589507331E+03  0.99999687468E+00 0.  0.
          4    1    3    3  501    0  0.34656161891E+02  0.16303879527E+03 -0.12965158998E+03  0.21116873136E+03  0.00000000000E+00 0.  1.
   -9000007    1    1    2    0  503 -0.32192494702E+03  0.33030183382E+02 -0.50648085979E+03  0.72197612555E+03  0.40000000000E+03 0.  1.
<mgrwt>
<rscale>  2 0.51451341E+03</rscale>
<asrwt>0</asrwt>
<pdfrwt beam="1">  1       21 0.35683259E-01 0.51451595E+03</pdfrwt>
<pdfrwt beam="2">  1       21 0.17647673E+00 0.51451595E+03</pdfrwt>
<totfact> 0.11963713E+03</totfact>
</mgrwt>
</event>
<event>
 6    1  0.8739326E-004  0.6888089E+03  0.7818608E-02  0.9737159E-01
         21   -1    0    0  501  502  0.00000000000E+00  0.00000000000E+00  0.72346897844E+03  0.72346897844E+03  0.00000000000E+00 0.  1.
         21   -1    0    0  502  503 -0.00000000000E+00 -0.00000000000E+00 -0.81942741316E+03  0.81942741316E+03  0.00000000000E+00 0.  1.
    9000007    2    1    2  501    0  0.54167784045E+02 -0.55646079545E+03  0.29806625828E+03  0.75053395913E+03  0.40233687849E+03 0.  0.
    9000005    1    3    3    0    0 -0.17193785600E+02 -0.29154485156E+03  0.36565430805E+03  0.46797232794E+03  0.99999687468E+00 0.  0.
          4    1    3    3  501    0  0.71361569645E+02 -0.26491594389E+03 -0.67588049770E+02  0.28256163119E+03  0.00000000000E+00 0.  1.
   -9000007    1    1    2    0  503 -0.54167784045E+02  0.55646079545E+03 -0.39402469299E+03  0.79236243247E+03  0.40000000000E+03 0.  1.
<mgrwt>
<rscale>  2 0.68846808E+03</rscale>
<asrwt>0</asrwt>
<pdfrwt beam="1">  1       21 0.11130292E+00 0.68880892E+03</pdfrwt>
<pdfrwt beam="2">  1       21 0.12606576E+00 0.68880892E+03</pdfrwt>
<totfact> 0.22179166E+02</totfact>
</mgrwt>
</event>
<event>
 6    1  0.8739326E-004  0.4243078E+03  0.7818608E-02  0.1035677E+00
         21   -1    0    0  501  502  0.00000000000E+00  0.00000000000E+00  0.23712831882E+03  0.23712831882E+03  0.00000000000E+00 0.  1.
         21   -1    0    0  502  503 -0.00000000000E+00 -0.00000000000E+00 -0.77992018006E+03  0.77992018006E+03  0.00000000000E+00 0.  1.
    9000007    2    1    2  501    0 -0.12370431135E+03  0.68806759998E+02 -0.35437221655E+03  0.55278662302E+03  0.39994531609E+03 0.  0.
    9000005    1    3    3    0    0  0.11618127581E+03  0.12342520490E+03 -0.20073342777E+03  0.26272947888E+03  0.99999687468E+00 0.  0.
          4    1    3    3  501    0 -0.23988558716E+03 -0.54618444903E+02 -0.15363878879E+03  0.29005714415E+03  0.00000000000E+00 0.  1.
   -9000007    1    1    2    0  503  0.12370431135E+03 -0.68806759998E+02 -0.18841964469E+03  0.46426187585E+03  0.40000000000E+03 0.  1.
<mgrwt>
<rscale>  2 0.42429493E+03</rscale>
<asrwt>0</asrwt>
<pdfrwt beam="1">  1       21 0.36481280E-01 0.42430782E+03</pdfrwt>
<pdfrwt beam="2">  1       21 0.11998772E+00 0.42430782E+03</pdfrwt>
<totfact> 0.33585960E+03</totfact>
</mgrwt>
</event>
<event>
 6    1  0.8739326E-004  0.4181024E+03  0.7818608E-02  0.1037709E+00
         21   -1    0    0  501  502  0.00000000000E+00  0.00000000000E+00  0.55222326645E+03  0.55222326645E+03  0.00000000000E+00 0. -1.
         21   -1    0    0  502  503 -0.00000000000E+00 -0.00000000000E+00 -0.34468842908E+03  0.34468842908E+03  0.00000000000E+00 0. -1.
    9000007    2    1    2  501    0  0.53880763336E+02  0.10801282979E+03  0.23241120040E+03  0.47835615383E+03  0.40029955755E+03 0.  0.
    9000005    1    3    3    0    0  0.13576631030E+02  0.23678459210E+03  0.24724540469E+03  0.34261138058E+03  0.99999687468E+00 0.  0.
          4    1    3    3  501    0  0.40304132306E+02 -0.12877176230E+03 -0.14834204294E+02  0.13574477325E+03  0.00000000000E+00 0.  1.
   -9000007    1    1    2    0  503 -0.53880763336E+02 -0.10801282979E+03 -0.24876363033E+02  0.41855554171E+03  0.40000000000E+03 0. -1.
<mgrwt>
<rscale>  2 0.41803072E+03</rscale>
<asrwt>0</asrwt>
<pdfrwt beam="1">  1       21 0.84957426E-01 0.41810243E+03</pdfrwt>
<pdfrwt beam="2">  1       21 0.53028989E-01 0.41810243E+03</pdfrwt>
<totfact> 0.35701813E+03</totfact>
</mgrwt>
</event>
<event>
 6    1  0.8739326E-004  0.4025482E+03  0.7818608E-02  0.1042974E+00
         21   -1    0    0  501  502  0.00000000000E+00  0.00000000000E+00  0.12824265431E+04  0.12824265431E+04  0.00000000000E+00 0.  1.
         21   -1    0    0  502  503 -0.00000000000E+00 -0.00000000000E+00 -0.15741456711E+03  0.15741456711E+03  0.00000000000E+00 0.  1.
    9000007    2    1    2  501    0  0.26549650384E+02 -0.25677617672E+02  0.88411452410E+03  0.97144404970E+03  0.40085012910E+03 0.  0.
    9000005    1    3    3    0    0  0.18946663818E+03  0.46542831857E+02  0.27768647050E+03  0.33937386180E+03  0.99999687468E+00 0.  0.
          4    1    3    3  501    0 -0.16291698780E+03 -0.72220449529E+02  0.60642805360E+03  0.63207018790E+03  0.00000000000E+00 0.  1.
   -9000007    1    1    2    0  503 -0.26549650384E+02  0.25677617672E+02  0.24089745194E+03  0.46839706055E+03  0.40000000000E+03 0.  1.
<mgrwt>
<rscale>  2 0.40233639E+03</rscale>
<asrwt>0</asrwt>
<pdfrwt beam="1">  1       21 0.19729638E+00 0.40254820E+03</pdfrwt>
<pdfrwt beam="2">  1       21 0.24217627E-01 0.40254820E+03</pdfrwt>
<totfact> 0.19426839E+03</totfact>
</mgrwt>
</event>
<event>
 6    1  0.8739326E-004  0.4205872E+03  0.7818608E-02  0.1036932E+00
         21   -1    0    0  501  502  0.00000000000E+00  0.00000000000E+00  0.24931130944E+03  0.24931130944E+03  0.00000000000E+00 0. -1.
         21   -1    0    0  502  503 -0.00000000000E+00 -0.00000000000E+00 -0.73151865138E+03  0.73151865138E+03  0.00000000000E+00 0. -1.
    9000007    2    1    2  501    0  0.58962745113E+01  0.12755242302E+03 -0.15401506791E+03  0.44789980085E+03  0.40073582793E+03 0.  0.
    9000005    1    3    3    0    0  0.28805112201E+01 -0.37663357369E+02 -0.25264801103E+03  0.25545810479E+03  0.99999687468E+00 0.  0.
          4    1    3    3  501    0  0.30157632912E+01  0.16521578039E+03  0.98632943114E+02  0.19244169607E+03  0.00000000000E+00 0.  1.
   -9000007    1    1    2    0  503 -0.58962745113E+01 -0.12755242302E+03 -0.32819227402E+03  0.53293015996E+03  0.40000000000E+03 0. -1.
<mgrwt>
<rscale>  2 0.42041183E+03</rscale>
<asrwt>0</asrwt>
<pdfrwt beam="1">  1       21 0.38355586E-01 0.42058720E+03</pdfrwt>
<pdfrwt beam="2">  1       21 0.11254133E+00 0.42058720E+03</pdfrwt>
<totfact> 0.35659590E+03</totfact>
</mgrwt>
</event>
<event>
 6    1  0.8739326E-004  0.5019352E+03  0.7818608E-02  0.1013356E+00
         21   -1    0    0  501  502  0.00000000000E+00  0.00000000000E+00  0.91274809601E+03  0.91274809601E+03  0.00000000000E+00 0.  1.
         21   -1    0    0  502  503 -0.00000000000E+00 -0.00000000000E+00 -0.44668229921E+03  0.44668229921E+03  0.00000000000E+00 0.  1.
    9000007    2    1    2  501    0 -0.29337686735E+03  0.68029433596E+02  0.65418578001E+03  0.82455927222E+03  0.40154821442E+03 0.  0.
    9000005    1    3    3    0    0 -0.67077283651E+01  0.17079080437E+03  0.37199108411E+03  0.40938106836E+03  0.99999687468E+00 0.  0.
          4    1    3    3  501    0 -0.28666913898E+03 -0.10276137077E+03  0.28219469590E+03  0.41517820386E+03  0.00000000000E+00 0.  1.
   -9000007    1    1    2    0  503  0.29337686735E+03 -0.68029433596E+02 -0.18811998321E+03  0.53487112299E+03  0.40000000000E+03 0.  1.
<mgrwt>
<rscale>  2 0.50162550E+03</rscale>
<asrwt>0</asrwt>
<pdfrwt beam="1">  1       21 0.14042278E+00 0.50193521E+03</pdfrwt>
<pdfrwt beam="2">  1       21 0.68720354E-01 0.50193521E+03</pdfrwt>
<totfact> 0.56057942E+02</totfact>
</mgrwt>
</event>
<event>
 6    1  0.8739326E-004  0.4359861E+03  0.7818608E-02  0.1032017E+00
         21   -1    0    0  501  502  0.00000000000E+00  0.00000000000E+00  0.94756657052E+03  0.94756657052E+03  0.00000000000E+00 0.  1.
         21   -1    0    0  502  503 -0.00000000000E+00 -0.00000000000E+00 -0.29521246816E+03  0.29521246816E+03  0.00000000000E+00 0.  1.
    9000007    2    1    2  501    0 -0.12196977856E+03  0.12187772657E+03  0.67840190209E+03  0.80641990335E+03  0.40044114755E+03 0.  0.
    9000005    1    3    3    0    0 -0.68548566064E+02  0.57522518737E+02 -0.29013545216E+02  0.94077265431E+02  0.99999687468E+00 0.  0.
          4    1    3    3  501    0 -0.53421212492E+02  0.64355207829E+02  0.70741544730E+03  0.71234263792E+03  0.00000000000E+00 0.  1.
   -9000007    1    1    2    0  503  0.12196977856E+03 -0.12187772657E+03 -0.26047799734E+02  0.43635913533E+03  0.40000000000E+03 0.  1.
<mgrwt>
<rscale>  2 0.43588482E+03</rscale>
<asrwt>0</asrwt>
<pdfrwt beam="1">  1       21 0.14577947E+00 0.43598615E+03</pdfrwt>
<pdfrwt beam="2">  1       21 0.45417303E-01 0.43598615E+03</pdfrwt>
<totfact> 0.12797016E+03</totfact>
</mgrwt>
</event>
<event>
 6    1  0.8739326E-004  0.5937112E+03  0.7818608E-02  0.9918724E-01
         21   -1    0    0  501  502  0.00000000000E+00  0.00000000000E+00  0.73825802194E+03  0.73825802194E+03  0.00000000000E+00 0.  1.
         21   -1    0    0  502  503 -0.00000000000E+00 -0.00000000000E+00 -0.11255427262E+04  0.11255427262E+04  0.00000000000E+00 0.  1.
    9000007    2    1    2  501    0  0.14795813907E+03 -0.41303915950E+03  0.51366904832E+03  0.78481482494E+03  0.39948148900E+03 0.  0.
    9000005    1    3    3    0    0  0.22562391048E+03 -0.20436923379E+03  0.46677941444E+03  0.55727637168E+03  0.99999687468E+00 0.  0.
          4    1    3    3  501    0 -0.77665771416E+02 -0.20866992571E+03  0.46889633877E+02  0.22753845326E+03  0.00000000000E+00 0.  1.
   -9000007    1    1    2    0  503 -0.14795813907E+03  0.41303915950E+03 -0.90095375262E+03  0.10789859232E+04  0.40000000000E+03 0.  1.
<mgrwt>
<rscale>  2 0.59362385E+03</rscale>
<asrwt>0</asrwt>
<pdfrwt beam="1">  1       21 0.11357816E+00 0.59371117E+03</pdfrwt>
<pdfrwt beam="2">  1       21 0.17316042E+00 0.59371117E+03</pdfrwt>
<totfact> 0.91383842E+01</totfact>
</mgrwt>
</event>
<event>
 6    1  0.8739326E-004  0.4112549E+03  0.7818608E-02  0.1040044E+00
         21   -1    0    0  501  502  0.00000000000E+00  0.00000000000E+00  0.78193575228E+03  0.78193575228E+03  0.00000000000E+00 0. -1.
         21   -1    0    0  502  503 -0.00000000000E+00 -0.00000000000E+00 -0.27238235133E+03  0.27238235133E+03  0.00000000000E+00 0. -1.
    9000007    2    1    2  501    0  0.51591755037E+02 -0.80429620418E+02  0.49495284833E+03  0.64280405869E+03  0.39885849968E+03 0.  0.
    9000005    1    3    3    0    0  0.20361102911E+03 -0.12667621051E+03  0.22101909462E+03  0.32612076546E+03  0.99999687468E+00 0.  0.
          4    1    3    3  501    0 -0.15201927407E+03  0.46246590095E+02  0.27393375371E+03  0.31668329323E+03  0.00000000000E+00 0.  1.
   -9000007    1    1    2    0  503 -0.51591755037E+02  0.80429620418E+02  0.14600552624E+02  0.41151404492E+03  0.40000000000E+03 0.  1.
<mgrwt>
<rscale>  2 0.41097712E+03</rscale>
<asrwt>0</asrwt>
<pdfrwt beam="1">  1       21 0.12029781E+00 0.41125495E+03</pdfrwt>
<pdfrwt beam="2">  1       21 0.41904978E-01 0.41125495E+03</pdfrwt>
<totfact> 0.25240926E+03</totfact>
</mgrwt>
</event>
<event>
 6    1  0.8739326E-004  0.4464722E+03  0.7818608E-02  0.1028802E+00
         21   -1    0    0  501  502  0.00000000000E+00  0.00000000000E+00  0.85328221760E+03  0.85328221760E+03  0.00000000000E+00 0. -1.
         21   -1    0    0  502  503 -0.00000000000E+00 -0.00000000000E+00 -0.41924029646E+03  0.41924029646E+03  0.00000000000E+00 0. -1.
    9000007    2    1    2  501    0  0.17465997072E+03 -0.93975088661E+02  0.64053588700E+03  0.78061075308E+03  0.39966173526E+03 0.  0.
    9000005    1    3    3    0    0  0.27170327852E+03 -0.10067768423E+03  0.61530464653E+03  0.68011725144E+03  0.99999687468E+00 0.  0.
          4    1    3    3  501    0 -0.97043307802E+02  0.67025955740E+01  0.25231240465E+02  0.10049350164E+03  0.00000000000E+00 0.  1.
   -9000007    1    1    2    0  503 -0.17465997072E+03  0.93975088661E+02 -0.20649396586E+03  0.49191176099E+03  0.40000000000E+03 0. -1.
<mgrwt>
<rscale>  2 0.44639642E+03</rscale>
<asrwt>0</asrwt>
<pdfrwt beam="1">  1       21 0.13127419E+00 0.44647220E+03</pdfrwt>
<pdfrwt beam="2">  1       21 0.64498507E-01 0.44647220E+03</pdfrwt>
<totfact> 0.78952640E+02</totfact>
</mgrwt>
</event>
<event>
 6    1  0.8739326E-004  0.5958237E+03  0.7818608E-02  0.9914442E-01
         21   -1    0    0  501  502  0.00000000000E+00  0.00000000000E+00  0.16511426822E+04  0.16511426822E+04  0.00000000000E+00 0.  1.
         21   -1    0    0  502  503 -0.00000000000E+00 -0.00000000000E+00 -0.24558196196E+03  0.24558196196E+03  0.00000000000E+00 0.  1.
    9000007    2    1    2  501    0 -0.43203427688E+03  0.87137474243E+02  0.36722324536E+03  0.69989914830E+03  0.40094806402E+03 0.  0.
    9000005    1    3    3    0    0 -0.88843700714E+02  0.17652158274E+02  0.33640891402E+03  0.34839167509E+03  0.99999687468E+00 0.  0.
          4    1    3    3  501    0 -0.34319057616E+03  0.69485315970E+02  0.30814331342E+02  0.35150747320E+03  0.00000000000E+00 0.  1.
   -9000007    1    1    2    0  503  0.43203427688E+03 -0.87137474243E+02  0.10383374748E+04  0.11968254958E+04  0.40000000000E+03 0.  1.
<mgrwt>
<rscale>  2 0.59566426E+03</rscale>
<asrwt>0</asrwt>
<pdfrwt beam="1">  1       21 0.25402194E+00 0.59582372E+03</pdfrwt>
<pdfrwt beam="2">  1       21 0.37781841E-01 0.59582372E+03</pdfrwt>
<totfact> 0.31912563E+02</totfact>
</mgrwt>
</event>
<event>
 6    1  0.8739326E-004  0.4537818E+03  0.7818608E-02  0.1026621E+00
         21   -1    0    0  501  502  0.00000000000E+00  0.00000000000E+00  0.11272801410E+04  0.11272801410E+04  0.00000000000E+00 0.  1.
         21   -1    0    0  502  503 -0.00000000000E+00 -0.00000000000E+00 -0.18700323779E+03  0.18700323779E+03  0.00000000000E+00 0.  1.
    9000007    2    1    2  501    0 -0.69802041132E+02 -0.20259703182E+03  0.57135787530E+03  0.72945936131E+03  0.39967894101E+03 0.  0.
    9000005    1    3    3    0    0  0.25663996641E+02  0.11679823417E+03  0.13530444997E+03  0.18057896446E+03  0.99999687468E+00 0.  0.
          4    1    3    3  501    0 -0.95466037773E+02 -0.31939526599E+03  0.43605342533E+03  0.54888039685E+03  0.00000000000E+00 0.  1.
   -9000007    1    1    2    0  503  0.69802041132E+02  0.20259703182E+03  0.36891902789E+03  0.58482401745E+03  0.40000000000E+03 0.  1.
<mgrwt>
<rscale>  2 0.45371099E+03</rscale>
<asrwt>0</asrwt>
<pdfrwt beam="1">  1       21 0.17342771E+00 0.45378176E+03</pdfrwt>
<pdfrwt beam="2">  1       21 0.28769730E-01 0.45378176E+03</pdfrwt>
<totfact> 0.19847378E+03</totfact>
</mgrwt>
</event>
<event>
 6    1  0.8739326E-004  0.4271202E+03  0.7818608E-02  0.1034868E+00
         21   -1    0    0  501  502  0.00000000000E+00  0.00000000000E+00  0.88322277090E+02  0.88322277090E+02  0.00000000000E+00 0. -1.
         21   -1    0    0  502  503 -0.00000000000E+00 -0.00000000000E+00 -0.20922622991E+04  0.20922622991E+04  0.00000000000E+00 0. -1.
    9000007    2    1    2  501    0 -0.28813544788E+02  0.14697426387E+03 -0.11364338928E+04  0.12136313515E+04  0.39873225344E+03 0.  0.
    9000005    1    3    3    0    0 -0.24961058792E+02 -0.29156650634E+02 -0.97163617843E+03  0.97239448166E+03  0.99999687468E+00 0.  0.
          4    1    3    3  501    0 -0.38524859962E+01  0.17613091450E+03 -0.16479771439E+03  0.24123686981E+03  0.00000000000E+00 0.  1.
   -9000007    1    1    2    0  503  0.28813544788E+02 -0.14697426387E+03 -0.86750612920E+03  0.96695322472E+03  0.40000000000E+03 0. -1.
<mgrwt>
<rscale>  2 0.42682312E+03</rscale>
<asrwt>0</asrwt>
<pdfrwt beam="1">  1       21 0.13588045E-01 0.42712019E+03</pdfrwt>
<pdfrwt beam="2">  1       21 0.32188646E+00 0.42712019E+03</pdfrwt>
<totfact> 0.97226803E+02</totfact>
</mgrwt>
</event>
<event>
 6    1  0.8739326E-004  0.4033849E+03  0.7818608E-02  0.1042623E+00
         21   -1    0    0  501  502  0.00000000000E+00  0.00000000000E+00  0.24917379002E+03  0.24917379002E+03  0.00000000000E+00 0.  1.
         21   -1    0    0  502  503 -0.00000000000E+00 -0.00000000000E+00 -0.65822657660E+03  0.65822657660E+03  0.00000000000E+00 0.  1.
    9000007    2    1    2  501    0 -0.50667644617E+02  0.78773076239E+01 -0.24554065764E+03  0.47223892704E+03  0.40011264348E+03 0.  0.
    9000005    1    3    3    0    0  0.13403672353E+03  0.99720855024E+02 -0.20071348533E+03  0.26114554442E+03  0.99999687468E+00 0.  0.
          4    1    3    3  501    0 -0.18470436815E+03 -0.91843547400E+02 -0.44827172307E+02  0.21109338263E+03  0.00000000000E+00 0.  1.
   -9000007    1    1    2    0  503  0.50667644617E+02 -0.78773076239E+01 -0.16351212894E+03  0.43516143958E+03  0.40000000000E+03 0. -1.
<mgrwt>
<rscale>  2 0.40335698E+03</rscale>
<asrwt>0</asrwt>
<pdfrwt beam="1">  1       21 0.38334429E-01 0.40338492E+03</pdfrwt>
<pdfrwt beam="2">  1       21 0.10126563E+00 0.40338492E+03</pdfrwt>
<totfact> 0.46600008E+03</totfact>
</mgrwt>
</event>
<event>
 6    1  0.8739326E-004  0.4195966E+03  0.7818608E-02  0.1037231E+00
         21   -1    0    0  501  502  0.00000000000E+00  0.00000000000E+00  0.18827372167E+03  0.18827372167E+03  0.00000000000E+00 0. -1.
         21   -1    0    0  502  503 -0.00000000000E+00 -0.00000000000E+00 -0.93990889129E+03  0.93990889129E+03  0.00000000000E+00 0.  1.
    9000007    2    1    2  501    0  0.26555257094E+02 -0.12391969124E+03 -0.33174210881E+03  0.53457377368E+03  0.39956854380E+03 0.  0.
    9000005    1    3    3    0    0  0.21113266456E+03 -0.97200615549E+02 -0.19319450662E+03  0.30224175603E+03  0.99999687468E+00 0.  0.
          4    1    3    3  501    0 -0.18457740747E+03 -0.26719075692E+02 -0.13854760219E+03  0.23233201765E+03  0.00000000000E+00 0.  1.
   -9000007    1    1    2    0  503 -0.26555257094E+02  0.12391969124E+03 -0.41989306080E+03  0.59360883928E+03  0.40000000000E+03 0.  1.
<mgrwt>
<rscale>  2 0.41949370E+03</rscale>
<asrwt>0</asrwt>
<pdfrwt beam="1">  1       21 0.28965188E-01 0.41959656E+03</pdfrwt>
<pdfrwt beam="2">  1       21 0.14460137E+00 0.41959656E+03</pdfrwt>
<totfact> 0.32854024E+03</totfact>
</mgrwt>
</event>
<event>
 6    1  0.8739326E-004  0.4281544E+03  0.7818608E-02  0.1034526E+00
         21   -1    0    0  501  502  0.00000000000E+00  0.00000000000E+00  0.14933101788E+03  0.14933101788E+03  0.00000000000E+00 0. -1.
         21   -1    0    0  502  503 -0.00000000000E+00 -0.00000000000E+00 -0.28327968948E+04  0.28327968948E+04  0.00000000000E+00 0. -1.
    9000007    2    1    2  501    0 -0.10455442558E+03 -0.10727320785E+03 -0.21898291607E+03  0.48090512505E+03  0.40109481764E+03 0.  0.
    9000005    1    3    3    0    0  0.12647693234E+03 -0.65118890751E+02  0.22533248729E+02  0.14403343931E+03  0.99999687468E+00 0.  0.
          4    1    3    3  501    0 -0.23103135792E+03 -0.42154317099E+02 -0.24151616480E+03  0.33687168574E+03  0.00000000000E+00 0.  1.
   -9000007    1    1    2    0  503  0.10455442558E+03  0.10727320785E+03 -0.24644829609E+04  0.25012227876E+04  0.40000000000E+03 0. -1.
<mgrwt>
<rscale>  2 0.42789784E+03</rscale>
<asrwt>0</asrwt>
<pdfrwt beam="1">  1       21 0.22974004E-01 0.42815444E+03</pdfrwt>
<pdfrwt beam="2">  1       21 0.43581488E+00 0.42815444E+03</pdfrwt>
<totfact> 0.69390794E+01</totfact>
</mgrwt>
</event>
<event>
 6    1  0.8739326E-004  0.4461507E+03  0.7818608E-02  0.1029079E+00
         21   -1    0    0  501  502  0.00000000000E+00  0.00000000000E+00  0.22836668303E+03  0.22836668303E+03  0.00000000000E+00 0.  1.
         21   -1    0    0  502  503 -0.00000000000E+00 -0.00000000000E+00 -0.88395548106E+03  0.88395548106E+03  0.00000000000E+00 0. -1.
    9000007    2    1    2  501    0  0.55431810404E+02  0.18967799457E+03 -0.24840922002E+03  0.50829763149E+03  0.39699989214E+03 0.  0.
    9000005    1    3    3    0    0 -0.10469206370E+03  0.11036011561E+03 -0.28760462295E+03  0.32535703843E+03  0.99999687468E+00 0.  0.
          4    1    3    3  501    0  0.16012387410E+03  0.79317878956E+02  0.39195402933E+02  0.18294059306E+03  0.00000000000E+00 0.  1.
   -9000007    1    1    2    0  503 -0.55431810404E+02 -0.18967799457E+03 -0.40717957801E+03  0.60402453259E+03  0.40000000000E+03 0. -1.
<mgrwt>
<rscale>  2 0.44547721E+03</rscale>
<asrwt>0</asrwt>
<pdfrwt beam="1">  1       21 0.35133336E-01 0.44615068E+03</pdfrwt>
<pdfrwt beam="2">  1       21 0.13599315E+00 0.44615068E+03</pdfrwt>
<totfact> 0.26020370E+03</totfact>
</mgrwt>
</event>
<event>
 6    1  0.8739326E-004  0.5058282E+03  0.7818608E-02  0.1012282E+00
         21   -1    0    0  501  502  0.00000000000E+00  0.00000000000E+00  0.27856207228E+03  0.27856207228E+03  0.00000000000E+00 0. -1.
         21   -1    0    0  502  503 -0.00000000000E+00 -0.00000000000E+00 -0.93114612273E+03  0.93114612273E+03  0.00000000000E+00 0. -1.
    9000007    2    1    2  501    0 -0.20184863083E+03 -0.23432380850E+03 -0.39787002510E+03  0.64355472490E+03  0.40026442519E+03 0.  0.
    9000005    1    3    3    0    0 -0.28041648228E+03 -0.23320149330E+03 -0.16975531058E+03  0.40228622332E+03  0.99999687468E+00 0.  0.
          4    1    3    3  501    0  0.78567851448E+02 -0.11223152007E+01 -0.22811471452E+03  0.24126850158E+03  0.00000000000E+00 0.  1.
   -9000007    1    1    2    0  503  0.20184863083E+03  0.23432380850E+03 -0.25471402536E+03  0.56615347010E+03  0.40000000000E+03 0. -1.
<mgrwt>
<rscale>  2 0.50577585E+03</rscale>
<asrwt>0</asrwt>
<pdfrwt beam="1">  1       21 0.42855703E-01 0.50582816E+03</pdfrwt>
<pdfrwt beam="2">  1       21 0.14325325E+00 0.50582816E+03</pdfrwt>
<totfact> 0.14733529E+03</totfact>
</mgrwt>
</event>
<event>
 6    1  0.8739326E-004  0.6119323E+03  0.7818608E-02  0.9881021E-01
         21   -1    0    0  501  502  0.00000000000E+00  0.00000000000E+00  0.37949892593E+03  0.37949892593E+03  0.00000000000E+00 0. -1.
         21   -1    0    0  502  503 -0.00000000000E+00 -0.00000000000E+00 -0.10174411374E+04  0.10174411374E+04  0.00000000000E+00 0.  1.
    9000007    2    1    2  501    0 -0.46295547610E+03  0.11548897390E+02 -0.19716557934E+03  0.64278809632E+03  0.39980135218E+03 0.  0.
    9000005    1    3    3    0    0 -0.13352253469E+03  0.46184703595E+02  0.11911082025E+03  0.18479632467E+03  0.99999687468E+00 0.  0.
          4    1    3    3  501    0 -0.32943294142E+03 -0.34635806205E+02 -0.31627639959E+03  0.45799177165E+03  0.00000000000E+00 0.  1.
   -9000007    1    1    2    0  503  0.46295547610E+03 -0.11548897390E+02 -0.44077663209E+03  0.75415196697E+03  0.40000000000E+03 0. -1.
<mgrwt>
<rscale>  2 0.61189985E+03</rscale>
<asrwt>0</asrwt>
<pdfrwt beam="1">  1       21 0.58384452E-01 0.61193231E+03</pdfrwt>
<pdfrwt beam="2">  1       21 0.15652940E+00 0.61193231E+03</pdfrwt>
<totfact> 0.57554327E+02</totfact>
</mgrwt>
</event>
<event>
 6    1  0.8739326E-004  0.4934670E+03  0.7818608E-02  0.1015500E+00
         21   -1    0    0  501  502  0.00000000000E+00  0.00000000000E+00  0.26903156202E+03  0.26903156202E+03  0.00000000000E+00 0. -1.
         21   -1    0    0  502  503 -0.00000000000E+00 -0.00000000000E+00 -0.95430781793E+03  0.95430781793E+03  0.00000000000E+00 0. -1.
    9000007    2    1    2  501    0 -0.14677100797E+03  0.24887726460E+03 -0.20372619117E+03  0.53386705530E+03  0.40003506115E+03 0.  0.
    9000005    1    3    3    0    0 -0.20853422901E+03  0.31975423298E+03 -0.21670062918E+03  0.43896407240E+03  0.99999687468E+00 0.  0.
          4    1    3    3  501    0  0.61763221044E+02 -0.70876968378E+02  0.12974438016E+02  0.94902982893E+02  0.00000000000E+00 0.  1.
   -9000007    1    1    2    0  503  0.14677100797E+03 -0.24887726460E+03 -0.48155006474E+03  0.68947232466E+03  0.40000000000E+03 0. -1.
<mgrwt>
<rscale>  2 0.49345989E+03</rscale>
<asrwt>0</asrwt>
<pdfrwt beam="1">  1       21 0.41389471E-01 0.49346699E+03</pdfrwt>
<pdfrwt beam="2">  1       21 0.14681659E+00 0.49346699E+03</pdfrwt>
<totfact> 0.14890024E+03</totfact>
</mgrwt>
</event>
<event>
 6    1  0.8739326E-004  0.5219749E+03  0.7818608E-02  0.1008215E+00
         21   -1    0    0  501  502  0.00000000000E+00  0.00000000000E+00  0.41533049279E+03  0.41533049279E+03  0.00000000000E+00 0. -1.
         21   -1    0    0  502  503 -0.00000000000E+00 -0.00000000000E+00 -0.65810371216E+03  0.65810371216E+03  0.00000000000E+00 0.  1.
    9000007    2    1    2  501    0 -0.23218026578E+03 -0.24197129191E+03 -0.15413773798E+03  0.54398729497E+03  0.39963227209E+03 0.  0.
    9000005    1    3    3    0    0 -0.58485575097E+01  0.10080471523E+03  0.10374044202E+02  0.10151067444E+03  0.99999687468E+00 0.  0.
          4    1    3    3  501    0 -0.22633170827E+03 -0.34277600714E+03 -0.16451178218E+03  0.44247662053E+03  0.00000000000E+00 0.  1.
   -9000007    1    1    2    0  503  0.23218026578E+03  0.24197129191E+03 -0.88635481397E+02  0.52944690998E+03  0.40000000000E+03 0.  1.
<mgrwt>
<rscale>  2 0.52190444E+03</rscale>
<asrwt>0</asrwt>
<pdfrwt beam="1">  1       21 0.63896999E-01 0.52197489E+03</pdfrwt>
<pdfrwt beam="2">  1       21 0.10124673E+00 0.52197489E+03</pdfrwt>
<totfact> 0.15071825E+03</totfact>
</mgrwt>
</event>
<event>
 6    1  0.8739326E-004  0.5729128E+03  0.7818608E-02  0.9964037E-01
         21   -1    0    0  501  502  0.00000000000E+00  0.00000000000E+00  0.29015922093E+03  0.29015922093E+03  0.00000000000E+00 0. -1.
         21   -1    0    0  502  503 -0.00000000000E+00 -0.00000000000E+00 -0.11722665602E+04  0.11722665602E+04  0.00000000000E+00 0.  1.
    9000007    2    1    2  501    0 -0.39957621927E+03 -0.83306871096E+02 -0.58303527008E+03  0.81741005084E+03  0.40202969452E+03 0.  0.
    9000005    1    3    3    0    0 -0.19196430218E+03 -0.18476779654E+03 -0.10486844200E+03  0.28633515689E+03  0.99999687468E+00 0.  0.
          4    1    3    3  501    0 -0.20761191709E+03  0.10146092544E+03 -0.47816682808E+03  0.53107489395E+03  0.00000000000E+00 0.  1.
   -9000007    1    1    2    0  503  0.39957621927E+03  0.83306871096E+02 -0.29907206922E+03  0.64501573033E+03  0.40000000000E+03 0. -1.
<mgrwt>
<rscale>  2 0.57255684E+03</rscale>
<asrwt>0</asrwt>
<pdfrwt beam="1">  1       21 0.44639881E-01 0.57291279E+03</pdfrwt>
<pdfrwt beam="2">  1       21 0.18034870E+00 0.57291279E+03</pdfrwt>
<totfact> 0.69152693E+02</totfact>
</mgrwt>
</event>
<event>
 6    1  0.8739326E-004  0.4019449E+03  0.7818608E-02  0.1043138E+00
         21   -1    0    0  501  502  0.00000000000E+00  0.00000000000E+00  0.17266393392E+03  0.17266393392E+03  0.00000000000E+00 0.  1.
         21   -1    0    0  502  503 -0.00000000000E+00 -0.00000000000E+00 -0.10372412197E+04  0.10372412197E+04  0.00000000000E+00 0.  1.
    9000007    2    1    2  501    0  0.89819625216E+01 -0.38458430205E+02 -0.24207644209E+03  0.46891458223E+03  0.39965004079E+03 0.  0.
    9000005    1    3    3    0    0 -0.91068187569E+02  0.12530497582E+03 -0.22911847601E+03  0.27657011371E+03  0.99999687468E+00 0.  0.
          4    1    3    3  501    0  0.10005015009E+03 -0.16376340602E+03 -0.12957966077E+02  0.19234446852E+03  0.00000000000E+00 0.  1.
   -9000007    1    1    2    0  503 -0.89819625216E+01  0.38458430205E+02 -0.62250084368E+03  0.74099057139E+03  0.40000000000E+03 0.  1.
<mgrwt>
<rscale>  2 0.40185784E+03</rscale>
<asrwt>0</asrwt>
<pdfrwt beam="1">  1       21 0.26563682E-01 0.40194493E+03</pdfrwt>
<pdfrwt beam="2">  1       21 0.15957557E+00 0.40194493E+03</pdfrwt>
<totfact> 0.30002745E+03</totfact>
</mgrwt>
</event>
<event>
 6    1  0.8739326E-004  0.5453948E+03  0.7818608E-02  0.1002566E+00
         21   -1    0    0  501  502  0.00000000000E+00  0.00000000000E+00  0.24198127364E+04  0.24198127364E+04  0.00000000000E+00 0.  1.
         21   -1    0    0  502  503 -0.00000000000E+00 -0.00000000000E+00 -0.80937959264E+03  0.80937959264E+03  0.00000000000E+00 0.  1.
    9000007    2    1    2  501    0 -0.27418438842E+03  0.24955637546E+03  0.22921595278E+04  0.23561480426E+04  0.39997854263E+03 0.  0.
    9000005    1    3    3    0    0 -0.43103353250E+02 -0.61835436476E+02  0.10985064210E+04  0.11010898588E+04  0.99999687468E+00 0.  0.
          4    1    3    3  501    0 -0.23108103517E+03  0.31139181193E+03  0.11936531068E+04  0.12550581838E+04  0.00000000000E+00 0.  1.
   -9000007    1    1    2    0  503  0.27418438842E+03 -0.24955637546E+03 -0.68172638402E+03  0.87304428642E+03  0.40000000000E+03 0.  1.
<mgrwt>
<rscale>  2 0.54539084E+03</rscale>
<asrwt>0</asrwt>
<pdfrwt beam="1">  1       21 0.37227888E+00 0.54539478E+03</pdfrwt>
<pdfrwt beam="2">  1       21 0.12451994E+00 0.54539478E+03</pdfrwt>
<totfact> 0.40834670E+00</totfact>
</mgrwt>
</event>
<event>
 6    1  0.8739326E-004  0.4516984E+03  0.7818608E-02  0.1027522E+00
         21   -1    0    0  501  502  0.00000000000E+00  0.00000000000E+00  0.16084015980E+03  0.16084015980E+03  0.00000000000E+00 0. -1.
         21   -1    0    0  502  503 -0.00000000000E+00 -0.00000000000E+00 -0.15418839287E+04  0.15418839287E+04  0.00000000000E+00 0. -1.
    9000007    2    1    2  501    0  0.13499844307E+03 -0.14875853370E+03 -0.10589803098E+04  0.11512909079E+04  0.40457110263E+03 0.  0.
    9000005    1    3    3    0    0  0.72421307499E+02 -0.53497180391E+02 -0.39583622995E+01  0.90130254163E+02  0.99999687468E+00 0.  0.
          4    1    3    3  501    0  0.62577135570E+02 -0.95261353313E+02 -0.10550219475E+04  0.10611606537E+04  0.00000000000E+00 0.  1.
   -9000007    1    1    2    0  503 -0.13499844307E+03  0.14875853370E+03 -0.32206345911E+03  0.55143318061E+03  0.40000000000E+03 0.  1.
<mgrwt>
<rscale>  2 0.45067253E+03</rscale>
<asrwt>0</asrwt>
<pdfrwt beam="1">  1       21 0.24744640E-01 0.45169841E+03</pdfrwt>
<pdfrwt beam="2">  1       21 0.23721291E+00 0.45169841E+03</pdfrwt>
<totfact> 0.10079304E+03</totfact>
</mgrwt>
</event>
<event>
 6    1  0.8739326E-004  0.4414801E+03  0.7818608E-02  0.1030298E+00
         21   -1    0    0  501  502  0.00000000000E+00  0.00000000000E+00  0.21824934607E+04  0.21824934607E+04  0.00000000000E+00 0. -1.
         21   -1    0    0  502  503 -0.00000000000E+00 -0.00000000000E+00 -0.43451208997E+03  0.43451208997E+03  0.00000000000E+00 0. -1.
    9000007    2    1    2  501    0  0.18613737175E+02 -0.18589841943E+03  0.20403095480E+04  0.20875147983E+04  0.39993785521E+03 0.  0.
    9000005    1    3    3    0    0  0.11583212711E+03 -0.27471156664E+03  0.16149837983E+04  0.16422719614E+04  0.99999687468E+00 0.  0.
          4    1    3    3  501    0 -0.97218389930E+02  0.88813147212E+02  0.42532574973E+03  0.44524283694E+03  0.00000000000E+00 0.  1.
   -9000007    1    1    2    0  503 -0.18613737175E+02  0.18589841943E+03 -0.29232817729E+03  0.52949075232E+03  0.40000000000E+03 0. -1.
<mgrwt>
<rscale>  2 0.44146604E+03</rscale>
<asrwt>0</asrwt>
<pdfrwt beam="1">  1       21 0.33576822E+00 0.44148012E+03</pdfrwt>
<pdfrwt beam="2">  1       21 0.66848015E-01 0.44148012E+03</pdfrwt>
<totfact> 0.32687584E+01</totfact>
</mgrwt>
</event>
<event>
 6    1  0.8739326E-004  0.4656050E+03  0.7818608E-02  0.1023259E+00
         21   -1    0    0  501  502  0.00000000000E+00  0.00000000000E+00  0.73101564691E+03  0.73101564691E+03  0.00000000000E+00 0. -1.
         21   -1    0    0  502  503 -0.00000000000E+00 -0.00000000000E+00 -0.30238289232E+03  0.30238289232E+03  0.00000000000E+00 0. -1.
    9000007    2    1    2  501    0  0.99871906348E+02 -0.21362396345E+03  0.29112410187E+03  0.54912772139E+03  0.40147031805E+03 0.  0.
    9000005    1    3    3    0    0  0.11803508252E+03 -0.25167153156E+03  0.24349913094E+02  0.27904257518E+03  0.99999687468E+00 0.  0.
          4    1    3    3  501    0 -0.18163176171E+02  0.38047568112E+02  0.26677418877E+03  0.27008514621E+03  0.00000000000E+00 0.  1.
   -9000007    1    1    2    0  503 -0.99871906348E+02  0.21362396345E+03  0.13750865273E+03  0.48427081784E+03  0.40000000000E+03 0. -1.
<mgrwt>
<rscale>  2 0.46528787E+03</rscale>
<asrwt>0</asrwt>
<pdfrwt beam="1">  1       21 0.11246395E+00 0.46560500E+03</pdfrwt>
<pdfrwt beam="2">  1       21 0.46520445E-01 0.46560500E+03</pdfrwt>
<totfact> 0.23536895E+03</totfact>
</mgrwt>
</event>
<event>
 6    1  0.8739326E-004  0.4257596E+03  0.7818608E-02  0.1035253E+00
         21   -1    0    0  501  502  0.00000000000E+00  0.00000000000E+00  0.24453964849E+03  0.24453964849E+03  0.00000000000E+00 0. -1.
         21   -1    0    0  502  503 -0.00000000000E+00 -0.00000000000E+00 -0.81419893966E+03  0.81419893966E+03  0.00000000000E+00 0.  1.
    9000007    2    1    2  501    0  0.12148276903E+03 -0.77681508060E+02 -0.12551457857E+03  0.44387518414E+03  0.40059804017E+03 0.  0.
    9000005    1    3    3    0    0 -0.51859369886E+02  0.13482134965E+03 -0.55855538042E+01  0.14456275098E+03  0.99999687468E+00 0.  0.
          4    1    3    3  501    0  0.17334213892E+03 -0.21250285771E+03 -0.11992902477E+03  0.29931243316E+03  0.00000000000E+00 0.  1.
   -9000007    1    1    2    0  503 -0.12148276903E+03  0.77681508060E+02 -0.44414471259E+03  0.61486340401E+03  0.40000000000E+03 0.  1.
<mgrwt>
<rscale>  2 0.42561891E+03</rscale>
<asrwt>0</asrwt>
<pdfrwt beam="1">  1       21 0.37621485E-01 0.42575964E+03</pdfrwt>
<pdfrwt beam="2">  1       21 0.12526137E+00 0.42575964E+03</pdfrwt>
<totfact> 0.28246079E+03</totfact>
</mgrwt>
</event>
<event>
 6    1  0.8739326E-004  0.5112279E+03  0.7818608E-02  0.1010897E+00
         21   -1    0    0  501  502  0.00000000000E+00  0.00000000000E+00  0.51401224379E+03  0.51401224379E+03  0.00000000000E+00 0. -1.
         21   -1    0    0  502  503 -0.00000000000E+00 -0.00000000000E+00 -0.87276384550E+03  0.87276384550E+03  0.00000000000E+00 0. -1.
    9000007    2    1    2  501    0 -0.25313417009E+03 -0.19307259531E+03  0.26869037259E+03  0.57743230187E+03  0.39984948642E+03 0.  0.
    9000005    1    3    3    0    0 -0.12922896893E+03  0.59715910624E+02  0.25923339097E+03  0.29575169886E+03  0.99999687468E+00 0.  0.
          4    1    3    3  501    0 -0.12390520117E+03 -0.25278850594E+03  0.94569816177E+01  0.28168060301E+03  0.00000000000E+00 0.  1.
   -9000007    1    1    2    0  503  0.25313417009E+03  0.19307259531E+03 -0.62744197430E+03  0.80934378742E+03  0.40000000000E+03 0. -1.
<mgrwt>
<rscale>  2 0.51119843E+03</rscale>
<asrwt>0</asrwt>
<pdfrwt beam="1">  1       21 0.79078807E-01 0.51122787E+03</pdfrwt>
<pdfrwt beam="2">  1       21 0.13427136E+00 0.51122787E+03</pdfrwt>
<totfact> 0.45661755E+02</totfact>
</mgrwt>
</event>
<event>
 6    1  0.8739326E-004  0.4216164E+03  0.7818608E-02  0.1036544E+00
         21   -1    0    0  501  502  0.00000000000E+00  0.00000000000E+00  0.16844979520E+04  0.16844979520E+04  0.00000000000E+00 0. -1.
         21   -1    0    0  502  503 -0.00000000000E+00 -0.00000000000E+00 -0.15990980665E+03  0.15990980665E+03  0.00000000000E+00 0. -1.
    9000007    2    1    2  501    0 -0.57045058884E+02 -0.12032570293E+03  0.13001530747E+04  0.13668059219E+04  0.40003499466E+03 0.  0.
    9000005    1    3    3    0    0 -0.76743319363E+00 -0.27754960747E+02  0.12448709950E+04  0.12451809993E+04  0.99999687468E+00 0.  0.
          4    1    3    3  501    0 -0.56277625690E+02 -0.92570742186E+02  0.55282079682E+02  0.12162492259E+03  0.00000000000E+00 0.  1.
   -9000007    1    1    2    0  503  0.57045058884E+02  0.12032570293E+03  0.22443507066E+03  0.47760183675E+03  0.40000000000E+03 0. -1.
<mgrwt>
<rscale>  2 0.42160812E+03</rscale>
<asrwt>0</asrwt>
<pdfrwt beam="1">  1       21 0.25915352E+00 0.42161643E+03</pdfrwt>
<pdfrwt beam="2">  1       21 0.24601510E-01 0.42161643E+03</pdfrwt>
<totfact> 0.75892119E+02</totfact>
</mgrwt>
</event>
<event>
 6    1  0.8739326E-004  0.4748455E+03  0.7818608E-02  0.1020611E+00
         21   -1    0    0  501  502  0.00000000000E+00  0.00000000000E+00  0.10770144606E+03  0.10770144606E+03  0.00000000000E+00 0.  1.
         21   -1    0    0  502  503 -0.00000000000E+00 -0.00000000000E+00 -0.23039740078E+04  0.23039740078E+04  0.00000000000E+00 0.  1.
    9000007    2    1    2  501    0 -0.90311006018E+01 -0.25572777096E+03 -0.73026464129E+03  0.87068308643E+03  0.39915452781E+03 0.  0.
    9000005    1    3    3    0    0  0.11172626306E+03  0.47359190387E+02 -0.34562571561E+03  0.36631105096E+03  0.99999687468E+00 0.  0.
          4    1    3    3  501    0 -0.12075736367E+03 -0.30308696135E+03 -0.38463892568E+03  0.50437203547E+03  0.00000000000E+00 0.  1.
   -9000007    1    1    2    0  503  0.90311006018E+01  0.25572777096E+03 -0.14660079205E+04  0.15409923675E+04  0.40000000000E+03 0.  1.
<mgrwt>
<rscale>  2 0.47466741E+03</rscale>
<asrwt>0</asrwt>
<pdfrwt beam="1">  1       21 0.16569453E-01 0.47484550E+03</pdfrwt>
<pdfrwt beam="2">  1       21 0.35445755E+00 0.47484550E+03</pdfrwt>
<totfact> 0.41433710E+02</totfact>
</mgrwt>
</event>
<event>
 6    1  0.8739326E-004  0.9076357E+03  0.7818608E-02  0.9416201E-01
         21   -1    0    0  501  502  0.00000000000E+00  0.00000000000E+00  0.49750763328E+03  0.49750763328E+03  0.00000000000E+00 0.  1.
         21   -1    0    0  502  503 -0.00000000000E+00 -0.00000000000E+00 -0.23458419370E+04  0.23458419370E+04  0.00000000000E+00 0.  1.
    9000007    2    1    2  501    0  0.72504600308E+03  0.37163276759E+03 -0.15263043626E+03  0.92001542702E+03  0.39916126485E+03 0.  0.
    9000005    1    3    3    0    0  0.23599885983E+03  0.34396035041E+03 -0.81948087230E+02  0.42511254214E+03  0.99999687468E+00 0.  0.
          4    1    3    3  501    0  0.48904714325E+03  0.27672417182E+02 -0.70682349027E+02  0.49490288488E+03  0.00000000000E+00 0.  1.
   -9000007    1    1    2    0  503 -0.72504600308E+03 -0.37163276759E+03 -0.16957038675E+04  0.19233341433E+04  0.40000000000E+03 0.  1.
<mgrwt>
<rscale>  2 0.90754339E+03</rscale>
<asrwt>0</asrwt>
<pdfrwt beam="1">  1       21 0.76539635E-01 0.90763573E+03</pdfrwt>
<pdfrwt beam="2">  1       21 0.36089876E+00 0.90763573E+03</pdfrwt>
<totfact> 0.13265123E+01</totfact>
</mgrwt>
</event>
<event>
 6    1  0.8739326E-004  0.5056760E+03  0.7818608E-02  0.1012671E+00
         21   -1    0    0  501  502  0.00000000000E+00  0.00000000000E+00  0.90659409416E+03  0.90659409416E+03  0.00000000000E+00 0.  1.
         21   -1    0    0  502  503 -0.00000000000E+00 -0.00000000000E+00 -0.32975909983E+03  0.32975909983E+03  0.00000000000E+00 0.  1.
    9000007    2    1    2  501    0 -0.50008254024E+01  0.30932696287E+03  0.52973985501E+03  0.72848891059E+03  0.39289133440E+03 0.  0.
    9000005    1    3    3    0    0 -0.14580130230E+03  0.41918178960E+02  0.33825724678E+03  0.37072107907E+03  0.99999687468E+00 0.  0.
          4    1    3    3  501    0  0.14080047690E+03  0.26740878391E+03  0.19148260824E+03  0.35776783151E+03  0.00000000000E+00 0.  1.
   -9000007    1    1    2    0  503  0.50008254024E+01 -0.30932696287E+03  0.47095139319E+02  0.50786428341E+03  0.40000000000E+03 0.  1.
<mgrwt>
<rscale>  2 0.50426905E+03</rscale>
<asrwt>0</asrwt>
<pdfrwt beam="1">  1       21 0.13947601E+00 0.50567596E+03</pdfrwt>
<pdfrwt beam="2">  1       21 0.50732170E-01 0.50567596E+03</pdfrwt>
<totfact> 0.11085161E+03</totfact>
</mgrwt>
</event>
<event>
 6    1  0.8739326E-004  0.4651323E+03  0.7818608E-02  0.1023319E+00
         21   -1    0    0  501  502  0.00000000000E+00  0.00000000000E+00  0.22282158942E+03  0.22282158942E+03  0.00000000000E+00 0.  1.
         21   -1    0    0  502  503 -0.00000000000E+00 -0.00000000000E+00 -0.97083083315E+03  0.97083083315E+03  0.00000000000E+00 0.  1.
    9000007    2    1    2  501    0 -0.22543127367E+03  0.74355861822E+02 -0.38540114800E+03  0.60387900471E+03  0.39973460459E+03 0.  0.
    9000005    1    3    3    0    0 -0.17158871160E+02  0.12523783016E+03  0.35686650359E+02  0.13135249510E+03  0.99999687468E+00 0.  0.
          4    1    3    3  501    0 -0.20827240251E+03 -0.50881968334E+02 -0.42108779836E+03  0.47252650961E+03  0.00000000000E+00 0.  1.
   -9000007    1    1    2    0  503  0.22543127367E+03 -0.74355861822E+02 -0.36260809572E+03  0.58977341787E+03  0.40000000000E+03 0.  1.
<mgrwt>
<rscale>  2 0.46507523E+03</rscale>
<asrwt>0</asrwt>
<pdfrwt beam="1">  1       21 0.34280245E-01 0.46513230E+03</pdfrwt>
<pdfrwt beam="2">  1       21 0.14935859E+00 0.46513230E+03</pdfrwt>
<totfact> 0.21126073E+03</totfact>
</mgrwt>
</event>
<event>
 6    1  0.8739326E-004  0.5015563E+03  0.7818608E-02  0.1013534E+00
         21   -1    0    0  501  502  0.00000000000E+00  0.00000000000E+00  0.54620330159E+03  0.54620330159E+03  0.00000000000E+00 0. -1.
         21   -1    0    0  502  503 -0.00000000000E+00 -0.00000000000E+00 -0.46014672186E+03  0.46014672186E+03  0.00000000000E+00 0. -1.
    9000007    2    1    2  501    0  0.19189028855E+03  0.23395895706E+03  0.74792045767E+02  0.50466728890E+03  0.39690873756E+03 0.  0.
    9000005    1    3    3    0    0  0.27571891706E+03  0.18106066069E+03  0.16661631496E+03  0.36954821130E+03  0.99999687468E+00 0.  0.
          4    1    3    3  501    0 -0.83828628510E+02  0.52898296368E+02 -0.91824269197E+02  0.13511907759E+03  0.00000000000E+00 0.  1.
   -9000007    1    1    2    0  503 -0.19189028855E+03 -0.23395895706E+03  0.11264533959E+02  0.50168273456E+03  0.40000000000E+03 0. -1.
<mgrwt>
<rscale>  2 0.50093966E+03</rscale>
<asrwt>0</asrwt>
<pdfrwt beam="1">  1       21 0.84031278E-01 0.50155625E+03</pdfrwt>
<pdfrwt beam="2">  1       21 0.70791803E-01 0.50155625E+03</pdfrwt>
<totfact> 0.18828062E+03</totfact>
</mgrwt>
</event>
<event>
 6    1  0.8739326E-004  0.4310948E+03  0.7818608E-02  0.1033531E+00
         21   -1    0    0  501  502  0.00000000000E+00  0.00000000000E+00  0.21787637415E+03  0.21787637415E+03  0.00000000000E+00 0.  1.
         21   -1    0    0  502  503 -0.00000000000E+00 -0.00000000000E+00 -0.10499799723E+04  0.10499799723E+04  0.00000000000E+00 0. -1.
    9000007    2    1    2  501    0 -0.47187042508E+02 -0.15367544467E+03 -0.14109616835E+03  0.45340313888E+03  0.39977933707E+03 0.  0.
    9000005    1    3    3    0    0 -0.16066766285E+03  0.11705676442E+02  0.57591356248E+02  0.17108151582E+03  0.99999687468E+00 0.  0.
          4    1    3    3  501    0  0.11348062035E+03 -0.16538112111E+03 -0.19868752460E+03  0.28232162305E+03  0.00000000000E+00 0.  1.
   -9000007    1    1    2    0  503  0.47187042508E+02  0.15367544467E+03 -0.69100742977E+03  0.81445320754E+03  0.40000000000E+03 0. -1.
<mgrwt>
<rscale>  2 0.43104364E+03</rscale>
<asrwt>0</asrwt>
<pdfrwt beam="1">  1       21 0.33519442E-01 0.43109484E+03</pdfrwt>
<pdfrwt beam="2">  1       21 0.16153538E+00 0.43109484E+03</pdfrwt>
<totfact> 0.18060815E+03</totfact>
</mgrwt>
</event>
<event>
 6    1  0.8739326E-004  0.5255716E+03  0.7818608E-02  0.1007520E+00
         21   -1    0    0  501  502  0.00000000000E+00  0.00000000000E+00  0.21330944045E+04  0.21330944045E+04  0.00000000000E+00 0. -1.
         21   -1    0    0  502  503 -0.00000000000E+00 -0.00000000000E+00 -0.13963217452E+03  0.13963217452E+03  0.00000000000E+00 0. -1.
    9000007    2    1    2  501    0 -0.31016166091E+03 -0.12833025511E+03  0.13182474135E+04  0.14191552823E+04  0.40442126757E+03 0.  0.
    9000005    1    3    3    0    0 -0.38311745383E+03 -0.13120761493E+02  0.10586918845E+04  0.11259576565E+04  0.99999687468E+00 0.  0.
          4    1    3    3  501    0  0.72955792923E+02 -0.11520949362E+03  0.25955552898E+03  0.29319762578E+03  0.00000000000E+00 0.  1.
   -9000007    1    1    2    0  503  0.31016166091E+03  0.12833025511E+03  0.67521481644E+03  0.85357129674E+03  0.40000000000E+03 0. -1.
<mgrwt>
<rscale>  2 0.52472088E+03</rscale>
<asrwt>0</asrwt>
<pdfrwt beam="1">  1       21 0.32816835E+00 0.52557157E+03</pdfrwt>
<pdfrwt beam="2">  1       21 0.21481875E-01 0.52557157E+03</pdfrwt>
<totfact> 0.35696340E+02</totfact>
</mgrwt>
</event>
<event>
 6    1  0.8739326E-004  0.6763656E+03  0.7818608E-02  0.9758710E-01
         21   -1    0    0  501  502  0.00000000000E+00  0.00000000000E+00  0.73788670239E+03  0.73788670239E+03  0.00000000000E+00 0.  1.
         21   -1    0    0  502  503 -0.00000000000E+00 -0.00000000000E+00 -0.86645394522E+03  0.86645394522E+03  0.00000000000E+00 0.  1.
    9000007    2    1    2  501    0  0.65070606715E+02  0.54099905857E+03  0.36387278770E+03  0.76803248138E+03  0.40069479856E+03 0.  0.
    9000005    1    3    3    0    0  0.15604579800E+03  0.18715368379E+03 -0.11847001792E+02  0.24396340683E+03  0.99999687468E+00 0.  0.
          4    1    3    3  501    0 -0.90975191281E+02  0.35384537478E+03  0.37571978949E+03  0.52406907455E+03  0.00000000000E+00 0.  1.
   -9000007    1    1    2    0  503 -0.65070606715E+02 -0.54099905857E+03 -0.49244003052E+03  0.83630816623E+03  0.40000000000E+03 0.  1.
<mgrwt>
<rscale>  2 0.67626278E+03</rscale>
<asrwt>0</asrwt>
<pdfrwt beam="1">  1       21 0.11352103E+00 0.67636565E+03</pdfrwt>
<pdfrwt beam="2">  1       21 0.13330061E+00 0.67636565E+03</pdfrwt>
<totfact> 0.18301650E+02</totfact>
</mgrwt>
</event>
<event>
 6    1  0.8739326E-004  0.4522490E+03  0.7818608E-02  0.1027276E+00
         21   -1    0    0  501  502  0.00000000000E+00  0.00000000000E+00  0.73394969436E+03  0.73394969436E+03  0.00000000000E+00 0. -1.
         21   -1    0    0  502  503 -0.00000000000E+00 -0.00000000000E+00 -0.49661619725E+03  0.49661619725E+03  0.00000000000E+00 0. -1.
    9000007    2    1    2  501    0 -0.19852663265E+03 -0.49171598357E+02  0.52820877054E+03  0.69536584055E+03  0.40335899268E+03 0.  0.
    9000005    1    3    3    0    0 -0.28056738703E+03 -0.11363632674E+03  0.23220695103E+03  0.38151322588E+03  0.99999687468E+00 0.  0.
          4    1    3    3  501    0  0.82040754384E+02  0.64464728382E+02  0.29600181951E+03  0.31385261468E+03  0.00000000000E+00 0.  1.
   -9000007    1    1    2    0  503  0.19852663265E+03  0.49171598357E+02 -0.29087527344E+03  0.53520005106E+03  0.40000000000E+03 0. -1.
<mgrwt>
<rscale>  2 0.45149880E+03</rscale>
<asrwt>0</asrwt>
<pdfrwt beam="1">  1       21 0.11291534E+00 0.45224899E+03</pdfrwt>
<pdfrwt beam="2">  1       21 0.76402492E-01 0.45224899E+03</pdfrwt>
<totfact> 0.78941136E+02</totfact>
</mgrwt>
</event>
<event>
 6    1  0.8739326E-004  0.5415716E+03  0.7818608E-02  0.1003494E+00
         21   -1    0    0  501  502  0.00000000000E+00  0.00000000000E+00  0.43534792665E+03  0.43534792665E+03  0.00000000000E+00 0. -1.
         21   -1    0    0  502  503 -0.00000000000E+00 -0.00000000000E+00 -0.82603552716E+03  0.82603552716E+03  0.00000000000E+00 0.  1.
    9000007    2    1    2  501    0  0.24204497698E+03  0.27231983154E+03  0.75979299778E+02  0.54687533115E+03  0.40069428783E+03 0.  0.
    9000005    1    3    3    0    0  0.17162291894E+03  0.26802559506E+03  0.21972707032E+03  0.38674685692E+03  0.99999687468E+00 0.  0.
          4    1    3    3  501    0  0.70422058036E+02  0.42942364798E+01 -0.14374777054E+03  0.16012847423E+03  0.00000000000E+00 0.  1.
   -9000007    1    1    2    0  503 -0.24204497698E+03 -0.27231983154E+03 -0.46666690029E+03  0.71450812267E+03  0.40000000000E+03 0.  1.
<mgrwt>
<rscale>  2 0.54144316E+03</rscale>
<asrwt>0</asrwt>
<pdfrwt beam="1">  1       21 0.66976605E-01 0.54157158E+03</pdfrwt>
<pdfrwt beam="2">  1       21 0.12708239E+00 0.54157158E+03</pdfrwt>
<totfact> 0.76070857E+02</totfact>
</mgrwt>
</event>
<event>
 6    1  0.8739326E-004  0.5880725E+03  0.7818608E-02  0.9930954E-01
         21   -1    0    0  501  502  0.00000000000E+00  0.00000000000E+00  0.71146438534E+03  0.71146438534E+03  0.00000000000E+00 0. -1.
         21   -1    0    0  502  503 -0.00000000000E+00 -0.00000000000E+00 -0.73524609010E+03  0.73524609010E+03  0.00000000000E+00 0.  1.
    9000007    2    1    2  501    0  0.39750987872E+03 -0.16351231167E+03  0.40983730481E+03  0.71679553163E+03  0.40134628190E+03 0.  0.
    9000005    1    3    3    0    0  0.10524924000E+03 -0.19126409490E+03  0.35706308846E+03  0.41851452263E+03  0.99999687468E+00 0.  0.
          4    1    3    3  501    0  0.29226063872E+03  0.27751783229E+02  0.52774216353E+02  0.29828100900E+03  0.00000000000E+00 0.  1.
   -9000007    1    1    2    0  503 -0.39750987872E+03  0.16351231167E+03 -0.43361900957E+03  0.72991494382E+03  0.40000000000E+03 0. -1.
<mgrwt>
<rscale>  2 0.58784283E+03</rscale>
<asrwt>0</asrwt>
<pdfrwt beam="1">  1       21 0.10945606E+00 0.58807246E+03</pdfrwt>
<pdfrwt beam="2">  1       21 0.11311478E+00 0.58807246E+03</pdfrwt>
<totfact> 0.31572890E+02</totfact>
</mgrwt>
</event>
<event>
 6    1  0.8739326E-004  0.5216351E+03  0.7818608E-02  0.1008312E+00
         21   -1    0    0  501  502  0.00000000000E+00  0.00000000000E+00  0.44090631453E+03  0.44090631453E+03  0.00000000000E+00 0.  1.
         21   -1    0    0  502  503 -0.00000000000E+00 -0.00000000000E+00 -0.62699762709E+03  0.62699762709E+03  0.00000000000E+00 0.  1.
    9000007    2    1    2  501    0 -0.91840441747E+02 -0.32197596057E+03 -0.24080671776E+02  0.52168911789E+03  0.39934505262E+03 0.  0.
    9000005    1    3    3    0    0  0.18457128380E+02  0.91139862029E+02  0.48768674861E+01  0.93123165049E+02  0.99999687468E+00 0.  0.
          4    1    3    3  501    0 -0.11029757013E+03 -0.41311582260E+03 -0.28957539262E+02  0.42856595284E+03  0.00000000000E+00 0.  1.
   -9000007    1    1    2    0  503  0.91840441747E+02  0.32197596057E+03 -0.16201064079E+03  0.54621482372E+03  0.40000000000E+03 0.  1.
<mgrwt>
<rscale>  2 0.52150955E+03</rscale>
<asrwt>0</asrwt>
<pdfrwt beam="1">  1       21 0.67831741E-01 0.52163511E+03</pdfrwt>
<pdfrwt beam="2">  1       21 0.96461173E-01 0.52163511E+03</pdfrwt>
<totfact> 0.14836642E+03</totfact>
</mgrwt>
</event>
<event>
 6    1  0.8739326E-004  0.6968021E+03  0.7818608E-02  0.9722727E-01
         21   -1    0    0  501  502  0.00000000000E+00  0.00000000000E+00  0.10805020295E+04  0.10805020295E+04  0.00000000000E+00 0.  1.
         21   -1    0    0  502  503 -0.00000000000E+00 -0.00000000000E+00 -0.67803126651E+03  0.67803126651E+03  0.00000000000E+00 0. -1.
    9000007    2    1    2  501    0 -0.21752933425E+03  0.52746007974E+03  0.71187575981E+03  0.99612618753E+03  0.39995891927E+03 0.  0.
    9000005    1    3    3    0    0  0.86906493020E+02 -0.97746001426E+00  0.87966829305E+02  0.12366429157E+03  0.99999687468E+00 0.  0.
          4    1    3    3  501    0 -0.30443582727E+03  0.52843753976E+03  0.62390893050E+03  0.87246189596E+03  0.00000000000E+00 0.  1.
   -9000007    1    1    2    0  503  0.21752933425E+03 -0.52746007974E+03 -0.30940499683E+03  0.76240710847E+03  0.40000000000E+03 0. -1.
<mgrwt>
<rscale>  2 0.69679619E+03</rscale>
<asrwt>0</asrwt>
<pdfrwt beam="1">  1       21 0.16623108E+00 0.69680209E+03</pdfrwt>
<pdfrwt beam="2">  1       21 0.10431250E+00 0.69680209E+03</pdfrwt>
<totfact> 0.12235860E+02</totfact>
</mgrwt>
</event>
<event>
 6    1  0.8739326E-004  0.4637868E+03  0.7818608E-02  0.1023817E+00
         21   -1    0    0  501  502  0.00000000000E+00  0.00000000000E+00  0.54904970629E+03  0.54904970629E+03  0.00000000000E+00 0. -1.
         21   -1    0    0  502  503 -0.00000000000E+00 -0.00000000000E+00 -0.41199666416E+03  0.41199666416E+03  0.00000000000E+00 0. -1.
    9000007    2    1    2  501    0  0.22542845791E+03 -0.51289588057E+02  0.17902231981E+03  0.49713901790E+03  0.40205671322E+03 0.  0.
    9000005    1    3    3    0    0 -0.69376390469E+02 -0.84628277244E+02  0.16768868501E+03  0.20023866744E+03  0.99999687468E+00 0.  0.
          4    1    3    3  501    0  0.29480484838E+03  0.33338689187E+02  0.11333634804E+02  0.29690035046E+03  0.00000000000E+00 0.  1.
   -9000007    1    1    2    0  503 -0.22542845791E+03  0.51289588057E+02 -0.41969277682E+02  0.46390735255E+03  0.40000000000E+03 0. -1.
<mgrwt>
<rscale>  2 0.46334072E+03</rscale>
<asrwt>0</asrwt>
<pdfrwt beam="1">  1       21 0.84469185E-01 0.46378682E+03</pdfrwt>
<pdfrwt beam="2">  1       21 0.63384102E-01 0.46378682E+03</pdfrwt>
<totfact> 0.24134083E+03</totfact>
</mgrwt>
</event>
<event>
 6    1  0.8739326E-004  0.5528051E+03  0.7818608E-02  0.1000879E+00
         21   -1    0    0  501  502  0.00000000000E+00  0.00000000000E+00  0.22198683925E+03  0.22198683925E+03  0.00000000000E+00 0. -1.
         21   -1    0    0  502  503 -0.00000000000E+00 -0.00000000000E+00 -0.13794336962E+04  0.13794336962E+04  0.00000000000E+00 0.  1.
    9000007    2    1    2  501    0  0.35539972000E+03 -0.13886886499E+03 -0.62263805674E+03  0.83225606969E+03  0.39922236057E+03 0.  0.
    9000005    1    3    3    0    0  0.44586466987E+02  0.65440395389E+02  0.27003796545E+02  0.83669608632E+02  0.99999687468E+00 0.  0.
          4    1    3    3  501    0  0.31081325301E+03 -0.20430926038E+03 -0.64964185329E+03  0.74858646105E+03  0.00000000000E+00 0.  1.
   -9000007    1    1    2    0  503 -0.35539972000E+03  0.13886886499E+03 -0.53480880025E+03  0.76916446581E+03  0.40000000000E+03 0. -1.
<mgrwt>
<rscale>  2 0.55266448E+03</rscale>
<asrwt>0</asrwt>
<pdfrwt beam="1">  1       21 0.34151821E-01 0.55280514E+03</pdfrwt>
<pdfrwt beam="2">  1       21 0.21222057E+00 0.55280514E+03</pdfrwt>
<totfact> 0.73495553E+02</totfact>
</mgrwt>
</event>
<event>
 6    1  0.8739326E-004  0.4237173E+03  0.7818608E-02  0.1035888E+00
         21   -1    0    0  501  502  0.00000000000E+00  0.00000000000E+00  0.29234229093E+03  0.29234229093E+03  0.00000000000E+00 0.  1.
         21   -1    0    0  502  503 -0.00000000000E+00 -0.00000000000E+00 -0.10072855936E+04  0.10072855936E+04  0.00000000000E+00 0.  1.
    9000007    2    1    2  501    0 -0.13883299050E+03  0.14417842748E+01  0.48649438498E+02  0.42650100235E+03  0.40032444236E+03 0.  0.
    9000005    1    3    3    0    0  0.93658628015E+02  0.87637929601E+02 -0.75876714118E+02  0.14903228189E+03  0.99999687468E+00 0.  0.
          4    1    3    3  501    0 -0.23249161852E+03 -0.86196145326E+02  0.12452615262E+03  0.27746872046E+03  0.00000000000E+00 0.  1.
   -9000007    1    1    2    0  503  0.13883299050E+03 -0.14417842748E+01 -0.76359274114E+03  0.87312688214E+03  0.40000000000E+03 0.  1.
<mgrwt>
<rscale>  2 0.42364063E+03</rscale>
<asrwt>0</asrwt>
<pdfrwt beam="1">  1       21 0.44975737E-01 0.42371728E+03</pdfrwt>
<pdfrwt beam="2">  1       21 0.15496701E+00 0.42371728E+03</pdfrwt>
<totfact> 0.11125837E+03</totfact>
</mgrwt>
</event>
<event>
 6    1  0.8739326E-004  0.4187758E+03  0.7818608E-02  0.1037467E+00
         21   -1    0    0  501  502  0.00000000000E+00  0.00000000000E+00  0.82658729702E+03  0.82658729702E+03  0.00000000000E+00 0. -1.
         21   -1    0    0  502  503 -0.00000000000E+00 -0.00000000000E+00 -0.42496731969E+03  0.42496731969E+03  0.00000000000E+00 0. -1.
    9000007    2    1    2  501    0  0.22240672054E+00  0.12398828034E+03  0.64363844207E+03  0.76787488755E+03  0.39998531935E+03 0.  0.
    9000005    1    3    3    0    0  0.24211473802E+02  0.26182966738E+03  0.51294868871E+03  0.57641853494E+03  0.99999687468E+00 0.  0.
          4    1    3    3  501    0 -0.23989067081E+02 -0.13784138704E+03  0.13068975336E+03  0.19145635261E+03  0.00000000000E+00 0.  1.
   -9000007    1    1    2    0  503 -0.22240672054E+00 -0.12398828034E+03 -0.24201846473E+03  0.48367972916E+03  0.40000000000E+03 0. -1.
<mgrwt>
<rscale>  2 0.41877226E+03</rscale>
<asrwt>0</asrwt>
<pdfrwt beam="1">  1       21 0.12716728E+00 0.41877577E+03</pdfrwt>
<pdfrwt beam="2">  1       21 0.65379588E-01 0.41877577E+03</pdfrwt>
<totfact> 0.84214333E+02</totfact>
</mgrwt>
</event>
<event>
 6    1  0.8739326E-004  0.5589530E+03  0.7818608E-02  0.9994494E-01
         21   -1    0    0  501  502  0.00000000000E+00  0.00000000000E+00  0.50218311419E+03  0.50218311419E+03  0.00000000000E+00 0.  1.
         21   -1    0    0  502  503 -0.00000000000E+00 -0.00000000000E+00 -0.10221468918E+04  0.10221468918E+04  0.00000000000E+00 0.  1.
    9000007    2    1    2  501    0  0.14017378755E+03  0.36438950681E+03  0.21690251195E+03  0.59945145608E+03  0.39983364681E+03 0.  0.
    9000005    1    3    3    0    0 -0.90115493307E+02  0.43711409527E+02  0.17604185792E+03  0.20254190971E+03  0.99999687468E+00 0.  0.
          4    1    3    3  501    0  0.23028928085E+03  0.32067809728E+03  0.40860654031E+02  0.39690954637E+03  0.00000000000E+00 0.  1.
   -9000007    1    1    2    0  503 -0.14017378755E+03 -0.36438950681E+03 -0.73686628953E+03  0.92487854988E+03  0.40000000000E+03 0.  1.
<mgrwt>
<rscale>  2 0.55892319E+03</rscale>
<asrwt>0</asrwt>
<pdfrwt beam="1">  1       21 0.77258942E-01 0.55895295E+03</pdfrwt>
<pdfrwt beam="2">  1       21 0.15725337E+00 0.55895295E+03</pdfrwt>
<totfact> 0.30837785E+02</totfact>
</mgrwt>
</event>
<event>
 6    1  0.8739326E-004  0.4076866E+03  0.7818608E-02  0.1041281E+00
         21   -1    0    0  501  502  0.00000000000E+00  0.00000000000E+00  0.97001243721E+03  0.97001243721E+03  0.00000000000E+00 0.  1.
         21   -1    0    0  502  503 -0.00000000000E+00 -0.00000000000E+00 -0.21486344236E+03  0.21486344236E+03  0.00000000000E+00 0.  1.
    9000007    2    1    2  501    0 -0.29040992558E+02  0.73246087323E+02  0.64560482355E+03  0.76272863745E+03  0.39842316404E+03 0.  0.
    9000005    1    3    3    0    0  0.13881999076E+03 -0.59814774315E+01  0.52088695847E+03  0.53910202319E+03  0.99999687468E+00 0.  0.
          4    1    3    3  501    0 -0.16786098332E+03  0.79227564754E+02  0.12471786508E+03  0.22362661427E+03  0.00000000000E+00 0.  1.
   -9000007    1    1    2    0  503  0.29040992558E+02 -0.73246087323E+02  0.10954417130E+03  0.42214724211E+03  0.40000000000E+03 0.  1.
<mgrwt>
<rscale>  2 0.40729931E+03</rscale>
<asrwt>0</asrwt>
<pdfrwt beam="1">  1       21 0.14923268E+00 0.40768661E+03</pdfrwt>
<pdfrwt beam="2">  1       21 0.33055915E-01 0.40768661E+03</pdfrwt>
<totfact> 0.23316664E+03</totfact>
</mgrwt>
</event>
<event>
 6    1  0.8739326E-004  0.4104157E+03  0.7818608E-02  0.1040300E+00
         21   -1    0    0  501  502  0.00000000000E+00  0.00000000000E+00  0.14127475046E+04  0.14127475046E+04  0.00000000000E+00 0.  1.
         21   -1    0    0  502  503 -0.00000000000E+00 -0.00000000000E+00 -0.19656710604E+03  0.19656710604E+03  0.00000000000E+00 0.  1.
    9000007    2    1    2  501    0 -0.20875541483E+02 -0.89471963174E+02  0.11132158147E+04  0.11861802042E+04  0.39916538698E+03 0.  0.
    9000005    1    3    3    0    0  0.12275859052E+03  0.10910224719E+03  0.46864236817E+03  0.49658799937E+03  0.99999687468E+00 0.  0.
          4    1    3    3  501    0 -0.14363413200E+03 -0.19857421036E+03  0.64457344656E+03  0.68959220479E+03  0.00000000000E+00 0.  1.
   -9000007    1    1    2    0  503  0.20875541483E+02  0.89471963174E+02  0.10296458384E+03  0.42313440648E+03  0.40000000000E+03 0.  1.
<mgrwt>
<rscale>  2 0.41021217E+03</rscale>
<asrwt>0</asrwt>
<pdfrwt beam="1">  1       21 0.21734576E+00 0.41041567E+03</pdfrwt>
<pdfrwt beam="2">  1       21 0.30241094E-01 0.41041567E+03</pdfrwt>
<totfact> 0.92607799E+02</totfact>
</mgrwt>
</event>
<event>
 6    1  0.8739326E-004  0.6223013E+03  0.7818608E-02  0.9860233E-01
         21   -1    0    0  501  502  0.00000000000E+00  0.00000000000E+00  0.20625107661E+04  0.20625107661E+04  0.00000000000E+00 0. -1.
         21   -1    0    0  502  503 -0.00000000000E+00 -0.00000000000E+00 -0.26205520017E+03  0.26205520017E+03  0.00000000000E+00 0. -1.
    9000007    2    1    2  501    0  0.37374335202E+03 -0.29593046237E+03  0.28120838674E+03  0.68280748123E+03  0.39986118581E+03 0.  0.
    9000005    1    3    3    0    0  0.75709991297E+02  0.40741816416E+02 -0.71112358748E+02  0.11157896732E+03  0.99999687468E+00 0.  0.
          4    1    3    3  501    0  0.29803336072E+03 -0.33667227878E+03  0.35232074549E+03  0.57122851391E+03  0.00000000000E+00 0.  1.
   -9000007    1    1    2    0  503 -0.37374335202E+03  0.29593046237E+03  0.15192471792E+04  0.16417584851E+04  0.40000000000E+03 0. -1.
<mgrwt>
<rscale>  2 0.62227901E+03</rscale>
<asrwt>0</asrwt>
<pdfrwt beam="1">  1       21 0.31730934E+00 0.62230132E+03</pdfrwt>
<pdfrwt beam="2">  1       21 0.40316186E-01 0.62230132E+03</pdfrwt>
<totfact> 0.11311933E+02</totfact>
</mgrwt>
</event>
<event>
 6    1  0.8739326E-004  0.4636615E+03  0.7818608E-02  0.1023818E+00
         21   -1    0    0  501  502  0.00000000000E+00  0.00000000000E+00  0.27636627595E+03  0.27636627595E+03  0.00000000000E+00 0.  1.
         21   -1    0    0  502  503 -0.00000000000E+00 -0.00000000000E+00 -0.78691717748E+03  0.78691717748E+03  0.00000000000E+00 0.  1.
    9000007    2    1    2  501    0  0.14260796535E+03  0.18286177642E+03 -0.31909339056E+03  0.56285219984E+03  0.40150534979E+03 0.  0.
    9000005    1    3    3    0    0 -0.27431755445E+02 -0.11461643089E+03 -0.54048160975E+02  0.12965967429E+03  0.99999687468E+00 0.  0.
          4    1    3    3  501    0  0.17003972079E+03  0.29747820731E+03 -0.26504522958E+03  0.43319252555E+03  0.00000000000E+00 0.  1.
   -9000007    1    1    2    0  503 -0.14260796535E+03 -0.18286177642E+03 -0.19145751097E+03  0.50043125358E+03  0.40000000000E+03 0.  1.
<mgrwt>
<rscale>  2 0.46333544E+03</rscale>
<asrwt>0</asrwt>
<pdfrwt beam="1">  1       21 0.42517890E-01 0.46366152E+03</pdfrwt>
<pdfrwt beam="2">  1       21 0.12106418E+00 0.46366152E+03</pdfrwt>
<totfact> 0.23617855E+03</totfact>
</mgrwt>
</event>
<event>
 6    1  0.8739326E-004  0.4443394E+03  0.7818608E-02  0.1029446E+00
         21   -1    0    0  501  502  0.00000000000E+00  0.00000000000E+00  0.17879143755E+03  0.17879143755E+03  0.00000000000E+00 0.  1.
         21   -1    0    0  502  503 -0.00000000000E+00 -0.00000000000E+00 -0.12575946018E+04  0.12575946018E+04  0.00000000000E+00 0.  1.
    9000007    2    1    2  501    0 -0.78222119689E+02 -0.17697111179E+03 -0.28789123037E+03  0.52920405013E+03  0.39967248058E+03 0.  0.
    9000005    1    3    3    0    0  0.26068261395E+02 -0.13240599184E+02 -0.32939597385E+03  0.33069256917E+03  0.99999687468E+00 0.  0.
          4    1    3    3  501    0 -0.10429038108E+03 -0.16373051260E+03  0.41504743479E+02  0.19851148096E+03  0.00000000000E+00 0.  1.
   -9000007    1    1    2    0  503  0.78222119689E+02  0.17697111179E+03 -0.79091193385E+03  0.90718198919E+03  0.40000000000E+03 0.  1.
<mgrwt>
<rscale>  2 0.44426565E+03</rscale>
<asrwt>0</asrwt>
<pdfrwt beam="1">  1       21 0.27506375E-01 0.44433937E+03</pdfrwt>
<pdfrwt beam="2">  1       21 0.19347609E+00 0.44433937E+03</pdfrwt>
<totfact> 0.15775588E+03</totfact>
</mgrwt>
</event>
<event>
 6    1  0.8739326E-004  0.4055109E+03  0.7818608E-02  0.1041978E+00
         21   -1    0    0  501  502  0.00000000000E+00  0.00000000000E+00  0.20009545725E+03  0.20009545725E+03  0.00000000000E+00 0.  1.
         21   -1    0    0  502  503 -0.00000000000E+00 -0.00000000000E+00 -0.82599358405E+03  0.82599358405E+03  0.00000000000E+00 0.  1.
    9000007    2    1    2  501    0  0.66343327380E+02 -0.61393226477E+01 -0.26763574111E+03  0.48498732685E+03  0.39892942850E+03 0.  0.
    9000005    1    3    3    0    0  0.15069917500E+03  0.73137368544E+02 -0.31747125185E+03  0.35895447033E+03  0.99999687468E+00 0.  0.
          4    1    3    3  501    0 -0.84355847616E+02 -0.79276691192E+02  0.49835510743E+02  0.12603285653E+03  0.00000000000E+00 0.  1.
   -9000007    1    1    2    0  503 -0.66343327380E+02  0.61393226477E+01 -0.35826238570E+03  0.54110171445E+03  0.40000000000E+03 0. -1.
<mgrwt>
<rscale>  2 0.40524669E+03</rscale>
<asrwt>0</asrwt>
<pdfrwt beam="1">  1       21 0.30783917E-01 0.40551095E+03</pdfrwt>
<pdfrwt beam="2">  1       21 0.12707593E+00 0.40551095E+03</pdfrwt>
<totfact> 0.41090917E+03</totfact>
</mgrwt>
</event>
<event>
 6    1  0.8739326E-004  0.6312848E+03  0.7818608E-02  0.9842606E-01
         21   -1    0    0  501  502  0.00000000000E+00  0.00000000000E+00  0.12889751043E+04  0.12889751043E+04  0.00000000000E+00 0. -1.
         21   -1    0    0  502  503 -0.00000000000E+00 -0.00000000000E+00 -0.31184822905E+03  0.31184822905E+03  0.00000000000E+00 0. -1.
    9000007    2    1    2  501    0  0.46685216644E+03  0.14342082935E+03  0.41358228301E+03  0.75459464849E+03  0.39980282529E+03 0.  0.
    9000005    1    3    3    0    0  0.52862256959E+03  0.98935390095E+02  0.41363543373E+03  0.67847277361E+03  0.99999687468E+00 0.  0.
          4    1    3    3  501    0 -0.61770403150E+02  0.44485439255E+02 -0.53150720415E-01  0.76121874886E+02  0.00000000000E+00 0.  1.
   -9000007    1    1    2    0  503 -0.46685216644E+03 -0.14342082935E+03  0.56354459220E+03  0.84622868481E+03  0.40000000000E+03 0. -1.
<mgrwt>
<rscale>  2 0.63125355E+03</rscale>
<asrwt>0</asrwt>
<pdfrwt beam="1">  1       21 0.19830386E+00 0.63128478E+03</pdfrwt>
<pdfrwt beam="2">  1       21 0.47976651E-01 0.63128478E+03</pdfrwt>
<totfact> 0.43664561E+02</totfact>
</mgrwt>
</event>
<event>
 6    1  0.8739326E-004  0.5029446E+03  0.7818608E-02  0.1013089E+00
         21   -1    0    0  501  502  0.00000000000E+00  0.00000000000E+00  0.93912840580E+03  0.93912840580E+03  0.00000000000E+00 0. -1.
         21   -1    0    0  502  503 -0.00000000000E+00 -0.00000000000E+00 -0.36815364108E+03  0.36815364108E+03  0.00000000000E+00 0. -1.
    9000007    2    1    2  501    0  0.26782463872E+03  0.14568181328E+03  0.62493616908E+03  0.80145098716E+03  0.39852884660E+03 0.  0.
    9000005    1    3    3    0    0  0.26680173398E+03 -0.78068506474E+02  0.34174861516E+03  0.44053487139E+03  0.99999687468E+00 0.  0.
          4    1    3    3  501    0  0.10229047383E+01  0.22375031975E+03  0.28318755392E+03  0.36091611577E+03  0.00000000000E+00 0.  1.
   -9000007    1    1    2    0  503 -0.26782463872E+03 -0.14568181328E+03 -0.53961404359E+02  0.50583105973E+03  0.40000000000E+03 0. -1.
<mgrwt>
<rscale>  2 0.50265199E+03</rscale>
<asrwt>0</asrwt>
<pdfrwt beam="1">  1       21 0.14448129E+00 0.50294456E+03</pdfrwt>
<pdfrwt beam="2">  1       21 0.56639022E-01 0.50294456E+03</pdfrwt>
<totfact> 0.79616801E+02</totfact>
</mgrwt>
</event>
<event>
 6    1  0.8739326E-004  0.4465140E+03  0.7818608E-02  0.1028790E+00
         21   -1    0    0  501  502  0.00000000000E+00  0.00000000000E+00  0.42043967023E+03  0.42043967023E+03  0.00000000000E+00 0.  1.
         21   -1    0    0  502  503 -0.00000000000E+00 -0.00000000000E+00 -0.48239524525E+03  0.48239524525E+03  0.00000000000E+00 0. -1.
    9000007    2    1    2  501    0 -0.59350600443E+02 -0.18934687818E+03  0.28997827132E+02  0.44715163138E+03  0.39966107318E+03 0.  0.
    9000005    1    3    3    0    0  0.61203409264E+02 -0.28023928399E+03 -0.22259335511E+02  0.28770886606E+03  0.99999687468E+00 0.  0.
          4    1    3    3  501    0 -0.12055400971E+03  0.90892405809E+02  0.51257162643E+02  0.15944276532E+03  0.00000000000E+00 0.  1.
   -9000007    1    1    2    0  503  0.59350600443E+02  0.18934687818E+03 -0.90953402153E+02  0.45568328411E+03  0.40000000000E+03 0.  1.
<mgrwt>
<rscale>  2 0.44643806E+03</rscale>
<asrwt>0</asrwt>
<pdfrwt beam="1">  1       21 0.64683026E-01 0.44651398E+03</pdfrwt>
<pdfrwt beam="2">  1       21 0.74214653E-01 0.44651398E+03</pdfrwt>
<totfact> 0.31289861E+03</totfact>
</mgrwt>
</event>
<event>
 6    1  0.8739326E-004  0.5520366E+03  0.7818608E-02  0.1001026E+00
         21   -1    0    0  501  502  0.00000000000E+00  0.00000000000E+00  0.15659077200E+04  0.15659077200E+04  0.00000000000E+00 0.  1.
         21   -1    0    0  502  503 -0.00000000000E+00 -0.00000000000E+00 -0.41343612199E+03  0.41343612199E+03  0.00000000000E+00 0.  1.
    9000007    2    1    2  501    0  0.38010914792E+03  0.14515196790E+02  0.12962773262E+04  0.14089284296E+04  0.40006344240E+03 0.  0.
    9000005    1    3    3    0    0  0.10855592128E+03 -0.14438347586E+03  0.20515681145E+03  0.27335195888E+03  0.99999687468E+00 0.  0.
          4    1    3    3  501    0  0.27155322665E+03  0.15889867265E+03  0.10911205148E+04  0.11355764707E+04  0.00000000000E+00 0.  1.
   -9000007    1    1    2    0  503 -0.38010914792E+03 -0.14515196790E+02 -0.14380572819E+03  0.57041541243E+03  0.40000000000E+03 0.  1.
<mgrwt>
<rscale>  2 0.55202511E+03</rscale>
<asrwt>0</asrwt>
<pdfrwt beam="1">  1       21 0.24090888E+00 0.55203660E+03</pdfrwt>
<pdfrwt beam="2">  1       21 0.63605558E-01 0.55203660E+03</pdfrwt>
<totfact> 0.12915006E+02</totfact>
</mgrwt>
</event>
<event>
 6    1  0.8739326E-004  0.4807191E+03  0.7818608E-02  0.1019124E+00
         21   -1    0    0  501  502  0.00000000000E+00  0.00000000000E+00  0.11564753609E+04  0.11564753609E+04  0.00000000000E+00 0. -1.
         21   -1    0    0  502  503 -0.00000000000E+00 -0.00000000000E+00 -0.20429407906E+03  0.20429407906E+03  0.00000000000E+00 0. -1.
    9000007    2    1    2  501    0 -0.24126011672E+03 -0.11350951924E+03  0.36219771745E+03  0.59973628618E+03  0.39674371017E+03 0.  0.
    9000005    1    3    3    0    0 -0.25595502016E+03 -0.21840341130E+03  0.36144099511E+03  0.49381536565E+03  0.99999687468E+00 0.  0.
          4    1    3    3  501    0  0.14694903434E+02  0.10489389206E+03  0.75672233635E+00  0.10592092053E+03  0.00000000000E+00 0.  1.
   -9000007    1    1    2    0  503  0.24126011672E+03  0.11350951924E+03  0.58998356437E+03  0.76103315375E+03  0.40000000000E+03 0. -1.
<mgrwt>
<rscale>  2 0.48004114E+03</rscale>
<asrwt>0</asrwt>
<pdfrwt beam="1">  1       21 0.17791928E+00 0.48071910E+03</pdfrwt>
<pdfrwt beam="2">  1       21 0.31429859E-01 0.48071910E+03</pdfrwt>
<totfact> 0.15289913E+03</totfact>
</mgrwt>
</event>
<event>
 6    1  0.8739326E-004  0.4055035E+03  0.7818608E-02  0.1041937E+00
         21   -1    0    0  501  502  0.00000000000E+00  0.00000000000E+00  0.24563592148E+03  0.24563592148E+03  0.00000000000E+00 0.  1.
         21   -1    0    0  502  503 -0.00000000000E+00 -0.00000000000E+00 -0.67532102575E+03  0.67532102575E+03  0.00000000000E+00 0.  1.
    9000007    2    1    2  501    0 -0.49767845845E+02  0.44229695227E+02 -0.16849983040E+03  0.43861800861E+03  0.39945019741E+03 0.  0.
    9000005    1    3    3    0    0  0.16296169509E+03 -0.98789203432E+01 -0.14410329258E+03  0.21776332579E+03  0.99999687468E+00 0.  0.
          4    1    3    3  501    0 -0.21272954094E+03  0.54108615571E+02 -0.24396537826E+02  0.22085468282E+03  0.00000000000E+00 0.  1.
   -9000007    1    1    2    0  503  0.49767845845E+02 -0.44229695227E+02 -0.26118527387E+03  0.48233893862E+03  0.40000000000E+03 0.  1.
<mgrwt>
<rscale>  2 0.40536787E+03</rscale>
<asrwt>0</asrwt>
<pdfrwt beam="1">  1       21 0.37790143E-01 0.40550352E+03</pdfrwt>
<pdfrwt beam="2">  1       21 0.10389554E+00 0.40550352E+03</pdfrwt>
<totfact> 0.45030423E+03</totfact>
</mgrwt>
</event>
<event>
 6    1  0.8739326E-004  0.4047832E+03  0.7818608E-02  0.1042234E+00
         21   -1    0    0  501  502  0.00000000000E+00  0.00000000000E+00  0.22499515991E+03  0.22499515991E+03  0.00000000000E+00 0. -1.
         21   -1    0    0  502  503 -0.00000000000E+00 -0.00000000000E+00 -0.74044892063E+03  0.74044892063E+03  0.00000000000E+00 0. -1.
    9000007    2    1    2  501    0  0.43129095797E+02  0.32545680876E+02 -0.19104528778E+03  0.44760221514E+03  0.40116094123E+03 0.  0.
    9000005    1    3    3    0    0  0.44631367868E+02  0.15168317377E+03 -0.26411997896E+03  0.30783129712E+03  0.99999687468E+00 0.  0.
          4    1    3    3  501    0 -0.15022720704E+01 -0.11913749289E+03  0.73074691185E+02  0.13977091803E+03  0.00000000000E+00 0.  1.
   -9000007    1    1    2    0  503 -0.43129095797E+02 -0.32545680876E+02 -0.32440847294E+03  0.51784186540E+03  0.40000000000E+03 0. -1.
<mgrwt>
<rscale>  2 0.40449526E+03</rscale>
<asrwt>0</asrwt>
<pdfrwt beam="1">  1       21 0.34614640E-01 0.40478320E+03</pdfrwt>
<pdfrwt beam="2">  1       21 0.11391522E+00 0.40478320E+03</pdfrwt>
<totfact> 0.42872001E+03</totfact>
</mgrwt>
</event>
<event>
 6    1  0.8739326E-004  0.4032419E+03  0.7818608E-02  0.1042675E+00
         21   -1    0    0  501  502  0.00000000000E+00  0.00000000000E+00  0.35421703341E+03  0.35421703341E+03  0.00000000000E+00 0.  1.
         21   -1    0    0  502  503 -0.00000000000E+00 -0.00000000000E+00 -0.14307517677E+04  0.14307517677E+04  0.00000000000E+00 0.  1.
    9000007    2    1    2  501    0 -0.16216234430E+02 -0.48384513687E+02  0.19732513440E+03  0.44880900809E+03  0.39986033768E+03 0.  0.
    9000005    1    3    3    0    0  0.11647942380E+02 -0.20670721657E+03  0.17759282514E+02  0.20779783457E+03  0.99999687468E+00 0.  0.
          4    1    3    3  501    0 -0.27864176810E+02  0.15832270288E+03  0.17956585189E+03  0.24101117352E+03  0.00000000000E+00 0.  1.
   -9000007    1    1    2    0  503  0.16216234430E+02  0.48384513687E+02 -0.12738598686E+04  0.13361597930E+04  0.40000000000E+03 0.  1.
<mgrwt>
<rscale>  2 0.40320726E+03</rscale>
<asrwt>0</asrwt>
<pdfrwt beam="1">  1       21 0.54494928E-01 0.40324190E+03</pdfrwt>
<pdfrwt beam="2">  1       21 0.22011566E+00 0.40324190E+03</pdfrwt>
<totfact> 0.26503028E+02</totfact>
</mgrwt>
</event>
<event>
 6    1  0.8739326E-004  0.4210558E+03  0.7818608E-02  0.1037464E+00
         21   -1    0    0  501  502  0.00000000000E+00  0.00000000000E+00  0.32028457890E+03  0.32028457890E+03  0.00000000000E+00 0. -1.
         21   -1    0    0  502  503 -0.00000000000E+00 -0.00000000000E+00 -0.58973012930E+03  0.58973012930E+03  0.00000000000E+00 0. -1.
    9000007    2    1    2  501    0 -0.83932398125E+02  0.52164787887E+02 -0.62544654856E+01  0.42110228278E+03  0.40929476135E+03 0.  0.
    9000005    1    3    3    0    0 -0.19411591972E+03 -0.10478461139E+02  0.13088998331E+03  0.23435864857E+03  0.99999687468E+00 0.  0.
          4    1    3    3  501    0  0.11018352159E+03  0.62643249026E+02 -0.13714444880E+03  0.18674363420E+03  0.00000000000E+00 0.  1.
   -9000007    1    1    2    0  503  0.83932398125E+02 -0.52164787887E+02 -0.26319108492E+03  0.48891242542E+03  0.40000000000E+03 0. -1.
<mgrwt>
<rscale>  2 0.41878011E+03</rscale>
<asrwt>0</asrwt>
<pdfrwt beam="1">  1       21 0.49274551E-01 0.42105583E+03</pdfrwt>
<pdfrwt beam="2">  1       21 0.90727712E-01 0.42105583E+03</pdfrwt>
<totfact> 0.35732085E+03</totfact>
</mgrwt>
</event>
<event>
 6    1  0.8739326E-004  0.4618722E+03  0.7818608E-02  0.1024260E+00
         21   -1    0    0  501  502  0.00000000000E+00  0.00000000000E+00  0.42195751726E+03  0.42195751726E+03  0.00000000000E+00 0. -1.
         21   -1    0    0  502  503 -0.00000000000E+00 -0.00000000000E+00 -0.67330613160E+03  0.67330613160E+03  0.00000000000E+00 0. -1.
    9000007    2    1    2  501    0 -0.10906840763E+03 -0.20354353867E+03  0.14794530692E+03  0.48472165584E+03  0.39967659442E+03 0.  0.
    9000005    1    3    3    0    0 -0.21339071118E+03 -0.26501658892E+03  0.11615824821E+03  0.35953181589E+03  0.99999687468E+00 0.  0.
          4    1    3    3  501    0  0.10432230355E+03  0.61473050243E+02  0.31787058708E+02  0.12518983995E+03  0.00000000000E+00 0.  1.
   -9000007    1    1    2    0  503  0.10906840763E+03  0.20354353867E+03 -0.39929392126E+03  0.61054199302E+03  0.40000000000E+03 0. -1.
<mgrwt>
<rscale>  2 0.46180213E+03</rscale>
<asrwt>0</asrwt>
<pdfrwt beam="1">  1       21 0.64916542E-01 0.46187216E+03</pdfrwt>
<pdfrwt beam="2">  1       21 0.10358556E+00 0.46187216E+03</pdfrwt>
<totfact> 0.14057097E+03</totfact>
</mgrwt>
</event>
<event>
 6    1  0.8739326E-004  0.4166757E+03  0.7818608E-02  0.1038188E+00
         21   -1    0    0  501  502  0.00000000000E+00  0.00000000000E+00  0.62276357796E+03  0.62276357796E+03  0.00000000000E+00 0.  1.
         21   -1    0    0  502  503 -0.00000000000E+00 -0.00000000000E+00 -0.31884670225E+03  0.31884670225E+03  0.00000000000E+00 0.  1.
    9000007    2    1    2  501    0  0.11357542403E+03  0.26818823460E+02  0.31934866730E+03  0.52464893136E+03  0.39956764588E+03 0.  0.
    9000005    1    3    3    0    0 -0.71782364277E+02  0.55489011096E+02  0.32457033108E+03  0.33701429938E+03  0.99999687468E+00 0.  0.
          4    1    3    3  501    0  0.18535778831E+03 -0.28670187636E+02 -0.52216637809E+01  0.18763463198E+03  0.00000000000E+00 0.  1.
   -9000007    1    1    2    0  503 -0.11357542403E+03 -0.26818823460E+02 -0.15431791594E+02  0.41696134884E+03  0.40000000000E+03 0. -1.
<mgrwt>
<rscale>  2 0.41657189E+03</rscale>
<asrwt>0</asrwt>
<pdfrwt beam="1">  1       21 0.95809781E-01 0.41667568E+03</pdfrwt>
<pdfrwt beam="2">  1       21 0.49053339E-01 0.41667568E+03</pdfrwt>
<totfact> 0.31733473E+03</totfact>
</mgrwt>
</event>
<event>
 6    1  0.8739326E-004  0.4696968E+03  0.7818608E-02  0.1022011E+00
         21   -1    0    0  501  502  0.00000000000E+00  0.00000000000E+00  0.34506344504E+03  0.34506344504E+03  0.00000000000E+00 0.  1.
         21   -1    0    0  502  503 -0.00000000000E+00 -0.00000000000E+00 -0.77481742359E+03  0.77481742359E+03  0.00000000000E+00 0.  1.
    9000007    2    1    2  501    0  0.22462004820E+03  0.10080147835E+03  0.19354187656E+02  0.47002453908E+03  0.39991671467E+03 0.  0.
    9000005    1    3    3    0    0 -0.96677963918E+02  0.98181037773E+02  0.51518809953E+02  0.14710993392E+03  0.99999687468E+00 0.  0.
          4    1    3    3  501    0  0.32129801212E+03  0.26204405742E+01 -0.32164622297E+02  0.32291460516E+03  0.00000000000E+00 0.  1.
   -9000007    1    1    2    0  503 -0.22462004820E+03 -0.10080147835E+03 -0.44910816621E+03  0.64985632954E+03  0.40000000000E+03 0.  1.
<mgrwt>
<rscale>  2 0.46967909E+03</rscale>
<asrwt>0</asrwt>
<pdfrwt beam="1">  1       21 0.53086684E-01 0.46969682E+03</pdfrwt>
<pdfrwt beam="2">  1       21 0.11920268E+00 0.46969682E+03</pdfrwt>
<totfact> 0.15334730E+03</totfact>
</mgrwt>
</event>
