<event>
 4    1  0.1110581E+000  0.2151577E+03  0.7546771E-02  0.1137546E+00
         21   -1    0    0  501  502  0.00000000000E+00  0.00000000000E+00  0.11284976703E+03  0.11284976703E+03  0.00000000000E+00 0.  1.
         21   -1    0    0  502  503 -0.00000000000E+00 -0.00000000000E+00 -0.41092869050E+03  0.41092869050E+03  0.00000000000E+00 0. -1.
          6    1    1    2  501    0  0.89317751708E+02 -0.93440830684E+02 -0.15994123022E+03  0.26809335451E+03  0.17200000000E+03 0. -1.
         -6    1    1    2    0  503 -0.89317751708E+02  0.93440830684E+02 -0.13813769325E+03  0.25568510302E+03  0.17200000000E+03 0. -1.
<mgrwt>
<rscale>  2 0.21515773E+03</rscale>
<asrwt>0</asrwt>
<pdfrwt beam="1">  1       21 0.28212442E-01 0.21515773E+03</pdfrwt>
<pdfrwt beam="2">  1       21 0.10273217E+00 0.21515773E+03</pdfrwt>
<totfact> 0.90984425E+03</totfact>
</mgrwt>
</event>
<event>
 4    1  0.1110581E+000  0.2172265E+03  0.7546771E-02  0.1135968E+00
         21   -1    0    0  501  502  0.00000000000E+00  0.00000000000E+00  0.34994478430E+03  0.34994478430E+03  0.00000000000E+00 0.  1.
         21   -1    0    0  502  503 -0.00000000000E+00 -0.00000000000E+00 -0.13486003992E+03  0.13486003992E+03  0.00000000000E+00 0.  1.
          6    1    1    2  501    0 -0.33452558166E+02  0.12839113883E+03  0.11032285661E+03  0.24363598024E+03  0.17200000000E+03 0.  1.
         -6    1    1    2    0  503  0.33452558166E+02 -0.12839113883E+03  0.10476188777E+03  0.24116884398E+03  0.17200000000E+03 0.  1.
<mgrwt>
<rscale>  2 0.21722651E+03</rscale>
<asrwt>0</asrwt>
<pdfrwt beam="1">  1       21 0.87486194E-01 0.21722651E+03</pdfrwt>
<pdfrwt beam="2">  1       21 0.33715011E-01 0.21722651E+03</pdfrwt>
<totfact> 0.93455027E+03</totfact>
</mgrwt>
</event>
<event>
 4    1  0.1110581E+000  0.2057494E+03  0.7546771E-02  0.1144977E+00
         21   -1    0    0  501  502  0.00000000000E+00  0.00000000000E+00  0.30389224173E+03  0.30389224173E+03  0.00000000000E+00 0. -1.
         21   -1    0    0  502  503 -0.00000000000E+00 -0.00000000000E+00 -0.13931446795E+03  0.13931446795E+03  0.00000000000E+00 0. -1.
          6    1    1    2  501    0  0.92632740087E+02 -0.64560009657E+02  0.80198664335E+02  0.22082718389E+03  0.17200000000E+03 0. -1.
         -6    1    1    2    0  503 -0.92632740087E+02  0.64560009657E+02  0.84379109438E+02  0.22237952579E+03  0.17200000000E+03 0. -1.
<mgrwt>
<rscale>  2 0.20574941E+03</rscale>
<asrwt>0</asrwt>
<pdfrwt beam="1">  1       21 0.75973059E-01 0.20574941E+03</pdfrwt>
<pdfrwt beam="2">  1       21 0.34828618E-01 0.20574941E+03</pdfrwt>
<totfact> 0.12168794E+04</totfact>
</mgrwt>
</event>
<event>
 4    1  0.1110581E+000  0.1736871E+03  0.7546771E-02  0.1174056E+00
         21   -1    0    0  501  502  0.00000000000E+00  0.00000000000E+00  0.16487098046E+03  0.16487098046E+03  0.00000000000E+00 0. -1.
         21   -1    0    0  502  503 -0.00000000000E+00 -0.00000000000E+00 -0.19181143634E+03  0.19181143634E+03  0.00000000000E+00 0.  1.
          6    1    1    2  501    0 -0.22474051465E+02 -0.88388470735E+01  0.24808887423E+02  0.17544996182E+03  0.17200000000E+03 0. -1.
         -6    1    1    2    0  503  0.22474051465E+02  0.88388470735E+01 -0.51749343296E+02  0.18123245498E+03  0.17200000000E+03 0.  1.
<mgrwt>
<rscale>  2 0.17368710E+03</rscale>
<asrwt>0</asrwt>
<pdfrwt beam="1">  1       21 0.41217745E-01 0.17368710E+03</pdfrwt>
<pdfrwt beam="2">  1       21 0.47952859E-01 0.17368710E+03</pdfrwt>
<totfact> 0.23821664E+04</totfact>
</mgrwt>
</event>
<event>
 4    1  0.1110581E+000  0.1770488E+03  0.7546771E-02  0.1170690E+00
         21   -1    0    0  501  502  0.00000000000E+00  0.00000000000E+00  0.46526122025E+03  0.46526122025E+03  0.00000000000E+00 0.  1.
         21   -1    0    0  502  503 -0.00000000000E+00 -0.00000000000E+00 -0.67822975937E+02  0.67822975937E+02  0.00000000000E+00 0.  1.
          6    1    1    2  501    0  0.38339898829E+02  0.17097688365E+02  0.22041756517E+03  0.28271926327E+03  0.17200000000E+03 0.  1.
         -6    1    1    2    0  503 -0.38339898829E+02 -0.17097688365E+02  0.17702067915E+03  0.25036493292E+03  0.17200000000E+03 0.  1.
<mgrwt>
<rscale>  2 0.17704880E+03</rscale>
<asrwt>0</asrwt>
<pdfrwt beam="1">  1       21 0.11631530E+00 0.17704880E+03</pdfrwt>
<pdfrwt beam="2">  1       21 0.16955745E-01 0.17704880E+03</pdfrwt>
<totfact> 0.18057132E+04</totfact>
</mgrwt>
</event>
<event>
 4    1  0.1110581E+000  0.1840961E+03  0.7546771E-02  0.1163897E+00
         21   -1    0    0  503  502  0.00000000000E+00  0.00000000000E+00  0.19234774218E+03  0.19234774218E+03  0.00000000000E+00 0.  1.
         21   -1    0    0  501  503 -0.00000000000E+00 -0.00000000000E+00 -0.19943136380E+03  0.19943136380E+03  0.00000000000E+00 0.  1.
          6    1    1    2  501    0 -0.53209092488E+02  0.38420826879E+02 -0.70401862120E+02  0.19709842630E+03  0.17200000000E+03 0.  1.
         -6    1    1    2    0  502  0.53209092488E+02 -0.38420826879E+02  0.63318240494E+02  0.19468067968E+03  0.17200000000E+03 0.  1.
<mgrwt>
<rscale>  2 0.18409608E+03</rscale>
<asrwt>0</asrwt>
<pdfrwt beam="1">  1       21 0.48086936E-01 0.18409608E+03</pdfrwt>
<pdfrwt beam="2">  1       21 0.49857841E-01 0.18409608E+03</pdfrwt>
<totfact> 0.15924588E+04</totfact>
</mgrwt>
</event>
<event>
 4    1  0.1110581E+000  0.1956312E+03  0.7546771E-02  0.1153478E+00
         21   -1    0    0  503  502  0.00000000000E+00  0.00000000000E+00  0.29123867610E+03  0.29123867610E+03  0.00000000000E+00 0. -1.
         21   -1    0    0  501  503 -0.00000000000E+00 -0.00000000000E+00 -0.22309329837E+03  0.22309329837E+03  0.00000000000E+00 0.  1.
          6    1    1    2  501    0  0.81030553707E+02 -0.46061006871E+02 -0.13078767507E+03  0.23532314578E+03  0.17200000000E+03 0.  1.
         -6    1    1    2    0  502 -0.81030553707E+02  0.46061006871E+02  0.19893305281E+03  0.27900882869E+03  0.17200000000E+03 0. -1.
<mgrwt>
<rscale>  2 0.19563120E+03</rscale>
<asrwt>0</asrwt>
<pdfrwt beam="1">  1       21 0.72809669E-01 0.19563120E+03</pdfrwt>
<pdfrwt beam="2">  1       21 0.55773325E-01 0.19563120E+03</pdfrwt>
<totfact> 0.51314457E+03</totfact>
</mgrwt>
</event>
<event>
 4    1  0.1110581E+000  0.1939604E+03  0.7546771E-02  0.1154937E+00
         21   -1    0    0  501  502  0.00000000000E+00  0.00000000000E+00  0.63149528647E+02  0.63149528647E+02  0.00000000000E+00 0.  1.
         21   -1    0    0  502  503 -0.00000000000E+00 -0.00000000000E+00 -0.76474280422E+03  0.76474280422E+03  0.00000000000E+00 0.  1.
          6    1    1    2  501    0 -0.89606964991E+02 -0.26850023257E+01 -0.15620023624E+03  0.24903640540E+03  0.17200000000E+03 0.  1.
         -6    1    1    2    0  503  0.89606964991E+02  0.26850023257E+01 -0.54539303934E+03  0.57885592748E+03  0.17200000000E+03 0.  1.
<mgrwt>
<rscale>  2 0.19396035E+03</rscale>
<asrwt>0</asrwt>
<pdfrwt beam="1">  1       21 0.15787382E-01 0.19396035E+03</pdfrwt>
<pdfrwt beam="2">  1       21 0.19118570E+00 0.19396035E+03</pdfrwt>
<totfact> 0.54676835E+03</totfact>
</mgrwt>
</event>
<event>
 4    1  0.1110581E+000  0.2373380E+03  0.7546771E-02  0.1121579E+00
         21   -1    0    0  501  502  0.00000000000E+00  0.00000000000E+00  0.27040110142E+03  0.27040110142E+03  0.00000000000E+00 0. -1.
         21   -1    0    0  502  503 -0.00000000000E+00 -0.00000000000E+00 -0.28350544438E+03  0.28350544438E+03  0.00000000000E+00 0.  1.
          6    1    1    2  501    0  0.16048528359E+03 -0.31461278280E+02  0.13607402438E+03  0.27357901672E+03  0.17200000000E+03 0.  1.
         -6    1    1    2    0  503 -0.16048528359E+03  0.31461278280E+02 -0.14917836733E+03  0.28032752908E+03  0.17200000000E+03 0.  1.
<mgrwt>
<rscale>  2 0.23733803E+03</rscale>
<asrwt>0</asrwt>
<pdfrwt beam="1">  1       21 0.67600275E-01 0.23733803E+03</pdfrwt>
<pdfrwt beam="2">  1       21 0.70876361E-01 0.23733803E+03</pdfrwt>
<totfact> 0.34849341E+03</totfact>
</mgrwt>
</event>
<event>
 4    1  0.1110581E+000  0.2029485E+03  0.7546771E-02  0.1147275E+00
         21   -1    0    0  503  502  0.00000000000E+00  0.00000000000E+00  0.20076664723E+03  0.20076664723E+03  0.00000000000E+00 0. -1.
         21   -1    0    0  501  503 -0.00000000000E+00 -0.00000000000E+00 -0.23336715968E+03  0.23336715968E+03  0.00000000000E+00 0. -1.
          6    1    1    2  501    0  0.76306311002E+02 -0.76035653209E+02 -0.91774692146E+02  0.22273452309E+03  0.17200000000E+03 0. -1.
         -6    1    1    2    0  502 -0.76306311002E+02  0.76035653209E+02  0.59174179687E+02  0.21139928382E+03  0.17200000000E+03 0. -1.
<mgrwt>
<rscale>  2 0.20294845E+03</rscale>
<asrwt>0</asrwt>
<pdfrwt beam="1">  1       21 0.50191662E-01 0.20294845E+03</pdfrwt>
<pdfrwt beam="2">  1       21 0.58341790E-01 0.20294845E+03</pdfrwt>
<totfact> 0.10328165E+04</totfact>
</mgrwt>
</event>
<event>
 4    1  0.1110581E+000  0.2034990E+03  0.7546771E-02  0.1146820E+00
         21   -1    0    0  501  502  0.00000000000E+00  0.00000000000E+00  0.31191793396E+03  0.31191793396E+03  0.00000000000E+00 0. -1.
         21   -1    0    0  502  503 -0.00000000000E+00 -0.00000000000E+00 -0.13474556779E+03  0.13474556779E+03  0.00000000000E+00 0.  1.
          6    1    1    2  501    0  0.75917856083E+02 -0.77873828270E+02  0.11566088304E+03  0.23407112993E+03  0.17200000000E+03 0. -1.
         -6    1    1    2    0  503 -0.75917856083E+02  0.77873828270E+02  0.61511483131E+02  0.21259237183E+03  0.17200000000E+03 0.  1.
<mgrwt>
<rscale>  2 0.20349903E+03</rscale>
<asrwt>0</asrwt>
<pdfrwt beam="1">  1       21 0.77979482E-01 0.20349903E+03</pdfrwt>
<pdfrwt beam="2">  1       21 0.33686393E-01 0.20349903E+03</pdfrwt>
<totfact> 0.12278873E+04</totfact>
</mgrwt>
</event>
<event>
 4    1  0.1110581E+000  0.2738980E+03  0.7546771E-02  0.1099069E+00
         21   -1    0    0  503  502  0.00000000000E+00  0.00000000000E+00  0.80681065619E+03  0.80681065619E+03  0.00000000000E+00 0. -1.
         21   -1    0    0  501  503 -0.00000000000E+00 -0.00000000000E+00 -0.16936821148E+03  0.16936821148E+03  0.00000000000E+00 0.  1.
          6    1    1    2  501    0 -0.71679840786E+02 -0.20074388407E+03 -0.90618928196E+01  0.27404785069E+03  0.17200000000E+03 0.  1.
         -6    1    1    2    0  502  0.71679840786E+02  0.20074388407E+03  0.64650433752E+03  0.70213101698E+03  0.17200000000E+03 0. -1.
<mgrwt>
<rscale>  2 0.27389799E+03</rscale>
<asrwt>0</asrwt>
<pdfrwt beam="1">  1       21 0.20170265E+00 0.27389799E+03</pdfrwt>
<pdfrwt beam="2">  1       21 0.42342055E-01 0.27389799E+03</pdfrwt>
<totfact> 0.64798447E+02</totfact>
</mgrwt>
</event>
<event>
 4    1  0.1110581E+000  0.2002284E+03  0.7546771E-02  0.1149546E+00
         21   -1    0    0  503  502  0.00000000000E+00  0.00000000000E+00  0.21785602809E+03  0.21785602809E+03  0.00000000000E+00 0.  1.
         21   -1    0    0  501  503 -0.00000000000E+00 -0.00000000000E+00 -0.18404260597E+03  0.18404260597E+03  0.00000000000E+00 0.  1.
          6    1    1    2  501    0 -0.31890925091E+02 -0.97418505452E+02  0.15057649294E+02  0.20079374769E+03  0.17200000000E+03 0.  1.
         -6    1    1    2    0  502  0.31890925091E+02  0.97418505452E+02  0.18755772831E+02  0.20110488637E+03  0.17200000000E+03 0.  1.
<mgrwt>
<rscale>  2 0.20022836E+03</rscale>
<asrwt>0</asrwt>
<pdfrwt beam="1">  1       21 0.54464007E-01 0.20022836E+03</pdfrwt>
<pdfrwt beam="2">  1       21 0.46010652E-01 0.20022836E+03</pdfrwt>
<totfact> 0.14345851E+04</totfact>
</mgrwt>
</event>
<event>
 4    1  0.1110581E+000  0.1906785E+03  0.7546771E-02  0.1157851E+00
         21   -1    0    0  503  502  0.00000000000E+00  0.00000000000E+00  0.46458181051E+02  0.46458181051E+02  0.00000000000E+00 0.  1.
         21   -1    0    0  501  503 -0.00000000000E+00 -0.00000000000E+00 -0.11455628173E+04  0.11455628173E+04  0.00000000000E+00 0.  1.
          6    1    1    2  501    0  0.32475067423E+02 -0.75628559652E+02 -0.88503782722E+03  0.90534538418E+03  0.17200000000E+03 0.  1.
         -6    1    1    2    0  502 -0.32475067423E+02  0.75628559652E+02 -0.21406680906E+03  0.28667561421E+03  0.17200000000E+03 0.  1.
<mgrwt>
<rscale>  2 0.19067855E+03</rscale>
<asrwt>0</asrwt>
<pdfrwt beam="1">  1       21 0.11614546E-01 0.19067855E+03</pdfrwt>
<pdfrwt beam="2">  1       21 0.28639070E+00 0.19067855E+03</pdfrwt>
<totfact> 0.25493555E+03</totfact>
</mgrwt>
</event>
<event>
 4    1  0.1110581E+000  0.2132582E+03  0.7546771E-02  0.1139012E+00
         21   -1    0    0  503  502  0.00000000000E+00  0.00000000000E+00  0.37279829797E+02  0.37279829797E+02  0.00000000000E+00 0.  1.
         21   -1    0    0  501  503 -0.00000000000E+00 -0.00000000000E+00 -0.12611498370E+04  0.12611498370E+04  0.00000000000E+00 0.  1.
          6    1    1    2  501    0  0.14060623361E+02 -0.12528908727E+03 -0.72929485140E+03  0.75983553273E+03  0.17200000000E+03 0.  1.
         -6    1    1    2    0  502 -0.14060623361E+02  0.12528908727E+03 -0.49457515583E+03  0.53859413410E+03  0.17200000000E+03 0.  1.
<mgrwt>
<rscale>  2 0.21325819E+03</rscale>
<asrwt>0</asrwt>
<pdfrwt beam="1">  1       21 0.93199571E-02 0.21325819E+03</pdfrwt>
<pdfrwt beam="2">  1       21 0.31528747E+00 0.21325819E+03</pdfrwt>
<totfact> 0.24965599E+03</totfact>
</mgrwt>
</event>
<event>
 4    1  0.1110581E+000  0.2191736E+03  0.7546771E-02  0.1134501E+00
         21   -1    0    0  501  502  0.00000000000E+00  0.00000000000E+00  0.10514138432E+03  0.10514138432E+03  0.00000000000E+00 0.  1.
         21   -1    0    0  502  503 -0.00000000000E+00 -0.00000000000E+00 -0.83881281176E+03  0.83881281176E+03  0.00000000000E+00 0. -1.
          6    1    1    2  501    0 -0.31172637318E+02 -0.13221704561E+03 -0.48356256344E+02  0.22444466577E+03  0.17200000000E+03 0.  1.
         -6    1    1    2    0  503  0.31172637318E+02  0.13221704561E+03 -0.68531517110E+03  0.71950953031E+03  0.17200000000E+03 0. -1.
<mgrwt>
<rscale>  2 0.21917363E+03</rscale>
<asrwt>0</asrwt>
<pdfrwt beam="1">  1       21 0.26285347E-01 0.21917363E+03</pdfrwt>
<pdfrwt beam="2">  1       21 0.20970320E+00 0.21917363E+03</pdfrwt>
<totfact> 0.15600208E+03</totfact>
</mgrwt>
</event>
<event>
 4    1  0.1110581E+000  0.2184885E+03  0.7546771E-02  0.1135015E+00
         21   -1    0    0  501  502  0.00000000000E+00  0.00000000000E+00  0.15441850179E+03  0.15441850179E+03  0.00000000000E+00 0. -1.
         21   -1    0    0  502  503 -0.00000000000E+00 -0.00000000000E+00 -0.40063107211E+03  0.40063107211E+03  0.00000000000E+00 0. -1.
          6    1    1    2  501    0  0.69809268307E+02  0.11523837755E+03  0.95153834944E+01  0.21869558780E+03  0.17200000000E+03 0. -1.
         -6    1    1    2    0  503 -0.69809268307E+02 -0.11523837755E+03 -0.25572795382E+03  0.33635398610E+03  0.17200000000E+03 0. -1.
<mgrwt>
<rscale>  2 0.21848848E+03</rscale>
<asrwt>0</asrwt>
<pdfrwt beam="1">  1       21 0.38604626E-01 0.21848848E+03</pdfrwt>
<pdfrwt beam="2">  1       21 0.10015777E+00 0.21848848E+03</pdfrwt>
<totfact> 0.51888694E+03</totfact>
</mgrwt>
</event>
<event>
 4    1  0.1110581E+000  0.1886522E+03  0.7546771E-02  0.1159683E+00
         21   -1    0    0  503  502  0.00000000000E+00  0.00000000000E+00  0.72485603013E+03  0.72485603013E+03  0.00000000000E+00 0.  1.
         21   -1    0    0  501  503 -0.00000000000E+00 -0.00000000000E+00 -0.94137466107E+02  0.94137466107E+02  0.00000000000E+00 0.  1.
          6    1    1    2  501    0 -0.13479884196E+02  0.76314883684E+02  0.32114935627E+02  0.19136624007E+03  0.17200000000E+03 0.  1.
         -6    1    1    2    0  502  0.13479884196E+02 -0.76314883684E+02  0.59860362839E+03  0.62762725616E+03  0.17200000000E+03 0.  1.
<mgrwt>
<rscale>  2 0.18865224E+03</rscale>
<asrwt>0</asrwt>
<pdfrwt beam="1">  1       21 0.18121399E+00 0.18865224E+03</pdfrwt>
<pdfrwt beam="2">  1       21 0.23534369E-01 0.18865224E+03</pdfrwt>
<totfact> 0.30455399E+03</totfact>
</mgrwt>
</event>
<event>
 4    1  0.1110581E+000  0.2249352E+03  0.7546771E-02  0.1130256E+00
         21   -1    0    0  501  502  0.00000000000E+00  0.00000000000E+00  0.54301073218E+03  0.54301073218E+03  0.00000000000E+00 0. -1.
         21   -1    0    0  502  503 -0.00000000000E+00 -0.00000000000E+00 -0.15744545790E+03  0.15744545790E+03  0.00000000000E+00 0. -1.
          6    1    1    2  501    0  0.13567022859E+03 -0.51043275242E+02  0.41654478457E+03  0.47339770217E+03  0.17200000000E+03 0. -1.
         -6    1    1    2    0  503 -0.13567022859E+03  0.51043275242E+02 -0.30979510293E+02  0.22705848791E+03  0.17200000000E+03 0. -1.
<mgrwt>
<rscale>  2 0.22493516E+03</rscale>
<asrwt>0</asrwt>
<pdfrwt beam="1">  1       21 0.13575268E+00 0.22493516E+03</pdfrwt>
<pdfrwt beam="2">  1       21 0.39361366E-01 0.22493516E+03</pdfrwt>
<totfact> 0.23430112E+03</totfact>
</mgrwt>
</event>
<event>
 4    1  0.1110581E+000  0.1997399E+03  0.7546771E-02  0.1149959E+00
         21   -1    0    0  501  502  0.00000000000E+00  0.00000000000E+00  0.74953809404E+03  0.74953809404E+03  0.00000000000E+00 0. -1.
         21   -1    0    0  502  503 -0.00000000000E+00 -0.00000000000E+00 -0.13715287199E+03  0.13715287199E+03  0.00000000000E+00 0. -1.
          6    1    1    2  501    0 -0.63469678964E+02 -0.79269301326E+02  0.65299855297E+03  0.68286391943E+03  0.17200000000E+03 0. -1.
         -6    1    1    2    0  503  0.63469678964E+02  0.79269301326E+02 -0.40613330919E+02  0.20382704661E+03  0.17200000000E+03 0. -1.
<mgrwt>
<rscale>  2 0.19973989E+03</rscale>
<asrwt>0</asrwt>
<pdfrwt beam="1">  1       21 0.18738451E+00 0.19973989E+03</pdfrwt>
<pdfrwt beam="2">  1       21 0.34288220E-01 0.19973989E+03</pdfrwt>
<totfact> 0.13203928E+03</totfact>
</mgrwt>
</event>
<event>
 4    1  0.1110581E+000  0.2026267E+03  0.7546771E-02  0.1147542E+00
         21   -1    0    0  503  502  0.00000000000E+00  0.00000000000E+00  0.45260533196E+03  0.45260533196E+03  0.00000000000E+00 0. -1.
         21   -1    0    0  501  503 -0.00000000000E+00 -0.00000000000E+00 -0.12714302322E+03  0.12714302322E+03  0.00000000000E+00 0. -1.
          6    1    1    2  501    0 -0.37216648258E+02  0.10044143409E+03  0.75681883616E+01  0.20276794141E+03  0.17200000000E+03 0. -1.
         -6    1    1    2    0  502  0.37216648258E+02 -0.10044143409E+03  0.31789412038E+03  0.37698041377E+03  0.17200000000E+03 0. -1.
<mgrwt>
<rscale>  2 0.20262665E+03</rscale>
<asrwt>0</asrwt>
<pdfrwt beam="1">  1       21 0.11315133E+00 0.20262665E+03</pdfrwt>
<pdfrwt beam="2">  1       21 0.31785757E-01 0.20262665E+03</pdfrwt>
<totfact> 0.57588342E+03</totfact>
</mgrwt>
</event>
<event>
 4    1  0.1110581E+000  0.2160462E+03  0.7546771E-02  0.1136866E+00
         21   -1    0    0  503  502  0.00000000000E+00  0.00000000000E+00  0.29352514581E+02  0.29352514581E+02  0.00000000000E+00 0. -1.
         21   -1    0    0  501  503 -0.00000000000E+00 -0.00000000000E+00 -0.16179493405E+04  0.16179493405E+04  0.00000000000E+00 0. -1.
          6    1    1    2  501    0  0.80157222510E+02  0.10328013117E+03 -0.90219170466E+03  0.92769921729E+03  0.17200000000E+03 0. -1.
         -6    1    1    2    0  502 -0.80157222510E+02 -0.10328013117E+03 -0.68640512123E+03  0.71960263776E+03  0.17200000000E+03 0. -1.
<mgrwt>
<rscale>  2 0.21604621E+03</rscale>
<asrwt>0</asrwt>
<pdfrwt beam="1">  1       21 0.73381291E-02 0.21604621E+03</pdfrwt>
<pdfrwt beam="2">  1       21 0.40448731E+00 0.21604621E+03</pdfrwt>
<totfact> 0.11006765E+03</totfact>
</mgrwt>
</event>
<event>
 4    1  0.1110581E+000  0.2442487E+03  0.7546771E-02  0.1116994E+00
         21   -1    0    0  503  502  0.00000000000E+00  0.00000000000E+00  0.19065831580E+03  0.19065831580E+03  0.00000000000E+00 0.  1.
         21   -1    0    0  501  503 -0.00000000000E+00 -0.00000000000E+00 -0.32353869545E+03  0.32353869545E+03  0.00000000000E+00 0. -1.
          6    1    1    2  501    0  0.10463922107E+03 -0.13828983456E+03 -0.19824555555E+02  0.24505194945E+03  0.17200000000E+03 0.  1.
         -6    1    1    2    0  502 -0.10463922107E+03  0.13828983456E+03 -0.11305582409E+03  0.26914506180E+03  0.17200000000E+03 0. -1.
<mgrwt>
<rscale>  2 0.24424874E+03</rscale>
<asrwt>0</asrwt>
<pdfrwt beam="1">  1       21 0.47664579E-01 0.24424874E+03</pdfrwt>
<pdfrwt beam="2">  1       21 0.80884673E-01 0.24424874E+03</pdfrwt>
<totfact> 0.54445512E+03</totfact>
</mgrwt>
</event>
<event>
 4    1  0.1110581E+000  0.1972259E+03  0.7546771E-02  0.1152101E+00
         21   -1    0    0  503  502  0.00000000000E+00  0.00000000000E+00  0.83907655512E+02  0.83907655512E+02  0.00000000000E+00 0.  1.
         21   -1    0    0  501  503 -0.00000000000E+00 -0.00000000000E+00 -0.61308533524E+03  0.61308533524E+03  0.00000000000E+00 0.  1.
          6    1    1    2  501    0  0.12051297135E+02 -0.95753959485E+02 -0.43668207990E+03  0.47915476980E+03  0.17200000000E+03 0.  1.
         -6    1    1    2    0  502 -0.12051297135E+02  0.95753959485E+02 -0.92495599834E+02  0.21783822095E+03  0.17200000000E+03 0.  1.
<mgrwt>
<rscale>  2 0.19722590E+03</rscale>
<asrwt>0</asrwt>
<pdfrwt beam="1">  1       21 0.20976914E-01 0.19722590E+03</pdfrwt>
<pdfrwt beam="2">  1       21 0.15327133E+00 0.19722590E+03</pdfrwt>
<totfact> 0.59384515E+03</totfact>
</mgrwt>
</event>
<event>
 4    1  0.1110581E+000  0.3705138E+03  0.7546771E-02  0.1054497E+00
         21   -1    0    0  501  502  0.00000000000E+00  0.00000000000E+00  0.12632707061E+04  0.12632707061E+04  0.00000000000E+00 0.  1.
         21   -1    0    0  502  503 -0.00000000000E+00 -0.00000000000E+00 -0.20249150988E+03  0.20249150988E+03  0.00000000000E+00 0.  1.
          6    1    1    2  501    0  0.31677949845E+03 -0.85715910100E+02  0.10292508667E+04  0.10939094179E+04  0.17200000000E+03 0.  1.
         -6    1    1    2    0  503 -0.31677949845E+03  0.85715910100E+02  0.31528329483E+02  0.37185279809E+03  0.17200000000E+03 0.  1.
<mgrwt>
<rscale>  2 0.37051379E+03</rscale>
<asrwt>0</asrwt>
<pdfrwt beam="1">  1       21 0.31581765E+00 0.37051379E+03</pdfrwt>
<pdfrwt beam="2">  1       21 0.50622881E-01 0.37051379E+03</pdfrwt>
<totfact> 0.83440792E+01</totfact>
</mgrwt>
</event>
<event>
 4    1  0.1110581E+000  0.1841331E+03  0.7546771E-02  0.1163862E+00
         21   -1    0    0  503  502  0.00000000000E+00  0.00000000000E+00  0.48698489489E+03  0.48698489489E+03  0.00000000000E+00 0. -1.
         21   -1    0    0  501  503 -0.00000000000E+00 -0.00000000000E+00 -0.15669659733E+03  0.15669659733E+03  0.00000000000E+00 0. -1.
          6    1    1    2  501    0  0.49955941917E+02 -0.42724742167E+02 -0.74770230022E+02  0.19873496679E+03  0.17200000000E+03 0. -1.
         -6    1    1    2    0  502 -0.49955941917E+02  0.42724742167E+02  0.40505852758E+03  0.44494652543E+03  0.17200000000E+03 0. -1.
<mgrwt>
<rscale>  2 0.18413310E+03</rscale>
<asrwt>0</asrwt>
<pdfrwt beam="1">  1       21 0.12174622E+00 0.18413310E+03</pdfrwt>
<pdfrwt beam="2">  1       21 0.39174150E-01 0.18413310E+03</pdfrwt>
<totfact> 0.32247912E+03</totfact>
</mgrwt>
</event>
<event>
 4    1  0.1110581E+000  0.4697045E+03  0.7546771E-02  0.1022004E+00
         21   -1    0    0  503  502  0.00000000000E+00  0.00000000000E+00  0.40850310710E+03  0.40850310710E+03  0.00000000000E+00 0. -1.
         21   -1    0    0  501  503 -0.00000000000E+00 -0.00000000000E+00 -0.89745467406E+03  0.89745467406E+03  0.00000000000E+00 0.  1.
          6    1    1    2  501    0 -0.20504127218E+03 -0.38600047006E+03 -0.65653330665E+03  0.80725353448E+03  0.17200000000E+03 0.  1.
         -6    1    1    2    0  502  0.20504127218E+03  0.38600047006E+03  0.16758173968E+03  0.49870424668E+03  0.17200000000E+03 0. -1.
<mgrwt>
<rscale>  2 0.46970447E+03</rscale>
<asrwt>0</asrwt>
<pdfrwt beam="1">  1       21 0.10212578E+00 0.46970447E+03</pdfrwt>
<pdfrwt beam="2">  1       21 0.22436367E+00 0.46970447E+03</pdfrwt>
<totfact> 0.57025530E+01</totfact>
</mgrwt>
</event>
<event>
 4    1  0.1110581E+000  0.1831345E+03  0.7546771E-02  0.1164803E+00
         21   -1    0    0  503  502  0.00000000000E+00  0.00000000000E+00  0.12446756050E+04  0.12446756050E+04  0.00000000000E+00 0. -1.
         21   -1    0    0  501  503 -0.00000000000E+00 -0.00000000000E+00 -0.36122552906E+02  0.36122552906E+02  0.00000000000E+00 0. -1.
          6    1    1    2  501    0 -0.62555925667E+02 -0.64033897478E+01  0.28148945852E+03  0.33581924081E+03  0.17200000000E+03 0. -1.
         -6    1    1    2    0  502  0.62555925667E+02  0.64033897478E+01  0.92706359356E+03  0.94497891709E+03  0.17200000000E+03 0. -1.
<mgrwt>
<rscale>  2 0.18313451E+03</rscale>
<asrwt>0</asrwt>
<pdfrwt beam="1">  1       21 0.31116876E+00 0.18313451E+03</pdfrwt>
<pdfrwt beam="2">  1       21 0.90306424E-02 0.18313451E+03</pdfrwt>
<totfact> 0.28933771E+03</totfact>
</mgrwt>
</event>
<event>
 4    1  0.1110581E+000  0.1989543E+03  0.7546771E-02  0.1150624E+00
         21   -1    0    0  503  502  0.00000000000E+00  0.00000000000E+00  0.22793668520E+03  0.22793668520E+03  0.00000000000E+00 0. -1.
         21   -1    0    0  501  503 -0.00000000000E+00 -0.00000000000E+00 -0.21966063703E+03  0.21966063703E+03  0.00000000000E+00 0. -1.
          6    1    1    2  501    0  0.98024854622E+02 -0.19747387613E+02 -0.98280100057E+02  0.22190495602E+03  0.17200000000E+03 0. -1.
         -6    1    1    2    0  502 -0.98024854622E+02  0.19747387613E+02  0.10655614823E+03  0.22569236621E+03  0.17200000000E+03 0. -1.
<mgrwt>
<rscale>  2 0.19895435E+03</rscale>
<asrwt>0</asrwt>
<pdfrwt beam="1">  1       21 0.56984171E-01 0.19895435E+03</pdfrwt>
<pdfrwt beam="2">  1       21 0.54915159E-01 0.19895435E+03</pdfrwt>
<totfact> 0.90140656E+03</totfact>
</mgrwt>
</event>
<event>
 4    1  0.1110581E+000  0.2620664E+03  0.7546771E-02  0.1105908E+00
         21   -1    0    0  501  502  0.00000000000E+00  0.00000000000E+00  0.29758777835E+03  0.29758777835E+03  0.00000000000E+00 0. -1.
         21   -1    0    0  502  503 -0.00000000000E+00 -0.00000000000E+00 -0.34922416849E+03  0.34922416849E+03  0.00000000000E+00 0.  1.
          6    1    1    2  501    0  0.19688411022E+03  0.18205406785E+02 -0.21415864406E+03  0.33844159691E+03  0.17200000000E+03 0.  1.
         -6    1    1    2    0  503 -0.19688411022E+03 -0.18205406785E+02  0.16252225392E+03  0.30837034993E+03  0.17200000000E+03 0. -1.
<mgrwt>
<rscale>  2 0.26206638E+03</rscale>
<asrwt>0</asrwt>
<pdfrwt beam="1">  1       21 0.74396945E-01 0.26206638E+03</pdfrwt>
<pdfrwt beam="2">  1       21 0.87306041E-01 0.26206638E+03</pdfrwt>
<totfact> 0.17248198E+03</totfact>
</mgrwt>
</event>
<event>
 4    1  0.1110581E+000  0.1827341E+03  0.7546771E-02  0.1165183E+00
         21   -1    0    0  501  502  0.00000000000E+00  0.00000000000E+00  0.91742426609E+03  0.91742426609E+03  0.00000000000E+00 0.  1.
         21   -1    0    0  502  503 -0.00000000000E+00 -0.00000000000E+00 -0.63962315271E+02  0.63962315271E+02  0.00000000000E+00 0.  1.
          6    1    1    2  501    0  0.47390786527E+02  0.39520645999E+02  0.74885798037E+03  0.77083074853E+03  0.17200000000E+03 0.  1.
         -6    1    1    2    0  503 -0.47390786527E+02 -0.39520645999E+02  0.10460397045E+03  0.21055583284E+03  0.17200000000E+03 0.  1.
<mgrwt>
<rscale>  2 0.18273415E+03</rscale>
<asrwt>0</asrwt>
<pdfrwt beam="1">  1       21 0.22935602E+00 0.18273415E+03</pdfrwt>
<pdfrwt beam="2">  1       21 0.15990582E-01 0.18273415E+03</pdfrwt>
<totfact> 0.31130486E+03</totfact>
</mgrwt>
</event>
<event>
 4    1  0.1110581E+000  0.2593532E+03  0.7546771E-02  0.1107532E+00
         21   -1    0    0  503  502  0.00000000000E+00  0.00000000000E+00  0.97028641914E+02  0.97028641914E+02  0.00000000000E+00 0. -1.
         21   -1    0    0  501  503 -0.00000000000E+00 -0.00000000000E+00 -0.70397092707E+03  0.70397092707E+03  0.00000000000E+00 0.  1.
          6    1    1    2  501    0 -0.40365812683E+02 -0.18987019025E+03 -0.35291968594E+03  0.43796848369E+03  0.17200000000E+03 0. -1.
         -6    1    1    2    0  502  0.40365812683E+02  0.18987019025E+03 -0.25402259921E+03  0.36303108530E+03  0.17200000000E+03 0.  1.
<mgrwt>
<rscale>  2 0.25935321E+03</rscale>
<asrwt>0</asrwt>
<pdfrwt beam="1">  1       21 0.24257161E-01 0.25935321E+03</pdfrwt>
<pdfrwt beam="2">  1       21 0.17599273E+00 0.25935321E+03</pdfrwt>
<totfact> 0.29422288E+03</totfact>
</mgrwt>
</event>
<event>
 4    1  0.1110581E+000  0.2310000E+03  0.7546771E-02  0.1125938E+00
         21   -1    0    0  501  502  0.00000000000E+00  0.00000000000E+00  0.21727530816E+03  0.21727530816E+03  0.00000000000E+00 0.  1.
         21   -1    0    0  502  503 -0.00000000000E+00 -0.00000000000E+00 -0.26444167131E+03  0.26444167131E+03  0.00000000000E+00 0. -1.
          6    1    1    2  501    0  0.12030167173E+03 -0.96459809665E+02  0.40723144015E+02  0.23456206334E+03  0.17200000000E+03 0.  1.
         -6    1    1    2    0  503 -0.12030167173E+03  0.96459809665E+02 -0.87889507165E+02  0.24715491614E+03  0.17200000000E+03 0. -1.
<mgrwt>
<rscale>  2 0.23099997E+03</rscale>
<asrwt>0</asrwt>
<pdfrwt beam="1">  1       21 0.54318827E-01 0.23099997E+03</pdfrwt>
<pdfrwt beam="2">  1       21 0.66110417E-01 0.23099997E+03</pdfrwt>
<totfact> 0.65479946E+03</totfact>
</mgrwt>
</event>
<event>
 4    1  0.1110581E+000  0.3079912E+03  0.7546771E-02  0.1081313E+00
         21   -1    0    0  503  502  0.00000000000E+00  0.00000000000E+00  0.26633912220E+03  0.26633912220E+03  0.00000000000E+00 0. -1.
         21   -1    0    0  501  503 -0.00000000000E+00 -0.00000000000E+00 -0.41423016425E+03  0.41423016425E+03  0.00000000000E+00 0.  1.
          6    1    1    2  501    0  0.43899144422E+02 -0.25168915018E+03 -0.20135711460E+03  0.36797180707E+03  0.17200000000E+03 0.  1.
         -6    1    1    2    0  502 -0.43899144422E+02  0.25168915018E+03  0.53466072557E+02  0.31259747937E+03  0.17200000000E+03 0. -1.
<mgrwt>
<rscale>  2 0.30799117E+03</rscale>
<asrwt>0</asrwt>
<pdfrwt beam="1">  1       21 0.66584781E-01 0.30799117E+03</pdfrwt>
<pdfrwt beam="2">  1       21 0.10355754E+00 0.30799117E+03</pdfrwt>
<totfact> 0.14309091E+03</totfact>
</mgrwt>
</event>
<event>
 4    1  0.1110581E+000  0.1966979E+03  0.7546771E-02  0.1152555E+00
         21   -1    0    0  501  502  0.00000000000E+00  0.00000000000E+00  0.56139333014E+03  0.56139333014E+03  0.00000000000E+00 0. -1.
         21   -1    0    0  502  503 -0.00000000000E+00 -0.00000000000E+00 -0.27435591311E+03  0.27435591311E+03  0.00000000000E+00 0.  1.
          6    1    1    2  501    0 -0.28654573180E+02  0.91021913774E+02  0.50511934970E+03  0.54206607604E+03  0.17200000000E+03 0. -1.
         -6    1    1    2    0  503  0.28654573180E+02 -0.91021913774E+02 -0.21808193266E+03  0.29368316721E+03  0.17200000000E+03 0.  1.
<mgrwt>
<rscale>  2 0.19669792E+03</rscale>
<asrwt>0</asrwt>
<pdfrwt beam="1">  1       21 0.14034833E+00 0.19669792E+03</pdfrwt>
<pdfrwt beam="2">  1       21 0.68588979E-01 0.19669792E+03</pdfrwt>
<totfact> 0.68597065E+02</totfact>
</mgrwt>
</event>
<event>
 4    1  0.1110581E+000  0.3693657E+03  0.7546771E-02  0.1054936E+00
         21   -1    0    0  501  502  0.00000000000E+00  0.00000000000E+00  0.17944415963E+04  0.17944415963E+04  0.00000000000E+00 0. -1.
         21   -1    0    0  502  503 -0.00000000000E+00 -0.00000000000E+00 -0.90538494632E+02  0.90538494632E+02  0.00000000000E+00 0.  1.
          6    1    1    2  501    0 -0.31438413234E+03  0.89496685227E+02  0.12292406667E+04  0.12835356077E+04  0.17200000000E+03 0.  1.
         -6    1    1    2    0  503  0.31438413234E+03 -0.89496685227E+02  0.47466243488E+03  0.60144448324E+03  0.17200000000E+03 0.  1.
<mgrwt>
<rscale>  2 0.36936573E+03</rscale>
<asrwt>0</asrwt>
<pdfrwt beam="1">  1       21 0.44861028E+00 0.36936573E+03</pdfrwt>
<pdfrwt beam="2">  1       21 0.22634629E-01 0.36936573E+03</pdfrwt>
<totfact> 0.61625025E+01</totfact>
</mgrwt>
</event>
<event>
 4    1  0.1110581E+000  0.4319186E+03  0.7546771E-02  0.1033256E+00
         21   -1    0    0  503  502  0.00000000000E+00  0.00000000000E+00  0.62443774263E+03  0.62443774263E+03  0.00000000000E+00 0.  1.
         21   -1    0    0  501  503 -0.00000000000E+00 -0.00000000000E+00 -0.32311965919E+03  0.32311965919E+03  0.00000000000E+00 0.  1.
          6    1    1    2  501    0 -0.30597193339E+03  0.25169587093E+03  0.20558903983E+02  0.43240756700E+03  0.17200000000E+03 0.  1.
         -6    1    1    2    0  502  0.30597193339E+03 -0.25169587093E+03  0.28075917946E+03  0.51514983482E+03  0.17200000000E+03 0.  1.
<mgrwt>
<rscale>  2 0.43191855E+03</rscale>
<asrwt>0</asrwt>
<pdfrwt beam="1">  1       21 0.15610943E+00 0.43191855E+03</pdfrwt>
<pdfrwt beam="2">  1       21 0.80779916E-01 0.43191855E+03</pdfrwt>
<totfact> 0.30046910E+02</totfact>
</mgrwt>
</event>
<event>
 4    1  0.1110581E+000  0.2451626E+03  0.7546771E-02  0.1116401E+00
         21   -1    0    0  503  502  0.00000000000E+00  0.00000000000E+00  0.59687184436E+03  0.59687184436E+03  0.00000000000E+00 0.  1.
         21   -1    0    0  501  503 -0.00000000000E+00 -0.00000000000E+00 -0.11865759468E+03  0.11865759468E+03  0.00000000000E+00 0. -1.
          6    1    1    2  501    0 -0.88738059077E+02 -0.15048669933E+03  0.99926109396E+02  0.26474500400E+03  0.17200000000E+03 0. -1.
         -6    1    1    2    0  502  0.88738059077E+02  0.15048669933E+03  0.37828814028E+03  0.45078443505E+03  0.17200000000E+03 0.  1.
<mgrwt>
<rscale>  2 0.24516258E+03</rscale>
<asrwt>0</asrwt>
<pdfrwt beam="1">  1       21 0.14921795E+00 0.24516258E+03</pdfrwt>
<pdfrwt beam="2">  1       21 0.29664400E-01 0.24516258E+03</pdfrwt>
<totfact> 0.31625935E+03</totfact>
</mgrwt>
</event>
<event>
 4    1  0.1110581E+000  0.2466085E+03  0.7546771E-02  0.1115467E+00
         21   -1    0    0  501  502  0.00000000000E+00  0.00000000000E+00  0.20959268355E+03  0.20959268355E+03  0.00000000000E+00 0.  1.
         21   -1    0    0  502  503 -0.00000000000E+00 -0.00000000000E+00 -0.29810885098E+03  0.29810885098E+03  0.00000000000E+00 0.  1.
          6    1    1    2  501    0  0.15281771452E+03 -0.88760913044E+02 -0.85705631247E+02  0.26107701696E+03  0.17200000000E+03 0.  1.
         -6    1    1    2    0  503 -0.15281771452E+03  0.88760913044E+02 -0.28105361849E+01  0.24662451758E+03  0.17200000000E+03 0.  1.
<mgrwt>
<rscale>  2 0.24660850E+03</rscale>
<asrwt>0</asrwt>
<pdfrwt beam="1">  1       21 0.52398171E-01 0.24660850E+03</pdfrwt>
<pdfrwt beam="2">  1       21 0.74527212E-01 0.24660850E+03</pdfrwt>
<totfact> 0.53640022E+03</totfact>
</mgrwt>
</event>
<event>
 4    1  0.1110581E+000  0.1842494E+03  0.7546771E-02  0.1163753E+00
         21   -1    0    0  501  502  0.00000000000E+00  0.00000000000E+00  0.70711805963E+02  0.70711805963E+02  0.00000000000E+00 0.  1.
         21   -1    0    0  502  503 -0.00000000000E+00 -0.00000000000E+00 -0.51998638881E+03  0.51998638881E+03  0.00000000000E+00 0.  1.
          6    1    1    2  501    0 -0.22044832969E+02 -0.62272583089E+02 -0.14282464596E+03  0.23312384854E+03  0.17200000000E+03 0.  1.
         -6    1    1    2    0  503  0.22044832969E+02  0.62272583089E+02 -0.30644993689E+03  0.35757434623E+03  0.17200000000E+03 0.  1.
<mgrwt>
<rscale>  2 0.18424942E+03</rscale>
<asrwt>0</asrwt>
<pdfrwt beam="1">  1       21 0.17677952E-01 0.18424942E+03</pdfrwt>
<pdfrwt beam="2">  1       21 0.12999659E+00 0.18424942E+03</pdfrwt>
<totfact> 0.12622738E+04</totfact>
</mgrwt>
</event>
<event>
 4    1  0.1110581E+000  0.2499820E+03  0.7546771E-02  0.1113316E+00
         21   -1    0    0  503  502  0.00000000000E+00  0.00000000000E+00  0.17598890943E+04  0.17598890943E+04  0.00000000000E+00 0. -1.
         21   -1    0    0  501  503 -0.00000000000E+00 -0.00000000000E+00 -0.35264546437E+03  0.35264546437E+03  0.00000000000E+00 0. -1.
          6    1    1    2  501    0  0.18128521166E+03 -0.65306164603E+01 -0.29805616166E+03  0.38900957883E+03  0.17200000000E+03 0. -1.
         -6    1    1    2    0  502 -0.18128521166E+03  0.65306164603E+01  0.17052997916E+04  0.17235249799E+04  0.17200000000E+03 0. -1.
<mgrwt>
<rscale>  2 0.24998195E+03</rscale>
<asrwt>0</asrwt>
<pdfrwt beam="1">  1       21 0.43997225E+00 0.24998195E+03</pdfrwt>
<pdfrwt beam="2">  1       21 0.88161371E-01 0.24998195E+03</pdfrwt>
<totfact> 0.47690316E+00</totfact>
</mgrwt>
</event>
<event>
 4    1  0.1110581E+000  0.1815877E+03  0.7546771E-02  0.1166275E+00
         21   -1    0    0  503  502  0.00000000000E+00  0.00000000000E+00  0.47990700986E+03  0.47990700986E+03  0.00000000000E+00 0. -1.
         21   -1    0    0  501  503 -0.00000000000E+00 -0.00000000000E+00 -0.10201357915E+03  0.10201357915E+03  0.00000000000E+00 0.  1.
          6    1    1    2  501    0 -0.13818597787E+01  0.58208214288E+02  0.35519391268E+03  0.39891956752E+03  0.17200000000E+03 0. -1.
         -6    1    1    2    0  502  0.13818597787E+01 -0.58208214288E+02  0.22699518040E+02  0.18300102149E+03  0.17200000000E+03 0.  1.
<mgrwt>
<rscale>  2 0.18158774E+03</rscale>
<asrwt>0</asrwt>
<pdfrwt beam="1">  1       21 0.11997675E+00 0.18158774E+03</pdfrwt>
<pdfrwt beam="2">  1       21 0.25503396E-01 0.18158774E+03</pdfrwt>
<totfact> 0.77688068E+03</totfact>
</mgrwt>
</event>
<event>
 4    1  0.1110581E+000  0.1727693E+03  0.7546771E-02  0.1174990E+00
         21   -1    0    0  503  502  0.00000000000E+00  0.00000000000E+00  0.93967399897E+02  0.93967399897E+02  0.00000000000E+00 0. -1.
         21   -1    0    0  501  503 -0.00000000000E+00 -0.00000000000E+00 -0.33278045860E+03  0.33278045860E+03  0.00000000000E+00 0. -1.
          6    1    1    2  501    0  0.13493070041E+02  0.91192968130E+01 -0.16489645002E+03  0.23883061726E+03  0.17200000000E+03 0. -1.
         -6    1    1    2    0  502 -0.13493070041E+02 -0.91192968130E+01 -0.73916608685E+02  0.18791724123E+03  0.17200000000E+03 0. -1.
<mgrwt>
<rscale>  2 0.17276928E+03</rscale>
<asrwt>0</asrwt>
<pdfrwt beam="1">  1       21 0.23491850E-01 0.17276928E+03</pdfrwt>
<pdfrwt beam="2">  1       21 0.83195114E-01 0.17276928E+03</pdfrwt>
<totfact> 0.21717403E+04</totfact>
</mgrwt>
</event>
<event>
 4    1  0.1110581E+000  0.1790929E+03  0.7546771E-02  0.1168684E+00
         21   -1    0    0  501  502  0.00000000000E+00  0.00000000000E+00  0.98092110101E+03  0.98092110101E+03  0.00000000000E+00 0.  1.
         21   -1    0    0  502  503 -0.00000000000E+00 -0.00000000000E+00 -0.33061497304E+02  0.33061497304E+02  0.00000000000E+00 0.  1.
          6    1    1    2  501    0  0.41449600284E+02  0.27788211465E+02  0.52708324877E+03  0.55667854745E+03  0.17200000000E+03 0.  1.
         -6    1    1    2    0  503 -0.41449600284E+02 -0.27788211465E+02  0.42077635494E+03  0.45730405086E+03  0.17200000000E+03 0.  1.
<mgrwt>
<rscale>  2 0.17909286E+03</rscale>
<asrwt>0</asrwt>
<pdfrwt beam="1">  1       21 0.24523018E+00 0.17909286E+03</pdfrwt>
<pdfrwt beam="2">  1       21 0.82653776E-02 0.17909286E+03</pdfrwt>
<totfact> 0.81518339E+03</totfact>
</mgrwt>
</event>
<event>
 4    1  0.1110581E+000  0.2184159E+03  0.7546771E-02  0.1135070E+00
         21   -1    0    0  503  502  0.00000000000E+00  0.00000000000E+00  0.58468613052E+03  0.58468613052E+03  0.00000000000E+00 0. -1.
         21   -1    0    0  501  503 -0.00000000000E+00 -0.00000000000E+00 -0.96764723535E+02  0.96764723535E+02  0.00000000000E+00 0.  1.
          6    1    1    2  501    0 -0.27904574393E+02  0.13169220393E+03  0.10903866310E+03  0.24412073222E+03  0.17200000000E+03 0.  1.
         -6    1    1    2    0  502  0.27904574393E+02 -0.13169220393E+03  0.37888274389E+03  0.43733012184E+03  0.17200000000E+03 0.  1.
<mgrwt>
<rscale>  2 0.21841589E+03</rscale>
<asrwt>0</asrwt>
<pdfrwt beam="1">  1       21 0.14617152E+00 0.21841589E+03</pdfrwt>
<pdfrwt beam="2">  1       21 0.24191183E-01 0.21841589E+03</pdfrwt>
<totfact> 0.50523086E+03</totfact>
</mgrwt>
</event>
<event>
 4    1  0.1110581E+000  0.1763636E+03  0.7546771E-02  0.1171369E+00
         21   -1    0    0  503  502  0.00000000000E+00  0.00000000000E+00  0.50880486262E+02  0.50880486262E+02  0.00000000000E+00 0. -1.
         21   -1    0    0  501  503 -0.00000000000E+00 -0.00000000000E+00 -0.66567558165E+03  0.66567558165E+03  0.00000000000E+00 0. -1.
          6    1    1    2  501    0  0.10522606147E+02 -0.37541993338E+02 -0.40977901154E+03  0.44611989958E+03  0.17200000000E+03 0. -1.
         -6    1    1    2    0  502 -0.10522606147E+02  0.37541993338E+02 -0.20501608384E+03  0.27043616832E+03  0.17200000000E+03 0. -1.
<mgrwt>
<rscale>  2 0.17636362E+03</rscale>
<asrwt>0</asrwt>
<pdfrwt beam="1">  1       21 0.12720122E-01 0.17636362E+03</pdfrwt>
<pdfrwt beam="2">  1       21 0.16641890E+00 0.17636362E+03</pdfrwt>
<totfact> 0.12109385E+04</totfact>
</mgrwt>
</event>
<event>
 4    1  0.1110581E+000  0.2049770E+03  0.7546771E-02  0.1145607E+00
         21   -1    0    0  501  502  0.00000000000E+00  0.00000000000E+00  0.21365178131E+03  0.21365178131E+03  0.00000000000E+00 0. -1.
         21   -1    0    0  502  503 -0.00000000000E+00 -0.00000000000E+00 -0.21569591380E+03  0.21569591380E+03  0.00000000000E+00 0.  1.
          6    1    1    2  501    0  0.79626358732E+02 -0.78046136878E+02  0.62761567518E+02  0.21437017247E+03  0.17200000000E+03 0.  1.
         -6    1    1    2    0  503 -0.79626358732E+02  0.78046136878E+02 -0.64805700010E+02  0.21497752264E+03  0.17200000000E+03 0.  1.
<mgrwt>
<rscale>  2 0.20497697E+03</rscale>
<asrwt>0</asrwt>
<pdfrwt beam="1">  1       21 0.53412945E-01 0.20497697E+03</pdfrwt>
<pdfrwt beam="2">  1       21 0.53923978E-01 0.20497697E+03</pdfrwt>
<totfact> 0.10700890E+04</totfact>
</mgrwt>
</event>
<event>
 4    1  0.1110581E+000  0.1974506E+03  0.7546771E-02  0.1151908E+00
         21   -1    0    0  503  502  0.00000000000E+00  0.00000000000E+00  0.14368404455E+04  0.14368404455E+04  0.00000000000E+00 0. -1.
         21   -1    0    0  501  503 -0.00000000000E+00 -0.00000000000E+00 -0.31912797558E+02  0.31912797558E+02  0.00000000000E+00 0. -1.
          6    1    1    2  501    0 -0.84268277638E+02 -0.47974922163E+02  0.98665546993E+03  0.10062185409E+04  0.17200000000E+03 0. -1.
         -6    1    1    2    0  502  0.84268277638E+02  0.47974922163E+02  0.41827217802E+03  0.46253470214E+03  0.17200000000E+03 0. -1.
<mgrwt>
<rscale>  2 0.19745059E+03</rscale>
<asrwt>0</asrwt>
<pdfrwt beam="1">  1       21 0.35920989E+00 0.19745059E+03</pdfrwt>
<pdfrwt beam="2">  1       21 0.79782042E-02 0.19745059E+03</pdfrwt>
<totfact> 0.18470819E+03</totfact>
</mgrwt>
</event>
<event>
 4    1  0.1110581E+000  0.1764981E+03  0.7546771E-02  0.1171236E+00
         21   -1    0    0  503  502  0.00000000000E+00  0.00000000000E+00  0.33488251546E+03  0.33488251546E+03  0.00000000000E+00 0.  1.
         21   -1    0    0  501  503 -0.00000000000E+00 -0.00000000000E+00 -0.10375722419E+03  0.10375722419E+03  0.00000000000E+00 0.  1.
          6    1    1    2  501    0 -0.28141999329E+02 -0.27849735166E+02  0.45017684380E+02  0.18214876278E+03  0.17200000000E+03 0.  1.
         -6    1    1    2    0  502  0.28141999329E+02  0.27849735166E+02  0.18610760689E+03  0.25649097687E+03  0.17200000000E+03 0.  1.
<mgrwt>
<rscale>  2 0.17649810E+03</rscale>
<asrwt>0</asrwt>
<pdfrwt beam="1">  1       21 0.83720626E-01 0.17649810E+03</pdfrwt>
<pdfrwt beam="2">  1       21 0.25939307E-01 0.17649810E+03</pdfrwt>
<totfact> 0.17688282E+04</totfact>
</mgrwt>
</event>
<event>
 4    1  0.1110581E+000  0.1799459E+03  0.7546771E-02  0.1167855E+00
         21   -1    0    0  501  502  0.00000000000E+00  0.00000000000E+00  0.44102550711E+02  0.44102550711E+02  0.00000000000E+00 0.  1.
         21   -1    0    0  502  503 -0.00000000000E+00 -0.00000000000E+00 -0.80550250251E+03  0.80550250251E+03  0.00000000000E+00 0.  1.
          6    1    1    2  501    0  0.36563608503E+02  0.38205173958E+02 -0.25432076446E+03  0.31154387174E+03  0.17200000000E+03 0.  1.
         -6    1    1    2    0  503 -0.36563608503E+02 -0.38205173958E+02 -0.50707918734E+03  0.53806118149E+03  0.17200000000E+03 0.  1.
<mgrwt>
<rscale>  2 0.17994592E+03</rscale>
<asrwt>0</asrwt>
<pdfrwt beam="1">  1       21 0.11025638E-01 0.17994592E+03</pdfrwt>
<pdfrwt beam="2">  1       21 0.20137562E+00 0.17994592E+03</pdfrwt>
<totfact> 0.90802246E+03</totfact>
</mgrwt>
</event>
<event>
 4    1  0.1110581E+000  0.1747672E+03  0.7546771E-02  0.1172966E+00
         21   -1    0    0  501  502  0.00000000000E+00  0.00000000000E+00  0.14807436976E+03  0.14807436976E+03  0.00000000000E+00 0. -1.
         21   -1    0    0  502  503 -0.00000000000E+00 -0.00000000000E+00 -0.21830847341E+03  0.21830847341E+03  0.00000000000E+00 0. -1.
          6    1    1    2  501    0  0.30116390676E+02  0.72518471623E+01 -0.78132128390E+02  0.19143723713E+03  0.17200000000E+03 0. -1.
         -6    1    1    2    0  503 -0.30116390676E+02 -0.72518471623E+01  0.78980247435E+01  0.17494560603E+03  0.17200000000E+03 0. -1.
<mgrwt>
<rscale>  2 0.17476723E+03</rscale>
<asrwt>0</asrwt>
<pdfrwt beam="1">  1       21 0.37018593E-01 0.17476723E+03</pdfrwt>
<pdfrwt beam="2">  1       21 0.54577118E-01 0.17476723E+03</pdfrwt>
<totfact> 0.22548907E+04</totfact>
</mgrwt>
</event>
<event>
 4    1  0.1110581E+000  0.1935936E+03  0.7546771E-02  0.1155260E+00
         21   -1    0    0  503  502  0.00000000000E+00  0.00000000000E+00  0.10204850470E+03  0.10204850470E+03  0.00000000000E+00 0.  1.
         21   -1    0    0  501  503 -0.00000000000E+00 -0.00000000000E+00 -0.37614894653E+03  0.37614894653E+03  0.00000000000E+00 0.  1.
          6    1    1    2  501    0  0.11250122876E+01  0.88843733361E+02 -0.10029756053E+03  0.21803228031E+03  0.17200000000E+03 0.  1.
         -6    1    1    2    0  502 -0.11250122876E+01 -0.88843733361E+02 -0.17380288130E+03  0.26016517092E+03  0.17200000000E+03 0.  1.
<mgrwt>
<rscale>  2 0.19359358E+03</rscale>
<asrwt>0</asrwt>
<pdfrwt beam="1">  1       21 0.25512127E-01 0.19359358E+03</pdfrwt>
<pdfrwt beam="2">  1       21 0.94037235E-01 0.19359358E+03</pdfrwt>
<totfact> 0.13815403E+04</totfact>
</mgrwt>
</event>
<event>
 4    1  0.1110581E+000  0.1816646E+03  0.7546771E-02  0.1166202E+00
         21   -1    0    0  501  502  0.00000000000E+00  0.00000000000E+00  0.20102001790E+03  0.20102001790E+03  0.00000000000E+00 0.  1.
         21   -1    0    0  502  503 -0.00000000000E+00 -0.00000000000E+00 -0.24597767895E+03  0.24597767895E+03  0.00000000000E+00 0.  1.
          6    1    1    2  501    0  0.21920644975E+02 -0.54198937056E+02  0.10641044300E+03  0.21053555954E+03  0.17200000000E+03 0.  1.
         -6    1    1    2    0  503 -0.21920644975E+02  0.54198937056E+02 -0.15136810405E+03  0.23646213730E+03  0.17200000000E+03 0.  1.
<mgrwt>
<rscale>  2 0.18166463E+03</rscale>
<asrwt>0</asrwt>
<pdfrwt beam="1">  1       21 0.50255005E-01 0.18166463E+03</pdfrwt>
<pdfrwt beam="2">  1       21 0.61494420E-01 0.18166463E+03</pdfrwt>
<totfact> 0.93373251E+03</totfact>
</mgrwt>
</event>
<event>
 4    1  0.1110581E+000  0.2030174E+03  0.7546771E-02  0.1147218E+00
         21   -1    0    0  503  502  0.00000000000E+00  0.00000000000E+00  0.62580849743E+03  0.62580849743E+03  0.00000000000E+00 0.  1.
         21   -1    0    0  501  503 -0.00000000000E+00 -0.00000000000E+00 -0.44885027105E+03  0.44885027105E+03  0.00000000000E+00 0.  1.
          6    1    1    2  501    0  0.94710340120E+02 -0.51594557580E+02 -0.40786565086E+03  0.45559898600E+03  0.17200000000E+03 0.  1.
         -6    1    1    2    0  502 -0.94710340120E+02  0.51594557580E+02  0.58482387724E+03  0.61905978248E+03  0.17200000000E+03 0.  1.
<mgrwt>
<rscale>  2 0.20301736E+03</rscale>
<asrwt>0</asrwt>
<pdfrwt beam="1">  1       21 0.15645212E+00 0.20301736E+03</pdfrwt>
<pdfrwt beam="2">  1       21 0.11221257E+00 0.20301736E+03</pdfrwt>
<totfact> 0.16415078E+02</totfact>
</mgrwt>
</event>
<event>
 4    1  0.1110581E+000  0.1974790E+03  0.7546771E-02  0.1151884E+00
         21   -1    0    0  501  502  0.00000000000E+00  0.00000000000E+00  0.13770026912E+04  0.13770026912E+04  0.00000000000E+00 0.  1.
         21   -1    0    0  502  503 -0.00000000000E+00 -0.00000000000E+00 -0.29378194945E+02  0.29378194945E+02  0.00000000000E+00 0.  1.
          6    1    1    2  501    0  0.89871293309E+02 -0.36566204422E+02  0.80721392685E+03  0.83101880868E+03  0.17200000000E+03 0.  1.
         -6    1    1    2    0  503 -0.89871293309E+02  0.36566204422E+02  0.54041056937E+03  0.57536207744E+03  0.17200000000E+03 0.  1.
<mgrwt>
<rscale>  2 0.19747895E+03</rscale>
<asrwt>0</asrwt>
<pdfrwt beam="1">  1       21 0.34425046E+00 0.19747895E+03</pdfrwt>
<pdfrwt beam="2">  1       21 0.73445534E-02 0.19747895E+03</pdfrwt>
<totfact> 0.26148262E+03</totfact>
</mgrwt>
</event>
<event>
 4    1  0.1110581E+000  0.1977087E+03  0.7546771E-02  0.1151687E+00
         21   -1    0    0  501  502  0.00000000000E+00  0.00000000000E+00  0.32731246614E+03  0.32731246614E+03  0.00000000000E+00 0.  1.
         21   -1    0    0  502  503 -0.00000000000E+00 -0.00000000000E+00 -0.12676817081E+03  0.12676817081E+03  0.00000000000E+00 0.  1.
          6    1    1    2  501    0 -0.79016196763E+02  0.57106566729E+02  0.15492229767E+03  0.25117650692E+03  0.17200000000E+03 0.  1.
         -6    1    1    2    0  503  0.79016196763E+02 -0.57106566729E+02  0.45621997664E+02  0.20290413003E+03  0.17200000000E+03 0.  1.
<mgrwt>
<rscale>  2 0.19770867E+03</rscale>
<asrwt>0</asrwt>
<pdfrwt beam="1">  1       21 0.81828115E-01 0.19770867E+03</pdfrwt>
<pdfrwt beam="2">  1       21 0.31692043E-01 0.19770867E+03</pdfrwt>
<totfact> 0.12466212E+04</totfact>
</mgrwt>
</event>
<event>
 4    1  0.1110581E+000  0.1907590E+03  0.7546771E-02  0.1157779E+00
         21   -1    0    0  501  502  0.00000000000E+00  0.00000000000E+00  0.14045749937E+03  0.14045749937E+03  0.00000000000E+00 0.  1.
         21   -1    0    0  502  503 -0.00000000000E+00 -0.00000000000E+00 -0.51655017258E+03  0.51655017258E+03  0.00000000000E+00 0.  1.
          6    1    1    2  501    0  0.76671907614E+02  0.30436995426E+02  0.43881072305E+02  0.19574100392E+03  0.17200000000E+03 0.  1.
         -6    1    1    2    0  503 -0.76671907614E+02 -0.30436995426E+02 -0.41997374552E+03  0.46126666803E+03  0.17200000000E+03 0.  1.
<mgrwt>
<rscale>  2 0.19075899E+03</rscale>
<asrwt>0</asrwt>
<pdfrwt beam="1">  1       21 0.35114375E-01 0.19075899E+03</pdfrwt>
<pdfrwt beam="2">  1       21 0.12913754E+00 0.19075899E+03</pdfrwt>
<totfact> 0.34425676E+03</totfact>
</mgrwt>
</event>
<event>
 4    1  0.1110581E+000  0.1948335E+03  0.7546771E-02  0.1154173E+00
         21   -1    0    0  501  502  0.00000000000E+00  0.00000000000E+00  0.40167558494E+03  0.40167558494E+03  0.00000000000E+00 0. -1.
         21   -1    0    0  502  503 -0.00000000000E+00 -0.00000000000E+00 -0.10262832426E+03  0.10262832426E+03  0.00000000000E+00 0.  1.
          6    1    1    2  501    0 -0.31256049020E+02  0.86018331572E+02  0.22046714982E+03  0.29422076425E+03  0.17200000000E+03 0. -1.
         -6    1    1    2    0  503  0.31256049020E+02 -0.86018331572E+02  0.78580110864E+02  0.21008314495E+03  0.17200000000E+03 0.  1.
<mgrwt>
<rscale>  2 0.19483350E+03</rscale>
<asrwt>0</asrwt>
<pdfrwt beam="1">  1       21 0.10041889E+00 0.19483350E+03</pdfrwt>
<pdfrwt beam="2">  1       21 0.25657082E-01 0.19483350E+03</pdfrwt>
<totfact> 0.11699130E+04</totfact>
</mgrwt>
</event>
<event>
 4    1  0.1110581E+000  0.1794655E+03  0.7546771E-02  0.1168321E+00
         21   -1    0    0  501  502  0.00000000000E+00  0.00000000000E+00  0.43331392167E+02  0.43331392167E+02  0.00000000000E+00 0.  1.
         21   -1    0    0  502  503 -0.00000000000E+00 -0.00000000000E+00 -0.10072532812E+04  0.10072532812E+04  0.00000000000E+00 0.  1.
          6    1    1    2  501    0 -0.13701608365E+02 -0.49357188940E+02 -0.21305398524E+03  0.27856752646E+03  0.17200000000E+03 0.  1.
         -6    1    1    2    0  503  0.13701608365E+02  0.49357188940E+02 -0.75086790381E+03  0.77201714692E+03  0.17200000000E+03 0.  1.
<mgrwt>
<rscale>  2 0.17946550E+03</rscale>
<asrwt>0</asrwt>
<pdfrwt beam="1">  1       21 0.10832849E-01 0.17946550E+03</pdfrwt>
<pdfrwt beam="2">  1       21 0.25181331E+00 0.17946550E+03</pdfrwt>
<totfact> 0.46349908E+03</totfact>
</mgrwt>
</event>
<event>
 4    1  0.1110581E+000  0.2001287E+03  0.7546771E-02  0.1149630E+00
         21   -1    0    0  503  502  0.00000000000E+00  0.00000000000E+00  0.11836320688E+03  0.11836320688E+03  0.00000000000E+00 0.  1.
         21   -1    0    0  501  503 -0.00000000000E+00 -0.00000000000E+00 -0.85819065520E+03  0.85819065520E+03  0.00000000000E+00 0.  1.
          6    1    1    2  501    0 -0.35860943613E+02 -0.95820080308E+02 -0.74992613081E+03  0.77617053329E+03  0.17200000000E+03 0.  1.
         -6    1    1    2    0  502  0.35860943613E+02  0.95820080308E+02  0.10098682498E+02  0.20038332879E+03  0.17200000000E+03 0.  1.
<mgrwt>
<rscale>  2 0.20012870E+03</rscale>
<asrwt>0</asrwt>
<pdfrwt beam="1">  1       21 0.29590802E-01 0.20012870E+03</pdfrwt>
<pdfrwt beam="2">  1       21 0.21454766E+00 0.20012870E+03</pdfrwt>
<totfact> 0.11797994E+03</totfact>
</mgrwt>
</event>
<event>
 4    1  0.1110581E+000  0.2050014E+03  0.7546771E-02  0.1145587E+00
         21   -1    0    0  503  502  0.00000000000E+00  0.00000000000E+00  0.83289695080E+02  0.83289695080E+02  0.00000000000E+00 0.  1.
         21   -1    0    0  501  503 -0.00000000000E+00 -0.00000000000E+00 -0.53212799290E+03  0.53212799290E+03  0.00000000000E+00 0.  1.
          6    1    1    2  501    0 -0.10832088888E+03 -0.26611572122E+02 -0.29444290100E+03  0.35877877960E+03  0.17200000000E+03 0.  1.
         -6    1    1    2    0  502  0.10832088888E+03  0.26611572122E+02 -0.15439539682E+03  0.25663890839E+03  0.17200000000E+03 0.  1.
<mgrwt>
<rscale>  2 0.20500144E+03</rscale>
<asrwt>0</asrwt>
<pdfrwt beam="1">  1       21 0.20822424E-01 0.20500144E+03</pdfrwt>
<pdfrwt beam="2">  1       21 0.13303200E+00 0.20500144E+03</pdfrwt>
<totfact> 0.86483664E+03</totfact>
</mgrwt>
</event>
<event>
 4    1  0.1110581E+000  0.2576671E+03  0.7546771E-02  0.1108553E+00
         21   -1    0    0  501  502  0.00000000000E+00  0.00000000000E+00  0.67284378244E+02  0.67284378244E+02  0.00000000000E+00 0. -1.
         21   -1    0    0  502  503 -0.00000000000E+00 -0.00000000000E+00 -0.10283791506E+04  0.10283791506E+04  0.00000000000E+00 0.  1.
          6    1    1    2  501    0  0.15921691966E+03 -0.10704351392E+03 -0.37031490739E+03  0.45113797448E+03  0.17200000000E+03 0. -1.
         -6    1    1    2    0  503 -0.15921691966E+03  0.10704351392E+03 -0.59077986496E+03  0.64452555436E+03  0.17200000000E+03 0. -1.
<mgrwt>
<rscale>  2 0.25766711E+03</rscale>
<asrwt>0</asrwt>
<pdfrwt beam="1">  1       21 0.16821095E-01 0.25766711E+03</pdfrwt>
<pdfrwt beam="2">  1       21 0.25709478E+00 0.25766711E+03</pdfrwt>
<totfact> 0.17982193E+03</totfact>
</mgrwt>
</event>
<event>
 4    1  0.1110581E+000  0.1913127E+03  0.7546771E-02  0.1157283E+00
         21   -1    0    0  501  502  0.00000000000E+00  0.00000000000E+00  0.10896749544E+03  0.10896749544E+03  0.00000000000E+00 0.  1.
         21   -1    0    0  502  503 -0.00000000000E+00 -0.00000000000E+00 -0.66731894588E+03  0.66731894588E+03  0.00000000000E+00 0.  1.
          6    1    1    2  501    0  0.73853530336E+02 -0.39524522609E+02 -0.56338223690E+01  0.19139558977E+03  0.17200000000E+03 0.  1.
         -6    1    1    2    0  503 -0.73853530336E+02  0.39524522609E+02 -0.55271762808E+03  0.58489085154E+03  0.17200000000E+03 0.  1.
<mgrwt>
<rscale>  2 0.19131265E+03</rscale>
<asrwt>0</asrwt>
<pdfrwt beam="1">  1       21 0.27241874E-01 0.19131265E+03</pdfrwt>
<pdfrwt beam="2">  1       21 0.16682973E+00 0.19131265E+03</pdfrwt>
<totfact> 0.28902178E+03</totfact>
</mgrwt>
</event>
<event>
 4    1  0.1110581E+000  0.2845316E+03  0.7546771E-02  0.1093239E+00
         21   -1    0    0  501  502  0.00000000000E+00  0.00000000000E+00  0.14375858711E+03  0.14375858711E+03  0.00000000000E+00 0.  1.
         21   -1    0    0  502  503 -0.00000000000E+00 -0.00000000000E+00 -0.59567872535E+03  0.59567872535E+03  0.00000000000E+00 0. -1.
          6    1    1    2  501    0 -0.20043909447E+03 -0.10582262453E+03 -0.13956866944E+03  0.31691903058E+03  0.17200000000E+03 0.  1.
         -6    1    1    2    0  503  0.20043909447E+03  0.10582262453E+03 -0.31235146881E+03  0.42251828188E+03  0.17200000000E+03 0. -1.
<mgrwt>
<rscale>  2 0.28453165E+03</rscale>
<asrwt>0</asrwt>
<pdfrwt beam="1">  1       21 0.35939647E-01 0.28453165E+03</pdfrwt>
<pdfrwt beam="2">  1       21 0.14891968E+00 0.28453165E+03</pdfrwt>
<totfact> 0.21151746E+03</totfact>
</mgrwt>
</event>
<event>
 4    1  0.1110581E+000  0.1834252E+03  0.7546771E-02  0.1164529E+00
         21   -1    0    0  501  502  0.00000000000E+00  0.00000000000E+00  0.15291611040E+03  0.15291611040E+03  0.00000000000E+00 0.  1.
         21   -1    0    0  502  503 -0.00000000000E+00 -0.00000000000E+00 -0.22013656238E+03  0.22013656238E+03  0.00000000000E+00 0.  1.
          6    1    1    2  501    0 -0.14451332054E+02  0.62064325293E+02 -0.29344524865E+02  0.18575769866E+03  0.17200000000E+03 0.  1.
         -6    1    1    2    0  503  0.14451332054E+02 -0.62064325293E+02 -0.37875927116E+02  0.18729497411E+03  0.17200000000E+03 0.  1.
<mgrwt>
<rscale>  2 0.18342525E+03</rscale>
<asrwt>0</asrwt>
<pdfrwt beam="1">  1       21 0.38229028E-01 0.18342525E+03</pdfrwt>
<pdfrwt beam="2">  1       21 0.55034140E-01 0.18342525E+03</pdfrwt>
<totfact> 0.20667085E+04</totfact>
</mgrwt>
</event>
<event>
 4    1  0.1110581E+000  0.1941555E+03  0.7546771E-02  0.1154766E+00
         21   -1    0    0  501  502  0.00000000000E+00  0.00000000000E+00  0.13490312736E+03  0.13490312736E+03  0.00000000000E+00 0.  1.
         21   -1    0    0  502  503 -0.00000000000E+00 -0.00000000000E+00 -0.33313727751E+03  0.33313727751E+03  0.00000000000E+00 0.  1.
          6    1    1    2  501    0  0.87226664655E+02 -0.22447107711E+02 -0.51562480689E+01  0.19422397011E+03  0.17200000000E+03 0.  1.
         -6    1    1    2    0  503 -0.87226664655E+02  0.22447107711E+02 -0.19307790208E+03  0.27381643476E+03  0.17200000000E+03 0.  1.
<mgrwt>
<rscale>  2 0.19415551E+03</rscale>
<asrwt>0</asrwt>
<pdfrwt beam="1">  1       21 0.33725782E-01 0.19415551E+03</pdfrwt>
<pdfrwt beam="2">  1       21 0.83284319E-01 0.19415551E+03</pdfrwt>
<totfact> 0.10621258E+04</totfact>
</mgrwt>
</event>
<event>
 4    1  0.1110581E+000  0.2181774E+03  0.7546771E-02  0.1135249E+00
         21   -1    0    0  503  502  0.00000000000E+00  0.00000000000E+00  0.35805374402E+03  0.35805374402E+03  0.00000000000E+00 0.  1.
         21   -1    0    0  501  503 -0.00000000000E+00 -0.00000000000E+00 -0.15146587672E+03  0.15146587672E+03  0.00000000000E+00 0.  1.
          6    1    1    2  501    0 -0.13161107238E+03  0.26380185209E+02  0.14208548499E+02  0.21863959247E+03  0.17200000000E+03 0.  1.
         -6    1    1    2    0  502  0.13161107238E+03 -0.26380185209E+02  0.19237931880E+03  0.29088002827E+03  0.17200000000E+03 0.  1.
<mgrwt>
<rscale>  2 0.21817742E+03</rscale>
<asrwt>0</asrwt>
<pdfrwt beam="1">  1       21 0.89513434E-01 0.21817742E+03</pdfrwt>
<pdfrwt beam="2">  1       21 0.37866470E-01 0.21817742E+03</pdfrwt>
<totfact> 0.70249215E+03</totfact>
</mgrwt>
</event>
<event>
 4    1  0.1110581E+000  0.1940446E+03  0.7546771E-02  0.1154863E+00
         21   -1    0    0  501  502  0.00000000000E+00  0.00000000000E+00  0.28952463612E+03  0.28952463612E+03  0.00000000000E+00 0.  1.
         21   -1    0    0  502  503 -0.00000000000E+00 -0.00000000000E+00 -0.18375422816E+03  0.18375422816E+03  0.00000000000E+00 0.  1.
          6    1    1    2  501    0 -0.87736821140E+02  0.19276090505E+02  0.18081266075E+03  0.26522921358E+03  0.17200000000E+03 0.  1.
         -6    1    1    2    0  503  0.87736821140E+02 -0.19276090505E+02 -0.75042252795E+02  0.20804965069E+03  0.17200000000E+03 0.  1.
<mgrwt>
<rscale>  2 0.19404463E+03</rscale>
<asrwt>0</asrwt>
<pdfrwt beam="1">  1       21 0.72381158E-01 0.19404463E+03</pdfrwt>
<pdfrwt beam="2">  1       21 0.45938557E-01 0.19404463E+03</pdfrwt>
<totfact> 0.78078178E+03</totfact>
</mgrwt>
</event>
<event>
 4    1  0.1110581E+000  0.1828099E+03  0.7546771E-02  0.1165111E+00
         21   -1    0    0  503  502  0.00000000000E+00  0.00000000000E+00  0.28612309889E+03  0.28612309889E+03  0.00000000000E+00 0.  1.
         21   -1    0    0  501  503 -0.00000000000E+00 -0.00000000000E+00 -0.17498656203E+03  0.17498656203E+03  0.00000000000E+00 0.  1.
          6    1    1    2  501    0  0.20288775452E+01  0.61897945930E+02 -0.77378990974E+02  0.19851191475E+03  0.17200000000E+03 0.  1.
         -6    1    1    2    0  502 -0.20288775452E+01 -0.61897945930E+02  0.18851552784E+03  0.26259774616E+03  0.17200000000E+03 0.  1.
<mgrwt>
<rscale>  2 0.18280993E+03</rscale>
<asrwt>0</asrwt>
<pdfrwt beam="1">  1       21 0.71530774E-01 0.18280993E+03</pdfrwt>
<pdfrwt beam="2">  1       21 0.43746641E-01 0.18280993E+03</pdfrwt>
<totfact> 0.89315032E+03</totfact>
</mgrwt>
</event>
<event>
 4    1  0.1110581E+000  0.1764150E+03  0.7546771E-02  0.1171318E+00
         21   -1    0    0  501  502  0.00000000000E+00  0.00000000000E+00  0.20515183108E+03  0.20515183108E+03  0.00000000000E+00 0. -1.
         21   -1    0    0  502  503 -0.00000000000E+00 -0.00000000000E+00 -0.15172135004E+03  0.15172135004E+03  0.00000000000E+00 0. -1.
          6    1    1    2  501    0 -0.17289088613E+02 -0.35204130214E+02  0.24777834136E+02  0.17814652518E+03  0.17200000000E+03 0. -1.
         -6    1    1    2    0  503  0.17289088613E+02  0.35204130214E+02  0.28652646906E+02  0.17872665594E+03  0.17200000000E+03 0. -1.
<mgrwt>
<rscale>  2 0.17641497E+03</rscale>
<asrwt>0</asrwt>
<pdfrwt beam="1">  1       21 0.51287958E-01 0.17641497E+03</pdfrwt>
<pdfrwt beam="2">  1       21 0.37930338E-01 0.17641497E+03</pdfrwt>
<totfact> 0.24446882E+04</totfact>
</mgrwt>
</event>
<event>
 4    1  0.1110581E+000  0.1752740E+03  0.7546771E-02  0.1172457E+00
         21   -1    0    0  503  502  0.00000000000E+00  0.00000000000E+00  0.52024192243E+03  0.52024192243E+03  0.00000000000E+00 0.  1.
         21   -1    0    0  501  503 -0.00000000000E+00 -0.00000000000E+00 -0.12124498027E+03  0.12124498027E+03  0.00000000000E+00 0.  1.
          6    1    1    2  501    0 -0.33573727778E+02 -0.31285418415E+01 -0.30221578319E+02  0.17786041372E+03  0.17200000000E+03 0.  1.
         -6    1    1    2    0  502  0.33573727778E+02  0.31285418415E+01  0.42921852047E+03  0.46362648899E+03  0.17200000000E+03 0.  1.
<mgrwt>
<rscale>  2 0.17527402E+03</rscale>
<asrwt>0</asrwt>
<pdfrwt beam="1">  1       21 0.13006047E+00 0.17527402E+03</pdfrwt>
<pdfrwt beam="2">  1       21 0.30311246E-01 0.17527402E+03</pdfrwt>
<totfact> 0.45765904E+03</totfact>
</mgrwt>
</event>
<event>
 4    1  0.1110581E+000  0.3613275E+03  0.7546771E-02  0.1058059E+00
         21   -1    0    0  501  502  0.00000000000E+00  0.00000000000E+00  0.15808288148E+03  0.15808288148E+03  0.00000000000E+00 0. -1.
         21   -1    0    0  502  503 -0.00000000000E+00 -0.00000000000E+00 -0.96855971318E+03  0.96855971318E+03  0.00000000000E+00 0. -1.
          6    1    1    2  501    0 -0.29130804641E+03  0.12693768327E+03 -0.62144727040E+03  0.71885621874E+03  0.17200000000E+03 0. -1.
         -6    1    1    2    0  503  0.29130804641E+03 -0.12693768327E+03 -0.18902956130E+03  0.40778637592E+03  0.17200000000E+03 0. -1.
<mgrwt>
<rscale>  2 0.36132749E+03</rscale>
<asrwt>0</asrwt>
<pdfrwt beam="1">  1       21 0.39520721E-01 0.36132749E+03</pdfrwt>
<pdfrwt beam="2">  1       21 0.24213992E+00 0.36132749E+03</pdfrwt>
<totfact> 0.38934457E+02</totfact>
</mgrwt>
</event>
<event>
 4    1  0.1110581E+000  0.1924356E+03  0.7546771E-02  0.1156283E+00
         21   -1    0    0  501  502  0.00000000000E+00  0.00000000000E+00  0.15626197055E+03  0.15626197055E+03  0.00000000000E+00 0. -1.
         21   -1    0    0  502  503 -0.00000000000E+00 -0.00000000000E+00 -0.34999187994E+03  0.34999187994E+03  0.00000000000E+00 0.  1.
          6    1    1    2  501    0 -0.86224417203E+02 -0.35765936153E+01  0.46970351561E+02  0.19808497184E+03  0.17200000000E+03 0. -1.
         -6    1    1    2    0  503  0.86224417203E+02  0.35765936153E+01 -0.24070026095E+03  0.30816887864E+03  0.17200000000E+03 0.  1.
<mgrwt>
<rscale>  2 0.19243555E+03</rscale>
<asrwt>0</asrwt>
<pdfrwt beam="1">  1       21 0.39065493E-01 0.19243555E+03</pdfrwt>
<pdfrwt beam="2">  1       21 0.87497970E-01 0.19243555E+03</pdfrwt>
<totfact> 0.70850102E+03</totfact>
</mgrwt>
</event>
<event>
 4    1  0.1110581E+000  0.1770022E+03  0.7546771E-02  0.1170736E+00
         21   -1    0    0  503  502  0.00000000000E+00  0.00000000000E+00  0.32039960901E+03  0.32039960901E+03  0.00000000000E+00 0.  1.
         21   -1    0    0  501  503 -0.00000000000E+00 -0.00000000000E+00 -0.17027239423E+03  0.17027239423E+03  0.00000000000E+00 0.  1.
          6    1    1    2  501    0  0.16834744377E+02  0.38240724926E+02 -0.85012019908E+02  0.19635886838E+03  0.17200000000E+03 0.  1.
         -6    1    1    2    0  502 -0.16834744377E+02 -0.38240724926E+02  0.23513923469E+03  0.29431313486E+03  0.17200000000E+03 0.  1.
<mgrwt>
<rscale>  2 0.17700215E+03</rscale>
<asrwt>0</asrwt>
<pdfrwt beam="1">  1       21 0.80099901E-01 0.17700215E+03</pdfrwt>
<pdfrwt beam="2">  1       21 0.42568099E-01 0.17700215E+03</pdfrwt>
<totfact> 0.73667627E+03</totfact>
</mgrwt>
</event>
<event>
 4    1  0.1110581E+000  0.1720164E+03  0.7546771E-02  0.1175761E+00
         21   -1    0    0  503  502  0.00000000000E+00  0.00000000000E+00  0.19983872576E+02  0.19983872576E+02  0.00000000000E+00 0. -1.
         21   -1    0    0  501  503 -0.00000000000E+00 -0.00000000000E+00 -0.15191422685E+04  0.15191422685E+04  0.00000000000E+00 0. -1.
          6    1    1    2  501    0 -0.10684579290E+01  0.21235350534E+01 -0.87203575930E+03  0.88883970237E+03  0.17200000000E+03 0. -1.
         -6    1    1    2    0  502  0.10684579290E+01 -0.21235350534E+01 -0.62712263662E+03  0.65028643871E+03  0.17200000000E+03 0. -1.
<mgrwt>
<rscale>  2 0.17201643E+03</rscale>
<asrwt>0</asrwt>
<pdfrwt beam="1">  1       21 0.49959680E-02 0.17201643E+03</pdfrwt>
<pdfrwt beam="2">  1       21 0.37978558E+00 0.17201643E+03</pdfrwt>
<totfact> 0.32201126E+03</totfact>
</mgrwt>
</event>
<event>
 4    1  0.1110581E+000  0.2524203E+03  0.7546771E-02  0.1111785E+00
         21   -1    0    0  501  502  0.00000000000E+00  0.00000000000E+00  0.12018529357E+04  0.12018529357E+04  0.00000000000E+00 0. -1.
         21   -1    0    0  502  503 -0.00000000000E+00 -0.00000000000E+00 -0.62601905294E+02  0.62601905294E+02  0.00000000000E+00 0. -1.
          6    1    1    2  501    0  0.97108183858E+02  0.15716872058E+03  0.32221220823E+03  0.40931248849E+03  0.17200000000E+03 0. -1.
         -6    1    1    2    0  503 -0.97108183858E+02 -0.15716872058E+03  0.81703882218E+03  0.85514235250E+03  0.17200000000E+03 0. -1.
<mgrwt>
<rscale>  2 0.25242030E+03</rscale>
<asrwt>0</asrwt>
<pdfrwt beam="1">  1       21 0.30046316E+00 0.25242030E+03</pdfrwt>
<pdfrwt beam="2">  1       21 0.15650480E-01 0.25242030E+03</pdfrwt>
<totfact> 0.11487083E+03</totfact>
</mgrwt>
</event>
<event>
 4    1  0.1110581E+000  0.1746518E+03  0.7546771E-02  0.1173082E+00
         21   -1    0    0  501  502  0.00000000000E+00  0.00000000000E+00  0.96611018811E+03  0.96611018811E+03  0.00000000000E+00 0.  1.
         21   -1    0    0  502  503 -0.00000000000E+00 -0.00000000000E+00 -0.31789459148E+02  0.31789459148E+02  0.00000000000E+00 0.  1.
          6    1    1    2  501    0 -0.24977705321E+02 -0.17186595730E+02  0.50830611166E+03  0.53747406262E+03  0.17200000000E+03 0.  1.
         -6    1    1    2    0  503  0.24977705321E+02  0.17186595730E+02  0.42601461730E+03  0.46042558464E+03  0.17200000000E+03 0.  1.
<mgrwt>
<rscale>  2 0.17465184E+03</rscale>
<asrwt>0</asrwt>
<pdfrwt beam="1">  1       21 0.24152745E+00 0.17465184E+03</pdfrwt>
<pdfrwt beam="2">  1       21 0.79473680E-02 0.17465184E+03</pdfrwt>
<totfact> 0.92184160E+03</totfact>
</mgrwt>
</event>
<event>
 4    1  0.1110581E+000  0.1761785E+03  0.7546771E-02  0.1171554E+00
         21   -1    0    0  503  502  0.00000000000E+00  0.00000000000E+00  0.81777598279E+03  0.81777598279E+03  0.00000000000E+00 0.  1.
         21   -1    0    0  501  503 -0.00000000000E+00 -0.00000000000E+00 -0.40332900851E+02  0.40332900851E+02  0.00000000000E+00 0.  1.
          6    1    1    2  501    0  0.33892437702E+01  0.37991707415E+02  0.28454723176E+03  0.33467295067E+03  0.17200000000E+03 0.  1.
         -6    1    1    2    0  502 -0.33892437702E+01 -0.37991707415E+02  0.49289585017E+03  0.52343593297E+03  0.17200000000E+03 0.  1.
<mgrwt>
<rscale>  2 0.17617848E+03</rscale>
<asrwt>0</asrwt>
<pdfrwt beam="1">  1       21 0.20444394E+00 0.17617848E+03</pdfrwt>
<pdfrwt beam="2">  1       21 0.10083228E-01 0.17617848E+03</pdfrwt>
<totfact> 0.10204106E+04</totfact>
</mgrwt>
</event>
<event>
 4    1  0.1110581E+000  0.1842930E+03  0.7546771E-02  0.1163712E+00
         21   -1    0    0  503  502  0.00000000000E+00  0.00000000000E+00  0.14884318304E+03  0.14884318304E+03  0.00000000000E+00 0. -1.
         21   -1    0    0  501  503 -0.00000000000E+00 -0.00000000000E+00 -0.79139714257E+03  0.79139714257E+03  0.00000000000E+00 0. -1.
          6    1    1    2  501    0  0.61559494763E+02 -0.24296843521E+02 -0.71787205458E+03  0.74115058844E+03  0.17200000000E+03 0. -1.
         -6    1    1    2    0  502 -0.61559494763E+02  0.24296843521E+02  0.75318095058E+02  0.19908973716E+03  0.17200000000E+03 0. -1.
<mgrwt>
<rscale>  2 0.18429299E+03</rscale>
<asrwt>0</asrwt>
<pdfrwt beam="1">  1       21 0.37210796E-01 0.18429299E+03</pdfrwt>
<pdfrwt beam="2">  1       21 0.19784928E+00 0.18429299E+03</pdfrwt>
<totfact> 0.97487693E+02</totfact>
</mgrwt>
</event>
<event>
 4    1  0.1110581E+000  0.1764848E+03  0.7546771E-02  0.1171249E+00
         21   -1    0    0  503  502  0.00000000000E+00  0.00000000000E+00  0.93898307574E+03  0.93898307574E+03  0.00000000000E+00 0.  1.
         21   -1    0    0  501  503 -0.00000000000E+00 -0.00000000000E+00 -0.18296992144E+03  0.18296992144E+03  0.00000000000E+00 0.  1.
          6    1    1    2  501    0  0.33615790108E+02  0.20805082275E+02 -0.12957911063E+03  0.21894661154E+03  0.17200000000E+03 0.  1.
         -6    1    1    2    0  502 -0.33615790108E+02 -0.20805082275E+02  0.88559226494E+03  0.90300638564E+03  0.17200000000E+03 0.  1.
<mgrwt>
<rscale>  2 0.17648477E+03</rscale>
<asrwt>0</asrwt>
<pdfrwt beam="1">  1       21 0.23474576E+00 0.17648477E+03</pdfrwt>
<pdfrwt beam="2">  1       21 0.45742483E-01 0.17648477E+03</pdfrwt>
<totfact> 0.38371436E+02</totfact>
</mgrwt>
</event>
<event>
 4    1  0.1110581E+000  0.1903832E+03  0.7546771E-02  0.1158116E+00
         21   -1    0    0  501  502  0.00000000000E+00  0.00000000000E+00  0.16533019926E+04  0.16533019926E+04  0.00000000000E+00 0.  1.
         21   -1    0    0  502  503 -0.00000000000E+00 -0.00000000000E+00 -0.32460422778E+02  0.32460422778E+02  0.00000000000E+00 0.  1.
          6    1    1    2  501    0 -0.70376627638E+02 -0.41338982127E+02  0.12906526611E+04  0.13046187462E+04  0.17200000000E+03 0.  1.
         -6    1    1    2    0  503  0.70376627638E+02  0.41338982127E+02  0.33018890871E+03  0.38114366923E+03  0.17200000000E+03 0.  1.
<mgrwt>
<rscale>  2 0.19038325E+03</rscale>
<asrwt>0</asrwt>
<pdfrwt beam="1">  1       21 0.41332522E+00 0.19038325E+03</pdfrwt>
<pdfrwt beam="2">  1       21 0.81151112E-02 0.19038325E+03</pdfrwt>
<totfact> 0.84433941E+02</totfact>
</mgrwt>
</event>
<event>
 4    1  0.1110581E+000  0.2095379E+03  0.7546771E-02  0.1141932E+00
         21   -1    0    0  501  502  0.00000000000E+00  0.00000000000E+00  0.11587603066E+04  0.11587603066E+04  0.00000000000E+00 0. -1.
         21   -1    0    0  502  503 -0.00000000000E+00 -0.00000000000E+00 -0.10049006012E+03  0.10049006012E+03  0.00000000000E+00 0. -1.
          6    1    1    2  501    0  0.31568959849E+02 -0.11543623423E+03  0.10260772688E+04  0.10472538780E+04  0.17200000000E+03 0. -1.
         -6    1    1    2    0  503 -0.31568959849E+02  0.11543623423E+03  0.32192977595E+02  0.21199648866E+03  0.17200000000E+03 0. -1.
<mgrwt>
<rscale>  2 0.20953788E+03</rscale>
<asrwt>0</asrwt>
<pdfrwt beam="1">  1       21 0.28969003E+00 0.20953788E+03</pdfrwt>
<pdfrwt beam="2">  1       21 0.25122519E-01 0.20953788E+03</pdfrwt>
<totfact> 0.57404032E+02</totfact>
</mgrwt>
</event>
<event>
 4    1  0.1110581E+000  0.1762581E+03  0.7546771E-02  0.1171474E+00
         21   -1    0    0  503  502  0.00000000000E+00  0.00000000000E+00  0.59034614509E+03  0.59034614509E+03  0.00000000000E+00 0. -1.
         21   -1    0    0  501  503 -0.00000000000E+00 -0.00000000000E+00 -0.59311133677E+02  0.59311133677E+02  0.00000000000E+00 0. -1.
          6    1    1    2  501    0  0.14780091351E+02 -0.35559227056E+02  0.15645466199E+03  0.23567980606E+03  0.17200000000E+03 0. -1.
         -6    1    1    2    0  502 -0.14780091351E+02  0.35559227056E+02  0.37458034943E+03  0.41397747271E+03  0.17200000000E+03 0. -1.
<mgrwt>
<rscale>  2 0.17625808E+03</rscale>
<asrwt>0</asrwt>
<pdfrwt beam="1">  1       21 0.14758652E+00 0.17625808E+03</pdfrwt>
<pdfrwt beam="2">  1       21 0.14827785E-01 0.17625808E+03</pdfrwt>
<totfact> 0.12648060E+04</totfact>
</mgrwt>
</event>
<event>
 4    1  0.1110581E+000  0.2281066E+03  0.7546771E-02  0.1127980E+00
         21   -1    0    0  501  502  0.00000000000E+00  0.00000000000E+00  0.98586315904E+03  0.98586315904E+03  0.00000000000E+00 0. -1.
         21   -1    0    0  502  503 -0.00000000000E+00 -0.00000000000E+00 -0.53522449565E+02  0.53522449565E+02  0.00000000000E+00 0. -1.
          6    1    1    2  501    0  0.11131532855E+03 -0.10028722695E+03  0.52743021189E+03  0.57464359273E+03  0.17200000000E+03 0. -1.
         -6    1    1    2    0  503 -0.11131532855E+03  0.10028722695E+03  0.40491049759E+03  0.46474201587E+03  0.17200000000E+03 0. -1.
<mgrwt>
<rscale>  2 0.22810662E+03</rscale>
<asrwt>0</asrwt>
<pdfrwt beam="1">  1       21 0.24646573E+00 0.22810662E+03</pdfrwt>
<pdfrwt beam="2">  1       21 0.13380616E-01 0.22810662E+03</pdfrwt>
<totfact> 0.32475683E+03</totfact>
</mgrwt>
</event>
<event>
 4    1  0.1110581E+000  0.2091811E+03  0.7546771E-02  0.1142216E+00
         21   -1    0    0  501  502  0.00000000000E+00  0.00000000000E+00  0.97627655692E+02  0.97627655692E+02  0.00000000000E+00 0.  1.
         21   -1    0    0  502  503 -0.00000000000E+00 -0.00000000000E+00 -0.58142574071E+03  0.58142574071E+03  0.00000000000E+00 0. -1.
          6    1    1    2  501    0 -0.10460881240E+03  0.56830692607E+02 -0.79373880452E+02  0.22373409251E+03  0.17200000000E+03 0.  1.
         -6    1    1    2    0  503  0.10460881240E+03 -0.56830692607E+02 -0.40442420456E+03  0.45531930389E+03  0.17200000000E+03 0. -1.
<mgrwt>
<rscale>  2 0.20918110E+03</rscale>
<asrwt>0</asrwt>
<pdfrwt beam="1">  1       21 0.24406914E-01 0.20918110E+03</pdfrwt>
<pdfrwt beam="2">  1       21 0.14535643E+00 0.20918110E+03</pdfrwt>
<totfact> 0.50772978E+03</totfact>
</mgrwt>
</event>
<event>
 4    1  0.1110581E+000  0.2082078E+03  0.7546771E-02  0.1142993E+00
         21   -1    0    0  503  502  0.00000000000E+00  0.00000000000E+00  0.17838918669E+03  0.17838918669E+03  0.00000000000E+00 0.  1.
         21   -1    0    0  501  503 -0.00000000000E+00 -0.00000000000E+00 -0.28184891202E+03  0.28184891202E+03  0.00000000000E+00 0.  1.
          6    1    1    2  501    0 -0.10060441106E+03  0.60375841309E+02 -0.13715264920E+03  0.24932175782E+03  0.17200000000E+03 0.  1.
         -6    1    1    2    0  502  0.10060441106E+03 -0.60375841309E+02  0.33692923867E+02  0.21091634089E+03  0.17200000000E+03 0.  1.
<mgrwt>
<rscale>  2 0.20820780E+03</rscale>
<asrwt>0</asrwt>
<pdfrwt beam="1">  1       21 0.44597297E-01 0.20820780E+03</pdfrwt>
<pdfrwt beam="2">  1       21 0.70462227E-01 0.20820780E+03</pdfrwt>
<totfact> 0.87191864E+03</totfact>
</mgrwt>
</event>
<event>
 4    1  0.1110581E+000  0.1847082E+03  0.7546771E-02  0.1163323E+00
         21   -1    0    0  503  502  0.00000000000E+00  0.00000000000E+00  0.86470217209E+02  0.86470217209E+02  0.00000000000E+00 0. -1.
         21   -1    0    0  501  503 -0.00000000000E+00 -0.00000000000E+00 -0.62453619630E+03  0.62453619630E+03  0.00000000000E+00 0. -1.
          6    1    1    2  501    0  0.65089772921E+02 -0.17217789524E+02 -0.48476383869E+03  0.51876113012E+03  0.17200000000E+03 0. -1.
         -6    1    1    2    0  502 -0.65089772921E+02  0.17217789524E+02 -0.53302140394E+02  0.19224528339E+03  0.17200000000E+03 0. -1.
<mgrwt>
<rscale>  2 0.18470823E+03</rscale>
<asrwt>0</asrwt>
<pdfrwt beam="1">  1       21 0.21617555E-01 0.18470823E+03</pdfrwt>
<pdfrwt beam="2">  1       21 0.15613405E+00 0.18470823E+03</pdfrwt>
<totfact> 0.53990963E+03</totfact>
</mgrwt>
</event>
<event>
 4    1  0.1110581E+000  0.2371597E+03  0.7546771E-02  0.1121700E+00
         21   -1    0    0  501  502  0.00000000000E+00  0.00000000000E+00  0.54162408784E+03  0.54162408784E+03  0.00000000000E+00 0. -1.
         21   -1    0    0  502  503 -0.00000000000E+00 -0.00000000000E+00 -0.11677274895E+03  0.11677274895E+03  0.00000000000E+00 0. -1.
          6    1    1    2  501    0  0.15859017815E+03 -0.38857373465E+02  0.32196121065E+03  0.39987968346E+03  0.17200000000E+03 0. -1.
         -6    1    1    2    0  503 -0.15859017815E+03  0.38857373465E+02  0.10289012824E+03  0.25851715334E+03  0.17200000000E+03 0. -1.
<mgrwt>
<rscale>  2 0.23715974E+03</rscale>
<asrwt>0</asrwt>
<pdfrwt beam="1">  1       21 0.13540602E+00 0.23715974E+03</pdfrwt>
<pdfrwt beam="2">  1       21 0.29193189E-01 0.23715974E+03</pdfrwt>
<totfact> 0.42306312E+03</totfact>
</mgrwt>
</event>
<event>
 4    1  0.1110581E+000  0.2389647E+03  0.7546771E-02  0.1120484E+00
         21   -1    0    0  503  502  0.00000000000E+00  0.00000000000E+00  0.46390937133E+03  0.46390937133E+03  0.00000000000E+00 0.  1.
         21   -1    0    0  501  503 -0.00000000000E+00 -0.00000000000E+00 -0.12730979282E+03  0.12730979282E+03  0.00000000000E+00 0. -1.
          6    1    1    2  501    0 -0.38575766254E+01 -0.16584709310E+03  0.22209738484E+03  0.32623823739E+03  0.17200000000E+03 0.  1.
         -6    1    1    2    0  502  0.38575766254E+01  0.16584709310E+03  0.11450219368E+03  0.26498092675E+03  0.17200000000E+03 0. -1.
<mgrwt>
<rscale>  2 0.23896472E+03</rscale>
<asrwt>0</asrwt>
<pdfrwt beam="1">  1       21 0.11597734E+00 0.23896472E+03</pdfrwt>
<pdfrwt beam="2">  1       21 0.31827449E-01 0.23896472E+03</pdfrwt>
<totfact> 0.52683601E+03</totfact>
</mgrwt>
</event>
<event>
 4    1  0.1110581E+000  0.1839439E+03  0.7546771E-02  0.1164040E+00
         21   -1    0    0  501  502  0.00000000000E+00  0.00000000000E+00  0.68309209003E+03  0.68309209003E+03  0.00000000000E+00 0. -1.
         21   -1    0    0  502  503 -0.00000000000E+00 -0.00000000000E+00 -0.49532685868E+02  0.49532685868E+02  0.00000000000E+00 0. -1.
          6    1    1    2  501    0 -0.49129917804E+02 -0.42867498382E+02  0.31653847460E+03  0.36610377920E+03  0.17200000000E+03 0. -1.
         -6    1    1    2    0  503  0.49129917804E+02  0.42867498382E+02  0.31702092956E+03  0.36652099670E+03  0.17200000000E+03 0. -1.
<mgrwt>
<rscale>  2 0.18394394E+03</rscale>
<asrwt>0</asrwt>
<pdfrwt beam="1">  1       21 0.17077299E+00 0.18394394E+03</pdfrwt>
<pdfrwt beam="2">  1       21 0.12383174E-01 0.18394394E+03</pdfrwt>
<totfact> 0.11768384E+04</totfact>
</mgrwt>
</event>
<event>
 4    1  0.1110581E+000  0.2508111E+03  0.7546771E-02  0.1112793E+00
         21   -1    0    0  501  502  0.00000000000E+00  0.00000000000E+00  0.21250578359E+03  0.21250578359E+03  0.00000000000E+00 0. -1.
         21   -1    0    0  502  503 -0.00000000000E+00 -0.00000000000E+00 -0.34352335467E+03  0.34352335467E+03  0.00000000000E+00 0. -1.
          6    1    1    2  501    0  0.15370726802E+03  0.98469792140E+02  0.37873450765E+02  0.25365453373E+03  0.17200000000E+03 0. -1.
         -6    1    1    2    0  503 -0.15370726802E+03 -0.98469792140E+02 -0.16889102185E+03  0.30237460454E+03  0.17200000000E+03 0. -1.
<mgrwt>
<rscale>  2 0.25081113E+03</rscale>
<asrwt>0</asrwt>
<pdfrwt beam="1">  1       21 0.53126447E-01 0.25081113E+03</pdfrwt>
<pdfrwt beam="2">  1       21 0.85880838E-01 0.25081113E+03</pdfrwt>
<totfact> 0.37625382E+03</totfact>
</mgrwt>
</event>
<event>
 4    1  0.1110581E+000  0.1933618E+03  0.7546771E-02  0.1155464E+00
         21   -1    0    0  503  502  0.00000000000E+00  0.00000000000E+00  0.35260100281E+02  0.35260100281E+02  0.00000000000E+00 0. -1.
         21   -1    0    0  501  503 -0.00000000000E+00 -0.00000000000E+00 -0.12196310516E+04  0.12196310516E+04  0.00000000000E+00 0.  1.
          6    1    1    2  501    0  0.21169707062E+02  0.85770838981E+02 -0.81891863394E+03  0.84143717670E+03  0.17200000000E+03 0.  1.
         -6    1    1    2    0  502 -0.21169707062E+02 -0.85770838981E+02 -0.36545231738E+03  0.41345397519E+03  0.17200000000E+03 0.  1.
<mgrwt>
<rscale>  2 0.19336182E+03</rscale>
<asrwt>0</asrwt>
<pdfrwt beam="1">  1       21 0.88150256E-02 0.19336182E+03</pdfrwt>
<pdfrwt beam="2">  1       21 0.30490774E+00 0.19336182E+03</pdfrwt>
<totfact> 0.32373349E+03</totfact>
</mgrwt>
</event>
<event>
 4    1  0.1110581E+000  0.2009620E+03  0.7546771E-02  0.1148930E+00
         21   -1    0    0  501  502  0.00000000000E+00  0.00000000000E+00  0.32623413791E+03  0.32623413791E+03  0.00000000000E+00 0.  1.
         21   -1    0    0  502  503 -0.00000000000E+00 -0.00000000000E+00 -0.45746098953E+03  0.45746098953E+03  0.00000000000E+00 0.  1.
          6    1    1    2  501    0 -0.98352880683E+02  0.33592206114E+02  0.26904128763E+03  0.33581086924E+03  0.17200000000E+03 0.  1.
         -6    1    1    2    0  503  0.98352880683E+02 -0.33592206114E+02 -0.40026813924E+03  0.44788425820E+03  0.17200000000E+03 0.  1.
<mgrwt>
<rscale>  2 0.20096200E+03</rscale>
<asrwt>0</asrwt>
<pdfrwt beam="1">  1       21 0.81558535E-01 0.20096200E+03</pdfrwt>
<pdfrwt beam="2">  1       21 0.11436525E+00 0.20096200E+03</pdfrwt>
<totfact> 0.77558375E+02</totfact>
</mgrwt>
</event>
<event>
 4    1  0.1110581E+000  0.1837196E+03  0.7546771E-02  0.1164251E+00
         21   -1    0    0  503  502  0.00000000000E+00  0.00000000000E+00  0.52642739089E+03  0.52642739089E+03  0.00000000000E+00 0.  1.
         21   -1    0    0  501  503 -0.00000000000E+00 -0.00000000000E+00 -0.64188745681E+02  0.64188745681E+02  0.00000000000E+00 0. -1.
          6    1    1    2  501    0  0.56453524476E+02 -0.31334880795E+02  0.22123732096E+03  0.28757403806E+03  0.17200000000E+03 0. -1.
         -6    1    1    2    0  502 -0.56453524476E+02  0.31334880795E+02  0.24100132425E+03  0.30304209851E+03  0.17200000000E+03 0.  1.
<mgrwt>
<rscale>  2 0.18371956E+03</rscale>
<asrwt>0</asrwt>
<pdfrwt beam="1">  1       21 0.13160683E+00 0.18371956E+03</pdfrwt>
<pdfrwt beam="2">  1       21 0.16047188E-01 0.18371956E+03</pdfrwt>
<totfact> 0.14622299E+04</totfact>
</mgrwt>
</event>
<event>
 4    1  0.1110581E+000  0.2417014E+03  0.7546771E-02  0.1118665E+00
         21   -1    0    0  501  502  0.00000000000E+00  0.00000000000E+00  0.56194349039E+03  0.56194349039E+03  0.00000000000E+00 0. -1.
         21   -1    0    0  502  503 -0.00000000000E+00 -0.00000000000E+00 -0.10405059504E+03  0.10405059504E+03  0.00000000000E+00 0.  1.
          6    1    1    2  501    0 -0.10408178974E+03  0.13417355479E+03  0.21911253887E+03  0.32623590613E+03  0.17200000000E+03 0. -1.
         -6    1    1    2    0  503  0.10408178974E+03 -0.13417355479E+03  0.23878035648E+03  0.33975817930E+03  0.17200000000E+03 0. -1.
<mgrwt>
<rscale>  2 0.24170139E+03</rscale>
<asrwt>0</asrwt>
<pdfrwt beam="1">  1       21 0.14048586E+00 0.24170139E+03</pdfrwt>
<pdfrwt beam="2">  1       21 0.26012650E-01 0.24170139E+03</pdfrwt>
<totfact> 0.47952365E+03</totfact>
</mgrwt>
</event>
<event>
 4    1  0.1110581E+000  0.1895661E+03  0.7546771E-02  0.1158853E+00
         21   -1    0    0  501  502  0.00000000000E+00  0.00000000000E+00  0.41526211120E+03  0.41526211120E+03  0.00000000000E+00 0.  1.
         21   -1    0    0  502  503 -0.00000000000E+00 -0.00000000000E+00 -0.23522146808E+03  0.23522146808E+03  0.00000000000E+00 0. -1.
          6    1    1    2  501    0  0.35350221295E+02 -0.71425873010E+02  0.34860424659E+03  0.39681256813E+03  0.17200000000E+03 0.  1.
         -6    1    1    2    0  503 -0.35350221295E+02  0.71425873010E+02 -0.16856360347E+03  0.25367101115E+03  0.17200000000E+03 0. -1.
<mgrwt>
<rscale>  2 0.18956607E+03</rscale>
<asrwt>0</asrwt>
<pdfrwt beam="1">  1       21 0.10381553E+00 0.18956607E+03</pdfrwt>
<pdfrwt beam="2">  1       21 0.58805368E-01 0.18956607E+03</pdfrwt>
<totfact> 0.20369087E+03</totfact>
</mgrwt>
</event>
<event>
 4    1  0.1110581E+000  0.2222386E+03  0.7546771E-02  0.1132225E+00
         21   -1    0    0  503  502  0.00000000000E+00  0.00000000000E+00  0.38381715669E+03  0.38381715669E+03  0.00000000000E+00 0. -1.
         21   -1    0    0  501  503 -0.00000000000E+00 -0.00000000000E+00 -0.12891986333E+03  0.12891986333E+03  0.00000000000E+00 0. -1.
          6    1    1    2  501    0  0.10013976465E+02 -0.14037707236E+03  0.13848222594E+03  0.26185364055E+03  0.17200000000E+03 0. -1.
         -6    1    1    2    0  502 -0.10013976465E+02  0.14037707236E+03  0.11641506743E+03  0.25088337947E+03  0.17200000000E+03 0. -1.
<mgrwt>
<rscale>  2 0.22223862E+03</rscale>
<asrwt>0</asrwt>
<pdfrwt beam="1">  1       21 0.95954287E-01 0.22223862E+03</pdfrwt>
<pdfrwt beam="2">  1       21 0.32229967E-01 0.22223862E+03</pdfrwt>
<totfact> 0.82086597E+03</totfact>
</mgrwt>
</event>
<event>
 4    1  0.1110581E+000  0.2386157E+03  0.7546771E-02  0.1120718E+00
         21   -1    0    0  503  502  0.00000000000E+00  0.00000000000E+00  0.26128560502E+03  0.26128560502E+03  0.00000000000E+00 0.  1.
         21   -1    0    0  501  503 -0.00000000000E+00 -0.00000000000E+00 -0.24678417713E+03  0.24678417713E+03  0.00000000000E+00 0.  1.
          6    1    1    2  501    0  0.16538597911E+03 -0.95598269576E+00 -0.79639260135E+02  0.25155486031E+03  0.17200000000E+03 0.  1.
         -6    1    1    2    0  502 -0.16538597911E+03  0.95598269576E+00  0.94140688026E+02  0.25651492185E+03  0.17200000000E+03 0.  1.
<mgrwt>
<rscale>  2 0.23861567E+03</rscale>
<asrwt>0</asrwt>
<pdfrwt beam="1">  1       21 0.65321401E-01 0.23861567E+03</pdfrwt>
<pdfrwt beam="2">  1       21 0.61696044E-01 0.23861567E+03</pdfrwt>
<totfact> 0.50908114E+03</totfact>
</mgrwt>
</event>
<event>
 4    1  0.1110581E+000  0.2069081E+03  0.7546771E-02  0.1144038E+00
         21   -1    0    0  503  502  0.00000000000E+00  0.00000000000E+00  0.49745267377E+03  0.49745267377E+03  0.00000000000E+00 0. -1.
         21   -1    0    0  501  503 -0.00000000000E+00 -0.00000000000E+00 -0.86068866156E+02  0.86068866156E+02  0.00000000000E+00 0.  1.
          6    1    1    2  501    0  0.81062187465E+02  0.81583492320E+02  0.20859640633E+03  0.29380844983E+03  0.17200000000E+03 0. -1.
         -6    1    1    2    0  502 -0.81062187465E+02 -0.81583492320E+02  0.20278740128E+03  0.28971309010E+03  0.17200000000E+03 0.  1.
<mgrwt>
<rscale>  2 0.20690806E+03</rscale>
<asrwt>0</asrwt>
<pdfrwt beam="1">  1       21 0.12436316E+00 0.20690806E+03</pdfrwt>
<pdfrwt beam="2">  1       21 0.21517218E-01 0.20690806E+03</pdfrwt>
<totfact> 0.96243705E+03</totfact>
</mgrwt>
</event>
<event>
 4    1  0.1110581E+000  0.1857086E+03  0.7546771E-02  0.1162390E+00
         21   -1    0    0  501  502  0.00000000000E+00  0.00000000000E+00  0.37251402118E+03  0.37251402118E+03  0.00000000000E+00 0. -1.
         21   -1    0    0  502  503 -0.00000000000E+00 -0.00000000000E+00 -0.11684014389E+03  0.11684014389E+03  0.00000000000E+00 0. -1.
          6    1    1    2  501    0  0.24618685441E+02 -0.65556165043E+02  0.23932688629E+03  0.30292746483E+03  0.17200000000E+03 0. -1.
         -6    1    1    2    0  503 -0.24618685441E+02  0.65556165043E+02  0.16346990996E+02  0.18642670024E+03  0.17200000000E+03 0. -1.
<mgrwt>
<rscale>  2 0.18570862E+03</rscale>
<asrwt>0</asrwt>
<pdfrwt beam="1">  1       21 0.93128503E-01 0.18570862E+03</pdfrwt>
<pdfrwt beam="2">  1       21 0.29210037E-01 0.18570862E+03</pdfrwt>
<totfact> 0.10944399E+04</totfact>
</mgrwt>
</event>
<event>
 4    1  0.1110581E+000  0.1996812E+03  0.7546771E-02  0.1150008E+00
         21   -1    0    0  501  502  0.00000000000E+00  0.00000000000E+00  0.43028733242E+03  0.43028733242E+03  0.00000000000E+00 0. -1.
         21   -1    0    0  502  503 -0.00000000000E+00 -0.00000000000E+00 -0.16439078455E+03  0.16439078455E+03  0.00000000000E+00 0. -1.
          6    1    1    2  501    0 -0.95383557958E+02 -0.34504223549E+02  0.32935255932E+03  0.38515668617E+03  0.17200000000E+03 0. -1.
         -6    1    1    2    0  503  0.95383557958E+02  0.34504223549E+02 -0.63456011450E+02  0.20952143079E+03  0.17200000000E+03 0. -1.
<mgrwt>
<rscale>  2 0.19968116E+03</rscale>
<asrwt>0</asrwt>
<pdfrwt beam="1">  1       21 0.10757183E+00 0.19968116E+03</pdfrwt>
<pdfrwt beam="2">  1       21 0.41097697E-01 0.19968116E+03</pdfrwt>
<totfact> 0.39076904E+03</totfact>
</mgrwt>
</event>
<event>
 4    1  0.1110581E+000  0.1809555E+03  0.7546771E-02  0.1166881E+00
         21   -1    0    0  503  502  0.00000000000E+00  0.00000000000E+00  0.50351714669E+02  0.50351714669E+02  0.00000000000E+00 0.  1.
         21   -1    0    0  501  503 -0.00000000000E+00 -0.00000000000E+00 -0.85051739246E+03  0.85051739246E+03  0.00000000000E+00 0.  1.
          6    1    1    2  501    0  0.51107467134E+02 -0.23429367658E+02 -0.61861501983E+03  0.64453816894E+03  0.17200000000E+03 0.  1.
         -6    1    1    2    0  502 -0.51107467134E+02  0.23429367658E+02 -0.18155065796E+03  0.25633093819E+03  0.17200000000E+03 0.  1.
<mgrwt>
<rscale>  2 0.18095554E+03</rscale>
<asrwt>0</asrwt>
<pdfrwt beam="1">  1       21 0.12587929E-01 0.18095554E+03</pdfrwt>
<pdfrwt beam="2">  1       21 0.21262934E+00 0.18095554E+03</pdfrwt>
<totfact> 0.60852060E+03</totfact>
</mgrwt>
</event>
<event>
 4    1  0.1110581E+000  0.2039013E+03  0.7546771E-02  0.1146489E+00
         21   -1    0    0  501  502  0.00000000000E+00  0.00000000000E+00  0.20793136167E+03  0.20793136167E+03  0.00000000000E+00 0.  1.
         21   -1    0    0  502  503 -0.00000000000E+00 -0.00000000000E+00 -0.22237591119E+03  0.22237591119E+03  0.00000000000E+00 0.  1.
          6    1    1    2  501    0 -0.52372059685E+02 -0.96171181919E+02  0.61103837481E+02  0.21286006629E+03  0.17200000000E+03 0.  1.
         -6    1    1    2    0  503  0.52372059685E+02  0.96171181919E+02 -0.75548387003E+02  0.21744720657E+03  0.17200000000E+03 0.  1.
<mgrwt>
<rscale>  2 0.20390127E+03</rscale>
<asrwt>0</asrwt>
<pdfrwt beam="1">  1       21 0.51982841E-01 0.20390127E+03</pdfrwt>
<pdfrwt beam="2">  1       21 0.55593978E-01 0.20390127E+03</pdfrwt>
<totfact> 0.10629055E+04</totfact>
</mgrwt>
</event>
<event>
 4    1  0.1110581E+000  0.2073215E+03  0.7546771E-02  0.1143705E+00
         21   -1    0    0  503  502  0.00000000000E+00  0.00000000000E+00  0.13029401131E+03  0.13029401131E+03  0.00000000000E+00 0.  1.
         21   -1    0    0  501  503 -0.00000000000E+00 -0.00000000000E+00 -0.36753447558E+03  0.36753447558E+03  0.00000000000E+00 0. -1.
          6    1    1    2  501    0  0.73191409600E+01  0.11551890392E+03 -0.19828635148E+03  0.28687918044E+03  0.17200000000E+03 0. -1.
         -6    1    1    2    0  502 -0.73191409600E+01 -0.11551890392E+03 -0.38954112785E+02  0.21094930644E+03  0.17200000000E+03 0.  1.
<mgrwt>
<rscale>  2 0.20732146E+03</rscale>
<asrwt>0</asrwt>
<pdfrwt beam="1">  1       21 0.32573503E-01 0.20732146E+03</pdfrwt>
<pdfrwt beam="2">  1       21 0.91883619E-01 0.20732146E+03</pdfrwt>
<totfact> 0.89879959E+03</totfact>
</mgrwt>
</event>
<event>
 4    1  0.1110581E+000  0.6046306E+03  0.7546771E-02  0.9895845E-01
         21   -1    0    0  501  502  0.00000000000E+00  0.00000000000E+00  0.64143248527E+03  0.64143248527E+03  0.00000000000E+00 0. -1.
         21   -1    0    0  502  503 -0.00000000000E+00 -0.00000000000E+00 -0.70583430611E+03  0.70583430611E+03  0.00000000000E+00 0.  1.
          6    1    1    2  501    0 -0.40291485499E+03 -0.41671790554E+03  0.26337732585E+03  0.65950421450E+03  0.17200000000E+03 0. -1.
         -6    1    1    2    0  503  0.40291485499E+03  0.41671790554E+03 -0.32777914668E+03  0.68776257689E+03  0.17200000000E+03 0.  1.
<mgrwt>
<rscale>  2 0.60463063E+03</rscale>
<asrwt>0</asrwt>
<pdfrwt beam="1">  1       21 0.16035812E+00 0.60463063E+03</pdfrwt>
<pdfrwt beam="2">  1       21 0.17645858E+00 0.60463063E+03</pdfrwt>
<totfact> 0.34447993E+01</totfact>
</mgrwt>
</event>
<event>
 4    1  0.1110581E+000  0.2075739E+03  0.7546771E-02  0.1143502E+00
         21   -1    0    0  501  502  0.00000000000E+00  0.00000000000E+00  0.17562600822E+03  0.17562600822E+03  0.00000000000E+00 0.  1.
         21   -1    0    0  502  503 -0.00000000000E+00 -0.00000000000E+00 -0.31572183815E+03  0.31572183815E+03  0.00000000000E+00 0. -1.
          6    1    1    2  501    0 -0.10594445678E+03 -0.47735901067E+02  0.45951844893E+02  0.21259942667E+03  0.17200000000E+03 0.  1.
         -6    1    1    2    0  503  0.10594445678E+03  0.47735901067E+02 -0.18604767483E+03  0.27874841969E+03  0.17200000000E+03 0. -1.
<mgrwt>
<rscale>  2 0.20757395E+03</rscale>
<asrwt>0</asrwt>
<pdfrwt beam="1">  1       21 0.43906503E-01 0.20757395E+03</pdfrwt>
<pdfrwt beam="2">  1       21 0.78930459E-01 0.20757395E+03</pdfrwt>
<totfact> 0.69891112E+03</totfact>
</mgrwt>
</event>
<event>
 4    1  0.1110581E+000  0.1790552E+03  0.7546771E-02  0.1168721E+00
         21   -1    0    0  503  502  0.00000000000E+00  0.00000000000E+00  0.35982760210E+02  0.35982760210E+02  0.00000000000E+00 0.  1.
         21   -1    0    0  501  503 -0.00000000000E+00 -0.00000000000E+00 -0.91074435118E+03  0.91074435118E+03  0.00000000000E+00 0.  1.
          6    1    1    2  501    0  0.49609051067E+02  0.39618229782E+01 -0.50707280167E+03  0.53775791968E+03  0.17200000000E+03 0. -1.
         -6    1    1    2    0  502 -0.49609051067E+02 -0.39618229782E+01 -0.36768878930E+03  0.40896919171E+03  0.17200000000E+03 0. -1.
<mgrwt>
<rscale>  2 0.17905517E+03</rscale>
<asrwt>0</asrwt>
<pdfrwt beam="1">  1       21 0.89956892E-02 0.17905517E+03</pdfrwt>
<pdfrwt beam="2">  1       21 0.22768611E+00 0.17905517E+03</pdfrwt>
<totfact> 0.89433350E+03</totfact>
</mgrwt>
</event>
<event>
 4    1  0.1110581E+000  0.2081578E+03  0.7546771E-02  0.1143033E+00
         21   -1    0    0  501  502  0.00000000000E+00  0.00000000000E+00  0.45450106804E+03  0.45450106804E+03  0.00000000000E+00 0.  1.
         21   -1    0    0  502  503 -0.00000000000E+00 -0.00000000000E+00 -0.97678999123E+02  0.97678999123E+02  0.00000000000E+00 0.  1.
          6    1    1    2  501    0  0.11711929384E+03 -0.53623706755E+01  0.22118352925E+03  0.30372987607E+03  0.17200000000E+03 0.  1.
         -6    1    1    2    0  503 -0.11711929384E+03  0.53623706755E+01  0.13563853967E+03  0.24845019109E+03  0.17200000000E+03 0.  1.
<mgrwt>
<rscale>  2 0.20815783E+03</rscale>
<asrwt>0</asrwt>
<pdfrwt beam="1">  1       21 0.11362526E+00 0.20815783E+03</pdfrwt>
<pdfrwt beam="2">  1       21 0.24419751E-01 0.20815783E+03</pdfrwt>
<totfact> 0.94570846E+03</totfact>
</mgrwt>
</event>
<event>
 4    1  0.1110581E+000  0.1757031E+03  0.7546771E-02  0.1172028E+00
         21   -1    0    0  503  502  0.00000000000E+00  0.00000000000E+00  0.10090765033E+03  0.10090765033E+03  0.00000000000E+00 0.  1.
         21   -1    0    0  501  503 -0.00000000000E+00 -0.00000000000E+00 -0.44252703501E+03  0.44252703501E+03  0.00000000000E+00 0.  1.
          6    1    1    2  501    0  0.65742904998E+01  0.35275574470E+02 -0.32176686554E+03  0.36661356113E+03  0.17200000000E+03 0.  1.
         -6    1    1    2    0  502 -0.65742904998E+01 -0.35275574470E+02 -0.19852519148E+02  0.17682112421E+03  0.17200000000E+03 0.  1.
<mgrwt>
<rscale>  2 0.17570312E+03</rscale>
<asrwt>0</asrwt>
<pdfrwt beam="1">  1       21 0.25226913E-01 0.17570312E+03</pdfrwt>
<pdfrwt beam="2">  1       21 0.11063176E+00 0.17570312E+03</pdfrwt>
<totfact> 0.97089680E+03</totfact>
</mgrwt>
</event>
<event>
 4    1  0.1110581E+000  0.1956022E+03  0.7546771E-02  0.1153503E+00
         21   -1    0    0  503  502  0.00000000000E+00  0.00000000000E+00  0.42728738399E+03  0.42728738399E+03  0.00000000000E+00 0.  1.
         21   -1    0    0  501  503 -0.00000000000E+00 -0.00000000000E+00 -0.90579736122E+02  0.90579736122E+02  0.00000000000E+00 0. -1.
          6    1    1    2  501    0 -0.15182709273E+02 -0.91900527721E+02  0.14064044466E+03  0.24091483211E+03  0.17200000000E+03 0.  1.
         -6    1    1    2    0  502  0.15182709273E+02  0.91900527721E+02  0.19606720321E+03  0.27695228800E+03  0.17200000000E+03 0. -1.
<mgrwt>
<rscale>  2 0.19560220E+03</rscale>
<asrwt>0</asrwt>
<pdfrwt beam="1">  1       21 0.10682184E+00 0.19560220E+03</pdfrwt>
<pdfrwt beam="2">  1       21 0.22644935E-01 0.19560220E+03</pdfrwt>
<totfact> 0.12787958E+04</totfact>
</mgrwt>
</event>
<event>
 4    1  0.1110581E+000  0.1847079E+03  0.7546771E-02  0.1163323E+00
         21   -1    0    0  501  502  0.00000000000E+00  0.00000000000E+00  0.26250866736E+03  0.26250866736E+03  0.00000000000E+00 0.  1.
         21   -1    0    0  502  503 -0.00000000000E+00 -0.00000000000E+00 -0.13084195749E+03  0.13084195749E+03  0.00000000000E+00 0.  1.
          6    1    1    2  501    0 -0.11734445938E+02 -0.66297051220E+02  0.81932824879E+02  0.20206430663E+03  0.17200000000E+03 0.  1.
         -6    1    1    2    0  503  0.11734445938E+02  0.66297051220E+02  0.49733884986E+02  0.19128631822E+03  0.17200000000E+03 0.  1.
<mgrwt>
<rscale>  2 0.18470787E+03</rscale>
<asrwt>0</asrwt>
<pdfrwt beam="1">  1       21 0.65627166E-01 0.18470787E+03</pdfrwt>
<pdfrwt beam="2">  1       21 0.32710490E-01 0.18470787E+03</pdfrwt>
<totfact> 0.19291285E+04</totfact>
</mgrwt>
</event>
<event>
 4    1  0.1110581E+000  0.2770537E+03  0.7546771E-02  0.1097309E+00
         21   -1    0    0  501  502  0.00000000000E+00  0.00000000000E+00  0.97715465160E+03  0.97715465160E+03  0.00000000000E+00 0. -1.
         21   -1    0    0  502  503 -0.00000000000E+00 -0.00000000000E+00 -0.81519703624E+02  0.81519703624E+02  0.00000000000E+00 0. -1.
          6    1    1    2  501    0  0.61499368403E+01  0.21711042776E+03  0.34684257075E+03  0.44391274869E+03  0.17200000000E+03 0. -1.
         -6    1    1    2    0  503 -0.61499368403E+01 -0.21711042776E+03  0.54879237722E+03  0.61476160653E+03  0.17200000000E+03 0. -1.
<mgrwt>
<rscale>  2 0.27705371E+03</rscale>
<asrwt>0</asrwt>
<pdfrwt beam="1">  1       21 0.24428863E+00 0.27705371E+03</pdfrwt>
<pdfrwt beam="2">  1       21 0.20379929E-01 0.27705371E+03</pdfrwt>
<totfact> 0.14741322E+03</totfact>
</mgrwt>
</event>
<event>
 4    1  0.1110581E+000  0.1792793E+03  0.7546771E-02  0.1168502E+00
         21   -1    0    0  501  502  0.00000000000E+00  0.00000000000E+00  0.47103148383E+03  0.47103148383E+03  0.00000000000E+00 0.  1.
         21   -1    0    0  502  503 -0.00000000000E+00 -0.00000000000E+00 -0.85646895683E+02  0.85646895683E+02  0.00000000000E+00 0.  1.
          6    1    1    2  501    0 -0.40239063900E+02 -0.30624923399E+02  0.31818987499E+03  0.36522029618E+03  0.17200000000E+03 0.  1.
         -6    1    1    2    0  503  0.40239063900E+02  0.30624923399E+02  0.67194713158E+02  0.19145808333E+03  0.17200000000E+03 0.  1.
<mgrwt>
<rscale>  2 0.17927930E+03</rscale>
<asrwt>0</asrwt>
<pdfrwt beam="1">  1       21 0.11775786E+00 0.17927930E+03</pdfrwt>
<pdfrwt beam="2">  1       21 0.21411725E-01 0.17927930E+03</pdfrwt>
<totfact> 0.11346491E+04</totfact>
</mgrwt>
</event>
<event>
 4    1  0.1110581E+000  0.2945539E+03  0.7546771E-02  0.1087995E+00
         21   -1    0    0  503  502  0.00000000000E+00  0.00000000000E+00  0.12988204898E+03  0.12988204898E+03  0.00000000000E+00 0.  1.
         21   -1    0    0  501  503 -0.00000000000E+00 -0.00000000000E+00 -0.85848528764E+03  0.85848528764E+03  0.00000000000E+00 0. -1.
          6    1    1    2  501    0 -0.15122899574E+03  0.18522364545E+03 -0.59708161952E+03  0.66578410041E+03  0.17200000000E+03 0. -1.
         -6    1    1    2    0  502  0.15122899574E+03 -0.18522364545E+03 -0.13152161914E+03  0.32258323621E+03  0.17200000000E+03 0.  1.
<mgrwt>
<rscale>  2 0.29455391E+03</rscale>
<asrwt>0</asrwt>
<pdfrwt beam="1">  1       21 0.32470512E-01 0.29455391E+03</pdfrwt>
<pdfrwt beam="2">  1       21 0.21462132E+00 0.29455391E+03</pdfrwt>
<totfact> 0.90025319E+02</totfact>
</mgrwt>
</event>
<event>
 4    1  0.1110581E+000  0.1720353E+03  0.7546771E-02  0.1175742E+00
         21   -1    0    0  501  502  0.00000000000E+00  0.00000000000E+00  0.28474444973E+03  0.28474444973E+03  0.00000000000E+00 0. -1.
         21   -1    0    0  502  503 -0.00000000000E+00 -0.00000000000E+00 -0.12865153955E+03  0.12865153955E+03  0.00000000000E+00 0. -1.
          6    1    1    2  501    0 -0.20631191362E+01 -0.28086029880E+01  0.16863736859E+03  0.24090393686E+03  0.17200000000E+03 0. -1.
         -6    1    1    2    0  503  0.20631191362E+01  0.28086029880E+01 -0.12544458406E+02  0.17249205242E+03  0.17200000000E+03 0. -1.
<mgrwt>
<rscale>  2 0.17203530E+03</rscale>
<asrwt>0</asrwt>
<pdfrwt beam="1">  1       21 0.71186111E-01 0.17203530E+03</pdfrwt>
<pdfrwt beam="2">  1       21 0.32162885E-01 0.17203530E+03</pdfrwt>
<totfact> 0.16822179E+04</totfact>
</mgrwt>
</event>
<event>
 4    1  0.1110581E+000  0.1914763E+03  0.7546771E-02  0.1157136E+00
         21   -1    0    0  501  502  0.00000000000E+00  0.00000000000E+00  0.52042336098E+03  0.52042336098E+03  0.00000000000E+00 0.  1.
         21   -1    0    0  502  503 -0.00000000000E+00 -0.00000000000E+00 -0.12336607401E+03  0.12336607401E+03  0.00000000000E+00 0.  1.
          6    1    1    2  501    0 -0.81063394460E+02 -0.22536836022E+02  0.40935012184E+03  0.45191891435E+03  0.17200000000E+03 0.  1.
         -6    1    1    2    0  503  0.81063394460E+02  0.22536836022E+02 -0.12292834872E+02  0.19187052063E+03  0.17200000000E+03 0.  1.
<mgrwt>
<rscale>  2 0.19147632E+03</rscale>
<asrwt>0</asrwt>
<pdfrwt beam="1">  1       21 0.13010583E+00 0.19147632E+03</pdfrwt>
<pdfrwt beam="2">  1       21 0.30841520E-01 0.19147632E+03</pdfrwt>
<totfact> 0.43595313E+03</totfact>
</mgrwt>
</event>
<event>
 4    1  0.1110581E+000  0.4117942E+03  0.7546771E-02  0.1039771E+00
         21   -1    0    0  503  502  0.00000000000E+00  0.00000000000E+00  0.12610607970E+04  0.12610607970E+04  0.00000000000E+00 0.  1.
         21   -1    0    0  501  503 -0.00000000000E+00 -0.00000000000E+00 -0.21642836514E+03  0.21642836514E+03  0.00000000000E+00 0. -1.
          6    1    1    2  501    0 -0.10758346847E+03 -0.35835214161E+03  0.67710730646E+02  0.41732385881E+03  0.17200000000E+03 0. -1.
         -6    1    1    2    0  502  0.10758346847E+03  0.35835214161E+03  0.97692170118E+03  0.10601653033E+04  0.17200000000E+03 0.  1.
<mgrwt>
<rscale>  2 0.41179420E+03</rscale>
<asrwt>0</asrwt>
<pdfrwt beam="1">  1       21 0.31526518E+00 0.41179420E+03</pdfrwt>
<pdfrwt beam="2">  1       21 0.54107095E-01 0.41179420E+03</pdfrwt>
<totfact> 0.70583342E+01</totfact>
</mgrwt>
</event>
<event>
 4    1  0.1110581E+000  0.2527514E+03  0.7546771E-02  0.1111578E+00
         21   -1    0    0  501  502  0.00000000000E+00  0.00000000000E+00  0.71174609173E+02  0.71174609173E+02  0.00000000000E+00 0. -1.
         21   -1    0    0  502  503 -0.00000000000E+00 -0.00000000000E+00 -0.10818138320E+04  0.10818138320E+04  0.00000000000E+00 0. -1.
          6    1    1    2  501    0 -0.75411657666E+02 -0.16915181973E+03 -0.26739974955E+03  0.36794820599E+03  0.17200000000E+03 0. -1.
         -6    1    1    2    0  503  0.75411657666E+02  0.16915181973E+03 -0.74323947331E+03  0.78504023522E+03  0.17200000000E+03 0. -1.
<mgrwt>
<rscale>  2 0.25275137E+03</rscale>
<asrwt>0</asrwt>
<pdfrwt beam="1">  1       21 0.17793653E-01 0.25275137E+03</pdfrwt>
<pdfrwt beam="2">  1       21 0.27045345E+00 0.25275137E+03</pdfrwt>
<totfact> 0.13571947E+03</totfact>
</mgrwt>
</event>
<event>
 4    1  0.1110581E+000  0.2027385E+03  0.7546771E-02  0.1147449E+00
         21   -1    0    0  501  502  0.00000000000E+00  0.00000000000E+00  0.21574313259E+03  0.21574313259E+03  0.00000000000E+00 0. -1.
         21   -1    0    0  502  503 -0.00000000000E+00 -0.00000000000E+00 -0.22536035643E+03  0.22536035643E+03  0.00000000000E+00 0.  1.
          6    1    1    2  501    0 -0.55929801291E+02  0.91601090843E+02 -0.91530130074E+02  0.22244250319E+03  0.17200000000E+03 0.  1.
         -6    1    1    2    0  503  0.55929801291E+02 -0.91601090843E+02  0.81912906238E+02  0.21866098583E+03  0.17200000000E+03 0. -1.
<mgrwt>
<rscale>  2 0.20273851E+03</rscale>
<asrwt>0</asrwt>
<pdfrwt beam="1">  1       21 0.53935783E-01 0.20273851E+03</pdfrwt>
<pdfrwt beam="2">  1       21 0.56340089E-01 0.20273851E+03</pdfrwt>
<totfact> 0.95676446E+03</totfact>
</mgrwt>
</event>
<event>
 4    1  0.1110581E+000  0.1859395E+03  0.7546771E-02  0.1162175E+00
         21   -1    0    0  503  502  0.00000000000E+00  0.00000000000E+00  0.13036954540E+03  0.13036954540E+03  0.00000000000E+00 0. -1.
         21   -1    0    0  501  503 -0.00000000000E+00 -0.00000000000E+00 -0.35221468509E+03  0.35221468509E+03  0.00000000000E+00 0. -1.
          6    1    1    2  501    0  0.24754473682E+01  0.70592967787E+02 -0.23085742384E+03  0.29642645813E+03  0.17200000000E+03 0. -1.
         -6    1    1    2    0  502 -0.24754473682E+01 -0.70592967787E+02  0.90122841542E+01  0.18615777235E+03  0.17200000000E+03 0. -1.
<mgrwt>
<rscale>  2 0.18593949E+03</rscale>
<asrwt>0</asrwt>
<pdfrwt beam="1">  1       21 0.32592387E-01 0.18593949E+03</pdfrwt>
<pdfrwt beam="2">  1       21 0.88053671E-01 0.18593949E+03</pdfrwt>
<totfact> 0.10057720E+04</totfact>
</mgrwt>
</event>
<event>
 4    1  0.1110581E+000  0.1760700E+03  0.7546771E-02  0.1171662E+00
         21   -1    0    0  501  502  0.00000000000E+00  0.00000000000E+00  0.19014295945E+03  0.19014295945E+03  0.00000000000E+00 0. -1.
         21   -1    0    0  502  503 -0.00000000000E+00 -0.00000000000E+00 -0.22175901388E+03  0.22175901388E+03  0.00000000000E+00 0. -1.
          6    1    1    2  501    0  0.18664176463E+02 -0.32684694182E+02  0.90170483739E+02  0.19781647266E+03  0.17200000000E+03 0. -1.
         -6    1    1    2    0  503 -0.18664176463E+02  0.32684694182E+02 -0.12178653817E+03  0.21408550067E+03  0.17200000000E+03 0. -1.
<mgrwt>
<rscale>  2 0.17606999E+03</rscale>
<asrwt>0</asrwt>
<pdfrwt beam="1">  1       21 0.47535740E-01 0.17606999E+03</pdfrwt>
<pdfrwt beam="2">  1       21 0.55439753E-01 0.17606999E+03</pdfrwt>
<totfact> 0.13123534E+04</totfact>
</mgrwt>
</event>
<event>
 4    1  0.1110581E+000  0.2946789E+03  0.7546771E-02  0.1087931E+00
         21   -1    0    0  501  502  0.00000000000E+00  0.00000000000E+00  0.13180267588E+03  0.13180267588E+03  0.00000000000E+00 0. -1.
         21   -1    0    0  502  503 -0.00000000000E+00 -0.00000000000E+00 -0.77038942215E+03  0.77038942215E+03  0.00000000000E+00 0. -1.
          6    1    1    2  501    0  0.90514320065E+02  0.22149229209E+03 -0.14763491229E+03  0.32959330229E+03  0.17200000000E+03 0. -1.
         -6    1    1    2    0  503 -0.90514320065E+02 -0.22149229209E+03 -0.49095183398E+03  0.57259879574E+03  0.17200000000E+03 0. -1.
<mgrwt>
<rscale>  2 0.29467894E+03</rscale>
<asrwt>0</asrwt>
<pdfrwt beam="1">  1       21 0.32950670E-01 0.29467894E+03</pdfrwt>
<pdfrwt beam="2">  1       21 0.19259735E+00 0.29467894E+03</pdfrwt>
<totfact> 0.12154356E+03</totfact>
</mgrwt>
</event>
<event>
 4    1  0.1110581E+000  0.2024883E+03  0.7546771E-02  0.1147656E+00
         21   -1    0    0  503  502  0.00000000000E+00  0.00000000000E+00  0.13259328537E+03  0.13259328537E+03  0.00000000000E+00 0.  1.
         21   -1    0    0  501  503 -0.00000000000E+00 -0.00000000000E+00 -0.34716799022E+03  0.34716799022E+03  0.00000000000E+00 0.  1.
          6    1    1    2  501    0  0.47677262165E+02 -0.95626408765E+02 -0.18658769192E+03  0.27534795833E+03  0.17200000000E+03 0.  1.
         -6    1    1    2    0  502 -0.47677262165E+02  0.95626408765E+02 -0.27987012928E+02  0.20441331726E+03  0.17200000000E+03 0.  1.
<mgrwt>
<rscale>  2 0.20248835E+03</rscale>
<asrwt>0</asrwt>
<pdfrwt beam="1">  1       21 0.33148322E-01 0.20248835E+03</pdfrwt>
<pdfrwt beam="2">  1       21 0.86791997E-01 0.20248835E+03</pdfrwt>
<totfact> 0.99411644E+03</totfact>
</mgrwt>
</event>
<event>
 4    1  0.1110581E+000  0.1987587E+03  0.7546771E-02  0.1150791E+00
         21   -1    0    0  501  502  0.00000000000E+00  0.00000000000E+00  0.84316580419E+03  0.84316580419E+03  0.00000000000E+00 0.  1.
         21   -1    0    0  502  503 -0.00000000000E+00 -0.00000000000E+00 -0.13224920632E+03  0.13224920632E+03  0.00000000000E+00 0.  1.
          6    1    1    2  501    0 -0.18344866563E+01  0.99587466909E+02  0.74736405607E+03  0.77334213723E+03  0.17200000000E+03 0.  1.
         -6    1    1    2    0  503  0.18344866563E+01 -0.99587466909E+02 -0.36447458206E+02  0.20207287328E+03  0.17200000000E+03 0.  1.
<mgrwt>
<rscale>  2 0.19875872E+03</rscale>
<asrwt>0</asrwt>
<pdfrwt beam="1">  1       21 0.21079144E+00 0.19875872E+03</pdfrwt>
<pdfrwt beam="2">  1       21 0.33062304E-01 0.19875872E+03</pdfrwt>
<totfact> 0.10034643E+03</totfact>
</mgrwt>
</event>
<event>
 4    1  0.1110581E+000  0.2926754E+03  0.7546771E-02  0.1088961E+00
         21   -1    0    0  503  502  0.00000000000E+00  0.00000000000E+00  0.37926772349E+03  0.37926772349E+03  0.00000000000E+00 0.  1.
         21   -1    0    0  501  503 -0.00000000000E+00 -0.00000000000E+00 -0.76962408635E+03  0.76962408635E+03  0.00000000000E+00 0. -1.
          6    1    1    2  501    0  0.23086386962E+03  0.52695063245E+02 -0.67803427619E+03  0.73850482441E+03  0.17200000000E+03 0. -1.
         -6    1    1    2    0  502 -0.23086386962E+03 -0.52695063245E+02  0.28767791334E+03  0.41038698543E+03  0.17200000000E+03 0.  1.
<mgrwt>
<rscale>  2 0.29267541E+03</rscale>
<asrwt>0</asrwt>
<pdfrwt beam="1">  1       21 0.94816932E-01 0.29267541E+03</pdfrwt>
<pdfrwt beam="2">  1       21 0.19240602E+00 0.29267541E+03</pdfrwt>
<totfact> 0.12507735E+02</totfact>
</mgrwt>
</event>
<event>
 4    1  0.1110581E+000  0.1892616E+03  0.7546771E-02  0.1159129E+00
         21   -1    0    0  503  502  0.00000000000E+00  0.00000000000E+00  0.11310881753E+04  0.11310881753E+04  0.00000000000E+00 0. -1.
         21   -1    0    0  501  503 -0.00000000000E+00 -0.00000000000E+00 -0.21679825078E+03  0.21679825078E+03  0.00000000000E+00 0. -1.
          6    1    1    2  501    0 -0.73075221669E+02 -0.29932903490E+02 -0.16563326488E+03  0.25150416531E+03  0.17200000000E+03 0. -1.
         -6    1    1    2    0  502  0.73075221669E+02  0.29932903490E+02  0.10799231894E+04  0.10963822608E+04  0.17200000000E+03 0. -1.
<mgrwt>
<rscale>  2 0.18926164E+03</rscale>
<asrwt>0</asrwt>
<pdfrwt beam="1">  1       21 0.28277203E+00 0.18926164E+03</pdfrwt>
<pdfrwt beam="2">  1       21 0.54199566E-01 0.18926164E+03</pdfrwt>
<totfact> 0.13875319E+02</totfact>
</mgrwt>
</event>
<event>
 4    1  0.1110581E+000  0.2061471E+03  0.7546771E-02  0.1144654E+00
         21   -1    0    0  501  502  0.00000000000E+00  0.00000000000E+00  0.10311928296E+03  0.10311928296E+03  0.00000000000E+00 0.  1.
         21   -1    0    0  502  503 -0.00000000000E+00 -0.00000000000E+00 -0.44722562840E+03  0.44722562840E+03  0.00000000000E+00 0.  1.
          6    1    1    2  501    0  0.19015184795E+02  0.11203149176E+03 -0.24915828306E+03  0.32338287280E+03  0.17200000000E+03 0.  1.
         -6    1    1    2    0  503 -0.19015184795E+02 -0.11203149176E+03 -0.94948062371E+02  0.22696203856E+03  0.17200000000E+03 0.  1.
<mgrwt>
<rscale>  2 0.20614711E+03</rscale>
<asrwt>0</asrwt>
<pdfrwt beam="1">  1       21 0.25779821E-01 0.20614711E+03</pdfrwt>
<pdfrwt beam="2">  1       21 0.11180640E+00 0.20614711E+03</pdfrwt>
<totfact> 0.88798282E+03</totfact>
</mgrwt>
</event>
<event>
 4    1  0.1110581E+000  0.1814750E+03  0.7546771E-02  0.1166383E+00
         21   -1    0    0  503  502  0.00000000000E+00  0.00000000000E+00  0.15793405808E+03  0.15793405808E+03  0.00000000000E+00 0.  1.
         21   -1    0    0  501  503 -0.00000000000E+00 -0.00000000000E+00 -0.25925578644E+03  0.25925578644E+03  0.00000000000E+00 0. -1.
          6    1    1    2  501    0  0.73197558809E+01  0.57407382423E+02 -0.14293407969E+03  0.23100505951E+03  0.17200000000E+03 0. -1.
         -6    1    1    2    0  502 -0.73197558809E+01 -0.57407382423E+02  0.41612351329E+02  0.18618478500E+03  0.17200000000E+03 0. -1.
<mgrwt>
<rscale>  2 0.18147503E+03</rscale>
<asrwt>0</asrwt>
<pdfrwt beam="1">  1       21 0.39483515E-01 0.18147503E+03</pdfrwt>
<pdfrwt beam="2">  1       21 0.64813946E-01 0.18147503E+03</pdfrwt>
<totfact> 0.13660357E+04</totfact>
</mgrwt>
</event>
<event>
 4    1  0.1110581E+000  0.2097714E+03  0.7546771E-02  0.1141747E+00
         21   -1    0    0  503  502  0.00000000000E+00  0.00000000000E+00  0.52471830861E+03  0.52471830861E+03  0.00000000000E+00 0.  1.
         21   -1    0    0  501  503 -0.00000000000E+00 -0.00000000000E+00 -0.11128373227E+03  0.11128373227E+03  0.00000000000E+00 0.  1.
          6    1    1    2  501    0 -0.10874466962E+03  0.50937467525E+02  0.48862203157E+02  0.21538696262E+03  0.17200000000E+03 0.  1.
         -6    1    1    2    0  502  0.10874466962E+03 -0.50937467525E+02  0.36457237319E+03  0.42061507826E+03  0.17200000000E+03 0.  1.
<mgrwt>
<rscale>  2 0.20977137E+03</rscale>
<asrwt>0</asrwt>
<pdfrwt beam="1">  1       21 0.13117957E+00 0.20977137E+03</pdfrwt>
<pdfrwt beam="2">  1       21 0.27820934E-01 0.20977137E+03</pdfrwt>
<totfact> 0.51407183E+03</totfact>
</mgrwt>
</event>
<event>
 4    1  0.1110581E+000  0.1739561E+03  0.7546771E-02  0.1173784E+00
         21   -1    0    0  503  502  0.00000000000E+00  0.00000000000E+00  0.13623717306E+03  0.13623717306E+03  0.00000000000E+00 0.  1.
         21   -1    0    0  501  503 -0.00000000000E+00 -0.00000000000E+00 -0.25701188677E+03  0.25701188677E+03  0.00000000000E+00 0.  1.
          6    1    1    2  501    0  0.22051175394E+02  0.13800488694E+02 -0.13283707599E+03  0.21887529916E+03  0.17200000000E+03 0.  1.
         -6    1    1    2    0  502 -0.22051175394E+02 -0.13800488694E+02  0.12062362277E+02  0.17437376066E+03  0.17200000000E+03 0.  1.
<mgrwt>
<rscale>  2 0.17395605E+03</rscale>
<asrwt>0</asrwt>
<pdfrwt beam="1">  1       21 0.34059294E-01 0.17395605E+03</pdfrwt>
<pdfrwt beam="2">  1       21 0.64252971E-01 0.17395605E+03</pdfrwt>
<totfact> 0.18778502E+04</totfact>
</mgrwt>
</event>
<event>
 4    1  0.1110581E+000  0.1889518E+03  0.7546771E-02  0.1159410E+00
         21   -1    0    0  503  502  0.00000000000E+00  0.00000000000E+00  0.14840200547E+03  0.14840200547E+03  0.00000000000E+00 0.  1.
         21   -1    0    0  501  503 -0.00000000000E+00 -0.00000000000E+00 -0.35210222274E+03  0.35210222274E+03  0.00000000000E+00 0.  1.
          6    1    1    2  501    0 -0.13008555268E+02  0.77133294067E+02 -0.24268857401E+03  0.30757196153E+03  0.17200000000E+03 0.  1.
         -6    1    1    2    0  502  0.13008555268E+02 -0.77133294067E+02  0.38988356748E+02  0.19293226668E+03  0.17200000000E+03 0.  1.
<mgrwt>
<rscale>  2 0.18895176E+03</rscale>
<asrwt>0</asrwt>
<pdfrwt beam="1">  1       21 0.37100502E-01 0.18895176E+03</pdfrwt>
<pdfrwt beam="2">  1       21 0.88025555E-01 0.18895176E+03</pdfrwt>
<totfact> 0.77691500E+03</totfact>
</mgrwt>
</event>
<event>
 4    1  0.1110581E+000  0.1977799E+03  0.7546771E-02  0.1151626E+00
         21   -1    0    0  503  502  0.00000000000E+00  0.00000000000E+00  0.25647989791E+03  0.25647989791E+03  0.00000000000E+00 0.  1.
         21   -1    0    0  501  503 -0.00000000000E+00 -0.00000000000E+00 -0.15253796285E+03  0.15253796285E+03  0.00000000000E+00 0. -1.
          6    1    1    2  501    0 -0.93100060370E+02  0.29415680976E+02  0.54507314664E+02  0.20515348128E+03  0.17200000000E+03 0.  1.
         -6    1    1    2    0  502  0.93100060370E+02 -0.29415680976E+02  0.49434620389E+02  0.20386437948E+03  0.17200000000E+03 0. -1.
<mgrwt>
<rscale>  2 0.19777994E+03</rscale>
<asrwt>0</asrwt>
<pdfrwt beam="1">  1       21 0.64119974E-01 0.19777994E+03</pdfrwt>
<pdfrwt beam="2">  1       21 0.38134491E-01 0.19777994E+03</pdfrwt>
<totfact> 0.14839086E+04</totfact>
</mgrwt>
</event>
<event>
 4    1  0.1110581E+000  0.1819261E+03  0.7546771E-02  0.1165952E+00
         21   -1    0    0  503  502  0.00000000000E+00  0.00000000000E+00  0.30292038571E+02  0.30292038571E+02  0.00000000000E+00 0. -1.
         21   -1    0    0  501  503 -0.00000000000E+00 -0.00000000000E+00 -0.10993048663E+04  0.10993048663E+04  0.00000000000E+00 0. -1.
          6    1    1    2  501    0  0.57923355543E+02 -0.12569657238E+02 -0.57861238046E+03  0.60653886786E+03  0.17200000000E+03 0. -1.
         -6    1    1    2    0  502 -0.57923355543E+02  0.12569657238E+02 -0.49040044724E+03  0.52305803699E+03  0.17200000000E+03 0. -1.
<mgrwt>
<rscale>  2 0.18192612E+03</rscale>
<asrwt>0</asrwt>
<pdfrwt beam="1">  1       21 0.75730100E-02 0.18192612E+03</pdfrwt>
<pdfrwt beam="2">  1       21 0.27482620E+00 0.18192612E+03</pdfrwt>
<totfact> 0.63670118E+03</totfact>
</mgrwt>
</event>
<event>
 4    1  0.1110581E+000  0.1780043E+03  0.7546771E-02  0.1169749E+00
         21   -1    0    0  501  502  0.00000000000E+00  0.00000000000E+00  0.46316593380E+03  0.46316593380E+03  0.00000000000E+00 0. -1.
         21   -1    0    0  502  503 -0.00000000000E+00 -0.00000000000E+00 -0.14024225227E+03  0.14024225227E+03  0.00000000000E+00 0. -1.
          6    1    1    2  501    0  0.32867853558E+01  0.45724361548E+02  0.37738503415E+03  0.41725889349E+03  0.17200000000E+03 0. -1.
         -6    1    1    2    0  503 -0.32867853558E+01 -0.45724361548E+02 -0.54461352626E+02  0.18614929258E+03  0.17200000000E+03 0. -1.
<mgrwt>
<rscale>  2 0.17800427E+03</rscale>
<asrwt>0</asrwt>
<pdfrwt beam="1">  1       21 0.11579148E+00 0.17800427E+03</pdfrwt>
<pdfrwt beam="2">  1       21 0.35060564E-01 0.17800427E+03</pdfrwt>
<totfact> 0.45770367E+03</totfact>
</mgrwt>
</event>
<event>
 4    1  0.1110581E+000  0.1868909E+03  0.7546771E-02  0.1161296E+00
         21   -1    0    0  501  502  0.00000000000E+00  0.00000000000E+00  0.11475781350E+03  0.11475781350E+03  0.00000000000E+00 0. -1.
         21   -1    0    0  502  503 -0.00000000000E+00 -0.00000000000E+00 -0.46518957464E+03  0.46518957464E+03  0.00000000000E+00 0. -1.
          6    1    1    2  501    0  0.73078950176E+02  0.19155145489E+01 -0.47173959688E+01  0.18695041048E+03  0.17200000000E+03 0. -1.
         -6    1    1    2    0  503 -0.73078950176E+02 -0.19155145489E+01 -0.34571436517E+03  0.39299697765E+03  0.17200000000E+03 0. -1.
<mgrwt>
<rscale>  2 0.18689088E+03</rscale>
<asrwt>0</asrwt>
<pdfrwt beam="1">  1       21 0.28689454E-01 0.18689088E+03</pdfrwt>
<pdfrwt beam="2">  1       21 0.11629739E+00 0.18689088E+03</pdfrwt>
<totfact> 0.66595885E+03</totfact>
</mgrwt>
</event>
<event>
 4    1  0.1110581E+000  0.2221270E+03  0.7546771E-02  0.1132307E+00
         21   -1    0    0  501  502  0.00000000000E+00  0.00000000000E+00  0.22802149189E+03  0.22802149189E+03  0.00000000000E+00 0. -1.
         21   -1    0    0  502  503 -0.00000000000E+00 -0.00000000000E+00 -0.22214575891E+03  0.22214575891E+03  0.00000000000E+00 0. -1.
          6    1    1    2  501    0 -0.13392270285E+03  0.42674665094E+02  0.39184436132E+02  0.22555672771E+03  0.17200000000E+03 0. -1.
         -6    1    1    2    0  503  0.13392270285E+03 -0.42674665094E+02 -0.33308703145E+02  0.22461052309E+03  0.17200000000E+03 0. -1.
<mgrwt>
<rscale>  2 0.22212703E+03</rscale>
<asrwt>0</asrwt>
<pdfrwt beam="1">  1       21 0.57005373E-01 0.22212703E+03</pdfrwt>
<pdfrwt beam="2">  1       21 0.55536440E-01 0.22212703E+03</pdfrwt>
<totfact> 0.86585753E+03</totfact>
</mgrwt>
</event>
<event>
 4    1  0.1110581E+000  0.2395317E+03  0.7546771E-02  0.1120105E+00
         21   -1    0    0  503  502  0.00000000000E+00  0.00000000000E+00  0.15948394885E+03  0.15948394885E+03  0.00000000000E+00 0. -1.
         21   -1    0    0  501  503 -0.00000000000E+00 -0.00000000000E+00 -0.50203097184E+03  0.50203097184E+03  0.00000000000E+00 0.  1.
          6    1    1    2  501    0  0.66848048213E+01 -0.16657353339E+03 -0.34735248106E+03  0.42193503616E+03  0.17200000000E+03 0.  1.
         -6    1    1    2    0  502 -0.66848048213E+01  0.16657353339E+03  0.48054580660E+01  0.23957988452E+03  0.17200000000E+03 0. -1.
<mgrwt>
<rscale>  2 0.23953169E+03</rscale>
<asrwt>0</asrwt>
<pdfrwt beam="1">  1       21 0.39870988E-01 0.23953169E+03</pdfrwt>
<pdfrwt beam="2">  1       21 0.12550774E+00 0.23953169E+03</pdfrwt>
<totfact> 0.27554194E+03</totfact>
</mgrwt>
</event>
<event>
 4    1  0.1110581E+000  0.2340321E+03  0.7546771E-02  0.1123834E+00
         21   -1    0    0  503  502  0.00000000000E+00  0.00000000000E+00  0.37229340345E+03  0.37229340345E+03  0.00000000000E+00 0.  1.
         21   -1    0    0  501  503 -0.00000000000E+00 -0.00000000000E+00 -0.18323878309E+03  0.18323878309E+03  0.00000000000E+00 0. -1.
          6    1    1    2  501    0  0.14593749314E+03  0.62364147916E+02 -0.28797219027E+02  0.23579719819E+03  0.17200000000E+03 0. -1.
         -6    1    1    2    0  502 -0.14593749314E+03 -0.62364147916E+02  0.21785183939E+03  0.31973498835E+03  0.17200000000E+03 0.  1.
<mgrwt>
<rscale>  2 0.23403213E+03</rscale>
<asrwt>0</asrwt>
<pdfrwt beam="1">  1       21 0.93073350E-01 0.23403213E+03</pdfrwt>
<pdfrwt beam="2">  1       21 0.45809696E-01 0.23403213E+03</pdfrwt>
<totfact> 0.43025079E+03</totfact>
</mgrwt>
</event>
<event>
 4    1  0.1110581E+000  0.2190151E+03  0.7546771E-02  0.1134619E+00
         21   -1    0    0  501  502  0.00000000000E+00  0.00000000000E+00  0.38032804923E+03  0.38032804923E+03  0.00000000000E+00 0.  1.
         21   -1    0    0  502  503 -0.00000000000E+00 -0.00000000000E+00 -0.13405565972E+03  0.13405565972E+03  0.00000000000E+00 0.  1.
          6    1    1    2  501    0 -0.61808128907E+02  0.12067878981E+03  0.18570530648E+03  0.28714817771E+03  0.17200000000E+03 0.  1.
         -6    1    1    2    0  503  0.61808128907E+02 -0.12067878981E+03  0.60567083039E+02  0.22723553124E+03  0.17200000000E+03 0.  1.
<mgrwt>
<rscale>  2 0.21901510E+03</rscale>
<asrwt>0</asrwt>
<pdfrwt beam="1">  1       21 0.95082010E-01 0.21901510E+03</pdfrwt>
<pdfrwt beam="2">  1       21 0.33513916E-01 0.21901510E+03</pdfrwt>
<totfact> 0.77805125E+03</totfact>
</mgrwt>
</event>
<event>
 4    1  0.1110581E+000  0.2012681E+03  0.7546771E-02  0.1148674E+00
         21   -1    0    0  503  502  0.00000000000E+00  0.00000000000E+00  0.12327118271E+03  0.12327118271E+03  0.00000000000E+00 0. -1.
         21   -1    0    0  501  503 -0.00000000000E+00 -0.00000000000E+00 -0.57357357380E+03  0.57357357380E+03  0.00000000000E+00 0. -1.
          6    1    1    2  501    0 -0.36460921358E+02  0.97956334024E+02 -0.45284814033E+03  0.49556057184E+03  0.17200000000E+03 0. -1.
         -6    1    1    2    0  502  0.36460921358E+02 -0.97956334024E+02  0.25457492353E+01  0.20128418468E+03  0.17200000000E+03 0. -1.
<mgrwt>
<rscale>  2 0.20126809E+03</rscale>
<asrwt>0</asrwt>
<pdfrwt beam="1">  1       21 0.30817796E-01 0.20126809E+03</pdfrwt>
<pdfrwt beam="2">  1       21 0.14339339E+00 0.20126809E+03</pdfrwt>
<totfact> 0.33745865E+03</totfact>
</mgrwt>
</event>
<event>
 4    1  0.1110581E+000  0.2224113E+03  0.7546771E-02  0.1132098E+00
         21   -1    0    0  503  502  0.00000000000E+00  0.00000000000E+00  0.11151220819E+04  0.11151220819E+04  0.00000000000E+00 0.  1.
         21   -1    0    0  501  503 -0.00000000000E+00 -0.00000000000E+00 -0.45346892130E+02  0.45346892130E+02  0.00000000000E+00 0. -1.
          6    1    1    2  501    0 -0.94739104973E+02  0.10443787904E+03  0.62048761819E+03  0.65914463733E+03  0.17200000000E+03 0. -1.
         -6    1    1    2    0  502  0.94739104973E+02 -0.10443787904E+03  0.44928757153E+03  0.50132433665E+03  0.17200000000E+03 0.  1.
<mgrwt>
<rscale>  2 0.22241126E+03</rscale>
<asrwt>0</asrwt>
<pdfrwt beam="1">  1       21 0.27878043E+00 0.22241126E+03</pdfrwt>
<pdfrwt beam="2">  1       21 0.11336727E-01 0.22241126E+03</pdfrwt>
<totfact> 0.28424257E+03</totfact>
</mgrwt>
</event>
<event>
 4    1  0.1110581E+000  0.1795601E+03  0.7546771E-02  0.1168229E+00
         21   -1    0    0  503  502  0.00000000000E+00  0.00000000000E+00  0.76712589272E+03  0.76712589272E+03  0.00000000000E+00 0.  1.
         21   -1    0    0  501  503 -0.00000000000E+00 -0.00000000000E+00 -0.64298645008E+02  0.64298645008E+02  0.00000000000E+00 0.  1.
          6    1    1    2  501    0  0.26226156549E+02  0.44384759741E+02  0.10676376578E+03  0.20890265644E+03  0.17200000000E+03 0.  1.
         -6    1    1    2    0  502 -0.26226156549E+02 -0.44384759741E+02  0.59606348194E+03  0.62252188129E+03  0.17200000000E+03 0.  1.
<mgrwt>
<rscale>  2 0.17956007E+03</rscale>
<asrwt>0</asrwt>
<pdfrwt beam="1">  1       21 0.19178144E+00 0.17956007E+03</pdfrwt>
<pdfrwt beam="2">  1       21 0.16074664E-01 0.17956007E+03</pdfrwt>
<totfact> 0.53128605E+03</totfact>
</mgrwt>
</event>
<event>
 4    1  0.1110581E+000  0.1818550E+03  0.7546771E-02  0.1166020E+00
         21   -1    0    0  503  502  0.00000000000E+00  0.00000000000E+00  0.13929748625E+03  0.13929748625E+03  0.00000000000E+00 0. -1.
         21   -1    0    0  501  503 -0.00000000000E+00 -0.00000000000E+00 -0.29301767554E+03  0.29301767554E+03  0.00000000000E+00 0. -1.
          6    1    1    2  501    0  0.45224367166E+02  0.37973695169E+02 -0.17102158144E+03  0.24963899180E+03  0.17200000000E+03 0.  1.
         -6    1    1    2    0  502 -0.45224367166E+02 -0.37973695169E+02  0.17301392146E+02  0.18267616999E+03  0.17200000000E+03 0.  1.
<mgrwt>
<rscale>  2 0.18185501E+03</rscale>
<asrwt>0</asrwt>
<pdfrwt beam="1">  1       21 0.34824372E-01 0.18185501E+03</pdfrwt>
<pdfrwt beam="2">  1       21 0.73254419E-01 0.18185501E+03</pdfrwt>
<totfact> 0.13412363E+04</totfact>
</mgrwt>
</event>
<event>
 4    1  0.1110581E+000  0.3309417E+03  0.7546771E-02  0.1070721E+00
         21   -1    0    0  503  502  0.00000000000E+00  0.00000000000E+00  0.44731096255E+03  0.44731096255E+03  0.00000000000E+00 0. -1.
         21   -1    0    0  501  503 -0.00000000000E+00 -0.00000000000E+00 -0.26097784673E+03  0.26097784673E+03  0.00000000000E+00 0.  1.
          6    1    1    2  501    0 -0.26685010904E+03  0.93431335139E+02  0.51189131664E+01  0.33098126586E+03  0.17200000000E+03 0.  1.
         -6    1    1    2    0  502  0.26685010904E+03 -0.93431335139E+02  0.18121420265E+03  0.37730754342E+03  0.17200000000E+03 0. -1.
<mgrwt>
<rscale>  2 0.33094168E+03</rscale>
<asrwt>0</asrwt>
<pdfrwt beam="1">  1       21 0.11182774E+00 0.33094168E+03</pdfrwt>
<pdfrwt beam="2">  1       21 0.65244462E-01 0.33094168E+03</pdfrwt>
<totfact> 0.12235044E+03</totfact>
</mgrwt>
</event>
<event>
 4    1  0.1110581E+000  0.1881297E+03  0.7546771E-02  0.1160159E+00
         21   -1    0    0  503  502  0.00000000000E+00  0.00000000000E+00  0.27440596210E+03  0.27440596210E+03  0.00000000000E+00 0.  1.
         21   -1    0    0  501  503 -0.00000000000E+00 -0.00000000000E+00 -0.15224047890E+03  0.15224047890E+03  0.00000000000E+00 0.  1.
          6    1    1    2  501    0 -0.41718313031E+02  0.63783684157E+02 -0.22301879267E+02  0.18944695782E+03  0.17200000000E+03 0.  1.
         -6    1    1    2    0  502  0.41718313031E+02 -0.63783684157E+02  0.14446736246E+03  0.23719948319E+03  0.17200000000E+03 0.  1.
<mgrwt>
<rscale>  2 0.18812968E+03</rscale>
<asrwt>0</asrwt>
<pdfrwt beam="1">  1       21 0.68601490E-01 0.18812968E+03</pdfrwt>
<pdfrwt beam="2">  1       21 0.38060120E-01 0.18812968E+03</pdfrwt>
<totfact> 0.12934190E+04</totfact>
</mgrwt>
</event>
<event>
 4    1  0.1110581E+000  0.1958915E+03  0.7546771E-02  0.1153252E+00
         21   -1    0    0  503  502  0.00000000000E+00  0.00000000000E+00  0.19291951684E+03  0.19291951684E+03  0.00000000000E+00 0.  1.
         21   -1    0    0  501  503 -0.00000000000E+00 -0.00000000000E+00 -0.21158351703E+03  0.21158351703E+03  0.00000000000E+00 0. -1.
          6    1    1    2  501    0 -0.82479725236E+02  0.44570921148E+02 -0.58832852956E+02  0.20453551446E+03  0.17200000000E+03 0.  1.
         -6    1    1    2    0  502  0.82479725236E+02 -0.44570921148E+02  0.40168852763E+02  0.19996751941E+03  0.17200000000E+03 0.  1.
<mgrwt>
<rscale>  2 0.19589148E+03</rscale>
<asrwt>0</asrwt>
<pdfrwt beam="1">  1       21 0.48229879E-01 0.19589148E+03</pdfrwt>
<pdfrwt beam="2">  1       21 0.52895879E-01 0.19589148E+03</pdfrwt>
<totfact> 0.13880297E+04</totfact>
</mgrwt>
</event>
<event>
 4    1  0.1110581E+000  0.1913043E+03  0.7546771E-02  0.1157290E+00
         21   -1    0    0  501  502  0.00000000000E+00  0.00000000000E+00  0.24289500841E+03  0.24289500841E+03  0.00000000000E+00 0.  1.
         21   -1    0    0  502  503 -0.00000000000E+00 -0.00000000000E+00 -0.15765947851E+03  0.15765947851E+03  0.00000000000E+00 0.  1.
          6    1    1    2  501    0 -0.69988383027E+01 -0.83452759063E+02  0.84782408548E+02  0.20924962015E+03  0.17200000000E+03 0.  1.
         -6    1    1    2    0  503  0.69988383027E+01  0.83452759063E+02  0.45312134818E+00  0.19130486677E+03  0.17200000000E+03 0.  1.
<mgrwt>
<rscale>  2 0.19130433E+03</rscale>
<asrwt>0</asrwt>
<pdfrwt beam="1">  1       21 0.60723752E-01 0.19130433E+03</pdfrwt>
<pdfrwt beam="2">  1       21 0.39414870E-01 0.19130433E+03</pdfrwt>
<totfact> 0.15684190E+04</totfact>
</mgrwt>
</event>
<event>
 4    1  0.1110581E+000  0.1744474E+03  0.7546771E-02  0.1173288E+00
         21   -1    0    0  503  502  0.00000000000E+00  0.00000000000E+00  0.52911805875E+03  0.52911805875E+03  0.00000000000E+00 0.  1.
         21   -1    0    0  501  503 -0.00000000000E+00 -0.00000000000E+00 -0.65718421288E+02  0.65718421288E+02  0.00000000000E+00 0.  1.
          6    1    1    2  501    0 -0.23134104314E+02 -0.17683182483E+02  0.33678433414E+03  0.37928296751E+03  0.17200000000E+03 0. -1.
         -6    1    1    2    0  502  0.23134104314E+02  0.17683182483E+02  0.12661530332E+03  0.21555351252E+03  0.17200000000E+03 0. -1.
<mgrwt>
<rscale>  2 0.17444736E+03</rscale>
<asrwt>0</asrwt>
<pdfrwt beam="1">  1       21 0.13227950E+00 0.17444736E+03</pdfrwt>
<pdfrwt beam="2">  1       21 0.16429607E-01 0.17444736E+03</pdfrwt>
<totfact> 0.13918779E+04</totfact>
</mgrwt>
</event>
<event>
 4    1  0.1110581E+000  0.2702262E+03  0.7546771E-02  0.1101150E+00
         21   -1    0    0  503  502  0.00000000000E+00  0.00000000000E+00  0.33260670375E+03  0.33260670375E+03  0.00000000000E+00 0.  1.
         21   -1    0    0  501  503 -0.00000000000E+00 -0.00000000000E+00 -0.22613850611E+03  0.22613850611E+03  0.00000000000E+00 0. -1.
          6    1    1    2  501    0  0.67277444824E+02 -0.19726106341E+03  0.10093762822E+03  0.28846245251E+03  0.17200000000E+03 0.  1.
         -6    1    1    2    0  502 -0.67277444824E+02  0.19726106341E+03  0.55305694136E+01  0.27028275734E+03  0.17200000000E+03 0. -1.
<mgrwt>
<rscale>  2 0.27022617E+03</rscale>
<asrwt>0</asrwt>
<pdfrwt beam="1">  1       21 0.83151675E-01 0.27022617E+03</pdfrwt>
<pdfrwt beam="2">  1       21 0.56534627E-01 0.27022617E+03</pdfrwt>
<totfact> 0.35075435E+03</totfact>
</mgrwt>
</event>
<event>
 4    1  0.1110581E+000  0.1961982E+03  0.7546771E-02  0.1152987E+00
         21   -1    0    0  503  502  0.00000000000E+00  0.00000000000E+00  0.56422976303E+03  0.56422976303E+03  0.00000000000E+00 0.  1.
         21   -1    0    0  501  503 -0.00000000000E+00 -0.00000000000E+00 -0.83968065106E+02  0.83968065106E+02  0.00000000000E+00 0.  1.
          6    1    1    2  501    0  0.79738889095E+02  0.50511750440E+02  0.99789423525E+02  0.22011736963E+03  0.17200000000E+03 0.  1.
         -6    1    1    2    0  502 -0.79738889095E+02 -0.50511750440E+02  0.38047227440E+03  0.42808045851E+03  0.17200000000E+03 0.  1.
<mgrwt>
<rscale>  2 0.19619818E+03</rscale>
<asrwt>0</asrwt>
<pdfrwt beam="1">  1       21 0.14105743E+00 0.19619818E+03</pdfrwt>
<pdfrwt beam="2">  1       21 0.20992018E-01 0.19619818E+03</pdfrwt>
<totfact> 0.73782676E+03</totfact>
</mgrwt>
</event>
<event>
 4    1  0.1110581E+000  0.2403423E+03  0.7546771E-02  0.1119565E+00
         21   -1    0    0  501  502  0.00000000000E+00  0.00000000000E+00  0.13493058475E+03  0.13493058475E+03  0.00000000000E+00 0. -1.
         21   -1    0    0  502  503 -0.00000000000E+00 -0.00000000000E+00 -0.43062780659E+03  0.43062780659E+03  0.00000000000E+00 0. -1.
          6    1    1    2  501    0 -0.13438063339E+03 -0.10060940430E+03 -0.12620294223E+03  0.27146194852E+03  0.17200000000E+03 0.  1.
         -6    1    1    2    0  503  0.13438063339E+03  0.10060940430E+03 -0.16949427961E+03  0.29409644283E+03  0.17200000000E+03 0.  1.
<mgrwt>
<rscale>  2 0.24034227E+03</rscale>
<asrwt>0</asrwt>
<pdfrwt beam="1">  1       21 0.33732646E-01 0.24034227E+03</pdfrwt>
<pdfrwt beam="2">  1       21 0.10765695E+00 0.24034227E+03</pdfrwt>
<totfact> 0.56271880E+03</totfact>
</mgrwt>
</event>
<event>
 4    1  0.1110581E+000  0.1825556E+03  0.7546771E-02  0.1165352E+00
         21   -1    0    0  503  502  0.00000000000E+00  0.00000000000E+00  0.40126080856E+03  0.40126080856E+03  0.00000000000E+00 0. -1.
         21   -1    0    0  501  503 -0.00000000000E+00 -0.00000000000E+00 -0.96423953248E+02  0.96423953248E+02  0.00000000000E+00 0. -1.
          6    1    1    2  501    0  0.33604598069E+02 -0.51120399419E+02  0.59759611998E+02  0.19208793683E+03  0.17200000000E+03 0.  1.
         -6    1    1    2    0  502 -0.33604598069E+02  0.51120399419E+02  0.24507724332E+03  0.30559682498E+03  0.17200000000E+03 0.  1.
<mgrwt>
<rscale>  2 0.18255565E+03</rscale>
<asrwt>0</asrwt>
<pdfrwt beam="1">  1       21 0.10031520E+00 0.18255565E+03</pdfrwt>
<pdfrwt beam="2">  1       21 0.24105989E-01 0.18255565E+03</pdfrwt>
<totfact> 0.13319042E+04</totfact>
</mgrwt>
</event>
<event>
 4    1  0.1110581E+000  0.2438064E+03  0.7546771E-02  0.1117283E+00
         21   -1    0    0  501  502  0.00000000000E+00  0.00000000000E+00  0.28357594748E+03  0.28357594748E+03  0.00000000000E+00 0.  1.
         21   -1    0    0  502  503 -0.00000000000E+00 -0.00000000000E+00 -0.26068607138E+03  0.26068607138E+03  0.00000000000E+00 0.  1.
          6    1    1    2  501    0  0.91938636925E+02  0.14630401710E+03 -0.10900581233E+03  0.26706524578E+03  0.17200000000E+03 0.  1.
         -6    1    1    2    0  503 -0.91938636925E+02 -0.14630401710E+03  0.13189568844E+03  0.27719677308E+03  0.17200000000E+03 0.  1.
<mgrwt>
<rscale>  2 0.24380644E+03</rscale>
<asrwt>0</asrwt>
<pdfrwt beam="1">  1       21 0.70893987E-01 0.24380644E+03</pdfrwt>
<pdfrwt beam="2">  1       21 0.65171518E-01 0.24380644E+03</pdfrwt>
<totfact> 0.37581998E+03</totfact>
</mgrwt>
</event>
<event>
 4    1  0.1110581E+000  0.1859953E+03  0.7546771E-02  0.1162124E+00
         21   -1    0    0  501  502  0.00000000000E+00  0.00000000000E+00  0.76426902735E+02  0.76426902735E+02  0.00000000000E+00 0.  1.
         21   -1    0    0  502  503 -0.00000000000E+00 -0.00000000000E+00 -0.62036492604E+03  0.62036492604E+03  0.00000000000E+00 0.  1.
          6    1    1    2  501    0  0.53544510992E+02  0.46295247633E+02 -0.90817646848E+02  0.20698335583E+03  0.17200000000E+03 0.  1.
         -6    1    1    2    0  503 -0.53544510992E+02 -0.46295247633E+02 -0.45312037645E+03  0.48980847294E+03  0.17200000000E+03 0.  1.
<mgrwt>
<rscale>  2 0.18599533E+03</rscale>
<asrwt>0</asrwt>
<pdfrwt beam="1">  1       21 0.19106726E-01 0.18599533E+03</pdfrwt>
<pdfrwt beam="2">  1       21 0.15509123E+00 0.18599533E+03</pdfrwt>
<totfact> 0.69156350E+03</totfact>
</mgrwt>
</event>
<event>
 4    1  0.1110581E+000  0.2856554E+03  0.7546771E-02  0.1092640E+00
         21   -1    0    0  501  502  0.00000000000E+00  0.00000000000E+00  0.39158373262E+03  0.39158373262E+03  0.00000000000E+00 0.  1.
         21   -1    0    0  502  503 -0.00000000000E+00 -0.00000000000E+00 -0.23660814570E+03  0.23660814570E+03  0.00000000000E+00 0. -1.
          6    1    1    2  501    0 -0.10839539500E+03  0.20066253185E+03  0.18597362690E+03  0.34085950661E+03  0.17200000000E+03 0.  1.
         -6    1    1    2    0  503  0.10839539500E+03 -0.20066253185E+03 -0.30998039982E+02  0.28733237171E+03  0.17200000000E+03 0. -1.
<mgrwt>
<rscale>  2 0.28565541E+03</rscale>
<asrwt>0</asrwt>
<pdfrwt beam="1">  1       21 0.97895932E-01 0.28565541E+03</pdfrwt>
<pdfrwt beam="2">  1       21 0.59152037E-01 0.28565541E+03</pdfrwt>
<totfact> 0.21511894E+03</totfact>
</mgrwt>
</event>
<event>
 4    1  0.1110581E+000  0.2139195E+03  0.7546771E-02  0.1138499E+00
         21   -1    0    0  501  502  0.00000000000E+00  0.00000000000E+00  0.11902619966E+03  0.11902619966E+03  0.00000000000E+00 0. -1.
         21   -1    0    0  502  503 -0.00000000000E+00 -0.00000000000E+00 -0.39171563243E+03  0.39171563243E+03  0.00000000000E+00 0.  1.
          6    1    1    2  501    0 -0.87415849419E+02  0.92390699079E+02 -0.17108494083E+03  0.27391901902E+03  0.17200000000E+03 0. -1.
         -6    1    1    2    0  503  0.87415849419E+02 -0.92390699079E+02 -0.10160449195E+03  0.23682281307E+03  0.17200000000E+03 0.  1.
<mgrwt>
<rscale>  2 0.21391955E+03</rscale>
<asrwt>0</asrwt>
<pdfrwt beam="1">  1       21 0.29756550E-01 0.21391955E+03</pdfrwt>
<pdfrwt beam="2">  1       21 0.97928907E-01 0.21391955E+03</pdfrwt>
<totfact> 0.92009655E+03</totfact>
</mgrwt>
</event>
<event>
 4    1  0.1110581E+000  0.2386022E+03  0.7546771E-02  0.1120727E+00
         21   -1    0    0  501  502  0.00000000000E+00  0.00000000000E+00  0.30147234247E+03  0.30147234247E+03  0.00000000000E+00 0. -1.
         21   -1    0    0  502  503 -0.00000000000E+00 -0.00000000000E+00 -0.34637419688E+03  0.34637419688E+03  0.00000000000E+00 0. -1.
          6    1    1    2  501    0 -0.28316712023E+02  0.16292692277E+03 -0.24090106195E+03  0.33906391726E+03  0.17200000000E+03 0. -1.
         -6    1    1    2    0  503  0.28316712023E+02 -0.16292692277E+03  0.19599920754E+03  0.30878262208E+03  0.17200000000E+03 0. -1.
<mgrwt>
<rscale>  2 0.23860222E+03</rscale>
<asrwt>0</asrwt>
<pdfrwt beam="1">  1       21 0.75368086E-01 0.23860222E+03</pdfrwt>
<pdfrwt beam="2">  1       21 0.86593549E-01 0.23860222E+03</pdfrwt>
<totfact> 0.17365837E+03</totfact>
</mgrwt>
</event>
<event>
 4    1  0.1110581E+000  0.2209036E+03  0.7546771E-02  0.1133211E+00
         21   -1    0    0  501  502  0.00000000000E+00  0.00000000000E+00  0.10263762480E+03  0.10263762480E+03  0.00000000000E+00 0. -1.
         21   -1    0    0  502  503 -0.00000000000E+00 -0.00000000000E+00 -0.11764404434E+04  0.11764404434E+04  0.00000000000E+00 0.  1.
          6    1    1    2  501    0  0.89226126364E+02  0.10608054475E+03 -0.43227506313E+02  0.22509331599E+03  0.17200000000E+03 0. -1.
         -6    1    1    2    0  503 -0.89226126364E+02 -0.10608054475E+03 -0.10305753123E+04  0.10539847522E+04  0.17200000000E+03 0.  1.
<mgrwt>
<rscale>  2 0.22090356E+03</rscale>
<asrwt>0</asrwt>
<pdfrwt beam="1">  1       21 0.25659406E-01 0.22090356E+03</pdfrwt>
<pdfrwt beam="2">  1       21 0.29411012E+00 0.22090356E+03</pdfrwt>
<totfact> 0.51214692E+02</totfact>
</mgrwt>
</event>
<event>
 4    1  0.1110581E+000  0.1938807E+03  0.7546771E-02  0.1155007E+00
         21   -1    0    0  501  502  0.00000000000E+00  0.00000000000E+00  0.16179629307E+03  0.16179629307E+03  0.00000000000E+00 0.  1.
         21   -1    0    0  502  503 -0.00000000000E+00 -0.00000000000E+00 -0.24318744142E+03  0.24318744142E+03  0.00000000000E+00 0.  1.
          6    1    1    2  501    0  0.68405880739E+02 -0.57674585699E+02  0.20953323229E+01  0.19389201317E+03  0.17200000000E+03 0.  1.
         -6    1    1    2    0  503 -0.68405880739E+02  0.57674585699E+02 -0.83486480667E+02  0.21109172132E+03  0.17200000000E+03 0.  1.
<mgrwt>
<rscale>  2 0.19388069E+03</rscale>
<asrwt>0</asrwt>
<pdfrwt beam="1">  1       21 0.40449073E-01 0.19388069E+03</pdfrwt>
<pdfrwt beam="2">  1       21 0.60796860E-01 0.19388069E+03</pdfrwt>
<totfact> 0.14822254E+04</totfact>
</mgrwt>
</event>
<event>
 4    1  0.1110581E+000  0.1964130E+03  0.7546771E-02  0.1152801E+00
         21   -1    0    0  503  502  0.00000000000E+00  0.00000000000E+00  0.31232259744E+03  0.31232259744E+03  0.00000000000E+00 0. -1.
         21   -1    0    0  501  503 -0.00000000000E+00 -0.00000000000E+00 -0.16098059090E+03  0.16098059090E+03  0.00000000000E+00 0. -1.
          6    1    1    2  501    0  0.58982780065E+02 -0.74263705584E+02 -0.38488054595E+02  0.20014843656E+03  0.17200000000E+03 0. -1.
         -6    1    1    2    0  502 -0.58982780065E+02  0.74263705584E+02  0.18983006113E+03  0.27315475178E+03  0.17200000000E+03 0. -1.
<mgrwt>
<rscale>  2 0.19641300E+03</rscale>
<asrwt>0</asrwt>
<pdfrwt beam="1">  1       21 0.78080648E-01 0.19641300E+03</pdfrwt>
<pdfrwt beam="2">  1       21 0.40245148E-01 0.19641300E+03</pdfrwt>
<totfact> 0.86203505E+03</totfact>
</mgrwt>
</event>
<event>
 4    1  0.1110581E+000  0.1751303E+03  0.7546771E-02  0.1172601E+00
         21   -1    0    0  501  502  0.00000000000E+00  0.00000000000E+00  0.10392311307E+03  0.10392311307E+03  0.00000000000E+00 0. -1.
         21   -1    0    0  502  503 -0.00000000000E+00 -0.00000000000E+00 -0.30007049305E+03  0.30007049305E+03  0.00000000000E+00 0. -1.
          6    1    1    2  501    0  0.18543184405E+02 -0.27254101443E+02 -0.72149842966E+02  0.18941023091E+03  0.17200000000E+03 0.  1.
         -6    1    1    2    0  503 -0.18543184405E+02  0.27254101443E+02 -0.12399753700E+03  0.21458337521E+03  0.17200000000E+03 0.  1.
<mgrwt>
<rscale>  2 0.17513034E+03</rscale>
<asrwt>0</asrwt>
<pdfrwt beam="1">  1       21 0.25980778E-01 0.17513034E+03</pdfrwt>
<pdfrwt beam="2">  1       21 0.75017623E-01 0.17513034E+03</pdfrwt>
<totfact> 0.22594963E+04</totfact>
</mgrwt>
</event>
<event>
 4    1  0.1110581E+000  0.2293696E+03  0.7546771E-02  0.1127084E+00
         21   -1    0    0  503  502  0.00000000000E+00  0.00000000000E+00  0.13422997601E+03  0.13422997601E+03  0.00000000000E+00 0.  1.
         21   -1    0    0  501  503 -0.00000000000E+00 -0.00000000000E+00 -0.45493103887E+03  0.45493103887E+03  0.00000000000E+00 0.  1.
          6    1    1    2  501    0 -0.11472943352E+03 -0.99315591909E+02 -0.26996352964E+03  0.35424671776E+03  0.17200000000E+03 0.  1.
         -6    1    1    2    0  502  0.11472943352E+03  0.99315591909E+02 -0.50737533216E+02  0.23491429712E+03  0.17200000000E+03 0.  1.
<mgrwt>
<rscale>  2 0.22936964E+03</rscale>
<asrwt>0</asrwt>
<pdfrwt beam="1">  1       21 0.33557494E-01 0.22936964E+03</pdfrwt>
<pdfrwt beam="2">  1       21 0.11373276E+00 0.22936964E+03</pdfrwt>
<totfact> 0.50101250E+03</totfact>
</mgrwt>
</event>
<event>
 4    1  0.1110581E+000  0.2197470E+03  0.7546771E-02  0.1134072E+00
         21   -1    0    0  503  502  0.00000000000E+00  0.00000000000E+00  0.24931363577E+03  0.24931363577E+03  0.00000000000E+00 0. -1.
         21   -1    0    0  501  503 -0.00000000000E+00 -0.00000000000E+00 -0.41113866081E+03  0.41113866081E+03  0.00000000000E+00 0.  1.
          6    1    1    2  501    0 -0.10680126686E+03 -0.85429760068E+02 -0.32107152438E+03  0.38907027421E+03  0.17200000000E+03 0.  1.
         -6    1    1    2    0  502  0.10680126686E+03  0.85429760068E+02  0.15924649934E+03  0.27138202236E+03  0.17200000000E+03 0. -1.
<mgrwt>
<rscale>  2 0.21974702E+03</rscale>
<asrwt>0</asrwt>
<pdfrwt beam="1">  1       21 0.62328409E-01 0.21974702E+03</pdfrwt>
<pdfrwt beam="2">  1       21 0.10278466E+00 0.21974702E+03</pdfrwt>
<totfact> 0.17917832E+03</totfact>
</mgrwt>
</event>
<event>
 4    1  0.1110581E+000  0.1739396E+03  0.7546771E-02  0.1173801E+00
         21   -1    0    0  503  502  0.00000000000E+00  0.00000000000E+00  0.11700090577E+03  0.11700090577E+03  0.00000000000E+00 0.  1.
         21   -1    0    0  501  503 -0.00000000000E+00 -0.00000000000E+00 -0.67682492402E+03  0.67682492402E+03  0.00000000000E+00 0.  1.
          6    1    1    2  501    0  0.24349269273E+02 -0.88375152049E+01 -0.59192194874E+03  0.61694941607E+03  0.17200000000E+03 0.  1.
         -6    1    1    2    0  502 -0.24349269273E+02  0.88375152049E+01  0.32097930492E+02  0.17687641372E+03  0.17200000000E+03 0.  1.
<mgrwt>
<rscale>  2 0.17393961E+03</rscale>
<asrwt>0</asrwt>
<pdfrwt beam="1">  1       21 0.29250227E-01 0.17393961E+03</pdfrwt>
<pdfrwt beam="2">  1       21 0.16920623E+00 0.17393961E+03</pdfrwt>
<totfact> 0.24652480E+03</totfact>
</mgrwt>
</event>
<event>
 4    1  0.1110581E+000  0.2332352E+03  0.7546771E-02  0.1124383E+00
         21   -1    0    0  503  502  0.00000000000E+00  0.00000000000E+00  0.18179069695E+03  0.18179069695E+03  0.00000000000E+00 0. -1.
         21   -1    0    0  501  503 -0.00000000000E+00 -0.00000000000E+00 -0.29967113473E+03  0.29967113473E+03  0.00000000000E+00 0. -1.
          6    1    1    2  501    0 -0.63655800228E+02  0.14409233873E+03 -0.68093576924E+02  0.24297201115E+03  0.17200000000E+03 0. -1.
         -6    1    1    2    0  502  0.63655800228E+02 -0.14409233873E+03 -0.49786860859E+02  0.23848982053E+03  0.17200000000E+03 0. -1.
<mgrwt>
<rscale>  2 0.23323521E+03</rscale>
<asrwt>0</asrwt>
<pdfrwt beam="1">  1       21 0.45447675E-01 0.23323521E+03</pdfrwt>
<pdfrwt beam="2">  1       21 0.74917783E-01 0.23323521E+03</pdfrwt>
<totfact> 0.71962816E+03</totfact>
</mgrwt>
</event>
<event>
 4    1  0.1110581E+000  0.2161243E+03  0.7546771E-02  0.1136806E+00
         21   -1    0    0  503  502  0.00000000000E+00  0.00000000000E+00  0.28763101937E+03  0.28763101937E+03  0.00000000000E+00 0.  1.
         21   -1    0    0  501  503 -0.00000000000E+00 -0.00000000000E+00 -0.16588581348E+03  0.16588581348E+03  0.00000000000E+00 0.  1.
          6    1    1    2  501    0  0.12740983262E+03  0.29873892944E+02  0.27976153229E+02  0.21792746517E+03  0.17200000000E+03 0.  1.
         -6    1    1    2    0  502 -0.12740983262E+03 -0.29873892944E+02  0.93769052659E+02  0.23558936768E+03  0.17200000000E+03 0.  1.
<mgrwt>
<rscale>  2 0.21612430E+03</rscale>
<asrwt>0</asrwt>
<pdfrwt beam="1">  1       21 0.71907754E-01 0.21612430E+03</pdfrwt>
<pdfrwt beam="2">  1       21 0.41471454E-01 0.21612430E+03</pdfrwt>
<totfact> 0.96204341E+03</totfact>
</mgrwt>
</event>
<event>
 4    1  0.1110581E+000  0.1880216E+03  0.7546771E-02  0.1160258E+00
         21   -1    0    0  503  502  0.00000000000E+00  0.00000000000E+00  0.28073271807E+02  0.28073271807E+02  0.00000000000E+00 0.  1.
         21   -1    0    0  501  503 -0.00000000000E+00 -0.00000000000E+00 -0.13289246450E+04  0.13289246450E+04  0.00000000000E+00 0.  1.
          6    1    1    2  501    0  0.26313732156E+02 -0.71243934092E+02 -0.80575118977E+03  0.82739778249E+03  0.17200000000E+03 0.  1.
         -6    1    1    2    0  502 -0.26313732156E+02  0.71243934092E+02 -0.49510018337E+03  0.52960013427E+03  0.17200000000E+03 0.  1.
<mgrwt>
<rscale>  2 0.18802157E+03</rscale>
<asrwt>0</asrwt>
<pdfrwt beam="1">  1       21 0.70183184E-02 0.18802157E+03</pdfrwt>
<pdfrwt beam="2">  1       21 0.33223114E+00 0.18802157E+03</pdfrwt>
<totfact> 0.33670706E+03</totfact>
</mgrwt>
</event>
<event>
 4    1  0.1110581E+000  0.2216031E+03  0.7546771E-02  0.1132694E+00
         21   -1    0    0  503  502  0.00000000000E+00  0.00000000000E+00  0.55110151271E+03  0.55110151271E+03  0.00000000000E+00 0. -1.
         21   -1    0    0  501  503 -0.00000000000E+00 -0.00000000000E+00 -0.13321246266E+03  0.13321246266E+03  0.00000000000E+00 0.  1.
          6    1    1    2  501    0 -0.13552504278E+03  0.34013089264E+02  0.12069370149E+02  0.22193151456E+03  0.17200000000E+03 0.  1.
         -6    1    1    2    0  502  0.13552504278E+03 -0.34013089264E+02  0.40581967990E+03  0.46238246080E+03  0.17200000000E+03 0. -1.
<mgrwt>
<rscale>  2 0.22160309E+03</rscale>
<asrwt>0</asrwt>
<pdfrwt beam="1">  1       21 0.13777537E+00 0.22160309E+03</pdfrwt>
<pdfrwt beam="2">  1       21 0.33303117E-01 0.22160309E+03</pdfrwt>
<totfact> 0.31595305E+03</totfact>
</mgrwt>
</event>
<event>
 4    1  0.1110581E+000  0.1757740E+03  0.7546771E-02  0.1171957E+00
         21   -1    0    0  503  502  0.00000000000E+00  0.00000000000E+00  0.15876242389E+03  0.15876242389E+03  0.00000000000E+00 0. -1.
         21   -1    0    0  501  503 -0.00000000000E+00 -0.00000000000E+00 -0.20178118799E+03  0.20178118799E+03  0.00000000000E+00 0. -1.
          6    1    1    2  501    0  0.25640809236E+02 -0.25593711773E+02  0.12479257295E+02  0.17621640401E+03  0.17200000000E+03 0. -1.
         -6    1    1    2    0  502 -0.25640809236E+02  0.25593711773E+02 -0.55498021397E+02  0.18432720787E+03  0.17200000000E+03 0. -1.
<mgrwt>
<rscale>  2 0.17577397E+03</rscale>
<asrwt>0</asrwt>
<pdfrwt beam="1">  1       21 0.39690606E-01 0.17577397E+03</pdfrwt>
<pdfrwt beam="2">  1       21 0.50445297E-01 0.17577397E+03</pdfrwt>
<totfact> 0.23113394E+04</totfact>
</mgrwt>
</event>
<event>
 4    1  0.1110581E+000  0.1877130E+03  0.7546771E-02  0.1160540E+00
         21   -1    0    0  501  502  0.00000000000E+00  0.00000000000E+00  0.26307303902E+02  0.26307303902E+02  0.00000000000E+00 0. -1.
         21   -1    0    0  502  503 -0.00000000000E+00 -0.00000000000E+00 -0.14861485710E+04  0.14861485710E+04  0.00000000000E+00 0.  1.
          6    1    1    2  501    0 -0.23918106709E+01  0.75142824879E+02 -0.96754962735E+03  0.98559040492E+03  0.17200000000E+03 0.  1.
         -6    1    1    2    0  503  0.23918106709E+01 -0.75142824879E+02 -0.49229163972E+03  0.52686546995E+03  0.17200000000E+03 0.  1.
<mgrwt>
<rscale>  2 0.18771299E+03</rscale>
<asrwt>0</asrwt>
<pdfrwt beam="1">  1       21 0.65768259E-02 0.18771299E+03</pdfrwt>
<pdfrwt beam="2">  1       21 0.37153714E+00 0.18771299E+03</pdfrwt>
<totfact> 0.22072251E+03</totfact>
</mgrwt>
</event>
<event>
 4    1  0.1110581E+000  0.2025419E+03  0.7546771E-02  0.1147612E+00
         21   -1    0    0  501  502  0.00000000000E+00  0.00000000000E+00  0.71777794225E+03  0.71777794225E+03  0.00000000000E+00 0.  1.
         21   -1    0    0  502  503 -0.00000000000E+00 -0.00000000000E+00 -0.69536531504E+02  0.69536531504E+02  0.00000000000E+00 0.  1.
          6    1    1    2  501    0 -0.50993555205E+02 -0.94015280434E+02  0.49024482490E+03  0.53043680488E+03  0.17200000000E+03 0.  1.
         -6    1    1    2    0  503  0.50993555205E+02  0.94015280434E+02  0.15799658584E+03  0.25687766887E+03  0.17200000000E+03 0.  1.
<mgrwt>
<rscale>  2 0.20254189E+03</rscale>
<asrwt>0</asrwt>
<pdfrwt beam="1">  1       21 0.17944446E+00 0.20254189E+03</pdfrwt>
<pdfrwt beam="2">  1       21 0.17384135E-01 0.20254189E+03</pdfrwt>
<totfact> 0.54482621E+03</totfact>
</mgrwt>
</event>
<event>
 4    1  0.1110581E+000  0.1807957E+03  0.7546771E-02  0.1167035E+00
         21   -1    0    0  503  502  0.00000000000E+00  0.00000000000E+00  0.63012505471E+02  0.63012505471E+02  0.00000000000E+00 0. -1.
         21   -1    0    0  501  503 -0.00000000000E+00 -0.00000000000E+00 -0.56565299628E+03  0.56565299628E+03  0.00000000000E+00 0.  1.
          6    1    1    2  501    0 -0.31745607561E+02 -0.45774566687E+02 -0.34184390312E+03  0.38670964386E+03  0.17200000000E+03 0. -1.
         -6    1    1    2    0  502  0.31745607561E+02  0.45774566687E+02 -0.16079658769E+03  0.24195585789E+03  0.17200000000E+03 0. -1.
<mgrwt>
<rscale>  2 0.18079573E+03</rscale>
<asrwt>0</asrwt>
<pdfrwt beam="1">  1       21 0.15753127E-01 0.18079573E+03</pdfrwt>
<pdfrwt beam="2">  1       21 0.14141325E+00 0.18079573E+03</pdfrwt>
<totfact> 0.12615308E+04</totfact>
</mgrwt>
</event>
<event>
 4    1  0.1110581E+000  0.2003159E+03  0.7546771E-02  0.1149473E+00
         21   -1    0    0  503  502  0.00000000000E+00  0.00000000000E+00  0.39967451558E+03  0.39967451558E+03  0.00000000000E+00 0.  1.
         21   -1    0    0  501  503 -0.00000000000E+00 -0.00000000000E+00 -0.15799208530E+03  0.15799208530E+03  0.00000000000E+00 0.  1.
          6    1    1    2  501    0 -0.89676822931E+02 -0.50005270690E+02 -0.47510096558E+02  0.20587294369E+03  0.17200000000E+03 0.  1.
         -6    1    1    2    0  502  0.89676822931E+02  0.50005270690E+02  0.28919252683E+03  0.35179365720E+03  0.17200000000E+03 0.  1.
<mgrwt>
<rscale>  2 0.20031590E+03</rscale>
<asrwt>0</asrwt>
<pdfrwt beam="1">  1       21 0.99918627E-01 0.20031590E+03</pdfrwt>
<pdfrwt beam="2">  1       21 0.39498022E-01 0.20031590E+03</pdfrwt>
<totfact> 0.50519298E+03</totfact>
</mgrwt>
</event>
<event>
 4    1  0.1110581E+000  0.1870818E+03  0.7546771E-02  0.1161120E+00
         21   -1    0    0  501  502  0.00000000000E+00  0.00000000000E+00  0.21712409220E+03  0.21712409220E+03  0.00000000000E+00 0.  1.
         21   -1    0    0  502  503 -0.00000000000E+00 -0.00000000000E+00 -0.17520604811E+03  0.17520604811E+03  0.00000000000E+00 0.  1.
          6    1    1    2  501    0 -0.24844006629E+02  0.69270303579E+02  0.76429555571E+02  0.20209175289E+03  0.17200000000E+03 0.  1.
         -6    1    1    2    0  503  0.24844006629E+02 -0.69270303579E+02 -0.34511511477E+02  0.19023838742E+03  0.17200000000E+03 0.  1.
<mgrwt>
<rscale>  2 0.18708180E+03</rscale>
<asrwt>0</asrwt>
<pdfrwt beam="1">  1       21 0.54281023E-01 0.18708180E+03</pdfrwt>
<pdfrwt beam="2">  1       21 0.43801512E-01 0.18708180E+03</pdfrwt>
<totfact> 0.16117809E+04</totfact>
</mgrwt>
</event>
<event>
 4    1  0.1110581E+000  0.2214531E+03  0.7546771E-02  0.1132804E+00
         21   -1    0    0  501  502  0.00000000000E+00  0.00000000000E+00  0.11884387132E+03  0.11884387132E+03  0.00000000000E+00 0.  1.
         21   -1    0    0  502  503 -0.00000000000E+00 -0.00000000000E+00 -0.71934468094E+03  0.71934468094E+03  0.00000000000E+00 0.  1.
          6    1    1    2  501    0  0.13824790149E+03 -0.18574565430E+02 -0.26602001869E+02  0.22304520450E+03  0.17200000000E+03 0.  1.
         -6    1    1    2    0  503 -0.13824790149E+03  0.18574565430E+02 -0.57389880775E+03  0.61514334775E+03  0.17200000000E+03 0.  1.
<mgrwt>
<rscale>  2 0.22145315E+03</rscale>
<asrwt>0</asrwt>
<pdfrwt beam="1">  1       21 0.29710969E-01 0.22145315E+03</pdfrwt>
<pdfrwt beam="2">  1       21 0.17983616E+00 0.22145315E+03</pdfrwt>
<totfact> 0.19269464E+03</totfact>
</mgrwt>
</event>
<event>
 4    1  0.1110581E+000  0.2227418E+03  0.7546771E-02  0.1131855E+00
         21   -1    0    0  503  502  0.00000000000E+00  0.00000000000E+00  0.49733378065E+03  0.49733378065E+03  0.00000000000E+00 0.  1.
         21   -1    0    0  501  503 -0.00000000000E+00 -0.00000000000E+00 -0.11498577533E+03  0.11498577533E+03  0.00000000000E+00 0.  1.
          6    1    1    2  501    0  0.13474961551E+03  0.43271844589E+02  0.79765371256E+02  0.23659337663E+03  0.17200000000E+03 0.  1.
         -6    1    1    2    0  502 -0.13474961551E+03 -0.43271844589E+02  0.30258263407E+03  0.37572617936E+03  0.17200000000E+03 0.  1.
<mgrwt>
<rscale>  2 0.22274180E+03</rscale>
<asrwt>0</asrwt>
<pdfrwt beam="1">  1       21 0.12433344E+00 0.22274180E+03</pdfrwt>
<pdfrwt beam="2">  1       21 0.28746445E-01 0.22274180E+03</pdfrwt>
<totfact> 0.54696975E+03</totfact>
</mgrwt>
</event>
<event>
 4    1  0.1110581E+000  0.2009627E+03  0.7546771E-02  0.1148929E+00
         21   -1    0    0  501  502  0.00000000000E+00  0.00000000000E+00  0.34073112390E+03  0.34073112390E+03  0.00000000000E+00 0. -1.
         21   -1    0    0  502  503 -0.00000000000E+00 -0.00000000000E+00 -0.19089051240E+03  0.19089051240E+03  0.00000000000E+00 0. -1.
          6    1    1    2  501    0  0.77648173739E+02  0.69085196370E+02  0.23857891025E+03  0.31193893579E+03  0.17200000000E+03 0. -1.
         -6    1    1    2    0  503 -0.77648173739E+02 -0.69085196370E+02 -0.88738298747E+02  0.21968270052E+03  0.17200000000E+03 0. -1.
<mgrwt>
<rscale>  2 0.20096269E+03</rscale>
<asrwt>0</asrwt>
<pdfrwt beam="1">  1       21 0.85182780E-01 0.20096269E+03</pdfrwt>
<pdfrwt beam="2">  1       21 0.47722629E-01 0.20096269E+03</pdfrwt>
<totfact> 0.49730878E+03</totfact>
</mgrwt>
</event>
<event>
 4    1  0.1110581E+000  0.2105532E+03  0.7546771E-02  0.1141129E+00
         21   -1    0    0  501  502  0.00000000000E+00  0.00000000000E+00  0.48505713275E+02  0.48505713275E+02  0.00000000000E+00 0. -1.
         21   -1    0    0  502  503 -0.00000000000E+00 -0.00000000000E+00 -0.98169195774E+03  0.98169195774E+03  0.00000000000E+00 0. -1.
          6    1    1    2  501    0 -0.12068915961E+03 -0.13519363201E+02 -0.33130001905E+03  0.39254598336E+03  0.17200000000E+03 0. -1.
         -6    1    1    2    0  503  0.12068915961E+03  0.13519363201E+02 -0.60188622541E+03  0.63765168765E+03  0.17200000000E+03 0. -1.
<mgrwt>
<rscale>  2 0.21055319E+03</rscale>
<asrwt>0</asrwt>
<pdfrwt beam="1">  1       21 0.12126428E-01 0.21055319E+03</pdfrwt>
<pdfrwt beam="2">  1       21 0.24542300E+00 0.21055319E+03</pdfrwt>
<totfact> 0.40010945E+03</totfact>
</mgrwt>
</event>
<event>
 4    1  0.1110581E+000  0.2534650E+03  0.7546771E-02  0.1111134E+00
         21   -1    0    0  501  502  0.00000000000E+00  0.00000000000E+00  0.78761849089E+03  0.78761849089E+03  0.00000000000E+00 0. -1.
         21   -1    0    0  502  503 -0.00000000000E+00 -0.00000000000E+00 -0.23149978774E+03  0.23149978774E+03  0.00000000000E+00 0. -1.
          6    1    1    2  501    0 -0.36832478688E+02  0.18249352728E+03  0.68813696125E+03  0.73333280059E+03  0.17200000000E+03 0. -1.
         -6    1    1    2    0  503  0.36832478688E+02 -0.18249352728E+03 -0.13201825810E+03  0.28578547803E+03  0.17200000000E+03 0. -1.
<mgrwt>
<rscale>  2 0.25346503E+03</rscale>
<asrwt>0</asrwt>
<pdfrwt beam="1">  1       21 0.19690462E+00 0.25346503E+03</pdfrwt>
<pdfrwt beam="2">  1       21 0.57874949E-01 0.25346503E+03</pdfrwt>
<totfact> 0.36809008E+02</totfact>
</mgrwt>
</event>
<event>
 4    1  0.1110581E+000  0.1952668E+03  0.7546771E-02  0.1153795E+00
         21   -1    0    0  503  502  0.00000000000E+00  0.00000000000E+00  0.24799450280E+03  0.24799450280E+03  0.00000000000E+00 0. -1.
         21   -1    0    0  501  503 -0.00000000000E+00 -0.00000000000E+00 -0.15682834492E+03  0.15682834492E+03  0.00000000000E+00 0. -1.
          6    1    1    2  501    0 -0.92170216145E+02  0.70549487264E+01  0.17224074354E+02  0.19602497235E+03  0.17200000000E+03 0. -1.
         -6    1    1    2    0  502  0.92170216145E+02 -0.70549487264E+01  0.73942083519E+02  0.20879787537E+03  0.17200000000E+03 0. -1.
<mgrwt>
<rscale>  2 0.19526679E+03</rscale>
<asrwt>0</asrwt>
<pdfrwt beam="1">  1       21 0.61998625E-01 0.19526679E+03</pdfrwt>
<pdfrwt beam="2">  1       21 0.39207086E-01 0.19526679E+03</pdfrwt>
<totfact> 0.15119746E+04</totfact>
</mgrwt>
</event>
<event>
 4    1  0.1110581E+000  0.2846763E+03  0.7546771E-02  0.1093162E+00
         21   -1    0    0  503  502  0.00000000000E+00  0.00000000000E+00  0.13874451723E+03  0.13874451723E+03  0.00000000000E+00 0.  1.
         21   -1    0    0  501  503 -0.00000000000E+00 -0.00000000000E+00 -0.63442573948E+03  0.63442573948E+03  0.00000000000E+00 0.  1.
          6    1    1    2  501    0  0.17386690092E+02  0.22617316342E+03 -0.35672163133E+03  0.45638899976E+03  0.17200000000E+03 0.  1.
         -6    1    1    2    0  502 -0.17386690092E+02 -0.22617316342E+03 -0.13895959093E+03  0.31678125695E+03  0.17200000000E+03 0.  1.
<mgrwt>
<rscale>  2 0.28467630E+03</rscale>
<asrwt>0</asrwt>
<pdfrwt beam="1">  1       21 0.34686130E-01 0.28467630E+03</pdfrwt>
<pdfrwt beam="2">  1       21 0.15860643E+00 0.28467630E+03</pdfrwt>
<totfact> 0.19162133E+03</totfact>
</mgrwt>
</event>
<event>
 4    1  0.1110581E+000  0.1731834E+03  0.7546771E-02  0.1174568E+00
         21   -1    0    0  503  502  0.00000000000E+00  0.00000000000E+00  0.13615595203E+03  0.13615595203E+03  0.00000000000E+00 0. -1.
         21   -1    0    0  501  503 -0.00000000000E+00 -0.00000000000E+00 -0.25102480471E+03  0.25102480471E+03  0.00000000000E+00 0. -1.
          6    1    1    2  501    0 -0.13616541825E+02  0.14936341673E+02 -0.12518416359E+03  0.21369038192E+03  0.17200000000E+03 0. -1.
         -6    1    1    2    0  502  0.13616541825E+02 -0.14936341673E+02  0.10315310901E+02  0.17349037481E+03  0.17200000000E+03 0. -1.
<mgrwt>
<rscale>  2 0.17318344E+03</rscale>
<asrwt>0</asrwt>
<pdfrwt beam="1">  1       21 0.34038988E-01 0.17318344E+03</pdfrwt>
<pdfrwt beam="2">  1       21 0.62756200E-01 0.17318344E+03</pdfrwt>
<totfact> 0.19793154E+04</totfact>
</mgrwt>
</event>
<event>
 4    1  0.1110581E+000  0.2136206E+03  0.7546771E-02  0.1138730E+00
         21   -1    0    0  503  502  0.00000000000E+00  0.00000000000E+00  0.77319571773E+03  0.77319571773E+03  0.00000000000E+00 0.  1.
         21   -1    0    0  501  503 -0.00000000000E+00 -0.00000000000E+00 -0.59020264437E+02  0.59020264437E+02  0.00000000000E+00 0. -1.
          6    1    1    2  501    0 -0.12501938615E+03 -0.20492273418E+02  0.35580221971E+03  0.41500481893E+03  0.17200000000E+03 0. -1.
         -6    1    1    2    0  502  0.12501938615E+03  0.20492273418E+02  0.35837323358E+03  0.41721116324E+03  0.17200000000E+03 0.  1.
<mgrwt>
<rscale>  2 0.21362065E+03</rscale>
<asrwt>0</asrwt>
<pdfrwt beam="1">  1       21 0.19329890E+00 0.21362065E+03</pdfrwt>
<pdfrwt beam="2">  1       21 0.14755069E-01 0.21362065E+03</pdfrwt>
<totfact> 0.58897795E+03</totfact>
</mgrwt>
</event>
<event>
 4    1  0.1110581E+000  0.1819121E+03  0.7546771E-02  0.1165965E+00
         21   -1    0    0  503  502  0.00000000000E+00  0.00000000000E+00  0.12843178432E+03  0.12843178432E+03  0.00000000000E+00 0. -1.
         21   -1    0    0  501  503 -0.00000000000E+00 -0.00000000000E+00 -0.36552813731E+03  0.36552813731E+03  0.00000000000E+00 0. -1.
          6    1    1    2  501    0 -0.85972054368E+00  0.59222366114E+02 -0.25271442877E+03  0.31137856426E+03  0.17200000000E+03 0.  1.
         -6    1    1    2    0  502  0.85972054368E+00 -0.59222366114E+02  0.15618075781E+02  0.18258135737E+03  0.17200000000E+03 0.  1.
<mgrwt>
<rscale>  2 0.18191214E+03</rscale>
<asrwt>0</asrwt>
<pdfrwt beam="1">  1       21 0.32107946E-01 0.18191214E+03</pdfrwt>
<pdfrwt beam="2">  1       21 0.91382033E-01 0.18191214E+03</pdfrwt>
<totfact> 0.95344789E+03</totfact>
</mgrwt>
</event>
<event>
 4    1  0.1110581E+000  0.1930394E+03  0.7546771E-02  0.1155748E+00
         21   -1    0    0  501  502  0.00000000000E+00  0.00000000000E+00  0.16029440715E+03  0.16029440715E+03  0.00000000000E+00 0.  1.
         21   -1    0    0  502  503 -0.00000000000E+00 -0.00000000000E+00 -0.29317609600E+03  0.29317609600E+03  0.00000000000E+00 0.  1.
          6    1    1    2  501    0 -0.32919544881E+02  0.81218999976E+02 -0.16961191628E+03  0.25696775000E+03  0.17200000000E+03 0.  1.
         -6    1    1    2    0  503  0.32919544881E+02 -0.81218999976E+02  0.36730227433E+02  0.19650275316E+03  0.17200000000E+03 0.  1.
<mgrwt>
<rscale>  2 0.19303943E+03</rscale>
<asrwt>0</asrwt>
<pdfrwt beam="1">  1       21 0.40073602E-01 0.19303943E+03</pdfrwt>
<pdfrwt beam="2">  1       21 0.73294024E-01 0.19303943E+03</pdfrwt>
<totfact> 0.10041359E+04</totfact>
</mgrwt>
</event>
<event>
 4    1  0.1110581E+000  0.2002452E+03  0.7546771E-02  0.1149532E+00
         21   -1    0    0  503  502  0.00000000000E+00  0.00000000000E+00  0.82668286716E+02  0.82668286716E+02  0.00000000000E+00 0. -1.
         21   -1    0    0  501  503 -0.00000000000E+00 -0.00000000000E+00 -0.52391524958E+03  0.52391524958E+03  0.00000000000E+00 0. -1.
          6    1    1    2  501    0  0.46142220669E+02  0.91569735155E+02 -0.30323102804E+03  0.36338296230E+03  0.17200000000E+03 0. -1.
         -6    1    1    2    0  502 -0.46142220669E+02 -0.91569735155E+02 -0.13801593482E+03  0.24320057399E+03  0.17200000000E+03 0. -1.
<mgrwt>
<rscale>  2 0.20024515E+03</rscale>
<asrwt>0</asrwt>
<pdfrwt beam="1">  1       21 0.20667072E-01 0.20024515E+03</pdfrwt>
<pdfrwt beam="2">  1       21 0.13097881E+00 0.20024515E+03</pdfrwt>
<totfact> 0.91557096E+03</totfact>
</mgrwt>
</event>
<event>
 4    1  0.1110581E+000  0.1866829E+03  0.7546771E-02  0.1161488E+00
         21   -1    0    0  501  502  0.00000000000E+00  0.00000000000E+00  0.21361550337E+02  0.21361550337E+02  0.00000000000E+00 0. -1.
         21   -1    0    0  502  503 -0.00000000000E+00 -0.00000000000E+00 -0.18093419433E+04  0.18093419433E+04  0.00000000000E+00 0.  1.
          6    1    1    2  501    0  0.46424636656E+02  0.55778516359E+02 -0.60698149859E+03  0.63504096671E+03  0.17200000000E+03 0. -1.
         -6    1    1    2    0  503 -0.46424636656E+02 -0.55778516359E+02 -0.11809988944E+04  0.11956625269E+04  0.17200000000E+03 0.  1.
<mgrwt>
<rscale>  2 0.18668286E+03</rscale>
<asrwt>0</asrwt>
<pdfrwt beam="1">  1       21 0.53403878E-02 0.18668286E+03</pdfrwt>
<pdfrwt beam="2">  1       21 0.45233547E+00 0.18668286E+03</pdfrwt>
<totfact> 0.97523111E+02</totfact>
</mgrwt>
</event>
<event>
 4    1  0.1110581E+000  0.1773912E+03  0.7546771E-02  0.1170352E+00
         21   -1    0    0  501  502  0.00000000000E+00  0.00000000000E+00  0.10494698735E+03  0.10494698735E+03  0.00000000000E+00 0.  1.
         21   -1    0    0  502  503 -0.00000000000E+00 -0.00000000000E+00 -0.31091638030E+03  0.31091638030E+03  0.00000000000E+00 0.  1.
          6    1    1    2  501    0 -0.42317341913E+02 -0.96372012422E+01 -0.63744023628E+02  0.18849650825E+03  0.17200000000E+03 0.  1.
         -6    1    1    2    0  503  0.42317341913E+02  0.96372012422E+01 -0.14222536933E+03  0.22736685940E+03  0.17200000000E+03 0.  1.
<mgrwt>
<rscale>  2 0.17739119E+03</rscale>
<asrwt>0</asrwt>
<pdfrwt beam="1">  1       21 0.26236747E-01 0.17739119E+03</pdfrwt>
<pdfrwt beam="2">  1       21 0.77729095E-01 0.17739119E+03</pdfrwt>
<totfact> 0.20454816E+04</totfact>
</mgrwt>
</event>
<event>
 4    1  0.1110581E+000  0.1748656E+03  0.7546771E-02  0.1172867E+00
         21   -1    0    0  501  502  0.00000000000E+00  0.00000000000E+00  0.52414504099E+03  0.52414504099E+03  0.00000000000E+00 0.  1.
         21   -1    0    0  502  503 -0.00000000000E+00 -0.00000000000E+00 -0.58374819551E+02  0.58374819551E+02  0.00000000000E+00 0.  1.
          6    1    1    2  501    0  0.92122626876E+01 -0.30151582613E+02  0.24012181118E+03  0.29704623869E+03  0.17200000000E+03 0.  1.
         -6    1    1    2    0  503 -0.92122626876E+01  0.30151582613E+02  0.22564841026E+03  0.28547362185E+03  0.17200000000E+03 0.  1.
<mgrwt>
<rscale>  2 0.17486562E+03</rscale>
<asrwt>0</asrwt>
<pdfrwt beam="1">  1       21 0.13103625E+00 0.17486562E+03</pdfrwt>
<pdfrwt beam="2">  1       21 0.14593706E-01 0.17486562E+03</pdfrwt>
<totfact> 0.17682106E+04</totfact>
</mgrwt>
</event>
<event>
 4    1  0.1110581E+000  0.1753178E+03  0.7546771E-02  0.1172413E+00
         21   -1    0    0  501  502  0.00000000000E+00  0.00000000000E+00  0.37862846966E+02  0.37862846966E+02  0.00000000000E+00 0.  1.
         21   -1    0    0  502  503 -0.00000000000E+00 -0.00000000000E+00 -0.82526214455E+03  0.82526214455E+03  0.00000000000E+00 0.  1.
          6    1    1    2  501    0  0.30063669821E+02  0.15764572476E+02 -0.33854165365E+03  0.38124375043E+03  0.17200000000E+03 0.  1.
         -6    1    1    2    0  503 -0.30063669821E+02 -0.15764572476E+02 -0.44885764394E+03  0.48188124108E+03  0.17200000000E+03 0.  1.
<mgrwt>
<rscale>  2 0.17531784E+03</rscale>
<asrwt>0</asrwt>
<pdfrwt beam="1">  1       21 0.94657118E-02 0.17531784E+03</pdfrwt>
<pdfrwt beam="2">  1       21 0.20631554E+00 0.17531784E+03</pdfrwt>
<totfact> 0.11107845E+04</totfact>
</mgrwt>
</event>
<event>
 4    1  0.1110581E+000  0.1988317E+03  0.7546771E-02  0.1150728E+00
         21   -1    0    0  503  502  0.00000000000E+00  0.00000000000E+00  0.84412670608E+02  0.84412670608E+02  0.00000000000E+00 0. -1.
         21   -1    0    0  501  503 -0.00000000000E+00 -0.00000000000E+00 -0.54679554571E+03  0.54679554571E+03  0.00000000000E+00 0.  1.
          6    1    1    2  501    0 -0.93589538149E+02  0.34511595102E+02 -0.35073734645E+03  0.40317581530E+03  0.17200000000E+03 0.  1.
         -6    1    1    2    0  502  0.93589538149E+02 -0.34511595102E+02 -0.11164552866E+03  0.22803240102E+03  0.17200000000E+03 0. -1.
<mgrwt>
<rscale>  2 0.19883172E+03</rscale>
<asrwt>0</asrwt>
<pdfrwt beam="1">  1       21 0.21103168E-01 0.19883172E+03</pdfrwt>
<pdfrwt beam="2">  1       21 0.13669889E+00 0.19883172E+03</pdfrwt>
<totfact> 0.79056290E+03</totfact>
</mgrwt>
</event>
<event>
 4    1  0.1110581E+000  0.1963842E+03  0.7546771E-02  0.1152826E+00
         21   -1    0    0  503  502  0.00000000000E+00  0.00000000000E+00  0.43422550369E+03  0.43422550369E+03  0.00000000000E+00 0. -1.
         21   -1    0    0  501  503 -0.00000000000E+00 -0.00000000000E+00 -0.23620533130E+03  0.23620533130E+03  0.00000000000E+00 0. -1.
          6    1    1    2  501    0  0.47019820925E+02 -0.82291548670E+02 -0.16578514455E+03  0.25700481843E+03  0.17200000000E+03 0. -1.
         -6    1    1    2    0  502 -0.47019820925E+02  0.82291548670E+02  0.36380531694E+03  0.41342601657E+03  0.17200000000E+03 0. -1.
<mgrwt>
<rscale>  2 0.19638422E+03</rscale>
<asrwt>0</asrwt>
<pdfrwt beam="1">  1       21 0.10855637E+00 0.19638422E+03</pdfrwt>
<pdfrwt beam="2">  1       21 0.59051333E-01 0.19638422E+03</pdfrwt>
<totfact> 0.18017556E+03</totfact>
</mgrwt>
</event>
<event>
 4    1  0.1110581E+000  0.2091933E+03  0.7546771E-02  0.1142206E+00
         21   -1    0    0  501  502  0.00000000000E+00  0.00000000000E+00  0.32461576863E+03  0.32461576863E+03  0.00000000000E+00 0. -1.
         21   -1    0    0  502  503 -0.00000000000E+00 -0.00000000000E+00 -0.13684226665E+03  0.13684226665E+03  0.00000000000E+00 0.  1.
          6    1    1    2  501    0 -0.72268554268E+02 -0.94631387514E+02  0.65777228212E+02  0.21929087348E+03  0.17200000000E+03 0.  1.
         -6    1    1    2    0  503  0.72268554268E+02  0.94631387514E+02  0.12199627377E+03  0.24216716180E+03  0.17200000000E+03 0. -1.
<mgrwt>
<rscale>  2 0.20919332E+03</rscale>
<asrwt>0</asrwt>
<pdfrwt beam="1">  1       21 0.81153941E-01 0.20919332E+03</pdfrwt>
<pdfrwt beam="2">  1       21 0.34210567E-01 0.20919332E+03</pdfrwt>
<totfact> 0.10840559E+04</totfact>
</mgrwt>
</event>
<event>
 4    1  0.1110581E+000  0.1784769E+03  0.7546771E-02  0.1169285E+00
         21   -1    0    0  501  502  0.00000000000E+00  0.00000000000E+00  0.20291351134E+03  0.20291351134E+03  0.00000000000E+00 0. -1.
         21   -1    0    0  502  503 -0.00000000000E+00 -0.00000000000E+00 -0.31959633058E+03  0.31959633058E+03  0.00000000000E+00 0. -1.
          6    1    1    2  501    0 -0.47626248924E+02 -0.13209417664E+01  0.12801375982E+03  0.21963953919E+03  0.17200000000E+03 0. -1.
         -6    1    1    2    0  503  0.47626248924E+02  0.13209417664E+01 -0.24469657905E+03  0.30287030273E+03  0.17200000000E+03 0. -1.
<mgrwt>
<rscale>  2 0.17847690E+03</rscale>
<asrwt>0</asrwt>
<pdfrwt beam="1">  1       21 0.50728378E-01 0.17847690E+03</pdfrwt>
<pdfrwt beam="2">  1       21 0.79899082E-01 0.17847690E+03</pdfrwt>
<totfact> 0.51570689E+03</totfact>
</mgrwt>
</event>
<event>
 4    1  0.1110581E+000  0.1750917E+03  0.7546771E-02  0.1172640E+00
         21   -1    0    0  501  502  0.00000000000E+00  0.00000000000E+00  0.99582389932E+03  0.99582389932E+03  0.00000000000E+00 0.  1.
         21   -1    0    0  502  503 -0.00000000000E+00 -0.00000000000E+00 -0.87518786460E+02  0.87518786460E+02  0.00000000000E+00 0.  1.
          6    1    1    2  501    0 -0.29744264948E+02  0.13725778211E+02  0.89027003176E+03  0.90732455479E+03  0.17200000000E+03 0.  1.
         -6    1    1    2    0  503  0.29744264948E+02 -0.13725778211E+02  0.18035081100E+02  0.17601813098E+03  0.17200000000E+03 0.  1.
<mgrwt>
<rscale>  2 0.17509174E+03</rscale>
<asrwt>0</asrwt>
<pdfrwt beam="1">  1       21 0.24895594E+00 0.17509174E+03</pdfrwt>
<pdfrwt beam="2">  1       21 0.21879700E-01 0.17509174E+03</pdfrwt>
<totfact> 0.13445723E+03</totfact>
</mgrwt>
</event>
<event>
 4    1  0.1110581E+000  0.1756675E+03  0.7546771E-02  0.1172063E+00
         21   -1    0    0  503  502  0.00000000000E+00  0.00000000000E+00  0.15940915406E+03  0.15940915406E+03  0.00000000000E+00 0. -1.
         21   -1    0    0  501  503 -0.00000000000E+00 -0.00000000000E+00 -0.42035010728E+03  0.42035010728E+03  0.00000000000E+00 0. -1.
          6    1    1    2  501    0 -0.31320368829E+02 -0.17149994533E+02 -0.34338291487E+03  0.38570832768E+03  0.17200000000E+03 0. -1.
         -6    1    1    2    0  502  0.31320368829E+02  0.17149994533E+02  0.82441961644E+02  0.19405093366E+03  0.17200000000E+03 0. -1.
<mgrwt>
<rscale>  2 0.17566755E+03</rscale>
<asrwt>0</asrwt>
<pdfrwt beam="1">  1       21 0.39852289E-01 0.17566755E+03</pdfrwt>
<pdfrwt beam="2">  1       21 0.10508753E+00 0.17566755E+03</pdfrwt>
<totfact> 0.44880814E+03</totfact>
</mgrwt>
</event>
<event>
 4    1  0.1110581E+000  0.1806615E+03  0.7546771E-02  0.1167164E+00
         21   -1    0    0  503  502  0.00000000000E+00  0.00000000000E+00  0.72648246358E+02  0.72648246358E+02  0.00000000000E+00 0. -1.
         21   -1    0    0  501  503 -0.00000000000E+00 -0.00000000000E+00 -0.45879807603E+03  0.45879807603E+03  0.00000000000E+00 0. -1.
          6    1    1    2  501    0 -0.13008234151E+02 -0.53715646854E+02 -0.23137064229E+03  0.29354890391E+03  0.17200000000E+03 0. -1.
         -6    1    1    2    0  502  0.13008234151E+02  0.53715646854E+02 -0.15477918739E+03  0.23789741848E+03  0.17200000000E+03 0. -1.
<mgrwt>
<rscale>  2 0.18066152E+03</rscale>
<asrwt>0</asrwt>
<pdfrwt beam="1">  1       21 0.18162062E-01 0.18066152E+03</pdfrwt>
<pdfrwt beam="2">  1       21 0.11469952E+00 0.18066152E+03</pdfrwt>
<totfact> 0.16421629E+04</totfact>
</mgrwt>
</event>
<event>
 4    1  0.1110581E+000  0.2073324E+03  0.7546771E-02  0.1143696E+00
         21   -1    0    0  503  502  0.00000000000E+00  0.00000000000E+00  0.90278868859E+02  0.90278868859E+02  0.00000000000E+00 0. -1.
         21   -1    0    0  501  503 -0.00000000000E+00 -0.00000000000E+00 -0.99849452818E+03  0.99849452818E+03  0.00000000000E+00 0.  1.
          6    1    1    2  501    0  0.39309372442E+01 -0.11570343447E+03 -0.84784924363E+03  0.87283164296E+03  0.17200000000E+03 0.  1.
         -6    1    1    2    0  502 -0.39309372442E+01  0.11570343447E+03 -0.60366415692E+02  0.21594175409E+03  0.17200000000E+03 0. -1.
<mgrwt>
<rscale>  2 0.20733243E+03</rscale>
<asrwt>0</asrwt>
<pdfrwt beam="1">  1       21 0.22569717E-01 0.20733243E+03</pdfrwt>
<pdfrwt beam="2">  1       21 0.24962363E+00 0.20733243E+03</pdfrwt>
<totfact> 0.12082629E+03</totfact>
</mgrwt>
</event>
<event>
 4    1  0.1110581E+000  0.1840978E+03  0.7546771E-02  0.1163895E+00
         21   -1    0    0  501  502  0.00000000000E+00  0.00000000000E+00  0.47993153793E+03  0.47993153793E+03  0.00000000000E+00 0.  1.
         21   -1    0    0  502  503 -0.00000000000E+00 -0.00000000000E+00 -0.23250902445E+03  0.23250902445E+03  0.00000000000E+00 0.  1.
          6    1    1    2  501    0 -0.63489875005E+02 -0.16643937147E+02  0.42095287637E+03  0.45944891881E+03  0.17200000000E+03 0.  1.
         -6    1    1    2    0  503  0.63489875005E+02  0.16643937147E+02 -0.17353036289E+03  0.25299164357E+03  0.17200000000E+03 0.  1.
<mgrwt>
<rscale>  2 0.18409776E+03</rscale>
<asrwt>0</asrwt>
<pdfrwt beam="1">  1       21 0.11998288E+00 0.18409776E+03</pdfrwt>
<pdfrwt beam="2">  1       21 0.58127257E-01 0.18409776E+03</pdfrwt>
<totfact> 0.14774699E+03</totfact>
</mgrwt>
</event>
<event>
 4    1  0.1110581E+000  0.1865740E+03  0.7546771E-02  0.1161588E+00
         21   -1    0    0  503  502  0.00000000000E+00  0.00000000000E+00  0.46389535040E+03  0.46389535040E+03  0.00000000000E+00 0. -1.
         21   -1    0    0  501  503 -0.00000000000E+00 -0.00000000000E+00 -0.10275954027E+03  0.10275954027E+03  0.00000000000E+00 0. -1.
          6    1    1    2  501    0  0.31010226445E+02 -0.65300928693E+02  0.33409479986E+02  0.18954165449E+03  0.17200000000E+03 0. -1.
         -6    1    1    2    0  502 -0.31010226445E+02  0.65300928693E+02  0.32772633014E+03  0.37711323618E+03  0.17200000000E+03 0. -1.
<mgrwt>
<rscale>  2 0.18657397E+03</rscale>
<asrwt>0</asrwt>
<pdfrwt beam="1">  1       21 0.11597383E+00 0.18657397E+03</pdfrwt>
<pdfrwt beam="2">  1       21 0.25689886E-01 0.18657397E+03</pdfrwt>
<totfact> 0.82953466E+03</totfact>
</mgrwt>
</event>
<event>
 4    1  0.1110581E+000  0.2444089E+03  0.7546771E-02  0.1116890E+00
         21   -1    0    0  501  502  0.00000000000E+00  0.00000000000E+00  0.16983348986E+04  0.16983348986E+04  0.00000000000E+00 0.  1.
         21   -1    0    0  502  503 -0.00000000000E+00 -0.00000000000E+00 -0.36469012363E+02  0.36469012363E+02  0.00000000000E+00 0.  1.
          6    1    1    2  501    0 -0.17342526361E+03  0.86822995510E+01  0.66742227321E+03  0.71076592150E+03  0.17200000000E+03 0.  1.
         -6    1    1    2    0  503  0.17342526361E+03 -0.86822995510E+01  0.99444361299E+03  0.10240379894E+04  0.17200000000E+03 0.  1.
<mgrwt>
<rscale>  2 0.24440889E+03</rscale>
<asrwt>0</asrwt>
<pdfrwt beam="1">  1       21 0.42458346E+00 0.24440889E+03</pdfrwt>
<pdfrwt beam="2">  1       21 0.91172588E-02 0.24440889E+03</pdfrwt>
<totfact> 0.53959416E+02</totfact>
</mgrwt>
</event>
<event>
 4    1  0.1110581E+000  0.1751200E+03  0.7546771E-02  0.1172611E+00
         21   -1    0    0  501  502  0.00000000000E+00  0.00000000000E+00  0.35782707507E+03  0.35782707507E+03  0.00000000000E+00 0.  1.
         21   -1    0    0  502  503 -0.00000000000E+00 -0.00000000000E+00 -0.11864782099E+03  0.11864782099E+03  0.00000000000E+00 0.  1.
          6    1    1    2  501    0 -0.31962478383E+02 -0.78362912050E+01  0.24512637974E+03  0.30125396184E+03  0.17200000000E+03 0.  1.
         -6    1    1    2    0  503  0.31962478383E+02  0.78362912050E+01 -0.59471256557E+01  0.17522093422E+03  0.17200000000E+03 0.  1.
<mgrwt>
<rscale>  2 0.17511998E+03</rscale>
<asrwt>0</asrwt>
<pdfrwt beam="1">  1       21 0.89456766E-01 0.17511998E+03</pdfrwt>
<pdfrwt beam="2">  1       21 0.29661956E-01 0.17511998E+03</pdfrwt>
<totfact> 0.11747821E+04</totfact>
</mgrwt>
</event>
<event>
 4    1  0.1110581E+000  0.2209422E+03  0.7546771E-02  0.1133183E+00
         21   -1    0    0  503  502  0.00000000000E+00  0.00000000000E+00  0.11810491057E+04  0.11810491057E+04  0.00000000000E+00 0. -1.
         21   -1    0    0  501  503 -0.00000000000E+00 -0.00000000000E+00 -0.45968053207E+02  0.45968053207E+02  0.00000000000E+00 0. -1.
          6    1    1    2  501    0  0.12041088691E+03 -0.68794513760E+02  0.37271175074E+03  0.43327764303E+03  0.17200000000E+03 0. -1.
         -6    1    1    2    0  502 -0.12041088691E+03  0.68794513760E+02  0.76236930173E+03  0.79373951585E+03  0.17200000000E+03 0. -1.
<mgrwt>
<rscale>  2 0.22094223E+03</rscale>
<asrwt>0</asrwt>
<pdfrwt beam="1">  1       21 0.29526218E+00 0.22094223E+03</pdfrwt>
<pdfrwt beam="2">  1       21 0.11492017E-01 0.22094223E+03</pdfrwt>
<totfact> 0.22290716E+03</totfact>
</mgrwt>
</event>
<event>
 4    1  0.1110581E+000  0.1779742E+03  0.7546771E-02  0.1169778E+00
         21   -1    0    0  501  502  0.00000000000E+00  0.00000000000E+00  0.34597072213E+03  0.34597072213E+03  0.00000000000E+00 0. -1.
         21   -1    0    0  502  503 -0.00000000000E+00 -0.00000000000E+00 -0.91875190007E+02  0.91875190007E+02  0.00000000000E+00 0. -1.
          6    1    1    2  501    0  0.76518950851E+01  0.45080566085E+02  0.11409229978E+03  0.21140449808E+03  0.17200000000E+03 0.  1.
         -6    1    1    2    0  503 -0.76518950851E+01 -0.45080566085E+02  0.14000323234E+03  0.22644141406E+03  0.17200000000E+03 0.  1.
<mgrwt>
<rscale>  2 0.17797418E+03</rscale>
<asrwt>0</asrwt>
<pdfrwt beam="1">  1       21 0.86492677E-01 0.17797418E+03</pdfrwt>
<pdfrwt beam="2">  1       21 0.22968798E-01 0.17797418E+03</pdfrwt>
<totfact> 0.20671539E+04</totfact>
</mgrwt>
</event>
<event>
 4    1  0.1110581E+000  0.1826315E+03  0.7546771E-02  0.1165280E+00
         21   -1    0    0  503  502  0.00000000000E+00  0.00000000000E+00  0.39521836007E+02  0.39521836007E+02  0.00000000000E+00 0. -1.
         21   -1    0    0  501  503 -0.00000000000E+00 -0.00000000000E+00 -0.93914156500E+03  0.93914156500E+03  0.00000000000E+00 0. -1.
          6    1    1    2  501    0 -0.11529989654E+02  0.60310089678E+02 -0.29401650617E+03  0.34612129880E+03  0.17200000000E+03 0. -1.
         -6    1    1    2    0  502  0.11529989654E+02 -0.60310089678E+02 -0.60560322282E+03  0.63254210221E+03  0.17200000000E+03 0. -1.
<mgrwt>
<rscale>  2 0.18263145E+03</rscale>
<asrwt>0</asrwt>
<pdfrwt beam="1">  1       21 0.98804590E-02 0.18263145E+03</pdfrwt>
<pdfrwt beam="2">  1       21 0.23478539E+00 0.18263145E+03</pdfrwt>
<totfact> 0.68512977E+03</totfact>
</mgrwt>
</event>
<event>
 4    1  0.1110581E+000  0.1759263E+03  0.7546771E-02  0.1171805E+00
         21   -1    0    0  503  502  0.00000000000E+00  0.00000000000E+00  0.18287105993E+03  0.18287105993E+03  0.00000000000E+00 0.  1.
         21   -1    0    0  501  503 -0.00000000000E+00 -0.00000000000E+00 -0.24241601776E+03  0.24241601776E+03  0.00000000000E+00 0.  1.
          6    1    1    2  501    0 -0.11306304291E+02 -0.35188660944E+02 -0.14659863282E+03  0.22900050987E+03  0.17200000000E+03 0.  1.
         -6    1    1    2    0  502  0.11306304291E+02  0.35188660944E+02  0.87053674994E+02  0.19628656782E+03  0.17200000000E+03 0.  1.
<mgrwt>
<rscale>  2 0.17592633E+03</rscale>
<asrwt>0</asrwt>
<pdfrwt beam="1">  1       21 0.45717765E-01 0.17592633E+03</pdfrwt>
<pdfrwt beam="2">  1       21 0.60604004E-01 0.17592633E+03</pdfrwt>
<totfact> 0.11765160E+04</totfact>
</mgrwt>
</event>
<event>
 4    1  0.1110581E+000  0.1819819E+03  0.7546771E-02  0.1165899E+00
         21   -1    0    0  501  502  0.00000000000E+00  0.00000000000E+00  0.64106006366E+03  0.64106006366E+03  0.00000000000E+00 0.  1.
         21   -1    0    0  502  503 -0.00000000000E+00 -0.00000000000E+00 -0.54285045914E+02  0.54285045914E+02  0.00000000000E+00 0.  1.
          6    1    1    2  501    0 -0.77545034665E+01  0.58934486375E+02  0.36983572963E+03  0.41218427058E+03  0.17200000000E+03 0.  1.
         -6    1    1    2    0  503  0.77545034665E+01 -0.58934486375E+02  0.21693928812E+03  0.28316083899E+03  0.17200000000E+03 0.  1.
<mgrwt>
<rscale>  2 0.18198188E+03</rscale>
<asrwt>0</asrwt>
<pdfrwt beam="1">  1       21 0.16026499E+00 0.18198188E+03</pdfrwt>
<pdfrwt beam="2">  1       21 0.13571263E-01 0.18198188E+03</pdfrwt>
<totfact> 0.11882139E+04</totfact>
</mgrwt>
</event>
<event>
 4    1  0.1110581E+000  0.1727818E+03  0.7546771E-02  0.1174977E+00
         21   -1    0    0  503  502  0.00000000000E+00  0.00000000000E+00  0.14308367550E+03  0.14308367550E+03  0.00000000000E+00 0.  1.
         21   -1    0    0  501  503 -0.00000000000E+00 -0.00000000000E+00 -0.24307186189E+03  0.24307186189E+03  0.00000000000E+00 0.  1.
          6    1    1    2  501    0  0.12516414970E+02  0.10625707728E+02 -0.12265808493E+03  0.21189283165E+03  0.17200000000E+03 0.  1.
         -6    1    1    2    0  502 -0.12516414970E+02 -0.10625707728E+02  0.22669898535E+02  0.17426270573E+03  0.17200000000E+03 0.  1.
<mgrwt>
<rscale>  2 0.17278185E+03</rscale>
<asrwt>0</asrwt>
<pdfrwt beam="1">  1       21 0.35770919E-01 0.17278185E+03</pdfrwt>
<pdfrwt beam="2">  1       21 0.60767965E-01 0.17278185E+03</pdfrwt>
<totfact> 0.19233490E+04</totfact>
</mgrwt>
</event>
<event>
 4    1  0.1110581E+000  0.2917913E+03  0.7546771E-02  0.1089418E+00
         21   -1    0    0  503  502  0.00000000000E+00  0.00000000000E+00  0.11000846254E+03  0.11000846254E+03  0.00000000000E+00 0.  1.
         21   -1    0    0  501  503 -0.00000000000E+00 -0.00000000000E+00 -0.88532481627E+03  0.88532481627E+03  0.00000000000E+00 0.  1.
          6    1    1    2  501    0  0.22674271062E+03 -0.64388837601E+02 -0.21115168277E+03  0.36017664050E+03  0.17200000000E+03 0.  1.
         -6    1    1    2    0  502 -0.22674271062E+03  0.64388837601E+02 -0.56416467097E+03  0.63515663831E+03  0.17200000000E+03 0.  1.
<mgrwt>
<rscale>  2 0.29179133E+03</rscale>
<asrwt>0</asrwt>
<pdfrwt beam="1">  1       21 0.27502116E-01 0.29179133E+03</pdfrwt>
<pdfrwt beam="2">  1       21 0.22133120E+00 0.29179133E+03</pdfrwt>
<totfact> 0.11348452E+03</totfact>
</mgrwt>
</event>
<event>
 4    1  0.1110581E+000  0.1913820E+03  0.7546771E-02  0.1157221E+00
         21   -1    0    0  503  502  0.00000000000E+00  0.00000000000E+00  0.73093814556E+02  0.73093814556E+02  0.00000000000E+00 0.  1.
         21   -1    0    0  501  503 -0.00000000000E+00 -0.00000000000E+00 -0.55037173604E+03  0.55037173604E+03  0.00000000000E+00 0.  1.
          6    1    1    2  501    0  0.62837100465E+02  0.55628947319E+02 -0.14536354921E+03  0.24032819729E+03  0.17200000000E+03 0.  1.
         -6    1    1    2    0  502 -0.62837100465E+02 -0.55628947319E+02 -0.33191437227E+03  0.38313735330E+03  0.17200000000E+03 0.  1.
<mgrwt>
<rscale>  2 0.19138203E+03</rscale>
<asrwt>0</asrwt>
<pdfrwt beam="1">  1       21 0.18273454E-01 0.19138203E+03</pdfrwt>
<pdfrwt beam="2">  1       21 0.13759293E+00 0.19138203E+03</pdfrwt>
<totfact> 0.10226685E+04</totfact>
</mgrwt>
</event>
<event>
 4    1  0.1110581E+000  0.1949700E+03  0.7546771E-02  0.1154054E+00
         21   -1    0    0  501  502  0.00000000000E+00  0.00000000000E+00  0.23905217602E+03  0.23905217602E+03  0.00000000000E+00 0.  1.
         21   -1    0    0  502  503 -0.00000000000E+00 -0.00000000000E+00 -0.76630434734E+03  0.76630434734E+03  0.00000000000E+00 0. -1.
          6    1    1    2  501    0 -0.91416983212E+02  0.85001989501E+01  0.18386731872E+03  0.26799348704E+03  0.17200000000E+03 0.  1.
         -6    1    1    2    0  503  0.91416983212E+02 -0.85001989501E+01 -0.71111949004E+03  0.73736303631E+03  0.17200000000E+03 0. -1.
<mgrwt>
<rscale>  2 0.19497004E+03</rscale>
<asrwt>0</asrwt>
<pdfrwt beam="1">  1       21 0.59763044E-01 0.19497004E+03</pdfrwt>
<pdfrwt beam="2">  1       21 0.19157609E+00 0.19497004E+03</pdfrwt>
<totfact> 0.39686642E+02</totfact>
</mgrwt>
</event>
<event>
 4    1  0.1110581E+000  0.2547657E+03  0.7546771E-02  0.1110329E+00
         21   -1    0    0  503  502  0.00000000000E+00  0.00000000000E+00  0.52179148233E+03  0.52179148233E+03  0.00000000000E+00 0.  1.
         21   -1    0    0  501  503 -0.00000000000E+00 -0.00000000000E+00 -0.12970785301E+03  0.12970785301E+03  0.00000000000E+00 0. -1.
          6    1    1    2  501    0 -0.44513930916E+02  0.18259268269E+03  0.13008281335E+03  0.28605439368E+03  0.17200000000E+03 0.  1.
         -6    1    1    2    0  502  0.44513930916E+02 -0.18259268269E+03  0.26200081597E+03  0.36544494166E+03  0.17200000000E+03 0.  1.
<mgrwt>
<rscale>  2 0.25476573E+03</rscale>
<asrwt>0</asrwt>
<pdfrwt beam="1">  1       21 0.13044787E+00 0.25476573E+03</pdfrwt>
<pdfrwt beam="2">  1       21 0.32426965E-01 0.25476573E+03</pdfrwt>
<totfact> 0.37405741E+03</totfact>
</mgrwt>
</event>
<event>
 4    1  0.1110581E+000  0.2070577E+03  0.7546771E-02  0.1143917E+00
         21   -1    0    0  503  502  0.00000000000E+00  0.00000000000E+00  0.24626959342E+03  0.24626959342E+03  0.00000000000E+00 0.  1.
         21   -1    0    0  501  503 -0.00000000000E+00 -0.00000000000E+00 -0.27444053746E+03  0.27444053746E+03  0.00000000000E+00 0.  1.
          6    1    1    2  501    0  0.89832592967E+02 -0.72242495033E+02 -0.17152127941E+03  0.26887250164E+03  0.17200000000E+03 0.  1.
         -6    1    1    2    0  502 -0.89832592967E+02  0.72242495033E+02  0.14335033537E+03  0.25183762923E+03  0.17200000000E+03 0.  1.
<mgrwt>
<rscale>  2 0.20705766E+03</rscale>
<asrwt>0</asrwt>
<pdfrwt beam="1">  1       21 0.61567399E-01 0.20705766E+03</pdfrwt>
<pdfrwt beam="2">  1       21 0.68610134E-01 0.20705766E+03</pdfrwt>
<totfact> 0.46939980E+03</totfact>
</mgrwt>
</event>
<event>
 4    1  0.1110581E+000  0.1903417E+03  0.7546771E-02  0.1158154E+00
         21   -1    0    0  501  502  0.00000000000E+00  0.00000000000E+00  0.71802090934E+02  0.71802090934E+02  0.00000000000E+00 0.  1.
         21   -1    0    0  502  503 -0.00000000000E+00 -0.00000000000E+00 -0.59899175284E+03  0.59899175284E+03  0.00000000000E+00 0. -1.
          6    1    1    2  501    0 -0.29759511011E+02  0.75896863072E+02 -0.13043916390E+03  0.23074734624E+03  0.17200000000E+03 0. -1.
         -6    1    1    2    0  503  0.29759511011E+02 -0.75896863072E+02 -0.39675049801E+03  0.44004649753E+03  0.17200000000E+03 0. -1.
<mgrwt>
<rscale>  2 0.19034170E+03</rscale>
<asrwt>0</asrwt>
<pdfrwt beam="1">  1       21 0.17950523E-01 0.19034170E+03</pdfrwt>
<pdfrwt beam="2">  1       21 0.14974794E+00 0.19034170E+03</pdfrwt>
<totfact> 0.84875150E+03</totfact>
</mgrwt>
</event>
<event>
 4    1  0.1110581E+000  0.1865233E+03  0.7546771E-02  0.1161635E+00
         21   -1    0    0  501  502  0.00000000000E+00  0.00000000000E+00  0.12152313056E+03  0.12152313056E+03  0.00000000000E+00 0. -1.
         21   -1    0    0  502  503 -0.00000000000E+00 -0.00000000000E+00 -0.38036060218E+03  0.38036060218E+03  0.00000000000E+00 0. -1.
          6    1    1    2  501    0 -0.24496994277E+01  0.72117606171E+02 -0.46227677836E+01  0.18658059955E+03  0.17200000000E+03 0. -1.
         -6    1    1    2    0  503  0.24496994277E+01 -0.72117606171E+02 -0.25421470384E+03  0.31530313318E+03  0.17200000000E+03 0. -1.
<mgrwt>
<rscale>  2 0.18652332E+03</rscale>
<asrwt>0</asrwt>
<pdfrwt beam="1">  1       21 0.30380783E-01 0.18652332E+03</pdfrwt>
<pdfrwt beam="2">  1       21 0.95090149E-01 0.18652332E+03</pdfrwt>
<totfact> 0.96517993E+03</totfact>
</mgrwt>
</event>
<event>
 4    1  0.1110581E+000  0.1743227E+03  0.7546771E-02  0.1173413E+00
         21   -1    0    0  503  502  0.00000000000E+00  0.00000000000E+00  0.41086336540E+03  0.41086336540E+03  0.00000000000E+00 0. -1.
         21   -1    0    0  501  503 -0.00000000000E+00 -0.00000000000E+00 -0.33888666912E+03  0.33888666912E+03  0.00000000000E+00 0. -1.
          6    1    1    2  501    0 -0.10061226351E+02 -0.26517576974E+02 -0.29546330487E+03  0.34305535222E+03  0.17200000000E+03 0. -1.
         -6    1    1    2    0  502  0.10061226351E+02  0.26517576974E+02  0.36744000115E+03  0.40669468230E+03  0.17200000000E+03 0. -1.
<mgrwt>
<rscale>  2 0.17432272E+03</rscale>
<asrwt>0</asrwt>
<pdfrwt beam="1">  1       21 0.10271584E+00 0.17432272E+03</pdfrwt>
<pdfrwt beam="2">  1       21 0.84721667E-01 0.17432272E+03</pdfrwt>
<totfact> 0.94806099E+02</totfact>
</mgrwt>
</event>
<event>
 4    1  0.1110581E+000  0.1826063E+03  0.7546771E-02  0.1165304E+00
         21   -1    0    0  501  502  0.00000000000E+00  0.00000000000E+00  0.98538178768E+03  0.98538178768E+03  0.00000000000E+00 0.  1.
         21   -1    0    0  502  503 -0.00000000000E+00 -0.00000000000E+00 -0.43007626566E+02  0.43007626566E+02  0.00000000000E+00 0. -1.
          6    1    1    2  501    0  0.55961224411E+02 -0.25087542460E+02  0.70859213548E+03  0.73174302722E+03  0.17200000000E+03 0.  1.
         -6    1    1    2    0  503 -0.55961224411E+02  0.25087542460E+02  0.23378202563E+03  0.29664638702E+03  0.17200000000E+03 0. -1.
<mgrwt>
<rscale>  2 0.18260625E+03</rscale>
<asrwt>0</asrwt>
<pdfrwt beam="1">  1       21 0.24634537E+00 0.18260625E+03</pdfrwt>
<pdfrwt beam="2">  1       21 0.10751910E-01 0.18260625E+03</pdfrwt>
<totfact> 0.50397539E+03</totfact>
</mgrwt>
</event>
<event>
 4    1  0.1110581E+000  0.2193200E+03  0.7546771E-02  0.1134391E+00
         21   -1    0    0  501  502  0.00000000000E+00  0.00000000000E+00  0.59576363524E+03  0.59576363524E+03  0.00000000000E+00 0.  1.
         21   -1    0    0  502  503 -0.00000000000E+00 -0.00000000000E+00 -0.83178123753E+02  0.83178123753E+02  0.00000000000E+00 0.  1.
          6    1    1    2  501    0  0.91180297201E+02  0.10101186634E+03  0.31442703304E+03  0.38336093025E+03  0.17200000000E+03 0.  1.
         -6    1    1    2    0  503 -0.91180297201E+02 -0.10101186634E+03  0.19815847845E+03  0.29558082874E+03  0.17200000000E+03 0.  1.
<mgrwt>
<rscale>  2 0.21931996E+03</rscale>
<asrwt>0</asrwt>
<pdfrwt beam="1">  1       21 0.14894090E+00 0.21931996E+03</pdfrwt>
<pdfrwt beam="2">  1       21 0.20794533E-01 0.21931996E+03</pdfrwt>
<totfact> 0.64002725E+03</totfact>
</mgrwt>
</event>
<event>
 4    1  0.1110581E+000  0.2179895E+03  0.7546771E-02  0.1135391E+00
         21   -1    0    0  501  502  0.00000000000E+00  0.00000000000E+00  0.24781081780E+03  0.24781081780E+03  0.00000000000E+00 0. -1.
         21   -1    0    0  502  503 -0.00000000000E+00 -0.00000000000E+00 -0.23616858523E+03  0.23616858523E+03  0.00000000000E+00 0. -1.
          6    1    1    2  501    0  0.53883701771E+02 -0.12260494312E+03  0.11075956028E+03  0.24451401921E+03  0.17200000000E+03 0. -1.
         -6    1    1    2    0  503 -0.53883701771E+02  0.12260494312E+03 -0.99117327714E+02  0.23946538382E+03  0.17200000000E+03 0. -1.
<mgrwt>
<rscale>  2 0.21798951E+03</rscale>
<asrwt>0</asrwt>
<pdfrwt beam="1">  1       21 0.61952704E-01 0.21798951E+03</pdfrwt>
<pdfrwt beam="2">  1       21 0.59042146E-01 0.21798951E+03</pdfrwt>
<totfact> 0.63689707E+03</totfact>
</mgrwt>
</event>
<event>
 4    1  0.1110581E+000  0.1728614E+03  0.7546771E-02  0.1174896E+00
         21   -1    0    0  503  502  0.00000000000E+00  0.00000000000E+00  0.17575197472E+03  0.17575197472E+03  0.00000000000E+00 0.  1.
         21   -1    0    0  501  503 -0.00000000000E+00 -0.00000000000E+00 -0.35643527516E+03  0.35643527516E+03  0.00000000000E+00 0.  1.
          6    1    1    2  501    0  0.17072903402E+02  0.23615039905E+01 -0.28277786293E+03  0.33142779077E+03  0.17200000000E+03 0.  1.
         -6    1    1    2    0  502 -0.17072903402E+02 -0.23615039905E+01  0.10209456249E+03  0.20075945911E+03  0.17200000000E+03 0.  1.
<mgrwt>
<rscale>  2 0.17286139E+03</rscale>
<asrwt>0</asrwt>
<pdfrwt beam="1">  1       21 0.43937994E-01 0.17286139E+03</pdfrwt>
<pdfrwt beam="2">  1       21 0.89108818E-01 0.17286139E+03</pdfrwt>
<totfact> 0.54354067E+03</totfact>
</mgrwt>
</event>
<event>
 4    1  0.1110581E+000  0.1898200E+03  0.7546771E-02  0.1158624E+00
         21   -1    0    0  503  502  0.00000000000E+00  0.00000000000E+00  0.10016542349E+04  0.10016542349E+04  0.00000000000E+00 0.  1.
         21   -1    0    0  501  503 -0.00000000000E+00 -0.00000000000E+00 -0.46453999158E+02  0.46453999158E+02  0.00000000000E+00 0.  1.
          6    1    1    2  501    0  0.73632057211E+02  0.32030401062E+02  0.22866615352E+03  0.29718653437E+03  0.17200000000E+03 0.  1.
         -6    1    1    2    0  502 -0.73632057211E+02 -0.32030401062E+02  0.72653408217E+03  0.75092169964E+03  0.17200000000E+03 0.  1.
<mgrwt>
<rscale>  2 0.18981998E+03</rscale>
<asrwt>0</asrwt>
<pdfrwt beam="1">  1       21 0.25041349E+00 0.18981998E+03</pdfrwt>
<pdfrwt beam="2">  1       21 0.11613503E-01 0.18981998E+03</pdfrwt>
<totfact> 0.41264655E+03</totfact>
</mgrwt>
</event>
<event>
 4    1  0.1110581E+000  0.1891638E+03  0.7546771E-02  0.1159218E+00
         21   -1    0    0  501  502  0.00000000000E+00  0.00000000000E+00  0.25219340200E+02  0.25219340200E+02  0.00000000000E+00 0.  1.
         21   -1    0    0  502  503 -0.00000000000E+00 -0.00000000000E+00 -0.16114501461E+04  0.16114501461E+04  0.00000000000E+00 0.  1.
          6    1    1    2  501    0  0.43674611000E+02  0.65509379159E+02 -0.10760128131E+04  0.10925138554E+04  0.17200000000E+03 0.  1.
         -6    1    1    2    0  503 -0.43674611000E+02 -0.65509379159E+02 -0.51021799279E+03  0.54415563084E+03  0.17200000000E+03 0.  1.
<mgrwt>
<rscale>  2 0.18916382E+03</rscale>
<asrwt>0</asrwt>
<pdfrwt beam="1">  1       21 0.63048350E-02 0.18916382E+03</pdfrwt>
<pdfrwt beam="2">  1       21 0.40286254E+00 0.18916382E+03</pdfrwt>
<totfact> 0.15225298E+03</totfact>
</mgrwt>
</event>
<event>
 4    1  0.1110581E+000  0.2337945E+03  0.7546771E-02  0.1123997E+00
         21   -1    0    0  503  502  0.00000000000E+00  0.00000000000E+00  0.10146379540E+04  0.10146379540E+04  0.00000000000E+00 0. -1.
         21   -1    0    0  501  503 -0.00000000000E+00 -0.00000000000E+00 -0.55280093501E+02  0.55280093501E+02  0.00000000000E+00 0.  1.
          6    1    1    2  501    0 -0.83324652167E+02  0.13465840837E+03  0.39427911757E+03  0.45838401712E+03  0.17200000000E+03 0. -1.
         -6    1    1    2    0  502  0.83324652167E+02 -0.13465840837E+03  0.56507874296E+03  0.61153403041E+03  0.17200000000E+03 0.  1.
<mgrwt>
<rscale>  2 0.23379454E+03</rscale>
<asrwt>0</asrwt>
<pdfrwt beam="1">  1       21 0.25365943E+00 0.23379454E+03</pdfrwt>
<pdfrwt beam="2">  1       21 0.13820027E-01 0.23379454E+03</pdfrwt>
<totfact> 0.27606457E+03</totfact>
</mgrwt>
</event>
<event>
 4    1  0.1110581E+000  0.2031218E+03  0.7546771E-02  0.1147132E+00
         21   -1    0    0  501  502  0.00000000000E+00  0.00000000000E+00  0.48955873389E+03  0.48955873389E+03  0.00000000000E+00 0. -1.
         21   -1    0    0  502  503 -0.00000000000E+00 -0.00000000000E+00 -0.10078216361E+03  0.10078216361E+03  0.00000000000E+00 0.  1.
          6    1    1    2  501    0  0.10016883096E+03 -0.40505326607E+02  0.31384008742E+03  0.37383696534E+03  0.17200000000E+03 0. -1.
         -6    1    1    2    0  503 -0.10016883096E+03  0.40505326607E+02  0.74936482863E+02  0.21650393217E+03  0.17200000000E+03 0.  1.
<mgrwt>
<rscale>  2 0.20312183E+03</rscale>
<asrwt>0</asrwt>
<pdfrwt beam="1">  1       21 0.12238968E+00 0.20312183E+03</pdfrwt>
<pdfrwt beam="2">  1       21 0.25195542E-01 0.20312183E+03</pdfrwt>
<totfact> 0.74444894E+03</totfact>
</mgrwt>
</event>
<event>
 4    1  0.1110581E+000  0.3871870E+03  0.7546771E-02  0.1048309E+00
         21   -1    0    0  501  502  0.00000000000E+00  0.00000000000E+00  0.20637032110E+03  0.20637032110E+03  0.00000000000E+00 0.  1.
         21   -1    0    0  502  503 -0.00000000000E+00 -0.00000000000E+00 -0.77866216149E+03  0.77866216149E+03  0.00000000000E+00 0. -1.
          6    1    1    2  501    0  0.12031280436E+03 -0.32535299391E+03 -0.15858665324E+03  0.41840586531E+03  0.17200000000E+03 0. -1.
         -6    1    1    2    0  503 -0.12031280436E+03  0.32535299391E+03 -0.41370518715E+03  0.56662661728E+03  0.17200000000E+03 0.  1.
<mgrwt>
<rscale>  2 0.38718696E+03</rscale>
<asrwt>0</asrwt>
<pdfrwt beam="1">  1       21 0.51592581E-01 0.38718696E+03</pdfrwt>
<pdfrwt beam="2">  1       21 0.19466554E+00 0.38718696E+03</pdfrwt>
<totfact> 0.44107126E+02</totfact>
</mgrwt>
</event>
<event>
 4    1  0.1110581E+000  0.2119383E+03  0.7546771E-02  0.1140040E+00
         21   -1    0    0  503  502  0.00000000000E+00  0.00000000000E+00  0.11783120389E+04  0.11783120389E+04  0.00000000000E+00 0.  1.
         21   -1    0    0  501  503 -0.00000000000E+00 -0.00000000000E+00 -0.11427155226E+03  0.11427155226E+03  0.00000000000E+00 0.  1.
          6    1    1    2  501    0  0.12121976309E+03 -0.25290847280E+02  0.44290953562E+01  0.21198460983E+03  0.17200000000E+03 0.  1.
         -6    1    1    2    0  502 -0.12121976309E+03  0.25290847280E+02  0.10596113912E+04  0.10805989813E+04  0.17200000000E+03 0.  1.
<mgrwt>
<rscale>  2 0.21193834E+03</rscale>
<asrwt>0</asrwt>
<pdfrwt beam="1">  1       21 0.29457797E+00 0.21193834E+03</pdfrwt>
<pdfrwt beam="2">  1       21 0.28567892E-01 0.21193834E+03</pdfrwt>
<totfact> 0.41849020E+02</totfact>
</mgrwt>
</event>
<event>
 4    1  0.1110581E+000  0.1785999E+03  0.7546771E-02  0.1169165E+00
         21   -1    0    0  503  502  0.00000000000E+00  0.00000000000E+00  0.10714447183E+04  0.10714447183E+04  0.00000000000E+00 0. -1.
         21   -1    0    0  501  503 -0.00000000000E+00 -0.00000000000E+00 -0.49147878590E+02  0.49147878590E+02  0.00000000000E+00 0. -1.
          6    1    1    2  501    0  0.22584343919E+02 -0.42472158518E+02  0.15933878198E+03  0.23934657775E+03  0.17200000000E+03 0. -1.
         -6    1    1    2    0  502 -0.22584343919E+02  0.42472158518E+02  0.86295805769E+03  0.88124601909E+03  0.17200000000E+03 0. -1.
<mgrwt>
<rscale>  2 0.17859994E+03</rscale>
<asrwt>0</asrwt>
<pdfrwt beam="1">  1       21 0.26786110E+00 0.17859994E+03</pdfrwt>
<pdfrwt beam="2">  1       21 0.12286973E-01 0.17859994E+03</pdfrwt>
<totfact> 0.29916243E+03</totfact>
</mgrwt>
</event>
<event>
 4    1  0.1110581E+000  0.1735478E+03  0.7546771E-02  0.1174198E+00
         21   -1    0    0  503  502  0.00000000000E+00  0.00000000000E+00  0.47401906683E+03  0.47401906683E+03  0.00000000000E+00 0.  1.
         21   -1    0    0  501  503 -0.00000000000E+00 -0.00000000000E+00 -0.14757627635E+03  0.14757627635E+03  0.00000000000E+00 0.  1.
          6    1    1    2  501    0 -0.20858405588E+02 -0.99883476859E+01 -0.71311999050E+02  0.18762793337E+03  0.17200000000E+03 0.  1.
         -6    1    1    2    0  502  0.20858405588E+02  0.99883476859E+01  0.39775478954E+03  0.43396740980E+03  0.17200000000E+03 0.  1.
<mgrwt>
<rscale>  2 0.17354780E+03</rscale>
<asrwt>0</asrwt>
<pdfrwt beam="1">  1       21 0.11850476E+00 0.17354780E+03</pdfrwt>
<pdfrwt beam="2">  1       21 0.36894070E-01 0.17354780E+03</pdfrwt>
<totfact> 0.39243064E+03</totfact>
</mgrwt>
</event>
<event>
 4    1  0.1110581E+000  0.1972506E+03  0.7546771E-02  0.1152080E+00
         21   -1    0    0  501  502  0.00000000000E+00  0.00000000000E+00  0.26106536750E+03  0.26106536750E+03  0.00000000000E+00 0. -1.
         21   -1    0    0  502  503 -0.00000000000E+00 -0.00000000000E+00 -0.17405599493E+03  0.17405599493E+03  0.00000000000E+00 0. -1.
          6    1    1    2  501    0 -0.90651148515E+02 -0.33259201747E+02  0.12599265171E+03  0.23405544965E+03  0.17200000000E+03 0. -1.
         -6    1    1    2    0  503  0.90651148515E+02  0.33259201747E+02 -0.38983279136E+02  0.20106591278E+03  0.17200000000E+03 0. -1.
<mgrwt>
<rscale>  2 0.19725062E+03</rscale>
<asrwt>0</asrwt>
<pdfrwt beam="1">  1       21 0.65266341E-01 0.19725062E+03</pdfrwt>
<pdfrwt beam="2">  1       21 0.43513999E-01 0.19725062E+03</pdfrwt>
<totfact> 0.10931229E+04</totfact>
</mgrwt>
</event>
<event>
 4    1  0.1110581E+000  0.1922512E+03  0.7546771E-02  0.1156446E+00
         21   -1    0    0  503  502  0.00000000000E+00  0.00000000000E+00  0.36422572710E+03  0.36422572710E+03  0.00000000000E+00 0.  1.
         21   -1    0    0  501  503 -0.00000000000E+00 -0.00000000000E+00 -0.11085867883E+03  0.11085867883E+03  0.00000000000E+00 0.  1.
          6    1    1    2  501    0  0.71623694700E+02  0.47397969074E+02  0.57580502673E+02  0.20068890204E+03  0.17200000000E+03 0.  1.
         -6    1    1    2    0  502 -0.71623694700E+02 -0.47397969074E+02  0.19578654560E+03  0.27439550389E+03  0.17200000000E+03 0.  1.
<mgrwt>
<rscale>  2 0.19225119E+03</rscale>
<asrwt>0</asrwt>
<pdfrwt beam="1">  1       21 0.91056429E-01 0.19225119E+03</pdfrwt>
<pdfrwt beam="2">  1       21 0.27714671E-01 0.19225119E+03</pdfrwt>
<totfact> 0.12711496E+04</totfact>
</mgrwt>
</event>
<event>
 4    1  0.1110581E+000  0.1797875E+03  0.7546771E-02  0.1168009E+00
         21   -1    0    0  503  502  0.00000000000E+00  0.00000000000E+00  0.56554324687E+02  0.56554324687E+02  0.00000000000E+00 0.  1.
         21   -1    0    0  501  503 -0.00000000000E+00 -0.00000000000E+00 -0.60624755108E+03  0.60624755108E+03  0.00000000000E+00 0.  1.
          6    1    1    2  501    0 -0.45354094836E+02  0.26125995334E+02 -0.35413052822E+03  0.39715487227E+03  0.17200000000E+03 0.  1.
         -6    1    1    2    0  502  0.45354094836E+02 -0.26125995334E+02 -0.19556269817E+03  0.26564700350E+03  0.17200000000E+03 0.  1.
<mgrwt>
<rscale>  2 0.17978755E+03</rscale>
<asrwt>0</asrwt>
<pdfrwt beam="1">  1       21 0.14138581E-01 0.17978755E+03</pdfrwt>
<pdfrwt beam="2">  1       21 0.15156189E+00 0.17978755E+03</pdfrwt>
<totfact> 0.12824928E+04</totfact>
</mgrwt>
</event>
<event>
 4    1  0.1110581E+000  0.2451305E+03  0.7546771E-02  0.1116421E+00
         21   -1    0    0  501  502  0.00000000000E+00  0.00000000000E+00  0.30028049214E+03  0.30028049214E+03  0.00000000000E+00 0. -1.
         21   -1    0    0  502  503 -0.00000000000E+00 -0.00000000000E+00 -0.89678042305E+03  0.89678042305E+03  0.00000000000E+00 0.  1.
          6    1    1    2  501    0 -0.14456237670E+03 -0.98013732322E+02  0.22929203907E+03  0.33565430380E+03  0.17200000000E+03 0. -1.
         -6    1    1    2    0  503  0.14456237670E+03  0.98013732322E+02 -0.82579196997E+03  0.86140661139E+03  0.17200000000E+03 0.  1.
<mgrwt>
<rscale>  2 0.24513052E+03</rscale>
<asrwt>0</asrwt>
<pdfrwt beam="1">  1       21 0.75070124E-01 0.24513052E+03</pdfrwt>
<pdfrwt beam="2">  1       21 0.22419510E+00 0.24513052E+03</pdfrwt>
<totfact> 0.14070008E+02</totfact>
</mgrwt>
</event>
<event>
 4    1  0.1110581E+000  0.1920642E+03  0.7546771E-02  0.1156613E+00
         21   -1    0    0  501  502  0.00000000000E+00  0.00000000000E+00  0.89136794951E+02  0.89136794951E+02  0.00000000000E+00 0.  1.
         21   -1    0    0  502  503 -0.00000000000E+00 -0.00000000000E+00 -0.74533849353E+03  0.74533849353E+03  0.00000000000E+00 0.  1.
          6    1    1    2  501    0 -0.72129125602E+02 -0.45847927921E+02 -0.49844239497E+02  0.19842653922E+03  0.17200000000E+03 0.  1.
         -6    1    1    2    0  503  0.72129125602E+02  0.45847927921E+02 -0.60635745908E+03  0.63604874926E+03  0.17200000000E+03 0.  1.
<mgrwt>
<rscale>  2 0.19206416E+03</rscale>
<asrwt>0</asrwt>
<pdfrwt beam="1">  1       21 0.22284199E-01 0.19206416E+03</pdfrwt>
<pdfrwt beam="2">  1       21 0.18633462E+00 0.19206416E+03</pdfrwt>
<totfact> 0.31095561E+03</totfact>
</mgrwt>
</event>
<event>
 4    1  0.1110581E+000  0.1784566E+03  0.7546771E-02  0.1169305E+00
         21   -1    0    0  503  502  0.00000000000E+00  0.00000000000E+00  0.16309610509E+03  0.16309610509E+03  0.00000000000E+00 0. -1.
         21   -1    0    0  501  503 -0.00000000000E+00 -0.00000000000E+00 -0.72176290821E+03  0.72176290821E+03  0.00000000000E+00 0. -1.
          6    1    1    2  501    0  0.40414395660E+02 -0.25088479213E+02 -0.65720621659E+03  0.68100423368E+03  0.17200000000E+03 0. -1.
         -6    1    1    2    0  502 -0.40414395660E+02  0.25088479213E+02  0.98539413469E+02  0.20385477962E+03  0.17200000000E+03 0. -1.
<mgrwt>
<rscale>  2 0.17845659E+03</rscale>
<asrwt>0</asrwt>
<pdfrwt beam="1">  1       21 0.40774026E-01 0.17845659E+03</pdfrwt>
<pdfrwt beam="2">  1       21 0.18044073E+00 0.17845659E+03</pdfrwt>
<totfact> 0.10639345E+03</totfact>
</mgrwt>
</event>
<event>
 4    1  0.1110581E+000  0.2141371E+03  0.7546771E-02  0.1138331E+00
         21   -1    0    0  503  502  0.00000000000E+00  0.00000000000E+00  0.51271578426E+03  0.51271578426E+03  0.00000000000E+00 0. -1.
         21   -1    0    0  501  503 -0.00000000000E+00 -0.00000000000E+00 -0.19234682595E+03  0.19234682595E+03  0.00000000000E+00 0. -1.
          6    1    1    2  501    0  0.99757179737E+02  0.79493291052E+02 -0.97677942605E+02  0.23536282354E+03  0.17200000000E+03 0. -1.
         -6    1    1    2    0  502 -0.99757179737E+02 -0.79493291052E+02  0.41804690092E+03  0.46969978667E+03  0.17200000000E+03 0. -1.
<mgrwt>
<rscale>  2 0.21413705E+03</rscale>
<asrwt>0</asrwt>
<pdfrwt beam="1">  1       21 0.12817894E+00 0.21413705E+03</pdfrwt>
<pdfrwt beam="2">  1       21 0.48086708E-01 0.21413705E+03</pdfrwt>
<totfact> 0.18147557E+03</totfact>
</mgrwt>
</event>
<event>
 4    1  0.1110581E+000  0.2014278E+03  0.7546771E-02  0.1148540E+00
         21   -1    0    0  503  502  0.00000000000E+00  0.00000000000E+00  0.10492904836E+04  0.10492904836E+04  0.00000000000E+00 0.  1.
         21   -1    0    0  501  503 -0.00000000000E+00 -0.00000000000E+00 -0.38668491733E+02  0.38668491733E+02  0.00000000000E+00 0.  1.
          6    1    1    2  501    0 -0.67522848299E+02  0.80186139739E+02  0.50842350798E+03  0.54687074846E+03  0.17200000000E+03 0.  1.
         -6    1    1    2    0  502  0.67522848299E+02 -0.80186139739E+02  0.50219848389E+03  0.54108822688E+03  0.17200000000E+03 0.  1.
<mgrwt>
<rscale>  2 0.20142778E+03</rscale>
<asrwt>0</asrwt>
<pdfrwt beam="1">  1       21 0.26232253E+00 0.20142778E+03</pdfrwt>
<pdfrwt beam="2">  1       21 0.96671264E-02 0.20142778E+03</pdfrwt>
<totfact> 0.48073092E+03</totfact>
</mgrwt>
</event>
<event>
 4    1  0.1110581E+000  0.2552964E+03  0.7546771E-02  0.1110003E+00
         21   -1    0    0  501  502  0.00000000000E+00  0.00000000000E+00  0.21934174418E+03  0.21934174418E+03  0.00000000000E+00 0.  1.
         21   -1    0    0  502  503 -0.00000000000E+00 -0.00000000000E+00 -0.31134246690E+03  0.31134246690E+03  0.00000000000E+00 0. -1.
          6    1    1    2  501    0  0.31108450822E+02 -0.18607669330E+03 -0.10266271223E+03  0.27516523034E+03  0.17200000000E+03 0.  1.
         -6    1    1    2    0  503 -0.31108450822E+02  0.18607669330E+03  0.10661989511E+02  0.25551898075E+03  0.17200000000E+03 0.  1.
<mgrwt>
<rscale>  2 0.25529644E+03</rscale>
<asrwt>0</asrwt>
<pdfrwt beam="1">  1       21 0.54835436E-01 0.25529644E+03</pdfrwt>
<pdfrwt beam="2">  1       21 0.77835616E-01 0.25529644E+03</pdfrwt>
<totfact> 0.43928280E+03</totfact>
</mgrwt>
</event>
<event>
 4    1  0.1110581E+000  0.2093502E+03  0.7546771E-02  0.1142082E+00
         21   -1    0    0  503  502  0.00000000000E+00  0.00000000000E+00  0.63763909051E+02  0.63763909051E+02  0.00000000000E+00 0.  1.
         21   -1    0    0  501  503 -0.00000000000E+00 -0.00000000000E+00 -0.68740514594E+03  0.68740514594E+03  0.00000000000E+00 0.  1.
          6    1    1    2  501    0  0.11759963961E+03  0.20342827881E+02 -0.30817338529E+03  0.37255649408E+03  0.17200000000E+03 0.  1.
         -6    1    1    2    0  502 -0.11759963961E+03 -0.20342827881E+02 -0.31546785160E+03  0.37861256091E+03  0.17200000000E+03 0.  1.
<mgrwt>
<rscale>  2 0.20935020E+03</rscale>
<asrwt>0</asrwt>
<pdfrwt beam="1">  1       21 0.15940977E-01 0.20935020E+03</pdfrwt>
<pdfrwt beam="2">  1       21 0.17185129E+00 0.20935020E+03</pdfrwt>
<totfact> 0.71718235E+03</totfact>
</mgrwt>
</event>
<event>
 4    1  0.1110581E+000  0.1760334E+03  0.7546771E-02  0.1171698E+00
         21   -1    0    0  503  502  0.00000000000E+00  0.00000000000E+00  0.13815075373E+03  0.13815075373E+03  0.00000000000E+00 0. -1.
         21   -1    0    0  501  503 -0.00000000000E+00 -0.00000000000E+00 -0.48141362577E+03  0.48141362577E+03  0.00000000000E+00 0. -1.
          6    1    1    2  501    0 -0.36389277026E+02  0.89215916859E+01 -0.39802098682E+03  0.43521084572E+03  0.17200000000E+03 0. -1.
         -6    1    1    2    0  502  0.36389277026E+02 -0.89215916859E+01  0.54758114786E+02  0.18435353378E+03  0.17200000000E+03 0. -1.
<mgrwt>
<rscale>  2 0.17603345E+03</rscale>
<asrwt>0</asrwt>
<pdfrwt beam="1">  1       21 0.34537689E-01 0.17603345E+03</pdfrwt>
<pdfrwt beam="2">  1       21 0.12035340E+00 0.17603345E+03</pdfrwt>
<totfact> 0.42962285E+03</totfact>
</mgrwt>
</event>
<event>
 4    1  0.1110581E+000  0.2114871E+03  0.7546771E-02  0.1140394E+00
         21   -1    0    0  503  502  0.00000000000E+00  0.00000000000E+00  0.15321450946E+03  0.15321450946E+03  0.00000000000E+00 0. -1.
         21   -1    0    0  501  503 -0.00000000000E+00 -0.00000000000E+00 -0.34282037156E+03  0.34282037156E+03  0.00000000000E+00 0. -1.
          6    1    1    2  501    0 -0.10264707418E+03  0.67870384154E+02  0.76174192660E+00  0.21148851301E+03  0.17200000000E+03 0. -1.
         -6    1    1    2    0  502  0.10264707418E+03 -0.67870384154E+02 -0.19036760403E+03  0.28454636801E+03  0.17200000000E+03 0. -1.
<mgrwt>
<rscale>  2 0.21148714E+03</rscale>
<asrwt>0</asrwt>
<pdfrwt beam="1">  1       21 0.38303628E-01 0.21148714E+03</pdfrwt>
<pdfrwt beam="2">  1       21 0.85705092E-01 0.21148714E+03</pdfrwt>
<totfact> 0.76244191E+03</totfact>
</mgrwt>
</event>
<event>
 4    1  0.1110581E+000  0.1867625E+03  0.7546771E-02  0.1161414E+00
         21   -1    0    0  501  502  0.00000000000E+00  0.00000000000E+00  0.33938826844E+03  0.33938826844E+03  0.00000000000E+00 0.  1.
         21   -1    0    0  502  503 -0.00000000000E+00 -0.00000000000E+00 -0.15435795979E+03  0.15435795979E+03  0.00000000000E+00 0.  1.
          6    1    1    2  501    0 -0.27159319137E+02  0.67517513536E+02  0.23522935774E+03  0.30035494668E+03  0.17200000000E+03 0.  1.
         -6    1    1    2    0  503  0.27159319137E+02 -0.67517513536E+02 -0.50199049098E+02  0.19339128155E+03  0.17200000000E+03 0.  1.
<mgrwt>
<rscale>  2 0.18676253E+03</rscale>
<asrwt>0</asrwt>
<pdfrwt beam="1">  1       21 0.84847066E-01 0.18676253E+03</pdfrwt>
<pdfrwt beam="2">  1       21 0.38589491E-01 0.18676253E+03</pdfrwt>
<totfact> 0.78246506E+03</totfact>
</mgrwt>
</event>
<event>
 4    1  0.1110581E+000  0.1821490E+03  0.7546771E-02  0.1165739E+00
         21   -1    0    0  501  502  0.00000000000E+00  0.00000000000E+00  0.13002916983E+04  0.13002916983E+04  0.00000000000E+00 0. -1.
         21   -1    0    0  502  503 -0.00000000000E+00 -0.00000000000E+00 -0.27418256880E+02  0.27418256880E+02  0.00000000000E+00 0. -1.
          6    1    1    2  501    0 -0.11113351806E+02 -0.58913025542E+02  0.81129538547E+03  0.83149170389E+03  0.17200000000E+03 0. -1.
         -6    1    1    2    0  503  0.11113351806E+02  0.58913025542E+02  0.46157805591E+03  0.49621825124E+03  0.17200000000E+03 0. -1.
<mgrwt>
<rscale>  2 0.18214898E+03</rscale>
<asrwt>0</asrwt>
<pdfrwt beam="1">  1       21 0.32507272E+00 0.18214898E+03</pdfrwt>
<pdfrwt beam="2">  1       21 0.68545686E-02 0.18214898E+03</pdfrwt>
<totfact> 0.38887735E+03</totfact>
</mgrwt>
</event>
<event>
 4    1  0.1110581E+000  0.2015095E+03  0.7546771E-02  0.1148472E+00
         21   -1    0    0  501  502  0.00000000000E+00  0.00000000000E+00  0.97205376413E+03  0.97205376413E+03  0.00000000000E+00 0.  1.
         21   -1    0    0  502  503 -0.00000000000E+00 -0.00000000000E+00 -0.42110985541E+02  0.42110985541E+02  0.00000000000E+00 0.  1.
          6    1    1    2  501    0 -0.69019192355E+02 -0.79110145941E+02  0.41957470236E+03  0.46545568529E+03  0.17200000000E+03 0.  1.
         -6    1    1    2    0  503  0.69019192355E+02  0.79110145941E+02  0.51036807623E+03  0.54870906439E+03  0.17200000000E+03 0.  1.
<mgrwt>
<rscale>  2 0.20150946E+03</rscale>
<asrwt>0</asrwt>
<pdfrwt beam="1">  1       21 0.24301337E+00 0.20150946E+03</pdfrwt>
<pdfrwt beam="2">  1       21 0.10527750E-01 0.20150946E+03</pdfrwt>
<totfact> 0.53690174E+03</totfact>
</mgrwt>
</event>
<event>
 4    1  0.1110581E+000  0.1799789E+03  0.7546771E-02  0.1167824E+00
         21   -1    0    0  501  502  0.00000000000E+00  0.00000000000E+00  0.42805234956E+03  0.42805234956E+03  0.00000000000E+00 0.  1.
         21   -1    0    0  502  503 -0.00000000000E+00 -0.00000000000E+00 -0.11273023416E+03  0.11273023416E+03  0.00000000000E+00 0.  1.
          6    1    1    2  501    0  0.46367463582E+02  0.25660230705E+02  0.31268677332E+03  0.36078443332E+03  0.17200000000E+03 0.  1.
         -6    1    1    2    0  503 -0.46367463582E+02 -0.25660230705E+02  0.26353420884E+01  0.17999815040E+03  0.17200000000E+03 0.  1.
<mgrwt>
<rscale>  2 0.17997886E+03</rscale>
<asrwt>0</asrwt>
<pdfrwt beam="1">  1       21 0.10701308E+00 0.17997886E+03</pdfrwt>
<pdfrwt beam="2">  1       21 0.28182560E-01 0.17997886E+03</pdfrwt>
<totfact> 0.84768907E+03</totfact>
</mgrwt>
</event>
<event>
 4    1  0.1110581E+000  0.1774782E+03  0.7546771E-02  0.1170266E+00
         21   -1    0    0  501  502  0.00000000000E+00  0.00000000000E+00  0.71128823799E+03  0.71128823799E+03  0.00000000000E+00 0.  1.
         21   -1    0    0  502  503 -0.00000000000E+00 -0.00000000000E+00 -0.15328788268E+03  0.15328788268E+03  0.00000000000E+00 0.  1.
          6    1    1    2  501    0 -0.31268883891E+02  0.30606454423E+02  0.64353653062E+03  0.66756105668E+03  0.17200000000E+03 0.  1.
         -6    1    1    2    0  503  0.31268883891E+02 -0.30606454423E+02 -0.85536175317E+02  0.19701506399E+03  0.17200000000E+03 0.  1.
<mgrwt>
<rscale>  2 0.17747816E+03</rscale>
<asrwt>0</asrwt>
<pdfrwt beam="1">  1       21 0.17782205E+00 0.17747816E+03</pdfrwt>
<pdfrwt beam="2">  1       21 0.38321973E-01 0.17747816E+03</pdfrwt>
<totfact> 0.12572553E+03</totfact>
</mgrwt>
</event>
<event>
 4    1  0.1110581E+000  0.2025712E+03  0.7546771E-02  0.1147588E+00
         21   -1    0    0  501  502  0.00000000000E+00  0.00000000000E+00  0.22393559904E+03  0.22393559904E+03  0.00000000000E+00 0. -1.
         21   -1    0    0  502  503 -0.00000000000E+00 -0.00000000000E+00 -0.53086732312E+03  0.53086732312E+03  0.00000000000E+00 0.  1.
          6    1    1    2  501    0 -0.58222291381E+02  0.89784554881E+02  0.15193084216E+03  0.25321548592E+03  0.17200000000E+03 0. -1.
         -6    1    1    2    0  503  0.58222291381E+02 -0.89784554881E+02 -0.45886256623E+03  0.50158743625E+03  0.17200000000E+03 0.  1.
<mgrwt>
<rscale>  2 0.20257123E+03</rscale>
<asrwt>0</asrwt>
<pdfrwt beam="1">  1       21 0.55983901E-01 0.20257123E+03</pdfrwt>
<pdfrwt beam="2">  1       21 0.13271683E+00 0.20257123E+03</pdfrwt>
<totfact> 0.12203164E+03</totfact>
</mgrwt>
</event>
<event>
 4    1  0.1110581E+000  0.1804655E+03  0.7546771E-02  0.1167353E+00
         21   -1    0    0  501  502  0.00000000000E+00  0.00000000000E+00  0.49082175239E+03  0.49082175239E+03  0.00000000000E+00 0.  1.
         21   -1    0    0  502  503 -0.00000000000E+00 -0.00000000000E+00 -0.88585263638E+02  0.88585263638E+02  0.00000000000E+00 0.  1.
          6    1    1    2  501    0 -0.32957357928E+02  0.43561376563E+02  0.55987581506E+02  0.18895076145E+03  0.17200000000E+03 0.  1.
         -6    1    1    2    0  503  0.32957357928E+02 -0.43561376563E+02  0.34624890724E+03  0.39045625458E+03  0.17200000000E+03 0.  1.
<mgrwt>
<rscale>  2 0.18046546E+03</rscale>
<asrwt>0</asrwt>
<pdfrwt beam="1">  1       21 0.12270543E+00 0.18046546E+03</pdfrwt>
<pdfrwt beam="2">  1       21 0.22146317E-01 0.18046546E+03</pdfrwt>
<totfact> 0.96103632E+03</totfact>
</mgrwt>
</event>
<event>
 4    1  0.1110581E+000  0.1858841E+03  0.7546771E-02  0.1162227E+00
         21   -1    0    0  501  502  0.00000000000E+00  0.00000000000E+00  0.70845589709E+03  0.70845589709E+03  0.00000000000E+00 0. -1.
         21   -1    0    0  502  503 -0.00000000000E+00 -0.00000000000E+00 -0.11315742069E+03  0.11315742069E+03  0.00000000000E+00 0. -1.
          6    1    1    2  501    0  0.45124360218E+02 -0.54154396176E+02  0.60752618556E+03  0.63532745309E+03  0.17200000000E+03 0. -1.
         -6    1    1    2    0  503 -0.45124360218E+02  0.54154396176E+02 -0.12227709172E+02  0.18628586469E+03  0.17200000000E+03 0. -1.
<mgrwt>
<rscale>  2 0.18588412E+03</rscale>
<asrwt>0</asrwt>
<pdfrwt beam="1">  1       21 0.17711396E+00 0.18588412E+03</pdfrwt>
<pdfrwt beam="2">  1       21 0.28289357E-01 0.18588412E+03</pdfrwt>
<totfact> 0.22897049E+03</totfact>
</mgrwt>
</event>
<event>
 4    1  0.1110581E+000  0.1991989E+03  0.7546771E-02  0.1150417E+00
         21   -1    0    0  503  502  0.00000000000E+00  0.00000000000E+00  0.30231230995E+03  0.30231230995E+03  0.00000000000E+00 0.  1.
         21   -1    0    0  501  503 -0.00000000000E+00 -0.00000000000E+00 -0.22898624844E+03  0.22898624844E+03  0.00000000000E+00 0.  1.
          6    1    1    2  501    0 -0.91152302680E+02  0.42278413098E+02 -0.13688478934E+03  0.24169743906E+03  0.17200000000E+03 0.  1.
         -6    1    1    2    0  502  0.91152302680E+02 -0.42278413098E+02  0.21021085085E+03  0.28960111932E+03  0.17200000000E+03 0.  1.
<mgrwt>
<rscale>  2 0.19919891E+03</rscale>
<asrwt>0</asrwt>
<pdfrwt beam="1">  1       21 0.75578077E-01 0.19919891E+03</pdfrwt>
<pdfrwt beam="2">  1       21 0.57246562E-01 0.19919891E+03</pdfrwt>
<totfact> 0.44545275E+03</totfact>
</mgrwt>
</event>
<event>
 4    1  0.1110581E+000  0.1736061E+03  0.7546771E-02  0.1174139E+00
         21   -1    0    0  501  502  0.00000000000E+00  0.00000000000E+00  0.21618011927E+03  0.21618011927E+03  0.00000000000E+00 0. -1.
         21   -1    0    0  502  503 -0.00000000000E+00 -0.00000000000E+00 -0.15557589215E+03  0.15557589215E+03  0.00000000000E+00 0. -1.
          6    1    1    2  501    0 -0.66697446119E+00 -0.23550691403E+02  0.90207944397E+02  0.19564394484E+03  0.17200000000E+03 0. -1.
         -6    1    1    2    0  503  0.66697446119E+00  0.23550691403E+02 -0.29603717277E+02  0.17611206659E+03  0.17200000000E+03 0. -1.
<mgrwt>
<rscale>  2 0.17360611E+03</rscale>
<asrwt>0</asrwt>
<pdfrwt beam="1">  1       21 0.54045030E-01 0.17360611E+03</pdfrwt>
<pdfrwt beam="2">  1       21 0.38893973E-01 0.17360611E+03</pdfrwt>
<totfact> 0.20867600E+04</totfact>
</mgrwt>
</event>
<event>
 4    1  0.1110581E+000  0.1952761E+03  0.7546771E-02  0.1153787E+00
         21   -1    0    0  501  502  0.00000000000E+00  0.00000000000E+00  0.10619024752E+04  0.10619024752E+04  0.00000000000E+00 0. -1.
         21   -1    0    0  502  503 -0.00000000000E+00 -0.00000000000E+00 -0.37697552568E+02  0.37697552568E+02  0.00000000000E+00 0. -1.
          6    1    1    2  501    0  0.15144145577E+01  0.92446982400E+02  0.63183113070E+03  0.66131937499E+03  0.17200000000E+03 0. -1.
         -6    1    1    2    0  503 -0.15144145577E+01 -0.92446982400E+02  0.39237379189E+03  0.43828065275E+03  0.17200000000E+03 0. -1.
<mgrwt>
<rscale>  2 0.19527606E+03</rscale>
<asrwt>0</asrwt>
<pdfrwt beam="1">  1       21 0.26547552E+00 0.19527606E+03</pdfrwt>
<pdfrwt beam="2">  1       21 0.94243917E-02 0.19527606E+03</pdfrwt>
<totfact> 0.48510232E+03</totfact>
</mgrwt>
</event>
<event>
 4    1  0.1110581E+000  0.2402344E+03  0.7546771E-02  0.1119637E+00
         21   -1    0    0  501  502  0.00000000000E+00  0.00000000000E+00  0.27567761939E+03  0.27567761939E+03  0.00000000000E+00 0. -1.
         21   -1    0    0  502  503 -0.00000000000E+00 -0.00000000000E+00 -0.24054890562E+03  0.24054890562E+03  0.00000000000E+00 0.  1.
          6    1    1    2  501    0  0.13598920990E+03  0.98160605396E+02  0.11052346316E+03  0.26443903942E+03  0.17200000000E+03 0. -1.
         -6    1    1    2    0  503 -0.13598920990E+03 -0.98160605396E+02 -0.75394749387E+02  0.25178748559E+03  0.17200000000E+03 0.  1.
<mgrwt>
<rscale>  2 0.24023441E+03</rscale>
<asrwt>0</asrwt>
<pdfrwt beam="1">  1       21 0.68919405E-01 0.24023441E+03</pdfrwt>
<pdfrwt beam="2">  1       21 0.60137227E-01 0.24023441E+03</pdfrwt>
<totfact> 0.47768770E+03</totfact>
</mgrwt>
</event>
<event>
 4    1  0.1110581E+000  0.2579589E+03  0.7546771E-02  0.1108376E+00
         21   -1    0    0  503  502  0.00000000000E+00  0.00000000000E+00  0.82437084688E+02  0.82437084688E+02  0.00000000000E+00 0.  1.
         21   -1    0    0  501  503 -0.00000000000E+00 -0.00000000000E+00 -0.10558566071E+04  0.10558566071E+04  0.00000000000E+00 0. -1.
          6    1    1    2  501    0  0.69757910824E+02  0.17914419371E+03 -0.76291134868E+03  0.80534249498E+03  0.17200000000E+03 0.  1.
         -6    1    1    2    0  502 -0.69757910824E+02 -0.17914419371E+03 -0.21050817377E+03  0.33295119685E+03  0.17200000000E+03 0.  1.
<mgrwt>
<rscale>  2 0.25795893E+03</rscale>
<asrwt>0</asrwt>
<pdfrwt beam="1">  1       21 0.20609271E-01 0.25795893E+03</pdfrwt>
<pdfrwt beam="2">  1       21 0.26396415E+00 0.25795893E+03</pdfrwt>
<totfact> 0.11202263E+03</totfact>
</mgrwt>
</event>
<event>
 4    1  0.1110581E+000  0.1720309E+03  0.7546771E-02  0.1175746E+00
         21   -1    0    0  501  502  0.00000000000E+00  0.00000000000E+00  0.45666838126E+02  0.45666838126E+02  0.00000000000E+00 0.  1.
         21   -1    0    0  502  503 -0.00000000000E+00 -0.00000000000E+00 -0.75738276891E+03  0.75738276891E+03  0.00000000000E+00 0.  1.
          6    1    1    2  501    0 -0.27591169367E+01  0.17381090302E+01 -0.20330542865E+03  0.26632260713E+03  0.17200000000E+03 0. -1.
         -6    1    1    2    0  503  0.27591169367E+01 -0.17381090302E+01 -0.50841050214E+03  0.53672699991E+03  0.17200000000E+03 0. -1.
<mgrwt>
<rscale>  2 0.17203091E+03</rscale>
<asrwt>0</asrwt>
<pdfrwt beam="1">  1       21 0.11416710E-01 0.17203091E+03</pdfrwt>
<pdfrwt beam="2">  1       21 0.18934568E+00 0.17203091E+03</pdfrwt>
<totfact> 0.10282857E+04</totfact>
</mgrwt>
</event>
<event>
 4    1  0.1110581E+000  0.2296339E+03  0.7546771E-02  0.1126898E+00
         21   -1    0    0  501  502  0.00000000000E+00  0.00000000000E+00  0.54390885755E+03  0.54390885755E+03  0.00000000000E+00 0. -1.
         21   -1    0    0  502  503 -0.00000000000E+00 -0.00000000000E+00 -0.15635738646E+03  0.15635738646E+03  0.00000000000E+00 0.  1.
          6    1    1    2  501    0  0.10062797290E+03  0.11411275728E+03 -0.22046368157E+02  0.23068973244E+03  0.17200000000E+03 0.  1.
         -6    1    1    2    0  503 -0.10062797290E+03 -0.11411275728E+03  0.40959783925E+03  0.46957651157E+03  0.17200000000E+03 0. -1.
<mgrwt>
<rscale>  2 0.22963386E+03</rscale>
<asrwt>0</asrwt>
<pdfrwt beam="1">  1       21 0.13597721E+00 0.22963386E+03</pdfrwt>
<pdfrwt beam="2">  1       21 0.39089348E-01 0.22963386E+03</pdfrwt>
<totfact> 0.23570619E+03</totfact>
</mgrwt>
</event>
<event>
 4    1  0.1110581E+000  0.2052475E+03  0.7546771E-02  0.1145386E+00
         21   -1    0    0  501  502  0.00000000000E+00  0.00000000000E+00  0.88360584490E+03  0.88360584490E+03  0.00000000000E+00 0. -1.
         21   -1    0    0  502  503 -0.00000000000E+00 -0.00000000000E+00 -0.53416072246E+02  0.53416072246E+02  0.00000000000E+00 0.  1.
          6    1    1    2  501    0  0.81668809481E+02 -0.76633847681E+02  0.56868144601E+03  0.60458674157E+03  0.17200000000E+03 0. -1.
         -6    1    1    2    0  503 -0.81668809481E+02  0.76633847681E+02  0.26150832665E+03  0.33243517557E+03  0.17200000000E+03 0.  1.
<mgrwt>
<rscale>  2 0.20524751E+03</rscale>
<asrwt>0</asrwt>
<pdfrwt beam="1">  1       21 0.22090141E+00 0.20524751E+03</pdfrwt>
<pdfrwt beam="2">  1       21 0.13354021E-01 0.20524751E+03</pdfrwt>
<totfact> 0.47522988E+03</totfact>
</mgrwt>
</event>
<event>
 4    1  0.1110581E+000  0.1801425E+03  0.7546771E-02  0.1167665E+00
         21   -1    0    0  503  502  0.00000000000E+00  0.00000000000E+00  0.25603776730E+03  0.25603776730E+03  0.00000000000E+00 0. -1.
         21   -1    0    0  501  503 -0.00000000000E+00 -0.00000000000E+00 -0.12681047591E+03  0.12681047591E+03  0.00000000000E+00 0. -1.
          6    1    1    2  501    0 -0.20279501606E+01 -0.53509064043E+02  0.60241386279E+02  0.18994830122E+03  0.17200000000E+03 0. -1.
         -6    1    1    2    0  502  0.20279501606E+01  0.53509064043E+02  0.68985905114E+02  0.19289994199E+03  0.17200000000E+03 0. -1.
<mgrwt>
<rscale>  2 0.18014253E+03</rscale>
<asrwt>0</asrwt>
<pdfrwt beam="1">  1       21 0.64009441E-01 0.18014253E+03</pdfrwt>
<pdfrwt beam="2">  1       21 0.31702619E-01 0.18014253E+03</pdfrwt>
<totfact> 0.21715665E+04</totfact>
</mgrwt>
</event>
<event>
 4    1  0.1110581E+000  0.1859532E+03  0.7546771E-02  0.1162163E+00
         21   -1    0    0  501  502  0.00000000000E+00  0.00000000000E+00  0.27287853182E+03  0.27287853182E+03  0.00000000000E+00 0. -1.
         21   -1    0    0  502  503 -0.00000000000E+00 -0.00000000000E+00 -0.18801901876E+03  0.18801901876E+03  0.00000000000E+00 0. -1.
          6    1    1    2  501    0 -0.67036027319E+02 -0.22377860744E+02  0.17401514699E+03  0.25467600788E+03  0.17200000000E+03 0. -1.
         -6    1    1    2    0  503  0.67036027319E+02  0.22377860744E+02 -0.89155633926E+02  0.20622154269E+03  0.17200000000E+03 0. -1.
<mgrwt>
<rscale>  2 0.18595321E+03</rscale>
<asrwt>0</asrwt>
<pdfrwt beam="1">  1       21 0.68219633E-01 0.18595321E+03</pdfrwt>
<pdfrwt beam="2">  1       21 0.47004755E-01 0.18595321E+03</pdfrwt>
<totfact> 0.85348451E+03</totfact>
</mgrwt>
</event>
<event>
 4    1  0.1110581E+000  0.1793083E+03  0.7546771E-02  0.1168474E+00
         21   -1    0    0  503  502  0.00000000000E+00  0.00000000000E+00  0.29390593437E+03  0.29390593437E+03  0.00000000000E+00 0.  1.
         21   -1    0    0  501  503 -0.00000000000E+00 -0.00000000000E+00 -0.11171014437E+03  0.11171014437E+03  0.00000000000E+00 0.  1.
          6    1    1    2  501    0  0.79814870044E+01  0.50037640008E+02  0.61893649571E+02  0.18968999291E+03  0.17200000000E+03 0. -1.
         -6    1    1    2    0  502 -0.79814870044E+01 -0.50037640008E+02  0.12030214042E+03  0.21592608583E+03  0.17200000000E+03 0. -1.
<mgrwt>
<rscale>  2 0.17930831E+03</rscale>
<asrwt>0</asrwt>
<pdfrwt beam="1">  1       21 0.73476482E-01 0.17930831E+03</pdfrwt>
<pdfrwt beam="2">  1       21 0.27927537E-01 0.17930831E+03</pdfrwt>
<totfact> 0.20542930E+04</totfact>
</mgrwt>
</event>
<event>
 4    1  0.1110581E+000  0.1848856E+03  0.7546771E-02  0.1163157E+00
         21   -1    0    0  501  502  0.00000000000E+00  0.00000000000E+00  0.31308451522E+03  0.31308451522E+03  0.00000000000E+00 0. -1.
         21   -1    0    0  502  503 -0.00000000000E+00 -0.00000000000E+00 -0.10935126197E+03  0.10935126197E+03  0.00000000000E+00 0. -1.
          6    1    1    2  501    0  0.59589518200E+02  0.32369206746E+02  0.93516212952E+02  0.20719063277E+03  0.17200000000E+03 0. -1.
         -6    1    1    2    0  503 -0.59589518200E+02 -0.32369206746E+02  0.11021704029E+03  0.21524514442E+03  0.17200000000E+03 0. -1.
<mgrwt>
<rscale>  2 0.18488558E+03</rscale>
<asrwt>0</asrwt>
<pdfrwt beam="1">  1       21 0.78271127E-01 0.18488558E+03</pdfrwt>
<pdfrwt beam="2">  1       21 0.27337816E-01 0.18488558E+03</pdfrwt>
<totfact> 0.18523399E+04</totfact>
</mgrwt>
</event>
<event>
 4    1  0.1110581E+000  0.1733219E+03  0.7546771E-02  0.1174427E+00
         21   -1    0    0  503  502  0.00000000000E+00  0.00000000000E+00  0.45734672274E+03  0.45734672274E+03  0.00000000000E+00 0.  1.
         21   -1    0    0  501  503 -0.00000000000E+00 -0.00000000000E+00 -0.11504704249E+03  0.11504704249E+03  0.00000000000E+00 0.  1.
          6    1    1    2  501    0 -0.12264910470E+02 -0.17494238828E+02 -0.16318109772E+02  0.17408836012E+03  0.17200000000E+03 0. -1.
         -6    1    1    2    0  502  0.12264910470E+02  0.17494238828E+02  0.35861779002E+03  0.39830540511E+03  0.17200000000E+03 0. -1.
<mgrwt>
<rscale>  2 0.17332189E+03</rscale>
<asrwt>0</asrwt>
<pdfrwt beam="1">  1       21 0.11433668E+00 0.17332189E+03</pdfrwt>
<pdfrwt beam="2">  1       21 0.28761762E-01 0.17332189E+03</pdfrwt>
<totfact> 0.69822338E+03</totfact>
</mgrwt>
</event>
<event>
 4    1  0.1110581E+000  0.1720391E+03  0.7546771E-02  0.1175738E+00
         21   -1    0    0  501  502  0.00000000000E+00  0.00000000000E+00  0.91031994959E+03  0.91031994959E+03  0.00000000000E+00 0.  1.
         21   -1    0    0  502  503 -0.00000000000E+00 -0.00000000000E+00 -0.32520751706E+02  0.32520751706E+02  0.00000000000E+00 0.  1.
          6    1    1    2  501    0  0.26899562986E+01  0.24927173293E+01  0.44606507000E+03  0.47809151443E+03  0.17200000000E+03 0. -1.
         -6    1    1    2    0  503 -0.26899562986E+01 -0.24927173293E+01  0.43173412789E+03  0.46474918686E+03  0.17200000000E+03 0. -1.
<mgrwt>
<rscale>  2 0.17203909E+03</rscale>
<asrwt>0</asrwt>
<pdfrwt beam="1">  1       21 0.22757990E+00 0.17203909E+03</pdfrwt>
<pdfrwt beam="2">  1       21 0.81301909E-02 0.17203909E+03</pdfrwt>
<totfact> 0.10757735E+04</totfact>
</mgrwt>
</event>
<event>
 4    1  0.1110581E+000  0.1980213E+03  0.7546771E-02  0.1151419E+00
         21   -1    0    0  501  502  0.00000000000E+00  0.00000000000E+00  0.15419174548E+03  0.15419174548E+03  0.00000000000E+00 0. -1.
         21   -1    0    0  502  503 -0.00000000000E+00 -0.00000000000E+00 -0.43996142060E+03  0.43996142060E+03  0.00000000000E+00 0.  1.
          6    1    1    2  501    0  0.84704118603E+02  0.49534316824E+02  0.50094479605E+02  0.20425937711E+03  0.17200000000E+03 0. -1.
         -6    1    1    2    0  503 -0.84704118603E+02 -0.49534316824E+02 -0.33586415472E+03  0.38989378897E+03  0.17200000000E+03 0.  1.
<mgrwt>
<rscale>  2 0.19802130E+03</rscale>
<asrwt>0</asrwt>
<pdfrwt beam="1">  1       21 0.38547937E-01 0.19802130E+03</pdfrwt>
<pdfrwt beam="2">  1       21 0.10999035E+00 0.19802130E+03</pdfrwt>
<totfact> 0.42205179E+03</totfact>
</mgrwt>
</event>
<event>
 4    1  0.1110581E+000  0.1983946E+03  0.7546771E-02  0.1151101E+00
         21   -1    0    0  503  502  0.00000000000E+00  0.00000000000E+00  0.25442435145E+03  0.25442435145E+03  0.00000000000E+00 0.  1.
         21   -1    0    0  501  503 -0.00000000000E+00 -0.00000000000E+00 -0.18547565367E+03  0.18547565367E+03  0.00000000000E+00 0. -1.
          6    1    1    2  501    0  0.20470812047E+02  0.96733383699E+02 -0.55115269576E+02  0.20590797607E+03  0.17200000000E+03 0. -1.
         -6    1    1    2    0  502 -0.20470812047E+02 -0.96733383699E+02  0.12406396736E+03  0.23399202906E+03  0.17200000000E+03 0.  1.
<mgrwt>
<rscale>  2 0.19839456E+03</rscale>
<asrwt>0</asrwt>
<pdfrwt beam="1">  1       21 0.63606088E-01 0.19839456E+03</pdfrwt>
<pdfrwt beam="2">  1       21 0.46368914E-01 0.19839456E+03</pdfrwt>
<totfact> 0.10138216E+04</totfact>
</mgrwt>
</event>
<event>
 4    1  0.1110581E+000  0.2032074E+03  0.7546771E-02  0.1147061E+00
         21   -1    0    0  501  502  0.00000000000E+00  0.00000000000E+00  0.13545339003E+03  0.13545339003E+03  0.00000000000E+00 0. -1.
         21   -1    0    0  502  503 -0.00000000000E+00 -0.00000000000E+00 -0.44582056354E+03  0.44582056354E+03  0.00000000000E+00 0. -1.
          6    1    1    2  501    0  0.10820817628E+03 -0.48896330854E+00  0.82464294950E+01  0.20337465943E+03  0.17200000000E+03 0. -1.
         -6    1    1    2    0  503 -0.10820817628E+03  0.48896330854E+00 -0.31861360300E+03  0.37789929414E+03  0.17200000000E+03 0. -1.
<mgrwt>
<rscale>  2 0.20320740E+03</rscale>
<asrwt>0</asrwt>
<pdfrwt beam="1">  1       21 0.33863348E-01 0.20320740E+03</pdfrwt>
<pdfrwt beam="2">  1       21 0.11145514E+00 0.20320740E+03</pdfrwt>
<totfact> 0.52707330E+03</totfact>
</mgrwt>
</event>
<event>
 4    1  0.1110581E+000  0.2232257E+03  0.7546771E-02  0.1131501E+00
         21   -1    0    0  501  502  0.00000000000E+00  0.00000000000E+00  0.12925599118E+04  0.12925599118E+04  0.00000000000E+00 0. -1.
         21   -1    0    0  502  503 -0.00000000000E+00 -0.00000000000E+00 -0.66914408552E+02  0.66914408552E+02  0.00000000000E+00 0. -1.
          6    1    1    2  501    0  0.48896322146E+02  0.13362208067E+03  0.10553693609E+04  0.10787187765E+04  0.17200000000E+03 0. -1.
         -6    1    1    2    0  503 -0.48896322146E+02 -0.13362208067E+03  0.17027614230E+03  0.28075554384E+03  0.17200000000E+03 0. -1.
<mgrwt>
<rscale>  2 0.22322569E+03</rscale>
<asrwt>0</asrwt>
<pdfrwt beam="1">  1       21 0.32313990E+00 0.22322569E+03</pdfrwt>
<pdfrwt beam="2">  1       21 0.16728606E-01 0.22322569E+03</pdfrwt>
<totfact> 0.77408944E+02</totfact>
</mgrwt>
</event>
<event>
 4    1  0.1110581E+000  0.2389355E+03  0.7546771E-02  0.1120504E+00
         21   -1    0    0  501  502  0.00000000000E+00  0.00000000000E+00  0.24008228318E+03  0.24008228318E+03  0.00000000000E+00 0. -1.
         21   -1    0    0  502  503 -0.00000000000E+00 -0.00000000000E+00 -0.30041364703E+03  0.30041364703E+03  0.00000000000E+00 0.  1.
          6    1    1    2  501    0  0.13509561204E+03 -0.96204786844E+02  0.93217810714E+02  0.25647562387E+03  0.17200000000E+03 0. -1.
         -6    1    1    2    0  503 -0.13509561204E+03  0.96204786844E+02 -0.15354917456E+03  0.28402030634E+03  0.17200000000E+03 0.  1.
<mgrwt>
<rscale>  2 0.23893553E+03</rscale>
<asrwt>0</asrwt>
<pdfrwt beam="1">  1       21 0.60020571E-01 0.23893553E+03</pdfrwt>
<pdfrwt beam="2">  1       21 0.75103411E-01 0.23893553E+03</pdfrwt>
<totfact> 0.39642978E+03</totfact>
</mgrwt>
</event>
<event>
 4    1  0.1110581E+000  0.2191993E+03  0.7546771E-02  0.1134481E+00
         21   -1    0    0  501  502  0.00000000000E+00  0.00000000000E+00  0.12544878989E+03  0.12544878989E+03  0.00000000000E+00 0. -1.
         21   -1    0    0  502  503 -0.00000000000E+00 -0.00000000000E+00 -0.41581913938E+03  0.41581913938E+03  0.00000000000E+00 0. -1.
          6    1    1    2  501    0  0.44785949164E+02  0.12829085378E+03 -0.69166935562E+02  0.22985297340E+03  0.17200000000E+03 0. -1.
         -6    1    1    2    0  503 -0.44785949164E+02 -0.12829085378E+03 -0.22120341393E+03  0.31141495587E+03  0.17200000000E+03 0. -1.
<mgrwt>
<rscale>  2 0.21919928E+03</rscale>
<asrwt>0</asrwt>
<pdfrwt beam="1">  1       21 0.31362198E-01 0.21919928E+03</pdfrwt>
<pdfrwt beam="2">  1       21 0.10395478E+00 0.21919928E+03</pdfrwt>
<totfact> 0.71724493E+03</totfact>
</mgrwt>
</event>
<event>
 4    1  0.1110581E+000  0.2128504E+03  0.7546771E-02  0.1139328E+00
         21   -1    0    0  501  502  0.00000000000E+00  0.00000000000E+00  0.29102353576E+03  0.29102353576E+03  0.00000000000E+00 0.  1.
         21   -1    0    0  502  503 -0.00000000000E+00 -0.00000000000E+00 -0.15635356758E+03  0.15635356758E+03  0.00000000000E+00 0.  1.
          6    1    1    2  501    0 -0.74452275079E+02 -0.10088681872E+03  0.82063656424E+02  0.22812219349E+03  0.17200000000E+03 0.  1.
         -6    1    1    2    0  503  0.74452275079E+02  0.10088681872E+03  0.52606311756E+02  0.21925490985E+03  0.17200000000E+03 0.  1.
<mgrwt>
<rscale>  2 0.21285040E+03</rscale>
<asrwt>0</asrwt>
<pdfrwt beam="1">  1       21 0.72755883E-01 0.21285040E+03</pdfrwt>
<pdfrwt beam="2">  1       21 0.39088392E-01 0.21285040E+03</pdfrwt>
<totfact> 0.10590073E+04</totfact>
</mgrwt>
</event>
<event>
 4    1  0.1110581E+000  0.1732933E+03  0.7546771E-02  0.1174456E+00
         21   -1    0    0  503  502  0.00000000000E+00  0.00000000000E+00  0.38000640643E+02  0.38000640643E+02  0.00000000000E+00 0. -1.
         21   -1    0    0  501  503 -0.00000000000E+00 -0.00000000000E+00 -0.11462932704E+04  0.11462932704E+04  0.00000000000E+00 0. -1.
          6    1    1    2  501    0  0.13782219339E+02 -0.16019284458E+02 -0.88415397423E+03  0.90097659081E+03  0.17200000000E+03 0. -1.
         -6    1    1    2    0  502 -0.13782219339E+02  0.16019284458E+02 -0.22413865555E+03  0.28331732026E+03  0.17200000000E+03 0. -1.
<mgrwt>
<rscale>  2 0.17329330E+03</rscale>
<asrwt>0</asrwt>
<pdfrwt beam="1">  1       21 0.95001604E-02 0.17329330E+03</pdfrwt>
<pdfrwt beam="2">  1       21 0.28657331E+00 0.17329330E+03</pdfrwt>
<totfact> 0.37092174E+03</totfact>
</mgrwt>
</event>
<event>
 4    1  0.1110581E+000  0.1996081E+03  0.7546771E-02  0.1150070E+00
         21   -1    0    0  503  502  0.00000000000E+00  0.00000000000E+00  0.11342180474E+03  0.11342180474E+03  0.00000000000E+00 0. -1.
         21   -1    0    0  501  503 -0.00000000000E+00 -0.00000000000E+00 -0.88231460264E+03  0.88231460264E+03  0.00000000000E+00 0.  1.
          6    1    1    2  501    0 -0.54436358606E+02 -0.85417029995E+02 -0.77069062163E+03  0.79612022987E+03  0.17200000000E+03 0.  1.
         -6    1    1    2    0  502  0.54436358606E+02  0.85417029995E+02  0.17978237337E+01  0.19961617750E+03  0.17200000000E+03 0. -1.
<mgrwt>
<rscale>  2 0.19960808E+03</rscale>
<asrwt>0</asrwt>
<pdfrwt beam="1">  1       21 0.28355452E-01 0.19960808E+03</pdfrwt>
<pdfrwt beam="2">  1       21 0.22057865E+00 0.19960808E+03</pdfrwt>
<totfact> 0.11769893E+03</totfact>
</mgrwt>
</event>
<event>
 4    1  0.1110581E+000  0.2063114E+03  0.7546771E-02  0.1144521E+00
         21   -1    0    0  503  502  0.00000000000E+00  0.00000000000E+00  0.13926744796E+03  0.13926744796E+03  0.00000000000E+00 0. -1.
         21   -1    0    0  501  503 -0.00000000000E+00 -0.00000000000E+00 -0.45443272184E+03  0.45443272184E+03  0.00000000000E+00 0. -1.
          6    1    1    2  501    0 -0.75498119337E+02 -0.85325432813E+02 -0.32744881780E+03  0.38702341504E+03  0.17200000000E+03 0. -1.
         -6    1    1    2    0  502  0.75498119337E+02  0.85325432813E+02  0.12283543923E+02  0.20667675476E+03  0.17200000000E+03 0. -1.
<mgrwt>
<rscale>  2 0.20631140E+03</rscale>
<asrwt>0</asrwt>
<pdfrwt beam="1">  1       21 0.34816862E-01 0.20631140E+03</pdfrwt>
<pdfrwt beam="2">  1       21 0.11360818E+00 0.20631140E+03</pdfrwt>
<totfact> 0.47498318E+03</totfact>
</mgrwt>
</event>
<event>
 4    1  0.1110581E+000  0.2143997E+03  0.7546771E-02  0.1138129E+00
         21   -1    0    0  501  502  0.00000000000E+00  0.00000000000E+00  0.36558212822E+03  0.36558212822E+03  0.00000000000E+00 0. -1.
         21   -1    0    0  502  503 -0.00000000000E+00 -0.00000000000E+00 -0.12863645808E+03  0.12863645808E+03  0.00000000000E+00 0.  1.
          6    1    1    2  501    0  0.61037245917E+02  0.11250632462E+03  0.15557179095E+03  0.26489582973E+03  0.17200000000E+03 0. -1.
         -6    1    1    2    0  503 -0.61037245917E+02 -0.11250632462E+03  0.81373879177E+02  0.22932275657E+03  0.17200000000E+03 0.  1.
<mgrwt>
<rscale>  2 0.21439967E+03</rscale>
<asrwt>0</asrwt>
<pdfrwt beam="1">  1       21 0.91395530E-01 0.21439967E+03</pdfrwt>
<pdfrwt beam="2">  1       21 0.32159115E-01 0.21439967E+03</pdfrwt>
<totfact> 0.92880871E+03</totfact>
</mgrwt>
</event>
<event>
 4    1  0.1110581E+000  0.1806793E+03  0.7546771E-02  0.1167147E+00
         21   -1    0    0  501  502  0.00000000000E+00  0.00000000000E+00  0.41933699998E+03  0.41933699998E+03  0.00000000000E+00 0.  1.
         21   -1    0    0  502  503 -0.00000000000E+00 -0.00000000000E+00 -0.16930102445E+03  0.16930102445E+03  0.00000000000E+00 0.  1.
          6    1    1    2  501    0  0.21912004552E+02 -0.50802356096E+02  0.34133212685E+03  0.38620284327E+03  0.17200000000E+03 0.  1.
         -6    1    1    2    0  503 -0.21912004552E+02  0.50802356096E+02 -0.91296151320E+02  0.20243518117E+03  0.17200000000E+03 0.  1.
<mgrwt>
<rscale>  2 0.18067932E+03</rscale>
<asrwt>0</asrwt>
<pdfrwt beam="1">  1       21 0.10483425E+00 0.18067932E+03</pdfrwt>
<pdfrwt beam="2">  1       21 0.42325257E-01 0.18067932E+03</pdfrwt>
<totfact> 0.39790303E+03</totfact>
</mgrwt>
</event>
<event>
 4    1  0.1110581E+000  0.2546952E+03  0.7546771E-02  0.1110373E+00
         21   -1    0    0  503  502  0.00000000000E+00  0.00000000000E+00  0.14974606490E+03  0.14974606490E+03  0.00000000000E+00 0. -1.
         21   -1    0    0  501  503 -0.00000000000E+00 -0.00000000000E+00 -0.53612767374E+03  0.53612767374E+03  0.00000000000E+00 0.  1.
          6    1    1    2  501    0  0.16294003401E+03  0.93467701191E+02 -0.34345336550E+03  0.42758610843E+03  0.17200000000E+03 0.  1.
         -6    1    1    2    0  502 -0.16294003401E+03 -0.93467701191E+02 -0.42928243338E+02  0.25828763022E+03  0.17200000000E+03 0. -1.
<mgrwt>
<rscale>  2 0.25469524E+03</rscale>
<asrwt>0</asrwt>
<pdfrwt beam="1">  1       21 0.37436516E-01 0.25469524E+03</pdfrwt>
<pdfrwt beam="2">  1       21 0.13403192E+00 0.25469524E+03</pdfrwt>
<totfact> 0.26197048E+03</totfact>
</mgrwt>
</event>
<event>
 4    1  0.1110581E+000  0.2703334E+03  0.7546771E-02  0.1101089E+00
         21   -1    0    0  503  502  0.00000000000E+00  0.00000000000E+00  0.32726593274E+03  0.32726593274E+03  0.00000000000E+00 0.  1.
         21   -1    0    0  501  503 -0.00000000000E+00 -0.00000000000E+00 -0.65497023255E+03  0.65497023255E+03  0.00000000000E+00 0.  1.
          6    1    1    2  501    0 -0.90900206514E+02 -0.18770536003E+03 -0.56255434987E+03  0.62413744183E+03  0.17200000000E+03 0.  1.
         -6    1    1    2    0  502  0.90900206514E+02  0.18770536003E+03  0.23485005007E+03  0.35809872346E+03  0.17200000000E+03 0.  1.
<mgrwt>
<rscale>  2 0.27033340E+03</rscale>
<asrwt>0</asrwt>
<pdfrwt beam="1">  1       21 0.81816484E-01 0.27033340E+03</pdfrwt>
<pdfrwt beam="2">  1       21 0.16374256E+00 0.27033340E+03</pdfrwt>
<totfact> 0.28489943E+02</totfact>
</mgrwt>
</event>
<event>
 4    1  0.1110581E+000  0.1720066E+03  0.7546771E-02  0.1175771E+00
         21   -1    0    0  503  502  0.00000000000E+00  0.00000000000E+00  0.24869816260E+03  0.24869816260E+03  0.00000000000E+00 0.  1.
         21   -1    0    0  501  503 -0.00000000000E+00 -0.00000000000E+00 -0.35203401109E+03  0.35203401109E+03  0.00000000000E+00 0.  1.
          6    1    1    2  501    0  0.12323577511E+01 -0.86222781966E+00 -0.29606796911E+03  0.34240692819E+03  0.17200000000E+03 0.  1.
         -6    1    1    2    0  502 -0.12323577511E+01  0.86222781966E+00  0.19273212061E+03  0.25832524549E+03  0.17200000000E+03 0.  1.
<mgrwt>
<rscale>  2 0.17200658E+03</rscale>
<asrwt>0</asrwt>
<pdfrwt beam="1">  1       21 0.62174541E-01 0.17200658E+03</pdfrwt>
<pdfrwt beam="2">  1       21 0.88008502E-01 0.17200658E+03</pdfrwt>
<totfact> 0.27050335E+03</totfact>
</mgrwt>
</event>
<event>
 4    1  0.1110581E+000  0.2100648E+03  0.7546771E-02  0.1141515E+00
         21   -1    0    0  503  502  0.00000000000E+00  0.00000000000E+00  0.40452942555E+02  0.40452942555E+02  0.00000000000E+00 0. -1.
         21   -1    0    0  501  503 -0.00000000000E+00 -0.00000000000E+00 -0.12791900462E+04  0.12791900462E+04  0.00000000000E+00 0.  1.
          6    1    1    2  501    0  0.11902463838E+03 -0.19399363118E+02 -0.87256388513E+03  0.89749369550E+03  0.17200000000E+03 0.  1.
         -6    1    1    2    0  502 -0.11902463838E+03  0.19399363118E+02 -0.36617321847E+03  0.42214929321E+03  0.17200000000E+03 0. -1.
<mgrwt>
<rscale>  2 0.21006475E+03</rscale>
<asrwt>0</asrwt>
<pdfrwt beam="1">  1       21 0.10113235E-01 0.21006475E+03</pdfrwt>
<pdfrwt beam="2">  1       21 0.31979752E+00 0.21006475E+03</pdfrwt>
<totfact> 0.20422917E+03</totfact>
</mgrwt>
</event>
<event>
 4    1  0.1110581E+000  0.2087283E+03  0.7546771E-02  0.1142577E+00
         21   -1    0    0  503  502  0.00000000000E+00  0.00000000000E+00  0.85223897690E+02  0.85223897690E+02  0.00000000000E+00 0.  1.
         21   -1    0    0  501  503 -0.00000000000E+00 -0.00000000000E+00 -0.73619758378E+03  0.73619758378E+03  0.00000000000E+00 0.  1.
          6    1    1    2  501    0  0.74664688174E+02 -0.91698918764E+02 -0.55253390848E+03  0.59064475565E+03  0.17200000000E+03 0.  1.
         -6    1    1    2    0  502 -0.74664688174E+02  0.91698918764E+02 -0.98439777612E+02  0.23077672582E+03  0.17200000000E+03 0.  1.
<mgrwt>
<rscale>  2 0.20872831E+03</rscale>
<asrwt>0</asrwt>
<pdfrwt beam="1">  1       21 0.21305975E-01 0.20872831E+03</pdfrwt>
<pdfrwt beam="2">  1       21 0.18404939E+00 0.20872831E+03</pdfrwt>
<totfact> 0.34513437E+03</totfact>
</mgrwt>
</event>
<event>
 4    1  0.1110581E+000  0.2365797E+03  0.7546771E-02  0.1122092E+00
         21   -1    0    0  501  502  0.00000000000E+00  0.00000000000E+00  0.34038940507E+03  0.34038940507E+03  0.00000000000E+00 0.  1.
         21   -1    0    0  502  503 -0.00000000000E+00 -0.00000000000E+00 -0.31625947030E+03  0.31625947030E+03  0.00000000000E+00 0. -1.
          6    1    1    2  501    0  0.58552425501E+02 -0.15151760861E+03  0.23955405056E+03  0.33668399931E+03  0.17200000000E+03 0.  1.
         -6    1    1    2    0  503 -0.58552425501E+02  0.15151760861E+03 -0.21542411579E+03  0.31996487606E+03  0.17200000000E+03 0. -1.
<mgrwt>
<rscale>  2 0.23657974E+03</rscale>
<asrwt>0</asrwt>
<pdfrwt beam="1">  1       21 0.85097351E-01 0.23657974E+03</pdfrwt>
<pdfrwt beam="2">  1       21 0.79064868E-01 0.23657974E+03</pdfrwt>
<totfact> 0.16250662E+03</totfact>
</mgrwt>
</event>
<event>
 4    1  0.1110581E+000  0.2331166E+03  0.7546771E-02  0.1124465E+00
         21   -1    0    0  503  502  0.00000000000E+00  0.00000000000E+00  0.11584802861E+03  0.11584802861E+03  0.00000000000E+00 0.  1.
         21   -1    0    0  501  503 -0.00000000000E+00 -0.00000000000E+00 -0.71437966259E+03  0.71437966259E+03  0.00000000000E+00 0.  1.
          6    1    1    2  501    0  0.15251144959E+03  0.38724459831E+02 -0.54250916295E+03  0.59047397735E+03  0.17200000000E+03 0.  1.
         -6    1    1    2    0  502 -0.15251144959E+03 -0.38724459831E+02 -0.56022471028E+02  0.23975371385E+03  0.17200000000E+03 0.  1.
<mgrwt>
<rscale>  2 0.23311655E+03</rscale>
<asrwt>0</asrwt>
<pdfrwt beam="1">  1       21 0.28962008E-01 0.23311655E+03</pdfrwt>
<pdfrwt beam="2">  1       21 0.17859491E+00 0.23311655E+03</pdfrwt>
<totfact> 0.20444467E+03</totfact>
</mgrwt>
</event>
<event>
 4    1  0.1110581E+000  0.1771961E+03  0.7546771E-02  0.1170545E+00
         21   -1    0    0  503  502  0.00000000000E+00  0.00000000000E+00  0.69742206770E+02  0.69742206770E+02  0.00000000000E+00 0.  1.
         21   -1    0    0  501  503 -0.00000000000E+00 -0.00000000000E+00 -0.46882814424E+03  0.46882814424E+03  0.00000000000E+00 0.  1.
          6    1    1    2  501    0  0.30185835435E+02  0.30054542026E+02 -0.25320952090E+03  0.30905261952E+03  0.17200000000E+03 0.  1.
         -6    1    1    2    0  502 -0.30185835435E+02 -0.30054542026E+02 -0.14587641657E+03  0.22951773149E+03  0.17200000000E+03 0.  1.
<mgrwt>
<rscale>  2 0.17719611E+03</rscale>
<asrwt>0</asrwt>
<pdfrwt beam="1">  1       21 0.17435552E-01 0.17719611E+03</pdfrwt>
<pdfrwt beam="2">  1       21 0.11720703E+00 0.17719611E+03</pdfrwt>
<totfact> 0.16836306E+04</totfact>
</mgrwt>
</event>
<event>
 4    1  0.1110581E+000  0.3562144E+03  0.7546771E-02  0.1060093E+00
         21   -1    0    0  501  502  0.00000000000E+00  0.00000000000E+00  0.34569091185E+03  0.34569091185E+03  0.00000000000E+00 0.  1.
         21   -1    0    0  502  503 -0.00000000000E+00 -0.00000000000E+00 -0.55223691586E+03  0.55223691586E+03  0.00000000000E+00 0. -1.
          6    1    1    2  501    0 -0.25716717285E+03  0.17654946507E+03  0.15670961096E+03  0.38916136830E+03  0.17200000000E+03 0.  1.
         -6    1    1    2    0  503  0.25716717285E+03 -0.17654946507E+03 -0.36325561497E+03  0.50876645941E+03  0.17200000000E+03 0. -1.
<mgrwt>
<rscale>  2 0.35621436E+03</rscale>
<asrwt>0</asrwt>
<pdfrwt beam="1">  1       21 0.86422729E-01 0.35621436E+03</pdfrwt>
<pdfrwt beam="2">  1       21 0.13805923E+00 0.35621436E+03</pdfrwt>
<totfact> 0.37286667E+02</totfact>
</mgrwt>
</event>
<event>
 4    1  0.1110581E+000  0.2023441E+03  0.7546771E-02  0.1147776E+00
         21   -1    0    0  501  502  0.00000000000E+00  0.00000000000E+00  0.92092643821E+03  0.92092643821E+03  0.00000000000E+00 0. -1.
         21   -1    0    0  502  503 -0.00000000000E+00 -0.00000000000E+00 -0.65488489860E+02  0.65488489860E+02  0.00000000000E+00 0. -1.
          6    1    1    2  501    0 -0.60971398435E+02  0.87416266886E+02  0.70720846560E+03  0.73558611254E+03  0.17200000000E+03 0. -1.
         -6    1    1    2    0  503  0.60971398435E+02 -0.87416266886E+02  0.14822948274E+03  0.25082881553E+03  0.17200000000E+03 0. -1.
<mgrwt>
<rscale>  2 0.20234405E+03</rscale>
<asrwt>0</asrwt>
<pdfrwt beam="1">  1       21 0.23023157E+00 0.20234405E+03</pdfrwt>
<pdfrwt beam="2">  1       21 0.16372125E-01 0.20234405E+03</pdfrwt>
<totfact> 0.28848646E+03</totfact>
</mgrwt>
</event>
<event>
 4    1  0.1110581E+000  0.1739982E+03  0.7546771E-02  0.1173741E+00
         21   -1    0    0  501  502  0.00000000000E+00  0.00000000000E+00  0.24868973731E+03  0.24868973731E+03  0.00000000000E+00 0.  1.
         21   -1    0    0  502  503 -0.00000000000E+00 -0.00000000000E+00 -0.46574612288E+03  0.46574612288E+03  0.00000000000E+00 0.  1.
          6    1    1    2  501    0  0.21986287428E+02  0.14421688306E+02  0.19847435705E+03  0.26394592691E+03  0.17200000000E+03 0.  1.
         -6    1    1    2    0  503 -0.21986287428E+02 -0.14421688306E+02 -0.41553074262E+03  0.45048993328E+03  0.17200000000E+03 0.  1.
<mgrwt>
<rscale>  2 0.17399822E+03</rscale>
<asrwt>0</asrwt>
<pdfrwt beam="1">  1       21 0.62172435E-01 0.17399822E+03</pdfrwt>
<pdfrwt beam="2">  1       21 0.11643653E+00 0.17399822E+03</pdfrwt>
<totfact> 0.13911290E+03</totfact>
</mgrwt>
</event>
<event>
 4    1  0.1110581E+000  0.1963828E+03  0.7546771E-02  0.1152827E+00
         21   -1    0    0  503  502  0.00000000000E+00  0.00000000000E+00  0.84986881630E+03  0.84986881630E+03  0.00000000000E+00 0.  1.
         21   -1    0    0  501  503 -0.00000000000E+00 -0.00000000000E+00 -0.45649484878E+02  0.45649484878E+02  0.00000000000E+00 0.  1.
          6    1    1    2  501    0  0.87066848083E+02  0.37437558453E+02  0.43657549749E+03  0.47871115699E+03  0.17200000000E+03 0.  1.
         -6    1    1    2    0  502 -0.87066848083E+02 -0.37437558453E+02  0.36764383393E+03  0.41680714419E+03  0.17200000000E+03 0.  1.
<mgrwt>
<rscale>  2 0.19638281E+03</rscale>
<asrwt>0</asrwt>
<pdfrwt beam="1">  1       21 0.21246715E+00 0.19638281E+03</pdfrwt>
<pdfrwt beam="2">  1       21 0.11412374E-01 0.19638281E+03</pdfrwt>
<totfact> 0.71641121E+03</totfact>
</mgrwt>
</event>
<event>
 4    1  0.1110581E+000  0.1767758E+03  0.7546771E-02  0.1170960E+00
         21   -1    0    0  503  502  0.00000000000E+00  0.00000000000E+00  0.22885663583E+03  0.22885663583E+03  0.00000000000E+00 0.  1.
         21   -1    0    0  501  503 -0.00000000000E+00 -0.00000000000E+00 -0.19200860885E+03  0.19200860885E+03  0.00000000000E+00 0.  1.
          6    1    1    2  501    0 -0.31100100682E+02  0.26428636367E+02 -0.94672421093E+02  0.20053068692E+03  0.17200000000E+03 0.  1.
         -6    1    1    2    0  502  0.31100100682E+02 -0.26428636367E+02  0.13152044807E+03  0.22033455776E+03  0.17200000000E+03 0.  1.
<mgrwt>
<rscale>  2 0.17677582E+03</rscale>
<asrwt>0</asrwt>
<pdfrwt beam="1">  1       21 0.57214159E-01 0.17677582E+03</pdfrwt>
<pdfrwt beam="2">  1       21 0.48002152E-01 0.17677582E+03</pdfrwt>
<totfact> 0.12025098E+04</totfact>
</mgrwt>
</event>
<event>
 4    1  0.1110581E+000  0.3649912E+03  0.7546771E-02  0.1056625E+00
         21   -1    0    0  501  502  0.00000000000E+00  0.00000000000E+00  0.46126789751E+03  0.46126789751E+03  0.00000000000E+00 0.  1.
         21   -1    0    0  502  503 -0.00000000000E+00 -0.00000000000E+00 -0.40987946283E+03  0.40987946283E+03  0.00000000000E+00 0.  1.
          6    1    1    2  501    0  0.18620407328E+03  0.26260736336E+03  0.26242330536E+03  0.44953818013E+03  0.17200000000E+03 0.  1.
         -6    1    1    2    0  503 -0.18620407328E+03 -0.26260736336E+03 -0.21103487068E+03  0.42160918022E+03  0.17200000000E+03 0.  1.
<mgrwt>
<rscale>  2 0.36499121E+03</rscale>
<asrwt>0</asrwt>
<pdfrwt beam="1">  1       21 0.11531697E+00 0.36499121E+03</pdfrwt>
<pdfrwt beam="2">  1       21 0.10246987E+00 0.36499121E+03</pdfrwt>
<totfact> 0.39187937E+02</totfact>
</mgrwt>
</event>
<event>
 4    1  0.1110581E+000  0.1838024E+03  0.7546771E-02  0.1164173E+00
         21   -1    0    0  501  502  0.00000000000E+00  0.00000000000E+00  0.57796146379E+03  0.57796146379E+03  0.00000000000E+00 0.  1.
         21   -1    0    0  502  503 -0.00000000000E+00 -0.00000000000E+00 -0.18136920484E+03  0.18136920484E+03  0.00000000000E+00 0.  1.
          6    1    1    2  501    0  0.96757567881E+01 -0.64075637167E+02  0.51084978259E+03  0.54290957619E+03  0.17200000000E+03 0.  1.
         -6    1    1    2    0  503 -0.96757567881E+01  0.64075637167E+02 -0.11425752363E+03  0.21642109244E+03  0.17200000000E+03 0.  1.
<mgrwt>
<rscale>  2 0.18380236E+03</rscale>
<asrwt>0</asrwt>
<pdfrwt beam="1">  1       21 0.14449036E+00 0.18380236E+03</pdfrwt>
<pdfrwt beam="2">  1       21 0.45342303E-01 0.18380236E+03</pdfrwt>
<totfact> 0.15518237E+03</totfact>
</mgrwt>
</event>
<event>
 4    1  0.1110581E+000  0.1847636E+03  0.7546771E-02  0.1163271E+00
         21   -1    0    0  503  502  0.00000000000E+00  0.00000000000E+00  0.10285277665E+04  0.10285277665E+04  0.00000000000E+00 0.  1.
         21   -1    0    0  501  503 -0.00000000000E+00 -0.00000000000E+00 -0.66819657722E+02  0.66819657722E+02  0.00000000000E+00 0.  1.
          6    1    1    2  501    0 -0.66738968309E+02 -0.99751926250E+01  0.92322551059E+02  0.20654551022E+03  0.17200000000E+03 0.  1.
         -6    1    1    2    0  502  0.66738968309E+02  0.99751926250E+01  0.86938555773E+03  0.88880191401E+03  0.17200000000E+03 0.  1.
<mgrwt>
<rscale>  2 0.18476362E+03</rscale>
<asrwt>0</asrwt>
<pdfrwt beam="1">  1       21 0.25713189E+00 0.18476362E+03</pdfrwt>
<pdfrwt beam="2">  1       21 0.16704918E-01 0.18476362E+03</pdfrwt>
<totfact> 0.19640897E+03</totfact>
</mgrwt>
</event>
<event>
 4    1  0.1110581E+000  0.1964485E+03  0.7546771E-02  0.1152770E+00
         21   -1    0    0  503  502  0.00000000000E+00  0.00000000000E+00  0.86521681620E+03  0.86521681620E+03  0.00000000000E+00 0. -1.
         21   -1    0    0  501  503 -0.00000000000E+00 -0.00000000000E+00 -0.49598710858E+02  0.49598710858E+02  0.00000000000E+00 0.  1.
          6    1    1    2  501    0 -0.64754897165E+02  0.69389008497E+02  0.26265521547E+03  0.32799358747E+03  0.17200000000E+03 0.  1.
         -6    1    1    2    0  502  0.64754897165E+02 -0.69389008497E+02  0.55296288988E+03  0.58682193959E+03  0.17200000000E+03 0. -1.
<mgrwt>
<rscale>  2 0.19644855E+03</rscale>
<asrwt>0</asrwt>
<pdfrwt beam="1">  1       21 0.21630416E+00 0.19644855E+03</pdfrwt>
<pdfrwt beam="2">  1       21 0.12399680E-01 0.19644855E+03</pdfrwt>
<totfact> 0.58455610E+03</totfact>
</mgrwt>
</event>
<event>
 4    1  0.1110581E+000  0.2399549E+03  0.7546771E-02  0.1119823E+00
         21   -1    0    0  501  502  0.00000000000E+00  0.00000000000E+00  0.92777852237E+02  0.92777852237E+02  0.00000000000E+00 0. -1.
         21   -1    0    0  502  503 -0.00000000000E+00 -0.00000000000E+00 -0.92790639047E+03  0.92790639047E+03  0.00000000000E+00 0. -1.
          6    1    1    2  501    0  0.13975571338E+03 -0.91992980394E+02 -0.12387246208E+03  0.27004213509E+03  0.17200000000E+03 0. -1.
         -6    1    1    2    0  503 -0.13975571338E+03  0.91992980394E+02 -0.71125607615E+03  0.75064210761E+03  0.17200000000E+03 0. -1.
<mgrwt>
<rscale>  2 0.23995493E+03</rscale>
<asrwt>0</asrwt>
<pdfrwt beam="1">  1       21 0.23194463E-01 0.23995493E+03</pdfrwt>
<pdfrwt beam="2">  1       21 0.23197660E+00 0.23995493E+03</pdfrwt>
<totfact> 0.14146178E+03</totfact>
</mgrwt>
</event>
<event>
 4    1  0.1110581E+000  0.2953708E+03  0.7546771E-02  0.1087578E+00
         21   -1    0    0  503  502  0.00000000000E+00  0.00000000000E+00  0.10575417549E+04  0.10575417549E+04  0.00000000000E+00 0.  1.
         21   -1    0    0  501  503 -0.00000000000E+00 -0.00000000000E+00 -0.27138156412E+03  0.27138156412E+03  0.00000000000E+00 0. -1.
          6    1    1    2  501    0  0.10511866517E+03  0.21589343123E+03 -0.16126232636E+03  0.33652554928E+03  0.17200000000E+03 0. -1.
         -6    1    1    2    0  502 -0.10511866517E+03 -0.21589343123E+03  0.94742251714E+03  0.99239776975E+03  0.17200000000E+03 0.  1.
<mgrwt>
<rscale>  2 0.29537080E+03</rscale>
<asrwt>0</asrwt>
<pdfrwt beam="1">  1       21 0.26438543E+00 0.29537080E+03</pdfrwt>
<pdfrwt beam="2">  1       21 0.67845394E-01 0.29537080E+03</pdfrwt>
<totfact> 0.95655730E+01</totfact>
</mgrwt>
</event>
<event>
 4    1  0.1110581E+000  0.2770352E+03  0.7546771E-02  0.1097319E+00
         21   -1    0    0  501  502  0.00000000000E+00  0.00000000000E+00  0.34690753448E+03  0.34690753448E+03  0.00000000000E+00 0. -1.
         21   -1    0    0  502  503 -0.00000000000E+00 -0.00000000000E+00 -0.23494946639E+03  0.23494946639E+03  0.00000000000E+00 0.  1.
          6    1    1    2  501    0 -0.11751741329E+03  0.18263118905E+03 -0.14307155150E+02  0.27740437691E+03  0.17200000000E+03 0.  1.
         -6    1    1    2    0  503  0.11751741329E+03 -0.18263118905E+03  0.12626522324E+03  0.30445262396E+03  0.17200000000E+03 0. -1.
<mgrwt>
<rscale>  2 0.27703518E+03</rscale>
<asrwt>0</asrwt>
<pdfrwt beam="1">  1       21 0.86726883E-01 0.27703518E+03</pdfrwt>
<pdfrwt beam="2">  1       21 0.58737367E-01 0.27703518E+03</pdfrwt>
<totfact> 0.29192191E+03</totfact>
</mgrwt>
</event>
<event>
 4    1  0.1110581E+000  0.2762355E+03  0.7546771E-02  0.1097763E+00
         21   -1    0    0  501  502  0.00000000000E+00  0.00000000000E+00  0.29595638374E+03  0.29595638374E+03  0.00000000000E+00 0. -1.
         21   -1    0    0  502  503 -0.00000000000E+00 -0.00000000000E+00 -0.26663793113E+03  0.26663793113E+03  0.00000000000E+00 0.  1.
          6    1    1    2  501    0 -0.62221344014E+01 -0.21606325870E+03 -0.36470518754E+02  0.27863263530E+03  0.17200000000E+03 0.  1.
         -6    1    1    2    0  503  0.62221344014E+01  0.21606325870E+03  0.65788971366E+02  0.28396167958E+03  0.17200000000E+03 0. -1.
<mgrwt>
<rscale>  2 0.27623549E+03</rscale>
<asrwt>0</asrwt>
<pdfrwt beam="1">  1       21 0.73989096E-01 0.27623549E+03</pdfrwt>
<pdfrwt beam="2">  1       21 0.66659483E-01 0.27623549E+03</pdfrwt>
<totfact> 0.31847496E+03</totfact>
</mgrwt>
</event>
<event>
 4    1  0.1110581E+000  0.2192597E+03  0.7546771E-02  0.1134436E+00
         21   -1    0    0  503  502  0.00000000000E+00  0.00000000000E+00  0.77379070121E+03  0.77379070121E+03  0.00000000000E+00 0. -1.
         21   -1    0    0  501  503 -0.00000000000E+00 -0.00000000000E+00 -0.80052338906E+02  0.80052338906E+02  0.00000000000E+00 0. -1.
          6    1    1    2  501    0  0.43996669647E+02  0.12866674144E+03  0.54887811379E+03  0.59105162304E+03  0.17200000000E+03 0. -1.
         -6    1    1    2    0  502 -0.43996669647E+02 -0.12866674144E+03  0.14486024851E+03  0.26279141708E+03  0.17200000000E+03 0. -1.
<mgrwt>
<rscale>  2 0.21925975E+03</rscale>
<asrwt>0</asrwt>
<pdfrwt beam="1">  1       21 0.19344765E+00 0.21925975E+03</pdfrwt>
<pdfrwt beam="2">  1       21 0.20013087E-01 0.21925975E+03</pdfrwt>
<totfact> 0.33305119E+03</totfact>
</mgrwt>
</event>
<event>
 4    1  0.1110581E+000  0.2495049E+03  0.7546771E-02  0.1113618E+00
         21   -1    0    0  503  502  0.00000000000E+00  0.00000000000E+00  0.16648543107E+03  0.16648543107E+03  0.00000000000E+00 0.  1.
         21   -1    0    0  501  503 -0.00000000000E+00 -0.00000000000E+00 -0.63894372920E+03  0.63894372920E+03  0.00000000000E+00 0.  1.
          6    1    1    2  501    0 -0.16429040884E+03  0.75348300408E+02 -0.49559100344E+03  0.55485416778E+03  0.17200000000E+03 0.  1.
         -6    1    1    2    0  502  0.16429040884E+03 -0.75348300408E+02  0.23132705313E+02  0.25057499250E+03  0.17200000000E+03 0.  1.
<mgrwt>
<rscale>  2 0.24950492E+03</rscale>
<asrwt>0</asrwt>
<pdfrwt beam="1">  1       21 0.41621358E-01 0.24950492E+03</pdfrwt>
<pdfrwt beam="2">  1       21 0.15973593E+00 0.24950492E+03</pdfrwt>
<totfact> 0.13339847E+03</totfact>
</mgrwt>
</event>
<event>
 4    1  0.1110581E+000  0.2776436E+03  0.7546771E-02  0.1096983E+00
         21   -1    0    0  503  502  0.00000000000E+00  0.00000000000E+00  0.25425859372E+03  0.25425859372E+03  0.00000000000E+00 0. -1.
         21   -1    0    0  501  503 -0.00000000000E+00 -0.00000000000E+00 -0.43344773220E+03  0.43344773220E+03  0.00000000000E+00 0. -1.
          6    1    1    2  501    0 -0.10299839060E+03 -0.19207634273E+03 -0.27810003111E+03  0.39297024977E+03  0.17200000000E+03 0. -1.
         -6    1    1    2    0  502  0.10299839060E+03  0.19207634273E+03  0.98910892624E+02  0.29473607615E+03  0.17200000000E+03 0. -1.
<mgrwt>
<rscale>  2 0.27764364E+03</rscale>
<asrwt>0</asrwt>
<pdfrwt beam="1">  1       21 0.63564649E-01 0.27764364E+03</pdfrwt>
<pdfrwt beam="2">  1       21 0.10836193E+00 0.27764364E+03</pdfrwt>
<totfact> 0.14464414E+03</totfact>
</mgrwt>
</event>
<event>
 4    1  0.1110581E+000  0.1964425E+03  0.7546771E-02  0.1152776E+00
         21   -1    0    0  501  502  0.00000000000E+00  0.00000000000E+00  0.62727655376E+03  0.62727655376E+03  0.00000000000E+00 0. -1.
         21   -1    0    0  502  503 -0.00000000000E+00 -0.00000000000E+00 -0.84997054233E+02  0.84997054233E+02  0.00000000000E+00 0. -1.
          6    1    1    2  501    0  0.15399688364E+02  0.93640346721E+02  0.45831242685E+03  0.49863809075E+03  0.17200000000E+03 0. -1.
         -6    1    1    2    0  503 -0.15399688364E+02 -0.93640346721E+02  0.83967072674E+02  0.21363551725E+03  0.17200000000E+03 0. -1.
<mgrwt>
<rscale>  2 0.19644252E+03</rscale>
<asrwt>0</asrwt>
<pdfrwt beam="1">  1       21 0.15681913E+00 0.19644252E+03</pdfrwt>
<pdfrwt beam="2">  1       21 0.21249265E-01 0.19644252E+03</pdfrwt>
<totfact> 0.54568509E+03</totfact>
</mgrwt>
</event>
<event>
 4    1  0.1110581E+000  0.1744089E+03  0.7546771E-02  0.1173327E+00
         21   -1    0    0  501  502  0.00000000000E+00  0.00000000000E+00  0.76198660701E+03  0.76198660701E+03  0.00000000000E+00 0.  1.
         21   -1    0    0  502  503 -0.00000000000E+00 -0.00000000000E+00 -0.39922621544E+02  0.39922621544E+02  0.00000000000E+00 0.  1.
          6    1    1    2  501    0  0.18277269042E+02 -0.22369525324E+02  0.36432241731E+03  0.40391741480E+03  0.17200000000E+03 0. -1.
         -6    1    1    2    0  503 -0.18277269042E+02  0.22369525324E+02  0.35774156817E+03  0.39799181376E+03  0.17200000000E+03 0. -1.
<mgrwt>
<rscale>  2 0.17440887E+03</rscale>
<asrwt>0</asrwt>
<pdfrwt beam="1">  1       21 0.19049660E+00 0.17440887E+03</pdfrwt>
<pdfrwt beam="2">  1       21 0.99806579E-02 0.17440887E+03</pdfrwt>
<totfact> 0.12793958E+04</totfact>
</mgrwt>
</event>
<event>
 4    1  0.1110581E+000  0.2234965E+03  0.7546771E-02  0.1131303E+00
         21   -1    0    0  503  502  0.00000000000E+00  0.00000000000E+00  0.28634855753E+03  0.28634855753E+03  0.00000000000E+00 0.  1.
         21   -1    0    0  501  503 -0.00000000000E+00 -0.00000000000E+00 -0.17819965449E+03  0.17819965449E+03  0.00000000000E+00 0. -1.
          6    1    1    2  501    0 -0.28700209549E+02  0.13979622780E+03  0.20337000486E+02  0.22441987640E+03  0.17200000000E+03 0. -1.
         -6    1    1    2    0  502  0.28700209549E+02 -0.13979622780E+03  0.87811902560E+02  0.24012833562E+03  0.17200000000E+03 0.  1.
<mgrwt>
<rscale>  2 0.22349650E+03</rscale>
<asrwt>0</asrwt>
<pdfrwt beam="1">  1       21 0.71587139E-01 0.22349650E+03</pdfrwt>
<pdfrwt beam="2">  1       21 0.44549914E-01 0.22349650E+03</pdfrwt>
<totfact> 0.83517646E+03</totfact>
</mgrwt>
</event>
<event>
 4    1  0.1110581E+000  0.2631705E+03  0.7546771E-02  0.1105253E+00
         21   -1    0    0  503  502  0.00000000000E+00  0.00000000000E+00  0.18825798934E+03  0.18825798934E+03  0.00000000000E+00 0.  1.
         21   -1    0    0  501  503 -0.00000000000E+00 -0.00000000000E+00 -0.46671612724E+03  0.46671612724E+03  0.00000000000E+00 0. -1.
          6    1    1    2  501    0 -0.10234572425E+03 -0.17088020917E+03 -0.28992385992E+03  0.39155400357E+03  0.17200000000E+03 0. -1.
         -6    1    1    2    0  502  0.10234572425E+03  0.17088020917E+03  0.11465722024E+02  0.26342011301E+03  0.17200000000E+03 0.  1.
<mgrwt>
<rscale>  2 0.26317046E+03</rscale>
<asrwt>0</asrwt>
<pdfrwt beam="1">  1       21 0.47064498E-01 0.26317046E+03</pdfrwt>
<pdfrwt beam="2">  1       21 0.11667903E+00 0.26317046E+03</pdfrwt>
<totfact> 0.23129455E+03</totfact>
</mgrwt>
</event>
<event>
 4    1  0.1110581E+000  0.1837193E+03  0.7546771E-02  0.1164251E+00
         21   -1    0    0  503  502  0.00000000000E+00  0.00000000000E+00  0.14805868425E+03  0.14805868425E+03  0.00000000000E+00 0. -1.
         21   -1    0    0  501  503 -0.00000000000E+00 -0.00000000000E+00 -0.22833542206E+03  0.22833542206E+03  0.00000000000E+00 0. -1.
          6    1    1    2  501    0  0.60737520581E+02  0.21903120763E+02 -0.32599515279E+02  0.18658917842E+03  0.17200000000E+03 0. -1.
         -6    1    1    2    0  502 -0.60737520581E+02 -0.21903120763E+02 -0.47677222533E+02  0.18980492790E+03  0.17200000000E+03 0. -1.
<mgrwt>
<rscale>  2 0.18371933E+03</rscale>
<asrwt>0</asrwt>
<pdfrwt beam="1">  1       21 0.37014671E-01 0.18371933E+03</pdfrwt>
<pdfrwt beam="2">  1       21 0.57083855E-01 0.18371933E+03</pdfrwt>
<totfact> 0.20398223E+04</totfact>
</mgrwt>
</event>
<event>
 4    1  0.1110581E+000  0.1755815E+03  0.7546771E-02  0.1172149E+00
         21   -1    0    0  501  502  0.00000000000E+00  0.00000000000E+00  0.15117116019E+03  0.15117116019E+03  0.00000000000E+00 0. -1.
         21   -1    0    0  502  503 -0.00000000000E+00 -0.00000000000E+00 -0.20805670550E+03  0.20805670550E+03  0.00000000000E+00 0. -1.
          6    1    1    2  501    0  0.10649610256E+02 -0.33637050371E+02 -0.53727956236E+02  0.18361796927E+03  0.17200000000E+03 0. -1.
         -6    1    1    2    0  503 -0.10649610256E+02  0.33637050371E+02 -0.31575890735E+01  0.17560989643E+03  0.17200000000E+03 0. -1.
<mgrwt>
<rscale>  2 0.17558151E+03</rscale>
<asrwt>0</asrwt>
<pdfrwt beam="1">  1       21 0.37792790E-01 0.17558151E+03</pdfrwt>
<pdfrwt beam="2">  1       21 0.52014176E-01 0.17558151E+03</pdfrwt>
<totfact> 0.23923820E+04</totfact>
</mgrwt>
</event>
<event>
 4    1  0.1110581E+000  0.2181918E+03  0.7546771E-02  0.1135238E+00
         21   -1    0    0  503  502  0.00000000000E+00  0.00000000000E+00  0.14871519304E+03  0.14871519304E+03  0.00000000000E+00 0. -1.
         21   -1    0    0  501  503 -0.00000000000E+00 -0.00000000000E+00 -0.35182383569E+03  0.35182383569E+03  0.00000000000E+00 0.  1.
          6    1    1    2  501    0 -0.67986090265E+02 -0.11576515929E+03 -0.17667446489E+03  0.28075175355E+03  0.17200000000E+03 0. -1.
         -6    1    1    2    0  502  0.67986090265E+02  0.11576515929E+03 -0.26434177758E+02  0.21978727518E+03  0.17200000000E+03 0. -1.
<mgrwt>
<rscale>  2 0.21819184E+03</rscale>
<asrwt>0</asrwt>
<pdfrwt beam="1">  1       21 0.37178799E-01 0.21819184E+03</pdfrwt>
<pdfrwt beam="2">  1       21 0.87955958E-01 0.21819184E+03</pdfrwt>
<totfact> 0.75906033E+03</totfact>
</mgrwt>
</event>
<event>
 4    1  0.1110581E+000  0.2364828E+03  0.7546771E-02  0.1122158E+00
         21   -1    0    0  503  502  0.00000000000E+00  0.00000000000E+00  0.11275811645E+03  0.11275811645E+03  0.00000000000E+00 0.  1.
         21   -1    0    0  501  503 -0.00000000000E+00 -0.00000000000E+00 -0.78560557224E+03  0.78560557224E+03  0.00000000000E+00 0. -1.
          6    1    1    2  501    0  0.13490334634E+03  0.90228590940E+02 -0.60916408224E+03  0.65345618872E+03  0.17200000000E+03 0. -1.
         -6    1    1    2    0  502 -0.13490334634E+03 -0.90228590940E+02 -0.63683373541E+02  0.24490749997E+03  0.17200000000E+03 0.  1.
<mgrwt>
<rscale>  2 0.23648279E+03</rscale>
<asrwt>0</asrwt>
<pdfrwt beam="1">  1       21 0.28189530E-01 0.23648279E+03</pdfrwt>
<pdfrwt beam="2">  1       21 0.19640139E+00 0.23648279E+03</pdfrwt>
<totfact> 0.16321169E+03</totfact>
</mgrwt>
</event>
<event>
 4    1  0.1110581E+000  0.2004539E+03  0.7546771E-02  0.1149357E+00
         21   -1    0    0  503  502  0.00000000000E+00  0.00000000000E+00  0.88898853975E+02  0.88898853975E+02  0.00000000000E+00 0. -1.
         21   -1    0    0  501  503 -0.00000000000E+00 -0.00000000000E+00 -0.45212257346E+03  0.45212257346E+03  0.00000000000E+00 0. -1.
          6    1    1    2  501    0 -0.72369804653E+02  0.73214642631E+02 -0.18616884026E+03  0.27357011826E+03  0.17200000000E+03 0. -1.
         -6    1    1    2    0  502  0.72369804653E+02 -0.73214642631E+02 -0.17705487922E+03  0.26745130917E+03  0.17200000000E+03 0. -1.
<mgrwt>
<rscale>  2 0.20045392E+03</rscale>
<asrwt>0</asrwt>
<pdfrwt beam="1">  1       21 0.22224714E-01 0.20045392E+03</pdfrwt>
<pdfrwt beam="2">  1       21 0.11303064E+00 0.20045392E+03</pdfrwt>
<totfact> 0.11515602E+04</totfact>
</mgrwt>
</event>
<event>
 4    1  0.1110581E+000  0.2492952E+03  0.7546771E-02  0.1113751E+00
         21   -1    0    0  503  502  0.00000000000E+00  0.00000000000E+00  0.89551996751E+02  0.89551996751E+02  0.00000000000E+00 0.  1.
         21   -1    0    0  501  503 -0.00000000000E+00 -0.00000000000E+00 -0.97027847549E+03  0.97027847549E+03  0.00000000000E+00 0.  1.
          6    1    1    2  501    0  0.71391315301E+02 -0.16573283564E+03 -0.72313787328E+03  0.76490291965E+03  0.17200000000E+03 0.  1.
         -6    1    1    2    0  502 -0.71391315301E+02  0.16573283564E+03 -0.15758860545E+03  0.29492755259E+03  0.17200000000E+03 0.  1.
<mgrwt>
<rscale>  2 0.24929519E+03</rscale>
<asrwt>0</asrwt>
<pdfrwt beam="1">  1       21 0.22387999E-01 0.24929519E+03</pdfrwt>
<pdfrwt beam="2">  1       21 0.24256962E+00 0.24929519E+03</pdfrwt>
<totfact> 0.12944918E+03</totfact>
</mgrwt>
</event>
<event>
 4    1  0.1110581E+000  0.1963047E+03  0.7546771E-02  0.1152895E+00
         21   -1    0    0  503  502  0.00000000000E+00  0.00000000000E+00  0.97343568104E+02  0.97343568104E+02  0.00000000000E+00 0.  1.
         21   -1    0    0  501  503 -0.00000000000E+00 -0.00000000000E+00 -0.39587166762E+03  0.39587166762E+03  0.00000000000E+00 0. -1.
          6    1    1    2  501    0 -0.92135322773E+02  0.21508293680E+02 -0.14902490781E+03  0.24646287255E+03  0.17200000000E+03 0. -1.
         -6    1    1    2    0  502  0.92135322773E+02 -0.21508293680E+02 -0.14950319171E+03  0.24675236317E+03  0.17200000000E+03 0. -1.
<mgrwt>
<rscale>  2 0.19630467E+03</rscale>
<asrwt>0</asrwt>
<pdfrwt beam="1">  1       21 0.24335892E-01 0.19630467E+03</pdfrwt>
<pdfrwt beam="2">  1       21 0.98967916E-01 0.19630467E+03</pdfrwt>
<totfact> 0.13382575E+04</totfact>
</mgrwt>
</event>
<event>
 4    1  0.1110581E+000  0.1775580E+03  0.7546771E-02  0.1170188E+00
         21   -1    0    0  503  502  0.00000000000E+00  0.00000000000E+00  0.13272787332E+04  0.13272787332E+04  0.00000000000E+00 0.  1.
         21   -1    0    0  501  503 -0.00000000000E+00 -0.00000000000E+00 -0.88079020820E+02  0.88079020820E+02  0.00000000000E+00 0.  1.
          6    1    1    2  501    0 -0.12969997305E+02  0.42126277717E+02  0.14825515289E+02  0.17817586820E+03  0.17200000000E+03 0.  1.
         -6    1    1    2    0  502  0.12969997305E+02 -0.42126277717E+02  0.12243741970E+04  0.12371818858E+04  0.17200000000E+03 0.  1.
<mgrwt>
<rscale>  2 0.17755800E+03</rscale>
<asrwt>0</asrwt>
<pdfrwt beam="1">  1       21 0.33181962E+00 0.17755800E+03</pdfrwt>
<pdfrwt beam="2">  1       21 0.22019759E-01 0.17755800E+03</pdfrwt>
<totfact> 0.44119712E+02</totfact>
</mgrwt>
</event>
<event>
 4    1  0.1110581E+000  0.2497548E+03  0.7546771E-02  0.1113460E+00
         21   -1    0    0  503  502  0.00000000000E+00  0.00000000000E+00  0.27166952468E+03  0.27166952468E+03  0.00000000000E+00 0.  1.
         21   -1    0    0  501  503 -0.00000000000E+00 -0.00000000000E+00 -0.24606896986E+03  0.24606896986E+03  0.00000000000E+00 0. -1.
          6    1    1    2  501    0 -0.18093582279E+03 -0.74623763223E+01  0.79755051842E+02  0.26217995217E+03  0.17200000000E+03 0.  1.
         -6    1    1    2    0  502  0.18093582279E+03  0.74623763223E+01 -0.54154497019E+02  0.25555854236E+03  0.17200000000E+03 0.  1.
<mgrwt>
<rscale>  2 0.24975480E+03</rscale>
<asrwt>0</asrwt>
<pdfrwt beam="1">  1       21 0.67917381E-01 0.24975480E+03</pdfrwt>
<pdfrwt beam="2">  1       21 0.61517243E-01 0.24975480E+03</pdfrwt>
<totfact> 0.46692512E+03</totfact>
</mgrwt>
</event>
<event>
 4    1  0.1110581E+000  0.1761183E+03  0.7546771E-02  0.1171614E+00
         21   -1    0    0  501  502  0.00000000000E+00  0.00000000000E+00  0.20188702510E+03  0.20188702510E+03  0.00000000000E+00 0.  1.
         21   -1    0    0  502  503 -0.00000000000E+00 -0.00000000000E+00 -0.16123276737E+03  0.16123276737E+03  0.00000000000E+00 0.  1.
          6    1    1    2  501    0 -0.31136220401E+02 -0.21544836254E+02 -0.19076184774E+02  0.17714837006E+03  0.17200000000E+03 0.  1.
         -6    1    1    2    0  503  0.31136220401E+02  0.21544836254E+02  0.59730442502E+02  0.18597142241E+03  0.17200000000E+03 0.  1.
<mgrwt>
<rscale>  2 0.17611827E+03</rscale>
<asrwt>0</asrwt>
<pdfrwt beam="1">  1       21 0.50471756E-01 0.17611827E+03</pdfrwt>
<pdfrwt beam="2">  1       21 0.40308192E-01 0.17611827E+03</pdfrwt>
<totfact> 0.22375908E+04</totfact>
</mgrwt>
</event>
<event>
 4    1  0.1110581E+000  0.2172157E+03  0.7546771E-02  0.1135976E+00
         21   -1    0    0  501  502  0.00000000000E+00  0.00000000000E+00  0.21621501574E+03  0.21621501574E+03  0.00000000000E+00 0.  1.
         21   -1    0    0  502  503 -0.00000000000E+00 -0.00000000000E+00 -0.22826064837E+03  0.22826064837E+03  0.00000000000E+00 0. -1.
          6    1    1    2  501    0  0.11596425412E+03 -0.64427806020E+02  0.40585388186E+02  0.22097471384E+03  0.17200000000E+03 0.  1.
         -6    1    1    2    0  503 -0.11596425412E+03  0.64427806020E+02 -0.52631020820E+02  0.22350095027E+03  0.17200000000E+03 0. -1.
<mgrwt>
<rscale>  2 0.21721568E+03</rscale>
<asrwt>0</asrwt>
<pdfrwt beam="1">  1       21 0.54053754E-01 0.21721568E+03</pdfrwt>
<pdfrwt beam="2">  1       21 0.57065162E-01 0.21721568E+03</pdfrwt>
<totfact> 0.91786344E+03</totfact>
</mgrwt>
</event>
<event>
 4    1  0.1110581E+000  0.2221457E+03  0.7546771E-02  0.1132293E+00
         21   -1    0    0  503  502  0.00000000000E+00  0.00000000000E+00  0.46655830446E+03  0.46655830446E+03  0.00000000000E+00 0.  1.
         21   -1    0    0  501  503 -0.00000000000E+00 -0.00000000000E+00 -0.10858132104E+03  0.10858132104E+03  0.00000000000E+00 0. -1.
          6    1    1    2  501    0 -0.12945068617E+03 -0.54838164819E+02  0.22524608895E+03  0.31636135203E+03  0.17200000000E+03 0.  1.
         -6    1    1    2    0  502  0.12945068617E+03  0.54838164819E+02  0.13273089447E+03  0.25877827347E+03  0.17200000000E+03 0. -1.
<mgrwt>
<rscale>  2 0.22214568E+03</rscale>
<asrwt>0</asrwt>
<pdfrwt beam="1">  1       21 0.11663957E+00 0.22214568E+03</pdfrwt>
<pdfrwt beam="2">  1       21 0.27145331E-01 0.22214568E+03</pdfrwt>
<totfact> 0.71695431E+03</totfact>
</mgrwt>
</event>
<event>
 4    1  0.1110581E+000  0.3334222E+03  0.7546771E-02  0.1069633E+00
         21   -1    0    0  501  502  0.00000000000E+00  0.00000000000E+00  0.14097658608E+04  0.14097658608E+04  0.00000000000E+00 0.  1.
         21   -1    0    0  502  503 -0.00000000000E+00 -0.00000000000E+00 -0.80374918525E+02  0.80374918525E+02  0.00000000000E+00 0. -1.
          6    1    1    2  501    0  0.26623755351E+03  0.10345972540E+03  0.76707574429E+03  0.83640632898E+03  0.17200000000E+03 0. -1.
         -6    1    1    2    0  503 -0.26623755351E+03 -0.10345972540E+03  0.56231519797E+03  0.65373445033E+03  0.17200000000E+03 0. -1.
<mgrwt>
<rscale>  2 0.33342218E+03</rscale>
<asrwt>0</asrwt>
<pdfrwt beam="1">  1       21 0.35244139E+00 0.33342218E+03</pdfrwt>
<pdfrwt beam="2">  1       21 0.20093734E-01 0.33342218E+03</pdfrwt>
<totfact> 0.32786969E+02</totfact>
</mgrwt>
</event>
<event>
 4    1  0.1110581E+000  0.2767985E+03  0.7546771E-02  0.1097450E+00
         21   -1    0    0  501  502  0.00000000000E+00  0.00000000000E+00  0.84908474855E+03  0.84908474855E+03  0.00000000000E+00 0.  1.
         21   -1    0    0  502  503 -0.00000000000E+00 -0.00000000000E+00 -0.16473579904E+03  0.16473579904E+03  0.00000000000E+00 0. -1.
          6    1    1    2  501    0  0.20631223423E+03 -0.66848247199E+02  0.68306635714E+03  0.73701904616E+03  0.17200000000E+03 0.  1.
         -6    1    1    2    0  503 -0.20631223423E+03  0.66848247199E+02  0.12825923640E+01  0.27680150143E+03  0.17200000000E+03 0. -1.
<mgrwt>
<rscale>  2 0.27679853E+03</rscale>
<asrwt>0</asrwt>
<pdfrwt beam="1">  1       21 0.21227118E+00 0.27679853E+03</pdfrwt>
<pdfrwt beam="2">  1       21 0.41183952E-01 0.27679853E+03</pdfrwt>
<totfact> 0.58525612E+02</totfact>
</mgrwt>
</event>
<event>
 4    1  0.1110581E+000  0.1986363E+03  0.7546771E-02  0.1150895E+00
         21   -1    0    0  503  502  0.00000000000E+00  0.00000000000E+00  0.13518701887E+04  0.13518701887E+04  0.00000000000E+00 0. -1.
         21   -1    0    0  501  503 -0.00000000000E+00 -0.00000000000E+00 -0.55569088556E+02  0.55569088556E+02  0.00000000000E+00 0.  1.
          6    1    1    2  501    0  0.98796427343E+02 -0.10565713088E+02  0.16326227668E+03  0.25712047631E+03  0.17200000000E+03 0.  1.
         -6    1    1    2    0  502 -0.98796427343E+02  0.10565713088E+02  0.11330388235E+04  0.11503188010E+04  0.17200000000E+03 0. -1.
<mgrwt>
<rscale>  2 0.19863627E+03</rscale>
<asrwt>0</asrwt>
<pdfrwt beam="1">  1       21 0.33796744E+00 0.19863627E+03</pdfrwt>
<pdfrwt beam="2">  1       21 0.13892277E-01 0.19863627E+03</pdfrwt>
<totfact> 0.91995615E+02</totfact>
</mgrwt>
</event>
<event>
 4    1  0.1110581E+000  0.2359840E+03  0.7546771E-02  0.1122497E+00
         21   -1    0    0  501  502  0.00000000000E+00  0.00000000000E+00  0.16732965994E+03  0.16732965994E+03  0.00000000000E+00 0.  1.
         21   -1    0    0  502  503 -0.00000000000E+00 -0.00000000000E+00 -0.46179353378E+03  0.46179353378E+03  0.00000000000E+00 0. -1.
          6    1    1    2  501    0 -0.14275557535E+03 -0.75665700479E+02  0.19015233099E+02  0.23674887880E+03  0.17200000000E+03 0.  1.
         -6    1    1    2    0  503  0.14275557535E+03  0.75665700479E+02 -0.31347910694E+03  0.39237431492E+03  0.17200000000E+03 0. -1.
<mgrwt>
<rscale>  2 0.23598401E+03</rscale>
<asrwt>0</asrwt>
<pdfrwt beam="1">  1       21 0.41832415E-01 0.23598401E+03</pdfrwt>
<pdfrwt beam="2">  1       21 0.11544838E+00 0.23598401E+03</pdfrwt>
<totfact> 0.30851477E+03</totfact>
</mgrwt>
</event>
<event>
 4    1  0.1110581E+000  0.2158062E+03  0.7546771E-02  0.1137049E+00
         21   -1    0    0  503  502  0.00000000000E+00  0.00000000000E+00  0.10656236811E+03  0.10656236811E+03  0.00000000000E+00 0. -1.
         21   -1    0    0  501  503 -0.00000000000E+00 -0.00000000000E+00 -0.68628049409E+03  0.68628049409E+03  0.00000000000E+00 0. -1.
          6    1    1    2  501    0  0.81767074703E+02 -0.10150106781E+03 -0.52875739328E+03  0.57110130644E+03  0.17200000000E+03 0. -1.
         -6    1    1    2    0  502 -0.81767074703E+02  0.10150106781E+03 -0.50960732702E+02  0.22174155576E+03  0.17200000000E+03 0. -1.
<mgrwt>
<rscale>  2 0.21580621E+03</rscale>
<asrwt>0</asrwt>
<pdfrwt beam="1">  1       21 0.26640592E-01 0.21580621E+03</pdfrwt>
<pdfrwt beam="2">  1       21 0.17157012E+00 0.21580621E+03</pdfrwt>
<totfact> 0.27312661E+03</totfact>
</mgrwt>
</event>
<event>
 4    1  0.1110581E+000  0.1881976E+03  0.7546771E-02  0.1160097E+00
         21   -1    0    0  503  502  0.00000000000E+00  0.00000000000E+00  0.18708297234E+03  0.18708297234E+03  0.00000000000E+00 0. -1.
         21   -1    0    0  501  503 -0.00000000000E+00 -0.00000000000E+00 -0.33828662229E+03  0.33828662229E+03  0.00000000000E+00 0. -1.
          6    1    1    2  501    0 -0.22110659102E+02  0.73112597922E+02 -0.24991840167E+03  0.31285386479E+03  0.17200000000E+03 0. -1.
         -6    1    1    2    0  502  0.22110659102E+02 -0.73112597922E+02  0.98714751725E+02  0.21251572984E+03  0.17200000000E+03 0. -1.
<mgrwt>
<rscale>  2 0.18819759E+03</rscale>
<asrwt>0</asrwt>
<pdfrwt beam="1">  1       21 0.46770743E-01 0.18819759E+03</pdfrwt>
<pdfrwt beam="2">  1       21 0.84571655E-01 0.18819759E+03</pdfrwt>
<totfact> 0.53237186E+03</totfact>
</mgrwt>
</event>
<event>
 4    1  0.1110581E+000  0.1924460E+03  0.7546771E-02  0.1156274E+00
         21   -1    0    0  503  502  0.00000000000E+00  0.00000000000E+00  0.36108282978E+03  0.36108282978E+03  0.00000000000E+00 0. -1.
         21   -1    0    0  501  503 -0.00000000000E+00 -0.00000000000E+00 -0.15324467393E+03  0.15324467393E+03  0.00000000000E+00 0.  1.
          6    1    1    2  501    0 -0.49403444636E+02 -0.70786807499E+02 -0.43965183025E+02  0.19740417872E+03  0.17200000000E+03 0.  1.
         -6    1    1    2    0  502  0.49403444636E+02  0.70786807499E+02  0.25180333887E+03  0.31692332499E+03  0.17200000000E+03 0. -1.
<mgrwt>
<rscale>  2 0.19244602E+03</rscale>
<asrwt>0</asrwt>
<pdfrwt beam="1">  1       21 0.90270706E-01 0.19244602E+03</pdfrwt>
<pdfrwt beam="2">  1       21 0.38311169E-01 0.19244602E+03</pdfrwt>
<totfact> 0.68561782E+03</totfact>
</mgrwt>
</event>
<event>
 4    1  0.1110581E+000  0.2204174E+03  0.7546771E-02  0.1133572E+00
         21   -1    0    0  503  502  0.00000000000E+00  0.00000000000E+00  0.10008377431E+03  0.10008377431E+03  0.00000000000E+00 0.  1.
         21   -1    0    0  501  503 -0.00000000000E+00 -0.00000000000E+00 -0.55031834756E+03  0.55031834756E+03  0.00000000000E+00 0.  1.
          6    1    1    2  501    0  0.70802750055E+02  0.11826577001E+03 -0.33678384347E+03  0.40250115403E+03  0.17200000000E+03 0.  1.
         -6    1    1    2    0  502 -0.70802750055E+02 -0.11826577001E+03 -0.11345072978E+03  0.24790096784E+03  0.17200000000E+03 0.  1.
<mgrwt>
<rscale>  2 0.22041738E+03</rscale>
<asrwt>0</asrwt>
<pdfrwt beam="1">  1       21 0.25020944E-01 0.22041738E+03</pdfrwt>
<pdfrwt beam="2">  1       21 0.13757958E+00 0.22041738E+03</pdfrwt>
<totfact> 0.55384542E+03</totfact>
</mgrwt>
</event>
<event>
 4    1  0.1110581E+000  0.2333652E+03  0.7546771E-02  0.1124293E+00
         21   -1    0    0  503  502  0.00000000000E+00  0.00000000000E+00  0.14032637923E+04  0.14032637923E+04  0.00000000000E+00 0.  1.
         21   -1    0    0  501  503 -0.00000000000E+00 -0.00000000000E+00 -0.66934114685E+02  0.66934114685E+02  0.00000000000E+00 0.  1.
          6    1    1    2  501    0 -0.15737779212E+03  0.10371404427E+02  0.11446713104E+04  0.11682173361E+04  0.17200000000E+03 0.  1.
         -6    1    1    2    0  502  0.15737779212E+03 -0.10371404427E+02  0.19165836724E+03  0.30198057092E+03  0.17200000000E+03 0.  1.
<mgrwt>
<rscale>  2 0.23336524E+03</rscale>
<asrwt>0</asrwt>
<pdfrwt beam="1">  1       21 0.35081585E+00 0.23336524E+03</pdfrwt>
<pdfrwt beam="2">  1       21 0.16733533E-01 0.23336524E+03</pdfrwt>
<totfact> 0.52437147E+02</totfact>
</mgrwt>
</event>
<event>
 4    1  0.1110581E+000  0.2044575E+03  0.7546771E-02  0.1146032E+00
         21   -1    0    0  501  502  0.00000000000E+00  0.00000000000E+00  0.66861042095E+03  0.66861042095E+03  0.00000000000E+00 0. -1.
         21   -1    0    0  502  503 -0.00000000000E+00 -0.00000000000E+00 -0.65260723656E+02  0.65260723656E+02  0.00000000000E+00 0. -1.
          6    1    1    2  501    0  0.96454044181E+02 -0.53995417721E+02  0.37684315656E+03  0.42873494425E+03  0.17200000000E+03 0.  1.
         -6    1    1    2    0  503 -0.96454044181E+02  0.53995417721E+02  0.22650654074E+03  0.30513620036E+03  0.17200000000E+03 0.  1.
<mgrwt>
<rscale>  2 0.20445755E+03</rscale>
<asrwt>0</asrwt>
<pdfrwt beam="1">  1       21 0.16715258E+00 0.20445755E+03</pdfrwt>
<pdfrwt beam="2">  1       21 0.16315183E-01 0.20445755E+03</pdfrwt>
<totfact> 0.74477173E+03</totfact>
</mgrwt>
</event>
<event>
 4    1  0.1110581E+000  0.1745659E+03  0.7546771E-02  0.1173168E+00
         21   -1    0    0  503  502  0.00000000000E+00  0.00000000000E+00  0.64071027216E+02  0.64071027216E+02  0.00000000000E+00 0.  1.
         21   -1    0    0  501  503 -0.00000000000E+00 -0.00000000000E+00 -0.48285229383E+03  0.48285229383E+03  0.00000000000E+00 0.  1.
          6    1    1    2  501    0  0.10167385502E+02 -0.28033639444E+02 -0.24286571442E+03  0.29909365742E+03  0.17200000000E+03 0.  1.
         -6    1    1    2    0  502 -0.10167385502E+02  0.28033639444E+02 -0.17591555219E+03  0.24782966362E+03  0.17200000000E+03 0.  1.
<mgrwt>
<rscale>  2 0.17456592E+03</rscale>
<asrwt>0</asrwt>
<pdfrwt beam="1">  1       21 0.16017757E-01 0.17456592E+03</pdfrwt>
<pdfrwt beam="2">  1       21 0.12071307E+00 0.17456592E+03</pdfrwt>
<totfact> 0.18325117E+04</totfact>
</mgrwt>
</event>
<event>
 4    1  0.1110581E+000  0.1779279E+03  0.7546771E-02  0.1169824E+00
         21   -1    0    0  503  502  0.00000000000E+00  0.00000000000E+00  0.47751756193E+03  0.47751756193E+03  0.00000000000E+00 0. -1.
         21   -1    0    0  501  503 -0.00000000000E+00 -0.00000000000E+00 -0.88920268700E+02  0.88920268700E+02  0.00000000000E+00 0. -1.
          6    1    1    2  501    0  0.32014497834E+02 -0.32394655484E+02  0.51444676991E+02  0.18521581079E+03  0.17200000000E+03 0. -1.
         -6    1    1    2    0  502 -0.32014497834E+02  0.32394655484E+02  0.33715261624E+03  0.38122201984E+03  0.17200000000E+03 0. -1.
<mgrwt>
<rscale>  2 0.17792791E+03</rscale>
<asrwt>0</asrwt>
<pdfrwt beam="1">  1       21 0.11937938E+00 0.17792791E+03</pdfrwt>
<pdfrwt beam="2">  1       21 0.22230068E-01 0.17792791E+03</pdfrwt>
<totfact> 0.10234547E+04</totfact>
</mgrwt>
</event>
<event>
 4    1  0.1110581E+000  0.1743596E+03  0.7546771E-02  0.1173376E+00
         21   -1    0    0  503  502  0.00000000000E+00  0.00000000000E+00  0.34901752133E+03  0.34901752133E+03  0.00000000000E+00 0. -1.
         21   -1    0    0  501  503 -0.00000000000E+00 -0.00000000000E+00 -0.16224474420E+03  0.16224474420E+03  0.00000000000E+00 0. -1.
          6    1    1    2  501    0  0.15875337239E+02  0.23775191447E+02 -0.80578791533E+02  0.19207870185E+03  0.17200000000E+03 0. -1.
         -6    1    1    2    0  502 -0.15875337239E+02 -0.23775191447E+02  0.26735156866E+03  0.31918356368E+03  0.17200000000E+03 0. -1.
<mgrwt>
<rscale>  2 0.17435965E+03</rscale>
<asrwt>0</asrwt>
<pdfrwt beam="1">  1       21 0.87254379E-01 0.17435965E+03</pdfrwt>
<pdfrwt beam="2">  1       21 0.40561187E-01 0.17435965E+03</pdfrwt>
<totfact> 0.67017414E+03</totfact>
</mgrwt>
</event>
<event>
 4    1  0.1110581E+000  0.2081263E+03  0.7546771E-02  0.1143058E+00
         21   -1    0    0  501  502  0.00000000000E+00  0.00000000000E+00  0.32931502480E+03  0.32931502480E+03  0.00000000000E+00 0.  1.
         21   -1    0    0  502  503 -0.00000000000E+00 -0.00000000000E+00 -0.39917836536E+03  0.39917836536E+03  0.00000000000E+00 0.  1.
          6    1    1    2  501    0  0.39357843718E+02  0.11037888871E+03  0.26332498866E+03  0.33564354394E+03  0.17200000000E+03 0.  1.
         -6    1    1    2    0  503 -0.39357843718E+02 -0.11037888871E+03 -0.33318832923E+03  0.39284984621E+03  0.17200000000E+03 0.  1.
<mgrwt>
<rscale>  2 0.20812626E+03</rscale>
<asrwt>0</asrwt>
<pdfrwt beam="1">  1       21 0.82328757E-01 0.20812626E+03</pdfrwt>
<pdfrwt beam="2">  1       21 0.99794591E-01 0.20812626E+03</pdfrwt>
<totfact> 0.10471654E+03</totfact>
</mgrwt>
</event>
<event>
 4    1  0.1110581E+000  0.2039892E+03  0.7546771E-02  0.1146416E+00
         21   -1    0    0  501  502  0.00000000000E+00  0.00000000000E+00  0.34814020294E+03  0.34814020294E+03  0.00000000000E+00 0.  1.
         21   -1    0    0  502  503 -0.00000000000E+00 -0.00000000000E+00 -0.19011016092E+03  0.19011016092E+03  0.00000000000E+00 0. -1.
          6    1    1    2  501    0  0.33554615439E+02 -0.10441102705E+03  0.24300123608E+03  0.31727145400E+03  0.17200000000E+03 0.  1.
         -6    1    1    2    0  503 -0.33554615439E+02  0.10441102705E+03 -0.84971194052E+02  0.22097890987E+03  0.17200000000E+03 0. -1.
<mgrwt>
<rscale>  2 0.20398915E+03</rscale>
<asrwt>0</asrwt>
<pdfrwt beam="1">  1       21 0.87035050E-01 0.20398915E+03</pdfrwt>
<pdfrwt beam="2">  1       21 0.47527541E-01 0.20398915E+03</pdfrwt>
<totfact> 0.47625004E+03</totfact>
</mgrwt>
</event>
<event>
 4    1  0.1110581E+000  0.2217243E+03  0.7546771E-02  0.1132604E+00
         21   -1    0    0  501  502  0.00000000000E+00  0.00000000000E+00  0.34965800751E+03  0.34965800751E+03  0.00000000000E+00 0. -1.
         21   -1    0    0  502  503 -0.00000000000E+00 -0.00000000000E+00 -0.14393525676E+03  0.14393525676E+03  0.00000000000E+00 0. -1.
          6    1    1    2  501    0  0.21032111020E+02  0.13833047528E+03  0.14043352385E+03  0.26245617673E+03  0.17200000000E+03 0. -1.
         -6    1    1    2    0  503 -0.21032111020E+02 -0.13833047528E+03  0.65289226897E+02  0.23113708754E+03  0.17200000000E+03 0. -1.
<mgrwt>
<rscale>  2 0.22172431E+03</rscale>
<asrwt>0</asrwt>
<pdfrwt beam="1">  1       21 0.87414500E-01 0.22172431E+03</pdfrwt>
<pdfrwt beam="2">  1       21 0.35983815E-01 0.22172431E+03</pdfrwt>
<totfact> 0.82008932E+03</totfact>
</mgrwt>
</event>
<event>
 4    1  0.1110581E+000  0.2481345E+03  0.7546771E-02  0.1114489E+00
         21   -1    0    0  501  502  0.00000000000E+00  0.00000000000E+00  0.58574979159E+03  0.58574979159E+03  0.00000000000E+00 0. -1.
         21   -1    0    0  502  503 -0.00000000000E+00 -0.00000000000E+00 -0.11159338936E+03  0.11159338936E+03  0.00000000000E+00 0. -1.
          6    1    1    2  501    0  0.11461123492E+03  0.13729889383E+03  0.32109224803E+03  0.40579668944E+03  0.17200000000E+03 0. -1.
         -6    1    1    2    0  503 -0.11461123492E+03 -0.13729889383E+03  0.15306415420E+03  0.29154649152E+03  0.17200000000E+03 0. -1.
<mgrwt>
<rscale>  2 0.24813448E+03</rscale>
<asrwt>0</asrwt>
<pdfrwt beam="1">  1       21 0.14643744E+00 0.24813448E+03</pdfrwt>
<pdfrwt beam="2">  1       21 0.27898349E-01 0.24813448E+03</pdfrwt>
<totfact> 0.37391228E+03</totfact>
</mgrwt>
</event>
<event>
 4    1  0.1110581E+000  0.1950238E+03  0.7546771E-02  0.1154007E+00
         21   -1    0    0  503  502  0.00000000000E+00  0.00000000000E+00  0.18867963216E+03  0.18867963216E+03  0.00000000000E+00 0. -1.
         21   -1    0    0  501  503 -0.00000000000E+00 -0.00000000000E+00 -0.36188515554E+03  0.36188515554E+03  0.00000000000E+00 0. -1.
          6    1    1    2  501    0 -0.81770083367E+02 -0.41999036388E+02 -0.26981951331E+03  0.33292166549E+03  0.17200000000E+03 0. -1.
         -6    1    1    2    0  502  0.81770083367E+02  0.41999036388E+02  0.96613989930E+02  0.21764312220E+03  0.17200000000E+03 0. -1.
<mgrwt>
<rscale>  2 0.19502376E+03</rscale>
<asrwt>0</asrwt>
<pdfrwt beam="1">  1       21 0.47169909E-01 0.19502376E+03</pdfrwt>
<pdfrwt beam="2">  1       21 0.90471288E-01 0.19502376E+03</pdfrwt>
<totfact> 0.44553127E+03</totfact>
</mgrwt>
</event>
<event>
 4    1  0.1110581E+000  0.1806876E+03  0.7546771E-02  0.1167139E+00
         21   -1    0    0  503  502  0.00000000000E+00  0.00000000000E+00  0.47398579410E+03  0.47398579410E+03  0.00000000000E+00 0. -1.
         21   -1    0    0  501  503 -0.00000000000E+00 -0.00000000000E+00 -0.69645730530E+02  0.69645730530E+02  0.00000000000E+00 0. -1.
          6    1    1    2  501    0 -0.10449442485E+02  0.54358385778E+02  0.23067595342E+03  0.29301778178E+03  0.17200000000E+03 0. -1.
         -6    1    1    2    0  502  0.10449442485E+02 -0.54358385778E+02  0.17366411016E+03  0.25061374286E+03  0.17200000000E+03 0. -1.
<mgrwt>
<rscale>  2 0.18068764E+03</rscale>
<asrwt>0</asrwt>
<pdfrwt beam="1">  1       21 0.11849644E+00 0.18068764E+03</pdfrwt>
<pdfrwt beam="2">  1       21 0.17411434E-01 0.18068764E+03</pdfrwt>
<totfact> 0.16394683E+04</totfact>
</mgrwt>
</event>
<event>
 4    1  0.1110581E+000  0.2460246E+03  0.7546771E-02  0.1115843E+00
         21   -1    0    0  501  502  0.00000000000E+00  0.00000000000E+00  0.35067794066E+03  0.35067794066E+03  0.00000000000E+00 0. -1.
         21   -1    0    0  502  503 -0.00000000000E+00 -0.00000000000E+00 -0.31177141972E+03  0.31177141972E+03  0.00000000000E+00 0.  1.
          6    1    1    2  501    0  0.11631460623E+03 -0.13196588928E+03  0.24074989163E+03  0.34422172197E+03  0.17200000000E+03 0. -1.
         -6    1    1    2    0  503 -0.11631460623E+03  0.13196588928E+03 -0.20184337070E+03  0.31822763841E+03  0.17200000000E+03 0.  1.
<mgrwt>
<rscale>  2 0.24602456E+03</rscale>
<asrwt>0</asrwt>
<pdfrwt beam="1">  1       21 0.87669485E-01 0.24602456E+03</pdfrwt>
<pdfrwt beam="2">  1       21 0.77942855E-01 0.24602456E+03</pdfrwt>
<totfact> 0.15558181E+03</totfact>
</mgrwt>
</event>
<event>
 4    1  0.1110581E+000  0.2777656E+03  0.7546771E-02  0.1096916E+00
         21   -1    0    0  503  502  0.00000000000E+00  0.00000000000E+00  0.55567204904E+03  0.55567204904E+03  0.00000000000E+00 0.  1.
         21   -1    0    0  501  503 -0.00000000000E+00 -0.00000000000E+00 -0.23433308921E+03  0.23433308921E+03  0.00000000000E+00 0.  1.
          6    1    1    2  501    0  0.32683345772E+02  0.21564213457E+03 -0.91476353738E+02  0.29244085656E+03  0.17200000000E+03 0.  1.
         -6    1    1    2    0  502 -0.32683345772E+02 -0.21564213457E+03  0.41281531357E+03  0.49756428169E+03  0.17200000000E+03 0.  1.
<mgrwt>
<rscale>  2 0.27776560E+03</rscale>
<asrwt>0</asrwt>
<pdfrwt beam="1">  1       21 0.13891801E+00 0.27776560E+03</pdfrwt>
<pdfrwt beam="2">  1       21 0.58583273E-01 0.27776560E+03</pdfrwt>
<totfact> 0.92402177E+02</totfact>
</mgrwt>
</event>
<event>
 4    1  0.1110581E+000  0.2819863E+03  0.7546771E-02  0.1094609E+00
         21   -1    0    0  503  502  0.00000000000E+00  0.00000000000E+00  0.39053905435E+03  0.39053905435E+03  0.00000000000E+00 0. -1.
         21   -1    0    0  501  503 -0.00000000000E+00 -0.00000000000E+00 -0.27479981318E+03  0.27479981318E+03  0.00000000000E+00 0.  1.
          6    1    1    2  501    0 -0.11623889416E+03 -0.19084227202E+03  0.22719598002E+03  0.36212465622E+03  0.17200000000E+03 0. -1.
         -6    1    1    2    0  502  0.11623889416E+03  0.19084227202E+03 -0.11145673885E+03  0.30321421131E+03  0.17200000000E+03 0.  1.
<mgrwt>
<rscale>  2 0.28198626E+03</rscale>
<asrwt>0</asrwt>
<pdfrwt beam="1">  1       21 0.97634763E-01 0.28198626E+03</pdfrwt>
<pdfrwt beam="2">  1       21 0.68699954E-01 0.28198626E+03</pdfrwt>
<totfact> 0.15633347E+03</totfact>
</mgrwt>
</event>
<event>
 4    1  0.1110581E+000  0.2029688E+03  0.7546771E-02  0.1147258E+00
         21   -1    0    0  501  502  0.00000000000E+00  0.00000000000E+00  0.87952097505E+03  0.87952097505E+03  0.00000000000E+00 0. -1.
         21   -1    0    0  502  503 -0.00000000000E+00 -0.00000000000E+00 -0.46840297111E+02  0.46840297111E+02  0.00000000000E+00 0. -1.
          6    1    1    2  501    0  0.17523481468E+02 -0.10632622844E+03  0.41445228891E+03  0.46148351979E+03  0.17200000000E+03 0. -1.
         -6    1    1    2    0  503 -0.17523481468E+02  0.10632622844E+03  0.41822838903E+03  0.46487775237E+03  0.17200000000E+03 0. -1.
<mgrwt>
<rscale>  2 0.20296881E+03</rscale>
<asrwt>0</asrwt>
<pdfrwt beam="1">  1       21 0.21988019E+00 0.20296881E+03</pdfrwt>
<pdfrwt beam="2">  1       21 0.11710077E-01 0.20296881E+03</pdfrwt>
<totfact> 0.61183495E+03</totfact>
</mgrwt>
</event>
<event>
 4    1  0.1110581E+000  0.2212225E+03  0.7546771E-02  0.1132975E+00
         21   -1    0    0  503  502  0.00000000000E+00  0.00000000000E+00  0.21957214919E+03  0.21957214919E+03  0.00000000000E+00 0.  1.
         21   -1    0    0  501  503 -0.00000000000E+00 -0.00000000000E+00 -0.92239061106E+03  0.92239061106E+03  0.00000000000E+00 0. -1.
          6    1    1    2  501    0  0.12736216628E+03  0.55984533676E+02 -0.84864233918E+03  0.87700239981E+03  0.17200000000E+03 0. -1.
         -6    1    1    2    0  502 -0.12736216628E+03 -0.55984533676E+02  0.14582387732E+03  0.26496036044E+03  0.17200000000E+03 0.  1.
<mgrwt>
<rscale>  2 0.22122249E+03</rscale>
<asrwt>0</asrwt>
<pdfrwt beam="1">  1       21 0.54893038E-01 0.22122249E+03</pdfrwt>
<pdfrwt beam="2">  1       21 0.23059765E+00 0.22122249E+03</pdfrwt>
<totfact> 0.26184175E+02</totfact>
</mgrwt>
</event>
<event>
 4    1  0.1110581E+000  0.2081484E+03  0.7546771E-02  0.1143041E+00
         21   -1    0    0  501  502  0.00000000000E+00  0.00000000000E+00  0.28898109456E+03  0.28898109456E+03  0.00000000000E+00 0.  1.
         21   -1    0    0  502  503 -0.00000000000E+00 -0.00000000000E+00 -0.15030443514E+03  0.15030443514E+03  0.00000000000E+00 0.  1.
          6    1    1    2  501    0 -0.11657566664E+03 -0.12324311419E+02  0.80359721012E+02  0.22312207301E+03  0.17200000000E+03 0.  1.
         -6    1    1    2    0  503  0.11657566664E+03  0.12324311419E+02  0.58316938409E+02  0.21616345669E+03  0.17200000000E+03 0.  1.
<mgrwt>
<rscale>  2 0.20814844E+03</rscale>
<asrwt>0</asrwt>
<pdfrwt beam="1">  1       21 0.72245273E-01 0.20814844E+03</pdfrwt>
<pdfrwt beam="2">  1       21 0.37576109E-01 0.20814844E+03</pdfrwt>
<totfact> 0.11681578E+04</totfact>
</mgrwt>
</event>
<event>
 4    1  0.1110581E+000  0.1731769E+03  0.7546771E-02  0.1174575E+00
         21   -1    0    0  503  502  0.00000000000E+00  0.00000000000E+00  0.10497029852E+04  0.10497029852E+04  0.00000000000E+00 0. -1.
         21   -1    0    0  501  503 -0.00000000000E+00 -0.00000000000E+00 -0.42912000625E+02  0.42912000625E+02  0.00000000000E+00 0. -1.
          6    1    1    2  501    0 -0.15042365141E+02  0.13414799290E+02  0.18756828580E+03  0.25528825165E+03  0.17200000000E+03 0. -1.
         -6    1    1    2    0  502  0.15042365141E+02 -0.13414799290E+02  0.81922269872E+03  0.83732673413E+03  0.17200000000E+03 0. -1.
<mgrwt>
<rscale>  2 0.17317687E+03</rscale>
<asrwt>0</asrwt>
<pdfrwt beam="1">  1       21 0.26242566E+00 0.17317687E+03</pdfrwt>
<pdfrwt beam="2">  1       21 0.10728004E-01 0.17317687E+03</pdfrwt>
<totfact> 0.41210016E+03</totfact>
</mgrwt>
</event>
<event>
 4    1  0.1110581E+000  0.1729562E+03  0.7546771E-02  0.1174800E+00
         21   -1    0    0  503  502  0.00000000000E+00  0.00000000000E+00  0.27830726068E+02  0.27830726068E+02  0.00000000000E+00 0.  1.
         21   -1    0    0  501  503 -0.00000000000E+00 -0.00000000000E+00 -0.14987271265E+04  0.14987271265E+04  0.00000000000E+00 0.  1.
          6    1    1    2  501    0  0.17703876051E+02 -0.40525096830E+01 -0.11413697298E+04  0.11543997185E+04  0.17200000000E+03 0.  1.
         -6    1    1    2    0  502 -0.17703876051E+02  0.40525096830E+01 -0.32952667059E+03  0.37215813399E+03  0.17200000000E+03 0.  1.
<mgrwt>
<rscale>  2 0.17295621E+03</rscale>
<asrwt>0</asrwt>
<pdfrwt beam="1">  1       21 0.69576814E-02 0.17295621E+03</pdfrwt>
<pdfrwt beam="2">  1       21 0.37468179E+00 0.17295621E+03</pdfrwt>
<totfact> 0.19615342E+03</totfact>
</mgrwt>
</event>
<event>
 4    1  0.1110581E+000  0.2815381E+03  0.7546771E-02  0.1094852E+00
         21   -1    0    0  503  502  0.00000000000E+00  0.00000000000E+00  0.28129440763E+03  0.28129440763E+03  0.00000000000E+00 0. -1.
         21   -1    0    0  501  503 -0.00000000000E+00 -0.00000000000E+00 -0.43023611990E+03  0.43023611990E+03  0.00000000000E+00 0.  1.
          6    1    1    2  501    0  0.16997625491E+03 -0.14417958389E+03 -0.28345163585E+03  0.39951033718E+03  0.17200000000E+03 0.  1.
         -6    1    1    2    0  502 -0.16997625491E+03  0.14417958389E+03  0.13450992358E+03  0.31202019035E+03  0.17200000000E+03 0. -1.
<mgrwt>
<rscale>  2 0.28153806E+03</rscale>
<asrwt>0</asrwt>
<pdfrwt beam="1">  1       21 0.70323603E-01 0.28153806E+03</pdfrwt>
<pdfrwt beam="2">  1       21 0.10755903E+00 0.28153806E+03</pdfrwt>
<totfact> 0.11752189E+03</totfact>
</mgrwt>
</event>
<event>
 4    1  0.1110581E+000  0.2165789E+03  0.7546771E-02  0.1136460E+00
         21   -1    0    0  503  502  0.00000000000E+00  0.00000000000E+00  0.20835027141E+03  0.20835027141E+03  0.00000000000E+00 0. -1.
         21   -1    0    0  501  503 -0.00000000000E+00 -0.00000000000E+00 -0.51556131946E+03  0.51556131946E+03  0.00000000000E+00 0.  1.
          6    1    1    2  501    0  0.53990962859E+02 -0.12003084078E+03  0.11806041621E+03  0.24666716175E+03  0.17200000000E+03 0. -1.
         -6    1    1    2    0  502 -0.53990962859E+02  0.12003084078E+03 -0.42527146426E+03  0.47724442912E+03  0.17200000000E+03 0.  1.
<mgrwt>
<rscale>  2 0.21657892E+03</rscale>
<asrwt>0</asrwt>
<pdfrwt beam="1">  1       21 0.52087568E-01 0.21657892E+03</pdfrwt>
<pdfrwt beam="2">  1       21 0.12889033E+00 0.21657892E+03</pdfrwt>
<totfact> 0.15108444E+03</totfact>
</mgrwt>
</event>
<event>
 4    1  0.1110581E+000  0.2441475E+03  0.7546771E-02  0.1117060E+00
         21   -1    0    0  501  502  0.00000000000E+00  0.00000000000E+00  0.29885135826E+03  0.29885135826E+03  0.00000000000E+00 0. -1.
         21   -1    0    0  502  503 -0.00000000000E+00 -0.00000000000E+00 -0.21907283942E+03  0.21907283942E+03  0.00000000000E+00 0.  1.
          6    1    1    2  501    0 -0.53101407127E+02  0.16493705969E+03  0.11737922542E+03  0.27089827548E+03  0.17200000000E+03 0. -1.
         -6    1    1    2    0  503  0.53101407127E+02 -0.16493705969E+03 -0.37600706587E+02  0.24702592219E+03  0.17200000000E+03 0.  1.
<mgrwt>
<rscale>  2 0.24414748E+03</rscale>
<asrwt>0</asrwt>
<pdfrwt beam="1">  1       21 0.74712839E-01 0.24414748E+03</pdfrwt>
<pdfrwt beam="2">  1       21 0.54768210E-01 0.24414748E+03</pdfrwt>
<totfact> 0.48641355E+03</totfact>
</mgrwt>
</event>
<event>
 4    1  0.1110581E+000  0.2243061E+03  0.7546771E-02  0.1130713E+00
         21   -1    0    0  503  502  0.00000000000E+00  0.00000000000E+00  0.39378200297E+02  0.39378200297E+02  0.00000000000E+00 0.  1.
         21   -1    0    0  501  503 -0.00000000000E+00 -0.00000000000E+00 -0.13018913154E+04  0.13018913154E+04  0.00000000000E+00 0.  1.
          6    1    1    2  501    0  0.12847235919E+03  0.64992947226E+02 -0.72268808112E+03  0.75669762313E+03  0.17200000000E+03 0.  1.
         -6    1    1    2    0  502 -0.12847235919E+03 -0.64992947226E+02 -0.53982503403E+03  0.58457189261E+03  0.17200000000E+03 0.  1.
<mgrwt>
<rscale>  2 0.22430611E+03</rscale>
<asrwt>0</asrwt>
<pdfrwt beam="1">  1       21 0.98445504E-02 0.22430611E+03</pdfrwt>
<pdfrwt beam="2">  1       21 0.32547282E+00 0.22430611E+03</pdfrwt>
<totfact> 0.19513321E+03</totfact>
</mgrwt>
</event>
<event>
 4    1  0.1110581E+000  0.1810447E+03  0.7546771E-02  0.1166796E+00
         21   -1    0    0  503  502  0.00000000000E+00  0.00000000000E+00  0.68208253324E+03  0.68208253324E+03  0.00000000000E+00 0. -1.
         21   -1    0    0  501  503 -0.00000000000E+00 -0.00000000000E+00 -0.97162764353E+02  0.97162764353E+02  0.00000000000E+00 0. -1.
          6    1    1    2  501    0 -0.25186572211E+02 -0.50584845536E+02  0.15465350002E+02  0.18170406453E+03  0.17200000000E+03 0. -1.
         -6    1    1    2    0  502  0.25186572211E+02  0.50584845536E+02  0.56945441888E+03  0.59754123306E+03  0.17200000000E+03 0. -1.
<mgrwt>
<rscale>  2 0.18104472E+03</rscale>
<asrwt>0</asrwt>
<pdfrwt beam="1">  1       21 0.17052062E+00 0.18104472E+03</pdfrwt>
<pdfrwt beam="2">  1       21 0.24290693E-01 0.18104472E+03</pdfrwt>
<totfact> 0.34228881E+03</totfact>
</mgrwt>
</event>
<event>
 4    1  0.1110581E+000  0.2030273E+03  0.7546771E-02  0.1147210E+00
         21   -1    0    0  503  502  0.00000000000E+00  0.00000000000E+00  0.32517211549E+03  0.32517211549E+03  0.00000000000E+00 0. -1.
         21   -1    0    0  501  503 -0.00000000000E+00 -0.00000000000E+00 -0.14954275069E+03  0.14954275069E+03  0.00000000000E+00 0.  1.
          6    1    1    2  501    0 -0.60237917404E+02 -0.89484614931E+02 -0.48225445086E+01  0.20308461276E+03  0.17200000000E+03 0.  1.
         -6    1    1    2    0  502  0.60237917404E+02  0.89484614931E+02  0.18045190930E+03  0.27163025342E+03  0.17200000000E+03 0. -1.
<mgrwt>
<rscale>  2 0.20302735E+03</rscale>
<asrwt>0</asrwt>
<pdfrwt beam="1">  1       21 0.81293028E-01 0.20302735E+03</pdfrwt>
<pdfrwt beam="2">  1       21 0.37385688E-01 0.20302735E+03</pdfrwt>
<totfact> 0.90852416E+03</totfact>
</mgrwt>
</event>
<event>
 4    1  0.1110581E+000  0.2097408E+03  0.7546771E-02  0.1141771E+00
         21   -1    0    0  503  502  0.00000000000E+00  0.00000000000E+00  0.88183693490E+02  0.88183693490E+02  0.00000000000E+00 0.  1.
         21   -1    0    0  501  503 -0.00000000000E+00 -0.00000000000E+00 -0.79513464364E+03  0.79513464364E+03  0.00000000000E+00 0.  1.
          6    1    1    2  501    0  0.30809610494E+01  0.11999037893E+03 -0.62307260740E+03  0.65742730202E+03  0.17200000000E+03 0.  1.
         -6    1    1    2    0  502 -0.30809610494E+01 -0.11999037893E+03 -0.83878342750E+02  0.22589103510E+03  0.17200000000E+03 0.  1.
<mgrwt>
<rscale>  2 0.20974075E+03</rscale>
<asrwt>0</asrwt>
<pdfrwt beam="1">  1       21 0.22045924E-01 0.20974075E+03</pdfrwt>
<pdfrwt beam="2">  1       21 0.19878366E+00 0.20974075E+03</pdfrwt>
<totfact> 0.25848670E+03</totfact>
</mgrwt>
</event>
<event>
 4    1  0.1110581E+000  0.2550040E+03  0.7546771E-02  0.1110183E+00
         21   -1    0    0  503  502  0.00000000000E+00  0.00000000000E+00  0.10680019471E+03  0.10680019471E+03  0.00000000000E+00 0.  1.
         21   -1    0    0  501  503 -0.00000000000E+00 -0.00000000000E+00 -0.72910827080E+03  0.72910827080E+03  0.00000000000E+00 0. -1.
          6    1    1    2  501    0 -0.81960533507E+01 -0.18808470675E+03 -0.48088492468E+03  0.54431364394E+03  0.17200000000E+03 0.  1.
         -6    1    1    2    0  502  0.81960533507E+01  0.18808470675E+03 -0.14142315142E+03  0.29159482156E+03  0.17200000000E+03 0. -1.
<mgrwt>
<rscale>  2 0.25500398E+03</rscale>
<asrwt>0</asrwt>
<pdfrwt beam="1">  1       21 0.26700049E-01 0.25500398E+03</pdfrwt>
<pdfrwt beam="2">  1       21 0.18227707E+00 0.25500398E+03</pdfrwt>
<totfact> 0.22201207E+03</totfact>
</mgrwt>
</event>
<event>
 4    1  0.1110581E+000  0.1886262E+03  0.7546771E-02  0.1159706E+00
         21   -1    0    0  503  502  0.00000000000E+00  0.00000000000E+00  0.49446734396E+02  0.49446734396E+02  0.00000000000E+00 0.  1.
         21   -1    0    0  501  503 -0.00000000000E+00 -0.00000000000E+00 -0.72321525510E+03  0.72321525510E+03  0.00000000000E+00 0.  1.
          6    1    1    2  501    0  0.39200581773E+02 -0.66776841180E+02 -0.36435414089E+03  0.41028498890E+03  0.17200000000E+03 0.  1.
         -6    1    1    2    0  502 -0.39200581773E+02  0.66776841180E+02 -0.30941437982E+03  0.36237700060E+03  0.17200000000E+03 0.  1.
<mgrwt>
<rscale>  2 0.18862617E+03</rscale>
<asrwt>0</asrwt>
<pdfrwt beam="1">  1       21 0.12361684E-01 0.18862617E+03</pdfrwt>
<pdfrwt beam="2">  1       21 0.18080381E+00 0.18862617E+03</pdfrwt>
<totfact> 0.10030874E+04</totfact>
</mgrwt>
</event>
<event>
 4    1  0.1110581E+000  0.1905063E+03  0.7546771E-02  0.1158005E+00
         21   -1    0    0  501  502  0.00000000000E+00  0.00000000000E+00  0.97220409048E+02  0.97220409048E+02  0.00000000000E+00 0. -1.
         21   -1    0    0  502  503 -0.00000000000E+00 -0.00000000000E+00 -0.11201253095E+04  0.11201253095E+04  0.00000000000E+00 0.  1.
          6    1    1    2  501    0  0.56967879743E+02 -0.58850007695E+02 -0.14449123034E+02  0.19105350006E+03  0.17200000000E+03 0. -1.
         -6    1    1    2    0  503 -0.56967879743E+02  0.58850007695E+02 -0.10084557774E+04  0.10262922185E+04  0.17200000000E+03 0.  1.
<mgrwt>
<rscale>  2 0.19050633E+03</rscale>
<asrwt>0</asrwt>
<pdfrwt beam="1">  1       21 0.24305102E-01 0.19050633E+03</pdfrwt>
<pdfrwt beam="2">  1       21 0.28003133E+00 0.19050633E+03</pdfrwt>
<totfact> 0.71305531E+02</totfact>
</mgrwt>
</event>
<event>
 4    1  0.1110581E+000  0.1886848E+03  0.7546771E-02  0.1159653E+00
         21   -1    0    0  501  502  0.00000000000E+00  0.00000000000E+00  0.38262629168E+03  0.38262629168E+03  0.00000000000E+00 0.  1.
         21   -1    0    0  502  503 -0.00000000000E+00 -0.00000000000E+00 -0.95875201394E+02  0.95875201394E+02  0.00000000000E+00 0.  1.
          6    1    1    2  501    0  0.73808596723E+02  0.23879423941E+02  0.18447291738E+03  0.26387912590E+03  0.17200000000E+03 0.  1.
         -6    1    1    2    0  503 -0.73808596723E+02 -0.23879423941E+02  0.10227817290E+03  0.21462236717E+03  0.17200000000E+03 0.  1.
<mgrwt>
<rscale>  2 0.18868475E+03</rscale>
<asrwt>0</asrwt>
<pdfrwt beam="1">  1       21 0.95656569E-01 0.18868475E+03</pdfrwt>
<pdfrwt beam="2">  1       21 0.23968801E-01 0.18868475E+03</pdfrwt>
<totfact> 0.14998774E+04</totfact>
</mgrwt>
</event>
<event>
 4    1  0.1110581E+000  0.1736562E+03  0.7546771E-02  0.1174088E+00
         21   -1    0    0  501  502  0.00000000000E+00  0.00000000000E+00  0.51472676175E+03  0.51472676175E+03  0.00000000000E+00 0.  1.
         21   -1    0    0  502  503 -0.00000000000E+00 -0.00000000000E+00 -0.84699959959E+02  0.84699959959E+02  0.00000000000E+00 0.  1.
          6    1    1    2  501    0  0.14285410588E+02  0.19194031194E+02  0.38142727517E+03  0.41909813890E+03  0.17200000000E+03 0.  1.
         -6    1    1    2    0  503 -0.14285410588E+02 -0.19194031194E+02  0.48599526624E+02  0.18032858281E+03  0.17200000000E+03 0.  1.
<mgrwt>
<rscale>  2 0.17365622E+03</rscale>
<asrwt>0</asrwt>
<pdfrwt beam="1">  1       21 0.12868168E+00 0.17365622E+03</pdfrwt>
<pdfrwt beam="2">  1       21 0.21174991E-01 0.17365622E+03</pdfrwt>
<totfact> 0.93329657E+03</totfact>
</mgrwt>
</event>
<event>
 4    1  0.1110581E+000  0.1903449E+03  0.7546771E-02  0.1158151E+00
         21   -1    0    0  503  502  0.00000000000E+00  0.00000000000E+00  0.25578922639E+03  0.25578922639E+03  0.00000000000E+00 0. -1.
         21   -1    0    0  501  503 -0.00000000000E+00 -0.00000000000E+00 -0.14552782699E+03  0.14552782699E+03  0.00000000000E+00 0.  1.
          6    1    1    2  501    0  0.75955168300E+02 -0.29630730181E+02  0.87908504834E+02  0.20966419099E+03  0.17200000000E+03 0.  1.
         -6    1    1    2    0  502 -0.75955168300E+02  0.29630730181E+02  0.22352894566E+02  0.19165286238E+03  0.17200000000E+03 0.  1.
<mgrwt>
<rscale>  2 0.19034487E+03</rscale>
<asrwt>0</asrwt>
<pdfrwt beam="1">  1       21 0.63947306E-01 0.19034487E+03</pdfrwt>
<pdfrwt beam="2">  1       21 0.36381957E-01 0.19034487E+03</pdfrwt>
<totfact> 0.16477051E+04</totfact>
</mgrwt>
</event>
<event>
 4    1  0.1110581E+000  0.1834238E+03  0.7546771E-02  0.1164530E+00
         21   -1    0    0  503  502  0.00000000000E+00  0.00000000000E+00  0.63407031468E+02  0.63407031468E+02  0.00000000000E+00 0.  1.
         21   -1    0    0  501  503 -0.00000000000E+00 -0.00000000000E+00 -0.59300517843E+03  0.59300517843E+03  0.00000000000E+00 0.  1.
          6    1    1    2  501    0  0.46209432255E+02  0.43874615652E+02 -0.37126215785E+03  0.41410129604E+03  0.17200000000E+03 0. -1.
         -6    1    1    2    0  502 -0.46209432255E+02 -0.43874615652E+02 -0.15833598911E+03  0.24231091386E+03  0.17200000000E+03 0. -1.
<mgrwt>
<rscale>  2 0.18342381E+03</rscale>
<asrwt>0</asrwt>
<pdfrwt beam="1">  1       21 0.15851758E-01 0.18342381E+03</pdfrwt>
<pdfrwt beam="2">  1       21 0.14825129E+00 0.18342381E+03</pdfrwt>
<totfact> 0.11008681E+04</totfact>
</mgrwt>
</event>
<event>
 4    1  0.1110581E+000  0.1843502E+03  0.7546771E-02  0.1163658E+00
         21   -1    0    0  501  502  0.00000000000E+00  0.00000000000E+00  0.12578398149E+03  0.12578398149E+03  0.00000000000E+00 0. -1.
         21   -1    0    0  502  503 -0.00000000000E+00 -0.00000000000E+00 -0.27662860240E+03  0.27662860240E+03  0.00000000000E+00 0. -1.
          6    1    1    2  501    0  0.69735399924E+01 -0.65972539774E+02 -0.44715056593E+02  0.18969565770E+03  0.17200000000E+03 0. -1.
         -6    1    1    2    0  503 -0.69735399924E+01  0.65972539774E+02 -0.10612956432E+03  0.21271692619E+03  0.17200000000E+03 0. -1.
<mgrwt>
<rscale>  2 0.18435023E+03</rscale>
<asrwt>0</asrwt>
<pdfrwt beam="1">  1       21 0.31445996E-01 0.18435023E+03</pdfrwt>
<pdfrwt beam="2">  1       21 0.69157150E-01 0.18435023E+03</pdfrwt>
<totfact> 0.18589885E+04</totfact>
</mgrwt>
</event>
<event>
 4    1  0.1110581E+000  0.2571794E+03  0.7546771E-02  0.1108850E+00
         21   -1    0    0  501  502  0.00000000000E+00  0.00000000000E+00  0.29546848769E+03  0.29546848769E+03  0.00000000000E+00 0.  1.
         21   -1    0    0  502  503 -0.00000000000E+00 -0.00000000000E+00 -0.22431436577E+03  0.22431436577E+03  0.00000000000E+00 0.  1.
          6    1    1    2  501    0 -0.19023515316E+03  0.19178466649E+02  0.47375705692E+02  0.26150656698E+03  0.17200000000E+03 0.  1.
         -6    1    1    2    0  503  0.19023515316E+03 -0.19178466649E+02  0.23778416231E+02  0.25827628649E+03  0.17200000000E+03 0.  1.
<mgrwt>
<rscale>  2 0.25717937E+03</rscale>
<asrwt>0</asrwt>
<pdfrwt beam="1">  1       21 0.73867122E-01 0.25717937E+03</pdfrwt>
<pdfrwt beam="2">  1       21 0.56078592E-01 0.25717937E+03</pdfrwt>
<totfact> 0.47066056E+03</totfact>
</mgrwt>
</event>
<event>
 4    1  0.1110581E+000  0.1761708E+03  0.7546771E-02  0.1171561E+00
         21   -1    0    0  501  502  0.00000000000E+00  0.00000000000E+00  0.19778274550E+03  0.19778274550E+03  0.00000000000E+00 0. -1.
         21   -1    0    0  502  503 -0.00000000000E+00 -0.00000000000E+00 -0.32288572581E+03  0.32288572581E+03  0.00000000000E+00 0. -1.
          6    1    1    2  501    0  0.25820816587E+02  0.28025442647E+02  0.12409317999E+03  0.21548841575E+03  0.17200000000E+03 0. -1.
         -6    1    1    2    0  503 -0.25820816587E+02 -0.28025442647E+02 -0.24919616030E+03  0.30518005556E+03  0.17200000000E+03 0. -1.
<mgrwt>
<rscale>  2 0.17617077E+03</rscale>
<asrwt>0</asrwt>
<pdfrwt beam="1">  1       21 0.49445687E-01 0.17617077E+03</pdfrwt>
<pdfrwt beam="2">  1       21 0.80721430E-01 0.17617077E+03</pdfrwt>
<totfact> 0.53252221E+03</totfact>
</mgrwt>
</event>
<event>
 4    1  0.1110581E+000  0.1936755E+03  0.7546771E-02  0.1155187E+00
         21   -1    0    0  503  502  0.00000000000E+00  0.00000000000E+00  0.72103110379E+02  0.72103110379E+02  0.00000000000E+00 0. -1.
         21   -1    0    0  501  503 -0.00000000000E+00 -0.00000000000E+00 -0.61711434046E+03  0.61711434046E+03  0.00000000000E+00 0. -1.
          6    1    1    2  501    0 -0.69692851299E+02  0.55399669645E+02 -0.40904871309E+03  0.45258266272E+03  0.17200000000E+03 0. -1.
         -6    1    1    2    0  502  0.69692851299E+02 -0.55399669645E+02 -0.13596251699E+03  0.23663478811E+03  0.17200000000E+03 0. -1.
<mgrwt>
<rscale>  2 0.19367555E+03</rscale>
<asrwt>0</asrwt>
<pdfrwt beam="1">  1       21 0.18025778E-01 0.19367555E+03</pdfrwt>
<pdfrwt beam="2">  1       21 0.15427858E+00 0.19367555E+03</pdfrwt>
<totfact> 0.77642278E+03</totfact>
</mgrwt>
</event>
<event>
 4    1  0.1110581E+000  0.1843958E+03  0.7546771E-02  0.1163615E+00
         21   -1    0    0  501  502  0.00000000000E+00  0.00000000000E+00  0.46029816027E+03  0.46029816027E+03  0.00000000000E+00 0. -1.
         21   -1    0    0  502  503 -0.00000000000E+00 -0.00000000000E+00 -0.89674208386E+02  0.89674208386E+02  0.00000000000E+00 0.  1.
          6    1    1    2  501    0  0.32359172362E+02  0.58057621684E+02  0.30075722312E+03  0.35278422687E+03  0.17200000000E+03 0. -1.
         -6    1    1    2    0  503 -0.32359172362E+02 -0.58057621684E+02  0.69866728767E+02  0.19718814178E+03  0.17200000000E+03 0.  1.
<mgrwt>
<rscale>  2 0.18439578E+03</rscale>
<asrwt>0</asrwt>
<pdfrwt beam="1">  1       21 0.11507453E+00 0.18439578E+03</pdfrwt>
<pdfrwt beam="2">  1       21 0.22418553E-01 0.18439578E+03</pdfrwt>
<totfact> 0.10967953E+04</totfact>
</mgrwt>
</event>
<event>
 4    1  0.1110581E+000  0.2333000E+03  0.7546771E-02  0.1124338E+00
         21   -1    0    0  501  502  0.00000000000E+00  0.00000000000E+00  0.30079200497E+03  0.30079200497E+03  0.00000000000E+00 0.  1.
         21   -1    0    0  502  503 -0.00000000000E+00 -0.00000000000E+00 -0.28154277689E+03  0.28154277689E+03  0.00000000000E+00 0.  1.
          6    1    1    2  501    0  0.13327367431E+03  0.84160576943E+02  0.18366494784E+03  0.29692033955E+03  0.17200000000E+03 0.  1.
         -6    1    1    2    0  503 -0.13327367431E+03 -0.84160576943E+02 -0.16441571975E+03  0.28541444231E+03  0.17200000000E+03 0.  1.
<mgrwt>
<rscale>  2 0.23329997E+03</rscale>
<asrwt>0</asrwt>
<pdfrwt beam="1">  1       21 0.75198001E-01 0.23329997E+03</pdfrwt>
<pdfrwt beam="2">  1       21 0.70385694E-01 0.23329997E+03</pdfrwt>
<totfact> 0.28005576E+03</totfact>
</mgrwt>
</event>
<event>
 4    1  0.1110581E+000  0.1927187E+03  0.7546771E-02  0.1156032E+00
         21   -1    0    0  503  502  0.00000000000E+00  0.00000000000E+00  0.89444955475E+02  0.89444955475E+02  0.00000000000E+00 0. -1.
         21   -1    0    0  501  503 -0.00000000000E+00 -0.00000000000E+00 -0.83846615908E+03  0.83846615908E+03  0.00000000000E+00 0. -1.
          6    1    1    2  501    0 -0.95001756349E+01 -0.86407530677E+02 -0.70413803928E+03  0.73003485743E+03  0.17200000000E+03 0. -1.
         -6    1    1    2    0  502  0.95001756349E+01  0.86407530677E+02 -0.44883164320E+02  0.19787625713E+03  0.17200000000E+03 0. -1.
<mgrwt>
<rscale>  2 0.19271875E+03</rscale>
<asrwt>0</asrwt>
<pdfrwt beam="1">  1       21 0.22361239E-01 0.19271875E+03</pdfrwt>
<pdfrwt beam="2">  1       21 0.20961654E+00 0.19271875E+03</pdfrwt>
<totfact> 0.21841426E+03</totfact>
</mgrwt>
</event>
<event>
 4    1  0.1110581E+000  0.1828616E+03  0.7546771E-02  0.1165062E+00
         21   -1    0    0  501  502  0.00000000000E+00  0.00000000000E+00  0.37538089116E+03  0.37538089116E+03  0.00000000000E+00 0.  1.
         21   -1    0    0  502  503 -0.00000000000E+00 -0.00000000000E+00 -0.10321231777E+03  0.10321231777E+03  0.00000000000E+00 0.  1.
          6    1    1    2  501    0 -0.79075178776E+01 -0.61577747985E+02  0.47531693202E+02  0.18893811088E+03  0.17200000000E+03 0.  1.
         -6    1    1    2    0  503  0.79075178776E+01  0.61577747985E+02  0.22463688019E+03  0.28965509805E+03  0.17200000000E+03 0.  1.
<mgrwt>
<rscale>  2 0.18286155E+03</rscale>
<asrwt>0</asrwt>
<pdfrwt beam="1">  1       21 0.93845220E-01 0.18286155E+03</pdfrwt>
<pdfrwt beam="2">  1       21 0.25803080E-01 0.18286155E+03</pdfrwt>
<totfact> 0.13679404E+04</totfact>
</mgrwt>
</event>
<event>
 4    1  0.1110581E+000  0.1951776E+03  0.7546771E-02  0.1153873E+00
         21   -1    0    0  503  502  0.00000000000E+00  0.00000000000E+00  0.21309245876E+03  0.21309245876E+03  0.00000000000E+00 0.  1.
         21   -1    0    0  501  503 -0.00000000000E+00 -0.00000000000E+00 -0.41200571687E+03  0.41200571687E+03  0.00000000000E+00 0.  1.
          6    1    1    2  501    0 -0.48016892586E+01  0.92126255567E+02 -0.33461756120E+03  0.38737993682E+03  0.17200000000E+03 0.  1.
         -6    1    1    2    0  502  0.48016892586E+01 -0.92126255567E+02  0.13570430310E+03  0.23771823881E+03  0.17200000000E+03 0.  1.
<mgrwt>
<rscale>  2 0.19517762E+03</rscale>
<asrwt>0</asrwt>
<pdfrwt beam="1">  1       21 0.53273115E-01 0.19517762E+03</pdfrwt>
<pdfrwt beam="2">  1       21 0.10300143E+00 0.19517762E+03</pdfrwt>
<totfact> 0.25469209E+03</totfact>
</mgrwt>
</event>
<event>
 4    1  0.1110581E+000  0.3174527E+03  0.7546771E-02  0.1076828E+00
         21   -1    0    0  501  502  0.00000000000E+00  0.00000000000E+00  0.17550373238E+03  0.17550373238E+03  0.00000000000E+00 0.  1.
         21   -1    0    0  502  503 -0.00000000000E+00 -0.00000000000E+00 -0.81321928408E+03  0.81321928408E+03  0.00000000000E+00 0. -1.
          6    1    1    2  501    0 -0.25938945101E+03  0.62524765298E+02 -0.50850255177E+02  0.32149958324E+03  0.17200000000E+03 0.  1.
         -6    1    1    2    0  503  0.25938945101E+03 -0.62524765298E+02 -0.58686529652E+03  0.66722343322E+03  0.17200000000E+03 0. -1.
<mgrwt>
<rscale>  2 0.31745273E+03</rscale>
<asrwt>0</asrwt>
<pdfrwt beam="1">  1       21 0.43875934E-01 0.31745273E+03</pdfrwt>
<pdfrwt beam="2">  1       21 0.20330482E+00 0.31745273E+03</pdfrwt>
<totfact> 0.56845967E+02</totfact>
</mgrwt>
</event>
<event>
 4    1  0.1110581E+000  0.3304844E+03  0.7546771E-02  0.1070923E+00
         21   -1    0    0  501  502  0.00000000000E+00  0.00000000000E+00  0.18760858447E+03  0.18760858447E+03  0.00000000000E+00 0.  1.
         21   -1    0    0  502  503 -0.00000000000E+00 -0.00000000000E+00 -0.66271289206E+03  0.66271289206E+03  0.00000000000E+00 0.  1.
          6    1    1    2  501    0  0.57164974567E+01  0.28214046132E+03 -0.38577205361E+03  0.50797637308E+03  0.17200000000E+03 0.  1.
         -6    1    1    2    0  503 -0.57164974567E+01 -0.28214046132E+03 -0.89332253975E+02  0.34234510345E+03  0.17200000000E+03 0.  1.
<mgrwt>
<rscale>  2 0.33048437E+03</rscale>
<asrwt>0</asrwt>
<pdfrwt beam="1">  1       21 0.46902146E-01 0.33048437E+03</pdfrwt>
<pdfrwt beam="2">  1       21 0.16567822E+00 0.33048437E+03</pdfrwt>
<totfact> 0.88990694E+02</totfact>
</mgrwt>
</event>
<event>
 4    1  0.1110581E+000  0.1817097E+03  0.7546771E-02  0.1166159E+00
         21   -1    0    0  503  502  0.00000000000E+00  0.00000000000E+00  0.40785614164E+02  0.40785614164E+02  0.00000000000E+00 0.  1.
         21   -1    0    0  501  503 -0.00000000000E+00 -0.00000000000E+00 -0.81622971626E+03  0.81622971626E+03  0.00000000000E+00 0.  1.
          6    1    1    2  501    0  0.47787113798E+02 -0.33923624949E+02 -0.42645593867E+03  0.46355483839E+03  0.17200000000E+03 0.  1.
         -6    1    1    2    0  502 -0.47787113798E+02  0.33923624949E+02 -0.34898816343E+03  0.39346049203E+03  0.17200000000E+03 0.  1.
<mgrwt>
<rscale>  2 0.18170972E+03</rscale>
<asrwt>0</asrwt>
<pdfrwt beam="1">  1       21 0.10196404E-01 0.18170972E+03</pdfrwt>
<pdfrwt beam="2">  1       21 0.20405743E+00 0.18170972E+03</pdfrwt>
<totfact> 0.10011854E+04</totfact>
</mgrwt>
</event>
<event>
 4    1  0.1110581E+000  0.1734174E+03  0.7546771E-02  0.1174330E+00
         21   -1    0    0  501  502  0.00000000000E+00  0.00000000000E+00  0.95899152720E+02  0.95899152720E+02  0.00000000000E+00 0. -1.
         21   -1    0    0  502  503 -0.00000000000E+00 -0.00000000000E+00 -0.11438225436E+04  0.11438225436E+04  0.00000000000E+00 0. -1.
          6    1    1    2  501    0 -0.11693267145E+01 -0.22095959469E+02  0.41346541301E+01  0.17346669454E+03  0.17200000000E+03 0. -1.
         -6    1    1    2    0  503  0.11693267145E+01  0.22095959469E+02 -0.10520580450E+04  0.10662550018E+04  0.17200000000E+03 0. -1.
<mgrwt>
<rscale>  2 0.17341741E+03</rscale>
<asrwt>0</asrwt>
<pdfrwt beam="1">  1       21 0.23974788E-01 0.17341741E+03</pdfrwt>
<pdfrwt beam="2">  1       21 0.28595563E+00 0.17341741E+03</pdfrwt>
<totfact> 0.69350740E+02</totfact>
</mgrwt>
</event>
<event>
 4    1  0.1110581E+000  0.2283764E+03  0.7546771E-02  0.1127788E+00
         21   -1    0    0  503  502  0.00000000000E+00  0.00000000000E+00  0.65918052072E+03  0.65918052072E+03  0.00000000000E+00 0. -1.
         21   -1    0    0  501  503 -0.00000000000E+00 -0.00000000000E+00 -0.85533071075E+02  0.85533071075E+02  0.00000000000E+00 0. -1.
          6    1    1    2  501    0 -0.14208723373E+03 -0.48815997924E+02  0.38876552104E+03  0.45088181821E+03  0.17200000000E+03 0. -1.
         -6    1    1    2    0  502  0.14208723373E+03  0.48815997924E+02  0.18488192860E+03  0.29383177358E+03  0.17200000000E+03 0. -1.
<mgrwt>
<rscale>  2 0.22837641E+03</rscale>
<asrwt>0</asrwt>
<pdfrwt beam="1">  1       21 0.16479512E+00 0.22837641E+03</pdfrwt>
<pdfrwt beam="2">  1       21 0.21383270E-01 0.22837641E+03</pdfrwt>
<totfact> 0.45938110E+03</totfact>
</mgrwt>
</event>
<event>
 4    1  0.1110581E+000  0.2551764E+03  0.7546771E-02  0.1110076E+00
         21   -1    0    0  501  502  0.00000000000E+00  0.00000000000E+00  0.13852364970E+03  0.13852364970E+03  0.00000000000E+00 0. -1.
         21   -1    0    0  502  503 -0.00000000000E+00 -0.00000000000E+00 -0.69632088079E+03  0.69632088079E+03  0.00000000000E+00 0.  1.
          6    1    1    2  501    0  0.18576761359E+03 -0.31959551952E+02 -0.40956382363E+02  0.25844234265E+03  0.17200000000E+03 0. -1.
         -6    1    1    2    0  503 -0.18576761359E+03  0.31959551952E+02 -0.51684084873E+03  0.57640218783E+03  0.17200000000E+03 0.  1.
<mgrwt>
<rscale>  2 0.25517645E+03</rscale>
<asrwt>0</asrwt>
<pdfrwt beam="1">  1       21 0.34630913E-01 0.25517645E+03</pdfrwt>
<pdfrwt beam="2">  1       21 0.17408022E+00 0.25517645E+03</pdfrwt>
<totfact> 0.15175901E+03</totfact>
</mgrwt>
</event>
<event>
 4    1  0.1110581E+000  0.1767340E+03  0.7546771E-02  0.1171002E+00
         21   -1    0    0  503  502  0.00000000000E+00  0.00000000000E+00  0.76325538781E+03  0.76325538781E+03  0.00000000000E+00 0.  1.
         21   -1    0    0  501  503 -0.00000000000E+00 -0.00000000000E+00 -0.42552224875E+02  0.42552224875E+02  0.00000000000E+00 0.  1.
          6    1    1    2  501    0 -0.85765592208E+01 -0.39716080455E+02  0.43918159473E+03  0.47340827788E+03  0.17200000000E+03 0. -1.
         -6    1    1    2    0  502  0.85765592208E+01  0.39716080455E+02  0.28152156821E+03  0.33239933481E+03  0.17200000000E+03 0. -1.
<mgrwt>
<rscale>  2 0.17673405E+03</rscale>
<asrwt>0</asrwt>
<pdfrwt beam="1">  1       21 0.19081380E+00 0.17673405E+03</pdfrwt>
<pdfrwt beam="2">  1       21 0.10638059E-01 0.17673405E+03</pdfrwt>
<totfact> 0.11353637E+04</totfact>
</mgrwt>
</event>
<event>
 4    1  0.1110581E+000  0.2183150E+03  0.7546771E-02  0.1135146E+00
         21   -1    0    0  501  502  0.00000000000E+00  0.00000000000E+00  0.22877910436E+03  0.22877910436E+03  0.00000000000E+00 0. -1.
         21   -1    0    0  502  503 -0.00000000000E+00 -0.00000000000E+00 -0.21938477749E+03  0.21938477749E+03  0.00000000000E+00 0. -1.
          6    1    1    2  501    0 -0.13269427863E+03 -0.21671736970E+02  0.54999538742E+02  0.22513636984E+03  0.17200000000E+03 0. -1.
         -6    1    1    2    0  503  0.13269427863E+03  0.21671736970E+02 -0.45605211870E+02  0.22302751201E+03  0.17200000000E+03 0. -1.
<mgrwt>
<rscale>  2 0.21831499E+03</rscale>
<asrwt>0</asrwt>
<pdfrwt beam="1">  1       21 0.57194776E-01 0.21831499E+03</pdfrwt>
<pdfrwt beam="2">  1       21 0.54846194E-01 0.21831499E+03</pdfrwt>
<totfact> 0.88506056E+03</totfact>
</mgrwt>
</event>
<event>
 4    1  0.1110581E+000  0.1860650E+03  0.7546771E-02  0.1162059E+00
         21   -1    0    0  503  502  0.00000000000E+00  0.00000000000E+00  0.71896182591E+02  0.71896182591E+02  0.00000000000E+00 0. -1.
         21   -1    0    0  501  503 -0.00000000000E+00 -0.00000000000E+00 -0.56949604965E+03  0.56949604965E+03  0.00000000000E+00 0. -1.
          6    1    1    2  501    0 -0.18455419026E+02  0.68524370381E+02 -0.37483897638E+03  0.41847873308E+03  0.17200000000E+03 0. -1.
         -6    1    1    2    0  502  0.18455419026E+02 -0.68524370381E+02 -0.12276089068E+03  0.22291349916E+03  0.17200000000E+03 0. -1.
<mgrwt>
<rscale>  2 0.18606502E+03</rscale>
<asrwt>0</asrwt>
<pdfrwt beam="1">  1       21 0.17974046E-01 0.18606502E+03</pdfrwt>
<pdfrwt beam="2">  1       21 0.14237401E+00 0.18606502E+03</pdfrwt>
<totfact> 0.96918094E+03</totfact>
</mgrwt>
</event>
<event>
 4    1  0.1110581E+000  0.2023467E+03  0.7546771E-02  0.1147774E+00
         21   -1    0    0  503  502  0.00000000000E+00  0.00000000000E+00  0.18724104209E+03  0.18724104209E+03  0.00000000000E+00 0.  1.
         21   -1    0    0  501  503 -0.00000000000E+00 -0.00000000000E+00 -0.26690356287E+03  0.26690356287E+03  0.00000000000E+00 0.  1.
          6    1    1    2  501    0  0.10542902624E+03 -0.15649746679E+02  0.56697549049E+02  0.21013996815E+03  0.17200000000E+03 0.  1.
         -6    1    1    2    0  502 -0.10542902624E+03  0.15649746679E+02 -0.13636006983E+03  0.24400463682E+03  0.17200000000E+03 0.  1.
<mgrwt>
<rscale>  2 0.20234672E+03</rscale>
<asrwt>0</asrwt>
<pdfrwt beam="1">  1       21 0.46810261E-01 0.20234672E+03</pdfrwt>
<pdfrwt beam="2">  1       21 0.66725890E-01 0.20234672E+03</pdfrwt>
<totfact> 0.89319060E+03</totfact>
</mgrwt>
</event>
<event>
 4    1  0.1110581E+000  0.1936834E+03  0.7546771E-02  0.1155181E+00
         21   -1    0    0  503  502  0.00000000000E+00  0.00000000000E+00  0.10472324136E+03  0.10472324136E+03  0.00000000000E+00 0. -1.
         21   -1    0    0  501  503 -0.00000000000E+00 -0.00000000000E+00 -0.36328253844E+03  0.36328253844E+03  0.00000000000E+00 0. -1.
          6    1    1    2  501    0 -0.88945929511E+02 -0.42267216123E+01 -0.10163722121E+03  0.21873126957E+03  0.17200000000E+03 0. -1.
         -6    1    1    2    0  502  0.88945929511E+02  0.42267216123E+01 -0.15692207587E+03  0.24927451023E+03  0.17200000000E+03 0. -1.
<mgrwt>
<rscale>  2 0.19368336E+03</rscale>
<asrwt>0</asrwt>
<pdfrwt beam="1">  1       21 0.26180810E-01 0.19368336E+03</pdfrwt>
<pdfrwt beam="2">  1       21 0.90820634E-01 0.19368336E+03</pdfrwt>
<totfact> 0.14255843E+04</totfact>
</mgrwt>
</event>
<event>
 4    1  0.1110581E+000  0.1799601E+03  0.7546771E-02  0.1167842E+00
         21   -1    0    0  503  502  0.00000000000E+00  0.00000000000E+00  0.34025161343E+03  0.34025161343E+03  0.00000000000E+00 0.  1.
         21   -1    0    0  501  503 -0.00000000000E+00 -0.00000000000E+00 -0.12290586906E+03  0.12290586906E+03  0.00000000000E+00 0.  1.
          6    1    1    2  501    0 -0.47138064679E+02  0.24075479042E+02 -0.13147912091E+01  0.17996487021E+03  0.17200000000E+03 0.  1.
         -6    1    1    2    0  502  0.47138064679E+02 -0.24075479042E+02  0.21866053558E+03  0.28319261228E+03  0.17200000000E+03 0.  1.
<mgrwt>
<rscale>  2 0.17996007E+03</rscale>
<asrwt>0</asrwt>
<pdfrwt beam="1">  1       21 0.85062901E-01 0.17996007E+03</pdfrwt>
<pdfrwt beam="2">  1       21 0.30726468E-01 0.17996007E+03</pdfrwt>
<totfact> 0.12270229E+04</totfact>
</mgrwt>
</event>
<event>
 4    1  0.1110581E+000  0.1780352E+03  0.7546771E-02  0.1169718E+00
         21   -1    0    0  501  502  0.00000000000E+00  0.00000000000E+00  0.21299831082E+03  0.21299831082E+03  0.00000000000E+00 0.  1.
         21   -1    0    0  502  503 -0.00000000000E+00 -0.00000000000E+00 -0.15698366116E+03  0.15698366116E+03  0.00000000000E+00 0.  1.
          6    1    1    2  501    0 -0.17051802616E+02  0.42682006686E+02  0.70216011500E+02  0.19138131032E+03  0.17200000000E+03 0.  1.
         -6    1    1    2    0  503  0.17051802616E+02 -0.42682006686E+02 -0.14201361843E+02  0.17860066166E+03  0.17200000000E+03 0.  1.
<mgrwt>
<rscale>  2 0.17803516E+03</rscale>
<asrwt>0</asrwt>
<pdfrwt beam="1">  1       21 0.53249578E-01 0.17803516E+03</pdfrwt>
<pdfrwt beam="2">  1       21 0.39245915E-01 0.17803516E+03</pdfrwt>
<totfact> 0.21084662E+04</totfact>
</mgrwt>
</event>
<event>
 4    1  0.1110581E+000  0.1799691E+03  0.7546771E-02  0.1167833E+00
         21   -1    0    0  503  502  0.00000000000E+00  0.00000000000E+00  0.64987085478E+03  0.64987085478E+03  0.00000000000E+00 0.  1.
         21   -1    0    0  501  503 -0.00000000000E+00 -0.00000000000E+00 -0.71783433422E+02  0.71783433422E+02  0.00000000000E+00 0.  1.
          6    1    1    2  501    0 -0.16987403863E+02  0.50162629651E+02  0.89540417496E+02  0.20101330222E+03  0.17200000000E+03 0.  1.
         -6    1    1    2    0  502  0.16987403863E+02 -0.50162629651E+02  0.48854700386E+03  0.52064098599E+03  0.17200000000E+03 0.  1.
<mgrwt>
<rscale>  2 0.17996906E+03</rscale>
<asrwt>0</asrwt>
<pdfrwt beam="1">  1       21 0.16246770E+00 0.17996906E+03</pdfrwt>
<pdfrwt beam="2">  1       21 0.17945860E-01 0.17996906E+03</pdfrwt>
<totfact> 0.68906579E+03</totfact>
</mgrwt>
</event>
<event>
 4    1  0.1110581E+000  0.1733655E+03  0.7546771E-02  0.1174383E+00
         21   -1    0    0  503  502  0.00000000000E+00  0.00000000000E+00  0.45603741604E+03  0.45603741604E+03  0.00000000000E+00 0. -1.
         21   -1    0    0  501  503 -0.00000000000E+00 -0.00000000000E+00 -0.19122841175E+03  0.19122841175E+03  0.00000000000E+00 0. -1.
          6    1    1    2  501    0 -0.18662708541E+02 -0.11104611467E+02 -0.12958918044E+03  0.21644621682E+03  0.17200000000E+03 0. -1.
         -6    1    1    2    0  502  0.18662708541E+02  0.11104611467E+02  0.39439818473E+03  0.43081961098E+03  0.17200000000E+03 0. -1.
<mgrwt>
<rscale>  2 0.17336554E+03</rscale>
<asrwt>0</asrwt>
<pdfrwt beam="1">  1       21 0.11400935E+00 0.17336554E+03</pdfrwt>
<pdfrwt beam="2">  1       21 0.47807104E-01 0.17336554E+03</pdfrwt>
<totfact> 0.25494361E+03</totfact>
</mgrwt>
</event>
<event>
 4    1  0.1110581E+000  0.1803677E+03  0.7546771E-02  0.1167448E+00
         21   -1    0    0  501  502  0.00000000000E+00  0.00000000000E+00  0.19005265558E+03  0.19005265558E+03  0.00000000000E+00 0.  1.
         21   -1    0    0  502  503 -0.00000000000E+00 -0.00000000000E+00 -0.19021368259E+03  0.19021368259E+03  0.00000000000E+00 0.  1.
          6    1    1    2  501    0 -0.33875745988E+02 -0.42437314087E+02  0.60070333196E+02  0.19010769770E+03  0.17200000000E+03 0. -1.
         -6    1    1    2    0  503  0.33875745988E+02  0.42437314087E+02 -0.60231360211E+02  0.19015864047E+03  0.17200000000E+03 0. -1.
<mgrwt>
<rscale>  2 0.18036766E+03</rscale>
<asrwt>0</asrwt>
<pdfrwt beam="1">  1       21 0.47513164E-01 0.18036766E+03</pdfrwt>
<pdfrwt beam="2">  1       21 0.47553421E-01 0.18036766E+03</pdfrwt>
<totfact> 0.18050544E+04</totfact>
</mgrwt>
</event>
<event>
 4    1  0.1110581E+000  0.1775893E+03  0.7546771E-02  0.1170157E+00
         21   -1    0    0  503  502  0.00000000000E+00  0.00000000000E+00  0.66689877828E+02  0.66689877828E+02  0.00000000000E+00 0.  1.
         21   -1    0    0  501  503 -0.00000000000E+00 -0.00000000000E+00 -0.60966358903E+03  0.60966358903E+03  0.00000000000E+00 0.  1.
          6    1    1    2  501    0 -0.15979260948E+02  0.41214339800E+02 -0.43165506927E+03  0.46675909998E+03  0.17200000000E+03 0.  1.
         -6    1    1    2    0  502  0.15979260948E+02 -0.41214339800E+02 -0.11131864193E+03  0.20959436688E+03  0.17200000000E+03 0.  1.
<mgrwt>
<rscale>  2 0.17758930E+03</rscale>
<asrwt>0</asrwt>
<pdfrwt beam="1">  1       21 0.16672470E-01 0.17758930E+03</pdfrwt>
<pdfrwt beam="2">  1       21 0.15241590E+00 0.17758930E+03</pdfrwt>
<totfact> 0.93756037E+03</totfact>
</mgrwt>
</event>
<event>
 4    1  0.1110581E+000  0.2418764E+03  0.7546771E-02  0.1118549E+00
         21   -1    0    0  503  502  0.00000000000E+00  0.00000000000E+00  0.63736514262E+03  0.63736514262E+03  0.00000000000E+00 0. -1.
         21   -1    0    0  501  503 -0.00000000000E+00 -0.00000000000E+00 -0.92370769794E+02  0.92370769794E+02  0.00000000000E+00 0.  1.
          6    1    1    2  501    0 -0.14671119394E+03 -0.86000247136E+02  0.24358411209E+03  0.34327457902E+03  0.17200000000E+03 0. -1.
         -6    1    1    2    0  502  0.14671119394E+03  0.86000247136E+02  0.30141026073E+03  0.38646133340E+03  0.17200000000E+03 0.  1.
<mgrwt>
<rscale>  2 0.24187645E+03</rscale>
<asrwt>0</asrwt>
<pdfrwt beam="1">  1       21 0.15934127E+00 0.24187645E+03</pdfrwt>
<pdfrwt beam="2">  1       21 0.23092694E-01 0.24187645E+03</pdfrwt>
<totfact> 0.43098784E+03</totfact>
</mgrwt>
</event>
<event>
 4    1  0.1110581E+000  0.1967834E+03  0.7546771E-02  0.1152482E+00
         21   -1    0    0  503  502  0.00000000000E+00  0.00000000000E+00  0.14588775345E+03  0.14588775345E+03  0.00000000000E+00 0.  1.
         21   -1    0    0  501  503 -0.00000000000E+00 -0.00000000000E+00 -0.27542434806E+03  0.27542434806E+03  0.00000000000E+00 0. -1.
          6    1    1    2  501    0 -0.82664049746E+02  0.48024661016E+02 -0.10488652517E+03  0.22299079880E+03  0.17200000000E+03 0. -1.
         -6    1    1    2    0  502  0.82664049746E+02 -0.48024661016E+02 -0.24650069448E+02  0.19832130271E+03  0.17200000000E+03 0.  1.
<mgrwt>
<rscale>  2 0.19678342E+03</rscale>
<asrwt>0</asrwt>
<pdfrwt beam="1">  1       21 0.36471939E-01 0.19678342E+03</pdfrwt>
<pdfrwt beam="2">  1       21 0.68856086E-01 0.19678342E+03</pdfrwt>
<totfact> 0.13892703E+04</totfact>
</mgrwt>
</event>
<event>
 4    1  0.1110581E+000  0.2222257E+03  0.7546771E-02  0.1132235E+00
         21   -1    0    0  501  502  0.00000000000E+00  0.00000000000E+00  0.56137713654E+03  0.56137713654E+03  0.00000000000E+00 0. -1.
         21   -1    0    0  502  503 -0.00000000000E+00 -0.00000000000E+00 -0.11851388004E+03  0.11851388004E+03  0.00000000000E+00 0. -1.
          6    1    1    2  501    0 -0.75990767409E+02  0.11842992854E+03  0.39401068588E+03  0.45235900045E+03  0.17200000000E+03 0. -1.
         -6    1    1    2    0  503  0.75990767409E+02 -0.11842992854E+03  0.48852570626E+02  0.22753201613E+03  0.17200000000E+03 0. -1.
<mgrwt>
<rscale>  2 0.22222566E+03</rscale>
<asrwt>0</asrwt>
<pdfrwt beam="1">  1       21 0.14034428E+00 0.22222566E+03</pdfrwt>
<pdfrwt beam="2">  1       21 0.29628472E-01 0.22222566E+03</pdfrwt>
<totfact> 0.37882265E+03</totfact>
</mgrwt>
</event>
<event>
 4    1  0.1110581E+000  0.1761838E+03  0.7546771E-02  0.1171548E+00
         21   -1    0    0  501  502  0.00000000000E+00  0.00000000000E+00  0.67903845560E+03  0.67903845560E+03  0.00000000000E+00 0.  1.
         21   -1    0    0  502  503 -0.00000000000E+00 -0.00000000000E+00 -0.24806444346E+03  0.24806444346E+03  0.00000000000E+00 0.  1.
          6    1    1    2  501    0  0.20491627459E+02 -0.32199749977E+02  0.63415434418E+03  0.65817358116E+03  0.17200000000E+03 0.  1.
         -6    1    1    2    0  503 -0.20491627459E+02  0.32199749977E+02 -0.20318033205E+03  0.26892931790E+03  0.17200000000E+03 0.  1.
<mgrwt>
<rscale>  2 0.17618380E+03</rscale>
<asrwt>0</asrwt>
<pdfrwt beam="1">  1       21 0.16975961E+00 0.17618380E+03</pdfrwt>
<pdfrwt beam="2">  1       21 0.62016112E-01 0.17618380E+03</pdfrwt>
<totfact> 0.52735560E+02</totfact>
</mgrwt>
</event>
<event>
 4    1  0.1110581E+000  0.1822025E+03  0.7546771E-02  0.1165688E+00
         21   -1    0    0  503  502  0.00000000000E+00  0.00000000000E+00  0.41078938432E+03  0.41078938432E+03  0.00000000000E+00 0. -1.
         21   -1    0    0  501  503 -0.00000000000E+00 -0.00000000000E+00 -0.19876849774E+03  0.19876849774E+03  0.00000000000E+00 0. -1.
          6    1    1    2  501    0 -0.37949154017E+02  0.46621869154E+02 -0.12877302731E+03  0.22311483487E+03  0.17200000000E+03 0.  1.
         -6    1    1    2    0  502  0.37949154017E+02 -0.46621869154E+02  0.34079391390E+03  0.38644304719E+03  0.17200000000E+03 0.  1.
<mgrwt>
<rscale>  2 0.18220246E+03</rscale>
<asrwt>0</asrwt>
<pdfrwt beam="1">  1       21 0.10269734E+00 0.18220246E+03</pdfrwt>
<pdfrwt beam="2">  1       21 0.49692125E-01 0.18220246E+03</pdfrwt>
<totfact> 0.30012157E+03</totfact>
</mgrwt>
</event>
<event>
 4    1  0.1110581E+000  0.2444574E+03  0.7546771E-02  0.1116859E+00
         21   -1    0    0  501  502  0.00000000000E+00  0.00000000000E+00  0.31516167355E+03  0.31516167355E+03  0.00000000000E+00 0. -1.
         21   -1    0    0  502  503 -0.00000000000E+00 -0.00000000000E+00 -0.18998001108E+03  0.18998001108E+03  0.00000000000E+00 0. -1.
          6    1    1    2  501    0 -0.13513418668E+03 -0.10915199381E+03  0.73660490912E+02  0.25531406950E+03  0.17200000000E+03 0. -1.
         -6    1    1    2    0  503  0.13513418668E+03  0.10915199381E+03  0.51521171559E+02  0.24982761513E+03  0.17200000000E+03 0. -1.
<mgrwt>
<rscale>  2 0.24445737E+03</rscale>
<asrwt>0</asrwt>
<pdfrwt beam="1">  1       21 0.78790418E-01 0.24445737E+03</pdfrwt>
<pdfrwt beam="2">  1       21 0.47495003E-01 0.24445737E+03</pdfrwt>
<totfact> 0.58214910E+03</totfact>
</mgrwt>
</event>
<event>
 4    1  0.1110581E+000  0.1960633E+03  0.7546771E-02  0.1153104E+00
         21   -1    0    0  501  502  0.00000000000E+00  0.00000000000E+00  0.32851428181E+03  0.32851428181E+03  0.00000000000E+00 0. -1.
         21   -1    0    0  502  503 -0.00000000000E+00 -0.00000000000E+00 -0.11741448546E+03  0.11741448546E+03  0.00000000000E+00 0. -1.
          6    1    1    2  501    0 -0.81945164466E+02  0.46279527610E+02  0.11856990187E+03  0.22912796923E+03  0.17200000000E+03 0. -1.
         -6    1    1    2    0  503  0.81945164466E+02 -0.46279527610E+02  0.92529894481E+02  0.21680079803E+03  0.17200000000E+03 0. -1.
<mgrwt>
<rscale>  2 0.19606327E+03</rscale>
<asrwt>0</asrwt>
<pdfrwt beam="1">  1       21 0.82128568E-01 0.19606327E+03</pdfrwt>
<pdfrwt beam="2">  1       21 0.29353622E-01 0.19606327E+03</pdfrwt>
<totfact> 0.14375865E+04</totfact>
</mgrwt>
</event>
<event>
 4    1  0.1110581E+000  0.2176566E+03  0.7546771E-02  0.1135642E+00
         21   -1    0    0  503  502  0.00000000000E+00  0.00000000000E+00  0.23190368912E+03  0.23190368912E+03  0.00000000000E+00 0.  1.
         21   -1    0    0  501  503 -0.00000000000E+00 -0.00000000000E+00 -0.20754816077E+03  0.20754816077E+03  0.00000000000E+00 0.  1.
          6    1    1    2  501    0 -0.18020338523E+02  0.13215774720E+03 -0.15374243774E+02  0.21819892327E+03  0.17200000000E+03 0.  1.
         -6    1    1    2    0  502  0.18020338523E+02 -0.13215774720E+03  0.39729772133E+02  0.22125292662E+03  0.17200000000E+03 0.  1.
<mgrwt>
<rscale>  2 0.21765662E+03</rscale>
<asrwt>0</asrwt>
<pdfrwt beam="1">  1       21 0.57975922E-01 0.21765662E+03</pdfrwt>
<pdfrwt beam="2">  1       21 0.51887040E-01 0.21765662E+03</pdfrwt>
<totfact> 0.96700841E+03</totfact>
</mgrwt>
</event>
<event>
 4    1  0.1110581E+000  0.1953208E+03  0.7546771E-02  0.1153748E+00
         21   -1    0    0  503  502  0.00000000000E+00  0.00000000000E+00  0.10915207690E+04  0.10915207690E+04  0.00000000000E+00 0.  1.
         21   -1    0    0  501  503 -0.00000000000E+00 -0.00000000000E+00 -0.52311011712E+02  0.52311011712E+02  0.00000000000E+00 0. -1.
          6    1    1    2  501    0  0.25748669629E+02 -0.88900063209E+02  0.19014298372E+03  0.27258864519E+03  0.17200000000E+03 0. -1.
         -6    1    1    2    0  502 -0.25748669629E+02  0.88900063209E+02  0.84906677360E+03  0.87124313556E+03  0.17200000000E+03 0.  1.
<mgrwt>
<rscale>  2 0.19532080E+03</rscale>
<asrwt>0</asrwt>
<pdfrwt beam="1">  1       21 0.27288012E+00 0.19532080E+03</pdfrwt>
<pdfrwt beam="2">  1       21 0.13077756E-01 0.19532080E+03</pdfrwt>
<totfact> 0.24523699E+03</totfact>
</mgrwt>
</event>
<event>
 4    1  0.1110581E+000  0.1750045E+03  0.7546771E-02  0.1172727E+00
         21   -1    0    0  503  502  0.00000000000E+00  0.00000000000E+00  0.51948517887E+02  0.51948517887E+02  0.00000000000E+00 0. -1.
         21   -1    0    0  501  503 -0.00000000000E+00 -0.00000000000E+00 -0.67363811485E+03  0.67363811485E+03  0.00000000000E+00 0. -1.
          6    1    1    2  501    0 -0.26821499555E+02 -0.17977329315E+02 -0.43901791078E+03  0.47261327023E+03  0.17200000000E+03 0.  1.
         -6    1    1    2    0  502  0.26821499555E+02  0.17977329315E+02 -0.18267168619E+03  0.25297336252E+03  0.17200000000E+03 0.  1.
<mgrwt>
<rscale>  2 0.17500451E+03</rscale>
<asrwt>0</asrwt>
<pdfrwt beam="1">  1       21 0.12987130E-01 0.17500451E+03</pdfrwt>
<pdfrwt beam="2">  1       21 0.16840953E+00 0.17500451E+03</pdfrwt>
<totfact> 0.11306670E+04</totfact>
</mgrwt>
</event>
<event>
 4    1  0.1110581E+000  0.1894167E+03  0.7546771E-02  0.1158988E+00
         21   -1    0    0  503  502  0.00000000000E+00  0.00000000000E+00  0.18730432477E+03  0.18730432477E+03  0.00000000000E+00 0.  1.
         21   -1    0    0  501  503 -0.00000000000E+00 -0.00000000000E+00 -0.21309978668E+03  0.21309978668E+03  0.00000000000E+00 0.  1.
          6    1    1    2  501    0 -0.26847670182E+02  0.74658573345E+02 -0.76558014592E+02  0.20430327840E+03  0.17200000000E+03 0.  1.
         -6    1    1    2    0  502  0.26847670182E+02 -0.74658573345E+02  0.50762552678E+02  0.19610083305E+03  0.17200000000E+03 0.  1.
<mgrwt>
<rscale>  2 0.18941674E+03</rscale>
<asrwt>0</asrwt>
<pdfrwt beam="1">  1       21 0.46826081E-01 0.18941674E+03</pdfrwt>
<pdfrwt beam="2">  1       21 0.53274947E-01 0.18941674E+03</pdfrwt>
<totfact> 0.14595655E+04</totfact>
</mgrwt>
</event>
<event>
 4    1  0.1110581E+000  0.2255920E+03  0.7546771E-02  0.1129781E+00
         21   -1    0    0  501  502  0.00000000000E+00  0.00000000000E+00  0.27876939546E+03  0.27876939546E+03  0.00000000000E+00 0. -1.
         21   -1    0    0  502  503 -0.00000000000E+00 -0.00000000000E+00 -0.32007367640E+03  0.32007367640E+03  0.00000000000E+00 0. -1.
          6    1    1    2  501    0 -0.12652539087E+03 -0.72794731358E+02  0.17560850803E+03  0.28588475920E+03  0.17200000000E+03 0. -1.
         -6    1    1    2    0  503  0.12652539087E+03  0.72794731358E+02 -0.21691278897E+03  0.31295831267E+03  0.17200000000E+03 0. -1.
<mgrwt>
<rscale>  2 0.22559199E+03</rscale>
<asrwt>0</asrwt>
<pdfrwt beam="1">  1       21 0.69692349E-01 0.22559199E+03</pdfrwt>
<pdfrwt beam="2">  1       21 0.80018419E-01 0.22559199E+03</pdfrwt>
<totfact> 0.25025447E+03</totfact>
</mgrwt>
</event>
<event>
 4    1  0.1110581E+000  0.2592302E+03  0.7546771E-02  0.1107607E+00
         21   -1    0    0  501  502  0.00000000000E+00  0.00000000000E+00  0.48277212833E+02  0.48277212833E+02  0.00000000000E+00 0.  1.
         21   -1    0    0  502  503 -0.00000000000E+00 -0.00000000000E+00 -0.13957176303E+04  0.13957176303E+04  0.00000000000E+00 0. -1.
          6    1    1    2  501    0 -0.11073922339E+03  0.15922667182E+03 -0.63629508825E+03  0.68707477609E+03  0.17200000000E+03 0.  1.
         -6    1    1    2    0  503  0.11073922339E+03 -0.15922667182E+03 -0.71114532924E+03  0.75692006706E+03  0.17200000000E+03 0. -1.
<mgrwt>
<rscale>  2 0.25923022E+03</rscale>
<asrwt>0</asrwt>
<pdfrwt beam="1">  1       21 0.12069304E-01 0.25923022E+03</pdfrwt>
<pdfrwt beam="2">  1       21 0.34892940E+00 0.25923022E+03</pdfrwt>
<totfact> 0.94785498E+02</totfact>
</mgrwt>
</event>
<event>
 4    1  0.1110581E+000  0.1987371E+03  0.7546771E-02  0.1150809E+00
         21   -1    0    0  503  502  0.00000000000E+00  0.00000000000E+00  0.17370737271E+03  0.17370737271E+03  0.00000000000E+00 0.  1.
         21   -1    0    0  501  503 -0.00000000000E+00 -0.00000000000E+00 -0.23057526484E+03  0.23057526484E+03  0.00000000000E+00 0. -1.
          6    1    1    2  501    0 -0.42433339583E+02 -0.90065812233E+02 -0.52254348834E+02  0.20549198479E+03  0.17200000000E+03 0. -1.
         -6    1    1    2    0  502  0.42433339583E+02  0.90065812233E+02 -0.46135433003E+01  0.19879065276E+03  0.17200000000E+03 0.  1.
<mgrwt>
<rscale>  2 0.19873711E+03</rscale>
<asrwt>0</asrwt>
<pdfrwt beam="1">  1       21 0.43426843E-01 0.19873711E+03</pdfrwt>
<pdfrwt beam="2">  1       21 0.57643816E-01 0.19873711E+03</pdfrwt>
<totfact> 0.14333352E+04</totfact>
</mgrwt>
</event>
<event>
 4    1  0.1110581E+000  0.1724414E+03  0.7546771E-02  0.1175326E+00
         21   -1    0    0  501  502  0.00000000000E+00  0.00000000000E+00  0.79687771940E+02  0.79687771940E+02  0.00000000000E+00 0.  1.
         21   -1    0    0  502  503 -0.00000000000E+00 -0.00000000000E+00 -0.49333151037E+03  0.49333151037E+03  0.00000000000E+00 0.  1.
          6    1    1    2  501    0 -0.12329293812E+02 -0.13107152997E+00 -0.65413056706E+02  0.18443127894E+03  0.17200000000E+03 0. -1.
         -6    1    1    2    0  503  0.12329293812E+02  0.13107152997E+00 -0.34823068173E+03  0.38858800337E+03  0.17200000000E+03 0. -1.
<mgrwt>
<rscale>  2 0.17244138E+03</rscale>
<asrwt>0</asrwt>
<pdfrwt beam="1">  1       21 0.19921943E-01 0.17244138E+03</pdfrwt>
<pdfrwt beam="2">  1       21 0.12333288E+00 0.17244138E+03</pdfrwt>
<totfact> 0.11639885E+04</totfact>
</mgrwt>
</event>
<event>
 4    1  0.1110581E+000  0.1877721E+03  0.7546771E-02  0.1160486E+00
         21   -1    0    0  503  502  0.00000000000E+00  0.00000000000E+00  0.57247506005E+02  0.57247506005E+02  0.00000000000E+00 0.  1.
         21   -1    0    0  501  503 -0.00000000000E+00 -0.00000000000E+00 -0.62663988715E+03  0.62663988715E+03  0.00000000000E+00 0.  1.
          6    1    1    2  501    0 -0.44082670099E+02  0.61082668902E+02 -0.23991720894E+03  0.30466151938E+03  0.17200000000E+03 0.  1.
         -6    1    1    2    0  502  0.44082670099E+02 -0.61082668902E+02 -0.32947517220E+03  0.37922587378E+03  0.17200000000E+03 0.  1.
<mgrwt>
<rscale>  2 0.18777213E+03</rscale>
<asrwt>0</asrwt>
<pdfrwt beam="1">  1       21 0.14311877E-01 0.18777213E+03</pdfrwt>
<pdfrwt beam="2">  1       21 0.15665997E+00 0.18777213E+03</pdfrwt>
<totfact> 0.11422591E+04</totfact>
</mgrwt>
</event>
<event>
 4    1  0.1110581E+000  0.3270465E+03  0.7546771E-02  0.1072451E+00
         21   -1    0    0  503  502  0.00000000000E+00  0.00000000000E+00  0.13515361876E+03  0.13515361876E+03  0.00000000000E+00 0.  1.
         21   -1    0    0  501  503 -0.00000000000E+00 -0.00000000000E+00 -0.97320830659E+03  0.97320830659E+03  0.00000000000E+00 0.  1.
          6    1    1    2  501    0  0.13890138991E+03  0.24100171301E+03 -0.65856055750E+03  0.73529683101E+03  0.17200000000E+03 0.  1.
         -6    1    1    2    0  502 -0.13890138991E+03 -0.24100171301E+03 -0.17949413033E+03  0.37306509434E+03  0.17200000000E+03 0.  1.
<mgrwt>
<rscale>  2 0.32704651E+03</rscale>
<asrwt>0</asrwt>
<pdfrwt beam="1">  1       21 0.33788406E-01 0.32704651E+03</pdfrwt>
<pdfrwt beam="2">  1       21 0.24330207E+00 0.32704651E+03</pdfrwt>
<totfact> 0.53888682E+02</totfact>
</mgrwt>
</event>
<event>
 4    1  0.1110581E+000  0.1987869E+03  0.7546771E-02  0.1150767E+00
         21   -1    0    0  501  502  0.00000000000E+00  0.00000000000E+00  0.24873383556E+03  0.24873383556E+03  0.00000000000E+00 0.  1.
         21   -1    0    0  502  503 -0.00000000000E+00 -0.00000000000E+00 -0.18931927361E+03  0.18931927361E+03  0.00000000000E+00 0. -1.
          6    1    1    2  501    0  0.34615941581E+02 -0.93455615284E+02  0.11754711857E+03  0.23094055625E+03  0.17200000000E+03 0.  1.
         -6    1    1    2    0  503 -0.34615941581E+02  0.93455615284E+02 -0.58132556614E+02  0.20711255292E+03  0.17200000000E+03 0. -1.
<mgrwt>
<rscale>  2 0.19878686E+03</rscale>
<asrwt>0</asrwt>
<pdfrwt beam="1">  1       21 0.62183459E-01 0.19878686E+03</pdfrwt>
<pdfrwt beam="2">  1       21 0.47329819E-01 0.19878686E+03</pdfrwt>
<totfact> 0.10202548E+04</totfact>
</mgrwt>
</event>
<event>
 4    1  0.1110581E+000  0.1809350E+03  0.7546771E-02  0.1166901E+00
         21   -1    0    0  501  502  0.00000000000E+00  0.00000000000E+00  0.76527719777E+03  0.76527719777E+03  0.00000000000E+00 0.  1.
         21   -1    0    0  502  503 -0.00000000000E+00 -0.00000000000E+00 -0.73432369234E+02  0.73432369234E+02  0.00000000000E+00 0.  1.
          6    1    1    2  501    0 -0.45766969760E+02 -0.32539870596E+02  0.61686672492E+03  0.64285458310E+03  0.17200000000E+03 0.  1.
         -6    1    1    2    0  503  0.45766969760E+02  0.32539870596E+02  0.74978103622E+02  0.19585498391E+03  0.17200000000E+03 0.  1.
<mgrwt>
<rscale>  2 0.18093496E+03</rscale>
<asrwt>0</asrwt>
<pdfrwt beam="1">  1       21 0.19131927E+00 0.18093496E+03</pdfrwt>
<pdfrwt beam="2">  1       21 0.18358095E-01 0.18093496E+03</pdfrwt>
<totfact> 0.41852228E+03</totfact>
</mgrwt>
</event>
<event>
 4    1  0.1110581E+000  0.2102338E+03  0.7546771E-02  0.1141381E+00
         21   -1    0    0  501  502  0.00000000000E+00  0.00000000000E+00  0.15628481307E+03  0.15628481307E+03  0.00000000000E+00 0. -1.
         21   -1    0    0  502  503 -0.00000000000E+00 -0.00000000000E+00 -0.31257789129E+03  0.31257789129E+03  0.00000000000E+00 0.  1.
          6    1    1    2  501    0 -0.38375478615E+02 -0.11463665030E+03 -0.15049708709E+03  0.25854905178E+03  0.17200000000E+03 0.  1.
         -6    1    1    2    0  503  0.38375478615E+02  0.11463665030E+03 -0.57959911293E+01  0.21031365258E+03  0.17200000000E+03 0. -1.
<mgrwt>
<rscale>  2 0.21023377E+03</rscale>
<asrwt>0</asrwt>
<pdfrwt beam="1">  1       21 0.39071204E-01 0.21023377E+03</pdfrwt>
<pdfrwt beam="2">  1       21 0.78144472E-01 0.21023377E+03</pdfrwt>
<totfact> 0.90470787E+03</totfact>
</mgrwt>
</event>
<event>
 4    1  0.1110581E+000  0.1770065E+03  0.7546771E-02  0.1170732E+00
         21   -1    0    0  503  502  0.00000000000E+00  0.00000000000E+00  0.18025175725E+03  0.18025175725E+03  0.00000000000E+00 0.  1.
         21   -1    0    0  501  503 -0.00000000000E+00 -0.00000000000E+00 -0.17482907388E+03  0.17482907388E+03  0.00000000000E+00 0.  1.
          6    1    1    2  501    0 -0.91697490856E+01  0.40782405923E+02  0.16202127482E+02  0.17774644263E+03  0.17200000000E+03 0.  1.
         -6    1    1    2    0  502  0.91697490856E+01 -0.40782405923E+02 -0.10779444120E+02  0.17733438851E+03  0.17200000000E+03 0.  1.
<mgrwt>
<rscale>  2 0.17700647E+03</rscale>
<asrwt>0</asrwt>
<pdfrwt beam="1">  1       21 0.45062939E-01 0.17700647E+03</pdfrwt>
<pdfrwt beam="2">  1       21 0.43707269E-01 0.17700647E+03</pdfrwt>
<totfact> 0.23983374E+04</totfact>
</mgrwt>
</event>
<event>
 4    1  0.1110581E+000  0.2014522E+03  0.7546771E-02  0.1148520E+00
         21   -1    0    0  501  502  0.00000000000E+00  0.00000000000E+00  0.59506671622E+03  0.59506671622E+03  0.00000000000E+00 0.  1.
         21   -1    0    0  502  503 -0.00000000000E+00 -0.00000000000E+00 -0.71274390672E+02  0.71274390672E+02  0.00000000000E+00 0. -1.
          6    1    1    2  501    0 -0.98041142920E+02  0.37241641697E+02  0.33110220218E+03  0.38757150807E+03  0.17200000000E+03 0.  1.
         -6    1    1    2    0  503  0.98041142920E+02 -0.37241641697E+02  0.19269012337E+03  0.27876959882E+03  0.17200000000E+03 0.  1.
<mgrwt>
<rscale>  2 0.20145224E+03</rscale>
<asrwt>0</asrwt>
<pdfrwt beam="1">  1       21 0.14876666E+00 0.20145224E+03</pdfrwt>
<pdfrwt beam="2">  1       21 0.17818599E-01 0.20145224E+03</pdfrwt>
<totfact> 0.86789104E+03</totfact>
</mgrwt>
</event>
<event>
 4    1  0.1110581E+000  0.1922026E+03  0.7546771E-02  0.1156490E+00
         21   -1    0    0  501  502  0.00000000000E+00  0.00000000000E+00  0.28686574990E+02  0.28686574990E+02  0.00000000000E+00 0. -1.
         21   -1    0    0  502  503 -0.00000000000E+00 -0.00000000000E+00 -0.13135519803E+04  0.13135519803E+04  0.00000000000E+00 0.  1.
          6    1    1    2  501    0 -0.62746982488E+02  0.58486490371E+02 -0.54841874845E+03  0.58112389128E+03  0.17200000000E+03 0. -1.
         -6    1    1    2    0  503  0.62746982488E+02 -0.58486490371E+02 -0.73644665685E+03  0.76111466400E+03  0.17200000000E+03 0. -1.
<mgrwt>
<rscale>  2 0.19220264E+03</rscale>
<asrwt>0</asrwt>
<pdfrwt beam="1">  1       21 0.71716440E-02 0.19220264E+03</pdfrwt>
<pdfrwt beam="2">  1       21 0.32838798E+00 0.19220264E+03</pdfrwt>
<totfact> 0.33962454E+03</totfact>
</mgrwt>
</event>
<event>
 4    1  0.1110581E+000  0.2122338E+03  0.7546771E-02  0.1139809E+00
         21   -1    0    0  503  502  0.00000000000E+00  0.00000000000E+00  0.36117371281E+02  0.36117371281E+02  0.00000000000E+00 0. -1.
         21   -1    0    0  501  503 -0.00000000000E+00 -0.00000000000E+00 -0.17078820299E+04  0.17078820299E+04  0.00000000000E+00 0. -1.
          6    1    1    2  501    0  0.34267738155E+02 -0.11951955420E+03 -0.38296478411E+03  0.43784155534E+03  0.17200000000E+03 0. -1.
         -6    1    1    2    0  502 -0.34267738155E+02  0.11951955420E+03 -0.12887998745E+04  0.13061578458E+04  0.17200000000E+03 0. -1.
<mgrwt>
<rscale>  2 0.21223384E+03</rscale>
<asrwt>0</asrwt>
<pdfrwt beam="1">  1       21 0.90293427E-02 0.21223384E+03</pdfrwt>
<pdfrwt beam="2">  1       21 0.42697051E+00 0.21223384E+03</pdfrwt>
<totfact> 0.55407623E+02</totfact>
</mgrwt>
</event>
<event>
 4    1  0.1110581E+000  0.1827114E+03  0.7546771E-02  0.1165204E+00
         21   -1    0    0  501  502  0.00000000000E+00  0.00000000000E+00  0.47069557958E+03  0.47069557958E+03  0.00000000000E+00 0.  1.
         21   -1    0    0  502  503 -0.00000000000E+00 -0.00000000000E+00 -0.15232189011E+03  0.15232189011E+03  0.00000000000E+00 0.  1.
          6    1    1    2  501    0 -0.61467655788E+02  0.46020281173E+01  0.38690442509E+03  0.42787671768E+03  0.17200000000E+03 0.  1.
         -6    1    1    2    0  503  0.61467655788E+02 -0.46020281173E+01 -0.68530735619E+02  0.19514075201E+03  0.17200000000E+03 0.  1.
<mgrwt>
<rscale>  2 0.18271139E+03</rscale>
<asrwt>0</asrwt>
<pdfrwt beam="1">  1       21 0.11767389E+00 0.18271139E+03</pdfrwt>
<pdfrwt beam="2">  1       21 0.38080474E-01 0.18271139E+03</pdfrwt>
<totfact> 0.37174135E+03</totfact>
</mgrwt>
</event>
<event>
 4    1  0.1110581E+000  0.1767301E+03  0.7546771E-02  0.1171006E+00
         21   -1    0    0  503  502  0.00000000000E+00  0.00000000000E+00  0.19047877996E+02  0.19047877996E+02  0.00000000000E+00 0. -1.
         21   -1    0    0  501  503 -0.00000000000E+00 -0.00000000000E+00 -0.16708324900E+04  0.16708324900E+04  0.00000000000E+00 0. -1.
          6    1    1    2  501    0  0.29261144805E+02  0.28165948741E+02 -0.94115773400E+03  0.95760713005E+03  0.17200000000E+03 0.  1.
         -6    1    1    2    0  502 -0.29261144805E+02 -0.28165948741E+02 -0.71062687799E+03  0.73227323793E+03  0.17200000000E+03 0.  1.
<mgrwt>
<rscale>  2 0.17673012E+03</rscale>
<asrwt>0</asrwt>
<pdfrwt beam="1">  1       21 0.47619699E-02 0.17673012E+03</pdfrwt>
<pdfrwt beam="2">  1       21 0.41770809E+00 0.17673012E+03</pdfrwt>
<totfact> 0.20194783E+03</totfact>
</mgrwt>
</event>
<event>
 4    1  0.1110581E+000  0.2054686E+03  0.7546771E-02  0.1145205E+00
         21   -1    0    0  503  502  0.00000000000E+00  0.00000000000E+00  0.41578142420E+03  0.41578142420E+03  0.00000000000E+00 0. -1.
         21   -1    0    0  501  503 -0.00000000000E+00 -0.00000000000E+00 -0.16011391582E+03  0.16011391582E+03  0.00000000000E+00 0. -1.
          6    1    1    2  501    0 -0.81973606079E+02  0.76900318226E+02  0.30199883997E+03  0.36526788852E+03  0.17200000000E+03 0. -1.
         -6    1    1    2    0  502  0.81973606079E+02 -0.76900318226E+02 -0.46331331593E+02  0.21062745150E+03  0.17200000000E+03 0. -1.
<mgrwt>
<rscale>  2 0.20546856E+03</rscale>
<asrwt>0</asrwt>
<pdfrwt beam="1">  1       21 0.10394535E+00 0.20546856E+03</pdfrwt>
<pdfrwt beam="2">  1       21 0.40028480E-01 0.20546856E+03</pdfrwt>
<totfact> 0.44561352E+03</totfact>
</mgrwt>
</event>
<event>
 4    1  0.1110581E+000  0.1813079E+03  0.7546771E-02  0.1166543E+00
         21   -1    0    0  501  502  0.00000000000E+00  0.00000000000E+00  0.11597452072E+03  0.11597452072E+03  0.00000000000E+00 0.  1.
         21   -1    0    0  502  503 -0.00000000000E+00 -0.00000000000E+00 -0.28425974003E+03  0.28425974003E+03  0.00000000000E+00 0.  1.
          6    1    1    2  501    0  0.30703693775E+02  0.48433978480E+02 -0.94846638079E+02  0.20461781896E+03  0.17200000000E+03 0.  1.
         -6    1    1    2    0  503 -0.30703693775E+02 -0.48433978480E+02 -0.73438581238E+02  0.19561644179E+03  0.17200000000E+03 0.  1.
<mgrwt>
<rscale>  2 0.18130793E+03</rscale>
<asrwt>0</asrwt>
<pdfrwt beam="1">  1       21 0.28993630E-01 0.18130793E+03</pdfrwt>
<pdfrwt beam="2">  1       21 0.71064934E-01 0.18130793E+03</pdfrwt>
<totfact> 0.20546724E+04</totfact>
</mgrwt>
</event>
<event>
 4    1  0.1110581E+000  0.3152315E+03  0.7546771E-02  0.1077865E+00
         21   -1    0    0  501  502  0.00000000000E+00  0.00000000000E+00  0.90301915583E+03  0.90301915583E+03  0.00000000000E+00 0.  1.
         21   -1    0    0  502  503 -0.00000000000E+00 -0.00000000000E+00 -0.11047241335E+03  0.11047241335E+03  0.00000000000E+00 0. -1.
          6    1    1    2  501    0 -0.66719958859E+01 -0.26408784692E+03  0.42786835219E+03  0.53145294545E+03  0.17200000000E+03 0. -1.
         -6    1    1    2    0  503  0.66719958859E+01  0.26408784692E+03  0.36467839029E+03  0.48203862373E+03  0.17200000000E+03 0.  1.
<mgrwt>
<rscale>  2 0.31523151E+03</rscale>
<asrwt>0</asrwt>
<pdfrwt beam="1">  1       21 0.22575477E+00 0.31523151E+03</pdfrwt>
<pdfrwt beam="2">  1       21 0.27618106E-01 0.31523151E+03</pdfrwt>
<totfact> 0.10384302E+03</totfact>
</mgrwt>
</event>
<event>
 4    1  0.1110581E+000  0.2713993E+03  0.7546771E-02  0.1100481E+00
         21   -1    0    0  501  502  0.00000000000E+00  0.00000000000E+00  0.25907512433E+03  0.25907512433E+03  0.00000000000E+00 0. -1.
         21   -1    0    0  502  503 -0.00000000000E+00 -0.00000000000E+00 -0.53008235674E+03  0.53008235674E+03  0.00000000000E+00 0.  1.
          6    1    1    2  501    0  0.34323467111E+02  0.20711221484E+03  0.13317233358E+03  0.30231182637E+03  0.17200000000E+03 0. -1.
         -6    1    1    2    0  503 -0.34323467111E+02 -0.20711221484E+03 -0.40417956599E+03  0.48684565470E+03  0.17200000000E+03 0.  1.
<mgrwt>
<rscale>  2 0.27139928E+03</rscale>
<asrwt>0</asrwt>
<pdfrwt beam="1">  1       21 0.64768781E-01 0.27139928E+03</pdfrwt>
<pdfrwt beam="2">  1       21 0.13252059E+00 0.27139928E+03</pdfrwt>
<totfact> 0.84297090E+02</totfact>
</mgrwt>
</event>
<event>
 4    1  0.1110581E+000  0.2168467E+03  0.7546771E-02  0.1136256E+00
         21   -1    0    0  501  502  0.00000000000E+00  0.00000000000E+00  0.78679700274E+03  0.78679700274E+03  0.00000000000E+00 0. -1.
         21   -1    0    0  502  503 -0.00000000000E+00 -0.00000000000E+00 -0.67135878981E+02  0.67135878981E+02  0.00000000000E+00 0.  1.
          6    1    1    2  501    0  0.86513650471E+02  0.99769069436E+02  0.50130978410E+03  0.54619957760E+03  0.17200000000E+03 0. -1.
         -6    1    1    2    0  503 -0.86513650471E+02 -0.99769069436E+02  0.21835133965E+03  0.30773330412E+03  0.17200000000E+03 0.  1.
<mgrwt>
<rscale>  2 0.21684667E+03</rscale>
<asrwt>0</asrwt>
<pdfrwt beam="1">  1       21 0.19669922E+00 0.21684667E+03</pdfrwt>
<pdfrwt beam="2">  1       21 0.16783972E-01 0.21684667E+03</pdfrwt>
<totfact> 0.44067001E+03</totfact>
</mgrwt>
</event>
<event>
 4    1  0.1110581E+000  0.3028306E+03  0.7546771E-02  0.1083834E+00
         21   -1    0    0  503  502  0.00000000000E+00  0.00000000000E+00  0.67813760831E+03  0.67813760831E+03  0.00000000000E+00 0. -1.
         21   -1    0    0  501  503 -0.00000000000E+00 -0.00000000000E+00 -0.14108071196E+03  0.14108071196E+03  0.00000000000E+00 0.  1.
          6    1    1    2  501    0  0.24913989364E+03 -0.71912542637E+01  0.18513367821E+03  0.35493785308E+03  0.17200000000E+03 0.  1.
         -6    1    1    2    0  502 -0.24913989364E+03  0.71912542637E+01  0.35192321815E+03  0.46428046719E+03  0.17200000000E+03 0. -1.
<mgrwt>
<rscale>  2 0.30283065E+03</rscale>
<asrwt>0</asrwt>
<pdfrwt beam="1">  1       21 0.16953439E+00 0.30283065E+03</pdfrwt>
<pdfrwt beam="2">  1       21 0.35270180E-01 0.30283065E+03</pdfrwt>
<totfact> 0.15231874E+03</totfact>
</mgrwt>
</event>
<event>
 4    1  0.1110581E+000  0.1750416E+03  0.7546771E-02  0.1172690E+00
         21   -1    0    0  501  502  0.00000000000E+00  0.00000000000E+00  0.28987464639E+03  0.28987464639E+03  0.00000000000E+00 0. -1.
         21   -1    0    0  502  503 -0.00000000000E+00 -0.00000000000E+00 -0.27650786727E+03  0.27650786727E+03  0.00000000000E+00 0. -1.
          6    1    1    2  501    0  0.23967172235E+02  0.21935120103E+02  0.22926065298E+03  0.28844413990E+03  0.17200000000E+03 0. -1.
         -6    1    1    2    0  503 -0.23967172235E+02 -0.21935120103E+02 -0.21589387386E+03  0.27793837376E+03  0.17200000000E+03 0. -1.
<mgrwt>
<rscale>  2 0.17504164E+03</rscale>
<asrwt>0</asrwt>
<pdfrwt beam="1">  1       21 0.72468662E-01 0.17504164E+03</pdfrwt>
<pdfrwt beam="2">  1       21 0.69126967E-01 0.17504164E+03</pdfrwt>
<totfact> 0.33190996E+03</totfact>
</mgrwt>
</event>
<event>
 4    1  0.1110581E+000  0.1880931E+03  0.7546771E-02  0.1160193E+00
         21   -1    0    0  501  502  0.00000000000E+00  0.00000000000E+00  0.64507808943E+02  0.64507808943E+02  0.00000000000E+00 0. -1.
         21   -1    0    0  502  503 -0.00000000000E+00 -0.00000000000E+00 -0.56415280918E+03  0.56415280918E+03  0.00000000000E+00 0.  1.
          6    1    1    2  501    0 -0.72293734074E+02  0.23846245437E+02 -0.19737356666E+03  0.27264510306E+03  0.17200000000E+03 0. -1.
         -6    1    1    2    0  503  0.72293734074E+02 -0.23846245437E+02 -0.30227143358E+03  0.35601551507E+03  0.17200000000E+03 0.  1.
<mgrwt>
<rscale>  2 0.18809313E+03</rscale>
<asrwt>0</asrwt>
<pdfrwt beam="1">  1       21 0.16126952E-01 0.18809313E+03</pdfrwt>
<pdfrwt beam="2">  1       21 0.14103820E+00 0.18809313E+03</pdfrwt>
<totfact> 0.12104598E+04</totfact>
</mgrwt>
</event>
<event>
 4    1  0.1110581E+000  0.2477396E+03  0.7546771E-02  0.1114742E+00
         21   -1    0    0  503  502  0.00000000000E+00  0.00000000000E+00  0.58282927829E+03  0.58282927829E+03  0.00000000000E+00 0. -1.
         21   -1    0    0  501  503 -0.00000000000E+00 -0.00000000000E+00 -0.14599126328E+03  0.14599126328E+03  0.00000000000E+00 0.  1.
          6    1    1    2  501    0  0.10981699053E+03 -0.14046762800E+03  0.41079473059E+03  0.47971578732E+03  0.17200000000E+03 0. -1.
         -6    1    1    2    0  502 -0.10981699053E+03  0.14046762800E+03  0.26043284415E+02  0.24910475425E+03  0.17200000000E+03 0.  1.
<mgrwt>
<rscale>  2 0.24773963E+03</rscale>
<asrwt>0</asrwt>
<pdfrwt beam="1">  1       21 0.14570731E+00 0.24773963E+03</pdfrwt>
<pdfrwt beam="2">  1       21 0.36497817E-01 0.24773963E+03</pdfrwt>
<totfact> 0.22290775E+03</totfact>
</mgrwt>
</event>
<event>
 4    1  0.1110581E+000  0.1783015E+03  0.7546771E-02  0.1169457E+00
         21   -1    0    0  503  502  0.00000000000E+00  0.00000000000E+00  0.63078828950E+02  0.63078828950E+02  0.00000000000E+00 0. -1.
         21   -1    0    0  501  503 -0.00000000000E+00 -0.00000000000E+00 -0.57632614839E+03  0.57632614839E+03  0.00000000000E+00 0. -1.
          6    1    1    2  501    0  0.33086297436E+02 -0.33357466881E+02 -0.36988301717E+03  0.41061523360E+03  0.17200000000E+03 0. -1.
         -6    1    1    2    0  502 -0.33086297436E+02  0.33357466881E+02 -0.14336430227E+03  0.22878974374E+03  0.17200000000E+03 0. -1.
<mgrwt>
<rscale>  2 0.17830150E+03</rscale>
<asrwt>0</asrwt>
<pdfrwt beam="1">  1       21 0.15769707E-01 0.17830150E+03</pdfrwt>
<pdfrwt beam="2">  1       21 0.14408154E+00 0.17830150E+03</pdfrwt>
<totfact> 0.12018350E+04</totfact>
</mgrwt>
</event>
<event>
 4    1  0.1110581E+000  0.1989763E+03  0.7546771E-02  0.1150606E+00
         21   -1    0    0  503  502  0.00000000000E+00  0.00000000000E+00  0.55552074533E+03  0.55552074533E+03  0.00000000000E+00 0. -1.
         21   -1    0    0  501  503 -0.00000000000E+00 -0.00000000000E+00 -0.16409835290E+03  0.16409835290E+03  0.00000000000E+00 0. -1.
          6    1    1    2  501    0  0.67558107770E+02  0.73779821124E+02 -0.74910490067E+02  0.21261030420E+03  0.17200000000E+03 0. -1.
         -6    1    1    2    0  502 -0.67558107770E+02 -0.73779821124E+02  0.46633288249E+03  0.50700879403E+03  0.17200000000E+03 0. -1.
<mgrwt>
<rscale>  2 0.19897628E+03</rscale>
<asrwt>0</asrwt>
<pdfrwt beam="1">  1       21 0.13888018E+00 0.19897628E+03</pdfrwt>
<pdfrwt beam="2">  1       21 0.41024590E-01 0.19897628E+03</pdfrwt>
<totfact> 0.20783898E+03</totfact>
</mgrwt>
</event>
<event>
 4    1  0.1110581E+000  0.1809327E+03  0.7546771E-02  0.1166903E+00
         21   -1    0    0  501  502  0.00000000000E+00  0.00000000000E+00  0.55335474893E+02  0.55335474893E+02  0.00000000000E+00 0. -1.
         21   -1    0    0  502  503 -0.00000000000E+00 -0.00000000000E+00 -0.85688040638E+03  0.85688040638E+03  0.00000000000E+00 0. -1.
          6    1    1    2  501    0 -0.53952788583E+02  0.15547722233E+02 -0.14699232890E+03  0.23311666568E+03  0.17200000000E+03 0. -1.
         -6    1    1    2    0  503  0.53952788583E+02 -0.15547722233E+02 -0.65455260259E+03  0.67909921560E+03  0.17200000000E+03 0. -1.
<mgrwt>
<rscale>  2 0.18093268E+03</rscale>
<asrwt>0</asrwt>
<pdfrwt beam="1">  1       21 0.13833869E-01 0.18093268E+03</pdfrwt>
<pdfrwt beam="2">  1       21 0.21422010E+00 0.18093268E+03</pdfrwt>
<totfact> 0.50193605E+03</totfact>
</mgrwt>
</event>
<event>
 4    1  0.1110581E+000  0.1899669E+03  0.7546771E-02  0.1158491E+00
         21   -1    0    0  503  502  0.00000000000E+00  0.00000000000E+00  0.28536483928E+03  0.28536483928E+03  0.00000000000E+00 0.  1.
         21   -1    0    0  501  503 -0.00000000000E+00 -0.00000000000E+00 -0.57396222561E+03  0.57396222561E+03  0.00000000000E+00 0.  1.
          6    1    1    2  501    0  0.80472946416E+02  0.52483432199E+01 -0.52368713371E+03  0.55707778113E+03  0.17200000000E+03 0.  1.
         -6    1    1    2    0  502 -0.80472946416E+02 -0.52483432199E+01  0.23508974738E+03  0.30224928377E+03  0.17200000000E+03 0.  1.
<mgrwt>
<rscale>  2 0.18996695E+03</rscale>
<asrwt>0</asrwt>
<pdfrwt beam="1">  1       21 0.71341211E-01 0.18996695E+03</pdfrwt>
<pdfrwt beam="2">  1       21 0.14349055E+00 0.18996695E+03</pdfrwt>
<totfact> 0.59829585E+02</totfact>
</mgrwt>
</event>
<event>
 4    1  0.1110581E+000  0.1972699E+03  0.7546771E-02  0.1152063E+00
         21   -1    0    0  503  502  0.00000000000E+00  0.00000000000E+00  0.92251720281E+02  0.92251720281E+02  0.00000000000E+00 0. -1.
         21   -1    0    0  501  503 -0.00000000000E+00 -0.00000000000E+00 -0.55562650437E+03  0.55562650437E+03  0.00000000000E+00 0. -1.
          6    1    1    2  501    0 -0.14966388793E+02 -0.95432747470E+02 -0.39064421825E+03  0.43762804679E+03  0.17200000000E+03 0. -1.
         -6    1    1    2    0  502  0.14966388793E+02  0.95432747470E+02 -0.72730565835E+02  0.21025017786E+03  0.17200000000E+03 0. -1.
<mgrwt>
<rscale>  2 0.19726987E+03</rscale>
<asrwt>0</asrwt>
<pdfrwt beam="1">  1       21 0.23062931E-01 0.19726987E+03</pdfrwt>
<pdfrwt beam="2">  1       21 0.13890662E+00 0.19726987E+03</pdfrwt>
<totfact> 0.64236874E+03</totfact>
</mgrwt>
</event>
<event>
 4    1  0.1110581E+000  0.1760346E+03  0.7546771E-02  0.1171697E+00
         21   -1    0    0  503  502  0.00000000000E+00  0.00000000000E+00  0.71897517049E+02  0.71897517049E+02  0.00000000000E+00 0.  1.
         21   -1    0    0  501  503 -0.00000000000E+00 -0.00000000000E+00 -0.46219972555E+03  0.46219972555E+03  0.00000000000E+00 0. -1.
          6    1    1    2  501    0 -0.36116400894E+02  0.99892944530E+01 -0.26452833274E+03  0.31774741422E+03  0.17200000000E+03 0. -1.
         -6    1    1    2    0  502  0.36116400894E+02 -0.99892944530E+01 -0.12577387575E+03  0.21634982838E+03  0.17200000000E+03 0.  1.
<mgrwt>
<rscale>  2 0.17603460E+03</rscale>
<asrwt>0</asrwt>
<pdfrwt beam="1">  1       21 0.17974379E-01 0.17603460E+03</pdfrwt>
<pdfrwt beam="2">  1       21 0.11554993E+00 0.17603460E+03</pdfrwt>
<totfact> 0.16493306E+04</totfact>
</mgrwt>
</event>
<event>
 4    1  0.1110581E+000  0.2080381E+03  0.7546771E-02  0.1143129E+00
         21   -1    0    0  503  502  0.00000000000E+00  0.00000000000E+00  0.14591728779E+03  0.14591728779E+03  0.00000000000E+00 0.  1.
         21   -1    0    0  501  503 -0.00000000000E+00 -0.00000000000E+00 -0.57788728817E+03  0.57788728817E+03  0.00000000000E+00 0. -1.
          6    1    1    2  501    0 -0.99922557142E+02 -0.60920682279E+02 -0.46847296849E+03  0.51258830377E+03  0.17200000000E+03 0. -1.
         -6    1    1    2    0  502  0.99922557142E+02  0.60920682279E+02  0.36502968109E+02  0.21121627219E+03  0.17200000000E+03 0.  1.
<mgrwt>
<rscale>  2 0.20803809E+03</rscale>
<asrwt>0</asrwt>
<pdfrwt beam="1">  1       21 0.36479322E-01 0.20803809E+03</pdfrwt>
<pdfrwt beam="2">  1       21 0.14447182E+00 0.20803809E+03</pdfrwt>
<totfact> 0.23566490E+03</totfact>
</mgrwt>
</event>
<event>
 4    1  0.1110581E+000  0.2079501E+03  0.7546771E-02  0.1143200E+00
         21   -1    0    0  503  502  0.00000000000E+00  0.00000000000E+00  0.23653279070E+03  0.23653279070E+03  0.00000000000E+00 0. -1.
         21   -1    0    0  501  503 -0.00000000000E+00 -0.00000000000E+00 -0.25845043616E+03  0.25845043616E+03  0.00000000000E+00 0. -1.
          6    1    1    2  501    0  0.29946518228E+02 -0.11297106336E+03 -0.14483895880E+03  0.25341976856E+03  0.17200000000E+03 0. -1.
         -6    1    1    2    0  502 -0.29946518228E+02  0.11297106336E+03  0.12292131334E+03  0.24156345830E+03  0.17200000000E+03 0. -1.
<mgrwt>
<rscale>  2 0.20795013E+03</rscale>
<asrwt>0</asrwt>
<pdfrwt beam="1">  1       21 0.59133198E-01 0.20795013E+03</pdfrwt>
<pdfrwt beam="2">  1       21 0.64612609E-01 0.20795013E+03</pdfrwt>
<totfact> 0.58353682E+03</totfact>
</mgrwt>
</event>
<event>
 4    1  0.1110581E+000  0.1885904E+03  0.7546771E-02  0.1159739E+00
         21   -1    0    0  503  502  0.00000000000E+00  0.00000000000E+00  0.14819102642E+03  0.14819102642E+03  0.00000000000E+00 0. -1.
         21   -1    0    0  501  503 -0.00000000000E+00 -0.00000000000E+00 -0.50366684928E+03  0.50366684928E+03  0.00000000000E+00 0. -1.
          6    1    1    2  501    0 -0.40312746631E+02 -0.66009227434E+02 -0.41355554846E+03  0.45452670692E+03  0.17200000000E+03 0. -1.
         -6    1    1    2    0  502  0.40312746631E+02  0.66009227434E+02  0.58079725594E+02  0.19733116878E+03  0.17200000000E+03 0. -1.
<mgrwt>
<rscale>  2 0.18859039E+03</rscale>
<asrwt>0</asrwt>
<pdfrwt beam="1">  1       21 0.37047757E-01 0.18859039E+03</pdfrwt>
<pdfrwt beam="2">  1       21 0.12591671E+00 0.18859039E+03</pdfrwt>
<totfact> 0.33028717E+03</totfact>
</mgrwt>
</event>
<event>
 4    1  0.1110581E+000  0.2395673E+03  0.7546771E-02  0.1120081E+00
         21   -1    0    0  503  502  0.00000000000E+00  0.00000000000E+00  0.30262505040E+03  0.30262505040E+03  0.00000000000E+00 0.  1.
         21   -1    0    0  501  503 -0.00000000000E+00 -0.00000000000E+00 -0.19022124323E+03  0.19022124323E+03  0.00000000000E+00 0.  1.
          6    1    1    2  501    0  0.16851996389E+02  0.16590516711E+03  0.42685152191E+02  0.24334037165E+03  0.17200000000E+03 0.  1.
         -6    1    1    2    0  502 -0.16851996389E+02 -0.16590516711E+03  0.69718654976E+02  0.24950592199E+03  0.17200000000E+03 0.  1.
<mgrwt>
<rscale>  2 0.23956735E+03</rscale>
<asrwt>0</asrwt>
<pdfrwt beam="1">  1       21 0.75656262E-01 0.23956735E+03</pdfrwt>
<pdfrwt beam="2">  1       21 0.47555311E-01 0.23956735E+03</pdfrwt>
<totfact> 0.63828107E+03</totfact>
</mgrwt>
</event>
<event>
 4    1  0.1110581E+000  0.1820122E+03  0.7546771E-02  0.1165870E+00
         21   -1    0    0  503  502  0.00000000000E+00  0.00000000000E+00  0.25621827490E+03  0.25621827490E+03  0.00000000000E+00 0. -1.
         21   -1    0    0  501  503 -0.00000000000E+00 -0.00000000000E+00 -0.14553366055E+03  0.14553366055E+03  0.00000000000E+00 0. -1.
          6    1    1    2  501    0  0.49481785228E+02  0.33106069109E+02 -0.11751731032E+02  0.18239123352E+03  0.17200000000E+03 0. -1.
         -6    1    1    2    0  502 -0.49481785228E+02 -0.33106069109E+02  0.12243634538E+03  0.21936070193E+03  0.17200000000E+03 0. -1.
<mgrwt>
<rscale>  2 0.18201225E+03</rscale>
<asrwt>0</asrwt>
<pdfrwt beam="1">  1       21 0.64054568E-01 0.18201225E+03</pdfrwt>
<pdfrwt beam="2">  1       21 0.36383415E-01 0.18201225E+03</pdfrwt>
<totfact> 0.16500983E+04</totfact>
</mgrwt>
</event>
<event>
 4    1  0.1110581E+000  0.2448865E+03  0.7546771E-02  0.1116580E+00
         21   -1    0    0  503  502  0.00000000000E+00  0.00000000000E+00  0.19726235687E+03  0.19726235687E+03  0.00000000000E+00 0. -1.
         21   -1    0    0  501  503 -0.00000000000E+00 -0.00000000000E+00 -0.30811338225E+03  0.30811338225E+03  0.00000000000E+00 0.  1.
          6    1    1    2  501    0  0.17131693096E+03 -0.32185578763E+02 -0.84592243458E+02  0.25908541056E+03  0.17200000000E+03 0.  1.
         -6    1    1    2    0  502 -0.17131693096E+03  0.32185578763E+02 -0.26258781929E+02  0.24629032856E+03  0.17200000000E+03 0. -1.
<mgrwt>
<rscale>  2 0.24488651E+03</rscale>
<asrwt>0</asrwt>
<pdfrwt beam="1">  1       21 0.49315589E-01 0.24488651E+03</pdfrwt>
<pdfrwt beam="2">  1       21 0.77028345E-01 0.24488651E+03</pdfrwt>
<totfact> 0.56630249E+03</totfact>
</mgrwt>
</event>
<event>
 4    1  0.1110581E+000  0.2182313E+03  0.7546771E-02  0.1135209E+00
         21   -1    0    0  503  502  0.00000000000E+00  0.00000000000E+00  0.76531309896E+03  0.76531309896E+03  0.00000000000E+00 0. -1.
         21   -1    0    0  501  503 -0.00000000000E+00 -0.00000000000E+00 -0.66338496021E+02  0.66338496021E+02  0.00000000000E+00 0. -1.
          6    1    1    2  501    0  0.42933115017E+02  0.12727001163E+03  0.24599539878E+03  0.32884440766E+03  0.17200000000E+03 0. -1.
         -6    1    1    2    0  502 -0.42933115017E+02 -0.12727001163E+03  0.45297920416E+03  0.50280718732E+03  0.17200000000E+03 0. -1.
<mgrwt>
<rscale>  2 0.21823132E+03</rscale>
<asrwt>0</asrwt>
<pdfrwt beam="1">  1       21 0.19132825E+00 0.21823132E+03</pdfrwt>
<pdfrwt beam="2">  1       21 0.16584626E-01 0.21823132E+03</pdfrwt>
<totfact> 0.48799240E+03</totfact>
</mgrwt>
</event>
<event>
 4    1  0.1110581E+000  0.1743323E+03  0.7546771E-02  0.1173404E+00
         21   -1    0    0  503  502  0.00000000000E+00  0.00000000000E+00  0.31699815072E+03  0.31699815072E+03  0.00000000000E+00 0.  1.
         21   -1    0    0  501  503 -0.00000000000E+00 -0.00000000000E+00 -0.10844482823E+03  0.10844482823E+03  0.00000000000E+00 0.  1.
          6    1    1    2  501    0 -0.25885129600E+02 -0.11735242009E+02  0.31850462405E+02  0.17721796691E+03  0.17200000000E+03 0.  1.
         -6    1    1    2    0  502  0.25885129600E+02  0.11735242009E+02  0.17670286009E+03  0.24822501204E+03  0.17200000000E+03 0.  1.
<mgrwt>
<rscale>  2 0.17433231E+03</rscale>
<asrwt>0</asrwt>
<pdfrwt beam="1">  1       21 0.79249536E-01 0.17433231E+03</pdfrwt>
<pdfrwt beam="2">  1       21 0.27111208E-01 0.17433231E+03</pdfrwt>
<totfact> 0.18426291E+04</totfact>
</mgrwt>
</event>
<event>
 4    1  0.1110581E+000  0.1723992E+03  0.7546771E-02  0.1175369E+00
         21   -1    0    0  501  502  0.00000000000E+00  0.00000000000E+00  0.21130719957E+03  0.21130719957E+03  0.00000000000E+00 0.  1.
         21   -1    0    0  502  503 -0.00000000000E+00 -0.00000000000E+00 -0.18335806023E+03  0.18335806023E+03  0.00000000000E+00 0.  1.
          6    1    1    2  501    0 -0.45818598300E+01  0.10793629598E+02 -0.81256011286E+02  0.19058865457E+03  0.17200000000E+03 0. -1.
         -6    1    1    2    0  503  0.45818598300E+01 -0.10793629598E+02  0.10920515063E+03  0.20407660523E+03  0.17200000000E+03 0. -1.
<mgrwt>
<rscale>  2 0.17239923E+03</rscale>
<asrwt>0</asrwt>
<pdfrwt beam="1">  1       21 0.52826800E-01 0.17239923E+03</pdfrwt>
<pdfrwt beam="2">  1       21 0.45839515E-01 0.17239923E+03</pdfrwt>
<totfact> 0.15694792E+04</totfact>
</mgrwt>
</event>
<event>
 4    1  0.1110581E+000  0.1751624E+03  0.7546771E-02  0.1172569E+00
         21   -1    0    0  503  502  0.00000000000E+00  0.00000000000E+00  0.61478516491E+02  0.61478516491E+02  0.00000000000E+00 0.  1.
         21   -1    0    0  501  503 -0.00000000000E+00 -0.00000000000E+00 -0.11044941369E+04  0.11044941369E+04  0.00000000000E+00 0.  1.
          6    1    1    2  501    0  0.13545695301E+01 -0.33106547123E+02 -0.95313393455E+03  0.96909554509E+03  0.17200000000E+03 0.  1.
         -6    1    1    2    0  502 -0.13545695301E+01  0.33106547123E+02 -0.89881685861E+02  0.19687710830E+03  0.17200000000E+03 0.  1.
<mgrwt>
<rscale>  2 0.17516243E+03</rscale>
<asrwt>0</asrwt>
<pdfrwt beam="1">  1       21 0.15369630E-01 0.17516243E+03</pdfrwt>
<pdfrwt beam="2">  1       21 0.27612351E+00 0.17516243E+03</pdfrwt>
<totfact> 0.17980673E+03</totfact>
</mgrwt>
</event>
<event>
 4    1  0.1110581E+000  0.2776301E+03  0.7546771E-02  0.1096990E+00
         21   -1    0    0  501  502  0.00000000000E+00  0.00000000000E+00  0.11169875696E+04  0.11169875696E+04  0.00000000000E+00 0.  1.
         21   -1    0    0  502  503 -0.00000000000E+00 -0.00000000000E+00 -0.29022880679E+03  0.29022880679E+03  0.00000000000E+00 0. -1.
          6    1    1    2  501    0  0.21392911638E+03  0.41578790668E+02  0.10276728689E+04  0.10645139681E+04  0.17200000000E+03 0.  1.
         -6    1    1    2    0  503 -0.21392911638E+03 -0.41578790668E+02 -0.20091410609E+03  0.34270240836E+03  0.17200000000E+03 0. -1.
<mgrwt>
<rscale>  2 0.27763008E+03</rscale>
<asrwt>0</asrwt>
<pdfrwt beam="1">  1       21 0.27924688E+00 0.27763008E+03</pdfrwt>
<pdfrwt beam="2">  1       21 0.72557205E-01 0.27763008E+03</pdfrwt>
<totfact> 0.68528163E+01</totfact>
</mgrwt>
</event>
<event>
 4    1  0.1110581E+000  0.1849346E+03  0.7546771E-02  0.1163111E+00
         21   -1    0    0  501  502  0.00000000000E+00  0.00000000000E+00  0.12993001641E+03  0.12993001641E+03  0.00000000000E+00 0. -1.
         21   -1    0    0  502  503 -0.00000000000E+00 -0.00000000000E+00 -0.54324814014E+03  0.54324814014E+03  0.00000000000E+00 0. -1.
          6    1    1    2  501    0 -0.47128416383E+02 -0.48946054826E+02  0.34997172392E+02  0.18821691207E+03  0.17200000000E+03 0. -1.
         -6    1    1    2    0  503  0.47128416383E+02  0.48946054826E+02 -0.44831529612E+03  0.48496124448E+03  0.17200000000E+03 0. -1.
<mgrwt>
<rscale>  2 0.18493459E+03</rscale>
<asrwt>0</asrwt>
<pdfrwt beam="1">  1       21 0.32482504E-01 0.18493459E+03</pdfrwt>
<pdfrwt beam="2">  1       21 0.13581203E+00 0.18493459E+03</pdfrwt>
<totfact> 0.35524030E+03</totfact>
</mgrwt>
</event>
<event>
 4    1  0.1110581E+000  0.2372259E+03  0.7546771E-02  0.1121655E+00
         21   -1    0    0  503  502  0.00000000000E+00  0.00000000000E+00  0.23786534725E+03  0.23786534725E+03  0.00000000000E+00 0.  1.
         21   -1    0    0  501  503 -0.00000000000E+00 -0.00000000000E+00 -0.29424414703E+03  0.29424414703E+03  0.00000000000E+00 0. -1.
          6    1    1    2  501    0  0.20416186645E+02 -0.16209652685E+03  0.89581941189E+02  0.25357647541E+03  0.17200000000E+03 0.  1.
         -6    1    1    2    0  502 -0.20416186645E+02  0.16209652685E+03 -0.14596074098E+03  0.27853301887E+03  0.17200000000E+03 0. -1.
<mgrwt>
<rscale>  2 0.23722585E+03</rscale>
<asrwt>0</asrwt>
<pdfrwt beam="1">  1       21 0.59466337E-01 0.23722585E+03</pdfrwt>
<pdfrwt beam="2">  1       21 0.73561036E-01 0.23722585E+03</pdfrwt>
<totfact> 0.42418269E+03</totfact>
</mgrwt>
</event>
<event>
 4    1  0.1110581E+000  0.2341333E+03  0.7546771E-02  0.1123764E+00
         21   -1    0    0  503  502  0.00000000000E+00  0.00000000000E+00  0.12927919591E+03  0.12927919591E+03  0.00000000000E+00 0. -1.
         21   -1    0    0  501  503 -0.00000000000E+00 -0.00000000000E+00 -0.73962111265E+03  0.73962111265E+03  0.00000000000E+00 0. -1.
          6    1    1    2  501    0  0.14497962193E+03 -0.64925565977E+02 -0.58896078558E+03  0.63379273177E+03  0.17200000000E+03 0. -1.
         -6    1    1    2    0  502 -0.14497962193E+03  0.64925565977E+02 -0.21381131159E+02  0.23510757679E+03  0.17200000000E+03 0. -1.
<mgrwt>
<rscale>  2 0.23413334E+03</rscale>
<asrwt>0</asrwt>
<pdfrwt beam="1">  1       21 0.32319800E-01 0.23413334E+03</pdfrwt>
<pdfrwt beam="2">  1       21 0.18490527E+00 0.23413334E+03</pdfrwt>
<totfact> 0.14915600E+03</totfact>
</mgrwt>
</event>
<event>
 4    1  0.1110581E+000  0.1857551E+03  0.7546771E-02  0.1162347E+00
         21   -1    0    0  503  502  0.00000000000E+00  0.00000000000E+00  0.12982144212E+03  0.12982144212E+03  0.00000000000E+00 0.  1.
         21   -1    0    0  501  503 -0.00000000000E+00 -0.00000000000E+00 -0.26592677207E+03  0.26592677207E+03  0.00000000000E+00 0. -1.
          6    1    1    2  501    0  0.31879986142E+02  0.62486982702E+02 -0.63529324226E+02  0.19631844427E+03  0.17200000000E+03 0.  1.
         -6    1    1    2    0  502 -0.31879986142E+02 -0.62486982702E+02 -0.72576005731E+02  0.19942976992E+03  0.17200000000E+03 0. -1.
<mgrwt>
<rscale>  2 0.18575510E+03</rscale>
<asrwt>0</asrwt>
<pdfrwt beam="1">  1       21 0.32455361E-01 0.18575510E+03</pdfrwt>
<pdfrwt beam="2">  1       21 0.66481692E-01 0.18575510E+03</pdfrwt>
<totfact> 0.19033692E+04</totfact>
</mgrwt>
</event>
<event>
 4    1  0.1110581E+000  0.2781184E+03  0.7546771E-02  0.1096721E+00
         21   -1    0    0  503  502  0.00000000000E+00  0.00000000000E+00  0.18598893442E+03  0.18598893442E+03  0.00000000000E+00 0.  1.
         21   -1    0    0  501  503 -0.00000000000E+00 -0.00000000000E+00 -0.42060465233E+03  0.42060465233E+03  0.00000000000E+00 0.  1.
          6    1    1    2  501    0  0.24710594131E+02  0.21715260881E+03 -0.14943855794E+03  0.31572417008E+03  0.17200000000E+03 0.  1.
         -6    1    1    2    0  502 -0.24710594131E+02 -0.21715260881E+03 -0.85177159967E+02  0.29086941667E+03  0.17200000000E+03 0.  1.
<mgrwt>
<rscale>  2 0.27811844E+03</rscale>
<asrwt>0</asrwt>
<pdfrwt beam="1">  1       21 0.46497234E-01 0.27811844E+03</pdfrwt>
<pdfrwt beam="2">  1       21 0.10515116E+00 0.27811844E+03</pdfrwt>
<totfact> 0.30309378E+03</totfact>
</mgrwt>
</event>
<event>
 4    1  0.1110581E+000  0.1793291E+03  0.7546771E-02  0.1168454E+00
         21   -1    0    0  501  502  0.00000000000E+00  0.00000000000E+00  0.63000011067E+03  0.63000011067E+03  0.00000000000E+00 0. -1.
         21   -1    0    0  502  503 -0.00000000000E+00 -0.00000000000E+00 -0.51066029148E+02  0.51066029148E+02  0.00000000000E+00 0. -1.
          6    1    1    2  501    0 -0.21778531770E+02 -0.45832495720E+02  0.29622810691E+03  0.34628025274E+03  0.17200000000E+03 0.  1.
         -6    1    1    2    0  503  0.21778531770E+02  0.45832495720E+02  0.28270597461E+03  0.33478588708E+03  0.17200000000E+03 0.  1.
<mgrwt>
<rscale>  2 0.17932909E+03</rscale>
<asrwt>0</asrwt>
<pdfrwt beam="1">  1       21 0.15750000E+00 0.17932909E+03</pdfrwt>
<pdfrwt beam="2">  1       21 0.12766509E-01 0.17932909E+03</pdfrwt>
<totfact> 0.13926151E+04</totfact>
</mgrwt>
</event>
<event>
 4    1  0.1110581E+000  0.2254842E+03  0.7546771E-02  0.1129859E+00
         21   -1    0    0  501  502  0.00000000000E+00  0.00000000000E+00  0.11695110823E+03  0.11695110823E+03  0.00000000000E+00 0.  1.
         21   -1    0    0  502  503 -0.00000000000E+00 -0.00000000000E+00 -0.44818861813E+03  0.44818861813E+03  0.00000000000E+00 0. -1.
          6    1    1    2  501    0 -0.36800796018E+02  0.14108448063E+03 -0.21456971958E+03  0.31126081318E+03  0.17200000000E+03 0.  1.
         -6    1    1    2    0  503  0.36800796018E+02 -0.14108448063E+03 -0.11666779031E+03  0.25387891318E+03  0.17200000000E+03 0.  1.
<mgrwt>
<rscale>  2 0.22548421E+03</rscale>
<asrwt>0</asrwt>
<pdfrwt beam="1">  1       21 0.29237777E-01 0.22548421E+03</pdfrwt>
<pdfrwt beam="2">  1       21 0.11204715E+00 0.22548421E+03</pdfrwt>
<totfact> 0.68321452E+03</totfact>
</mgrwt>
</event>
<event>
 4    1  0.1110581E+000  0.1904743E+03  0.7546771E-02  0.1158034E+00
         21   -1    0    0  503  502  0.00000000000E+00  0.00000000000E+00  0.71677806290E+02  0.71677806290E+02  0.00000000000E+00 0.  1.
         21   -1    0    0  501  503 -0.00000000000E+00 -0.00000000000E+00 -0.52159862546E+03  0.52159862546E+03  0.00000000000E+00 0.  1.
          6    1    1    2  501    0  0.70629884197E+02  0.41326341530E+02 -0.17392618663E+03  0.25793558390E+03  0.17200000000E+03 0.  1.
         -6    1    1    2    0  502 -0.70629884197E+02 -0.41326341530E+02 -0.27599463254E+03  0.33534084785E+03  0.17200000000E+03 0.  1.
<mgrwt>
<rscale>  2 0.19047427E+03</rscale>
<asrwt>0</asrwt>
<pdfrwt beam="1">  1       21 0.17919452E-01 0.19047427E+03</pdfrwt>
<pdfrwt beam="2">  1       21 0.13039965E+00 0.19047427E+03</pdfrwt>
<totfact> 0.12161377E+04</totfact>
</mgrwt>
</event>
<event>
 4    1  0.1110581E+000  0.1807522E+03  0.7546771E-02  0.1167077E+00
         21   -1    0    0  503  502  0.00000000000E+00  0.00000000000E+00  0.94807502867E+02  0.94807502867E+02  0.00000000000E+00 0. -1.
         21   -1    0    0  501  503 -0.00000000000E+00 -0.00000000000E+00 -0.84623180767E+03  0.84623180767E+03  0.00000000000E+00 0. -1.
          6    1    1    2  501    0  0.11485944992E+02 -0.54363926341E+02 -0.73797387182E+03  0.75978733795E+03  0.17200000000E+03 0. -1.
         -6    1    1    2    0  502 -0.11485944992E+02  0.54363926341E+02 -0.13450432984E+02  0.18125197259E+03  0.17200000000E+03 0. -1.
<mgrwt>
<rscale>  2 0.18075222E+03</rscale>
<asrwt>0</asrwt>
<pdfrwt beam="1">  1       21 0.23701876E-01 0.18075222E+03</pdfrwt>
<pdfrwt beam="2">  1       21 0.21155795E+00 0.18075222E+03</pdfrwt>
<totfact> 0.19273044E+03</totfact>
</mgrwt>
</event>
<event>
 4    1  0.1110581E+000  0.1850691E+03  0.7546771E-02  0.1162985E+00
         21   -1    0    0  503  502  0.00000000000E+00  0.00000000000E+00  0.48540177625E+02  0.48540177625E+02  0.00000000000E+00 0.  1.
         21   -1    0    0  501  503 -0.00000000000E+00 -0.00000000000E+00 -0.78534521602E+03  0.78534521602E+03  0.00000000000E+00 0.  1.
          6    1    1    2  501    0 -0.67791315636E+02 -0.84205013565E+01 -0.50125317991E+03  0.53432697638E+03  0.17200000000E+03 0.  1.
         -6    1    1    2    0  502  0.67791315636E+02  0.84205013565E+01 -0.23555185849E+03  0.29955841727E+03  0.17200000000E+03 0.  1.
<mgrwt>
<rscale>  2 0.18506909E+03</rscale>
<asrwt>0</asrwt>
<pdfrwt beam="1">  1       21 0.12135045E-01 0.18506909E+03</pdfrwt>
<pdfrwt beam="2">  1       21 0.19633630E+00 0.18506909E+03</pdfrwt>
<totfact> 0.82088049E+03</totfact>
</mgrwt>
</event>
<event>
 4    1  0.1110581E+000  0.2068500E+03  0.7546771E-02  0.1144085E+00
         21   -1    0    0  503  502  0.00000000000E+00  0.00000000000E+00  0.17704223407E+04  0.17704223407E+04  0.00000000000E+00 0.  1.
         21   -1    0    0  501  503 -0.00000000000E+00 -0.00000000000E+00 -0.41532183111E+02  0.41532183111E+02  0.00000000000E+00 0. -1.
          6    1    1    2  501    0 -0.17475196199E+02 -0.11356728544E+03  0.27863514442E+03  0.34702226803E+03  0.17200000000E+03 0. -1.
         -6    1    1    2    0  502  0.17475196199E+02  0.11356728544E+03  0.14502550132E+04  0.14649322558E+04  0.17200000000E+03 0.  1.
<mgrwt>
<rscale>  2 0.20684997E+03</rscale>
<asrwt>0</asrwt>
<pdfrwt beam="1">  1       21 0.44260533E+00 0.20684997E+03</pdfrwt>
<pdfrwt beam="2">  1       21 0.10383052E-01 0.20684997E+03</pdfrwt>
<totfact> 0.34527852E+02</totfact>
</mgrwt>
</event>
<event>
 4    1  0.1110581E+000  0.1940102E+03  0.7546771E-02  0.1154893E+00
         21   -1    0    0  501  502  0.00000000000E+00  0.00000000000E+00  0.12985474232E+03  0.12985474232E+03  0.00000000000E+00 0.  1.
         21   -1    0    0  502  503 -0.00000000000E+00 -0.00000000000E+00 -0.31398018006E+03  0.31398018006E+03  0.00000000000E+00 0.  1.
          6    1    1    2  501    0 -0.60905732981E+02 -0.65927619032E+02 -0.30557445744E+02  0.19640192655E+03  0.17200000000E+03 0.  1.
         -6    1    1    2    0  503  0.60905732981E+02  0.65927619032E+02 -0.15356799199E+03  0.24743299583E+03  0.17200000000E+03 0.  1.
<mgrwt>
<rscale>  2 0.19401020E+03</rscale>
<asrwt>0</asrwt>
<pdfrwt beam="1">  1       21 0.32463686E-01 0.19401020E+03</pdfrwt>
<pdfrwt beam="2">  1       21 0.78495044E-01 0.19401020E+03</pdfrwt>
<totfact> 0.13096280E+04</totfact>
</mgrwt>
</event>
<event>
 4    1  0.1110581E+000  0.1822435E+03  0.7546771E-02  0.1165649E+00
         21   -1    0    0  501  502  0.00000000000E+00  0.00000000000E+00  0.59827536762E+03  0.59827536762E+03  0.00000000000E+00 0. -1.
         21   -1    0    0  502  503 -0.00000000000E+00 -0.00000000000E+00 -0.67108884786E+02  0.67108884786E+02  0.00000000000E+00 0. -1.
          6    1    1    2  501    0 -0.37485192235E+02  0.47154632863E+02  0.40387123312E+03  0.44308540032E+03  0.17200000000E+03 0. -1.
         -6    1    1    2    0  503  0.37485192235E+02 -0.47154632863E+02  0.12729524971E+03  0.22229885208E+03  0.17200000000E+03 0. -1.
<mgrwt>
<rscale>  2 0.18224352E+03</rscale>
<asrwt>0</asrwt>
<pdfrwt beam="1">  1       21 0.14956883E+00 0.18224352E+03</pdfrwt>
<pdfrwt beam="2">  1       21 0.16777223E-01 0.18224352E+03</pdfrwt>
<totfact> 0.97036675E+03</totfact>
</mgrwt>
</event>
<event>
 4    1  0.1110581E+000  0.2130478E+03  0.7546771E-02  0.1139175E+00
         21   -1    0    0  501  502  0.00000000000E+00  0.00000000000E+00  0.54917230066E+02  0.54917230066E+02  0.00000000000E+00 0. -1.
         21   -1    0    0  502  503 -0.00000000000E+00 -0.00000000000E+00 -0.11897984493E+04  0.11897984493E+04  0.00000000000E+00 0.  1.
          6    1    1    2  501    0  0.72771545974E+02 -0.10251659076E+03 -0.22354041432E+03  0.30880360445E+03  0.17200000000E+03 0. -1.
         -6    1    1    2    0  503 -0.72771545974E+02  0.10251659076E+03 -0.91134080491E+03  0.93591207492E+03  0.17200000000E+03 0. -1.
<mgrwt>
<rscale>  2 0.21304776E+03</rscale>
<asrwt>0</asrwt>
<pdfrwt beam="1">  1       21 0.13729308E-01 0.21304776E+03</pdfrwt>
<pdfrwt beam="2">  1       21 0.29744961E+00 0.21304776E+03</pdfrwt>
<totfact> 0.15860172E+03</totfact>
</mgrwt>
</event>
<event>
 4    1  0.1110581E+000  0.2236650E+03  0.7546771E-02  0.1131180E+00
         21   -1    0    0  501  502  0.00000000000E+00  0.00000000000E+00  0.76868247525E+02  0.76868247525E+02  0.00000000000E+00 0. -1.
         21   -1    0    0  502  503 -0.00000000000E+00 -0.00000000000E+00 -0.68505675038E+03  0.68505675038E+03  0.00000000000E+00 0.  1.
          6    1    1    2  501    0  0.73556698792E+02  0.12260279564E+03 -0.21890646003E+03  0.31296337114E+03  0.17200000000E+03 0. -1.
         -6    1    1    2    0  503 -0.73556698792E+02 -0.12260279564E+03 -0.38928204282E+03  0.44896162676E+03  0.17200000000E+03 0.  1.
<mgrwt>
<rscale>  2 0.22366500E+03</rscale>
<asrwt>0</asrwt>
<pdfrwt beam="1">  1       21 0.19217062E-01 0.22366500E+03</pdfrwt>
<pdfrwt beam="2">  1       21 0.17126418E+00 0.22366500E+03</pdfrwt>
<totfact> 0.50665175E+03</totfact>
</mgrwt>
</event>
<event>
 4    1  0.1110581E+000  0.2005701E+03  0.7546771E-02  0.1149259E+00
         21   -1    0    0  503  502  0.00000000000E+00  0.00000000000E+00  0.40697032678E+03  0.40697032678E+03  0.00000000000E+00 0.  1.
         21   -1    0    0  501  503 -0.00000000000E+00 -0.00000000000E+00 -0.10194567795E+03  0.10194567795E+03  0.00000000000E+00 0. -1.
          6    1    1    2  501    0  0.10230696605E+03 -0.13328189647E+02  0.19686537207E+03  0.28104151057E+03  0.17200000000E+03 0. -1.
         -6    1    1    2    0  502 -0.10230696605E+03  0.13328189647E+02  0.10815927676E+03  0.22787449417E+03  0.17200000000E+03 0.  1.
<mgrwt>
<rscale>  2 0.20057008E+03</rscale>
<asrwt>0</asrwt>
<pdfrwt beam="1">  1       21 0.10174258E+00 0.20057008E+03</pdfrwt>
<pdfrwt beam="2">  1       21 0.25486421E-01 0.20057008E+03</pdfrwt>
<totfact> 0.11439341E+04</totfact>
</mgrwt>
</event>
<event>
 4    1  0.1110581E+000  0.2138562E+03  0.7546771E-02  0.1138548E+00
         21   -1    0    0  503  502  0.00000000000E+00  0.00000000000E+00  0.12643836953E+03  0.12643836953E+03  0.00000000000E+00 0. -1.
         21   -1    0    0  501  503 -0.00000000000E+00 -0.00000000000E+00 -0.43283351216E+03  0.43283351216E+03  0.00000000000E+00 0. -1.
          6    1    1    2  501    0  0.12414731700E+03 -0.27164878719E+02 -0.26654924453E+03  0.34173525822E+03  0.17200000000E+03 0. -1.
         -6    1    1    2    0  502 -0.12414731700E+03  0.27164878719E+02 -0.39845898100E+02  0.21753662347E+03  0.17200000000E+03 0. -1.
<mgrwt>
<rscale>  2 0.21385623E+03</rscale>
<asrwt>0</asrwt>
<pdfrwt beam="1">  1       21 0.31609593E-01 0.21385623E+03</pdfrwt>
<pdfrwt beam="2">  1       21 0.10820838E+00 0.21385623E+03</pdfrwt>
<totfact> 0.64350255E+03</totfact>
</mgrwt>
</event>
<event>
 4    1  0.1110581E+000  0.2663019E+03  0.7546771E-02  0.1103415E+00
         21   -1    0    0  501  502  0.00000000000E+00  0.00000000000E+00  0.43699811262E+03  0.43699811262E+03  0.00000000000E+00 0. -1.
         21   -1    0    0  502  503 -0.00000000000E+00 -0.00000000000E+00 -0.16311698957E+03  0.16311698957E+03  0.00000000000E+00 0.  1.
          6    1    1    2  501    0  0.19337088186E+03 -0.62772758321E+02  0.15841494796E+03  0.30985805279E+03  0.17200000000E+03 0. -1.
         -6    1    1    2    0  503 -0.19337088186E+03  0.62772758321E+02  0.11546617508E+03  0.29025704940E+03  0.17200000000E+03 0.  1.
<mgrwt>
<rscale>  2 0.26630193E+03</rscale>
<asrwt>0</asrwt>
<pdfrwt beam="1">  1       21 0.10924953E+00 0.26630193E+03</pdfrwt>
<pdfrwt beam="2">  1       21 0.40779248E-01 0.26630193E+03</pdfrwt>
<totfact> 0.36457980E+03</totfact>
</mgrwt>
</event>
<event>
 4    1  0.1110581E+000  0.2210336E+03  0.7546771E-02  0.1133115E+00
         21   -1    0    0  501  502  0.00000000000E+00  0.00000000000E+00  0.52833086040E+03  0.52833086040E+03  0.00000000000E+00 0. -1.
         21   -1    0    0  502  503 -0.00000000000E+00 -0.00000000000E+00 -0.69229478599E+03  0.69229478599E+03  0.00000000000E+00 0. -1.
          6    1    1    2  501    0  0.36867601964E+02 -0.13383802202E+03  0.48610971524E+03  0.53400233283E+03  0.17200000000E+03 0. -1.
         -6    1    1    2    0  503 -0.36867601964E+02  0.13383802202E+03 -0.65007364084E+03  0.68662331356E+03  0.17200000000E+03 0. -1.
<mgrwt>
<rscale>  2 0.22103356E+03</rscale>
<asrwt>0</asrwt>
<pdfrwt beam="1">  1       21 0.13208272E+00 0.22103356E+03</pdfrwt>
<pdfrwt beam="2">  1       21 0.17307370E+00 0.22103356E+03</pdfrwt>
<totfact> 0.81113647E+01</totfact>
</mgrwt>
</event>
<event>
 4    1  0.1110581E+000  0.2056386E+03  0.7546771E-02  0.1145067E+00
         21   -1    0    0  501  502  0.00000000000E+00  0.00000000000E+00  0.28203097234E+03  0.28203097234E+03  0.00000000000E+00 0. -1.
         21   -1    0    0  502  503 -0.00000000000E+00 -0.00000000000E+00 -0.32880686991E+03  0.32880686991E+03  0.00000000000E+00 0. -1.
          6    1    1    2  501    0 -0.11231510057E+03  0.94103739878E+01  0.20187644319E+03  0.28816893529E+03  0.17200000000E+03 0. -1.
         -6    1    1    2    0  503  0.11231510057E+03 -0.94103739878E+01 -0.24865234075E+03  0.32266890695E+03  0.17200000000E+03 0. -1.
<mgrwt>
<rscale>  2 0.20563861E+03</rscale>
<asrwt>0</asrwt>
<pdfrwt beam="1">  1       21 0.70507743E-01 0.20563861E+03</pdfrwt>
<pdfrwt beam="2">  1       21 0.82201717E-01 0.20563861E+03</pdfrwt>
<totfact> 0.23317903E+03</totfact>
</mgrwt>
</event>
<event>
 4    1  0.1110581E+000  0.2994235E+03  0.7546771E-02  0.1085529E+00
         21   -1    0    0  501  502  0.00000000000E+00  0.00000000000E+00  0.28160738680E+03  0.28160738680E+03  0.00000000000E+00 0. -1.
         21   -1    0    0  502  503 -0.00000000000E+00 -0.00000000000E+00 -0.32308589056E+03  0.32308589056E+03  0.00000000000E+00 0. -1.
          6    1    1    2  501    0  0.23633314776E+03  0.64938903369E+02 -0.57280160235E+02  0.30485313621E+03  0.17200000000E+03 0. -1.
         -6    1    1    2    0  503 -0.23633314776E+03 -0.64938903369E+02  0.15801656473E+02  0.29984014115E+03  0.17200000000E+03 0. -1.
<mgrwt>
<rscale>  2 0.29942348E+03</rscale>
<asrwt>0</asrwt>
<pdfrwt beam="1">  1       21 0.70401847E-01 0.29942348E+03</pdfrwt>
<pdfrwt beam="2">  1       21 0.80771472E-01 0.29942348E+03</pdfrwt>
<totfact> 0.22810346E+03</totfact>
</mgrwt>
</event>
<event>
 4    1  0.1110581E+000  0.1753849E+03  0.7546771E-02  0.1172346E+00
         21   -1    0    0  503  502  0.00000000000E+00  0.00000000000E+00  0.67477694082E+02  0.67477694082E+02  0.00000000000E+00 0.  1.
         21   -1    0    0  501  503 -0.00000000000E+00 -0.00000000000E+00 -0.59373418218E+03  0.59373418218E+03  0.00000000000E+00 0.  1.
          6    1    1    2  501    0  0.10906673270E+02 -0.32510128691E+02 -0.10380902103E+03  0.20380426108E+03  0.17200000000E+03 0.  1.
         -6    1    1    2    0  502 -0.10906673270E+02  0.32510128691E+02 -0.42244746707E+03  0.45740761518E+03  0.17200000000E+03 0.  1.
<mgrwt>
<rscale>  2 0.17538490E+03</rscale>
<asrwt>0</asrwt>
<pdfrwt beam="1">  1       21 0.16869424E-01 0.17538490E+03</pdfrwt>
<pdfrwt beam="2">  1       21 0.14843354E+00 0.17538490E+03</pdfrwt>
<totfact> 0.98537188E+03</totfact>
</mgrwt>
</event>
<event>
 4    1  0.1110581E+000  0.2122753E+03  0.7546771E-02  0.1139777E+00
         21   -1    0    0  501  502  0.00000000000E+00  0.00000000000E+00  0.14591458709E+03  0.14591458709E+03  0.00000000000E+00 0.  1.
         21   -1    0    0  502  503 -0.00000000000E+00 -0.00000000000E+00 -0.30884252108E+03  0.30884252108E+03  0.00000000000E+00 0.  1.
          6    1    1    2  501    0 -0.11832447039E+03 -0.38420278719E+02 -0.79367548713E+02  0.22662746060E+03  0.17200000000E+03 0.  1.
         -6    1    1    2    0  503  0.11832447039E+03  0.38420278719E+02 -0.83560385286E+02  0.22812964757E+03  0.17200000000E+03 0.  1.
<mgrwt>
<rscale>  2 0.21227529E+03</rscale>
<asrwt>0</asrwt>
<pdfrwt beam="1">  1       21 0.36478647E-01 0.21227529E+03</pdfrwt>
<pdfrwt beam="2">  1       21 0.77210630E-01 0.21227529E+03</pdfrwt>
<totfact> 0.10655424E+04</totfact>
</mgrwt>
</event>
<event>
 4    1  0.1110581E+000  0.1827688E+03  0.7546771E-02  0.1165150E+00
         21   -1    0    0  503  502  0.00000000000E+00  0.00000000000E+00  0.56995840923E+02  0.56995840923E+02  0.00000000000E+00 0. -1.
         21   -1    0    0  501  503 -0.00000000000E+00 -0.00000000000E+00 -0.62495818612E+03  0.62495818612E+03  0.00000000000E+00 0. -1.
          6    1    1    2  501    0 -0.60822561333E+02 -0.11002851362E+02 -0.36902070066E+03  0.41180180211E+03  0.17200000000E+03 0. -1.
         -6    1    1    2    0  502  0.60822561333E+02  0.11002851362E+02 -0.19894164454E+03  0.27015222493E+03  0.17200000000E+03 0. -1.
<mgrwt>
<rscale>  2 0.18276883E+03</rscale>
<asrwt>0</asrwt>
<pdfrwt beam="1">  1       21 0.14248960E-01 0.18276883E+03</pdfrwt>
<pdfrwt beam="2">  1       21 0.15623954E+00 0.18276883E+03</pdfrwt>
<totfact> 0.11641279E+04</totfact>
</mgrwt>
</event>
<event>
 4    1  0.1110581E+000  0.1767784E+03  0.7546771E-02  0.1170958E+00
         21   -1    0    0  503  502  0.00000000000E+00  0.00000000000E+00  0.30848049924E+03  0.30848049924E+03  0.00000000000E+00 0.  1.
         21   -1    0    0  501  503 -0.00000000000E+00 -0.00000000000E+00 -0.34912469790E+03  0.34912469790E+03  0.00000000000E+00 0.  1.
          6    1    1    2  501    0  0.35314518459E+02 -0.20481490665E+02 -0.29734322876E+03  0.34592427258E+03  0.17200000000E+03 0.  1.
         -6    1    1    2    0  502 -0.35314518459E+02  0.20481490665E+02  0.25669903011E+03  0.31168092456E+03  0.17200000000E+03 0.  1.
<mgrwt>
<rscale>  2 0.17677841E+03</rscale>
<asrwt>0</asrwt>
<pdfrwt beam="1">  1       21 0.77120125E-01 0.17677841E+03</pdfrwt>
<pdfrwt beam="2">  1       21 0.87281174E-01 0.17677841E+03</pdfrwt>
<totfact> 0.17102630E+03</totfact>
</mgrwt>
</event>
<event>
 4    1  0.1110581E+000  0.2039103E+03  0.7546771E-02  0.1146481E+00
         21   -1    0    0  503  502  0.00000000000E+00  0.00000000000E+00  0.46286209936E+02  0.46286209936E+02  0.00000000000E+00 0.  1.
         21   -1    0    0  501  503 -0.00000000000E+00 -0.00000000000E+00 -0.97652400452E+03  0.97652400452E+03  0.00000000000E+00 0. -1.
          6    1    1    2  501    0  0.82458943609E+02  0.72082907904E+02 -0.32038761944E+03  0.37977315556E+03  0.17200000000E+03 0. -1.
         -6    1    1    2    0  502 -0.82458943609E+02 -0.72082907904E+02 -0.60985017515E+03  0.64303705890E+03  0.17200000000E+03 0.  1.
<mgrwt>
<rscale>  2 0.20391033E+03</rscale>
<asrwt>0</asrwt>
<pdfrwt beam="1">  1       21 0.11571553E-01 0.20391033E+03</pdfrwt>
<pdfrwt beam="2">  1       21 0.24413100E+00 0.20391033E+03</pdfrwt>
<totfact> 0.44578441E+03</totfact>
</mgrwt>
</event>
<event>
 4    1  0.1110581E+000  0.2038205E+03  0.7546771E-02  0.1146555E+00
         21   -1    0    0  503  502  0.00000000000E+00  0.00000000000E+00  0.27598784380E+03  0.27598784380E+03  0.00000000000E+00 0.  1.
         21   -1    0    0  501  503 -0.00000000000E+00 -0.00000000000E+00 -0.25364113625E+03  0.25364113625E+03  0.00000000000E+00 0.  1.
          6    1    1    2  501    0 -0.74888134604E+02 -0.79690342378E+02  0.18002193053E+03  0.27193874098E+03  0.17200000000E+03 0.  1.
         -6    1    1    2    0  502  0.74888134604E+02  0.79690342378E+02 -0.15767522297E+03  0.25769023907E+03  0.17200000000E+03 0.  1.
<mgrwt>
<rscale>  2 0.20382047E+03</rscale>
<asrwt>0</asrwt>
<pdfrwt beam="1">  1       21 0.68996961E-01 0.20382047E+03</pdfrwt>
<pdfrwt beam="2">  1       21 0.63410284E-01 0.20382047E+03</pdfrwt>
<totfact> 0.43602768E+03</totfact>
</mgrwt>
</event>
<event>
 4    1  0.1110581E+000  0.1877322E+03  0.7546771E-02  0.1160523E+00
         21   -1    0    0  503  502  0.00000000000E+00  0.00000000000E+00  0.11494917923E+04  0.11494917923E+04  0.00000000000E+00 0.  1.
         21   -1    0    0  501  503 -0.00000000000E+00 -0.00000000000E+00 -0.15081467820E+03  0.15081467820E+03  0.00000000000E+00 0.  1.
          6    1    1    2  501    0 -0.49233724588E+02  0.56880843138E+02 -0.80977128051E+02  0.20445215876E+03  0.17200000000E+03 0.  1.
         -6    1    1    2    0  502  0.49233724588E+02 -0.56880843138E+02  0.10796542422E+04  0.10958543117E+04  0.17200000000E+03 0.  1.
<mgrwt>
<rscale>  2 0.18773223E+03</rscale>
<asrwt>0</asrwt>
<pdfrwt beam="1">  1       21 0.28737292E+00 0.18773223E+03</pdfrwt>
<pdfrwt beam="2">  1       21 0.37703673E-01 0.18773223E+03</pdfrwt>
<totfact> 0.27582588E+02</totfact>
</mgrwt>
</event>
<event>
 4    1  0.1110581E+000  0.2044046E+03  0.7546771E-02  0.1146075E+00
         21   -1    0    0  501  502  0.00000000000E+00  0.00000000000E+00  0.25880641339E+03  0.25880641339E+03  0.00000000000E+00 0.  1.
         21   -1    0    0  502  503 -0.00000000000E+00 -0.00000000000E+00 -0.21201093684E+03  0.21201093684E+03  0.00000000000E+00 0.  1.
          6    1    1    2  501    0 -0.27999172341E+02 -0.10683306322E+03  0.13837217788E+03  0.24683621424E+03  0.17200000000E+03 0.  1.
         -6    1    1    2    0  503  0.27999172341E+02  0.10683306322E+03 -0.91576701335E+02  0.22398113598E+03  0.17200000000E+03 0.  1.
<mgrwt>
<rscale>  2 0.20440464E+03</rscale>
<asrwt>0</asrwt>
<pdfrwt beam="1">  1       21 0.64701603E-01 0.20440464E+03</pdfrwt>
<pdfrwt beam="2">  1       21 0.53002734E-01 0.20440464E+03</pdfrwt>
<totfact> 0.73607932E+03</totfact>
</mgrwt>
</event>
<event>
 4    1  0.1110581E+000  0.1787022E+03  0.7546771E-02  0.1169065E+00
         21   -1    0    0  501  502  0.00000000000E+00  0.00000000000E+00  0.19646508699E+03  0.19646508699E+03  0.00000000000E+00 0. -1.
         21   -1    0    0  502  503 -0.00000000000E+00 -0.00000000000E+00 -0.16255451158E+03  0.16255451158E+03  0.00000000000E+00 0. -1.
          6    1    1    2  501    0 -0.28215815018E+02  0.39425054163E+02  0.15600474049E+02  0.17938183270E+03  0.17200000000E+03 0. -1.
         -6    1    1    2    0  503  0.28215815018E+02 -0.39425054163E+02  0.18310101361E+02  0.17963776586E+03  0.17200000000E+03 0. -1.
<mgrwt>
<rscale>  2 0.17870217E+03</rscale>
<asrwt>0</asrwt>
<pdfrwt beam="1">  1       21 0.49116272E-01 0.17870217E+03</pdfrwt>
<pdfrwt beam="2">  1       21 0.40638628E-01 0.17870217E+03</pdfrwt>
<totfact> 0.23255775E+04</totfact>
</mgrwt>
</event>
<event>
 4    1  0.1110581E+000  0.1949133E+03  0.7546771E-02  0.1154103E+00
         21   -1    0    0  503  502  0.00000000000E+00  0.00000000000E+00  0.91188179206E+02  0.91188179206E+02  0.00000000000E+00 0.  1.
         21   -1    0    0  501  503 -0.00000000000E+00 -0.00000000000E+00 -0.42262854231E+03  0.42262854231E+03  0.00000000000E+00 0.  1.
          6    1    1    2  501    0 -0.66385184525E+02  0.63247244717E+02 -0.13509844808E+03  0.23715563953E+03  0.17200000000E+03 0.  1.
         -6    1    1    2    0  502  0.66385184525E+02 -0.63247244717E+02 -0.19634191503E+03  0.27666108199E+03  0.17200000000E+03 0.  1.
<mgrwt>
<rscale>  2 0.19491333E+03</rscale>
<asrwt>0</asrwt>
<pdfrwt beam="1">  1       21 0.22797046E-01 0.19491333E+03</pdfrwt>
<pdfrwt beam="2">  1       21 0.10565713E+00 0.19491333E+03</pdfrwt>
<totfact> 0.12970906E+04</totfact>
</mgrwt>
</event>
<event>
 4    1  0.1110581E+000  0.2026092E+03  0.7546771E-02  0.1147556E+00
         21   -1    0    0  503  502  0.00000000000E+00  0.00000000000E+00  0.27911936229E+03  0.27911936229E+03  0.00000000000E+00 0.  1.
         21   -1    0    0  501  503 -0.00000000000E+00 -0.00000000000E+00 -0.14748501755E+03  0.14748501755E+03  0.00000000000E+00 0.  1.
          6    1    1    2  501    0  0.77836271546E+02  0.73539155263E+02  0.77112233645E+02  0.21678742838E+03  0.17200000000E+03 0.  1.
         -6    1    1    2    0  502 -0.77836271546E+02 -0.73539155263E+02  0.54522111093E+02  0.20981695147E+03  0.17200000000E+03 0.  1.
<mgrwt>
<rscale>  2 0.20260921E+03</rscale>
<asrwt>0</asrwt>
<pdfrwt beam="1">  1       21 0.69779840E-01 0.20260921E+03</pdfrwt>
<pdfrwt beam="2">  1       21 0.36871255E-01 0.20260921E+03</pdfrwt>
<totfact> 0.13150051E+04</totfact>
</mgrwt>
</event>
<event>
 4    1  0.1110581E+000  0.1883914E+03  0.7546771E-02  0.1159920E+00
         21   -1    0    0  501  502  0.00000000000E+00  0.00000000000E+00  0.14865360067E+03  0.14865360067E+03  0.00000000000E+00 0.  1.
         21   -1    0    0  502  503 -0.00000000000E+00 -0.00000000000E+00 -0.26099584168E+03  0.26099584168E+03  0.00000000000E+00 0.  1.
          6    1    1    2  501    0  0.37542839813E+02  0.67066075718E+02  0.36248424053E+01  0.18842627953E+03  0.17200000000E+03 0.  1.
         -6    1    1    2    0  503 -0.37542839813E+02 -0.67066075718E+02 -0.11596708342E+03  0.22122316282E+03  0.17200000000E+03 0.  1.
<mgrwt>
<rscale>  2 0.18839141E+03</rscale>
<asrwt>0</asrwt>
<pdfrwt beam="1">  1       21 0.37163400E-01 0.18839141E+03</pdfrwt>
<pdfrwt beam="2">  1       21 0.65248960E-01 0.18839141E+03</pdfrwt>
<totfact> 0.15134235E+04</totfact>
</mgrwt>
</event>
<event>
 4    1  0.1110581E+000  0.1828744E+03  0.7546771E-02  0.1165050E+00
         21   -1    0    0  503  502  0.00000000000E+00  0.00000000000E+00  0.15733554486E+03  0.15733554486E+03  0.00000000000E+00 0.  1.
         21   -1    0    0  501  503 -0.00000000000E+00 -0.00000000000E+00 -0.22997752690E+03  0.22997752690E+03  0.00000000000E+00 0.  1.
          6    1    1    2  501    0 -0.12660324877E+02  0.60817446283E+02  0.16975470801E+02  0.18366058970E+03  0.17200000000E+03 0.  1.
         -6    1    1    2    0  502  0.12660324877E+02 -0.60817446283E+02 -0.89617452838E+02  0.20365248207E+03  0.17200000000E+03 0.  1.
<mgrwt>
<rscale>  2 0.18287440E+03</rscale>
<asrwt>0</asrwt>
<pdfrwt beam="1">  1       21 0.39333886E-01 0.18287440E+03</pdfrwt>
<pdfrwt beam="2">  1       21 0.57494382E-01 0.18287440E+03</pdfrwt>
<totfact> 0.17795119E+04</totfact>
</mgrwt>
</event>
<event>
 4    1  0.1110581E+000  0.2059250E+03  0.7546771E-02  0.1144834E+00
         21   -1    0    0  503  502  0.00000000000E+00  0.00000000000E+00  0.50377404074E+03  0.50377404074E+03  0.00000000000E+00 0.  1.
         21   -1    0    0  501  503 -0.00000000000E+00 -0.00000000000E+00 -0.12803640474E+03  0.12803640474E+03  0.00000000000E+00 0. -1.
          6    1    1    2  501    0  0.46537316940E+02  0.10322482488E+03  0.29707989704E+01  0.20594638134E+03  0.17200000000E+03 0. -1.
         -6    1    1    2    0  502 -0.46537316940E+02 -0.10322482488E+03  0.37276683702E+03  0.42586406414E+03  0.17200000000E+03 0.  1.
<mgrwt>
<rscale>  2 0.20592495E+03</rscale>
<asrwt>0</asrwt>
<pdfrwt beam="1">  1       21 0.12594351E+00 0.20592495E+03</pdfrwt>
<pdfrwt beam="2">  1       21 0.32009102E-01 0.20592495E+03</pdfrwt>
<totfact> 0.43465371E+03</totfact>
</mgrwt>
</event>
<event>
 4    1  0.1110581E+000  0.2417933E+03  0.7546771E-02  0.1118604E+00
         21   -1    0    0  501  502  0.00000000000E+00  0.00000000000E+00  0.27695650759E+03  0.27695650759E+03  0.00000000000E+00 0. -1.
         21   -1    0    0  502  503 -0.00000000000E+00 -0.00000000000E+00 -0.26309323124E+03  0.26309323124E+03  0.00000000000E+00 0. -1.
          6    1    1    2  501    0 -0.10548816447E+03  0.13323761867E+03 -0.11311361545E+03  0.26694326340E+03  0.17200000000E+03 0. -1.
         -6    1    1    2    0  503  0.10548816447E+03 -0.13323761867E+03  0.12697689180E+03  0.27310647543E+03  0.17200000000E+03 0. -1.
<mgrwt>
<rscale>  2 0.24179333E+03</rscale>
<asrwt>0</asrwt>
<pdfrwt beam="1">  1       21 0.69239127E-01 0.24179333E+03</pdfrwt>
<pdfrwt beam="2">  1       21 0.65773308E-01 0.24179333E+03</pdfrwt>
<totfact> 0.38865453E+03</totfact>
</mgrwt>
</event>
<event>
 4    1  0.1110581E+000  0.2001752E+03  0.7546771E-02  0.1149591E+00
         21   -1    0    0  503  502  0.00000000000E+00  0.00000000000E+00  0.10485984558E+03  0.10485984558E+03  0.00000000000E+00 0. -1.
         21   -1    0    0  501  503 -0.00000000000E+00 -0.00000000000E+00 -0.38727658129E+03  0.38727658129E+03  0.00000000000E+00 0.  1.
          6    1    1    2  501    0 -0.13959734798E+02 -0.10144577111E+03 -0.16957409384E+03  0.26234613009E+03  0.17200000000E+03 0.  1.
         -6    1    1    2    0  502  0.13959734798E+02  0.10144577111E+03 -0.11284264187E+03  0.22979029678E+03  0.17200000000E+03 0. -1.
<mgrwt>
<rscale>  2 0.20017522E+03</rscale>
<asrwt>0</asrwt>
<pdfrwt beam="1">  1       21 0.26214962E-01 0.20017522E+03</pdfrwt>
<pdfrwt beam="2">  1       21 0.96819145E-01 0.20017522E+03</pdfrwt>
<totfact> 0.12192760E+04</totfact>
</mgrwt>
</event>
<event>
 4    1  0.1110581E+000  0.1980701E+03  0.7546771E-02  0.1151378E+00
         21   -1    0    0  501  502  0.00000000000E+00  0.00000000000E+00  0.95531648254E+03  0.95531648254E+03  0.00000000000E+00 0.  1.
         21   -1    0    0  502  503 -0.00000000000E+00 -0.00000000000E+00 -0.57509461107E+02  0.57509461107E+02  0.00000000000E+00 0.  1.
          6    1    1    2  501    0  0.64454283449E+02  0.74117510207E+02  0.71968667154E+03  0.74644535310E+03  0.17200000000E+03 0.  1.
         -6    1    1    2    0  503 -0.64454283449E+02 -0.74117510207E+02  0.17812034990E+03  0.26638059055E+03  0.17200000000E+03 0.  1.
<mgrwt>
<rscale>  2 0.19807009E+03</rscale>
<asrwt>0</asrwt>
<pdfrwt beam="1">  1       21 0.23882907E+00 0.19807009E+03</pdfrwt>
<pdfrwt beam="2">  1       21 0.14377368E-01 0.19807009E+03</pdfrwt>
<totfact> 0.32616495E+03</totfact>
</mgrwt>
</event>
<event>
 4    1  0.1110581E+000  0.1753665E+03  0.7546771E-02  0.1172364E+00
         21   -1    0    0  503  502  0.00000000000E+00  0.00000000000E+00  0.15114308891E+04  0.15114308891E+04  0.00000000000E+00 0.  1.
         21   -1    0    0  501  503 -0.00000000000E+00 -0.00000000000E+00 -0.32158550805E+02  0.32158550805E+02  0.00000000000E+00 0.  1.
          6    1    1    2  501    0 -0.11658694108E+02 -0.32147690861E+02  0.27189758194E+03  0.32354550567E+03  0.17200000000E+03 0.  1.
         -6    1    1    2    0  502  0.11658694108E+02  0.32147690861E+02  0.12073747564E+04  0.12200439343E+04  0.17200000000E+03 0.  1.
<mgrwt>
<rscale>  2 0.17536647E+03</rscale>
<asrwt>0</asrwt>
<pdfrwt beam="1">  1       21 0.37785748E+00 0.17536647E+03</pdfrwt>
<pdfrwt beam="2">  1       21 0.80396428E-02 0.17536647E+03</pdfrwt>
<totfact> 0.14561806E+03</totfact>
</mgrwt>
</event>
<event>
 4    1  0.1110581E+000  0.1727291E+03  0.7546771E-02  0.1175031E+00
         21   -1    0    0  501  502  0.00000000000E+00  0.00000000000E+00  0.26077040856E+03  0.26077040856E+03  0.00000000000E+00 0.  1.
         21   -1    0    0  502  503 -0.00000000000E+00 -0.00000000000E+00 -0.24170620119E+03  0.24170620119E+03  0.00000000000E+00 0.  1.
          6    1    1    2  501    0 -0.14812870790E+02  0.56485518047E+01  0.19185694915E+03  0.25815579834E+03  0.17200000000E+03 0.  1.
         -6    1    1    2    0  503  0.14812870790E+02 -0.56485518047E+01 -0.17279274178E+03  0.24432081141E+03  0.17200000000E+03 0.  1.
<mgrwt>
<rscale>  2 0.17272906E+03</rscale>
<asrwt>0</asrwt>
<pdfrwt beam="1">  1       21 0.65192602E-01 0.17272906E+03</pdfrwt>
<pdfrwt beam="2">  1       21 0.60426550E-01 0.17272906E+03</pdfrwt>
<totfact> 0.56141149E+03</totfact>
</mgrwt>
</event>
<event>
 4    1  0.1110581E+000  0.1834201E+03  0.7546771E-02  0.1164534E+00
         21   -1    0    0  503  502  0.00000000000E+00  0.00000000000E+00  0.11537305957E+04  0.11537305957E+04  0.00000000000E+00 0. -1.
         21   -1    0    0  501  503 -0.00000000000E+00 -0.00000000000E+00 -0.36064000053E+02  0.36064000053E+02  0.00000000000E+00 0. -1.
          6    1    1    2  501    0  0.57455713514E+02 -0.27527620168E+02  0.29854688594E+03  0.35039002838E+03  0.17200000000E+03 0. -1.
         -6    1    1    2    0  502 -0.57455713514E+02  0.27527620168E+02  0.81911970972E+03  0.83940456738E+03  0.17200000000E+03 0. -1.
<mgrwt>
<rscale>  2 0.18342009E+03</rscale>
<asrwt>0</asrwt>
<pdfrwt beam="1">  1       21 0.28843253E+00 0.18342009E+03</pdfrwt>
<pdfrwt beam="2">  1       21 0.90160038E-02 0.18342009E+03</pdfrwt>
<totfact> 0.39176009E+03</totfact>
</mgrwt>
</event>
<event>
 4    1  0.1110581E+000  0.2007978E+03  0.7546771E-02  0.1149068E+00
         21   -1    0    0  501  502  0.00000000000E+00  0.00000000000E+00  0.72439502044E+02  0.72439502044E+02  0.00000000000E+00 0. -1.
         21   -1    0    0  502  503 -0.00000000000E+00 -0.00000000000E+00 -0.57939071623E+03  0.57939071623E+03  0.00000000000E+00 0. -1.
          6    1    1    2  501    0  0.10361326306E+03  0.23839929750E+00 -0.31811627471E+03  0.37618842267E+03  0.17200000000E+03 0. -1.
         -6    1    1    2    0  503 -0.10361326306E+03 -0.23839929750E+00 -0.18883493947E+03  0.27564179560E+03  0.17200000000E+03 0. -1.
<mgrwt>
<rscale>  2 0.20079782E+03</rscale>
<asrwt>0</asrwt>
<pdfrwt beam="1">  1       21 0.18109876E-01 0.20079782E+03</pdfrwt>
<pdfrwt beam="2">  1       21 0.14484768E+00 0.20079782E+03</pdfrwt>
<totfact> 0.90373538E+03</totfact>
</mgrwt>
</event>
<event>
 4    1  0.1110581E+000  0.1869555E+03  0.7546771E-02  0.1161236E+00
         21   -1    0    0  501  502  0.00000000000E+00  0.00000000000E+00  0.79012676049E+02  0.79012676049E+02  0.00000000000E+00 0.  1.
         21   -1    0    0  502  503 -0.00000000000E+00 -0.00000000000E+00 -0.72568348071E+03  0.72568348071E+03  0.00000000000E+00 0.  1.
          6    1    1    2  501    0 -0.15085509072E+01 -0.73253569283E+02 -0.57473614350E+03  0.60437901667E+03  0.17200000000E+03 0.  1.
         -6    1    1    2    0  503  0.15085509072E+01  0.73253569283E+02 -0.71934661158E+02  0.20031714009E+03  0.17200000000E+03 0.  1.
<mgrwt>
<rscale>  2 0.18695551E+03</rscale>
<asrwt>0</asrwt>
<pdfrwt beam="1">  1       21 0.19753169E-01 0.18695551E+03</pdfrwt>
<pdfrwt beam="2">  1       21 0.18142087E+00 0.18695551E+03</pdfrwt>
<totfact> 0.42264580E+03</totfact>
</mgrwt>
</event>
<event>
 4    1  0.1110581E+000  0.1849951E+03  0.7546771E-02  0.1163054E+00
         21   -1    0    0  501  502  0.00000000000E+00  0.00000000000E+00  0.20895061963E+03  0.20895061963E+03  0.00000000000E+00 0.  1.
         21   -1    0    0  502  503 -0.00000000000E+00 -0.00000000000E+00 -0.19171675686E+03  0.19171675686E+03  0.00000000000E+00 0. -1.
          6    1    1    2  501    0 -0.55486508165E+02  0.39502546669E+02  0.85082275490E+02  0.20362268386E+03  0.17200000000E+03 0.  1.
         -6    1    1    2    0  503  0.55486508165E+02 -0.39502546669E+02 -0.67848412728E+02  0.19704469262E+03  0.17200000000E+03 0. -1.
<mgrwt>
<rscale>  2 0.18499515E+03</rscale>
<asrwt>0</asrwt>
<pdfrwt beam="1">  1       21 0.52237655E-01 0.18499515E+03</pdfrwt>
<pdfrwt beam="2">  1       21 0.47929189E-01 0.18499515E+03</pdfrwt>
<totfact> 0.14536802E+04</totfact>
</mgrwt>
</event>
<event>
 4    1  0.1110581E+000  0.1863606E+03  0.7546771E-02  0.1161785E+00
         21   -1    0    0  503  502  0.00000000000E+00  0.00000000000E+00  0.96774343141E+03  0.96774343141E+03  0.00000000000E+00 0.  1.
         21   -1    0    0  501  503 -0.00000000000E+00 -0.00000000000E+00 -0.58677994555E+02  0.58677994555E+02  0.00000000000E+00 0. -1.
          6    1    1    2  501    0 -0.97234643445E+01 -0.71075516131E+02  0.13469388525E+03  0.22994068252E+03  0.17200000000E+03 0. -1.
         -6    1    1    2    0  502  0.97234643445E+01  0.71075516131E+02  0.77437155160E+03  0.79648074345E+03  0.17200000000E+03 0.  1.
<mgrwt>
<rscale>  2 0.18636060E+03</rscale>
<asrwt>0</asrwt>
<pdfrwt beam="1">  1       21 0.24193581E+00 0.18636060E+03</pdfrwt>
<pdfrwt beam="2">  1       21 0.14669502E-01 0.18636060E+03</pdfrwt>
<totfact> 0.30520442E+03</totfact>
</mgrwt>
</event>
<event>
 4    1  0.1110581E+000  0.2800835E+03  0.7546771E-02  0.1095643E+00
         21   -1    0    0  501  502  0.00000000000E+00  0.00000000000E+00  0.59980060898E+03  0.59980060898E+03  0.00000000000E+00 0. -1.
         21   -1    0    0  502  503 -0.00000000000E+00 -0.00000000000E+00 -0.13492769016E+03  0.13492769016E+03  0.00000000000E+00 0. -1.
          6    1    1    2  501    0  0.99177476742E+02 -0.19755145615E+03  0.16808954479E+03  0.32665095253E+03  0.17200000000E+03 0. -1.
         -6    1    1    2    0  503 -0.99177476742E+02  0.19755145615E+03  0.29678337402E+03  0.40807734661E+03  0.17200000000E+03 0. -1.
<mgrwt>
<rscale>  2 0.28008347E+03</rscale>
<asrwt>0</asrwt>
<pdfrwt beam="1">  1       21 0.14995015E+00 0.28008347E+03</pdfrwt>
<pdfrwt beam="2">  1       21 0.33731924E-01 0.28008347E+03</pdfrwt>
<totfact> 0.23643673E+03</totfact>
</mgrwt>
</event>
<event>
 4    1  0.1110581E+000  0.1951672E+03  0.7546771E-02  0.1153882E+00
         21   -1    0    0  501  502  0.00000000000E+00  0.00000000000E+00  0.22600144087E+03  0.22600144087E+03  0.00000000000E+00 0. -1.
         21   -1    0    0  502  503 -0.00000000000E+00 -0.00000000000E+00 -0.30416502836E+03  0.30416502836E+03  0.00000000000E+00 0.  1.
          6    1    1    2  501    0 -0.77662803398E+02  0.49746536389E+02  0.13792825627E+03  0.23898626068E+03  0.17200000000E+03 0. -1.
         -6    1    1    2    0  503  0.77662803398E+02 -0.49746536389E+02 -0.21609184376E+03  0.29118020855E+03  0.17200000000E+03 0.  1.
<mgrwt>
<rscale>  2 0.19516718E+03</rscale>
<asrwt>0</asrwt>
<pdfrwt beam="1">  1       21 0.56500361E-01 0.19516718E+03</pdfrwt>
<pdfrwt beam="2">  1       21 0.76041257E-01 0.19516718E+03</pdfrwt>
<totfact> 0.45330936E+03</totfact>
</mgrwt>
</event>
<event>
 4    1  0.1110581E+000  0.3138752E+03  0.7546771E-02  0.1078503E+00
         21   -1    0    0  501  502  0.00000000000E+00  0.00000000000E+00  0.21856310447E+03  0.21856310447E+03  0.00000000000E+00 0. -1.
         21   -1    0    0  502  503 -0.00000000000E+00 -0.00000000000E+00 -0.52995282069E+03  0.52995282069E+03  0.00000000000E+00 0. -1.
          6    1    1    2  501    0  0.21783684172E+03 -0.14656322715E+03 -0.11011566357E+02  0.31406834249E+03  0.17200000000E+03 0. -1.
         -6    1    1    2    0  503 -0.21783684172E+03  0.14656322715E+03 -0.30037814987E+03  0.43444758266E+03  0.17200000000E+03 0. -1.
<mgrwt>
<rscale>  2 0.31387524E+03</rscale>
<asrwt>0</asrwt>
<pdfrwt beam="1">  1       21 0.54640776E-01 0.31387524E+03</pdfrwt>
<pdfrwt beam="2">  1       21 0.13248820E+00 0.31387524E+03</pdfrwt>
<totfact> 0.11846963E+03</totfact>
</mgrwt>
</event>
<event>
 4    1  0.1110581E+000  0.2128252E+03  0.7546771E-02  0.1139348E+00
         21   -1    0    0  503  502  0.00000000000E+00  0.00000000000E+00  0.59951788410E+03  0.59951788410E+03  0.00000000000E+00 0.  1.
         21   -1    0    0  501  503 -0.00000000000E+00 -0.00000000000E+00 -0.85427472828E+02  0.85427472828E+02  0.00000000000E+00 0. -1.
          6    1    1    2  501    0  0.44604215590E+02 -0.11713686341E+03  0.14060224783E+03  0.25507562195E+03  0.17200000000E+03 0. -1.
         -6    1    1    2    0  502 -0.44604215590E+02  0.11713686341E+03  0.37348816345E+03  0.42986973498E+03  0.17200000000E+03 0. -1.
<mgrwt>
<rscale>  2 0.21282524E+03</rscale>
<asrwt>0</asrwt>
<pdfrwt beam="1">  1       21 0.14987946E+00 0.21282524E+03</pdfrwt>
<pdfrwt beam="2">  1       21 0.21356870E-01 0.21282524E+03</pdfrwt>
<totfact> 0.60160640E+03</totfact>
</mgrwt>
</event>
<event>
 4    1  0.1110581E+000  0.1729750E+03  0.7546771E-02  0.1174780E+00
         21   -1    0    0  503  502  0.00000000000E+00  0.00000000000E+00  0.31846658745E+03  0.31846658745E+03  0.00000000000E+00 0. -1.
         21   -1    0    0  501  503 -0.00000000000E+00 -0.00000000000E+00 -0.11583789392E+03  0.11583789392E+03  0.00000000000E+00 0. -1.
          6    1    1    2  501    0  0.13980055280E+02  0.11869988346E+02  0.69238152746E+01  0.17311348240E+03  0.17200000000E+03 0. -1.
         -6    1    1    2    0  502 -0.13980055280E+02 -0.11869988346E+02  0.19570487826E+03  0.26119099897E+03  0.17200000000E+03 0. -1.
<mgrwt>
<rscale>  2 0.17297497E+03</rscale>
<asrwt>0</asrwt>
<pdfrwt beam="1">  1       21 0.79616645E-01 0.17297497E+03</pdfrwt>
<pdfrwt beam="2">  1       21 0.28959474E-01 0.17297497E+03</pdfrwt>
<totfact> 0.16071731E+04</totfact>
</mgrwt>
</event>
<event>
 4    1  0.1110581E+000  0.1835090E+03  0.7546771E-02  0.1164450E+00
         21   -1    0    0  501  502  0.00000000000E+00  0.00000000000E+00  0.41174286471E+02  0.41174286471E+02  0.00000000000E+00 0.  1.
         21   -1    0    0  502  503 -0.00000000000E+00 -0.00000000000E+00 -0.17248598388E+04  0.17248598388E+04  0.00000000000E+00 0.  1.
          6    1    1    2  501    0  0.33337868792E+02  0.54590622581E+02 -0.20153106050E+03  0.27256250277E+03  0.17200000000E+03 0.  1.
         -6    1    1    2    0  503 -0.33337868792E+02 -0.54590622581E+02 -0.14821544919E+04  0.14934716225E+04  0.17200000000E+03 0.  1.
<mgrwt>
<rscale>  2 0.18350899E+03</rscale>
<asrwt>0</asrwt>
<pdfrwt beam="1">  1       21 0.10293572E-01 0.18350899E+03</pdfrwt>
<pdfrwt beam="2">  1       21 0.43121493E+00 0.18350899E+03</pdfrwt>
<totfact> 0.43267636E+02</totfact>
</mgrwt>
</event>
<event>
 4    1  0.1110581E+000  0.1810378E+03  0.7546771E-02  0.1166802E+00
         21   -1    0    0  503  502  0.00000000000E+00  0.00000000000E+00  0.17983052244E+03  0.17983052244E+03  0.00000000000E+00 0.  1.
         21   -1    0    0  501  503 -0.00000000000E+00 -0.00000000000E+00 -0.36715646273E+03  0.36715646273E+03  0.00000000000E+00 0.  1.
          6    1    1    2  501    0 -0.24360745992E+02  0.50963183259E+02 -0.28774872952E+03  0.33996179687E+03  0.17200000000E+03 0.  1.
         -6    1    1    2    0  502  0.24360745992E+02 -0.50963183259E+02  0.10042278923E+03  0.20702518830E+03  0.17200000000E+03 0.  1.
<mgrwt>
<rscale>  2 0.18103782E+03</rscale>
<asrwt>0</asrwt>
<pdfrwt beam="1">  1       21 0.44957631E-01 0.18103782E+03</pdfrwt>
<pdfrwt beam="2">  1       21 0.91789115E-01 0.18103782E+03</pdfrwt>
<totfact> 0.48101427E+03</totfact>
</mgrwt>
</event>
<event>
 4    1  0.1110581E+000  0.2173539E+03  0.7546771E-02  0.1135871E+00
         21   -1    0    0  501  502  0.00000000000E+00  0.00000000000E+00  0.83682868825E+03  0.83682868825E+03  0.00000000000E+00 0.  1.
         21   -1    0    0  502  503 -0.00000000000E+00 -0.00000000000E+00 -0.61571536007E+02  0.61571536007E+02  0.00000000000E+00 0. -1.
          6    1    1    2  501    0  0.87730526368E+02 -0.99810180763E+02  0.51712581400E+03  0.56094725683E+03  0.17200000000E+03 0.  1.
         -6    1    1    2    0  503 -0.87730526368E+02  0.99810180763E+02  0.25813133824E+03  0.33745296742E+03  0.17200000000E+03 0. -1.
<mgrwt>
<rscale>  2 0.21735390E+03</rscale>
<asrwt>0</asrwt>
<pdfrwt beam="1">  1       21 0.20920714E+00 0.21735390E+03</pdfrwt>
<pdfrwt beam="2">  1       21 0.15392887E-01 0.21735390E+03</pdfrwt>
<totfact> 0.42931248E+03</totfact>
</mgrwt>
</event>
<event>
 4    1  0.1110581E+000  0.2072690E+03  0.7546771E-02  0.1143747E+00
         21   -1    0    0  503  502  0.00000000000E+00  0.00000000000E+00  0.47436312313E+03  0.47436312313E+03  0.00000000000E+00 0. -1.
         21   -1    0    0  501  503 -0.00000000000E+00 -0.00000000000E+00 -0.15468313345E+03  0.15468313345E+03  0.00000000000E+00 0.  1.
          6    1    1    2  501    0 -0.11096783050E+03 -0.32597066551E+02  0.36233926186E+03  0.41743283153E+03  0.17200000000E+03 0. -1.
         -6    1    1    2    0  502  0.11096783050E+03  0.32597066551E+02 -0.42659272182E+02  0.21161342504E+03  0.17200000000E+03 0.  1.
<mgrwt>
<rscale>  2 0.20726898E+03</rscale>
<asrwt>0</asrwt>
<pdfrwt beam="1">  1       21 0.11859078E+00 0.20726898E+03</pdfrwt>
<pdfrwt beam="2">  1       21 0.38670784E-01 0.20726898E+03</pdfrwt>
<totfact> 0.34634267E+03</totfact>
</mgrwt>
</event>
<event>
 4    1  0.1110581E+000  0.2037783E+03  0.7546771E-02  0.1146590E+00
         21   -1    0    0  501  502  0.00000000000E+00  0.00000000000E+00  0.10628879621E+03  0.10628879621E+03  0.00000000000E+00 0. -1.
         21   -1    0    0  502  503 -0.00000000000E+00 -0.00000000000E+00 -0.51604168692E+03  0.51604168692E+03  0.00000000000E+00 0. -1.
          6    1    1    2  501    0  0.60821034280E+02 -0.90787679730E+02 -0.51513730702E+02  0.21018864254E+03  0.17200000000E+03 0. -1.
         -6    1    1    2    0  503 -0.60821034280E+02  0.90787679730E+02 -0.35823916000E+03  0.41214184059E+03  0.17200000000E+03 0. -1.
<mgrwt>
<rscale>  2 0.20377831E+03</rscale>
<asrwt>0</asrwt>
<pdfrwt beam="1">  1       21 0.26572200E-01 0.20377831E+03</pdfrwt>
<pdfrwt beam="2">  1       21 0.12901042E+00 0.20377831E+03</pdfrwt>
<totfact> 0.58865941E+03</totfact>
</mgrwt>
</event>
<event>
 4    1  0.1110581E+000  0.2356135E+03  0.7546771E-02  0.1122750E+00
         21   -1    0    0  501  502  0.00000000000E+00  0.00000000000E+00  0.25884577824E+03  0.25884577824E+03  0.00000000000E+00 0. -1.
         21   -1    0    0  502  503 -0.00000000000E+00 -0.00000000000E+00 -0.25493862497E+03  0.25493862497E+03  0.00000000000E+00 0.  1.
          6    1    1    2  501    0  0.41106737158E+02 -0.15569190061E+03 -0.10040198453E+03  0.25611382284E+03  0.17200000000E+03 0. -1.
         -6    1    1    2    0  503 -0.41106737158E+02  0.15569190061E+03  0.10430913780E+03  0.25767058036E+03  0.17200000000E+03 0.  1.
<mgrwt>
<rscale>  2 0.23561352E+03</rscale>
<asrwt>0</asrwt>
<pdfrwt beam="1">  1       21 0.64711445E-01 0.23561352E+03</pdfrwt>
<pdfrwt beam="2">  1       21 0.63734656E-01 0.23561352E+03</pdfrwt>
<totfact> 0.48511233E+03</totfact>
</mgrwt>
</event>
<event>
 4    1  0.1110581E+000  0.3006543E+03  0.7546771E-02  0.1084914E+00
         21   -1    0    0  503  502  0.00000000000E+00  0.00000000000E+00  0.81904636722E+03  0.81904636722E+03  0.00000000000E+00 0.  1.
         21   -1    0    0  501  503 -0.00000000000E+00 -0.00000000000E+00 -0.11416004118E+03  0.11416004118E+03  0.00000000000E+00 0. -1.
          6    1    1    2  501    0  0.34726069832E+02 -0.24413748835E+03  0.43753178482E+03  0.53087387944E+03  0.17200000000E+03 0.  1.
         -6    1    1    2    0  502 -0.34726069832E+02  0.24413748835E+03  0.26735454122E+03  0.40233252896E+03  0.17200000000E+03 0. -1.
<mgrwt>
<rscale>  2 0.30065431E+03</rscale>
<asrwt>0</asrwt>
<pdfrwt beam="1">  1       21 0.20476158E+00 0.30065431E+03</pdfrwt>
<pdfrwt beam="2">  1       21 0.28540013E-01 0.30065431E+03</pdfrwt>
<totfact> 0.13369983E+03</totfact>
</mgrwt>
</event>
<event>
 4    1  0.1110581E+000  0.1880857E+03  0.7546771E-02  0.1160199E+00
         21   -1    0    0  503  502  0.00000000000E+00  0.00000000000E+00  0.68264013710E+02  0.68264013710E+02  0.00000000000E+00 0. -1.
         21   -1    0    0  501  503 -0.00000000000E+00 -0.00000000000E+00 -0.65837173045E+03  0.65837173045E+03  0.00000000000E+00 0. -1.
          6    1    1    2  501    0  0.75901342573E+02  0.55871889837E+01 -0.12742834611E+03  0.22718761823E+03  0.17200000000E+03 0. -1.
         -6    1    1    2    0  502 -0.75901342573E+02 -0.55871889837E+01 -0.46267937064E+03  0.49944812593E+03  0.17200000000E+03 0. -1.
<mgrwt>
<rscale>  2 0.18808570E+03</rscale>
<asrwt>0</asrwt>
<pdfrwt beam="1">  1       21 0.17066004E-01 0.18808570E+03</pdfrwt>
<pdfrwt beam="2">  1       21 0.16459293E+00 0.18808570E+03</pdfrwt>
<totfact> 0.72480363E+03</totfact>
</mgrwt>
</event>
<event>
 4    1  0.1110581E+000  0.1900289E+03  0.7546771E-02  0.1158435E+00
         21   -1    0    0  503  502  0.00000000000E+00  0.00000000000E+00  0.47487160525E+03  0.47487160525E+03  0.00000000000E+00 0.  1.
         21   -1    0    0  501  503 -0.00000000000E+00 -0.00000000000E+00 -0.20551568913E+03  0.20551568913E+03  0.00000000000E+00 0.  1.
          6    1    1    2  501    0 -0.61626381545E+02  0.52241446115E+02 -0.13533939095E+03  0.23329751464E+03  0.17200000000E+03 0.  1.
         -6    1    1    2    0  502  0.61626381545E+02 -0.52241446115E+02  0.40469530706E+03  0.44708977974E+03  0.17200000000E+03 0.  1.
<mgrwt>
<rscale>  2 0.19002889E+03</rscale>
<asrwt>0</asrwt>
<pdfrwt beam="1">  1       21 0.11871790E+00 0.19002889E+03</pdfrwt>
<pdfrwt beam="2">  1       21 0.51378923E-01 0.19002889E+03</pdfrwt>
<totfact> 0.19572071E+03</totfact>
</mgrwt>
</event>
<event>
 4    1  0.1110581E+000  0.2358862E+03  0.7546771E-02  0.1122564E+00
         21   -1    0    0  503  502  0.00000000000E+00  0.00000000000E+00  0.77179826250E+02  0.77179826250E+02  0.00000000000E+00 0.  1.
         21   -1    0    0  501  503 -0.00000000000E+00 -0.00000000000E+00 -0.76205179267E+03  0.76205179267E+03  0.00000000000E+00 0.  1.
          6    1    1    2  501    0 -0.11846779613E+03  0.10965264639E+03 -0.24497687468E+03  0.34008232931E+03  0.17200000000E+03 0. -1.
         -6    1    1    2    0  502  0.11846779613E+03 -0.10965264639E+03 -0.43989509173E+03  0.49914928960E+03  0.17200000000E+03 0. -1.
<mgrwt>
<rscale>  2 0.23588625E+03</rscale>
<asrwt>0</asrwt>
<pdfrwt beam="1">  1       21 0.19294957E-01 0.23588625E+03</pdfrwt>
<pdfrwt beam="2">  1       21 0.19051295E+00 0.23588625E+03</pdfrwt>
<totfact> 0.36777528E+03</totfact>
</mgrwt>
</event>
<event>
 4    1  0.1110581E+000  0.1772851E+03  0.7546771E-02  0.1170457E+00
         21   -1    0    0  503  502  0.00000000000E+00  0.00000000000E+00  0.19128659674E+03  0.19128659674E+03  0.00000000000E+00 0. -1.
         21   -1    0    0  501  503 -0.00000000000E+00 -0.00000000000E+00 -0.22087590457E+03  0.22087590457E+03  0.00000000000E+00 0. -1.
          6    1    1    2  501    0 -0.36161106567E+02  0.23202769341E+02 -0.11908589399E+03  0.21356835974E+03  0.17200000000E+03 0. -1.
         -6    1    1    2    0  502  0.36161106567E+02 -0.23202769341E+02  0.89496586159E+02  0.19859414157E+03  0.17200000000E+03 0. -1.
<mgrwt>
<rscale>  2 0.17728506E+03</rscale>
<asrwt>0</asrwt>
<pdfrwt beam="1">  1       21 0.47821649E-01 0.17728506E+03</pdfrwt>
<pdfrwt beam="2">  1       21 0.55218976E-01 0.17728506E+03</pdfrwt>
<totfact> 0.13060832E+04</totfact>
</mgrwt>
</event>
<event>
 4    1  0.1110581E+000  0.1752048E+03  0.7546771E-02  0.1172526E+00
         21   -1    0    0  503  502  0.00000000000E+00  0.00000000000E+00  0.10909913057E+03  0.10909913057E+03  0.00000000000E+00 0. -1.
         21   -1    0    0  501  503 -0.00000000000E+00 -0.00000000000E+00 -0.54920053201E+03  0.54920053201E+03  0.00000000000E+00 0. -1.
          6    1    1    2  501    0 -0.15837184306E+02 -0.29357988755E+02 -0.44990997294E+03  0.48282055845E+03  0.17200000000E+03 0. -1.
         -6    1    1    2    0  502  0.15837184306E+02  0.29357988755E+02  0.98085714967E+01  0.17547910413E+03  0.17200000000E+03 0. -1.
<mgrwt>
<rscale>  2 0.17520476E+03</rscale>
<asrwt>0</asrwt>
<pdfrwt beam="1">  1       21 0.27274783E-01 0.17520476E+03</pdfrwt>
<pdfrwt beam="2">  1       21 0.13730013E+00 0.17520476E+03</pdfrwt>
<totfact> 0.48947818E+03</totfact>
</mgrwt>
</event>
<event>
 4    1  0.1110581E+000  0.1971955E+03  0.7546771E-02  0.1152127E+00
         21   -1    0    0  503  502  0.00000000000E+00  0.00000000000E+00  0.62031263903E+02  0.62031263903E+02  0.00000000000E+00 0.  1.
         21   -1    0    0  501  503 -0.00000000000E+00 -0.00000000000E+00 -0.64000207940E+03  0.64000207940E+03  0.00000000000E+00 0.  1.
          6    1    1    2  501    0  0.94711824835E+02 -0.18213259093E+02 -0.33925052462E+03  0.39239899468E+03  0.17200000000E+03 0.  1.
         -6    1    1    2    0  502 -0.94711824835E+02  0.18213259093E+02 -0.23872029087E+03  0.30963434862E+03  0.17200000000E+03 0.  1.
<mgrwt>
<rscale>  2 0.19719547E+03</rscale>
<asrwt>0</asrwt>
<pdfrwt beam="1">  1       21 0.15507816E-01 0.19719547E+03</pdfrwt>
<pdfrwt beam="2">  1       21 0.16000052E+00 0.19719547E+03</pdfrwt>
<totfact> 0.92590133E+03</totfact>
</mgrwt>
</event>
<event>
 4    1  0.1110581E+000  0.2044785E+03  0.7546771E-02  0.1146015E+00
         21   -1    0    0  501  502  0.00000000000E+00  0.00000000000E+00  0.22492674693E+03  0.22492674693E+03  0.00000000000E+00 0.  1.
         21   -1    0    0  502  503 -0.00000000000E+00 -0.00000000000E+00 -0.18662172592E+03  0.18662172592E+03  0.00000000000E+00 0. -1.
          6    1    1    2  501    0  0.12826382393E+02  0.10983134609E+03  0.32045027252E+02  0.20697421202E+03  0.17200000000E+03 0. -1.
         -6    1    1    2    0  503 -0.12826382393E+02 -0.10983134609E+03  0.62599937610E+01  0.20457426082E+03  0.17200000000E+03 0.  1.
<mgrwt>
<rscale>  2 0.20447846E+03</rscale>
<asrwt>0</asrwt>
<pdfrwt beam="1">  1       21 0.56231687E-01 0.20447846E+03</pdfrwt>
<pdfrwt beam="2">  1       21 0.46655432E-01 0.20447846E+03</pdfrwt>
<totfact> 0.12991168E+04</totfact>
</mgrwt>
</event>
<event>
 4    1  0.1110581E+000  0.1957948E+03  0.7546771E-02  0.1153336E+00
         21   -1    0    0  503  502  0.00000000000E+00  0.00000000000E+00  0.24687764857E+02  0.24687764857E+02  0.00000000000E+00 0. -1.
         21   -1    0    0  501  503 -0.00000000000E+00 -0.00000000000E+00 -0.16032077061E+04  0.16032077061E+04  0.00000000000E+00 0. -1.
          6    1    1    2  501    0  0.22132867107E+02  0.90894209583E+02 -0.93356113369E+03  0.95387211484E+03  0.17200000000E+03 0. -1.
         -6    1    1    2    0  502 -0.22132867107E+02 -0.90894209583E+02 -0.64495880751E+03  0.67402335606E+03  0.17200000000E+03 0. -1.
<mgrwt>
<rscale>  2 0.19579484E+03</rscale>
<asrwt>0</asrwt>
<pdfrwt beam="1">  1       21 0.61719417E-02 0.19579484E+03</pdfrwt>
<pdfrwt beam="2">  1       21 0.40080189E+00 0.19579484E+03</pdfrwt>
<totfact> 0.16104127E+03</totfact>
</mgrwt>
</event>
<event>
 4    1  0.1110581E+000  0.2128534E+03  0.7546771E-02  0.1139326E+00
         21   -1    0    0  503  502  0.00000000000E+00  0.00000000000E+00  0.29168637460E+03  0.29168637460E+03  0.00000000000E+00 0. -1.
         21   -1    0    0  501  503 -0.00000000000E+00 -0.00000000000E+00 -0.17827231519E+03  0.17827231519E+03  0.00000000000E+00 0.  1.
          6    1    1    2  501    0 -0.12535801473E+03 -0.28137597603E+01 -0.27595751252E+02  0.21463474693E+03  0.17200000000E+03 0.  1.
         -6    1    1    2    0  502  0.12535801473E+03  0.28137597603E+01  0.14100981066E+03  0.25532394287E+03  0.17200000000E+03 0. -1.
<mgrwt>
<rscale>  2 0.21285335E+03</rscale>
<asrwt>0</asrwt>
<pdfrwt beam="1">  1       21 0.72921593E-01 0.21285335E+03</pdfrwt>
<pdfrwt beam="2">  1       21 0.44568079E-01 0.21285335E+03</pdfrwt>
<totfact> 0.80652800E+03</totfact>
</mgrwt>
</event>
<event>
 4    1  0.1110581E+000  0.1968806E+03  0.7546771E-02  0.1152398E+00
         21   -1    0    0  503  502  0.00000000000E+00  0.00000000000E+00  0.14249440504E+04  0.14249440504E+04  0.00000000000E+00 0.  1.
         21   -1    0    0  501  503 -0.00000000000E+00 -0.00000000000E+00 -0.54874681096E+02  0.54874681096E+02  0.00000000000E+00 0.  1.
          6    1    1    2  501    0 -0.49617226033E+02  0.81951820675E+02  0.15960500149E+03  0.25344768007E+03  0.17200000000E+03 0.  1.
         -6    1    1    2    0  502  0.49617226033E+02 -0.81951820675E+02  0.12104643678E+04  0.12263710514E+04  0.17200000000E+03 0.  1.
<mgrwt>
<rscale>  2 0.19688060E+03</rscale>
<asrwt>0</asrwt>
<pdfrwt beam="1">  1       21 0.35623589E+00 0.19688060E+03</pdfrwt>
<pdfrwt beam="2">  1       21 0.13718675E-01 0.19688060E+03</pdfrwt>
<totfact> 0.73624366E+02</totfact>
</mgrwt>
</event>
<event>
 4    1  0.1110581E+000  0.2028524E+03  0.7546771E-02  0.1147355E+00
         21   -1    0    0  503  502  0.00000000000E+00  0.00000000000E+00  0.36911669801E+03  0.36911669801E+03  0.00000000000E+00 0.  1.
         21   -1    0    0  501  503 -0.00000000000E+00 -0.00000000000E+00 -0.11204742387E+03  0.11204742387E+03  0.00000000000E+00 0.  1.
          6    1    1    2  501    0 -0.59379159967E+02 -0.89661614774E+02  0.14565674577E+03  0.24972980877E+03  0.17200000000E+03 0.  1.
         -6    1    1    2    0  502  0.59379159967E+02  0.89661614774E+02  0.11141252837E+03  0.23143431310E+03  0.17200000000E+03 0.  1.
<mgrwt>
<rscale>  2 0.20285238E+03</rscale>
<asrwt>0</asrwt>
<pdfrwt beam="1">  1       21 0.92279172E-01 0.20285238E+03</pdfrwt>
<pdfrwt beam="2">  1       21 0.28011857E-01 0.20285238E+03</pdfrwt>
<totfact> 0.11985055E+04</totfact>
</mgrwt>
</event>
<event>
 4    1  0.1110581E+000  0.2102977E+03  0.7546771E-02  0.1141330E+00
         21   -1    0    0  501  502  0.00000000000E+00  0.00000000000E+00  0.18042602810E+03  0.18042602810E+03  0.00000000000E+00 0.  1.
         21   -1    0    0  502  503 -0.00000000000E+00 -0.00000000000E+00 -0.36411759502E+03  0.36411759502E+03  0.00000000000E+00 0. -1.
          6    1    1    2  501    0 -0.48868127777E+02 -0.11069336060E+03  0.63808180199E+02  0.21976486947E+03  0.17200000000E+03 0.  1.
         -6    1    1    2    0  503  0.48868127777E+02  0.11069336060E+03 -0.24749974713E+03  0.32477875365E+03  0.17200000000E+03 0.  1.
<mgrwt>
<rscale>  2 0.21029768E+03</rscale>
<asrwt>0</asrwt>
<pdfrwt beam="1">  1       21 0.45106507E-01 0.21029768E+03</pdfrwt>
<pdfrwt beam="2">  1       21 0.91029398E-01 0.21029768E+03</pdfrwt>
<totfact> 0.47593837E+03</totfact>
</mgrwt>
</event>
<event>
 4    1  0.1110581E+000  0.1946711E+03  0.7546771E-02  0.1154314E+00
         21   -1    0    0  501  502  0.00000000000E+00  0.00000000000E+00  0.86310352276E+03  0.86310352276E+03  0.00000000000E+00 0. -1.
         21   -1    0    0  502  503 -0.00000000000E+00 -0.00000000000E+00 -0.10575086777E+03  0.10575086777E+03  0.00000000000E+00 0.  1.
          6    1    1    2  501    0 -0.68527877325E+02 -0.60139714408E+02  0.74912884751E+03  0.77400961582E+03  0.17200000000E+03 0. -1.
         -6    1    1    2    0  503  0.68527877325E+02  0.60139714408E+02  0.82238074847E+01  0.19484477470E+03  0.17200000000E+03 0.  1.
<mgrwt>
<rscale>  2 0.19467115E+03</rscale>
<asrwt>0</asrwt>
<pdfrwt beam="1">  1       21 0.21577586E+00 0.19467115E+03</pdfrwt>
<pdfrwt beam="2">  1       21 0.26437720E-01 0.19467115E+03</pdfrwt>
<totfact> 0.14503780E+03</totfact>
</mgrwt>
</event>
<event>
 4    1  0.1110581E+000  0.1926709E+03  0.7546771E-02  0.1156074E+00
         21   -1    0    0  503  502  0.00000000000E+00  0.00000000000E+00  0.56386622781E+03  0.56386622781E+03  0.00000000000E+00 0. -1.
         21   -1    0    0  501  503 -0.00000000000E+00 -0.00000000000E+00 -0.67407475837E+02  0.67407475837E+02  0.00000000000E+00 0. -1.
          6    1    1    2  501    0 -0.28685573044E+02  0.81946316328E+02  0.29644006674E+03  0.35355165680E+03  0.17200000000E+03 0. -1.
         -6    1    1    2    0  502  0.28685573044E+02 -0.81946316328E+02  0.20001868524E+03  0.27772204685E+03  0.17200000000E+03 0. -1.
<mgrwt>
<rscale>  2 0.19267086E+03</rscale>
<asrwt>0</asrwt>
<pdfrwt beam="1">  1       21 0.14096654E+00 0.19267086E+03</pdfrwt>
<pdfrwt beam="2">  1       21 0.16851871E-01 0.19267086E+03</pdfrwt>
<totfact> 0.11144643E+04</totfact>
</mgrwt>
</event>
<event>
 4    1  0.1110581E+000  0.1958114E+03  0.7546771E-02  0.1153322E+00
         21   -1    0    0  503  502  0.00000000000E+00  0.00000000000E+00  0.73310562894E+03  0.73310562894E+03  0.00000000000E+00 0.  1.
         21   -1    0    0  501  503 -0.00000000000E+00 -0.00000000000E+00 -0.10167880644E+03  0.10167880644E+03  0.00000000000E+00 0. -1.
          6    1    1    2  501    0  0.78528235636E+02 -0.50905865650E+02  0.24845760530E+02  0.19738136378E+03  0.17200000000E+03 0. -1.
         -6    1    1    2    0  502 -0.78528235636E+02  0.50905865650E+02  0.60658106197E+03  0.63740307161E+03  0.17200000000E+03 0.  1.
<mgrwt>
<rscale>  2 0.19581137E+03</rscale>
<asrwt>0</asrwt>
<pdfrwt beam="1">  1       21 0.18327639E+00 0.19581137E+03</pdfrwt>
<pdfrwt beam="2">  1       21 0.25419704E-01 0.19581137E+03</pdfrwt>
<totfact> 0.25291246E+03</totfact>
</mgrwt>
</event>
<event>
 4    1  0.1110581E+000  0.2142940E+03  0.7546771E-02  0.1138210E+00
         21   -1    0    0  503  502  0.00000000000E+00  0.00000000000E+00  0.68815356403E+03  0.68815356403E+03  0.00000000000E+00 0.  1.
         21   -1    0    0  501  503 -0.00000000000E+00 -0.00000000000E+00 -0.95794009920E+02  0.95794009920E+02  0.00000000000E+00 0. -1.
          6    1    1    2  501    0  0.11811719555E+03 -0.48849169032E+02  0.80281024310E+02  0.22883827491E+03  0.17200000000E+03 0. -1.
         -6    1    1    2    0  502 -0.11811719555E+03  0.48849169032E+02  0.51207852980E+03  0.55510929904E+03  0.17200000000E+03 0.  1.
<mgrwt>
<rscale>  2 0.21429399E+03</rscale>
<asrwt>0</asrwt>
<pdfrwt beam="1">  1       21 0.17203838E+00 0.21429399E+03</pdfrwt>
<pdfrwt beam="2">  1       21 0.23948505E-01 0.21429399E+03</pdfrwt>
<totfact> 0.33289427E+03</totfact>
</mgrwt>
</event>
<event>
 4    1  0.1110581E+000  0.1742135E+03  0.7546771E-02  0.1173524E+00
         21   -1    0    0  503  502  0.00000000000E+00  0.00000000000E+00  0.23685569123E+03  0.23685569123E+03  0.00000000000E+00 0. -1.
         21   -1    0    0  501  503 -0.00000000000E+00 -0.00000000000E+00 -0.37542085578E+03  0.37542085578E+03  0.00000000000E+00 0. -1.
          6    1    1    2  501    0 -0.22810344010E+02  0.15685377468E+02 -0.31774171166E+03  0.36236740773E+03  0.17200000000E+03 0. -1.
         -6    1    1    2    0  502  0.22810344010E+02 -0.15685377468E+02  0.17917654711E+03  0.24990913928E+03  0.17200000000E+03 0. -1.
<mgrwt>
<rscale>  2 0.17421350E+03</rscale>
<asrwt>0</asrwt>
<pdfrwt beam="1">  1       21 0.59213923E-01 0.17421350E+03</pdfrwt>
<pdfrwt beam="2">  1       21 0.93855213E-01 0.17421350E+03</pdfrwt>
<totfact> 0.25830742E+03</totfact>
</mgrwt>
</event>
<event>
 4    1  0.1110581E+000  0.1768214E+03  0.7546771E-02  0.1170915E+00
         21   -1    0    0  503  502  0.00000000000E+00  0.00000000000E+00  0.16386489901E+03  0.16386489901E+03  0.00000000000E+00 0.  1.
         21   -1    0    0  501  503 -0.00000000000E+00 -0.00000000000E+00 -0.19512577565E+03  0.19512577565E+03  0.00000000000E+00 0.  1.
          6    1    1    2  501    0 -0.37898187234E+02  0.15669354069E+02 -0.42348925139E+02  0.18182198083E+03  0.17200000000E+03 0.  1.
         -6    1    1    2    0  502  0.37898187234E+02 -0.15669354069E+02  0.11088048504E+02  0.17716869383E+03  0.17200000000E+03 0.  1.
<mgrwt>
<rscale>  2 0.17682138E+03</rscale>
<asrwt>0</asrwt>
<pdfrwt beam="1">  1       21 0.40966225E-01 0.17682138E+03</pdfrwt>
<pdfrwt beam="2">  1       21 0.48781444E-01 0.17682138E+03</pdfrwt>
<totfact> 0.23234304E+04</totfact>
</mgrwt>
</event>
<event>
 4    1  0.1110581E+000  0.2175852E+03  0.7546771E-02  0.1135696E+00
         21   -1    0    0  503  502  0.00000000000E+00  0.00000000000E+00  0.37349237645E+03  0.37349237645E+03  0.00000000000E+00 0. -1.
         21   -1    0    0  501  503 -0.00000000000E+00 -0.00000000000E+00 -0.12686384294E+03  0.12686384294E+03  0.00000000000E+00 0.  1.
          6    1    1    2  501    0  0.92593538576E+02  0.95842245066E+02  0.13052652183E+03  0.25373307279E+03  0.17200000000E+03 0. -1.
         -6    1    1    2    0  502 -0.92593538576E+02 -0.95842245066E+02  0.11610201169E+03  0.24662314661E+03  0.17200000000E+03 0.  1.
<mgrwt>
<rscale>  2 0.21758515E+03</rscale>
<asrwt>0</asrwt>
<pdfrwt beam="1">  1       21 0.93373092E-01 0.21758515E+03</pdfrwt>
<pdfrwt beam="2">  1       21 0.31715962E-01 0.21758515E+03</pdfrwt>
<totfact> 0.90608094E+03</totfact>
</mgrwt>
</event>
<event>
 4    1  0.1110581E+000  0.1900427E+03  0.7546771E-02  0.1158423E+00
         21   -1    0    0  501  502  0.00000000000E+00  0.00000000000E+00  0.68457080110E+03  0.68457080110E+03  0.00000000000E+00 0. -1.
         21   -1    0    0  502  503 -0.00000000000E+00 -0.00000000000E+00 -0.52899850818E+02  0.52899850818E+02  0.00000000000E+00 0.  1.
          6    1    1    2  501    0 -0.71246444766E+02 -0.38159662493E+02  0.29670478794E+03  0.35234918322E+03  0.17200000000E+03 0. -1.
         -6    1    1    2    0  503  0.71246444766E+02  0.38159662493E+02  0.33496616234E+03  0.38512146869E+03  0.17200000000E+03 0.  1.
<mgrwt>
<rscale>  2 0.19004267E+03</rscale>
<asrwt>0</asrwt>
<pdfrwt beam="1">  1       21 0.17114267E+00 0.19004267E+03</pdfrwt>
<pdfrwt beam="2">  1       21 0.13224965E-01 0.19004267E+03</pdfrwt>
<totfact> 0.10345239E+04</totfact>
</mgrwt>
</event>
<event>
 4    1  0.1110581E+000  0.1830242E+03  0.7546771E-02  0.1164908E+00
         21   -1    0    0  503  502  0.00000000000E+00  0.00000000000E+00  0.17199167118E+03  0.17199167118E+03  0.00000000000E+00 0. -1.
         21   -1    0    0  501  503 -0.00000000000E+00 -0.00000000000E+00 -0.20235663273E+03  0.20235663273E+03  0.00000000000E+00 0.  1.
          6    1    1    2  501    0  0.50663163816E+01  0.62355428014E+02 -0.51437643534E+02  0.19011496032E+03  0.17200000000E+03 0.  1.
         -6    1    1    2    0  502 -0.50663163816E+01 -0.62355428014E+02  0.21072681982E+02  0.18423334359E+03  0.17200000000E+03 0. -1.
<mgrwt>
<rscale>  2 0.18302423E+03</rscale>
<asrwt>0</asrwt>
<pdfrwt beam="1">  1       21 0.42997918E-01 0.18302423E+03</pdfrwt>
<pdfrwt beam="2">  1       21 0.50589158E-01 0.18302423E+03</pdfrwt>
<totfact> 0.19452153E+04</totfact>
</mgrwt>
</event>
<event>
 4    1  0.1110581E+000  0.2022025E+03  0.7546771E-02  0.1147894E+00
         21   -1    0    0  503  502  0.00000000000E+00  0.00000000000E+00  0.83158116128E+02  0.83158116128E+02  0.00000000000E+00 0. -1.
         21   -1    0    0  501  503 -0.00000000000E+00 -0.00000000000E+00 -0.56906421358E+03  0.56906421358E+03  0.00000000000E+00 0. -1.
          6    1    1    2  501    0 -0.10631013965E+03  0.61710548633E-01 -0.36322273852E+03  0.41571216891E+03  0.17200000000E+03 0. -1.
         -6    1    1    2    0  502  0.10631013965E+03 -0.61710548633E-01 -0.12268335892E+03  0.23651016079E+03  0.17200000000E+03 0. -1.
<mgrwt>
<rscale>  2 0.20220250E+03</rscale>
<asrwt>0</asrwt>
<pdfrwt beam="1">  1       21 0.20789529E-01 0.20220250E+03</pdfrwt>
<pdfrwt beam="2">  1       21 0.14226605E+00 0.20220250E+03</pdfrwt>
<totfact> 0.73146767E+03</totfact>
</mgrwt>
</event>
<event>
 4    1  0.1110581E+000  0.1780407E+03  0.7546771E-02  0.1169713E+00
         21   -1    0    0  503  502  0.00000000000E+00  0.00000000000E+00  0.25174974592E+03  0.25174974592E+03  0.00000000000E+00 0.  1.
         21   -1    0    0  501  503 -0.00000000000E+00 -0.00000000000E+00 -0.27734973869E+03  0.27734973869E+03  0.00000000000E+00 0.  1.
          6    1    1    2  501    0 -0.38630591766E+02 -0.24943250517E+02 -0.20828323578E+03  0.27400801936E+03  0.17200000000E+03 0.  1.
         -6    1    1    2    0  502  0.38630591766E+02  0.24943250517E+02  0.18268324301E+03  0.25509146525E+03  0.17200000000E+03 0.  1.
<mgrwt>
<rscale>  2 0.17804069E+03</rscale>
<asrwt>0</asrwt>
<pdfrwt beam="1">  1       21 0.62937437E-01 0.17804069E+03</pdfrwt>
<pdfrwt beam="2">  1       21 0.69337434E-01 0.17804069E+03</pdfrwt>
<totfact> 0.44756922E+03</totfact>
</mgrwt>
</event>
<event>
 4    1  0.1110581E+000  0.3003487E+03  0.7546771E-02  0.1085066E+00
         21   -1    0    0  503  502  0.00000000000E+00  0.00000000000E+00  0.80777685686E+03  0.80777685686E+03  0.00000000000E+00 0. -1.
         21   -1    0    0  501  503 -0.00000000000E+00 -0.00000000000E+00 -0.16970532946E+03  0.16970532946E+03  0.00000000000E+00 0.  1.
          6    1    1    2  501    0 -0.24612140687E+03 -0.70417346364E+01  0.33240725586E+02  0.30218252561E+03  0.17200000000E+03 0.  1.
         -6    1    1    2    0  502  0.24612140687E+03  0.70417346364E+01  0.60483080181E+03  0.67529966071E+03  0.17200000000E+03 0. -1.
<mgrwt>
<rscale>  2 0.30034869E+03</rscale>
<asrwt>0</asrwt>
<pdfrwt beam="1">  1       21 0.20194420E+00 0.30034869E+03</pdfrwt>
<pdfrwt beam="2">  1       21 0.42426334E-01 0.30034869E+03</pdfrwt>
<totfact> 0.62974167E+02</totfact>
</mgrwt>
</event>
<event>
 4    1  0.1110581E+000  0.1893449E+03  0.7546771E-02  0.1159054E+00
         21   -1    0    0  501  502  0.00000000000E+00  0.00000000000E+00  0.19751191490E+03  0.19751191490E+03  0.00000000000E+00 0.  1.
         21   -1    0    0  502  503 -0.00000000000E+00 -0.00000000000E+00 -0.28084944598E+03  0.28084944598E+03  0.00000000000E+00 0.  1.
          6    1    1    2  501    0 -0.30121606462E+02  0.73213233745E+02  0.10057655612E+03  0.21439946924E+03  0.17200000000E+03 0.  1.
         -6    1    1    2    0  503  0.30121606462E+02 -0.73213233745E+02 -0.18391408719E+03  0.26396189164E+03  0.17200000000E+03 0.  1.
<mgrwt>
<rscale>  2 0.18934489E+03</rscale>
<asrwt>0</asrwt>
<pdfrwt beam="1">  1       21 0.49377979E-01 0.18934489E+03</pdfrwt>
<pdfrwt beam="2">  1       21 0.70212361E-01 0.18934489E+03</pdfrwt>
<totfact> 0.72162519E+03</totfact>
</mgrwt>
</event>
<event>
 4    1  0.1110581E+000  0.1767509E+03  0.7546771E-02  0.1170985E+00
         21   -1    0    0  501  502  0.00000000000E+00  0.00000000000E+00  0.40677126535E+02  0.40677126535E+02  0.00000000000E+00 0.  1.
         21   -1    0    0  502  503 -0.00000000000E+00 -0.00000000000E+00 -0.85329778753E+03  0.85329778753E+03  0.00000000000E+00 0.  1.
          6    1    1    2  501    0 -0.34007889063E+02 -0.22368712795E+02 -0.26500455439E+03  0.31854090739E+03  0.17200000000E+03 0. -1.
         -6    1    1    2    0  503  0.34007889063E+02  0.22368712795E+02 -0.54761610660E+03  0.57543400668E+03  0.17200000000E+03 0. -1.
<mgrwt>
<rscale>  2 0.17675094E+03</rscale>
<asrwt>0</asrwt>
<pdfrwt beam="1">  1       21 0.10169282E-01 0.17675094E+03</pdfrwt>
<pdfrwt beam="2">  1       21 0.21332445E+00 0.17675094E+03</pdfrwt>
<totfact> 0.88413158E+03</totfact>
</mgrwt>
</event>
<event>
 4    1  0.1110581E+000  0.2733108E+03  0.7546771E-02  0.1099400E+00
         21   -1    0    0  503  502  0.00000000000E+00  0.00000000000E+00  0.91365479550E+02  0.91365479550E+02  0.00000000000E+00 0.  1.
         21   -1    0    0  501  503 -0.00000000000E+00 -0.00000000000E+00 -0.89483174018E+03  0.89483174018E+03  0.00000000000E+00 0. -1.
          6    1    1    2  501    0 -0.58646812559E+02 -0.20414544122E+03 -0.25685246771E+03  0.37506266138E+03  0.17200000000E+03 0.  1.
         -6    1    1    2    0  502  0.58646812559E+02  0.20414544122E+03 -0.54661379292E+03  0.61113455835E+03  0.17200000000E+03 0. -1.
<mgrwt>
<rscale>  2 0.27331083E+03</rscale>
<asrwt>0</asrwt>
<pdfrwt beam="1">  1       21 0.22841370E-01 0.27331083E+03</pdfrwt>
<pdfrwt beam="2">  1       21 0.22370793E+00 0.27331083E+03</pdfrwt>
<totfact> 0.15912023E+03</totfact>
</mgrwt>
</event>
<event>
 4    1  0.1110581E+000  0.2369322E+03  0.7546771E-02  0.1121854E+00
         21   -1    0    0  503  502  0.00000000000E+00  0.00000000000E+00  0.55657020791E+03  0.55657020791E+03  0.00000000000E+00 0. -1.
         21   -1    0    0  501  503 -0.00000000000E+00 -0.00000000000E+00 -0.10571097747E+03  0.10571097747E+03  0.00000000000E+00 0.  1.
          6    1    1    2  501    0  0.93512128508E+02  0.13344785617E+03  0.15450903238E+03  0.28286019441E+03  0.17200000000E+03 0.  1.
         -6    1    1    2    0  502 -0.93512128508E+02 -0.13344785617E+03  0.29635019806E+03  0.37942099097E+03  0.17200000000E+03 0. -1.
<mgrwt>
<rscale>  2 0.23693216E+03</rscale>
<asrwt>0</asrwt>
<pdfrwt beam="1">  1       21 0.13914254E+00 0.23693216E+03</pdfrwt>
<pdfrwt beam="2">  1       21 0.26427746E-01 0.23693216E+03</pdfrwt>
<totfact> 0.47844494E+03</totfact>
</mgrwt>
</event>
<event>
 4    1  0.1110581E+000  0.1965249E+03  0.7546771E-02  0.1152704E+00
         21   -1    0    0  503  502  0.00000000000E+00  0.00000000000E+00  0.63894245406E+02  0.63894245406E+02  0.00000000000E+00 0. -1.
         21   -1    0    0  501  503 -0.00000000000E+00 -0.00000000000E+00 -0.60731164329E+03  0.60731164329E+03  0.00000000000E+00 0. -1.
          6    1    1    2  501    0  0.95063108422E+02  0.10273476760E+01 -0.29467175447E+03  0.35419414578E+03  0.17200000000E+03 0. -1.
         -6    1    1    2    0  502 -0.95063108422E+02 -0.10273476760E+01 -0.24874564341E+03  0.31701174291E+03  0.17200000000E+03 0. -1.
<mgrwt>
<rscale>  2 0.19652493E+03</rscale>
<asrwt>0</asrwt>
<pdfrwt beam="1">  1       21 0.15973562E-01 0.19652493E+03</pdfrwt>
<pdfrwt beam="2">  1       21 0.15182791E+00 0.19652493E+03</pdfrwt>
<totfact> 0.10095520E+04</totfact>
</mgrwt>
</event>
<event>
 4    1  0.1110581E+000  0.1889927E+03  0.7546771E-02  0.1159373E+00
         21   -1    0    0  503  502  0.00000000000E+00  0.00000000000E+00  0.24256441324E+03  0.24256441324E+03  0.00000000000E+00 0.  1.
         21   -1    0    0  501  503 -0.00000000000E+00 -0.00000000000E+00 -0.16024369886E+03  0.16024369886E+03  0.00000000000E+00 0.  1.
          6    1    1    2  501    0  0.38546736738E+01  0.78226502936E+02 -0.16185284553E+02  0.18968449517E+03  0.17200000000E+03 0.  1.
         -6    1    1    2    0  502 -0.38546736738E+01 -0.78226502936E+02  0.98505998934E+02  0.21312361694E+03  0.17200000000E+03 0.  1.
<mgrwt>
<rscale>  2 0.18899271E+03</rscale>
<asrwt>0</asrwt>
<pdfrwt beam="1">  1       21 0.60641103E-01 0.18899271E+03</pdfrwt>
<pdfrwt beam="2">  1       21 0.40060925E-01 0.18899271E+03</pdfrwt>
<totfact> 0.15244102E+04</totfact>
</mgrwt>
</event>
<event>
 4    1  0.1110581E+000  0.1833946E+03  0.7546771E-02  0.1164558E+00
         21   -1    0    0  503  502  0.00000000000E+00  0.00000000000E+00  0.19585561587E+03  0.19585561587E+03  0.00000000000E+00 0.  1.
         21   -1    0    0  501  503 -0.00000000000E+00 -0.00000000000E+00 -0.64646253217E+03  0.64646253217E+03  0.00000000000E+00 0. -1.
          6    1    1    2  501    0 -0.60790723304E+02 -0.18816893210E+02 -0.58621486486E+03  0.61423241147E+03  0.17200000000E+03 0. -1.
         -6    1    1    2    0  502  0.60790723304E+02  0.18816893210E+02  0.13560794857E+03  0.22808573657E+03  0.17200000000E+03 0.  1.
<mgrwt>
<rscale>  2 0.18339462E+03</rscale>
<asrwt>0</asrwt>
<pdfrwt beam="1">  1       21 0.48963905E-01 0.18339462E+03</pdfrwt>
<pdfrwt beam="2">  1       21 0.16161563E+00 0.18339462E+03</pdfrwt>
<totfact> 0.98487125E+02</totfact>
</mgrwt>
</event>
<event>
 4    1  0.1110581E+000  0.2159154E+03  0.7546771E-02  0.1136965E+00
         21   -1    0    0  501  502  0.00000000000E+00  0.00000000000E+00  0.19362921981E+03  0.19362921981E+03  0.00000000000E+00 0. -1.
         21   -1    0    0  502  503 -0.00000000000E+00 -0.00000000000E+00 -0.35734730860E+03  0.35734730860E+03  0.00000000000E+00 0. -1.
          6    1    1    2  501    0 -0.11325660281E+03  0.64872206577E+02 -0.23921061110E+03  0.32224397237E+03  0.17200000000E+03 0. -1.
         -6    1    1    2    0  503  0.11325660281E+03 -0.64872206577E+02  0.75492522306E+02  0.22873255604E+03  0.17200000000E+03 0. -1.
<mgrwt>
<rscale>  2 0.21591540E+03</rscale>
<asrwt>0</asrwt>
<pdfrwt beam="1">  1       21 0.48407305E-01 0.21591540E+03</pdfrwt>
<pdfrwt beam="2">  1       21 0.89336826E-01 0.21591540E+03</pdfrwt>
<totfact> 0.42772079E+03</totfact>
</mgrwt>
</event>
<event>
 4    1  0.1110581E+000  0.1847357E+03  0.7546771E-02  0.1163297E+00
         21   -1    0    0  503  502  0.00000000000E+00  0.00000000000E+00  0.61375010784E+03  0.61375010784E+03  0.00000000000E+00 0.  1.
         21   -1    0    0  501  503 -0.00000000000E+00 -0.00000000000E+00 -0.10770208195E+03  0.10770208195E+03  0.00000000000E+00 0.  1.
          6    1    1    2  501    0 -0.66832532740E+02  0.87566064707E+01  0.21392362762E+01  0.18474804984E+03  0.17200000000E+03 0.  1.
         -6    1    1    2    0  502  0.66832532740E+02 -0.87566064707E+01  0.50390878961E+03  0.53670413995E+03  0.17200000000E+03 0.  1.
<mgrwt>
<rscale>  2 0.18473566E+03</rscale>
<asrwt>0</asrwt>
<pdfrwt beam="1">  1       21 0.15343752E+00 0.18473566E+03</pdfrwt>
<pdfrwt beam="2">  1       21 0.26925522E-01 0.18473566E+03</pdfrwt>
<totfact> 0.37255164E+03</totfact>
</mgrwt>
</event>
<event>
 4    1  0.1110581E+000  0.1789117E+03  0.7546771E-02  0.1168861E+00
         21   -1    0    0  501  502  0.00000000000E+00  0.00000000000E+00  0.16420766686E+03  0.16420766686E+03  0.00000000000E+00 0. -1.
         21   -1    0    0  502  503 -0.00000000000E+00 -0.00000000000E+00 -0.19895151544E+03  0.19895151544E+03  0.00000000000E+00 0. -1.
          6    1    1    2  501    0  0.29197685265E+02  0.39659579115E+02 -0.43180327484E+02  0.18404871019E+03  0.17200000000E+03 0. -1.
         -6    1    1    2    0  503 -0.29197685265E+02 -0.39659579115E+02  0.84364789031E+01  0.17911047210E+03  0.17200000000E+03 0. -1.
<mgrwt>
<rscale>  2 0.17891167E+03</rscale>
<asrwt>0</asrwt>
<pdfrwt beam="1">  1       21 0.41051917E-01 0.17891167E+03</pdfrwt>
<pdfrwt beam="2">  1       21 0.49737879E-01 0.17891167E+03</pdfrwt>
<totfact> 0.22194318E+04</totfact>
</mgrwt>
</event>
<event>
 4    1  0.1110581E+000  0.2884896E+03  0.7546771E-02  0.1091140E+00
         21   -1    0    0  501  502  0.00000000000E+00  0.00000000000E+00  0.26001940450E+03  0.26001940450E+03  0.00000000000E+00 0.  1.
         21   -1    0    0  502  503 -0.00000000000E+00 -0.00000000000E+00 -0.36581175230E+03  0.36581175230E+03  0.00000000000E+00 0. -1.
          6    1    1    2  501    0 -0.41670762236E+02 -0.22782848127E+03  0.57746031303E+02  0.29421229314E+03  0.17200000000E+03 0.  1.
         -6    1    1    2    0  503  0.41670762236E+02  0.22782848127E+03 -0.16353837910E+03  0.33161886367E+03  0.17200000000E+03 0. -1.
<mgrwt>
<rscale>  2 0.28848963E+03</rscale>
<asrwt>0</asrwt>
<pdfrwt beam="1">  1       21 0.65004852E-01 0.28848963E+03</pdfrwt>
<pdfrwt beam="2">  1       21 0.91452937E-01 0.28848963E+03</pdfrwt>
<totfact> 0.20536387E+03</totfact>
</mgrwt>
</event>
<event>
 4    1  0.1110581E+000  0.2021374E+03  0.7546771E-02  0.1147948E+00
         21   -1    0    0  501  502  0.00000000000E+00  0.00000000000E+00  0.35700068174E+03  0.35700068174E+03  0.00000000000E+00 0.  1.
         21   -1    0    0  502  503 -0.00000000000E+00 -0.00000000000E+00 -0.11488931084E+03  0.11488931084E+03  0.00000000000E+00 0. -1.
          6    1    1    2  501    0 -0.10604212378E+03  0.55317643329E+01  0.10650309528E+03  0.22847853671E+03  0.17200000000E+03 0. -1.
         -6    1    1    2    0  503  0.10604212378E+03 -0.55317643329E+01  0.13560827562E+03  0.24341145587E+03  0.17200000000E+03 0.  1.
<mgrwt>
<rscale>  2 0.20213741E+03</rscale>
<asrwt>0</asrwt>
<pdfrwt beam="1">  1       21 0.89250168E-01 0.20213741E+03</pdfrwt>
<pdfrwt beam="2">  1       21 0.28722328E-01 0.20213741E+03</pdfrwt>
<totfact> 0.12342688E+04</totfact>
</mgrwt>
</event>
<event>
 4    1  0.1110581E+000  0.4513694E+03  0.7546771E-02  0.1027314E+00
         21   -1    0    0  501  502  0.00000000000E+00  0.00000000000E+00  0.53774525478E+03  0.53774525478E+03  0.00000000000E+00 0.  1.
         21   -1    0    0  502  503 -0.00000000000E+00 -0.00000000000E+00 -0.41223631493E+03  0.41223631493E+03  0.00000000000E+00 0.  1.
          6    1    1    2  501    0 -0.13819829431E+03  0.39376584022E+03  0.19789361887E+03  0.49284499578E+03  0.17200000000E+03 0.  1.
         -6    1    1    2    0  503  0.13819829431E+03 -0.39376584022E+03 -0.72384679022E+02  0.45713657394E+03  0.17200000000E+03 0.  1.
<mgrwt>
<rscale>  2 0.45136937E+03</rscale>
<asrwt>0</asrwt>
<pdfrwt beam="1">  1       21 0.13443631E+00 0.45136937E+03</pdfrwt>
<pdfrwt beam="2">  1       21 0.10305908E+00 0.45136937E+03</pdfrwt>
<totfact> 0.24914101E+02</totfact>
</mgrwt>
</event>
<event>
 4    1  0.1110581E+000  0.1770006E+03  0.7546771E-02  0.1170738E+00
         21   -1    0    0  503  502  0.00000000000E+00  0.00000000000E+00  0.28810701314E+03  0.28810701314E+03  0.00000000000E+00 0.  1.
         21   -1    0    0  501  503 -0.00000000000E+00 -0.00000000000E+00 -0.10938179461E+03  0.10938179461E+03  0.00000000000E+00 0.  1.
          6    1    1    2  501    0 -0.41355135051E+02  0.59124291419E+01  0.10456788724E+03  0.20558124198E+03  0.17200000000E+03 0.  1.
         -6    1    1    2    0  502  0.41355135051E+02 -0.59124291419E+01  0.74157331287E+02  0.19190756576E+03  0.17200000000E+03 0.  1.
<mgrwt>
<rscale>  2 0.17700058E+03</rscale>
<asrwt>0</asrwt>
<pdfrwt beam="1">  1       21 0.72026752E-01 0.17700058E+03</pdfrwt>
<pdfrwt beam="2">  1       21 0.27345449E-01 0.17700058E+03</pdfrwt>
<totfact> 0.22391332E+04</totfact>
</mgrwt>
</event>
<event>
 4    1  0.1110581E+000  0.1967653E+03  0.7546771E-02  0.1152497E+00
         21   -1    0    0  501  502  0.00000000000E+00  0.00000000000E+00  0.16587745626E+03  0.16587745626E+03  0.00000000000E+00 0. -1.
         21   -1    0    0  502  503 -0.00000000000E+00 -0.00000000000E+00 -0.24405399921E+03  0.24405399921E+03  0.00000000000E+00 0.  1.
          6    1    1    2  501    0  0.18403490304E+02 -0.93775849703E+02 -0.81903303769E+02  0.21313082745E+03  0.17200000000E+03 0.  1.
         -6    1    1    2    0  503 -0.18403490304E+02  0.93775849703E+02  0.37267608173E+01  0.19680062802E+03  0.17200000000E+03 0. -1.
<mgrwt>
<rscale>  2 0.19676534E+03</rscale>
<asrwt>0</asrwt>
<pdfrwt beam="1">  1       21 0.41469364E-01 0.19676534E+03</pdfrwt>
<pdfrwt beam="2">  1       21 0.61013499E-01 0.19676534E+03</pdfrwt>
<totfact> 0.13957979E+04</totfact>
</mgrwt>
</event>
<event>
 4    1  0.1110581E+000  0.1993241E+03  0.7546771E-02  0.1150311E+00
         21   -1    0    0  501  502  0.00000000000E+00  0.00000000000E+00  0.37283392822E+03  0.37283392822E+03  0.00000000000E+00 0.  1.
         21   -1    0    0  502  503 -0.00000000000E+00 -0.00000000000E+00 -0.11384945445E+03  0.11384945445E+03  0.00000000000E+00 0. -1.
          6    1    1    2  501    0  0.42839491300E+02 -0.91164037616E+02  0.67928495051E+02  0.21058106327E+03  0.17200000000E+03 0. -1.
         -6    1    1    2    0  503 -0.42839491300E+02  0.91164037616E+02  0.19105597872E+03  0.27610231939E+03  0.17200000000E+03 0.  1.
<mgrwt>
<rscale>  2 0.19932412E+03</rscale>
<asrwt>0</asrwt>
<pdfrwt beam="1">  1       21 0.93208479E-01 0.19932412E+03</pdfrwt>
<pdfrwt beam="2">  1       21 0.28462364E-01 0.19932412E+03</pdfrwt>
<totfact> 0.11379051E+04</totfact>
</mgrwt>
</event>
<event>
 4    1  0.1110581E+000  0.2330783E+03  0.7546771E-02  0.1124492E+00
         21   -1    0    0  501  502  0.00000000000E+00  0.00000000000E+00  0.13484116219E+04  0.13484116219E+04  0.00000000000E+00 0. -1.
         21   -1    0    0  502  503 -0.00000000000E+00 -0.00000000000E+00 -0.71068355022E+02  0.71068355022E+02  0.00000000000E+00 0.  1.
          6    1    1    2  501    0  0.26442139702E+02 -0.15505577472E+03  0.11057550377E+04  0.11300529560E+04  0.17200000000E+03 0. -1.
         -6    1    1    2    0  503 -0.26442139702E+02  0.15505577472E+03  0.17158822916E+03  0.28942702088E+03  0.17200000000E+03 0.  1.
<mgrwt>
<rscale>  2 0.23307827E+03</rscale>
<asrwt>0</asrwt>
<pdfrwt beam="1">  1       21 0.33710282E+00 0.23307827E+03</pdfrwt>
<pdfrwt beam="2">  1       21 0.17767093E-01 0.23307827E+03</pdfrwt>
<totfact> 0.56621362E+02</totfact>
</mgrwt>
</event>
<event>
 4    1  0.1110581E+000  0.2204519E+03  0.7546771E-02  0.1133547E+00
         21   -1    0    0  503  502  0.00000000000E+00  0.00000000000E+00  0.43922215835E+03  0.43922215835E+03  0.00000000000E+00 0.  1.
         21   -1    0    0  501  503 -0.00000000000E+00 -0.00000000000E+00 -0.11088839136E+03  0.11088839136E+03  0.00000000000E+00 0. -1.
          6    1    1    2  501    0  0.95804142013E+02  0.99179674560E+02  0.15135948741E+03  0.26741117385E+03  0.17200000000E+03 0. -1.
         -6    1    1    2    0  502 -0.95804142013E+02 -0.99179674560E+02  0.17697427958E+03  0.28269937585E+03  0.17200000000E+03 0.  1.
<mgrwt>
<rscale>  2 0.22045190E+03</rscale>
<asrwt>0</asrwt>
<pdfrwt beam="1">  1       21 0.10980554E+00 0.22045190E+03</pdfrwt>
<pdfrwt beam="2">  1       21 0.27722099E-01 0.22045190E+03</pdfrwt>
<totfact> 0.79864725E+03</totfact>
</mgrwt>
</event>
<event>
 4    1  0.1110581E+000  0.2224791E+03  0.7546771E-02  0.1132048E+00
         21   -1    0    0  503  502  0.00000000000E+00  0.00000000000E+00  0.89119095460E+03  0.89119095460E+03  0.00000000000E+00 0. -1.
         21   -1    0    0  501  503 -0.00000000000E+00 -0.00000000000E+00 -0.57110595619E+02  0.57110595619E+02  0.00000000000E+00 0. -1.
          6    1    1    2  501    0  0.13622696826E+03  0.36812715541E+02  0.49566444448E+03  0.54330489085E+03  0.17200000000E+03 0. -1.
         -6    1    1    2    0  502 -0.13622696826E+03 -0.36812715541E+02  0.33841591451E+03  0.40499665937E+03  0.17200000000E+03 0. -1.
<mgrwt>
<rscale>  2 0.22247913E+03</rscale>
<asrwt>0</asrwt>
<pdfrwt beam="1">  1       21 0.22279769E+00 0.22247913E+03</pdfrwt>
<pdfrwt beam="2">  1       21 0.14277652E-01 0.22247913E+03</pdfrwt>
<totfact> 0.40337538E+03</totfact>
</mgrwt>
</event>
<event>
 4    1  0.1110581E+000  0.1921801E+03  0.7546771E-02  0.1156510E+00
         21   -1    0    0  501  502  0.00000000000E+00  0.00000000000E+00  0.26073585735E+03  0.26073585735E+03  0.00000000000E+00 0. -1.
         21   -1    0    0  502  503 -0.00000000000E+00 -0.00000000000E+00 -0.15004088954E+03  0.15004088954E+03  0.00000000000E+00 0. -1.
          6    1    1    2  501    0 -0.66709382439E+02 -0.53842911276E+02  0.10391863061E+03  0.21847719009E+03  0.17200000000E+03 0. -1.
         -6    1    1    2    0  503  0.66709382439E+02  0.53842911276E+02  0.67763372012E+01  0.19229955680E+03  0.17200000000E+03 0. -1.
<mgrwt>
<rscale>  2 0.19218013E+03</rscale>
<asrwt>0</asrwt>
<pdfrwt beam="1">  1       21 0.65183964E-01 0.19218013E+03</pdfrwt>
<pdfrwt beam="2">  1       21 0.37510223E-01 0.19218013E+03</pdfrwt>
<totfact> 0.14852949E+04</totfact>
</mgrwt>
</event>
<event>
 4    1  0.1110581E+000  0.2194935E+03  0.7546771E-02  0.1134261E+00
         21   -1    0    0  501  502  0.00000000000E+00  0.00000000000E+00  0.38930802547E+03  0.38930802547E+03  0.00000000000E+00 0.  1.
         21   -1    0    0  502  503 -0.00000000000E+00 -0.00000000000E+00 -0.12394548880E+03  0.12394548880E+03  0.00000000000E+00 0.  1.
          6    1    1    2  501    0 -0.81325939547E+02 -0.10945092933E+03  0.12252618748E+03  0.25137637318E+03  0.17200000000E+03 0.  1.
         -6    1    1    2    0  503  0.81325939547E+02  0.10945092933E+03  0.14283634919E+03  0.26187714109E+03  0.17200000000E+03 0.  1.
<mgrwt>
<rscale>  2 0.21949354E+03</rscale>
<asrwt>0</asrwt>
<pdfrwt beam="1">  1       21 0.97327003E-01 0.21949354E+03</pdfrwt>
<pdfrwt beam="2">  1       21 0.30986373E-01 0.21949354E+03</pdfrwt>
<totfact> 0.85925783E+03</totfact>
</mgrwt>
</event>
<event>
 4    1  0.1110581E+000  0.1841212E+03  0.7546771E-02  0.1163873E+00
         21   -1    0    0  501  502  0.00000000000E+00  0.00000000000E+00  0.44405606856E+03  0.44405606856E+03  0.00000000000E+00 0.  1.
         21   -1    0    0  502  503 -0.00000000000E+00 -0.00000000000E+00 -0.14347974198E+03  0.14347974198E+03  0.00000000000E+00 0.  1.
          6    1    1    2  501    0 -0.53101578781E+02  0.38688916543E+02  0.35123857989E+03  0.39657174627E+03  0.17200000000E+03 0.  1.
         -6    1    1    2    0  503  0.53101578781E+02 -0.38688916543E+02 -0.50662253306E+02  0.19096406427E+03  0.17200000000E+03 0.  1.
<mgrwt>
<rscale>  2 0.18412118E+03</rscale>
<asrwt>0</asrwt>
<pdfrwt beam="1">  1       21 0.11101401E+00 0.18412118E+03</pdfrwt>
<pdfrwt beam="2">  1       21 0.35869936E-01 0.18412118E+03</pdfrwt>
<totfact> 0.48204797E+03</totfact>
</mgrwt>
</event>
<event>
 4    1  0.1110581E+000  0.1927074E+03  0.7546771E-02  0.1156042E+00
         21   -1    0    0  501  502  0.00000000000E+00  0.00000000000E+00  0.44456937029E+03  0.44456937029E+03  0.00000000000E+00 0. -1.
         21   -1    0    0  502  503 -0.00000000000E+00 -0.00000000000E+00 -0.20436545109E+03  0.20436545109E+03  0.00000000000E+00 0.  1.
          6    1    1    2  501    0 -0.68842782171E+02 -0.53036115013E+02  0.36959553061E+03  0.41681772323E+03  0.17200000000E+03 0. -1.
         -6    1    1    2    0  503  0.68842782171E+02  0.53036115013E+02 -0.12939161141E+03  0.23211709816E+03  0.17200000000E+03 0.  1.
<mgrwt>
<rscale>  2 0.19270744E+03</rscale>
<asrwt>0</asrwt>
<pdfrwt beam="1">  1       21 0.11114234E+00 0.19270744E+03</pdfrwt>
<pdfrwt beam="2">  1       21 0.51091364E-01 0.19270744E+03</pdfrwt>
<totfact> 0.23201076E+03</totfact>
</mgrwt>
</event>
<event>
 4    1  0.1110581E+000  0.2403722E+03  0.7546771E-02  0.1119545E+00
         21   -1    0    0  501  502  0.00000000000E+00  0.00000000000E+00  0.18788325125E+04  0.18788325125E+04  0.00000000000E+00 0.  1.
         21   -1    0    0  502  503 -0.00000000000E+00 -0.00000000000E+00 -0.47230880626E+02  0.47230880626E+02  0.00000000000E+00 0.  1.
          6    1    1    2  501    0  0.12157397383E+03  0.11582124013E+03  0.14846339261E+04  0.15039669827E+04  0.17200000000E+03 0.  1.
         -6    1    1    2    0  503 -0.12157397383E+03 -0.11582124013E+03  0.34696770581E+03  0.42209641038E+03  0.17200000000E+03 0.  1.
<mgrwt>
<rscale>  2 0.24037219E+03</rscale>
<asrwt>0</asrwt>
<pdfrwt beam="1">  1       21 0.46970788E+00 0.24037219E+03</pdfrwt>
<pdfrwt beam="2">  1       21 0.11807726E-01 0.24037219E+03</pdfrwt>
<totfact> 0.17159215E+02</totfact>
</mgrwt>
</event>
<event>
 4    1  0.1110581E+000  0.1751837E+03  0.7546771E-02  0.1172547E+00
         21   -1    0    0  501  502  0.00000000000E+00  0.00000000000E+00  0.64899004459E+03  0.64899004459E+03  0.00000000000E+00 0. -1.
         21   -1    0    0  502  503 -0.00000000000E+00 -0.00000000000E+00 -0.57777829396E+02  0.57777829396E+02  0.00000000000E+00 0. -1.
          6    1    1    2  501    0 -0.31759628082E+02 -0.98313698960E+01  0.44618148492E+03  0.47934042944E+03  0.17200000000E+03 0. -1.
         -6    1    1    2    0  503  0.31759628082E+02  0.98313698960E+01  0.14503073028E+03  0.22742744455E+03  0.17200000000E+03 0. -1.
<mgrwt>
<rscale>  2 0.17518370E+03</rscale>
<asrwt>0</asrwt>
<pdfrwt beam="1">  1       21 0.16224749E+00 0.17518370E+03</pdfrwt>
<pdfrwt beam="2">  1       21 0.14444459E-01 0.17518370E+03</pdfrwt>
<totfact> 0.10325360E+04</totfact>
</mgrwt>
</event>
<event>
 4    1  0.1110581E+000  0.1825452E+03  0.7546771E-02  0.1165362E+00
         21   -1    0    0  503  502  0.00000000000E+00  0.00000000000E+00  0.80906843308E+02  0.80906843308E+02  0.00000000000E+00 0.  1.
         21   -1    0    0  501  503 -0.00000000000E+00 -0.00000000000E+00 -0.85077847347E+03  0.85077847347E+03  0.00000000000E+00 0.  1.
          6    1    1    2  501    0 -0.19427604651E+02 -0.57976816766E+02 -0.71953138275E+03  0.74232617754E+03  0.17200000000E+03 0.  1.
         -6    1    1    2    0  502  0.19427604651E+02  0.57976816766E+02 -0.50340247421E+02  0.18935913924E+03  0.17200000000E+03 0.  1.
<mgrwt>
<rscale>  2 0.18254518E+03</rscale>
<asrwt>0</asrwt>
<pdfrwt beam="1">  1       21 0.20226710E-01 0.18254518E+03</pdfrwt>
<pdfrwt beam="2">  1       21 0.21269462E+00 0.18254518E+03</pdfrwt>
<totfact> 0.25501478E+03</totfact>
</mgrwt>
</event>
<event>
 4    1  0.1110581E+000  0.2822945E+03  0.7546771E-02  0.1094442E+00
         21   -1    0    0  501  502  0.00000000000E+00  0.00000000000E+00  0.40152911941E+03  0.40152911941E+03  0.00000000000E+00 0.  1.
         21   -1    0    0  502  503 -0.00000000000E+00 -0.00000000000E+00 -0.21038572107E+03  0.21038572107E+03  0.00000000000E+00 0.  1.
          6    1    1    2  501    0  0.19300379811E+03  0.11338313668E+03  0.16839514520E+03  0.32870522767E+03  0.17200000000E+03 0.  1.
         -6    1    1    2    0  503 -0.19300379811E+03 -0.11338313668E+03  0.22748253141E+02  0.28320961281E+03  0.17200000000E+03 0.  1.
<mgrwt>
<rscale>  2 0.28229453E+03</rscale>
<asrwt>0</asrwt>
<pdfrwt beam="1">  1       21 0.10038228E+00 0.28229453E+03</pdfrwt>
<pdfrwt beam="2">  1       21 0.52596431E-01 0.28229453E+03</pdfrwt>
<totfact> 0.26106467E+03</totfact>
</mgrwt>
</event>
<event>
 4    1  0.1110581E+000  0.1850244E+03  0.7546771E-02  0.1163027E+00
         21   -1    0    0  503  502  0.00000000000E+00  0.00000000000E+00  0.24989551561E+03  0.24989551561E+03  0.00000000000E+00 0.  1.
         21   -1    0    0  501  503 -0.00000000000E+00 -0.00000000000E+00 -0.17073815553E+03  0.17073815553E+03  0.00000000000E+00 0.  1.
          6    1    1    2  501    0 -0.67012796765E+02 -0.12622375188E+02 -0.53921363465E+02  0.19272143815E+03  0.17200000000E+03 0.  1.
         -6    1    1    2    0  502  0.67012796765E+02  0.12622375188E+02  0.13307872354E+03  0.22791223299E+03  0.17200000000E+03 0.  1.
<mgrwt>
<rscale>  2 0.18502443E+03</rscale>
<asrwt>0</asrwt>
<pdfrwt beam="1">  1       21 0.62473879E-01 0.18502443E+03</pdfrwt>
<pdfrwt beam="2">  1       21 0.42684539E-01 0.18502443E+03</pdfrwt>
<totfact> 0.12602765E+04</totfact>
</mgrwt>
</event>
<event>
 4    1  0.1110581E+000  0.1803740E+03  0.7546771E-02  0.1167442E+00
         21   -1    0    0  503  502  0.00000000000E+00  0.00000000000E+00  0.34597818142E+03  0.34597818142E+03  0.00000000000E+00 0. -1.
         21   -1    0    0  501  503 -0.00000000000E+00 -0.00000000000E+00 -0.27036240459E+03  0.27036240459E+03  0.00000000000E+00 0. -1.
          6    1    1    2  501    0 -0.42747745274E+02 -0.33517416712E+02 -0.21106347954E+03  0.27763749629E+03  0.17200000000E+03 0. -1.
         -6    1    1    2    0  502  0.42747745274E+02  0.33517416712E+02  0.28667925638E+03  0.33870308972E+03  0.17200000000E+03 0. -1.
<mgrwt>
<rscale>  2 0.18037402E+03</rscale>
<asrwt>0</asrwt>
<pdfrwt beam="1">  1       21 0.86494545E-01 0.18037402E+03</pdfrwt>
<pdfrwt beam="2">  1       21 0.67590601E-01 0.18037402E+03</pdfrwt>
<totfact> 0.23298296E+03</totfact>
</mgrwt>
</event>
<event>
 4    1  0.1110581E+000  0.1841573E+03  0.7546771E-02  0.1163839E+00
         21   -1    0    0  503  502  0.00000000000E+00  0.00000000000E+00  0.12721458389E+03  0.12721458389E+03  0.00000000000E+00 0.  1.
         21   -1    0    0  501  503 -0.00000000000E+00 -0.00000000000E+00 -0.27210199380E+03  0.27210199380E+03  0.00000000000E+00 0.  1.
          6    1    1    2  501    0  0.43676990591E+01 -0.65657002292E+02 -0.44022460747E+02  0.18934596852E+03  0.17200000000E+03 0.  1.
         -6    1    1    2    0  502 -0.43676990591E+01  0.65657002292E+02 -0.10086494916E+03  0.20997060917E+03  0.17200000000E+03 0.  1.
<mgrwt>
<rscale>  2 0.18415732E+03</rscale>
<asrwt>0</asrwt>
<pdfrwt beam="1">  1       21 0.31803646E-01 0.18415732E+03</pdfrwt>
<pdfrwt beam="2">  1       21 0.68025498E-01 0.18415732E+03</pdfrwt>
<totfact> 0.18855149E+04</totfact>
</mgrwt>
</event>
<event>
 4    1  0.1110581E+000  0.1790372E+03  0.7546771E-02  0.1168738E+00
         21   -1    0    0  503  502  0.00000000000E+00  0.00000000000E+00  0.15431544143E+03  0.15431544143E+03  0.00000000000E+00 0.  1.
         21   -1    0    0  501  503 -0.00000000000E+00 -0.00000000000E+00 -0.25331705850E+03  0.25331705850E+03  0.00000000000E+00 0.  1.
          6    1    1    2  501    0  0.49611409600E+02  0.30016235962E+01 -0.13597333406E+03  0.22481781353E+03  0.17200000000E+03 0.  1.
         -6    1    1    2    0  502 -0.49611409600E+02 -0.30016235962E+01  0.36971716985E+02  0.18281468640E+03  0.17200000000E+03 0.  1.
<mgrwt>
<rscale>  2 0.17903715E+03</rscale>
<asrwt>0</asrwt>
<pdfrwt beam="1">  1       21 0.38578861E-01 0.17903715E+03</pdfrwt>
<pdfrwt beam="2">  1       21 0.63329264E-01 0.17903715E+03</pdfrwt>
<totfact> 0.15072831E+04</totfact>
</mgrwt>
</event>
<event>
 4    1  0.1110581E+000  0.2050066E+03  0.7546771E-02  0.1145582E+00
         21   -1    0    0  503  502  0.00000000000E+00  0.00000000000E+00  0.40733004395E+02  0.40733004395E+02  0.00000000000E+00 0. -1.
         21   -1    0    0  501  503 -0.00000000000E+00 -0.00000000000E+00 -0.16947826106E+04  0.16947826106E+04  0.00000000000E+00 0. -1.
          6    1    1    2  501    0  0.49932542538E+02  0.99751975923E+02 -0.13697717771E+04  0.13850279553E+04  0.17200000000E+03 0. -1.
         -6    1    1    2    0  502 -0.49932542538E+02 -0.99751975923E+02 -0.28427782908E+03  0.35048765972E+03  0.17200000000E+03 0. -1.
<mgrwt>
<rscale>  2 0.20500662E+03</rscale>
<asrwt>0</asrwt>
<pdfrwt beam="1">  1       21 0.10183251E-01 0.20500662E+03</pdfrwt>
<pdfrwt beam="2">  1       21 0.42369566E+00 0.20500662E+03</pdfrwt>
<totfact> 0.47563896E+02</totfact>
</mgrwt>
</event>
<event>
 4    1  0.1110581E+000  0.2272509E+03  0.7546771E-02  0.1128590E+00
         21   -1    0    0  503  502  0.00000000000E+00  0.00000000000E+00  0.43245958461E+03  0.43245958461E+03  0.00000000000E+00 0.  1.
         21   -1    0    0  501  503 -0.00000000000E+00 -0.00000000000E+00 -0.13111071508E+03  0.13111071508E+03  0.00000000000E+00 0.  1.
          6    1    1    2  501    0 -0.83777767928E+02  0.12263867768E+03  0.66519784283E+02  0.23678648898E+03  0.17200000000E+03 0.  1.
         -6    1    1    2    0  502  0.83777767928E+02 -0.12263867768E+03  0.23482908525E+03  0.32678381071E+03  0.17200000000E+03 0.  1.
<mgrwt>
<rscale>  2 0.22725087E+03</rscale>
<asrwt>0</asrwt>
<pdfrwt beam="1">  1       21 0.10811489E+00 0.22725087E+03</pdfrwt>
<pdfrwt beam="2">  1       21 0.32777680E-01 0.22725087E+03</pdfrwt>
<totfact> 0.59470873E+03</totfact>
</mgrwt>
</event>
<event>
 4    1  0.1110581E+000  0.1797764E+03  0.7546771E-02  0.1168020E+00
         21   -1    0    0  501  502  0.00000000000E+00  0.00000000000E+00  0.15805865957E+04  0.15805865957E+04  0.00000000000E+00 0. -1.
         21   -1    0    0  502  503 -0.00000000000E+00 -0.00000000000E+00 -0.39475336817E+02  0.39475336817E+02  0.00000000000E+00 0. -1.
          6    1    1    2  501    0 -0.39371839774E+02  0.34429935770E+02  0.13329353735E+04  0.13450041904E+04  0.17200000000E+03 0. -1.
         -6    1    1    2    0  503  0.39371839774E+02 -0.34429935770E+02  0.20817588536E+03  0.27505774210E+03  0.17200000000E+03 0. -1.
<mgrwt>
<rscale>  2 0.17977642E+03</rscale>
<asrwt>0</asrwt>
<pdfrwt beam="1">  1       21 0.39514644E+00 0.17977642E+03</pdfrwt>
<pdfrwt beam="2">  1       21 0.98688395E-02 0.17977642E+03</pdfrwt>
<totfact> 0.79216657E+02</totfact>
</mgrwt>
</event>
<event>
 4    1  0.1110581E+000  0.1851244E+03  0.7546771E-02  0.1162934E+00
         21   -1    0    0  501  502  0.00000000000E+00  0.00000000000E+00  0.43114152719E+02  0.43114152719E+02  0.00000000000E+00 0.  1.
         21   -1    0    0  502  503 -0.00000000000E+00 -0.00000000000E+00 -0.10008481260E+04  0.10008481260E+04  0.00000000000E+00 0.  1.
          6    1    1    2  501    0 -0.58848254378E+02 -0.34984840699E+02 -0.24207934571E+03  0.30475148194E+03  0.17200000000E+03 0.  1.
         -6    1    1    2    0  503  0.58848254378E+02  0.34984840699E+02 -0.71565462761E+03  0.73921079683E+03  0.17200000000E+03 0.  1.
<mgrwt>
<rscale>  2 0.18512443E+03</rscale>
<asrwt>0</asrwt>
<pdfrwt beam="1">  1       21 0.10778538E-01 0.18512443E+03</pdfrwt>
<pdfrwt beam="2">  1       21 0.25021203E+00 0.18512443E+03</pdfrwt>
<totfact> 0.47490357E+03</totfact>
</mgrwt>
</event>
<event>
 4    1  0.1110581E+000  0.2015487E+03  0.7546771E-02  0.1148439E+00
         21   -1    0    0  501  502  0.00000000000E+00  0.00000000000E+00  0.57686379026E+03  0.57686379026E+03  0.00000000000E+00 0.  1.
         21   -1    0    0  502  503 -0.00000000000E+00 -0.00000000000E+00 -0.75537821812E+02  0.75537821812E+02  0.00000000000E+00 0.  1.
          6    1    1    2  501    0 -0.94230312488E+02 -0.46460046872E+02  0.16574324458E+03  0.26094580064E+03  0.17200000000E+03 0. -1.
         -6    1    1    2    0  503  0.94230312488E+02  0.46460046872E+02  0.33558272387E+03  0.39145581144E+03  0.17200000000E+03 0. -1.
<mgrwt>
<rscale>  2 0.20154872E+03</rscale>
<asrwt>0</asrwt>
<pdfrwt beam="1">  1       21 0.14421593E+00 0.20154872E+03</pdfrwt>
<pdfrwt beam="2">  1       21 0.18884457E-01 0.20154872E+03</pdfrwt>
<totfact> 0.84527990E+03</totfact>
</mgrwt>
</event>
<event>
 4    1  0.1110581E+000  0.2068399E+03  0.7546771E-02  0.1144093E+00
         21   -1    0    0  501  502  0.00000000000E+00  0.00000000000E+00  0.12925610103E+03  0.12925610103E+03  0.00000000000E+00 0. -1.
         21   -1    0    0  502  503 -0.00000000000E+00 -0.00000000000E+00 -0.76502053423E+03  0.76502053423E+03  0.00000000000E+00 0. -1.
          6    1    1    2  501    0 -0.11467291909E+03  0.69904801235E+01  0.18911860569E+02  0.20770268090E+03  0.17200000000E+03 0. -1.
         -6    1    1    2    0  503  0.11467291909E+03 -0.69904801235E+01 -0.65467629377E+03  0.68657395436E+03  0.17200000000E+03 0. -1.
<mgrwt>
<rscale>  2 0.20683990E+03</rscale>
<asrwt>0</asrwt>
<pdfrwt beam="1">  1       21 0.32314026E-01 0.20683990E+03</pdfrwt>
<pdfrwt beam="2">  1       21 0.19125513E+00 0.20683990E+03</pdfrwt>
<totfact> 0.13892187E+03</totfact>
</mgrwt>
</event>
<event>
 4    1  0.1110581E+000  0.1757484E+03  0.7546771E-02  0.1171982E+00
         21   -1    0    0  501  502  0.00000000000E+00  0.00000000000E+00  0.88626975745E+03  0.88626975745E+03  0.00000000000E+00 0. -1.
         21   -1    0    0  502  503 -0.00000000000E+00 -0.00000000000E+00 -0.22901382811E+03  0.22901382811E+03  0.00000000000E+00 0. -1.
          6    1    1    2  501    0  0.31813883623E+02  0.17069708382E+02  0.84208885123E+03  0.86023318437E+03  0.17200000000E+03 0. -1.
         -6    1    1    2    0  503 -0.31813883623E+02 -0.17069708382E+02 -0.18483292189E+03  0.25505040119E+03  0.17200000000E+03 0. -1.
<mgrwt>
<rscale>  2 0.17574839E+03</rscale>
<asrwt>0</asrwt>
<pdfrwt beam="1">  1       21 0.22156743E+00 0.17574839E+03</pdfrwt>
<pdfrwt beam="2">  1       21 0.57253459E-01 0.17574839E+03</pdfrwt>
<totfact> 0.28858340E+02</totfact>
</mgrwt>
</event>
<event>
 4    1  0.1110581E+000  0.2573719E+03  0.7546771E-02  0.1108733E+00
         21   -1    0    0  501  502  0.00000000000E+00  0.00000000000E+00  0.31387292449E+03  0.31387292449E+03  0.00000000000E+00 0. -1.
         21   -1    0    0  502  503 -0.00000000000E+00 -0.00000000000E+00 -0.22023985917E+03  0.22023985917E+03  0.00000000000E+00 0.  1.
          6    1    1    2  501    0  0.35819238983E+02 -0.18807786918E+03 -0.77596847625E+01  0.25748886474E+03  0.17200000000E+03 0.  1.
         -6    1    1    2    0  503 -0.35819238983E+02  0.18807786918E+03  0.10139275008E+03  0.27662391893E+03  0.17200000000E+03 0.  1.
<mgrwt>
<rscale>  2 0.25737192E+03</rscale>
<asrwt>0</asrwt>
<pdfrwt beam="1">  1       21 0.78468231E-01 0.25737192E+03</pdfrwt>
<pdfrwt beam="2">  1       21 0.55059965E-01 0.25737192E+03</pdfrwt>
<totfact> 0.42700990E+03</totfact>
</mgrwt>
</event>
<event>
 4    1  0.1110581E+000  0.3668727E+03  0.7546771E-02  0.1055895E+00
         21   -1    0    0  503  502  0.00000000000E+00  0.00000000000E+00  0.48019304228E+03  0.48019304228E+03  0.00000000000E+00 0.  1.
         21   -1    0    0  501  503 -0.00000000000E+00 -0.00000000000E+00 -0.28064906058E+03  0.28064906058E+03  0.00000000000E+00 0. -1.
          6    1    1    2  501    0  0.31416465966E+03  0.79448852760E+02  0.11329021587E+03  0.38396643941E+03  0.17200000000E+03 0. -1.
         -6    1    1    2    0  502 -0.31416465966E+03 -0.79448852760E+02  0.86253765838E+02  0.37687566345E+03  0.17200000000E+03 0.  1.
<mgrwt>
<rscale>  2 0.36687267E+03</rscale>
<asrwt>0</asrwt>
<pdfrwt beam="1">  1       21 0.12004826E+00 0.36687267E+03</pdfrwt>
<pdfrwt beam="2">  1       21 0.70162266E-01 0.36687267E+03</pdfrwt>
<totfact> 0.85527477E+02</totfact>
</mgrwt>
</event>
<event>
 4    1  0.1110581E+000  0.1832959E+03  0.7546771E-02  0.1164651E+00
         21   -1    0    0  501  502  0.00000000000E+00  0.00000000000E+00  0.95628976779E+03  0.95628976779E+03  0.00000000000E+00 0. -1.
         21   -1    0    0  502  503 -0.00000000000E+00 -0.00000000000E+00 -0.72562247166E+02  0.72562247166E+02  0.00000000000E+00 0. -1.
          6    1    1    2  501    0  0.55780782053E+02  0.30031733842E+02  0.81132821512E+03  0.83177573500E+03  0.17200000000E+03 0. -1.
         -6    1    1    2    0  503 -0.55780782053E+02 -0.30031733842E+02  0.72399305505E+02  0.19707627996E+03  0.17200000000E+03 0. -1.
<mgrwt>
<rscale>  2 0.18329594E+03</rscale>
<asrwt>0</asrwt>
<pdfrwt beam="1">  1       21 0.23907240E+00 0.18329594E+03</pdfrwt>
<pdfrwt beam="2">  1       21 0.18140565E-01 0.18329594E+03</pdfrwt>
<totfact> 0.21583698E+03</totfact>
</mgrwt>
</event>
<event>
 4    1  0.1110581E+000  0.2241411E+03  0.7546771E-02  0.1130833E+00
         21   -1    0    0  501  502  0.00000000000E+00  0.00000000000E+00  0.45088985169E+03  0.45088985169E+03  0.00000000000E+00 0. -1.
         21   -1    0    0  502  503 -0.00000000000E+00 -0.00000000000E+00 -0.27671173800E+03  0.27671173800E+03  0.00000000000E+00 0.  1.
          6    1    1    2  501    0  0.68260445294E+02  0.12647433642E+03  0.36826115640E+03  0.43110964438E+03  0.17200000000E+03 0. -1.
         -6    1    1    2    0  503 -0.68260445294E+02 -0.12647433642E+03 -0.19408304271E+03  0.29649194531E+03  0.17200000000E+03 0.  1.
<mgrwt>
<rscale>  2 0.22414113E+03</rscale>
<asrwt>0</asrwt>
<pdfrwt beam="1">  1       21 0.11272246E+00 0.22414113E+03</pdfrwt>
<pdfrwt beam="2">  1       21 0.69177935E-01 0.22414113E+03</pdfrwt>
<totfact> 0.11362550E+03</totfact>
</mgrwt>
</event>
<event>
 4    1  0.1110581E+000  0.1801678E+03  0.7546771E-02  0.1167641E+00
         21   -1    0    0  501  502  0.00000000000E+00  0.00000000000E+00  0.11141093689E+03  0.11141093689E+03  0.00000000000E+00 0. -1.
         21   -1    0    0  502  503 -0.00000000000E+00 -0.00000000000E+00 -0.29646943092E+03  0.29646943092E+03  0.00000000000E+00 0. -1.
          6    1    1    2  501    0 -0.52901077062E+02 -0.88271018052E+01 -0.65750266766E+02  0.19179035237E+03  0.17200000000E+03 0. -1.
         -6    1    1    2    0  503  0.52901077062E+02  0.88271018052E+01 -0.11930822727E+03  0.21609001545E+03  0.17200000000E+03 0. -1.
<mgrwt>
<rscale>  2 0.18016782E+03</rscale>
<asrwt>0</asrwt>
<pdfrwt beam="1">  1       21 0.27852734E-01 0.18016782E+03</pdfrwt>
<pdfrwt beam="2">  1       21 0.74117357E-01 0.18016782E+03</pdfrwt>
<totfact> 0.20244215E+04</totfact>
</mgrwt>
</event>
<event>
 4    1  0.1110581E+000  0.1743551E+03  0.7546771E-02  0.1173381E+00
         21   -1    0    0  501  502  0.00000000000E+00  0.00000000000E+00  0.85619714223E+02  0.85619714223E+02  0.00000000000E+00 0. -1.
         21   -1    0    0  502  503 -0.00000000000E+00 -0.00000000000E+00 -0.86227791014E+03  0.86227791014E+03  0.00000000000E+00 0. -1.
          6    1    1    2  501    0 -0.26865375359E+02 -0.96923046320E+01 -0.24826656606E+02  0.17611374745E+03  0.17200000000E+03 0. -1.
         -6    1    1    2    0  503  0.26865375359E+02  0.96923046320E+01 -0.75183153932E+03  0.77178387692E+03  0.17200000000E+03 0. -1.
<mgrwt>
<rscale>  2 0.17435507E+03</rscale>
<asrwt>0</asrwt>
<pdfrwt beam="1">  1       21 0.21404929E-01 0.17435507E+03</pdfrwt>
<pdfrwt beam="2">  1       21 0.21556948E+00 0.17435507E+03</pdfrwt>
<totfact> 0.22219294E+03</totfact>
</mgrwt>
</event>
<event>
 4    1  0.1110581E+000  0.2134734E+03  0.7546771E-02  0.1138845E+00
         21   -1    0    0  501  502  0.00000000000E+00  0.00000000000E+00  0.43941750877E+03  0.43941750877E+03  0.00000000000E+00 0. -1.
         21   -1    0    0  502  503 -0.00000000000E+00 -0.00000000000E+00 -0.12020660909E+03  0.12020660909E+03  0.00000000000E+00 0. -1.
          6    1    1    2  501    0 -0.71375115081E+02 -0.10436713744E+03  0.55940474759E+02  0.22068131581E+03  0.17200000000E+03 0. -1.
         -6    1    1    2    0  503  0.71375115081E+02  0.10436713744E+03  0.26327042492E+03  0.33894280206E+03  0.17200000000E+03 0. -1.
<mgrwt>
<rscale>  2 0.21347343E+03</rscale>
<asrwt>0</asrwt>
<pdfrwt beam="1">  1       21 0.10985437E+00 0.21347343E+03</pdfrwt>
<pdfrwt beam="2">  1       21 0.30051653E-01 0.21347343E+03</pdfrwt>
<totfact> 0.68516703E+03</totfact>
</mgrwt>
</event>
<event>
 4    1  0.1110581E+000  0.1770562E+03  0.7546771E-02  0.1170683E+00
         21   -1    0    0  501  502  0.00000000000E+00  0.00000000000E+00  0.60034523818E+02  0.60034523818E+02  0.00000000000E+00 0. -1.
         21   -1    0    0  502  503 -0.00000000000E+00 -0.00000000000E+00 -0.59095128997E+03  0.59095128997E+03  0.00000000000E+00 0. -1.
          6    1    1    2  501    0  0.36005289927E+02 -0.21645463732E+02 -0.15442205332E+03  0.23493632660E+03  0.17200000000E+03 0. -1.
         -6    1    1    2    0  503 -0.36005289927E+02  0.21645463732E+02 -0.37649471283E+03  0.41604948719E+03  0.17200000000E+03 0. -1.
<mgrwt>
<rscale>  2 0.17705623E+03</rscale>
<asrwt>0</asrwt>
<pdfrwt beam="1">  1       21 0.15008631E-01 0.17705623E+03</pdfrwt>
<pdfrwt beam="2">  1       21 0.14773782E+00 0.17705623E+03</pdfrwt>
<totfact> 0.12332008E+04</totfact>
</mgrwt>
</event>
<event>
 4    1  0.1110581E+000  0.2269432E+03  0.7546771E-02  0.1128810E+00
         21   -1    0    0  503  502  0.00000000000E+00  0.00000000000E+00  0.14438182288E+03  0.14438182288E+03  0.00000000000E+00 0. -1.
         21   -1    0    0  501  503 -0.00000000000E+00 -0.00000000000E+00 -0.38790487166E+03  0.38790487166E+03  0.00000000000E+00 0.  1.
          6    1    1    2  501    0 -0.13647738133E+03 -0.57385839470E+02 -0.46294458459E+02  0.23161689720E+03  0.17200000000E+03 0. -1.
         -6    1    1    2    0  502  0.13647738133E+03  0.57385839470E+02 -0.19722859032E+03  0.30066979733E+03  0.17200000000E+03 0.  1.
<mgrwt>
<rscale>  2 0.22694319E+03</rscale>
<asrwt>0</asrwt>
<pdfrwt beam="1">  1       21 0.36095456E-01 0.22694319E+03</pdfrwt>
<pdfrwt beam="2">  1       21 0.96976217E-01 0.22694319E+03</pdfrwt>
<totfact> 0.63731530E+03</totfact>
</mgrwt>
</event>
<event>
 4    1  0.1110581E+000  0.1922517E+03  0.7546771E-02  0.1156446E+00
         21   -1    0    0  501  502  0.00000000000E+00  0.00000000000E+00  0.42766649197E+03  0.42766649197E+03  0.00000000000E+00 0. -1.
         21   -1    0    0  502  503 -0.00000000000E+00 -0.00000000000E+00 -0.26837017915E+03  0.26837017915E+03  0.00000000000E+00 0. -1.
          6    1    1    2  501    0  0.67595438978E+02  0.52986391882E+02  0.36620205527E+03  0.41359962087E+03  0.17200000000E+03 0. -1.
         -6    1    1    2    0  503 -0.67595438978E+02 -0.52986391882E+02 -0.20690574245E+03  0.28243705025E+03  0.17200000000E+03 0. -1.
<mgrwt>
<rscale>  2 0.19225166E+03</rscale>
<asrwt>0</asrwt>
<pdfrwt beam="1">  1       21 0.10691662E+00 0.19225166E+03</pdfrwt>
<pdfrwt beam="2">  1       21 0.67092545E-01 0.19225166E+03</pdfrwt>
<totfact> 0.14233451E+03</totfact>
</mgrwt>
</event>
<event>
 4    1  0.1110581E+000  0.2712345E+03  0.7546771E-02  0.1100575E+00
         21   -1    0    0  501  502  0.00000000000E+00  0.00000000000E+00  0.37068481290E+03  0.37068481290E+03  0.00000000000E+00 0.  1.
         21   -1    0    0  502  503 -0.00000000000E+00 -0.00000000000E+00 -0.19960384647E+03  0.19960384647E+03  0.00000000000E+00 0. -1.
          6    1    1    2  501    0  0.20718494139E+03 -0.32535791480E+02  0.10707333751E+03  0.29160397335E+03  0.17200000000E+03 0. -1.
         -6    1    1    2    0  503 -0.20718494139E+03  0.32535791480E+02  0.64007628925E+02  0.27868468603E+03  0.17200000000E+03 0.  1.
<mgrwt>
<rscale>  2 0.27123454E+03</rscale>
<asrwt>0</asrwt>
<pdfrwt beam="1">  1       21 0.92671202E-01 0.27123454E+03</pdfrwt>
<pdfrwt beam="2">  1       21 0.49900962E-01 0.27123454E+03</pdfrwt>
<totfact> 0.35508197E+03</totfact>
</mgrwt>
</event>
<event>
 4    1  0.1110581E+000  0.1960833E+03  0.7546771E-02  0.1153086E+00
         21   -1    0    0  501  502  0.00000000000E+00  0.00000000000E+00  0.43561251725E+03  0.43561251725E+03  0.00000000000E+00 0. -1.
         21   -1    0    0  502  503 -0.00000000000E+00 -0.00000000000E+00 -0.97183453521E+02  0.97183453521E+02  0.00000000000E+00 0. -1.
          6    1    1    2  501    0  0.80063207581E+02 -0.49543480421E+02  0.24992255779E+03  0.31766327857E+03  0.17200000000E+03 0. -1.
         -6    1    1    2    0  503 -0.80063207581E+02  0.49543480421E+02  0.88506505943E+02  0.21513269220E+03  0.17200000000E+03 0. -1.
<mgrwt>
<rscale>  2 0.19608333E+03</rscale>
<asrwt>0</asrwt>
<pdfrwt beam="1">  1       21 0.10890312E+00 0.19608333E+03</pdfrwt>
<pdfrwt beam="2">  1       21 0.24295865E-01 0.19608333E+03</pdfrwt>
<totfact> 0.10676675E+04</totfact>
</mgrwt>
</event>
<event>
 4    1  0.1110581E+000  0.2426470E+03  0.7546771E-02  0.1118042E+00
         21   -1    0    0  503  502  0.00000000000E+00  0.00000000000E+00  0.14139592683E+03  0.14139592683E+03  0.00000000000E+00 0.  1.
         21   -1    0    0  501  503 -0.00000000000E+00 -0.00000000000E+00 -0.42576319064E+03  0.42576319064E+03  0.00000000000E+00 0. -1.
          6    1    1    2  501    0 -0.98681114398E+02  0.13984128733E+03 -0.10013458025E+03  0.26249663263E+03  0.17200000000E+03 0.  1.
         -6    1    1    2    0  502  0.98681114398E+02 -0.13984128733E+03 -0.18423268355E+03  0.30466248484E+03  0.17200000000E+03 0.  1.
<mgrwt>
<rscale>  2 0.24264696E+03</rscale>
<asrwt>0</asrwt>
<pdfrwt beam="1">  1       21 0.35348982E-01 0.24264696E+03</pdfrwt>
<pdfrwt beam="2">  1       21 0.10644080E+00 0.24264696E+03</pdfrwt>
<totfact> 0.52616200E+03</totfact>
</mgrwt>
</event>
<event>
 4    1  0.1110581E+000  0.3715054E+03  0.7546771E-02  0.1054119E+00
         21   -1    0    0  501  502  0.00000000000E+00  0.00000000000E+00  0.12453349505E+04  0.12453349505E+04  0.00000000000E+00 0.  1.
         21   -1    0    0  502  503 -0.00000000000E+00 -0.00000000000E+00 -0.11959402371E+03  0.11959402371E+03  0.00000000000E+00 0. -1.
          6    1    1    2  501    0 -0.17841250481E+03 -0.27676929173E+03  0.74765296090E+03  0.83486598485E+03  0.17200000000E+03 0. -1.
         -6    1    1    2    0  503  0.17841250481E+03  0.27676929173E+03  0.37808796585E+03  0.53006298932E+03  0.17200000000E+03 0.  1.
<mgrwt>
<rscale>  2 0.37150540E+03</rscale>
<asrwt>0</asrwt>
<pdfrwt beam="1">  1       21 0.31133370E+00 0.37150540E+03</pdfrwt>
<pdfrwt beam="2">  1       21 0.29898510E-01 0.37150540E+03</pdfrwt>
<totfact> 0.26042226E+02</totfact>
</mgrwt>
</event>
<event>
 4    1  0.1110581E+000  0.2057335E+03  0.7546771E-02  0.1144990E+00
         21   -1    0    0  503  502  0.00000000000E+00  0.00000000000E+00  0.93622720629E+03  0.93622720629E+03  0.00000000000E+00 0. -1.
         21   -1    0    0  501  503 -0.00000000000E+00 -0.00000000000E+00 -0.58574362535E+02  0.58574362535E+02  0.00000000000E+00 0. -1.
          6    1    1    2  501    0 -0.46012107774E+01  0.11278788715E+03  0.20123190824E+03  0.28778561382E+03  0.17200000000E+03 0. -1.
         -6    1    1    2    0  502  0.46012107774E+01 -0.11278788715E+03  0.67642093552E+03  0.70701595501E+03  0.17200000000E+03 0. -1.
<mgrwt>
<rscale>  2 0.20573351E+03</rscale>
<asrwt>0</asrwt>
<pdfrwt beam="1">  1       21 0.23405675E+00 0.20573351E+03</pdfrwt>
<pdfrwt beam="2">  1       21 0.14643594E-01 0.20573351E+03</pdfrwt>
<totfact> 0.33429730E+03</totfact>
</mgrwt>
</event>
<event>
 4    1  0.1110581E+000  0.1850693E+03  0.7546771E-02  0.1162985E+00
         21   -1    0    0  503  502  0.00000000000E+00  0.00000000000E+00  0.75411657663E+03  0.75411657663E+03  0.00000000000E+00 0. -1.
         21   -1    0    0  501  503 -0.00000000000E+00 -0.00000000000E+00 -0.22142563705E+03  0.22142563705E+03  0.00000000000E+00 0. -1.
          6    1    1    2  501    0  0.54986081199E+02  0.40536007794E+02 -0.16853269004E+03  0.25030762007E+03  0.17200000000E+03 0. -1.
         -6    1    1    2    0  502 -0.54986081199E+02 -0.40536007794E+02  0.70122362961E+03  0.72523459361E+03  0.17200000000E+03 0. -1.
<mgrwt>
<rscale>  2 0.18506928E+03</rscale>
<asrwt>0</asrwt>
<pdfrwt beam="1">  1       21 0.18852914E+00 0.18506928E+03</pdfrwt>
<pdfrwt beam="2">  1       21 0.55356411E-01 0.18506928E+03</pdfrwt>
<totfact> 0.49533164E+02</totfact>
</mgrwt>
</event>
<event>
 4    1  0.1110581E+000  0.1992867E+03  0.7546771E-02  0.1150342E+00
         21   -1    0    0  503  502  0.00000000000E+00  0.00000000000E+00  0.29685392260E+03  0.29685392260E+03  0.00000000000E+00 0. -1.
         21   -1    0    0  501  503 -0.00000000000E+00 -0.00000000000E+00 -0.20417428974E+03  0.20417428974E+03  0.00000000000E+00 0. -1.
          6    1    1    2  501    0 -0.88457384157E+02 -0.48025968771E+02 -0.10074868056E+03  0.22330584211E+03  0.17200000000E+03 0. -1.
         -6    1    1    2    0  502  0.88457384157E+02  0.48025968771E+02  0.19342831342E+03  0.27772237022E+03  0.17200000000E+03 0. -1.
<mgrwt>
<rscale>  2 0.19928673E+03</rscale>
<asrwt>0</asrwt>
<pdfrwt beam="1">  1       21 0.74213480E-01 0.19928673E+03</pdfrwt>
<pdfrwt beam="2">  1       21 0.51043573E-01 0.19928673E+03</pdfrwt>
<totfact> 0.59106835E+03</totfact>
</mgrwt>
</event>
<event>
 4    1  0.1110581E+000  0.1923482E+03  0.7546771E-02  0.1156360E+00
         21   -1    0    0  501  502  0.00000000000E+00  0.00000000000E+00  0.14436804513E+04  0.14436804513E+04  0.00000000000E+00 0. -1.
         21   -1    0    0  502  503 -0.00000000000E+00 -0.00000000000E+00 -0.28430769512E+02  0.28430769512E+02  0.00000000000E+00 0.  1.
          6    1    1    2  501    0 -0.62932450753E+02 -0.58765053468E+02  0.93875354934E+03  0.95825677731E+03  0.17200000000E+03 0.  1.
         -6    1    1    2    0  503  0.62932450753E+02  0.58765053468E+02  0.47649613247E+03  0.51385444352E+03  0.17200000000E+03 0.  1.
<mgrwt>
<rscale>  2 0.19234819E+03</rscale>
<asrwt>0</asrwt>
<pdfrwt beam="1">  1       21 0.36091987E+00 0.19234819E+03</pdfrwt>
<pdfrwt beam="2">  1       21 0.71076972E-02 0.19234819E+03</pdfrwt>
<totfact> 0.22201884E+03</totfact>
</mgrwt>
</event>
<event>
 4    1  0.1110581E+000  0.1729435E+03  0.7546771E-02  0.1174813E+00
         21   -1    0    0  501  502  0.00000000000E+00  0.00000000000E+00  0.51980574214E+03  0.51980574214E+03  0.00000000000E+00 0.  1.
         21   -1    0    0  502  503 -0.00000000000E+00 -0.00000000000E+00 -0.72406802376E+02  0.72406802376E+02  0.00000000000E+00 0.  1.
          6    1    1    2  501    0  0.11664645054E+02  0.13762304720E+02  0.35787432357E+03  0.39747137814E+03  0.17200000000E+03 0.  1.
         -6    1    1    2    0  503 -0.11664645054E+02 -0.13762304720E+02  0.89524616200E+02  0.19474116638E+03  0.17200000000E+03 0.  1.
<mgrwt>
<rscale>  2 0.17294353E+03</rscale>
<asrwt>0</asrwt>
<pdfrwt beam="1">  1       21 0.12995142E+00 0.17294353E+03</pdfrwt>
<pdfrwt beam="2">  1       21 0.18101702E-01 0.17294353E+03</pdfrwt>
<totfact> 0.12194644E+04</totfact>
</mgrwt>
</event>
<event>
 4    1  0.1110581E+000  0.1883710E+03  0.7546771E-02  0.1159939E+00
         21   -1    0    0  503  502  0.00000000000E+00  0.00000000000E+00  0.40813554693E+03  0.40813554693E+03  0.00000000000E+00 0. -1.
         21   -1    0    0  501  503 -0.00000000000E+00 -0.00000000000E+00 -0.26429837856E+03  0.26429837856E+03  0.00000000000E+00 0. -1.
          6    1    1    2  501    0 -0.72140300408E+02  0.26370970220E+02 -0.20350250183E+03  0.27730293771E+03  0.17200000000E+03 0. -1.
         -6    1    1    2    0  502  0.72140300408E+02 -0.26370970220E+02  0.34733967019E+03  0.39513098778E+03  0.17200000000E+03 0. -1.
<mgrwt>
<rscale>  2 0.18837105E+03</rscale>
<asrwt>0</asrwt>
<pdfrwt beam="1">  1       21 0.10203389E+00 0.18837105E+03</pdfrwt>
<pdfrwt beam="2">  1       21 0.66074595E-01 0.18837105E+03</pdfrwt>
<totfact> 0.16523214E+03</totfact>
</mgrwt>
</event>
<event>
 4    1  0.1110581E+000  0.1776443E+03  0.7546771E-02  0.1170103E+00
         21   -1    0    0  501  502  0.00000000000E+00  0.00000000000E+00  0.52871371343E+03  0.52871371343E+03  0.00000000000E+00 0.  1.
         21   -1    0    0  502  503 -0.00000000000E+00 -0.00000000000E+00 -0.84605353945E+02  0.84605353945E+02  0.00000000000E+00 0.  1.
          6    1    1    2  501    0 -0.15544854350E+02  0.41615436618E+02  0.38847770733E+03  0.42716790160E+03  0.17200000000E+03 0.  1.
         -6    1    1    2    0  503  0.15544854350E+02 -0.41615436618E+02  0.55630652154E+02  0.18615116578E+03  0.17200000000E+03 0.  1.
<mgrwt>
<rscale>  2 0.17764427E+03</rscale>
<asrwt>0</asrwt>
<pdfrwt beam="1">  1       21 0.13217842E+00 0.17764427E+03</pdfrwt>
<pdfrwt beam="2">  1       21 0.21151340E-01 0.17764427E+03</pdfrwt>
<totfact> 0.87147695E+03</totfact>
</mgrwt>
</event>
<event>
 4    1  0.1110581E+000  0.4475720E+03  0.7546771E-02  0.1028449E+00
         21   -1    0    0  503  502  0.00000000000E+00  0.00000000000E+00  0.30077051209E+03  0.30077051209E+03  0.00000000000E+00 0.  1.
         21   -1    0    0  501  503 -0.00000000000E+00 -0.00000000000E+00 -0.71073984079E+03  0.71073984079E+03  0.00000000000E+00 0.  1.
          6    1    1    2  501    0  0.41277095616E+03  0.18889111873E+02 -0.33184070891E+03  0.55717045586E+03  0.17200000000E+03 0.  1.
         -6    1    1    2    0  502 -0.41277095616E+03 -0.18889111873E+02 -0.78128619787E+02  0.45433989702E+03  0.17200000000E+03 0.  1.
<mgrwt>
<rscale>  2 0.44757196E+03</rscale>
<asrwt>0</asrwt>
<pdfrwt beam="1">  1       21 0.75192629E-01 0.44757196E+03</pdfrwt>
<pdfrwt beam="2">  1       21 0.17768496E+00 0.44757196E+03</pdfrwt>
<totfact> 0.24371563E+02</totfact>
</mgrwt>
</event>
<event>
 4    1  0.1110581E+000  0.2169935E+03  0.7546771E-02  0.1136145E+00
         21   -1    0    0  503  502  0.00000000000E+00  0.00000000000E+00  0.78427668547E+03  0.78427668547E+03  0.00000000000E+00 0. -1.
         21   -1    0    0  501  503 -0.00000000000E+00 -0.00000000000E+00 -0.64909540296E+02  0.64909540296E+02  0.00000000000E+00 0. -1.
          6    1    1    2  501    0 -0.74816305507E+02  0.10910863537E+03  0.24336076215E+03  0.32605311597E+03  0.17200000000E+03 0. -1.
         -6    1    1    2    0  502  0.74816305507E+02 -0.10910863537E+03  0.47600638303E+03  0.52313310980E+03  0.17200000000E+03 0. -1.
<mgrwt>
<rscale>  2 0.21699349E+03</rscale>
<asrwt>0</asrwt>
<pdfrwt beam="1">  1       21 0.19606914E+00 0.21699349E+03</pdfrwt>
<pdfrwt beam="2">  1       21 0.16227388E-01 0.21699349E+03</pdfrwt>
<totfact> 0.47328255E+03</totfact>
</mgrwt>
</event>
<event>
 4    1  0.1110581E+000  0.1793151E+03  0.7546771E-02  0.1168468E+00
         21   -1    0    0  501  502  0.00000000000E+00  0.00000000000E+00  0.58397293215E+03  0.58397293215E+03  0.00000000000E+00 0.  1.
         21   -1    0    0  502  503 -0.00000000000E+00 -0.00000000000E+00 -0.58981622440E+02  0.58981622440E+02  0.00000000000E+00 0.  1.
          6    1    1    2  501    0  0.50503618268E+02 -0.43937781214E+01  0.17960804369E+03  0.25379710420E+03  0.17200000000E+03 0.  1.
         -6    1    1    2    0  503 -0.50503618268E+02  0.43937781214E+01  0.34538326602E+03  0.38915745038E+03  0.17200000000E+03 0.  1.
<mgrwt>
<rscale>  2 0.17931514E+03</rscale>
<asrwt>0</asrwt>
<pdfrwt beam="1">  1       21 0.14599322E+00 0.17931514E+03</pdfrwt>
<pdfrwt beam="2">  1       21 0.14745407E-01 0.17931514E+03</pdfrwt>
<totfact> 0.13113185E+04</totfact>
</mgrwt>
</event>
<event>
 4    1  0.1110581E+000  0.2122001E+03  0.7546771E-02  0.1139836E+00
         21   -1    0    0  501  502  0.00000000000E+00  0.00000000000E+00  0.14600021603E+03  0.14600021603E+03  0.00000000000E+00 0.  1.
         21   -1    0    0  502  503 -0.00000000000E+00 -0.00000000000E+00 -0.31984908704E+03  0.31984908704E+03  0.00000000000E+00 0.  1.
          6    1    1    2  501    0  0.77106604553E+02 -0.97465086533E+02 -0.13096122856E+03  0.24935860712E+03  0.17200000000E+03 0.  1.
         -6    1    1    2    0  503 -0.77106604553E+02  0.97465086533E+02 -0.42887642453E+02  0.21649069595E+03  0.17200000000E+03 0.  1.
<mgrwt>
<rscale>  2 0.21220007E+03</rscale>
<asrwt>0</asrwt>
<pdfrwt beam="1">  1       21 0.36500054E-01 0.21220007E+03</pdfrwt>
<pdfrwt beam="2">  1       21 0.79962271E-01 0.21220007E+03</pdfrwt>
<totfact> 0.98341897E+03</totfact>
</mgrwt>
</event>
<event>
 4    1  0.1110581E+000  0.1794890E+03  0.7546771E-02  0.1168298E+00
         21   -1    0    0  503  502  0.00000000000E+00  0.00000000000E+00  0.34324326655E+03  0.34324326655E+03  0.00000000000E+00 0.  1.
         21   -1    0    0  501  503 -0.00000000000E+00 -0.00000000000E+00 -0.29786731835E+03  0.29786731835E+03  0.00000000000E+00 0.  1.
          6    1    1    2  501    0 -0.54377012875E+00  0.51303116349E+02 -0.24259902762E+03  0.30177904771E+03  0.17200000000E+03 0.  1.
         -6    1    1    2    0  502  0.54377012875E+00 -0.51303116349E+02  0.28797497582E+03  0.33933153719E+03  0.17200000000E+03 0.  1.
<mgrwt>
<rscale>  2 0.17948901E+03</rscale>
<asrwt>0</asrwt>
<pdfrwt beam="1">  1       21 0.85810817E-01 0.17948901E+03</pdfrwt>
<pdfrwt beam="2">  1       21 0.74466830E-01 0.17948901E+03</pdfrwt>
<totfact> 0.19175738E+03</totfact>
</mgrwt>
</event>
<event>
 4    1  0.1110581E+000  0.2471828E+03  0.7546771E-02  0.1115098E+00
         21   -1    0    0  501  502  0.00000000000E+00  0.00000000000E+00  0.28817942777E+03  0.28817942777E+03  0.00000000000E+00 0. -1.
         21   -1    0    0  502  503 -0.00000000000E+00 -0.00000000000E+00 -0.21202397221E+03  0.21202397221E+03  0.00000000000E+00 0. -1.
          6    1    1    2  501    0  0.16253943197E+03 -0.71388107025E+02  0.39364824147E+02  0.25029765910E+03  0.17200000000E+03 0. -1.
         -6    1    1    2    0  503 -0.16253943197E+03  0.71388107025E+02  0.36790631417E+02  0.24990574089E+03  0.17200000000E+03 0. -1.
<mgrwt>
<rscale>  2 0.24718278E+03</rscale>
<asrwt>0</asrwt>
<pdfrwt beam="1">  1       21 0.72044857E-01 0.24718278E+03</pdfrwt>
<pdfrwt beam="2">  1       21 0.53005993E-01 0.24718278E+03</pdfrwt>
<totfact> 0.56450216E+03</totfact>
</mgrwt>
</event>
<event>
 4    1  0.1110581E+000  0.1746033E+03  0.7546771E-02  0.1173131E+00
         21   -1    0    0  503  502  0.00000000000E+00  0.00000000000E+00  0.43987838808E+02  0.43987838808E+02  0.00000000000E+00 0.  1.
         21   -1    0    0  501  503 -0.00000000000E+00 -0.00000000000E+00 -0.69513414197E+03  0.69513414197E+03  0.00000000000E+00 0.  1.
          6    1    1    2  501    0  0.29911916454E+02  0.27571309013E+01 -0.34574761794E+03  0.38733414493E+03  0.17200000000E+03 0.  1.
         -6    1    1    2    0  502 -0.29911916454E+02 -0.27571309013E+01 -0.30539868522E+03  0.35178783585E+03  0.17200000000E+03 0.  1.
<mgrwt>
<rscale>  2 0.17460333E+03</rscale>
<asrwt>0</asrwt>
<pdfrwt beam="1">  1       21 0.10996960E-01 0.17460333E+03</pdfrwt>
<pdfrwt beam="2">  1       21 0.17378354E+00 0.17460333E+03</pdfrwt>
<totfact> 0.13961186E+04</totfact>
</mgrwt>
</event>
<event>
 4    1  0.1110581E+000  0.1802292E+03  0.7546771E-02  0.1167581E+00
         21   -1    0    0  501  502  0.00000000000E+00  0.00000000000E+00  0.60707752327E+02  0.60707752327E+02  0.00000000000E+00 0.  1.
         21   -1    0    0  502  503 -0.00000000000E+00 -0.00000000000E+00 -0.12788160650E+04  0.12788160650E+04  0.00000000000E+00 0.  1.
          6    1    1    2  501    0  0.32236264980E+02 -0.43120773074E+02 -0.98278396939E+02  0.20528327052E+03  0.17200000000E+03 0.  1.
         -6    1    1    2    0  503 -0.32236264980E+02  0.43120773074E+02 -0.11198299157E+04  0.11342405468E+04  0.17200000000E+03 0.  1.
<mgrwt>
<rscale>  2 0.18022924E+03</rscale>
<asrwt>0</asrwt>
<pdfrwt beam="1">  1       21 0.15176939E-01 0.18022924E+03</pdfrwt>
<pdfrwt beam="2">  1       21 0.31970400E+00 0.18022924E+03</pdfrwt>
<totfact> 0.10273288E+03</totfact>
</mgrwt>
</event>
<event>
 4    1  0.1110581E+000  0.2129986E+03  0.7546771E-02  0.1139213E+00
         21   -1    0    0  501  502  0.00000000000E+00  0.00000000000E+00  0.22726641240E+03  0.22726641240E+03  0.00000000000E+00 0. -1.
         21   -1    0    0  502  503 -0.00000000000E+00 -0.00000000000E+00 -0.25880157502E+03  0.25880157502E+03  0.00000000000E+00 0. -1.
          6    1    1    2  501    0 -0.12409255514E+03  0.19632765659E+02  0.10044491369E+03  0.23549434900E+03  0.17200000000E+03 0. -1.
         -6    1    1    2    0  503  0.12409255514E+03 -0.19632765659E+02 -0.13198007631E+03  0.25057363842E+03  0.17200000000E+03 0. -1.
<mgrwt>
<rscale>  2 0.21299861E+03</rscale>
<asrwt>0</asrwt>
<pdfrwt beam="1">  1       21 0.56816603E-01 0.21299861E+03</pdfrwt>
<pdfrwt beam="2">  1       21 0.64700394E-01 0.21299861E+03</pdfrwt>
<totfact> 0.63145983E+03</totfact>
</mgrwt>
</event>
<event>
 4    1  0.1110581E+000  0.1865100E+03  0.7546771E-02  0.1161647E+00
         21   -1    0    0  503  502  0.00000000000E+00  0.00000000000E+00  0.46860423656E+02  0.46860423656E+02  0.00000000000E+00 0. -1.
         21   -1    0    0  501  503 -0.00000000000E+00 -0.00000000000E+00 -0.83839481929E+03  0.83839481929E+03  0.00000000000E+00 0. -1.
          6    1    1    2  501    0 -0.71733624721E+02 -0.75018497676E+01 -0.54559484102E+03  0.57659320253E+03  0.17200000000E+03 0. -1.
         -6    1    1    2    0  502  0.71733624721E+02  0.75018497676E+01 -0.24593955462E+03  0.30866204041E+03  0.17200000000E+03 0. -1.
<mgrwt>
<rscale>  2 0.18651003E+03</rscale>
<asrwt>0</asrwt>
<pdfrwt beam="1">  1       21 0.11715106E-01 0.18651003E+03</pdfrwt>
<pdfrwt beam="2">  1       21 0.20959871E+00 0.18651003E+03</pdfrwt>
<totfact> 0.71897654E+03</totfact>
</mgrwt>
</event>
<event>
 4    1  0.1110581E+000  0.1869279E+03  0.7546771E-02  0.1161262E+00
         21   -1    0    0  503  502  0.00000000000E+00  0.00000000000E+00  0.25760472546E+03  0.25760472546E+03  0.00000000000E+00 0.  1.
         21   -1    0    0  501  503 -0.00000000000E+00 -0.00000000000E+00 -0.17066126813E+03  0.17066126813E+03  0.00000000000E+00 0.  1.
          6    1    1    2  501    0 -0.60340530075E+02 -0.41437500025E+02  0.14047112296E+03  0.23382511063E+03  0.17200000000E+03 0.  1.
         -6    1    1    2    0  502  0.60340530075E+02  0.41437500025E+02 -0.53527665630E+02  0.19444088296E+03  0.17200000000E+03 0.  1.
<mgrwt>
<rscale>  2 0.18692792E+03</rscale>
<asrwt>0</asrwt>
<pdfrwt beam="1">  1       21 0.64401181E-01 0.18692792E+03</pdfrwt>
<pdfrwt beam="2">  1       21 0.42665317E-01 0.18692792E+03</pdfrwt>
<totfact> 0.11796284E+04</totfact>
</mgrwt>
</event>
<event>
 4    1  0.1110581E+000  0.1911966E+03  0.7546771E-02  0.1157386E+00
         21   -1    0    0  503  502  0.00000000000E+00  0.00000000000E+00  0.10167330465E+04  0.10167330465E+04  0.00000000000E+00 0. -1.
         21   -1    0    0  501  503 -0.00000000000E+00 -0.00000000000E+00 -0.58265438420E+02  0.58265438420E+02  0.00000000000E+00 0.  1.
          6    1    1    2  501    0 -0.76908074166E+02 -0.32515997791E+02  0.14662699546E+03  0.24094733404E+03  0.17200000000E+03 0.  1.
         -6    1    1    2    0  502  0.76908074166E+02  0.32515997791E+02  0.81184061263E+03  0.83405115089E+03  0.17200000000E+03 0. -1.
<mgrwt>
<rscale>  2 0.19119661E+03</rscale>
<asrwt>0</asrwt>
<pdfrwt beam="1">  1       21 0.25418320E+00 0.19119661E+03</pdfrwt>
<pdfrwt beam="2">  1       21 0.14566363E-01 0.19119661E+03</pdfrwt>
<totfact> 0.26044341E+03</totfact>
</mgrwt>
</event>
<event>
 4    1  0.1110581E+000  0.1987641E+03  0.7546771E-02  0.1150786E+00
         21   -1    0    0  503  502  0.00000000000E+00  0.00000000000E+00  0.76063959698E+03  0.76063959698E+03  0.00000000000E+00 0.  1.
         21   -1    0    0  501  503 -0.00000000000E+00 -0.00000000000E+00 -0.56941572672E+02  0.56941572672E+02  0.00000000000E+00 0.  1.
          6    1    1    2  501    0  0.78789239288E+02  0.60954204646E+02  0.23068719440E+03  0.30450573221E+03  0.17200000000E+03 0.  1.
         -6    1    1    2    0  502 -0.78789239288E+02 -0.60954204646E+02  0.47301082991E+03  0.51307543744E+03  0.17200000000E+03 0.  1.
<mgrwt>
<rscale>  2 0.19876408E+03</rscale>
<asrwt>0</asrwt>
<pdfrwt beam="1">  1       21 0.19015987E+00 0.19876408E+03</pdfrwt>
<pdfrwt beam="2">  1       21 0.14235396E-01 0.19876408E+03</pdfrwt>
<totfact> 0.66767399E+03</totfact>
</mgrwt>
</event>
<event>
 4    1  0.1110581E+000  0.1910605E+03  0.7546771E-02  0.1157508E+00
         21   -1    0    0  503  502  0.00000000000E+00  0.00000000000E+00  0.66892340843E+02  0.66892340843E+02  0.00000000000E+00 0.  1.
         21   -1    0    0  501  503 -0.00000000000E+00 -0.00000000000E+00 -0.55637694233E+03  0.55637694233E+03  0.00000000000E+00 0.  1.
          6    1    1    2  501    0  0.71765956470E+02  0.42068535484E+02 -0.20160118361E+03  0.27775376041E+03  0.17200000000E+03 0.  1.
         -6    1    1    2    0  502 -0.71765956470E+02 -0.42068535484E+02 -0.28788341788E+03  0.34551552277E+03  0.17200000000E+03 0.  1.
<mgrwt>
<rscale>  2 0.19106050E+03</rscale>
<asrwt>0</asrwt>
<pdfrwt beam="1">  1       21 0.16723085E-01 0.19106050E+03</pdfrwt>
<pdfrwt beam="2">  1       21 0.13909423E+00 0.19106050E+03</pdfrwt>
<totfact> 0.11713683E+04</totfact>
</mgrwt>
</event>
<event>
 4    1  0.1110581E+000  0.2156604E+03  0.7546771E-02  0.1137160E+00
         21   -1    0    0  501  502  0.00000000000E+00  0.00000000000E+00  0.29158240170E+03  0.29158240170E+03  0.00000000000E+00 0.  1.
         21   -1    0    0  502  503 -0.00000000000E+00 -0.00000000000E+00 -0.57671822694E+03  0.57671822694E+03  0.00000000000E+00 0.  1.
          6    1    1    2  501    0  0.12541974727E+03 -0.34573210367E+02  0.22669551774E+03  0.31289020062E+03  0.17200000000E+03 0.  1.
         -6    1    1    2    0  503 -0.12541974727E+03  0.34573210367E+02 -0.51183134298E+03  0.55541042801E+03  0.17200000000E+03 0.  1.
<mgrwt>
<rscale>  2 0.21566043E+03</rscale>
<asrwt>0</asrwt>
<pdfrwt beam="1">  1       21 0.72895601E-01 0.21566043E+03</pdfrwt>
<pdfrwt beam="2">  1       21 0.14417956E+00 0.21566043E+03</pdfrwt>
<totfact> 0.54782638E+02</totfact>
</mgrwt>
</event>
<event>
 4    1  0.1110581E+000  0.2033480E+03  0.7546771E-02  0.1146945E+00
         21   -1    0    0  503  502  0.00000000000E+00  0.00000000000E+00  0.26245989541E+03  0.26245989541E+03  0.00000000000E+00 0.  1.
         21   -1    0    0  501  503 -0.00000000000E+00 -0.00000000000E+00 -0.41920113285E+03  0.41920113285E+03  0.00000000000E+00 0. -1.
          6    1    1    2  501    0 -0.55338917968E+02 -0.93295260201E+02 -0.34764128566E+03  0.40274665103E+03  0.17200000000E+03 0.  1.
         -6    1    1    2    0  502  0.55338917968E+02  0.93295260201E+02  0.19090004822E+03  0.27891437724E+03  0.17200000000E+03 0.  1.
<mgrwt>
<rscale>  2 0.20334798E+03</rscale>
<asrwt>0</asrwt>
<pdfrwt beam="1">  1       21 0.65614974E-01 0.20334798E+03</pdfrwt>
<pdfrwt beam="2">  1       21 0.10480028E+00 0.20334798E+03</pdfrwt>
<totfact> 0.15514990E+03</totfact>
</mgrwt>
</event>
<event>
 4    1  0.1110581E+000  0.2755602E+03  0.7546771E-02  0.1098139E+00
         21   -1    0    0  501  502  0.00000000000E+00  0.00000000000E+00  0.24158806875E+03  0.24158806875E+03  0.00000000000E+00 0.  1.
         21   -1    0    0  502  503 -0.00000000000E+00 -0.00000000000E+00 -0.44425410069E+03  0.44425410069E+03  0.00000000000E+00 0. -1.
          6    1    1    2  501    0  0.18372278118E+03 -0.11222899227E+03 -0.28679619962E+03  0.39772536648E+03  0.17200000000E+03 0. -1.
         -6    1    1    2    0  503 -0.18372278118E+03  0.11222899227E+03  0.84130167676E+02  0.28811680295E+03  0.17200000000E+03 0.  1.
<mgrwt>
<rscale>  2 0.27556017E+03</rscale>
<asrwt>0</asrwt>
<pdfrwt beam="1">  1       21 0.60397018E-01 0.27556017E+03</pdfrwt>
<pdfrwt beam="2">  1       21 0.11106352E+00 0.27556017E+03</pdfrwt>
<totfact> 0.15244917E+03</totfact>
</mgrwt>
</event>
<event>
 4    1  0.1110581E+000  0.2906781E+03  0.7546771E-02  0.1089996E+00
         21   -1    0    0  501  502  0.00000000000E+00  0.00000000000E+00  0.52494435471E+03  0.52494435471E+03  0.00000000000E+00 0. -1.
         21   -1    0    0  502  503 -0.00000000000E+00 -0.00000000000E+00 -0.26237332497E+03  0.26237332497E+03  0.00000000000E+00 0.  1.
          6    1    1    2  501    0  0.88949244092E+02  0.21678972947E+03  0.37603001170E+03  0.47528131094E+03  0.17200000000E+03 0. -1.
         -6    1    1    2    0  503 -0.88949244092E+02 -0.21678972947E+03 -0.11345898196E+03  0.31203636874E+03  0.17200000000E+03 0.  1.
<mgrwt>
<rscale>  2 0.29067809E+03</rscale>
<asrwt>0</asrwt>
<pdfrwt beam="1">  1       21 0.13123609E+00 0.29067809E+03</pdfrwt>
<pdfrwt beam="2">  1       21 0.65593332E-01 0.29067809E+03</pdfrwt>
<totfact> 0.82895947E+02</totfact>
</mgrwt>
</event>
<event>
 4    1  0.1110581E+000  0.2343174E+03  0.7546771E-02  0.1123637E+00
         21   -1    0    0  503  502  0.00000000000E+00  0.00000000000E+00  0.30368083286E+02  0.30368083286E+02  0.00000000000E+00 0.  1.
         21   -1    0    0  501  503 -0.00000000000E+00 -0.00000000000E+00 -0.20569532960E+04  0.20569532960E+04  0.00000000000E+00 0. -1.
          6    1    1    2  501    0 -0.15340406813E+03 -0.42282578472E+02 -0.65018860231E+03  0.69112216223E+03  0.17200000000E+03 0.  1.
         -6    1    1    2    0  502  0.15340406813E+03  0.42282578472E+02 -0.13763966104E+04  0.13961992170E+04  0.17200000000E+03 0. -1.
<mgrwt>
<rscale>  2 0.23431736E+03</rscale>
<asrwt>0</asrwt>
<pdfrwt beam="1">  1       21 0.75920224E-02 0.23431736E+03</pdfrwt>
<pdfrwt beam="2">  1       21 0.51423822E+00 0.23431736E+03</pdfrwt>
<totfact> 0.18419446E+02</totfact>
</mgrwt>
</event>
<event>
 4    1  0.1110581E+000  0.2002762E+03  0.7546771E-02  0.1149506E+00
         21   -1    0    0  501  502  0.00000000000E+00  0.00000000000E+00  0.11048492028E+03  0.11048492028E+03  0.00000000000E+00 0.  1.
         21   -1    0    0  502  503 -0.00000000000E+00 -0.00000000000E+00 -0.36548377523E+03  0.36548377523E+03  0.00000000000E+00 0. -1.
          6    1    1    2  501    0 -0.86458482070E+02 -0.55240100174E+02 -0.14695619559E+03  0.24840825512E+03  0.17200000000E+03 0. -1.
         -6    1    1    2    0  503  0.86458482070E+02  0.55240100174E+02 -0.10804265936E+03  0.22756044039E+03  0.17200000000E+03 0. -1.
<mgrwt>
<rscale>  2 0.20027615E+03</rscale>
<asrwt>0</asrwt>
<pdfrwt beam="1">  1       21 0.27621230E-01 0.20027615E+03</pdfrwt>
<pdfrwt beam="2">  1       21 0.91370943E-01 0.20027615E+03</pdfrwt>
<totfact> 0.12623690E+04</totfact>
</mgrwt>
</event>
<event>
 4    1  0.1110581E+000  0.1974767E+03  0.7546771E-02  0.1151886E+00
         21   -1    0    0  501  502  0.00000000000E+00  0.00000000000E+00  0.13961442219E+04  0.13961442219E+04  0.00000000000E+00 0.  1.
         21   -1    0    0  502  503 -0.00000000000E+00 -0.00000000000E+00 -0.55930207088E+02  0.55930207088E+02  0.00000000000E+00 0. -1.
          6    1    1    2  501    0 -0.80251539968E+02 -0.54522759773E+02  0.11837970046E+04  0.12001551521E+04  0.17200000000E+03 0.  1.
         -6    1    1    2    0  503  0.80251539968E+02  0.54522759773E+02  0.15641701028E+03  0.25191927697E+03  0.17200000000E+03 0. -1.
<mgrwt>
<rscale>  2 0.19747668E+03</rscale>
<asrwt>0</asrwt>
<pdfrwt beam="1">  1       21 0.34903594E+00 0.19747668E+03</pdfrwt>
<pdfrwt beam="2">  1       21 0.13982556E-01 0.19747668E+03</pdfrwt>
<totfact> 0.78397244E+02</totfact>
</mgrwt>
</event>
<event>
 4    1  0.1110581E+000  0.2457989E+03  0.7546771E-02  0.1115989E+00
         21   -1    0    0  503  502  0.00000000000E+00  0.00000000000E+00  0.10456188407E+03  0.10456188407E+03  0.00000000000E+00 0. -1.
         21   -1    0    0  501  503 -0.00000000000E+00 -0.00000000000E+00 -0.62756317679E+03  0.62756317679E+03  0.00000000000E+00 0. -1.
          6    1    1    2  501    0  0.11889441507E+03 -0.12921780048E+03 -0.15843171097E+03  0.29243414462E+03  0.17200000000E+03 0. -1.
         -6    1    1    2    0  502 -0.11889441507E+03  0.12921780048E+03 -0.36456958175E+03  0.43969091625E+03  0.17200000000E+03 0. -1.
<mgrwt>
<rscale>  2 0.24579895E+03</rscale>
<asrwt>0</asrwt>
<pdfrwt beam="1">  1       21 0.26140471E-01 0.24579895E+03</pdfrwt>
<pdfrwt beam="2">  1       21 0.15689079E+00 0.24579895E+03</pdfrwt>
<totfact> 0.35345433E+03</totfact>
</mgrwt>
</event>
<event>
 4    1  0.1110581E+000  0.2637728E+03  0.7546771E-02  0.1104897E+00
         21   -1    0    0  501  502  0.00000000000E+00  0.00000000000E+00  0.12924246198E+03  0.12924246198E+03  0.00000000000E+00 0.  1.
         21   -1    0    0  502  503 -0.00000000000E+00 -0.00000000000E+00 -0.54265621198E+03  0.54265621198E+03  0.00000000000E+00 0. -1.
          6    1    1    2  501    0  0.95849267909E+02 -0.17551357906E+03 -0.23667606551E+03  0.35438913439E+03  0.17200000000E+03 0. -1.
         -6    1    1    2    0  503 -0.95849267909E+02  0.17551357906E+03 -0.17673768449E+03  0.31750953956E+03  0.17200000000E+03 0.  1.
<mgrwt>
<rscale>  2 0.26377282E+03</rscale>
<asrwt>0</asrwt>
<pdfrwt beam="1">  1       21 0.32310616E-01 0.26377282E+03</pdfrwt>
<pdfrwt beam="2">  1       21 0.13566405E+00 0.26377282E+03</pdfrwt>
<totfact> 0.33871601E+03</totfact>
</mgrwt>
</event>
<event>
 4    1  0.1110581E+000  0.2140745E+03  0.7546771E-02  0.1138379E+00
         21   -1    0    0  501  502  0.00000000000E+00  0.00000000000E+00  0.26248500154E+03  0.26248500154E+03  0.00000000000E+00 0. -1.
         21   -1    0    0  502  503 -0.00000000000E+00 -0.00000000000E+00 -0.30057849217E+03  0.30057849217E+03  0.00000000000E+00 0. -1.
          6    1    1    2  501    0  0.62672021134E+02  0.11097800112E+03 -0.20131441634E+03  0.29386288161E+03  0.17200000000E+03 0. -1.
         -6    1    1    2    0  503 -0.62672021134E+02 -0.11097800112E+03  0.16322092570E+03  0.26920061210E+03  0.17200000000E+03 0. -1.
<mgrwt>
<rscale>  2 0.21407452E+03</rscale>
<asrwt>0</asrwt>
<pdfrwt beam="1">  1       21 0.65621251E-01 0.21407452E+03</pdfrwt>
<pdfrwt beam="2">  1       21 0.75144623E-01 0.21407452E+03</pdfrwt>
<totfact> 0.33211790E+03</totfact>
</mgrwt>
</event>
<event>
 4    1  0.1110581E+000  0.1936991E+03  0.7546771E-02  0.1155167E+00
         21   -1    0    0  503  502  0.00000000000E+00  0.00000000000E+00  0.38919067935E+03  0.38919067935E+03  0.00000000000E+00 0. -1.
         21   -1    0    0  501  503 -0.00000000000E+00 -0.00000000000E+00 -0.98927220986E+02  0.98927220986E+02  0.00000000000E+00 0. -1.
          6    1    1    2  501    0 -0.20713633612E+02  0.86638883667E+02  0.18411299420E+03  0.26723949074E+03  0.17200000000E+03 0. -1.
         -6    1    1    2    0  502  0.20713633612E+02 -0.86638883667E+02  0.10615046416E+03  0.22087840959E+03  0.17200000000E+03 0. -1.
<mgrwt>
<rscale>  2 0.19369912E+03</rscale>
<asrwt>0</asrwt>
<pdfrwt beam="1">  1       21 0.97297666E-01 0.19369912E+03</pdfrwt>
<pdfrwt beam="2">  1       21 0.24731806E-01 0.19369912E+03</pdfrwt>
<totfact> 0.13532925E+04</totfact>
</mgrwt>
</event>
<event>
 4    1  0.1110581E+000  0.1861669E+03  0.7546771E-02  0.1161965E+00
         21   -1    0    0  503  502  0.00000000000E+00  0.00000000000E+00  0.84179324320E+02  0.84179324320E+02  0.00000000000E+00 0.  1.
         21   -1    0    0  501  503 -0.00000000000E+00 -0.00000000000E+00 -0.44460912103E+03  0.44460912103E+03  0.00000000000E+00 0. -1.
          6    1    1    2  501    0  0.64158895825E+02  0.30947579109E+02 -0.25212736608E+03  0.31341079320E+03  0.17200000000E+03 0.  1.
         -6    1    1    2    0  502 -0.64158895825E+02 -0.30947579109E+02 -0.10830243063E+03  0.21537765215E+03  0.17200000000E+03 0.  1.
<mgrwt>
<rscale>  2 0.18616691E+03</rscale>
<asrwt>0</asrwt>
<pdfrwt beam="1">  1       21 0.21044831E-01 0.18616691E+03</pdfrwt>
<pdfrwt beam="2">  1       21 0.11115228E+00 0.18616691E+03</pdfrwt>
<totfact> 0.13421769E+04</totfact>
</mgrwt>
</event>
<event>
 4    1  0.1110581E+000  0.1749477E+03  0.7546771E-02  0.1172784E+00
         21   -1    0    0  503  502  0.00000000000E+00  0.00000000000E+00  0.18271885857E+03  0.18271885857E+03  0.00000000000E+00 0. -1.
         21   -1    0    0  501  503 -0.00000000000E+00 -0.00000000000E+00 -0.18202917823E+03  0.18202917823E+03  0.00000000000E+00 0. -1.
          6    1    1    2  501    0  0.28055051647E+02  0.15349283939E+02 -0.51167165424E+02  0.18227661742E+03  0.17200000000E+03 0. -1.
         -6    1    1    2    0  502 -0.28055051647E+02 -0.15349283939E+02  0.51856845762E+02  0.18247141939E+03  0.17200000000E+03 0. -1.
<mgrwt>
<rscale>  2 0.17494767E+03</rscale>
<asrwt>0</asrwt>
<pdfrwt beam="1">  1       21 0.45679715E-01 0.17494767E+03</pdfrwt>
<pdfrwt beam="2">  1       21 0.45507295E-01 0.17494767E+03</pdfrwt>
<totfact> 0.21501863E+04</totfact>
</mgrwt>
</event>
<event>
 4    1  0.1110581E+000  0.2251681E+03  0.7546771E-02  0.1130088E+00
         21   -1    0    0  503  502  0.00000000000E+00  0.00000000000E+00  0.19714138630E+03  0.19714138630E+03  0.00000000000E+00 0. -1.
         21   -1    0    0  501  503 -0.00000000000E+00 -0.00000000000E+00 -0.29094090992E+03  0.29094090992E+03  0.00000000000E+00 0.  1.
          6    1    1    2  501    0 -0.20826649409E+01 -0.14530087733E+03  0.36233013425E+02  0.22806471386E+03  0.17200000000E+03 0.  1.
         -6    1    1    2    0  502  0.20826649409E+01  0.14530087733E+03 -0.13003253705E+03  0.26001758236E+03  0.17200000000E+03 0. -1.
<mgrwt>
<rscale>  2 0.22516812E+03</rscale>
<asrwt>0</asrwt>
<pdfrwt beam="1">  1       21 0.49285347E-01 0.22516812E+03</pdfrwt>
<pdfrwt beam="2">  1       21 0.72735227E-01 0.22516812E+03</pdfrwt>
<totfact> 0.65307164E+03</totfact>
</mgrwt>
</event>
<event>
 4    1  0.1110581E+000  0.2616304E+03  0.7546771E-02  0.1106168E+00
         21   -1    0    0  503  502  0.00000000000E+00  0.00000000000E+00  0.31064895024E+03  0.31064895024E+03  0.00000000000E+00 0. -1.
         21   -1    0    0  501  503 -0.00000000000E+00 -0.00000000000E+00 -0.28202624459E+03  0.28202624459E+03  0.00000000000E+00 0.  1.
          6    1    1    2  501    0 -0.14893325523E+03 -0.12917187322E+03  0.15289512796E+03  0.30303037389E+03  0.17200000000E+03 0. -1.
         -6    1    1    2    0  502  0.14893325523E+03  0.12917187322E+03 -0.12427242231E+03  0.28964482093E+03  0.17200000000E+03 0.  1.
<mgrwt>
<rscale>  2 0.26163044E+03</rscale>
<asrwt>0</asrwt>
<pdfrwt beam="1">  1       21 0.77662237E-01 0.26163044E+03</pdfrwt>
<pdfrwt beam="2">  1       21 0.70506561E-01 0.26163044E+03</pdfrwt>
<totfact> 0.25443060E+03</totfact>
</mgrwt>
</event>
<event>
 4    1  0.1110581E+000  0.2236182E+03  0.7546771E-02  0.1131214E+00
         21   -1    0    0  503  502  0.00000000000E+00  0.00000000000E+00  0.91402573634E+02  0.91402573634E+02  0.00000000000E+00 0. -1.
         21   -1    0    0  501  503 -0.00000000000E+00 -0.00000000000E+00 -0.59431782911E+03  0.59431782911E+03  0.00000000000E+00 0.  1.
          6    1    1    2  501    0  0.13023326276E+03  0.58825175573E+02 -0.34811239678E+03  0.41374792423E+03  0.17200000000E+03 0.  1.
         -6    1    1    2    0  502 -0.13023326276E+03 -0.58825175573E+02 -0.15480285869E+03  0.27197247851E+03  0.17200000000E+03 0. -1.
<mgrwt>
<rscale>  2 0.22361821E+03</rscale>
<asrwt>0</asrwt>
<pdfrwt beam="1">  1       21 0.22850644E-01 0.22361821E+03</pdfrwt>
<pdfrwt beam="2">  1       21 0.14857946E+00 0.22361821E+03</pdfrwt>
<totfact> 0.53730596E+03</totfact>
</mgrwt>
</event>
<event>
 4    1  0.1110581E+000  0.2169206E+03  0.7546771E-02  0.1136200E+00
         21   -1    0    0  503  502  0.00000000000E+00  0.00000000000E+00  0.43957059053E+03  0.43957059053E+03  0.00000000000E+00 0. -1.
         21   -1    0    0  501  503 -0.00000000000E+00 -0.00000000000E+00 -0.12358741343E+03  0.12358741343E+03  0.00000000000E+00 0.  1.
          6    1    1    2  501    0 -0.11060421710E+03  0.72368807178E+02  0.54978696999E+02  0.22377934269E+03  0.17200000000E+03 0.  1.
         -6    1    1    2    0  502  0.11060421710E+03 -0.72368807178E+02  0.26100448010E+03  0.33937866127E+03  0.17200000000E+03 0. -1.
<mgrwt>
<rscale>  2 0.21692058E+03</rscale>
<asrwt>0</asrwt>
<pdfrwt beam="1">  1       21 0.10989264E+00 0.21692058E+03</pdfrwt>
<pdfrwt beam="2">  1       21 0.30896854E-01 0.21692058E+03</pdfrwt>
<totfact> 0.64681695E+03</totfact>
</mgrwt>
</event>
<event>
 4    1  0.1110581E+000  0.1837935E+03  0.7546771E-02  0.1164181E+00
         21   -1    0    0  501  502  0.00000000000E+00  0.00000000000E+00  0.33775377950E+03  0.33775377950E+03  0.00000000000E+00 0.  1.
         21   -1    0    0  502  503 -0.00000000000E+00 -0.00000000000E+00 -0.30009841121E+03  0.30009841121E+03  0.00000000000E+00 0.  1.
          6    1    1    2  501    0  0.33743064160E+02 -0.55294420831E+02  0.27924206303E+03  0.33429956195E+03  0.17200000000E+03 0.  1.
         -6    1    1    2    0  503 -0.33743064160E+02  0.55294420831E+02 -0.24158669474E+03  0.30355262876E+03  0.17200000000E+03 0.  1.
<mgrwt>
<rscale>  2 0.18379355E+03</rscale>
<asrwt>0</asrwt>
<pdfrwt beam="1">  1       21 0.84438445E-01 0.18379355E+03</pdfrwt>
<pdfrwt beam="2">  1       21 0.75024603E-01 0.18379355E+03</pdfrwt>
<totfact> 0.19487230E+03</totfact>
</mgrwt>
</event>
<event>
 4    1  0.1110581E+000  0.2924121E+03  0.7546771E-02  0.1089096E+00
         21   -1    0    0  501  502  0.00000000000E+00  0.00000000000E+00  0.65115703787E+03  0.65115703787E+03  0.00000000000E+00 0. -1.
         21   -1    0    0  502  503 -0.00000000000E+00 -0.00000000000E+00 -0.85468385564E+03  0.85468385564E+03  0.00000000000E+00 0. -1.
          6    1    1    2  501    0 -0.17107124690E+03 -0.16326498536E+03  0.59090774423E+03  0.65930022687E+03  0.17200000000E+03 0. -1.
         -6    1    1    2    0  503  0.17107124690E+03  0.16326498536E+03 -0.79443456201E+03  0.84654066664E+03  0.17200000000E+03 0. -1.
<mgrwt>
<rscale>  2 0.29241208E+03</rscale>
<asrwt>0</asrwt>
<pdfrwt beam="1">  1       21 0.16278926E+00 0.29241208E+03</pdfrwt>
<pdfrwt beam="2">  1       21 0.21367096E+00 0.29241208E+03</pdfrwt>
<totfact> 0.23041346E+01</totfact>
</mgrwt>
</event>
<event>
 4    1  0.1110581E+000  0.1885489E+03  0.7546771E-02  0.1159777E+00
         21   -1    0    0  503  502  0.00000000000E+00  0.00000000000E+00  0.22099243707E+02  0.22099243707E+02  0.00000000000E+00 0. -1.
         21   -1    0    0  501  503 -0.00000000000E+00 -0.00000000000E+00 -0.20534799302E+04  0.20534799302E+04  0.00000000000E+00 0.  1.
          6    1    1    2  501    0  0.23915049812E+02 -0.73448979802E+02 -0.14986878255E+04  0.15105018638E+04  0.17200000000E+03 0.  1.
         -6    1    1    2    0  502 -0.23915049812E+02  0.73448979802E+02 -0.53269286095E+03  0.56507731006E+03  0.17200000000E+03 0. -1.
<mgrwt>
<rscale>  2 0.18854889E+03</rscale>
<asrwt>0</asrwt>
<pdfrwt beam="1">  1       21 0.55248107E-02 0.18854889E+03</pdfrwt>
<pdfrwt beam="2">  1       21 0.51337001E+00 0.18854889E+03</pdfrwt>
<totfact> 0.34784691E+02</totfact>
</mgrwt>
</event>
<event>
 4    1  0.1110581E+000  0.2087034E+03  0.7546771E-02  0.1142597E+00
         21   -1    0    0  503  502  0.00000000000E+00  0.00000000000E+00  0.11949676110E+03  0.11949676110E+03  0.00000000000E+00 0. -1.
         21   -1    0    0  501  503 -0.00000000000E+00 -0.00000000000E+00 -0.36579731714E+03  0.36579731714E+03  0.00000000000E+00 0.  1.
          6    1    1    2  501    0  0.52755328293E+02 -0.10578270834E+03 -0.13757557772E+03  0.24996828925E+03  0.17200000000E+03 0.  1.
         -6    1    1    2    0  502 -0.52755328293E+02  0.10578270834E+03 -0.10872497832E+03  0.23532578898E+03  0.17200000000E+03 0.  1.
<mgrwt>
<rscale>  2 0.20870339E+03</rscale>
<asrwt>0</asrwt>
<pdfrwt beam="1">  1       21 0.29874191E-01 0.20870339E+03</pdfrwt>
<pdfrwt beam="2">  1       21 0.91449329E-01 0.20870339E+03</pdfrwt>
<totfact> 0.10758105E+04</totfact>
</mgrwt>
</event>
<event>
 4    1  0.1110581E+000  0.2639128E+03  0.7546771E-02  0.1104815E+00
         21   -1    0    0  503  502  0.00000000000E+00  0.00000000000E+00  0.76443125967E+02  0.76443125967E+02  0.00000000000E+00 0. -1.
         21   -1    0    0  501  503 -0.00000000000E+00 -0.00000000000E+00 -0.10977104226E+04  0.10977104226E+04  0.00000000000E+00 0.  1.
          6    1    1    2  501    0  0.19951888504E+03 -0.16067250684E+02 -0.75266923223E+03  0.79759696287E+03  0.17200000000E+03 0.  1.
         -6    1    1    2    0  502 -0.19951888504E+03  0.16067250684E+02 -0.26859806441E+03  0.37655658570E+03  0.17200000000E+03 0. -1.
<mgrwt>
<rscale>  2 0.26391275E+03</rscale>
<asrwt>0</asrwt>
<pdfrwt beam="1">  1       21 0.19110782E-01 0.26391275E+03</pdfrwt>
<pdfrwt beam="2">  1       21 0.27442760E+00 0.26391275E+03</pdfrwt>
<totfact> 0.11138981E+03</totfact>
</mgrwt>
</event>
<event>
 4    1  0.1110581E+000  0.1759980E+03  0.7546771E-02  0.1171733E+00
         21   -1    0    0  503  502  0.00000000000E+00  0.00000000000E+00  0.79083311133E+03  0.79083311133E+03  0.00000000000E+00 0.  1.
         21   -1    0    0  501  503 -0.00000000000E+00 -0.00000000000E+00 -0.39359724443E+02  0.39359724443E+02  0.00000000000E+00 0. -1.
          6    1    1    2  501    0 -0.34686763175E+02 -0.13715351985E+02  0.40471415478E+03  0.44132621664E+03  0.17200000000E+03 0.  1.
         -6    1    1    2    0  502  0.34686763175E+02  0.13715351985E+02  0.34675923211E+03  0.38886661913E+03  0.17200000000E+03 0. -1.
<mgrwt>
<rscale>  2 0.17599796E+03</rscale>
<asrwt>0</asrwt>
<pdfrwt beam="1">  1       21 0.19770823E+00 0.17599796E+03</pdfrwt>
<pdfrwt beam="2">  1       21 0.98399337E-02 0.17599796E+03</pdfrwt>
<totfact> 0.11761325E+04</totfact>
</mgrwt>
</event>
<event>
 4    1  0.1110581E+000  0.2204381E+03  0.7546771E-02  0.1133557E+00
         21   -1    0    0  503  502  0.00000000000E+00  0.00000000000E+00  0.62705434449E+03  0.62705434449E+03  0.00000000000E+00 0. -1.
         21   -1    0    0  501  503 -0.00000000000E+00 -0.00000000000E+00 -0.96870106364E+02  0.96870106364E+02  0.00000000000E+00 0. -1.
          6    1    1    2  501    0  0.11214708434E+03 -0.80199615858E+02  0.10320896392E+03  0.24340303438E+03  0.17200000000E+03 0. -1.
         -6    1    1    2    0  502 -0.11214708434E+03  0.80199615858E+02  0.42697527421E+03  0.48052141648E+03  0.17200000000E+03 0. -1.
<mgrwt>
<rscale>  2 0.22043808E+03</rscale>
<asrwt>0</asrwt>
<pdfrwt beam="1">  1       21 0.15676357E+00 0.22043808E+03</pdfrwt>
<pdfrwt beam="2">  1       21 0.24217528E-01 0.22043808E+03</pdfrwt>
<totfact> 0.41806967E+03</totfact>
</mgrwt>
</event>
<event>
 4    1  0.1110581E+000  0.1812405E+03  0.7546771E-02  0.1166608E+00
         21   -1    0    0  501  502  0.00000000000E+00  0.00000000000E+00  0.99334832797E+02  0.99334832797E+02  0.00000000000E+00 0.  1.
         21   -1    0    0  502  503 -0.00000000000E+00 -0.00000000000E+00 -0.35700026109E+03  0.35700026109E+03  0.00000000000E+00 0.  1.
          6    1    1    2  501    0 -0.56603435135E+02 -0.77570410719E+01 -0.19078512634E+03  0.26314840867E+03  0.17200000000E+03 0.  1.
         -6    1    1    2    0  503  0.56603435135E+02  0.77570410719E+01 -0.66880301959E+02  0.19318668522E+03  0.17200000000E+03 0.  1.
<mgrwt>
<rscale>  2 0.18124050E+03</rscale>
<asrwt>0</asrwt>
<pdfrwt beam="1">  1       21 0.24833708E-01 0.18124050E+03</pdfrwt>
<pdfrwt beam="2">  1       21 0.89250064E-01 0.18124050E+03</pdfrwt>
<totfact> 0.16551315E+04</totfact>
</mgrwt>
</event>
<event>
 4    1  0.1110581E+000  0.2215259E+03  0.7546771E-02  0.1132751E+00
         21   -1    0    0  503  502  0.00000000000E+00  0.00000000000E+00  0.21812987806E+03  0.21812987806E+03  0.00000000000E+00 0.  1.
         21   -1    0    0  501  503 -0.00000000000E+00 -0.00000000000E+00 -0.31163117508E+03  0.31163117508E+03  0.00000000000E+00 0. -1.
          6    1    1    2  501    0  0.90952840794E+01 -0.13930904706E+03 -0.18642920464E+03  0.28953338862E+03  0.17200000000E+03 0. -1.
         -6    1    1    2    0  502 -0.90952840794E+01  0.13930904706E+03  0.92927907622E+02  0.24022766452E+03  0.17200000000E+03 0.  1.
<mgrwt>
<rscale>  2 0.22152592E+03</rscale>
<asrwt>0</asrwt>
<pdfrwt beam="1">  1       21 0.54532470E-01 0.22152592E+03</pdfrwt>
<pdfrwt beam="2">  1       21 0.77907793E-01 0.22152592E+03</pdfrwt>
<totfact> 0.45359652E+03</totfact>
</mgrwt>
</event>
<event>
 4    1  0.1110581E+000  0.1726183E+03  0.7546771E-02  0.1175145E+00
         21   -1    0    0  503  502  0.00000000000E+00  0.00000000000E+00  0.25933027242E+03  0.25933027242E+03  0.00000000000E+00 0.  1.
         21   -1    0    0  501  503 -0.00000000000E+00 -0.00000000000E+00 -0.15112785457E+03  0.15112785457E+03  0.00000000000E+00 0.  1.
          6    1    1    2  501    0 -0.97268886131E+01  0.10883878504E+02 -0.46380585916E+02  0.17874067786E+03  0.17200000000E+03 0.  1.
         -6    1    1    2    0  502  0.97268886131E+01 -0.10883878504E+02  0.15458300377E+03  0.23171744912E+03  0.17200000000E+03 0.  1.
<mgrwt>
<rscale>  2 0.17261828E+03</rscale>
<asrwt>0</asrwt>
<pdfrwt beam="1">  1       21 0.64832568E-01 0.17261828E+03</pdfrwt>
<pdfrwt beam="2">  1       21 0.37781964E-01 0.17261828E+03</pdfrwt>
<totfact> 0.15001682E+04</totfact>
</mgrwt>
</event>
<event>
 4    1  0.1110581E+000  0.1943630E+03  0.7546771E-02  0.1154584E+00
         21   -1    0    0  503  502  0.00000000000E+00  0.00000000000E+00  0.77922347621E+02  0.77922347621E+02  0.00000000000E+00 0. -1.
         21   -1    0    0  501  503 -0.00000000000E+00 -0.00000000000E+00 -0.48846183214E+03  0.48846183214E+03  0.00000000000E+00 0.  1.
          6    1    1    2  501    0 -0.39838919717E+02 -0.81276342320E+02 -0.18075990045E+03  0.26542630795E+03  0.17200000000E+03 0.  1.
         -6    1    1    2    0  502  0.39838919717E+02  0.81276342320E+02 -0.22977958407E+03  0.30095787180E+03  0.17200000000E+03 0. -1.
<mgrwt>
<rscale>  2 0.19436302E+03</rscale>
<asrwt>0</asrwt>
<pdfrwt beam="1">  1       21 0.19480587E-01 0.19436302E+03</pdfrwt>
<pdfrwt beam="2">  1       21 0.12211546E+00 0.19436302E+03</pdfrwt>
<totfact> 0.12245157E+04</totfact>
</mgrwt>
</event>
<event>
 4    1  0.1110581E+000  0.1795487E+03  0.7546771E-02  0.1168241E+00
         21   -1    0    0  501  502  0.00000000000E+00  0.00000000000E+00  0.50358806790E+03  0.50358806790E+03  0.00000000000E+00 0.  1.
         21   -1    0    0  502  503 -0.00000000000E+00 -0.00000000000E+00 -0.83766221944E+02  0.83766221944E+02  0.00000000000E+00 0.  1.
          6    1    1    2  501    0  0.39615625392E+02 -0.32929063847E+02  0.35251143346E+03  0.39560337681E+03  0.17200000000E+03 0.  1.
         -6    1    1    2    0  503 -0.39615625392E+02  0.32929063847E+02  0.67310412501E+02  0.19175091304E+03  0.17200000000E+03 0.  1.
<mgrwt>
<rscale>  2 0.17954866E+03</rscale>
<asrwt>0</asrwt>
<pdfrwt beam="1">  1       21 0.12589701E+00 0.17954866E+03</pdfrwt>
<pdfrwt beam="2">  1       21 0.20941557E-01 0.17954866E+03</pdfrwt>
<totfact> 0.10019589E+04</totfact>
</mgrwt>
</event>
<event>
 4    1  0.1110581E+000  0.1803038E+03  0.7546771E-02  0.1167509E+00
         21   -1    0    0  501  502  0.00000000000E+00  0.00000000000E+00  0.25717100170E+03  0.25717100170E+03  0.00000000000E+00 0. -1.
         21   -1    0    0  502  503 -0.00000000000E+00 -0.00000000000E+00 -0.12747365173E+03  0.12747365173E+03  0.00000000000E+00 0. -1.
          6    1    1    2  501    0  0.13926623983E+02 -0.52263761636E+02  0.82401600891E+02  0.19824095305E+03  0.17200000000E+03 0. -1.
         -6    1    1    2    0  503 -0.13926623983E+02  0.52263761636E+02  0.47295749077E+02  0.18640370038E+03  0.17200000000E+03 0. -1.
<mgrwt>
<rscale>  2 0.18030378E+03</rscale>
<asrwt>0</asrwt>
<pdfrwt beam="1">  1       21 0.64292750E-01 0.18030378E+03</pdfrwt>
<pdfrwt beam="2">  1       21 0.31868413E-01 0.18030378E+03</pdfrwt>
<totfact> 0.21288074E+04</totfact>
</mgrwt>
</event>
<event>
 4    1  0.1110581E+000  0.1914349E+03  0.7546771E-02  0.1157173E+00
         21   -1    0    0  501  502  0.00000000000E+00  0.00000000000E+00  0.23726172265E+03  0.23726172265E+03  0.00000000000E+00 0. -1.
         21   -1    0    0  502  503 -0.00000000000E+00 -0.00000000000E+00 -0.15449952440E+03  0.15449952440E+03  0.00000000000E+00 0. -1.
          6    1    1    2  501    0  0.82006690291E+02  0.18391047843E+02  0.44533714779E+02  0.19654663478E+03  0.17200000000E+03 0. -1.
         -6    1    1    2    0  503 -0.82006690291E+02 -0.18391047843E+02  0.38228483471E+02  0.19521461226E+03  0.17200000000E+03 0. -1.
<mgrwt>
<rscale>  2 0.19143492E+03</rscale>
<asrwt>0</asrwt>
<pdfrwt beam="1">  1       21 0.59315430E-01 0.19143492E+03</pdfrwt>
<pdfrwt beam="2">  1       21 0.38624881E-01 0.19143492E+03</pdfrwt>
<totfact> 0.17179053E+04</totfact>
</mgrwt>
</event>
<event>
 4    1  0.1110581E+000  0.2033855E+03  0.7546771E-02  0.1146914E+00
         21   -1    0    0  503  502  0.00000000000E+00  0.00000000000E+00  0.31597299046E+02  0.31597299046E+02  0.00000000000E+00 0. -1.
         21   -1    0    0  501  503 -0.00000000000E+00 -0.00000000000E+00 -0.13174831519E+04  0.13174831519E+04  0.00000000000E+00 0.  1.
          6    1    1    2  501    0 -0.51956616825E+02 -0.95300424862E+02 -0.58930240571E+03  0.62341237266E+03  0.17200000000E+03 0. -1.
         -6    1    1    2    0  502  0.51956616825E+02  0.95300424862E+02 -0.69658344719E+03  0.72566807834E+03  0.17200000000E+03 0. -1.
<mgrwt>
<rscale>  2 0.20338550E+03</rscale>
<asrwt>0</asrwt>
<pdfrwt beam="1">  1       21 0.78993255E-02 0.20338550E+03</pdfrwt>
<pdfrwt beam="2">  1       21 0.32937076E+00 0.20338550E+03</pdfrwt>
<totfact> 0.27949626E+03</totfact>
</mgrwt>
</event>
<event>
 4    1  0.1110581E+000  0.1885989E+03  0.7546771E-02  0.1159731E+00
         21   -1    0    0  501  502  0.00000000000E+00  0.00000000000E+00  0.40680768690E+02  0.40680768690E+02  0.00000000000E+00 0.  1.
         21   -1    0    0  502  503 -0.00000000000E+00 -0.00000000000E+00 -0.10907348291E+04  0.10907348291E+04  0.00000000000E+00 0.  1.
          6    1    1    2  501    0  0.34869178187E+02 -0.69063041289E+02 -0.27306345545E+03  0.33186324587E+03  0.17200000000E+03 0.  1.
         -6    1    1    2    0  503 -0.34869178187E+02  0.69063041289E+02 -0.77699060498E+03  0.79955235193E+03  0.17200000000E+03 0.  1.
<mgrwt>
<rscale>  2 0.18859895E+03</rscale>
<asrwt>0</asrwt>
<pdfrwt beam="1">  1       21 0.10170192E-01 0.18859895E+03</pdfrwt>
<pdfrwt beam="2">  1       21 0.27268372E+00 0.18859895E+03</pdfrwt>
<totfact> 0.38808680E+03</totfact>
</mgrwt>
</event>
<event>
 4    1  0.1110581E+000  0.2002944E+03  0.7546771E-02  0.1149491E+00
         21   -1    0    0  503  502  0.00000000000E+00  0.00000000000E+00  0.42683198327E+03  0.42683198327E+03  0.00000000000E+00 0. -1.
         21   -1    0    0  501  503 -0.00000000000E+00 -0.00000000000E+00 -0.12019496031E+03  0.12019496031E+03  0.00000000000E+00 0.  1.
          6    1    1    2  501    0  0.96867169408E+02  0.33920492438E+02  0.25607280982E+02  0.20192469179E+03  0.17200000000E+03 0. -1.
         -6    1    1    2    0  502 -0.96867169408E+02 -0.33920492438E+02  0.28102974197E+03  0.34510225179E+03  0.17200000000E+03 0.  1.
<mgrwt>
<rscale>  2 0.20029440E+03</rscale>
<asrwt>0</asrwt>
<pdfrwt beam="1">  1       21 0.10670799E+00 0.20029440E+03</pdfrwt>
<pdfrwt beam="2">  1       21 0.30048741E-01 0.20029440E+03</pdfrwt>
<totfact> 0.74230403E+03</totfact>
</mgrwt>
</event>
<event>
 4    1  0.1110581E+000  0.2112483E+03  0.7546771E-02  0.1140581E+00
         21   -1    0    0  501  502  0.00000000000E+00  0.00000000000E+00  0.20371545632E+03  0.20371545632E+03  0.00000000000E+00 0. -1.
         21   -1    0    0  502  503 -0.00000000000E+00 -0.00000000000E+00 -0.16547094298E+04  0.16547094298E+04  0.00000000000E+00 0. -1.
          6    1    1    2  501    0  0.11922893091E+03 -0.28745380939E+02  0.14002559144E+03  0.25344230339E+03  0.17200000000E+03 0. -1.
         -6    1    1    2    0  503 -0.11922893091E+03  0.28745380939E+02 -0.15910195649E+04  0.16049825827E+04  0.17200000000E+03 0. -1.
<mgrwt>
<rscale>  2 0.21124828E+03</rscale>
<asrwt>0</asrwt>
<pdfrwt beam="1">  1       21 0.50928864E-01 0.21124828E+03</pdfrwt>
<pdfrwt beam="2">  1       21 0.41367735E+00 0.21124828E+03</pdfrwt>
<totfact> 0.25299387E+01</totfact>
</mgrwt>
</event>
<event>
 4    1  0.1110581E+000  0.1753229E+03  0.7546771E-02  0.1172408E+00
         21   -1    0    0  501  502  0.00000000000E+00  0.00000000000E+00  0.15741314200E+03  0.15741314200E+03  0.00000000000E+00 0.  1.
         21   -1    0    0  502  503 -0.00000000000E+00 -0.00000000000E+00 -0.29906347756E+03  0.29906347756E+03  0.00000000000E+00 0.  1.
          6    1    1    2  501    0 -0.31516787122E+02  0.12681823551E+02 -0.20528449189E+03  0.26996269951E+03  0.17200000000E+03 0.  1.
         -6    1    1    2    0  503  0.31516787122E+02 -0.12681823551E+02  0.63634156324E+02  0.18651392004E+03  0.17200000000E+03 0.  1.
<mgrwt>
<rscale>  2 0.17532295E+03</rscale>
<asrwt>0</asrwt>
<pdfrwt beam="1">  1       21 0.39353286E-01 0.17532295E+03</pdfrwt>
<pdfrwt beam="2">  1       21 0.74765869E-01 0.17532295E+03</pdfrwt>
<totfact> 0.10088796E+04</totfact>
</mgrwt>
</event>
<event>
 4    1  0.1110581E+000  0.2353005E+03  0.7546771E-02  0.1122964E+00
         21   -1    0    0  501  502  0.00000000000E+00  0.00000000000E+00  0.92289516776E+02  0.92289516776E+02  0.00000000000E+00 0. -1.
         21   -1    0    0  502  503 -0.00000000000E+00 -0.00000000000E+00 -0.65841484581E+03  0.65841484581E+03  0.00000000000E+00 0.  1.
          6    1    1    2  501    0 -0.13342520966E+03 -0.89330992283E+02 -0.17118368249E+03  0.29098138412E+03  0.17200000000E+03 0. -1.
         -6    1    1    2    0  503  0.13342520966E+03  0.89330992283E+02 -0.39494164654E+03  0.45972297846E+03  0.17200000000E+03 0.  1.
<mgrwt>
<rscale>  2 0.23530047E+03</rscale>
<asrwt>0</asrwt>
<pdfrwt beam="1">  1       21 0.23072379E-01 0.23530047E+03</pdfrwt>
<pdfrwt beam="2">  1       21 0.16460371E+00 0.23530047E+03</pdfrwt>
<totfact> 0.39692412E+03</totfact>
</mgrwt>
</event>
<event>
 4    1  0.1110581E+000  0.2235682E+03  0.7546771E-02  0.1131250E+00
         21   -1    0    0  503  502  0.00000000000E+00  0.00000000000E+00  0.11462005802E+03  0.11462005802E+03  0.00000000000E+00 0. -1.
         21   -1    0    0  501  503 -0.00000000000E+00 -0.00000000000E+00 -0.46928425160E+03  0.46928425160E+03  0.00000000000E+00 0.  1.
          6    1    1    2  501    0  0.10762015962E+03 -0.93897016755E+02 -0.25499869175E+03  0.33912693982E+03  0.17200000000E+03 0.  1.
         -6    1    1    2    0  502 -0.10762015962E+03  0.93897016755E+02 -0.99665501830E+02  0.24477736980E+03  0.17200000000E+03 0. -1.
<mgrwt>
<rscale>  2 0.22356822E+03</rscale>
<asrwt>0</asrwt>
<pdfrwt beam="1">  1       21 0.28655015E-01 0.22356822E+03</pdfrwt>
<pdfrwt beam="2">  1       21 0.11732106E+00 0.22356822E+03</pdfrwt>
<totfact> 0.63569781E+03</totfact>
</mgrwt>
</event>
<event>
 4    1  0.1110581E+000  0.2123770E+03  0.7546771E-02  0.1139697E+00
         21   -1    0    0  503  502  0.00000000000E+00  0.00000000000E+00  0.37625336956E+03  0.37625336956E+03  0.00000000000E+00 0.  1.
         21   -1    0    0  501  503 -0.00000000000E+00 -0.00000000000E+00 -0.17923140068E+03  0.17923140068E+03  0.00000000000E+00 0.  1.
          6    1    1    2  501    0  0.58983281106E+02 -0.10973122460E+03 -0.61320778973E+02  0.22105249837E+03  0.17200000000E+03 0.  1.
         -6    1    1    2    0  502 -0.58983281106E+02  0.10973122460E+03  0.25834274785E+03  0.33443227187E+03  0.17200000000E+03 0.  1.
<mgrwt>
<rscale>  2 0.21237695E+03</rscale>
<asrwt>0</asrwt>
<pdfrwt beam="1">  1       21 0.94063341E-01 0.21237695E+03</pdfrwt>
<pdfrwt beam="2">  1       21 0.44807851E-01 0.21237695E+03</pdfrwt>
<totfact> 0.44624107E+03</totfact>
</mgrwt>
</event>
<event>
 4    1  0.1110581E+000  0.2193164E+03  0.7546771E-02  0.1134394E+00
         21   -1    0    0  501  502  0.00000000000E+00  0.00000000000E+00  0.23847058608E+03  0.23847058608E+03  0.00000000000E+00 0.  1.
         21   -1    0    0  502  503 -0.00000000000E+00 -0.00000000000E+00 -0.29694270489E+03  0.29694270489E+03  0.00000000000E+00 0.  1.
          6    1    1    2  501    0  0.13579219393E+03  0.87263072442E+01  0.12237721847E+03  0.25114906325E+03  0.17200000000E+03 0.  1.
         -6    1    1    2    0  503 -0.13579219393E+03 -0.87263072442E+01 -0.18084933728E+03  0.28426422773E+03  0.17200000000E+03 0.  1.
<mgrwt>
<rscale>  2 0.21931637E+03</rscale>
<asrwt>0</asrwt>
<pdfrwt beam="1">  1       21 0.59617647E-01 0.21931637E+03</pdfrwt>
<pdfrwt beam="2">  1       21 0.74235676E-01 0.21931637E+03</pdfrwt>
<totfact> 0.41857551E+03</totfact>
</mgrwt>
</event>
<event>
 4    1  0.1110581E+000  0.1911709E+03  0.7546771E-02  0.1157409E+00
         21   -1    0    0  501  502  0.00000000000E+00  0.00000000000E+00  0.14094684870E+03  0.14094684870E+03  0.00000000000E+00 0.  1.
         21   -1    0    0  502  503 -0.00000000000E+00 -0.00000000000E+00 -0.26173601763E+03  0.26173601763E+03  0.00000000000E+00 0.  1.
          6    1    1    2  501    0  0.20913033879E+02 -0.80777185760E+02 -0.79852888659E+02  0.20717816621E+03  0.17200000000E+03 0.  1.
         -6    1    1    2    0  503 -0.20913033879E+02  0.80777185760E+02 -0.40936280273E+02  0.19550470012E+03  0.17200000000E+03 0.  1.
<mgrwt>
<rscale>  2 0.19117089E+03</rscale>
<asrwt>0</asrwt>
<pdfrwt beam="1">  1       21 0.35236713E-01 0.19117089E+03</pdfrwt>
<pdfrwt beam="2">  1       21 0.65434004E-01 0.19117089E+03</pdfrwt>
<totfact> 0.16695706E+04</totfact>
</mgrwt>
</event>
<event>
 4    1  0.1110581E+000  0.1805046E+03  0.7546771E-02  0.1167316E+00
         21   -1    0    0  503  502  0.00000000000E+00  0.00000000000E+00  0.92086496932E+02  0.92086496932E+02  0.00000000000E+00 0. -1.
         21   -1    0    0  501  503 -0.00000000000E+00 -0.00000000000E+00 -0.17861634881E+04  0.17861634881E+04  0.00000000000E+00 0. -1.
          6    1    1    2  501    0 -0.47250323584E+02  0.27664651320E+02 -0.16880202593E+04  0.16976437559E+04  0.17200000000E+03 0. -1.
         -6    1    1    2    0  502  0.47250323584E+02 -0.27664651320E+02 -0.60567318617E+01  0.18060622916E+03  0.17200000000E+03 0. -1.
<mgrwt>
<rscale>  2 0.18050464E+03</rscale>
<asrwt>0</asrwt>
<pdfrwt beam="1">  1       21 0.23021623E-01 0.18050464E+03</pdfrwt>
<pdfrwt beam="2">  1       21 0.44654089E+00 0.18050464E+03</pdfrwt>
<totfact> 0.79610868E+01</totfact>
</mgrwt>
</event>
<event>
 4    1  0.1110581E+000  0.2088762E+03  0.7546771E-02  0.1142459E+00
         21   -1    0    0  501  502  0.00000000000E+00  0.00000000000E+00  0.81907458398E+02  0.81907458398E+02  0.00000000000E+00 0. -1.
         21   -1    0    0  502  503 -0.00000000000E+00 -0.00000000000E+00 -0.82884565330E+03  0.82884565330E+03  0.00000000000E+00 0.  1.
          6    1    1    2  501    0  0.93761431208E+02  0.72484770842E+02 -0.10125408348E+03  0.23212418532E+03  0.17200000000E+03 0. -1.
         -6    1    1    2    0  503 -0.93761431208E+02 -0.72484770842E+02 -0.64568411141E+03  0.67862892638E+03  0.17200000000E+03 0.  1.
<mgrwt>
<rscale>  2 0.20887615E+03</rscale>
<asrwt>0</asrwt>
<pdfrwt beam="1">  1       21 0.20476865E-01 0.20887615E+03</pdfrwt>
<pdfrwt beam="2">  1       21 0.20721141E+00 0.20887615E+03</pdfrwt>
<totfact> 0.26258015E+03</totfact>
</mgrwt>
</event>
<event>
 4    1  0.1110581E+000  0.1971658E+03  0.7546771E-02  0.1152152E+00
         21   -1    0    0  503  502  0.00000000000E+00  0.00000000000E+00  0.38604140196E+03  0.38604140196E+03  0.00000000000E+00 0. -1.
         21   -1    0    0  501  503 -0.00000000000E+00 -0.00000000000E+00 -0.20164727539E+03  0.20164727539E+03  0.00000000000E+00 0. -1.
          6    1    1    2  501    0  0.77777635977E+02  0.56929694952E+02  0.30010379519E+03  0.35907748288E+03  0.17200000000E+03 0. -1.
         -6    1    1    2    0  502 -0.77777635977E+02 -0.56929694952E+02 -0.11570966861E+03  0.22861119447E+03  0.17200000000E+03 0. -1.
<mgrwt>
<rscale>  2 0.19716580E+03</rscale>
<asrwt>0</asrwt>
<pdfrwt beam="1">  1       21 0.96510349E-01 0.19716580E+03</pdfrwt>
<pdfrwt beam="2">  1       21 0.50411819E-01 0.19716580E+03</pdfrwt>
<totfact> 0.33312087E+03</totfact>
</mgrwt>
</event>
<event>
 4    1  0.1110581E+000  0.2656279E+03  0.7546771E-02  0.1103808E+00
         21   -1    0    0  501  502  0.00000000000E+00  0.00000000000E+00  0.30132630400E+03  0.30132630400E+03  0.00000000000E+00 0. -1.
         21   -1    0    0  502  503 -0.00000000000E+00 -0.00000000000E+00 -0.30798431483E+03  0.30798431483E+03  0.00000000000E+00 0.  1.
          6    1    1    2  501    0 -0.15276324958E+03 -0.13280643206E+03 -0.15248755510E+03  0.30628518293E+03  0.17200000000E+03 0.  1.
         -6    1    1    2    0  503  0.15276324958E+03  0.13280643206E+03  0.14582954427E+03  0.30302543590E+03  0.17200000000E+03 0. -1.
<mgrwt>
<rscale>  2 0.26562786E+03</rscale>
<asrwt>0</asrwt>
<pdfrwt beam="1">  1       21 0.75331576E-01 0.26562786E+03</pdfrwt>
<pdfrwt beam="2">  1       21 0.76996079E-01 0.26562786E+03</pdfrwt>
<totfact> 0.22311327E+03</totfact>
</mgrwt>
</event>
<event>
 4    1  0.1110581E+000  0.2244559E+03  0.7546771E-02  0.1130604E+00
         21   -1    0    0  501  502  0.00000000000E+00  0.00000000000E+00  0.25203748817E+03  0.25203748817E+03  0.00000000000E+00 0.  1.
         21   -1    0    0  502  503 -0.00000000000E+00 -0.00000000000E+00 -0.21236707749E+03  0.21236707749E+03  0.00000000000E+00 0.  1.
          6    1    1    2  501    0  0.10890224906E+03 -0.94534337365E+02 -0.36442093464E+02  0.22739495810E+03  0.17200000000E+03 0.  1.
         -6    1    1    2    0  503 -0.10890224906E+03  0.94534337365E+02  0.76112504139E+02  0.23700960757E+03  0.17200000000E+03 0.  1.
<mgrwt>
<rscale>  2 0.22445588E+03</rscale>
<asrwt>0</asrwt>
<pdfrwt beam="1">  1       21 0.63009372E-01 0.22445588E+03</pdfrwt>
<pdfrwt beam="2">  1       21 0.53091769E-01 0.22445588E+03</pdfrwt>
<totfact> 0.76649286E+03</totfact>
</mgrwt>
</event>
<event>
 4    1  0.1110581E+000  0.4621935E+03  0.7546771E-02  0.1024147E+00
         21   -1    0    0  503  502  0.00000000000E+00  0.00000000000E+00  0.64857905657E+03  0.64857905657E+03  0.00000000000E+00 0.  1.
         21   -1    0    0  501  503 -0.00000000000E+00 -0.00000000000E+00 -0.35987585575E+03  0.35987585575E+03  0.00000000000E+00 0. -1.
          6    1    1    2  501    0  0.39329672002E+03 -0.17133737496E+03 -0.24525064442E+01  0.46219997925E+03  0.17200000000E+03 0. -1.
         -6    1    1    2    0  502 -0.39329672002E+03  0.17133737496E+03  0.29115570726E+03  0.54625493307E+03  0.17200000000E+03 0.  1.
<mgrwt>
<rscale>  2 0.46219347E+03</rscale>
<asrwt>0</asrwt>
<pdfrwt beam="1">  1       21 0.16214476E+00 0.46219347E+03</pdfrwt>
<pdfrwt beam="2">  1       21 0.89968965E-01 0.46219347E+03</pdfrwt>
<totfact> 0.20690927E+02</totfact>
</mgrwt>
</event>
<event>
 4    1  0.1110581E+000  0.1955656E+03  0.7546771E-02  0.1153535E+00
         21   -1    0    0  503  502  0.00000000000E+00  0.00000000000E+00  0.83202092322E+02  0.83202092322E+02  0.00000000000E+00 0.  1.
         21   -1    0    0  501  503 -0.00000000000E+00 -0.00000000000E+00 -0.53984322027E+03  0.53984322027E+03  0.00000000000E+00 0. -1.
          6    1    1    2  501    0 -0.47883594249E+02  0.79806400404E+02 -0.10827181535E+03  0.22353676687E+03  0.17200000000E+03 0.  1.
         -6    1    1    2    0  502  0.47883594249E+02 -0.79806400404E+02 -0.34836931260E+03  0.39950854572E+03  0.17200000000E+03 0. -1.
<mgrwt>
<rscale>  2 0.19556559E+03</rscale>
<asrwt>0</asrwt>
<pdfrwt beam="1">  1       21 0.20800523E-01 0.19556559E+03</pdfrwt>
<pdfrwt beam="2">  1       21 0.13496080E+00 0.19556559E+03</pdfrwt>
<totfact> 0.84135272E+03</totfact>
</mgrwt>
</event>
<event>
 4    1  0.1110581E+000  0.1970760E+03  0.7546771E-02  0.1152230E+00
         21   -1    0    0  503  502  0.00000000000E+00  0.00000000000E+00  0.18980098981E+03  0.18980098981E+03  0.00000000000E+00 0. -1.
         21   -1    0    0  501  503 -0.00000000000E+00 -0.00000000000E+00 -0.20470747250E+03  0.20470747250E+03  0.00000000000E+00 0.  1.
          6    1    1    2  501    0 -0.73980711297E+01 -0.95917848167E+02 -0.36143756015E+01  0.19710917981E+03  0.17200000000E+03 0. -1.
         -6    1    1    2    0  502  0.73980711297E+01  0.95917848167E+02 -0.11292107089E+02  0.19739928251E+03  0.17200000000E+03 0.  1.
<mgrwt>
<rscale>  2 0.19707604E+03</rscale>
<asrwt>0</asrwt>
<pdfrwt beam="1">  1       21 0.47450248E-01 0.19707604E+03</pdfrwt>
<pdfrwt beam="2">  1       21 0.51176868E-01 0.19707604E+03</pdfrwt>
<totfact> 0.15376023E+04</totfact>
</mgrwt>
</event>
<event>
 4    1  0.1110581E+000  0.1857027E+03  0.7546771E-02  0.1162395E+00
         21   -1    0    0  503  502  0.00000000000E+00  0.00000000000E+00  0.88383699139E+02  0.88383699139E+02  0.00000000000E+00 0.  1.
         21   -1    0    0  501  503 -0.00000000000E+00 -0.00000000000E+00 -0.41081041103E+03  0.41081041103E+03  0.00000000000E+00 0.  1.
          6    1    1    2  501    0 -0.41097883782E+02 -0.56678388323E+02 -0.21714810893E+03  0.28572500235E+03  0.17200000000E+03 0.  1.
         -6    1    1    2    0  502  0.41097883782E+02  0.56678388323E+02 -0.10527860297E+03  0.21346910783E+03  0.17200000000E+03 0.  1.
<mgrwt>
<rscale>  2 0.18570265E+03</rscale>
<asrwt>0</asrwt>
<pdfrwt beam="1">  1       21 0.22095925E-01 0.18570265E+03</pdfrwt>
<pdfrwt beam="2">  1       21 0.10270260E+00 0.18570265E+03</pdfrwt>
<totfact> 0.14816765E+04</totfact>
</mgrwt>
</event>
<event>
 4    1  0.1110581E+000  0.2250141E+03  0.7546771E-02  0.1130199E+00
         21   -1    0    0  503  502  0.00000000000E+00  0.00000000000E+00  0.28423404793E+03  0.28423404793E+03  0.00000000000E+00 0.  1.
         21   -1    0    0  501  503 -0.00000000000E+00 -0.00000000000E+00 -0.17872477057E+03  0.17872477057E+03  0.00000000000E+00 0. -1.
          6    1    1    2  501    0  0.75437014344E+02  0.12392182888E+03  0.66078399839E+02  0.23451592213E+03  0.17200000000E+03 0.  1.
         -6    1    1    2    0  502 -0.75437014344E+02 -0.12392182888E+03  0.39430877521E+02  0.22844289638E+03  0.17200000000E+03 0. -1.
<mgrwt>
<rscale>  2 0.22501414E+03</rscale>
<asrwt>0</asrwt>
<pdfrwt beam="1">  1       21 0.71058512E-01 0.22501414E+03</pdfrwt>
<pdfrwt beam="2">  1       21 0.44681193E-01 0.22501414E+03</pdfrwt>
<totfact> 0.84309210E+03</totfact>
</mgrwt>
</event>
<event>
 4    1  0.1110581E+000  0.1741846E+03  0.7546771E-02  0.1173553E+00
         21   -1    0    0  503  502  0.00000000000E+00  0.00000000000E+00  0.23686901899E+02  0.23686901899E+02  0.00000000000E+00 0. -1.
         21   -1    0    0  501  503 -0.00000000000E+00 -0.00000000000E+00 -0.13495604894E+04  0.13495604894E+04  0.00000000000E+00 0. -1.
          6    1    1    2  501    0 -0.18648793531E+02 -0.20211137012E+02 -0.50805009724E+03  0.53708022572E+03  0.17200000000E+03 0. -1.
         -6    1    1    2    0  502  0.18648793531E+02  0.20211137012E+02 -0.81782349027E+03  0.83616716558E+03  0.17200000000E+03 0. -1.
<mgrwt>
<rscale>  2 0.17418458E+03</rscale>
<asrwt>0</asrwt>
<pdfrwt beam="1">  1       21 0.59217263E-02 0.17418458E+03</pdfrwt>
<pdfrwt beam="2">  1       21 0.33739007E+00 0.17418458E+03</pdfrwt>
<totfact> 0.42858581E+03</totfact>
</mgrwt>
</event>
<event>
 4    1  0.1110581E+000  0.1820358E+03  0.7546771E-02  0.1165847E+00
         21   -1    0    0  501  502  0.00000000000E+00  0.00000000000E+00  0.13559122278E+03  0.13559122278E+03  0.00000000000E+00 0. -1.
         21   -1    0    0  502  503 -0.00000000000E+00 -0.00000000000E+00 -0.25571189424E+03  0.25571189424E+03  0.00000000000E+00 0. -1.
          6    1    1    2  501    0 -0.57662070405E+02 -0.15103967055E+02 -0.10123032900E+03  0.20828975898E+03  0.17200000000E+03 0. -1.
         -6    1    1    2    0  503  0.57662070405E+02  0.15103967055E+02 -0.18890342465E+02  0.18301335804E+03  0.17200000000E+03 0. -1.
<mgrwt>
<rscale>  2 0.18203583E+03</rscale>
<asrwt>0</asrwt>
<pdfrwt beam="1">  1       21 0.33897806E-01 0.18203583E+03</pdfrwt>
<pdfrwt beam="2">  1       21 0.63927973E-01 0.18203583E+03</pdfrwt>
<totfact> 0.19067905E+04</totfact>
</mgrwt>
</event>
<event>
 4    1  0.1110581E+000  0.1875709E+03  0.7546771E-02  0.1160671E+00
         21   -1    0    0  503  502  0.00000000000E+00  0.00000000000E+00  0.77005355111E+03  0.77005355111E+03  0.00000000000E+00 0. -1.
         21   -1    0    0  501  503 -0.00000000000E+00 -0.00000000000E+00 -0.56996623338E+02  0.56996623338E+02  0.00000000000E+00 0.  1.
          6    1    1    2  501    0 -0.68013737561E+02  0.31192313006E+02  0.17233820810E+03  0.25472197954E+03  0.17200000000E+03 0. -1.
         -6    1    1    2    0  502  0.68013737561E+02 -0.31192313006E+02  0.54071871967E+03  0.57232819491E+03  0.17200000000E+03 0. -1.
<mgrwt>
<rscale>  2 0.18757086E+03</rscale>
<asrwt>0</asrwt>
<pdfrwt beam="1">  1       21 0.19251335E+00 0.18757086E+03</pdfrwt>
<pdfrwt beam="2">  1       21 0.14249158E-01 0.18757086E+03</pdfrwt>
<totfact> 0.64956362E+03</totfact>
</mgrwt>
</event>
<event>
 4    1  0.1110581E+000  0.2066083E+03  0.7546771E-02  0.1144280E+00
         21   -1    0    0  503  502  0.00000000000E+00  0.00000000000E+00  0.17631386987E+04  0.17631386987E+04  0.00000000000E+00 0. -1.
         21   -1    0    0  501  503 -0.00000000000E+00 -0.00000000000E+00 -0.10469405468E+03  0.10469405468E+03  0.00000000000E+00 0.  1.
          6    1    1    2  501    0  0.16071543814E+01  0.11445696242E+03  0.10380952792E+02  0.20686890383E+03  0.17200000000E+03 0.  1.
         -6    1    1    2    0  502 -0.16071543814E+01 -0.11445696242E+03  0.16480636913E+04  0.16609638496E+04  0.17200000000E+03 0. -1.
<mgrwt>
<rscale>  2 0.20660827E+03</rscale>
<asrwt>0</asrwt>
<pdfrwt beam="1">  1       21 0.44078458E+00 0.20660827E+03</pdfrwt>
<pdfrwt beam="2">  1       21 0.26173519E-01 0.20660827E+03</pdfrwt>
<totfact> 0.64698863E+01</totfact>
</mgrwt>
</event>
<event>
 4    1  0.1110581E+000  0.1937439E+03  0.7546771E-02  0.1155127E+00
         21   -1    0    0  501  502  0.00000000000E+00  0.00000000000E+00  0.68077105742E+03  0.68077105742E+03  0.00000000000E+00 0. -1.
         21   -1    0    0  502  503 -0.00000000000E+00 -0.00000000000E+00 -0.96416262909E+02  0.96416262909E+02  0.00000000000E+00 0.  1.
          6    1    1    2  501    0  0.28738051632E+02  0.84420415319E+02  0.54643780488E+03  0.57976801976E+03  0.17200000000E+03 0. -1.
         -6    1    1    2    0  503 -0.28738051632E+02 -0.84420415319E+02  0.37916989631E+02  0.19741930057E+03  0.17200000000E+03 0.  1.
<mgrwt>
<rscale>  2 0.19374386E+03</rscale>
<asrwt>0</asrwt>
<pdfrwt beam="1">  1       21 0.17019275E+00 0.19374386E+03</pdfrwt>
<pdfrwt beam="2">  1       21 0.24104068E-01 0.19374386E+03</pdfrwt>
<totfact> 0.34506654E+03</totfact>
</mgrwt>
</event>
<event>
 4    1  0.1110581E+000  0.2267820E+03  0.7546771E-02  0.1128925E+00
         21   -1    0    0  503  502  0.00000000000E+00  0.00000000000E+00  0.43191696266E+03  0.43191696266E+03  0.00000000000E+00 0. -1.
         21   -1    0    0  501  503 -0.00000000000E+00 -0.00000000000E+00 -0.11960681441E+03  0.11960681441E+03  0.00000000000E+00 0. -1.
          6    1    1    2  501    0  0.14776355975E+03  0.34681629658E+01  0.13775040952E+03  0.26533991985E+03  0.17200000000E+03 0. -1.
         -6    1    1    2    0  502 -0.14776355975E+03 -0.34681629658E+01  0.17455973874E+03  0.28618385722E+03  0.17200000000E+03 0. -1.
<mgrwt>
<rscale>  2 0.22678205E+03</rscale>
<asrwt>0</asrwt>
<pdfrwt beam="1">  1       21 0.10797924E+00 0.22678205E+03</pdfrwt>
<pdfrwt beam="2">  1       21 0.29901705E-01 0.22678205E+03</pdfrwt>
<totfact> 0.71481051E+03</totfact>
</mgrwt>
</event>
<event>
 4    1  0.1110581E+000  0.1786497E+03  0.7546771E-02  0.1169116E+00
         21   -1    0    0  501  502  0.00000000000E+00  0.00000000000E+00  0.15058862317E+03  0.15058862317E+03  0.00000000000E+00 0.  1.
         21   -1    0    0  502  503 -0.00000000000E+00 -0.00000000000E+00 -0.24078659601E+03  0.24078659601E+03  0.00000000000E+00 0.  1.
          6    1    1    2  501    0  0.42001549986E+02 -0.23823916018E+02  0.22633441144E+02  0.18007771054E+03  0.17200000000E+03 0.  1.
         -6    1    1    2    0  503 -0.42001549986E+02  0.23823916018E+02 -0.11283141398E+03  0.21129750864E+03  0.17200000000E+03 0.  1.
<mgrwt>
<rscale>  2 0.17864968E+03</rscale>
<asrwt>0</asrwt>
<pdfrwt beam="1">  1       21 0.37647156E-01 0.17864968E+03</pdfrwt>
<pdfrwt beam="2">  1       21 0.60196649E-01 0.17864968E+03</pdfrwt>
<totfact> 0.17660554E+04</totfact>
</mgrwt>
</event>
<event>
 4    1  0.1110581E+000  0.3380526E+03  0.7546771E-02  0.1067628E+00
         21   -1    0    0  501  502  0.00000000000E+00  0.00000000000E+00  0.44213975363E+03  0.44213975363E+03  0.00000000000E+00 0.  1.
         21   -1    0    0  502  503 -0.00000000000E+00 -0.00000000000E+00 -0.26875565344E+03  0.26875565344E+03  0.00000000000E+00 0.  1.
          6    1    1    2  501    0 -0.28894509520E+03  0.34731767849E+02  0.15623083524E+03  0.37240789145E+03  0.17200000000E+03 0.  1.
         -6    1    1    2    0  503  0.28894509520E+03 -0.34731767849E+02  0.17153264952E+02  0.33848751562E+03  0.17200000000E+03 0.  1.
<mgrwt>
<rscale>  2 0.33805260E+03</rscale>
<asrwt>0</asrwt>
<pdfrwt beam="1">  1       21 0.11053494E+00 0.33805260E+03</pdfrwt>
<pdfrwt beam="2">  1       21 0.67188914E-01 0.33805260E+03</pdfrwt>
<totfact> 0.11750600E+03</totfact>
</mgrwt>
</event>
<event>
 4    1  0.1110581E+000  0.2650610E+03  0.7546771E-02  0.1104140E+00
         21   -1    0    0  503  502  0.00000000000E+00  0.00000000000E+00  0.15316254632E+03  0.15316254632E+03  0.00000000000E+00 0. -1.
         21   -1    0    0  501  503 -0.00000000000E+00 -0.00000000000E+00 -0.82260703737E+03  0.82260703737E+03  0.00000000000E+00 0. -1.
          6    1    1    2  501    0  0.72420916510E+02  0.18822471854E+03 -0.65921856577E+03  0.71051140123E+03  0.17200000000E+03 0. -1.
         -6    1    1    2    0  502 -0.72420916510E+02 -0.18822471854E+03 -0.10225925277E+02  0.26525818246E+03  0.17200000000E+03 0. -1.
<mgrwt>
<rscale>  2 0.26506100E+03</rscale>
<asrwt>0</asrwt>
<pdfrwt beam="1">  1       21 0.38290637E-01 0.26506100E+03</pdfrwt>
<pdfrwt beam="2">  1       21 0.20565176E+00 0.26506100E+03</pdfrwt>
<totfact> 0.75572730E+02</totfact>
</mgrwt>
</event>
<event>
 4    1  0.1110581E+000  0.1885740E+03  0.7546771E-02  0.1159754E+00
         21   -1    0    0  503  502  0.00000000000E+00  0.00000000000E+00  0.16012765922E+03  0.16012765922E+03  0.00000000000E+00 0.  1.
         21   -1    0    0  501  503 -0.00000000000E+00 -0.00000000000E+00 -0.24032853524E+03  0.24032853524E+03  0.00000000000E+00 0.  1.
          6    1    1    2  501    0 -0.76419514947E+02 -0.11671570721E+02 -0.95283954593E+02  0.21127990872E+03  0.17200000000E+03 0.  1.
         -6    1    1    2    0  502  0.76419514947E+02  0.11671570721E+02  0.15083078573E+02  0.18917628574E+03  0.17200000000E+03 0.  1.
<mgrwt>
<rscale>  2 0.18857404E+03</rscale>
<asrwt>0</asrwt>
<pdfrwt beam="1">  1       21 0.40031915E-01 0.18857404E+03</pdfrwt>
<pdfrwt beam="2">  1       21 0.60082133E-01 0.18857404E+03</pdfrwt>
<totfact> 0.15577207E+04</totfact>
</mgrwt>
</event>
<event>
 4    1  0.1110581E+000  0.2236938E+03  0.7546771E-02  0.1131159E+00
         21   -1    0    0  501  502  0.00000000000E+00  0.00000000000E+00  0.13924296896E+04  0.13924296896E+04  0.00000000000E+00 0. -1.
         21   -1    0    0  502  503 -0.00000000000E+00 -0.00000000000E+00 -0.36421208767E+02  0.36421208767E+02  0.00000000000E+00 0.  1.
          6    1    1    2  501    0 -0.43181977147E+02  0.13634603670E+03  0.59557898880E+03  0.63620221375E+03  0.17200000000E+03 0.  1.
         -6    1    1    2    0  503  0.43181977147E+02 -0.13634603670E+03  0.76042949200E+03  0.79264868459E+03  0.17200000000E+03 0. -1.
<mgrwt>
<rscale>  2 0.22369382E+03</rscale>
<asrwt>0</asrwt>
<pdfrwt beam="1">  1       21 0.34810724E+00 0.22369382E+03</pdfrwt>
<pdfrwt beam="2">  1       21 0.91053068E-02 0.22369382E+03</pdfrwt>
<totfact> 0.16489763E+03</totfact>
</mgrwt>
</event>
<event>
 4    1  0.1110581E+000  0.1938489E+03  0.7546771E-02  0.1155035E+00
         21   -1    0    0  501  502  0.00000000000E+00  0.00000000000E+00  0.30630078093E+03  0.30630078093E+03  0.00000000000E+00 0.  1.
         21   -1    0    0  502  503 -0.00000000000E+00 -0.00000000000E+00 -0.19704965579E+03  0.19704965579E+03  0.00000000000E+00 0.  1.
          6    1    1    2  501    0  0.86666601017E+02 -0.21960971084E+02  0.20923879029E+03  0.28523368550E+03  0.17200000000E+03 0.  1.
         -6    1    1    2    0  503 -0.86666601017E+02  0.21960971084E+02 -0.99987665153E+02  0.21811675123E+03  0.17200000000E+03 0.  1.
<mgrwt>
<rscale>  2 0.19384887E+03</rscale>
<asrwt>0</asrwt>
<pdfrwt beam="1">  1       21 0.76575195E-01 0.19384887E+03</pdfrwt>
<pdfrwt beam="2">  1       21 0.49262414E-01 0.19384887E+03</pdfrwt>
<totfact> 0.59597574E+03</totfact>
</mgrwt>
</event>
<event>
 4    1  0.1110581E+000  0.1769684E+03  0.7546771E-02  0.1170770E+00
         21   -1    0    0  503  502  0.00000000000E+00  0.00000000000E+00  0.10341776928E+04  0.10341776928E+04  0.00000000000E+00 0. -1.
         21   -1    0    0  501  503 -0.00000000000E+00 -0.00000000000E+00 -0.73734124475E+02  0.73734124475E+02  0.00000000000E+00 0. -1.
          6    1    1    2  501    0 -0.17814498366E+02 -0.37635972324E+02  0.54973748191E+02  0.18531037681E+03  0.17200000000E+03 0. -1.
         -6    1    1    2    0  502  0.17814498366E+02  0.37635972324E+02  0.90546982009E+03  0.92260144041E+03  0.17200000000E+03 0. -1.
<mgrwt>
<rscale>  2 0.17696842E+03</rscale>
<asrwt>0</asrwt>
<pdfrwt beam="1">  1       21 0.25854438E+00 0.17696842E+03</pdfrwt>
<pdfrwt beam="2">  1       21 0.18433534E-01 0.17696842E+03</pdfrwt>
<totfact> 0.16233337E+03</totfact>
</mgrwt>
</event>
<event>
 4    1  0.1110581E+000  0.1855856E+03  0.7546771E-02  0.1162504E+00
         21   -1    0    0  503  502  0.00000000000E+00  0.00000000000E+00  0.45212402364E+03  0.45212402364E+03  0.00000000000E+00 0. -1.
         21   -1    0    0  501  503 -0.00000000000E+00 -0.00000000000E+00 -0.86190333927E+02  0.86190333927E+02  0.00000000000E+00 0. -1.
          6    1    1    2  501    0  0.67354281873E+02  0.17928420677E+02  0.91231137159E+02  0.20679735961E+03  0.17200000000E+03 0. -1.
         -6    1    1    2    0  502 -0.67354281873E+02 -0.17928420677E+02  0.27470255255E+03  0.33151699796E+03  0.17200000000E+03 0. -1.
<mgrwt>
<rscale>  2 0.18558563E+03</rscale>
<asrwt>0</asrwt>
<pdfrwt beam="1">  1       21 0.11303100E+00 0.18558563E+03</pdfrwt>
<pdfrwt beam="2">  1       21 0.21547585E-01 0.18558563E+03</pdfrwt>
<totfact> 0.12333433E+04</totfact>
</mgrwt>
</event>
<event>
 4    1  0.1110581E+000  0.1753901E+03  0.7546771E-02  0.1172341E+00
         21   -1    0    0  501  502  0.00000000000E+00  0.00000000000E+00  0.12525010220E+03  0.12525010220E+03  0.00000000000E+00 0. -1.
         21   -1    0    0  502  503 -0.00000000000E+00 -0.00000000000E+00 -0.25021641901E+03  0.25021641901E+03  0.00000000000E+00 0. -1.
          6    1    1    2  501    0 -0.32418555460E+02  0.11257772039E+02 -0.87976842724E+02  0.19621830961E+03  0.17200000000E+03 0. -1.
         -6    1    1    2    0  503  0.32418555460E+02 -0.11257772039E+02 -0.36989474087E+02  0.17924821160E+03  0.17200000000E+03 0. -1.
<mgrwt>
<rscale>  2 0.17539014E+03</rscale>
<asrwt>0</asrwt>
<pdfrwt beam="1">  1       21 0.31312526E-01 0.17539014E+03</pdfrwt>
<pdfrwt beam="2">  1       21 0.62554104E-01 0.17539014E+03</pdfrwt>
<totfact> 0.23449230E+04</totfact>
</mgrwt>
</event>
<event>
 4    1  0.1110581E+000  0.1886828E+03  0.7546771E-02  0.1159655E+00
         21   -1    0    0  501  502  0.00000000000E+00  0.00000000000E+00  0.23384533786E+03  0.23384533786E+03  0.00000000000E+00 0.  1.
         21   -1    0    0  502  503 -0.00000000000E+00 -0.00000000000E+00 -0.39636042633E+03  0.39636042633E+03  0.00000000000E+00 0.  1.
          6    1    1    2  501    0  0.29117841385E+02  0.71898064743E+02  0.16603278815E+03  0.25133258273E+03  0.17200000000E+03 0.  1.
         -6    1    1    2    0  503 -0.29117841385E+02 -0.71898064743E+02 -0.32854787662E+03  0.37887318147E+03  0.17200000000E+03 0.  1.
<mgrwt>
<rscale>  2 0.18868275E+03</rscale>
<asrwt>0</asrwt>
<pdfrwt beam="1">  1       21 0.58461335E-01 0.18868275E+03</pdfrwt>
<pdfrwt beam="2">  1       21 0.99090105E-01 0.18868275E+03</pdfrwt>
<totfact> 0.23064957E+03</totfact>
</mgrwt>
</event>
<event>
 4    1  0.1110581E+000  0.2289744E+03  0.7546771E-02  0.1127364E+00
         21   -1    0    0  501  502  0.00000000000E+00  0.00000000000E+00  0.67336262620E+02  0.67336262620E+02  0.00000000000E+00 0. -1.
         21   -1    0    0  502  503 -0.00000000000E+00 -0.00000000000E+00 -0.96434977258E+03  0.96434977258E+03  0.00000000000E+00 0. -1.
          6    1    1    2  501    0 -0.31561882070E+02 -0.14781445447E+03 -0.22212434136E+03  0.31901173705E+03  0.17200000000E+03 0. -1.
         -6    1    1    2    0  503  0.31561882070E+02  0.14781445447E+03 -0.67488916860E+03  0.71267429815E+03  0.17200000000E+03 0. -1.
<mgrwt>
<rscale>  2 0.22897438E+03</rscale>
<asrwt>0</asrwt>
<pdfrwt beam="1">  1       21 0.16834066E-01 0.22897438E+03</pdfrwt>
<pdfrwt beam="2">  1       21 0.24108744E+00 0.22897438E+03</pdfrwt>
<totfact> 0.22961510E+03</totfact>
</mgrwt>
</event>
<event>
 4    1  0.1110581E+000  0.2546817E+03  0.7546771E-02  0.1110381E+00
         21   -1    0    0  501  502  0.00000000000E+00  0.00000000000E+00  0.42918669374E+03  0.42918669374E+03  0.00000000000E+00 0. -1.
         21   -1    0    0  502  503 -0.00000000000E+00 -0.00000000000E+00 -0.15351388489E+03  0.15351388489E+03  0.00000000000E+00 0.  1.
          6    1    1    2  501    0  0.39904293071E+02  0.18353864184E+03  0.10152637738E+03  0.27417219217E+03  0.17200000000E+03 0.  1.
         -6    1    1    2    0  503 -0.39904293071E+02 -0.18353864184E+03  0.17414643148E+03  0.30852838646E+03  0.17200000000E+03 0. -1.
<mgrwt>
<rscale>  2 0.25468173E+03</rscale>
<asrwt>0</asrwt>
<pdfrwt beam="1">  1       21 0.10729667E+00 0.25468173E+03</pdfrwt>
<pdfrwt beam="2">  1       21 0.38378472E-01 0.25468173E+03</pdfrwt>
<totfact> 0.43408763E+03</totfact>
</mgrwt>
</event>
<event>
 4    1  0.1110581E+000  0.2317732E+03  0.7546771E-02  0.1125398E+00
         21   -1    0    0  503  502  0.00000000000E+00  0.00000000000E+00  0.32714176769E+03  0.32714176769E+03  0.00000000000E+00 0.  1.
         21   -1    0    0  501  503 -0.00000000000E+00 -0.00000000000E+00 -0.37797541761E+03  0.37797541761E+03  0.00000000000E+00 0. -1.
          6    1    1    2  501    0 -0.15137551715E+03  0.34932620702E+02 -0.29055466290E+03  0.37167303818E+03  0.17200000000E+03 0. -1.
         -6    1    1    2    0  502  0.15137551715E+03 -0.34932620702E+02  0.23972101298E+03  0.33344414712E+03  0.17200000000E+03 0.  1.
<mgrwt>
<rscale>  2 0.23177324E+03</rscale>
<asrwt>0</asrwt>
<pdfrwt beam="1">  1       21 0.81785442E-01 0.23177324E+03</pdfrwt>
<pdfrwt beam="2">  1       21 0.94493854E-01 0.23177324E+03</pdfrwt>
<totfact> 0.11839279E+03</totfact>
</mgrwt>
</event>
<event>
 4    1  0.1110581E+000  0.1944841E+03  0.7546771E-02  0.1154478E+00
         21   -1    0    0  503  502  0.00000000000E+00  0.00000000000E+00  0.10301534475E+03  0.10301534475E+03  0.00000000000E+00 0. -1.
         21   -1    0    0  501  503 -0.00000000000E+00 -0.00000000000E+00 -0.40425275964E+03  0.40425275964E+03  0.00000000000E+00 0. -1.
          6    1    1    2  501    0 -0.74993027135E+02 -0.51148038516E+02 -0.22743811643E+03  0.29925269050E+03  0.17200000000E+03 0. -1.
         -6    1    1    2    0  502  0.74993027135E+02  0.51148038516E+02 -0.73799298461E+02  0.20801541389E+03  0.17200000000E+03 0. -1.
<mgrwt>
<rscale>  2 0.19448413E+03</rscale>
<asrwt>0</asrwt>
<pdfrwt beam="1">  1       21 0.25753837E-01 0.19448413E+03</pdfrwt>
<pdfrwt beam="2">  1       21 0.10106319E+00 0.19448413E+03</pdfrwt>
<totfact> 0.11442264E+04</totfact>
</mgrwt>
</event>
<event>
 4    1  0.1110581E+000  0.1895827E+03  0.7546771E-02  0.1158838E+00
         21   -1    0    0  503  502  0.00000000000E+00  0.00000000000E+00  0.52812909121E+02  0.52812909121E+02  0.00000000000E+00 0. -1.
         21   -1    0    0  501  503 -0.00000000000E+00 -0.00000000000E+00 -0.68267489416E+03  0.68267489416E+03  0.00000000000E+00 0. -1.
          6    1    1    2  501    0  0.68597430816E+02  0.40644627720E+02 -0.33546887507E+03  0.38533227145E+03  0.17200000000E+03 0.  1.
         -6    1    1    2    0  502 -0.68597430816E+02 -0.40644627720E+02 -0.29439310997E+03  0.35015553183E+03  0.17200000000E+03 0.  1.
<mgrwt>
<rscale>  2 0.18958268E+03</rscale>
<asrwt>0</asrwt>
<pdfrwt beam="1">  1       21 0.13203227E-01 0.18958268E+03</pdfrwt>
<pdfrwt beam="2">  1       21 0.17066872E+00 0.18958268E+03</pdfrwt>
<totfact> 0.10459283E+04</totfact>
</mgrwt>
</event>
<event>
 4    1  0.1110581E+000  0.1878890E+03  0.7546771E-02  0.1160379E+00
         21   -1    0    0  503  502  0.00000000000E+00  0.00000000000E+00  0.88628238037E+03  0.88628238037E+03  0.00000000000E+00 0.  1.
         21   -1    0    0  501  503 -0.00000000000E+00 -0.00000000000E+00 -0.53416545012E+02  0.53416545012E+02  0.00000000000E+00 0.  1.
          6    1    1    2  501    0  0.72096486251E+02 -0.22812093985E+02  0.17948915744E+03  0.25984351560E+03  0.17200000000E+03 0.  1.
         -6    1    1    2    0  502 -0.72096486251E+02  0.22812093985E+02  0.65337667792E+03  0.67985540978E+03  0.17200000000E+03 0.  1.
<mgrwt>
<rscale>  2 0.18788905E+03</rscale>
<asrwt>0</asrwt>
<pdfrwt beam="1">  1       21 0.22157055E+00 0.18788905E+03</pdfrwt>
<pdfrwt beam="2">  1       21 0.13354139E-01 0.18788905E+03</pdfrwt>
<totfact> 0.47873727E+03</totfact>
</mgrwt>
</event>
<event>
 4    1  0.1110581E+000  0.1994219E+03  0.7546771E-02  0.1150228E+00
         21   -1    0    0  503  502  0.00000000000E+00  0.00000000000E+00  0.16255408432E+03  0.16255408432E+03  0.00000000000E+00 0. -1.
         21   -1    0    0  501  503 -0.00000000000E+00 -0.00000000000E+00 -0.33665241702E+03  0.33665241702E+03  0.00000000000E+00 0. -1.
          6    1    1    2  501    0  0.40677434708E+02  0.92360410470E+02 -0.21753262736E+03  0.29510937478E+03  0.17200000000E+03 0. -1.
         -6    1    1    2    0  502 -0.40677434708E+02 -0.92360410470E+02  0.43434294655E+02  0.20409712656E+03  0.17200000000E+03 0. -1.
<mgrwt>
<rscale>  2 0.19942191E+03</rscale>
<asrwt>0</asrwt>
<pdfrwt beam="1">  1       21 0.40638521E-01 0.19942191E+03</pdfrwt>
<pdfrwt beam="2">  1       21 0.84163104E-01 0.19942191E+03</pdfrwt>
<totfact> 0.71143096E+03</totfact>
</mgrwt>
</event>
<event>
 4    1  0.1110581E+000  0.2042219E+03  0.7546771E-02  0.1146225E+00
         21   -1    0    0  503  502  0.00000000000E+00  0.00000000000E+00  0.67261172990E+03  0.67261172990E+03  0.00000000000E+00 0. -1.
         21   -1    0    0  501  503 -0.00000000000E+00 -0.00000000000E+00 -0.10266689331E+03  0.10266689331E+03  0.00000000000E+00 0. -1.
          6    1    1    2  501    0 -0.10580530315E+03  0.30460506655E+02  0.41025146184E+02  0.20830186571E+03  0.17200000000E+03 0. -1.
         -6    1    1    2    0  502  0.10580530315E+03 -0.30460506655E+02  0.52891969040E+03  0.56697675749E+03  0.17200000000E+03 0. -1.
<mgrwt>
<rscale>  2 0.20422195E+03</rscale>
<asrwt>0</asrwt>
<pdfrwt beam="1">  1       21 0.16815292E+00 0.20422195E+03</pdfrwt>
<pdfrwt beam="2">  1       21 0.25666725E-01 0.20422195E+03</pdfrwt>
<totfact> 0.31335780E+03</totfact>
</mgrwt>
</event>
<event>
 4    1  0.1110581E+000  0.1867478E+03  0.7546771E-02  0.1161428E+00
         21   -1    0    0  503  502  0.00000000000E+00  0.00000000000E+00  0.48323735937E+02  0.48323735937E+02  0.00000000000E+00 0. -1.
         21   -1    0    0  501  503 -0.00000000000E+00 -0.00000000000E+00 -0.77310982309E+03  0.77310982309E+03  0.00000000000E+00 0. -1.
          6    1    1    2  501    0  0.66128417665E+02  0.30294802152E+02 -0.25647050238E+03  0.31725677495E+03  0.17200000000E+03 0. -1.
         -6    1    1    2    0  502 -0.66128417665E+02 -0.30294802152E+02 -0.46831558478E+03  0.50417678408E+03  0.17200000000E+03 0. -1.
<mgrwt>
<rscale>  2 0.18674780E+03</rscale>
<asrwt>0</asrwt>
<pdfrwt beam="1">  1       21 0.12080934E-01 0.18674780E+03</pdfrwt>
<pdfrwt beam="2">  1       21 0.19327746E+00 0.18674780E+03</pdfrwt>
<totfact> 0.86497364E+03</totfact>
</mgrwt>
</event>
<event>
 4    1  0.1110581E+000  0.2726286E+03  0.7546771E-02  0.1099785E+00
         21   -1    0    0  503  502  0.00000000000E+00  0.00000000000E+00  0.31193624036E+03  0.31193624036E+03  0.00000000000E+00 0.  1.
         21   -1    0    0  501  503 -0.00000000000E+00 -0.00000000000E+00 -0.24110146559E+03  0.24110146559E+03  0.00000000000E+00 0. -1.
          6    1    1    2  501    0 -0.12763646152E+03  0.16867507437E+03  0.65361459372E+02  0.28035418206E+03  0.17200000000E+03 0.  1.
         -6    1    1    2    0  502  0.12763646152E+03 -0.16867507437E+03  0.54733153975E+01  0.27268352390E+03  0.17200000000E+03 0. -1.
<mgrwt>
<rscale>  2 0.27262859E+03</rscale>
<asrwt>0</asrwt>
<pdfrwt beam="1">  1       21 0.77984060E-01 0.27262859E+03</pdfrwt>
<pdfrwt beam="2">  1       21 0.60275367E-01 0.27262859E+03</pdfrwt>
<totfact> 0.35321176E+03</totfact>
</mgrwt>
</event>
<event>
 4    1  0.1110581E+000  0.1860419E+03  0.7546771E-02  0.1162080E+00
         21   -1    0    0  501  502  0.00000000000E+00  0.00000000000E+00  0.54316201698E+03  0.54316201698E+03  0.00000000000E+00 0.  1.
         21   -1    0    0  502  503 -0.00000000000E+00 -0.00000000000E+00 -0.77298434560E+02  0.77298434560E+02  0.00000000000E+00 0.  1.
          6    1    1    2  501    0  0.70881159165E+02  0.18575776174E+01  0.10291927371E+03  0.21261224382E+03  0.17200000000E+03 0.  1.
         -6    1    1    2    0  503 -0.70881159165E+02 -0.18575776174E+01  0.36294430870E+03  0.40784820772E+03  0.17200000000E+03 0.  1.
<mgrwt>
<rscale>  2 0.18604190E+03</rscale>
<asrwt>0</asrwt>
<pdfrwt beam="1">  1       21 0.13579049E+00 0.18604190E+03</pdfrwt>
<pdfrwt beam="2">  1       21 0.19324610E-01 0.18604190E+03</pdfrwt>
<totfact> 0.95722823E+03</totfact>
</mgrwt>
</event>
<event>
 4    1  0.1110581E+000  0.2123500E+03  0.7546771E-02  0.1139718E+00
         21   -1    0    0  503  502  0.00000000000E+00  0.00000000000E+00  0.79001498406E+03  0.79001498406E+03  0.00000000000E+00 0.  1.
         21   -1    0    0  501  503 -0.00000000000E+00 -0.00000000000E+00 -0.60197238788E+02  0.60197238788E+02  0.00000000000E+00 0. -1.
          6    1    1    2  501    0 -0.25172001410E+02  0.12196260344E+03  0.46167662190E+03  0.50817104355E+03  0.17200000000E+03 0.  1.
         -6    1    1    2    0  502  0.25172001410E+02 -0.12196260344E+03  0.26814112338E+03  0.34204117930E+03  0.17200000000E+03 0. -1.
<mgrwt>
<rscale>  2 0.21234996E+03</rscale>
<asrwt>0</asrwt>
<pdfrwt beam="1">  1       21 0.19750371E+00 0.21234996E+03</pdfrwt>
<pdfrwt beam="2">  1       21 0.15049312E-01 0.21234996E+03</pdfrwt>
<totfact> 0.53389272E+03</totfact>
</mgrwt>
</event>
<event>
 4    1  0.1110581E+000  0.2352319E+03  0.7546771E-02  0.1123011E+00
         21   -1    0    0  501  502  0.00000000000E+00  0.00000000000E+00  0.48567496768E+02  0.48567496768E+02  0.00000000000E+00 0.  1.
         21   -1    0    0  502  503 -0.00000000000E+00 -0.00000000000E+00 -0.12352118438E+04  0.12352118438E+04  0.00000000000E+00 0.  1.
          6    1    1    2  501    0 -0.80659278053E+02 -0.13872327009E+03 -0.41447842429E+03  0.47657783100E+03  0.17200000000E+03 0.  1.
         -6    1    1    2    0  503  0.80659278053E+02  0.13872327009E+03 -0.77216592278E+03  0.80720150960E+03  0.17200000000E+03 0.  1.
<mgrwt>
<rscale>  2 0.23523194E+03</rscale>
<asrwt>0</asrwt>
<pdfrwt beam="1">  1       21 0.12141875E-01 0.23523194E+03</pdfrwt>
<pdfrwt beam="2">  1       21 0.30880295E+00 0.23523194E+03</pdfrwt>
<totfact> 0.16584423E+03</totfact>
</mgrwt>
</event>
<event>
 4    1  0.1110581E+000  0.2781265E+03  0.7546771E-02  0.1096717E+00
         21   -1    0    0  503  502  0.00000000000E+00  0.00000000000E+00  0.83408678240E+02  0.83408678240E+02  0.00000000000E+00 0.  1.
         21   -1    0    0  501  503 -0.00000000000E+00 -0.00000000000E+00 -0.10925860088E+04  0.10925860088E+04  0.00000000000E+00 0. -1.
          6    1    1    2  501    0 -0.44822361051E+02  0.21391886985E+03 -0.73320988848E+03  0.78418815822E+03  0.17200000000E+03 0. -1.
         -6    1    1    2    0  502  0.44822361051E+02 -0.21391886985E+03 -0.27596744205E+03  0.39180652879E+03  0.17200000000E+03 0.  1.
<mgrwt>
<rscale>  2 0.27812646E+03</rscale>
<asrwt>0</asrwt>
<pdfrwt beam="1">  1       21 0.20852170E-01 0.27812646E+03</pdfrwt>
<pdfrwt beam="2">  1       21 0.27314650E+00 0.27812646E+03</pdfrwt>
<totfact> 0.94930359E+02</totfact>
</mgrwt>
</event>
<event>
 4    1  0.1110581E+000  0.2562407E+03  0.7546771E-02  0.1109423E+00
         21   -1    0    0  501  502  0.00000000000E+00  0.00000000000E+00  0.55188623869E+03  0.55188623869E+03  0.00000000000E+00 0.  1.
         21   -1    0    0  502  503 -0.00000000000E+00 -0.00000000000E+00 -0.13586665386E+03  0.13586665386E+03  0.00000000000E+00 0.  1.
          6    1    1    2  501    0 -0.11076235268E+03  0.15429521415E+03  0.32926868538E+03  0.41722557334E+03  0.17200000000E+03 0.  1.
         -6    1    1    2    0  503  0.11076235268E+03 -0.15429521415E+03  0.86750899451E+02  0.27052731920E+03  0.17200000000E+03 0.  1.
<mgrwt>
<rscale>  2 0.25624073E+03</rscale>
<asrwt>0</asrwt>
<pdfrwt beam="1">  1       21 0.13797155E+00 0.25624073E+03</pdfrwt>
<pdfrwt beam="2">  1       21 0.33966665E-01 0.25624073E+03</pdfrwt>
<totfact> 0.29508694E+03</totfact>
</mgrwt>
</event>
<event>
 4    1  0.1110581E+000  0.1782684E+03  0.7546771E-02  0.1169489E+00
         21   -1    0    0  503  502  0.00000000000E+00  0.00000000000E+00  0.19908149912E+02  0.19908149912E+02  0.00000000000E+00 0.  1.
         21   -1    0    0  501  503 -0.00000000000E+00 -0.00000000000E+00 -0.16471291705E+04  0.16471291705E+04  0.00000000000E+00 0.  1.
          6    1    1    2  501    0 -0.14228998236E+02  0.44644953590E+02 -0.96001451120E+03  0.97642587941E+03  0.17200000000E+03 0.  1.
         -6    1    1    2    0  502  0.14228998236E+02 -0.44644953590E+02 -0.66720650942E+03  0.69061144104E+03  0.17200000000E+03 0.  1.
<mgrwt>
<rscale>  2 0.17826844E+03</rscale>
<asrwt>0</asrwt>
<pdfrwt beam="1">  1       21 0.49770378E-02 0.17826844E+03</pdfrwt>
<pdfrwt beam="2">  1       21 0.41178227E+00 0.17826844E+03</pdfrwt>
<totfact> 0.20377803E+03</totfact>
</mgrwt>
</event>
<event>
 4    1  0.1110581E+000  0.1935366E+03  0.7546771E-02  0.1155310E+00
         21   -1    0    0  503  502  0.00000000000E+00  0.00000000000E+00  0.35887199295E+03  0.35887199295E+03  0.00000000000E+00 0.  1.
         21   -1    0    0  501  503 -0.00000000000E+00 -0.00000000000E+00 -0.19141714261E+03  0.19141714261E+03  0.00000000000E+00 0. -1.
          6    1    1    2  501    0  0.85073167013E+02 -0.25198919341E+02 -0.10181409874E+03  0.21868365276E+03  0.17200000000E+03 0. -1.
         -6    1    1    2    0  502 -0.85073167013E+02  0.25198919341E+02  0.26926894908E+03  0.33160548279E+03  0.17200000000E+03 0.  1.
<mgrwt>
<rscale>  2 0.19353664E+03</rscale>
<asrwt>0</asrwt>
<pdfrwt beam="1">  1       21 0.89717997E-01 0.19353664E+03</pdfrwt>
<pdfrwt beam="2">  1       21 0.47854286E-01 0.19353664E+03</pdfrwt>
<totfact> 0.44143536E+03</totfact>
</mgrwt>
</event>
<event>
 4    1  0.1110581E+000  0.1951299E+03  0.7546771E-02  0.1153914E+00
         21   -1    0    0  501  502  0.00000000000E+00  0.00000000000E+00  0.62026649892E+03  0.62026649892E+03  0.00000000000E+00 0.  1.
         21   -1    0    0  502  503 -0.00000000000E+00 -0.00000000000E+00 -0.11082226898E+03  0.11082226898E+03  0.00000000000E+00 0.  1.
          6    1    1    2  501    0  0.66239415743E+02  0.64062689743E+02  0.49886798148E+03  0.53567242916E+03  0.17200000000E+03 0.  1.
         -6    1    1    2    0  503 -0.66239415743E+02 -0.64062689743E+02  0.10576248464E+02  0.19541633874E+03  0.17200000000E+03 0.  1.
<mgrwt>
<rscale>  2 0.19512993E+03</rscale>
<asrwt>0</asrwt>
<pdfrwt beam="1">  1       21 0.15506662E+00 0.19512993E+03</pdfrwt>
<pdfrwt beam="2">  1       21 0.27705569E-01 0.19512993E+03</pdfrwt>
<totfact> 0.33967640E+03</totfact>
</mgrwt>
</event>
<event>
 4    1  0.1110581E+000  0.1776303E+03  0.7546771E-02  0.1170116E+00
         21   -1    0    0  503  502  0.00000000000E+00  0.00000000000E+00  0.13164756449E+03  0.13164756449E+03  0.00000000000E+00 0. -1.
         21   -1    0    0  501  503 -0.00000000000E+00 -0.00000000000E+00 -0.26319285255E+03  0.26319285255E+03  0.00000000000E+00 0. -1.
          6    1    1    2  501    0 -0.17694573907E+02 -0.40686789960E+02 -0.12478753538E+03  0.21708164779E+03  0.17200000000E+03 0. -1.
         -6    1    1    2    0  502  0.17694573907E+02  0.40686789960E+02 -0.67577526817E+01  0.17775876925E+03  0.17200000000E+03 0. -1.
<mgrwt>
<rscale>  2 0.17763027E+03</rscale>
<asrwt>0</asrwt>
<pdfrwt beam="1">  1       21 0.32911891E-01 0.17763027E+03</pdfrwt>
<pdfrwt beam="2">  1       21 0.65798213E-01 0.17763027E+03</pdfrwt>
<totfact> 0.19034954E+04</totfact>
</mgrwt>
</event>
<event>
 4    1  0.1110581E+000  0.2146678E+03  0.7546771E-02  0.1137922E+00
         21   -1    0    0  503  502  0.00000000000E+00  0.00000000000E+00  0.34320743139E+03  0.34320743139E+03  0.00000000000E+00 0.  1.
         21   -1    0    0  501  503 -0.00000000000E+00 -0.00000000000E+00 -0.20963258421E+03  0.20963258421E+03  0.00000000000E+00 0.  1.
          6    1    1    2  501    0  0.28710058106E+02  0.12519584504E+03 -0.98949627401E+02  0.23637532827E+03  0.17200000000E+03 0.  1.
         -6    1    1    2    0  502 -0.28710058106E+02 -0.12519584504E+03  0.23252447457E+03  0.31646468733E+03  0.17200000000E+03 0.  1.
<mgrwt>
<rscale>  2 0.21466781E+03</rscale>
<asrwt>0</asrwt>
<pdfrwt beam="1">  1       21 0.85801857E-01 0.21466781E+03</pdfrwt>
<pdfrwt beam="2">  1       21 0.52408146E-01 0.21466781E+03</pdfrwt>
<totfact> 0.39797517E+03</totfact>
</mgrwt>
</event>
<event>
 4    1  0.1110581E+000  0.1967721E+03  0.7546771E-02  0.1152491E+00
         21   -1    0    0  503  502  0.00000000000E+00  0.00000000000E+00  0.24457396505E+02  0.24457396505E+02  0.00000000000E+00 0.  1.
         21   -1    0    0  501  503 -0.00000000000E+00 -0.00000000000E+00 -0.18501635525E+04  0.18501635525E+04  0.00000000000E+00 0. -1.
          6    1    1    2  501    0  0.95103431860E+02 -0.95186563596E+01 -0.12689435453E+04  0.12841094146E+04  0.17200000000E+03 0. -1.
         -6    1    1    2    0  502 -0.95103431860E+02  0.95186563596E+01 -0.55676261073E+03  0.59051153441E+03  0.17200000000E+03 0.  1.
<mgrwt>
<rscale>  2 0.19677212E+03</rscale>
<asrwt>0</asrwt>
<pdfrwt beam="1">  1       21 0.61143495E-02 0.19677212E+03</pdfrwt>
<pdfrwt beam="2">  1       21 0.46254086E+00 0.19677212E+03</pdfrwt>
<totfact> 0.65052520E+02</totfact>
</mgrwt>
</event>
<event>
 4    1  0.1110581E+000  0.1836507E+03  0.7546771E-02  0.1164316E+00
         21   -1    0    0  503  502  0.00000000000E+00  0.00000000000E+00  0.21005450120E+03  0.21005450120E+03  0.00000000000E+00 0. -1.
         21   -1    0    0  501  503 -0.00000000000E+00 -0.00000000000E+00 -0.17485695206E+03  0.17485695206E+03  0.00000000000E+00 0. -1.
          6    1    1    2  501    0  0.11010031148E+02 -0.63421940653E+02 -0.37421584169E+02  0.18742448694E+03  0.17200000000E+03 0. -1.
         -6    1    1    2    0  502 -0.11010031148E+02  0.63421940653E+02  0.72619133308E+02  0.19748696632E+03  0.17200000000E+03 0. -1.
<mgrwt>
<rscale>  2 0.18365066E+03</rscale>
<asrwt>0</asrwt>
<pdfrwt beam="1">  1       21 0.52513625E-01 0.18365066E+03</pdfrwt>
<pdfrwt beam="2">  1       21 0.43714238E-01 0.18365066E+03</pdfrwt>
<totfact> 0.17387662E+04</totfact>
</mgrwt>
</event>
<event>
 4    1  0.1110581E+000  0.2176859E+03  0.7546771E-02  0.1135620E+00
         21   -1    0    0  501  502  0.00000000000E+00  0.00000000000E+00  0.13392084910E+03  0.13392084910E+03  0.00000000000E+00 0. -1.
         21   -1    0    0  502  503 -0.00000000000E+00 -0.00000000000E+00 -0.41798593975E+03  0.41798593975E+03  0.00000000000E+00 0.  1.
          6    1    1    2  501    0 -0.95894214877E+00  0.13342493349E+03 -0.25013233493E+03  0.33159209493E+03  0.17200000000E+03 0. -1.
         -6    1    1    2    0  503  0.95894214877E+00 -0.13342493349E+03 -0.33932755716E+02  0.22031469392E+03  0.17200000000E+03 0.  1.
<mgrwt>
<rscale>  2 0.21768586E+03</rscale>
<asrwt>0</asrwt>
<pdfrwt beam="1">  1       21 0.33480213E-01 0.21768586E+03</pdfrwt>
<pdfrwt beam="2">  1       21 0.10449648E+00 0.21768586E+03</pdfrwt>
<totfact> 0.62331649E+03</totfact>
</mgrwt>
</event>
<event>
 4    1  0.1110581E+000  0.1985663E+03  0.7546771E-02  0.1150954E+00
         21   -1    0    0  503  502  0.00000000000E+00  0.00000000000E+00  0.16250439111E+03  0.16250439111E+03  0.00000000000E+00 0.  1.
         21   -1    0    0  501  503 -0.00000000000E+00 -0.00000000000E+00 -0.26536906798E+03  0.26536906798E+03  0.00000000000E+00 0.  1.
          6    1    1    2  501    0 -0.80606451161E+02  0.57854850657E+02  0.11191273370E+02  0.19888144286E+03  0.17200000000E+03 0.  1.
         -6    1    1    2    0  502  0.80606451161E+02 -0.57854850657E+02 -0.11405595025E+03  0.22899201624E+03  0.17200000000E+03 0.  1.
<mgrwt>
<rscale>  2 0.19856632E+03</rscale>
<asrwt>0</asrwt>
<pdfrwt beam="1">  1       21 0.40626098E-01 0.19856632E+03</pdfrwt>
<pdfrwt beam="2">  1       21 0.66342267E-01 0.19856632E+03</pdfrwt>
<totfact> 0.12119799E+04</totfact>
</mgrwt>
</event>
<event>
 4    1  0.1110581E+000  0.1852316E+03  0.7546771E-02  0.1162834E+00
         21   -1    0    0  501  502  0.00000000000E+00  0.00000000000E+00  0.93188258790E+03  0.93188258790E+03  0.00000000000E+00 0. -1.
         21   -1    0    0  502  503 -0.00000000000E+00 -0.00000000000E+00 -0.12254451841E+03  0.12254451841E+03  0.00000000000E+00 0. -1.
          6    1    1    2  501    0 -0.68741525775E+02  0.11588439429E+01  0.84562512654E+03  0.86567464727E+03  0.17200000000E+03 0. -1.
         -6    1    1    2    0  503  0.68741525775E+02 -0.11588439429E+01 -0.36287057056E+02  0.18875245904E+03  0.17200000000E+03 0. -1.
<mgrwt>
<rscale>  2 0.18523159E+03</rscale>
<asrwt>0</asrwt>
<pdfrwt beam="1">  1       21 0.23297063E+00 0.18523159E+03</pdfrwt>
<pdfrwt beam="2">  1       21 0.30636132E-01 0.18523159E+03</pdfrwt>
<totfact> 0.86640260E+02</totfact>
</mgrwt>
</event>
<event>
 4    1  0.1110581E+000  0.2039728E+03  0.7546771E-02  0.1146430E+00
         21   -1    0    0  503  502  0.00000000000E+00  0.00000000000E+00  0.19373092802E+03  0.19373092802E+03  0.00000000000E+00 0.  1.
         21   -1    0    0  501  503 -0.00000000000E+00 -0.00000000000E+00 -0.25920108403E+03  0.25920108403E+03  0.00000000000E+00 0.  1.
          6    1    1    2  501    0 -0.94509314543E+02  0.55577717721E+02 -0.12651203267E+03  0.24002122334E+03  0.17200000000E+03 0.  1.
         -6    1    1    2    0  502  0.94509314543E+02 -0.55577717721E+02  0.61041876658E+02  0.21291078871E+03  0.17200000000E+03 0.  1.
<mgrwt>
<rscale>  2 0.20397278E+03</rscale>
<asrwt>0</asrwt>
<pdfrwt beam="1">  1       21 0.48432732E-01 0.20397278E+03</pdfrwt>
<pdfrwt beam="2">  1       21 0.64800271E-01 0.20397278E+03</pdfrwt>
<totfact> 0.88623677E+03</totfact>
</mgrwt>
</event>
<event>
 4    1  0.1110581E+000  0.1850019E+03  0.7546771E-02  0.1163048E+00
         21   -1    0    0  501  502  0.00000000000E+00  0.00000000000E+00  0.17838191315E+03  0.17838191315E+03  0.00000000000E+00 0.  1.
         21   -1    0    0  502  503 -0.00000000000E+00 -0.00000000000E+00 -0.54670682927E+03  0.54670682927E+03  0.00000000000E+00 0.  1.
          6    1    1    2  501    0  0.67279221091E+02 -0.10733674158E+02  0.10791614668E+03  0.21417656283E+03  0.17200000000E+03 0.  1.
         -6    1    1    2    0  503 -0.67279221091E+02  0.10733674158E+02 -0.47624106280E+03  0.51091217959E+03  0.17200000000E+03 0.  1.
<mgrwt>
<rscale>  2 0.18500191E+03</rscale>
<asrwt>0</asrwt>
<pdfrwt beam="1">  1       21 0.44595479E-01 0.18500191E+03</pdfrwt>
<pdfrwt beam="2">  1       21 0.13667671E+00 0.18500191E+03</pdfrwt>
<totfact> 0.18512739E+03</totfact>
</mgrwt>
</event>
<event>
 4    1  0.1110581E+000  0.1937495E+03  0.7546771E-02  0.1155122E+00
         21   -1    0    0  501  502  0.00000000000E+00  0.00000000000E+00  0.30313629161E+03  0.30313629161E+03  0.00000000000E+00 0.  1.
         21   -1    0    0  502  503 -0.00000000000E+00 -0.00000000000E+00 -0.19142250152E+03  0.19142250152E+03  0.00000000000E+00 0.  1.
          6    1    1    2  501    0 -0.18570370895E+02  0.87235280981E+02  0.20279179109E+03  0.28046989759E+03  0.17200000000E+03 0.  1.
         -6    1    1    2    0  503  0.18570370895E+02 -0.87235280981E+02 -0.91078000999E+02  0.21408889553E+03  0.17200000000E+03 0.  1.
<mgrwt>
<rscale>  2 0.19374946E+03</rscale>
<asrwt>0</asrwt>
<pdfrwt beam="1">  1       21 0.75784072E-01 0.19374946E+03</pdfrwt>
<pdfrwt beam="2">  1       21 0.47855626E-01 0.19374946E+03</pdfrwt>
<totfact> 0.64787377E+03</totfact>
</mgrwt>
</event>
<event>
 4    1  0.1110581E+000  0.1921059E+03  0.7546771E-02  0.1156576E+00
         21   -1    0    0  501  502  0.00000000000E+00  0.00000000000E+00  0.15791521545E+03  0.15791521545E+03  0.00000000000E+00 0.  1.
         21   -1    0    0  502  503 -0.00000000000E+00 -0.00000000000E+00 -0.33363082259E+03  0.33363082259E+03  0.00000000000E+00 0.  1.
          6    1    1    2  501    0  0.77299569515E+02 -0.36680310380E+02  0.46651543803E+02  0.19768923885E+03  0.17200000000E+03 0.  1.
         -6    1    1    2    0  503 -0.77299569515E+02  0.36680310380E+02 -0.22236715095E+03  0.29385679920E+03  0.17200000000E+03 0.  1.
<mgrwt>
<rscale>  2 0.19210588E+03</rscale>
<asrwt>0</asrwt>
<pdfrwt beam="1">  1       21 0.39478804E-01 0.19210588E+03</pdfrwt>
<pdfrwt beam="2">  1       21 0.83407705E-01 0.19210588E+03</pdfrwt>
<totfact> 0.77419031E+03</totfact>
</mgrwt>
</event>
<event>
 4    1  0.1110581E+000  0.2047062E+03  0.7546771E-02  0.1145828E+00
         21   -1    0    0  501  502  0.00000000000E+00  0.00000000000E+00  0.12967791951E+03  0.12967791951E+03  0.00000000000E+00 0.  1.
         21   -1    0    0  502  503 -0.00000000000E+00 -0.00000000000E+00 -0.75750595565E+03  0.75750595565E+03  0.00000000000E+00 0.  1.
          6    1    1    2  501    0  0.10889606049E+03 -0.21500625173E+02  0.21991050682E+02  0.20588403334E+03  0.17200000000E+03 0.  1.
         -6    1    1    2    0  503 -0.10889606049E+03  0.21500625173E+02 -0.64981908682E+03  0.68129984182E+03  0.17200000000E+03 0.  1.
<mgrwt>
<rscale>  2 0.20470620E+03</rscale>
<asrwt>0</asrwt>
<pdfrwt beam="1">  1       21 0.32419480E-01 0.20470620E+03</pdfrwt>
<pdfrwt beam="2">  1       21 0.18937649E+00 0.20470620E+03</pdfrwt>
<totfact> 0.14234152E+03</totfact>
</mgrwt>
</event>
<event>
 4    1  0.1110581E+000  0.1814321E+03  0.7546771E-02  0.1166424E+00
         21   -1    0    0  501  502  0.00000000000E+00  0.00000000000E+00  0.67632090773E+03  0.67632090773E+03  0.00000000000E+00 0.  1.
         21   -1    0    0  502  503 -0.00000000000E+00 -0.00000000000E+00 -0.67458115962E+02  0.67458115962E+02  0.00000000000E+00 0.  1.
          6    1    1    2  501    0 -0.45600801240E+02 -0.35414364390E+02  0.50068612357E+03  0.53254502590E+03  0.17200000000E+03 0.  1.
         -6    1    1    2    0  503  0.45600801240E+02  0.35414364390E+02  0.10817666820E+03  0.21123399779E+03  0.17200000000E+03 0.  1.
<mgrwt>
<rscale>  2 0.18143211E+03</rscale>
<asrwt>0</asrwt>
<pdfrwt beam="1">  1       21 0.16908021E+00 0.18143211E+03</pdfrwt>
<pdfrwt beam="2">  1       21 0.16864531E-01 0.18143211E+03</pdfrwt>
<totfact> 0.69223332E+03</totfact>
</mgrwt>
</event>
<event>
 4    1  0.1110581E+000  0.2234354E+03  0.7546771E-02  0.1131347E+00
         21   -1    0    0  501  502  0.00000000000E+00  0.00000000000E+00  0.85714174897E+03  0.85714174897E+03  0.00000000000E+00 0. -1.
         21   -1    0    0  502  503 -0.00000000000E+00 -0.00000000000E+00 -0.18792786008E+03  0.18792786008E+03  0.00000000000E+00 0. -1.
          6    1    1    2  501    0  0.83942322698E+02 -0.11529563686E+03  0.76867970948E+03  0.80049478024E+03  0.17200000000E+03 0. -1.
         -6    1    1    2    0  503 -0.83942322698E+02  0.11529563686E+03 -0.99465820593E+02  0.24457482881E+03  0.17200000000E+03 0. -1.
<mgrwt>
<rscale>  2 0.22343544E+03</rscale>
<asrwt>0</asrwt>
<pdfrwt beam="1">  1       21 0.21428543E+00 0.22343544E+03</pdfrwt>
<pdfrwt beam="2">  1       21 0.46981967E-01 0.22343544E+03</pdfrwt>
<totfact> 0.45618085E+02</totfact>
</mgrwt>
</event>
<event>
 4    1  0.1110581E+000  0.2188000E+03  0.7546771E-02  0.1134781E+00
         21   -1    0    0  501  502  0.00000000000E+00  0.00000000000E+00  0.29231730318E+03  0.29231730318E+03  0.00000000000E+00 0.  1.
         21   -1    0    0  502  503 -0.00000000000E+00 -0.00000000000E+00 -0.18911225414E+03  0.18911225414E+03  0.00000000000E+00 0.  1.
          6    1    1    2  501    0  0.11473451590E+03 -0.71592073217E+02  0.13971696571E+03  0.25960405350E+03  0.17200000000E+03 0.  1.
         -6    1    1    2    0  503 -0.11473451590E+03  0.71592073217E+02 -0.36511916678E+02  0.22182550382E+03  0.17200000000E+03 0.  1.
<mgrwt>
<rscale>  2 0.21879999E+03</rscale>
<asrwt>0</asrwt>
<pdfrwt beam="1">  1       21 0.73079325E-01 0.21879999E+03</pdfrwt>
<pdfrwt beam="2">  1       21 0.47278064E-01 0.21879999E+03</pdfrwt>
<totfact> 0.70768068E+03</totfact>
</mgrwt>
</event>
<event>
 4    1  0.1110581E+000  0.2654884E+03  0.7546771E-02  0.1103890E+00
         21   -1    0    0  503  502  0.00000000000E+00  0.00000000000E+00  0.10210818230E+04  0.10210818230E+04  0.00000000000E+00 0. -1.
         21   -1    0    0  501  503 -0.00000000000E+00 -0.00000000000E+00 -0.94188989528E+02  0.94188989528E+02  0.00000000000E+00 0. -1.
          6    1    1    2  501    0  0.10638521988E+03  0.17199493388E+03  0.17523773258E+03  0.31810742715E+03  0.17200000000E+03 0. -1.
         -6    1    1    2    0  502 -0.10638521988E+03 -0.17199493388E+03  0.75165510093E+03  0.79716338542E+03  0.17200000000E+03 0. -1.
<mgrwt>
<rscale>  2 0.26548837E+03</rscale>
<asrwt>0</asrwt>
<pdfrwt beam="1">  1       21 0.25527042E+00 0.26548837E+03</pdfrwt>
<pdfrwt beam="2">  1       21 0.23547251E-01 0.26548837E+03</pdfrwt>
<totfact> 0.97258081E+02</totfact>
</mgrwt>
</event>
<event>
 4    1  0.1110581E+000  0.1803198E+03  0.7546771E-02  0.1167494E+00
         21   -1    0    0  503  502  0.00000000000E+00  0.00000000000E+00  0.91607832777E+02  0.91607832777E+02  0.00000000000E+00 0.  1.
         21   -1    0    0  501  503 -0.00000000000E+00 -0.00000000000E+00 -0.49330311963E+03  0.49330311963E+03  0.00000000000E+00 0.  1.
          6    1    1    2  501    0 -0.53757206753E+02  0.64326755323E+01 -0.35573435427E+03  0.39882596130E+03  0.17200000000E+03 0. -1.
         -6    1    1    2    0  502  0.53757206753E+02 -0.64326755323E+01 -0.45960932575E+02  0.18608499111E+03  0.17200000000E+03 0. -1.
<mgrwt>
<rscale>  2 0.18031976E+03</rscale>
<asrwt>0</asrwt>
<pdfrwt beam="1">  1       21 0.22901959E-01 0.18031976E+03</pdfrwt>
<pdfrwt beam="2">  1       21 0.12332578E+00 0.18031976E+03</pdfrwt>
<totfact> 0.89095411E+03</totfact>
</mgrwt>
</event>
<event>
 4    1  0.1110581E+000  0.2193389E+03  0.7546771E-02  0.1134377E+00
         21   -1    0    0  501  502  0.00000000000E+00  0.00000000000E+00  0.37977535549E+03  0.37977535549E+03  0.00000000000E+00 0.  1.
         21   -1    0    0  502  503 -0.00000000000E+00 -0.00000000000E+00 -0.12828885236E+03  0.12828885236E+03  0.00000000000E+00 0.  1.
          6    1    1    2  501    0  0.12535452958E+02  0.13553006271E+03  0.97285755752E+02  0.23994593923E+03  0.17200000000E+03 0.  1.
         -6    1    1    2    0  503 -0.12535452958E+02 -0.13553006271E+03  0.15420074737E+03  0.26811826862E+03  0.17200000000E+03 0.  1.
<mgrwt>
<rscale>  2 0.21933886E+03</rscale>
<asrwt>0</asrwt>
<pdfrwt beam="1">  1       21 0.94943837E-01 0.21933886E+03</pdfrwt>
<pdfrwt beam="2">  1       21 0.32072214E-01 0.21933886E+03</pdfrwt>
<totfact> 0.85137687E+03</totfact>
</mgrwt>
</event>
<event>
 4    1  0.1110581E+000  0.2223874E+03  0.7546771E-02  0.1132116E+00
         21   -1    0    0  503  502  0.00000000000E+00  0.00000000000E+00  0.21581250872E+03  0.21581250872E+03  0.00000000000E+00 0. -1.
         21   -1    0    0  501  503 -0.00000000000E+00 -0.00000000000E+00 -0.22916588632E+03  0.22916588632E+03  0.00000000000E+00 0. -1.
          6    1    1    2  501    0  0.80622148084E+02 -0.11563829080E+03 -0.75254692217E+01  0.22251466861E+03  0.17200000000E+03 0. -1.
         -6    1    1    2    0  502 -0.80622148084E+02  0.11563829080E+03 -0.58279083770E+01  0.22246372643E+03  0.17200000000E+03 0. -1.
<mgrwt>
<rscale>  2 0.22238738E+03</rscale>
<asrwt>0</asrwt>
<pdfrwt beam="1">  1       21 0.53953127E-01 0.22238738E+03</pdfrwt>
<pdfrwt beam="2">  1       21 0.57291471E-01 0.22238738E+03</pdfrwt>
<totfact> 0.91071001E+03</totfact>
</mgrwt>
</event>
<event>
 4    1  0.1110581E+000  0.1966072E+03  0.7546771E-02  0.1152634E+00
         21   -1    0    0  503  502  0.00000000000E+00  0.00000000000E+00  0.65305357715E+02  0.65305357715E+02  0.00000000000E+00 0. -1.
         21   -1    0    0  501  503 -0.00000000000E+00 -0.00000000000E+00 -0.66329534152E+03  0.66329534152E+03  0.00000000000E+00 0. -1.
          6    1    1    2  501    0 -0.68992293073E+02  0.65653948551E+02 -0.41851337448E+03  0.46239357920E+03  0.17200000000E+03 0. -1.
         -6    1    1    2    0  502  0.68992293073E+02 -0.65653948551E+02 -0.17947660932E+03  0.26620712004E+03  0.17200000000E+03 0. -1.
<mgrwt>
<rscale>  2 0.19660717E+03</rscale>
<asrwt>0</asrwt>
<pdfrwt beam="1">  1       21 0.16326340E-01 0.19660717E+03</pdfrwt>
<pdfrwt beam="2">  1       21 0.16582383E+00 0.19660717E+03</pdfrwt>
<totfact> 0.76510464E+03</totfact>
</mgrwt>
</event>
<event>
 4    1  0.1110581E+000  0.1975373E+03  0.7546771E-02  0.1151834E+00
         21   -1    0    0  503  502  0.00000000000E+00  0.00000000000E+00  0.27697616445E+03  0.27697616445E+03  0.00000000000E+00 0. -1.
         21   -1    0    0  501  503 -0.00000000000E+00 -0.00000000000E+00 -0.25881668877E+03  0.25881668877E+03  0.00000000000E+00 0. -1.
          6    1    1    2  501    0  0.96613624573E+02 -0.10138337132E+02 -0.17175897891E+03  0.26176731112E+03  0.17200000000E+03 0. -1.
         -6    1    1    2    0  502 -0.96613624573E+02  0.10138337132E+02  0.18991845459E+03  0.27402554211E+03  0.17200000000E+03 0. -1.
<mgrwt>
<rscale>  2 0.19753728E+03</rscale>
<asrwt>0</asrwt>
<pdfrwt beam="1">  1       21 0.69244041E-01 0.19753728E+03</pdfrwt>
<pdfrwt beam="2">  1       21 0.64704172E-01 0.19753728E+03</pdfrwt>
<totfact> 0.41610440E+03</totfact>
</mgrwt>
</event>
<event>
 4    1  0.1110581E+000  0.2259737E+03  0.7546771E-02  0.1129506E+00
         21   -1    0    0  501  502  0.00000000000E+00  0.00000000000E+00  0.37880545045E+03  0.37880545045E+03  0.00000000000E+00 0. -1.
         21   -1    0    0  502  503 -0.00000000000E+00 -0.00000000000E+00 -0.16574846140E+03  0.16574846140E+03  0.00000000000E+00 0.  1.
          6    1    1    2  501    0 -0.13497695203E+03  0.57108123071E+02 -0.11119502536E+02  0.22624711852E+03  0.17200000000E+03 0.  1.
         -6    1    1    2    0  503  0.13497695203E+03 -0.57108123071E+02  0.22417649158E+03  0.31830679333E+03  0.17200000000E+03 0. -1.
<mgrwt>
<rscale>  2 0.22597370E+03</rscale>
<asrwt>0</asrwt>
<pdfrwt beam="1">  1       21 0.94701361E-01 0.22597370E+03</pdfrwt>
<pdfrwt beam="2">  1       21 0.41437116E-01 0.22597370E+03</pdfrwt>
<totfact> 0.51043218E+03</totfact>
</mgrwt>
</event>
<event>
 4    1  0.1110581E+000  0.2647677E+03  0.7546771E-02  0.1104312E+00
         21   -1    0    0  503  502  0.00000000000E+00  0.00000000000E+00  0.15423704910E+03  0.15423704910E+03  0.00000000000E+00 0.  1.
         21   -1    0    0  501  503 -0.00000000000E+00 -0.00000000000E+00 -0.15515163055E+04  0.15515163055E+04  0.00000000000E+00 0. -1.
          6    1    1    2  501    0  0.14188660816E+03  0.14278002607E+03 -0.14157946753E+04  0.14403390254E+04  0.17200000000E+03 0. -1.
         -6    1    1    2    0  502 -0.14188660816E+03 -0.14278002607E+03  0.18515418903E+02  0.26541432922E+03  0.17200000000E+03 0.  1.
<mgrwt>
<rscale>  2 0.26476772E+03</rscale>
<asrwt>0</asrwt>
<pdfrwt beam="1">  1       21 0.38559262E-01 0.26476772E+03</pdfrwt>
<pdfrwt beam="2">  1       21 0.38787908E+00 0.26476772E+03</pdfrwt>
<totfact> 0.59908943E+01</totfact>
</mgrwt>
</event>
<event>
 4    1  0.1110581E+000  0.1887572E+03  0.7546771E-02  0.1159587E+00
         21   -1    0    0  503  502  0.00000000000E+00  0.00000000000E+00  0.65723241187E+03  0.65723241187E+03  0.00000000000E+00 0.  1.
         21   -1    0    0  501  503 -0.00000000000E+00 -0.00000000000E+00 -0.63895161954E+02  0.63895161954E+02  0.00000000000E+00 0.  1.
          6    1    1    2  501    0 -0.28919663182E+02  0.72172943968E+02  0.43703958879E+03  0.47605974723E+03  0.17200000000E+03 0.  1.
         -6    1    1    2    0  502  0.28919663182E+02 -0.72172943968E+02  0.15629766112E+03  0.24506782660E+03  0.17200000000E+03 0.  1.
<mgrwt>
<rscale>  2 0.18875720E+03</rscale>
<asrwt>0</asrwt>
<pdfrwt beam="1">  1       21 0.16430808E+00 0.18875720E+03</pdfrwt>
<pdfrwt beam="2">  1       21 0.15973792E-01 0.18875720E+03</pdfrwt>
<totfact> 0.82170446E+03</totfact>
</mgrwt>
</event>
<event>
 4    1  0.1110581E+000  0.2810868E+03  0.7546771E-02  0.1095097E+00
         21   -1    0    0  503  502  0.00000000000E+00  0.00000000000E+00  0.24404941662E+03  0.24404941662E+03  0.00000000000E+00 0.  1.
         21   -1    0    0  501  503 -0.00000000000E+00 -0.00000000000E+00 -0.32860665618E+03  0.32860665618E+03  0.00000000000E+00 0. -1.
          6    1    1    2  501    0  0.21004162552E+03 -0.72857976869E+02 -0.77105894381E+02  0.29147056145E+03  0.17200000000E+03 0. -1.
         -6    1    1    2    0  502 -0.21004162552E+03  0.72857976869E+02 -0.74513451777E+01  0.28118551135E+03  0.17200000000E+03 0.  1.
<mgrwt>
<rscale>  2 0.28108676E+03</rscale>
<asrwt>0</asrwt>
<pdfrwt beam="1">  1       21 0.61012355E-01 0.28108676E+03</pdfrwt>
<pdfrwt beam="2">  1       21 0.82151664E-01 0.28108676E+03</pdfrwt>
<totfact> 0.30392856E+03</totfact>
</mgrwt>
</event>
<event>
 4    1  0.1110581E+000  0.1748035E+03  0.7546771E-02  0.1172929E+00
         21   -1    0    0  503  502  0.00000000000E+00  0.00000000000E+00  0.94741423793E+03  0.94741423793E+03  0.00000000000E+00 0. -1.
         21   -1    0    0  501  503 -0.00000000000E+00 -0.00000000000E+00 -0.77974363370E+02  0.77974363370E+02  0.00000000000E+00 0. -1.
          6    1    1    2  501    0  0.31158259241E+02 -0.12002137115E+01  0.42124240894E+02  0.17980747844E+03  0.17200000000E+03 0. -1.
         -6    1    1    2    0  502 -0.31158259241E+02  0.12002137115E+01  0.82731563367E+03  0.84558112286E+03  0.17200000000E+03 0. -1.
<mgrwt>
<rscale>  2 0.17480354E+03</rscale>
<asrwt>0</asrwt>
<pdfrwt beam="1">  1       21 0.23685352E+00 0.17480354E+03</pdfrwt>
<pdfrwt beam="2">  1       21 0.19493594E-01 0.17480354E+03</pdfrwt>
<totfact> 0.19669117E+03</totfact>
</mgrwt>
</event>
<event>
 4    1  0.1110581E+000  0.3144737E+03  0.7546771E-02  0.1078221E+00
         21   -1    0    0  501  502  0.00000000000E+00  0.00000000000E+00  0.19753602799E+03  0.19753602799E+03  0.00000000000E+00 0. -1.
         21   -1    0    0  502  503 -0.00000000000E+00 -0.00000000000E+00 -0.52188083991E+03  0.52188083991E+03  0.00000000000E+00 0.  1.
          6    1    1    2  501    0  0.13535260600E+03 -0.22580830992E+03 -0.89597270779E+02  0.32698836632E+03  0.17200000000E+03 0. -1.
         -6    1    1    2    0  503 -0.13535260600E+03  0.22580830992E+03 -0.23474754115E+03  0.39242850158E+03  0.17200000000E+03 0.  1.
<mgrwt>
<rscale>  2 0.31447372E+03</rscale>
<asrwt>0</asrwt>
<pdfrwt beam="1">  1       21 0.49384007E-01 0.31447372E+03</pdfrwt>
<pdfrwt beam="2">  1       21 0.13047021E+00 0.31447372E+03</pdfrwt>
<totfact> 0.15269586E+03</totfact>
</mgrwt>
</event>
<event>
 4    1  0.1110581E+000  0.2103098E+03  0.7546771E-02  0.1141321E+00
         21   -1    0    0  503  502  0.00000000000E+00  0.00000000000E+00  0.12844376485E+03  0.12844376485E+03  0.00000000000E+00 0.  1.
         21   -1    0    0  501  503 -0.00000000000E+00 -0.00000000000E+00 -0.37944350889E+03  0.37944350889E+03  0.00000000000E+00 0. -1.
          6    1    1    2  501    0  0.10677778760E+03  0.56962548800E+02 -0.20272300556E+03  0.29210759126E+03  0.17200000000E+03 0. -1.
         -6    1    1    2    0  502 -0.10677778760E+03 -0.56962548800E+02 -0.48276738483E+02  0.21577968248E+03  0.17200000000E+03 0.  1.
<mgrwt>
<rscale>  2 0.21030984E+03</rscale>
<asrwt>0</asrwt>
<pdfrwt beam="1">  1       21 0.32110941E-01 0.21030984E+03</pdfrwt>
<pdfrwt beam="2">  1       21 0.94860877E-01 0.21030984E+03</pdfrwt>
<totfact> 0.85630297E+03</totfact>
</mgrwt>
</event>
<event>
 4    1  0.1110581E+000  0.2000008E+03  0.7546771E-02  0.1149738E+00
         21   -1    0    0  503  502  0.00000000000E+00  0.00000000000E+00  0.69660487066E+02  0.69660487066E+02  0.00000000000E+00 0. -1.
         21   -1    0    0  501  503 -0.00000000000E+00 -0.00000000000E+00 -0.57422126355E+03  0.57422126355E+03  0.00000000000E+00 0. -1.
          6    1    1    2  501    0  0.65061878771E+02  0.78633882474E+02 -0.25156527736E+03  0.32138049772E+03  0.17200000000E+03 0. -1.
         -6    1    1    2    0  502 -0.65061878771E+02 -0.78633882474E+02 -0.25299549913E+03  0.32250125290E+03  0.17200000000E+03 0. -1.
<mgrwt>
<rscale>  2 0.20000084E+03</rscale>
<asrwt>0</asrwt>
<pdfrwt beam="1">  1       21 0.17415122E-01 0.20000084E+03</pdfrwt>
<pdfrwt beam="2">  1       21 0.14355532E+00 0.20000084E+03</pdfrwt>
<totfact> 0.99507885E+03</totfact>
</mgrwt>
</event>
<event>
 4    1  0.1110581E+000  0.1837820E+03  0.7546771E-02  0.1164192E+00
         21   -1    0    0  501  502  0.00000000000E+00  0.00000000000E+00  0.13224683843E+03  0.13224683843E+03  0.00000000000E+00 0.  1.
         21   -1    0    0  502  503 -0.00000000000E+00 -0.00000000000E+00 -0.61921388708E+03  0.61921388708E+03  0.00000000000E+00 0.  1.
          6    1    1    2  501    0 -0.64048143481E+02 -0.94683629891E+01  0.44518612712E+02  0.18909712176E+03  0.17200000000E+03 0.  1.
         -6    1    1    2    0  503  0.64048143481E+02  0.94683629891E+01 -0.53148566137E+03  0.56236360375E+03  0.17200000000E+03 0.  1.
<mgrwt>
<rscale>  2 0.18378198E+03</rscale>
<asrwt>0</asrwt>
<pdfrwt beam="1">  1       21 0.33061710E-01 0.18378198E+03</pdfrwt>
<pdfrwt beam="2">  1       21 0.15480347E+00 0.18378198E+03</pdfrwt>
<totfact> 0.24428744E+03</totfact>
</mgrwt>
</event>
<event>
 4    1  0.1110581E+000  0.4383809E+03  0.7546771E-02  0.1031245E+00
         21   -1    0    0  501  502  0.00000000000E+00  0.00000000000E+00  0.18949610957E+03  0.18949610957E+03  0.00000000000E+00 0. -1.
         21   -1    0    0  502  503 -0.00000000000E+00 -0.00000000000E+00 -0.10494138413E+04  0.10494138413E+04  0.00000000000E+00 0.  1.
          6    1    1    2  501    0 -0.39451787829E+03  0.83363472779E+02 -0.31640813396E+03  0.54064029827E+03  0.17200000000E+03 0.  1.
         -6    1    1    2    0  503  0.39451787829E+03 -0.83363472779E+02 -0.54350959778E+03  0.69826965262E+03  0.17200000000E+03 0. -1.
<mgrwt>
<rscale>  2 0.43838091E+03</rscale>
<asrwt>0</asrwt>
<pdfrwt beam="1">  1       21 0.47374028E-01 0.43838091E+03</pdfrwt>
<pdfrwt beam="2">  1       21 0.26235346E+00 0.43838091E+03</pdfrwt>
<totfact> 0.19146073E+02</totfact>
</mgrwt>
</event>
<event>
 4    1  0.1110581E+000  0.2546697E+03  0.7546771E-02  0.1110389E+00
         21   -1    0    0  501  502  0.00000000000E+00  0.00000000000E+00  0.26600844954E+03  0.26600844954E+03  0.00000000000E+00 0.  1.
         21   -1    0    0  502  503 -0.00000000000E+00 -0.00000000000E+00 -0.56580973561E+03  0.56580973561E+03  0.00000000000E+00 0. -1.
          6    1    1    2  501    0  0.13574524721E+03  0.12979165824E+03  0.16385251690E+03  0.30282716850E+03  0.17200000000E+03 0.  1.
         -6    1    1    2    0  503 -0.13574524721E+03 -0.12979165824E+03 -0.46365380297E+03  0.52899101665E+03  0.17200000000E+03 0. -1.
<mgrwt>
<rscale>  2 0.25466968E+03</rscale>
<asrwt>0</asrwt>
<pdfrwt beam="1">  1       21 0.66502113E-01 0.25466968E+03</pdfrwt>
<pdfrwt beam="2">  1       21 0.14145243E+00 0.25466968E+03</pdfrwt>
<totfact> 0.68074507E+02</totfact>
</mgrwt>
</event>
<event>
 4    1  0.1110581E+000  0.1952388E+03  0.7546771E-02  0.1153819E+00
         21   -1    0    0  503  502  0.00000000000E+00  0.00000000000E+00  0.48824363374E+03  0.48824363374E+03  0.00000000000E+00 0. -1.
         21   -1    0    0  501  503 -0.00000000000E+00 -0.00000000000E+00 -0.93226591214E+02  0.93226591214E+02  0.00000000000E+00 0.  1.
          6    1    1    2  501    0  0.67415067784E+02 -0.63161552858E+02  0.80289194711E+02  0.21110312151E+03  0.17200000000E+03 0.  1.
         -6    1    1    2    0  502 -0.67415067784E+02  0.63161552858E+02  0.31472784781E+03  0.37036710344E+03  0.17200000000E+03 0. -1.
<mgrwt>
<rscale>  2 0.19523876E+03</rscale>
<asrwt>0</asrwt>
<pdfrwt beam="1">  1       21 0.12206090E+00 0.19523876E+03</pdfrwt>
<pdfrwt beam="2">  1       21 0.23306649E-01 0.19523876E+03</pdfrwt>
<totfact> 0.87453975E+03</totfact>
</mgrwt>
</event>
<event>
 4    1  0.1110581E+000  0.1720653E+03  0.7546771E-02  0.1175711E+00
         21   -1    0    0  501  502  0.00000000000E+00  0.00000000000E+00  0.22820469047E+03  0.22820469047E+03  0.00000000000E+00 0. -1.
         21   -1    0    0  502  503 -0.00000000000E+00 -0.00000000000E+00 -0.15608420758E+03  0.15608420758E+03  0.00000000000E+00 0. -1.
          6    1    1    2  501    0 -0.46623855149E+01  0.86170598406E+00  0.11500434286E+03  0.20696009097E+03  0.17200000000E+03 0. -1.
         -6    1    1    2    0  503  0.46623855149E+01 -0.86170598406E+00 -0.42883859970E+02  0.17732880708E+03  0.17200000000E+03 0. -1.
<mgrwt>
<rscale>  2 0.17206534E+03</rscale>
<asrwt>0</asrwt>
<pdfrwt beam="1">  1       21 0.57051172E-01 0.17206534E+03</pdfrwt>
<pdfrwt beam="2">  1       21 0.39021052E-01 0.17206534E+03</pdfrwt>
<totfact> 0.18509217E+04</totfact>
</mgrwt>
</event>
<event>
 4    1  0.1110581E+000  0.1876728E+03  0.7546771E-02  0.1160577E+00
         21   -1    0    0  501  502  0.00000000000E+00  0.00000000000E+00  0.13515517550E+03  0.13515517550E+03  0.00000000000E+00 0. -1.
         21   -1    0    0  502  503 -0.00000000000E+00 -0.00000000000E+00 -0.28188475881E+03  0.28188475881E+03  0.00000000000E+00 0. -1.
          6    1    1    2  501    0 -0.70486586477E+02 -0.25859634642E+02 -0.16062323836E+02  0.18835890694E+03  0.17200000000E+03 0. -1.
         -6    1    1    2    0  503  0.70486586477E+02  0.25859634642E+02 -0.13066725948E+03  0.22868102737E+03  0.17200000000E+03 0. -1.
<mgrwt>
<rscale>  2 0.18767280E+03</rscale>
<asrwt>0</asrwt>
<pdfrwt beam="1">  1       21 0.33788794E-01 0.18767280E+03</pdfrwt>
<pdfrwt beam="2">  1       21 0.70471189E-01 0.18767280E+03</pdfrwt>
<totfact> 0.15453509E+04</totfact>
</mgrwt>
</event>
<event>
 4    1  0.1110581E+000  0.1842319E+03  0.7546771E-02  0.1163769E+00
         21   -1    0    0  503  502  0.00000000000E+00  0.00000000000E+00  0.16886655223E+03  0.16886655223E+03  0.00000000000E+00 0. -1.
         21   -1    0    0  501  503 -0.00000000000E+00 -0.00000000000E+00 -0.20569133888E+03  0.20569133888E+03  0.00000000000E+00 0. -1.
          6    1    1    2  501    0  0.75010842046E+01 -0.65583047225E+02 -0.46709470928E+02  0.19006098238E+03  0.17200000000E+03 0.  1.
         -6    1    1    2    0  502 -0.75010842046E+01  0.65583047225E+02  0.98846842837E+01  0.18449690873E+03  0.17200000000E+03 0.  1.
<mgrwt>
<rscale>  2 0.18423193E+03</rscale>
<asrwt>0</asrwt>
<pdfrwt beam="1">  1       21 0.42216638E-01 0.18423193E+03</pdfrwt>
<pdfrwt beam="2">  1       21 0.51422834E-01 0.18423193E+03</pdfrwt>
<totfact> 0.19500035E+04</totfact>
</mgrwt>
</event>
<event>
 4    1  0.1110581E+000  0.1960069E+03  0.7546771E-02  0.1153152E+00
         21   -1    0    0  503  502  0.00000000000E+00  0.00000000000E+00  0.19295841626E+03  0.19295841626E+03  0.00000000000E+00 0.  1.
         21   -1    0    0  501  503 -0.00000000000E+00 -0.00000000000E+00 -0.46399330186E+03  0.46399330186E+03  0.00000000000E+00 0. -1.
          6    1    1    2  501    0  0.91989118056E+02 -0.19305308652E+02 -0.38370513147E+03  0.43086926172E+03  0.17200000000E+03 0. -1.
         -6    1    1    2    0  502 -0.91989118056E+02  0.19305308652E+02  0.11267024588E+03  0.22608245639E+03  0.17200000000E+03 0.  1.
<mgrwt>
<rscale>  2 0.19600687E+03</rscale>
<asrwt>0</asrwt>
<pdfrwt beam="1">  1       21 0.48239604E-01 0.19600687E+03</pdfrwt>
<pdfrwt beam="2">  1       21 0.11599832E+00 0.19600687E+03</pdfrwt>
<totfact> 0.23494809E+03</totfact>
</mgrwt>
</event>
<event>
 4    1  0.1110581E+000  0.3540218E+03  0.7546771E-02  0.1060976E+00
         21   -1    0    0  501  502  0.00000000000E+00  0.00000000000E+00  0.22524227635E+03  0.22524227635E+03  0.00000000000E+00 0.  1.
         21   -1    0    0  502  503 -0.00000000000E+00 -0.00000000000E+00 -0.60207063186E+03  0.60207063186E+03  0.00000000000E+00 0. -1.
          6    1    1    2  501    0 -0.27180677750E+03 -0.14788011862E+03 -0.30230642105E+03  0.46553262613E+03  0.17200000000E+03 0.  1.
         -6    1    1    2    0  503  0.27180677750E+03  0.14788011862E+03 -0.74521934458E+02  0.36178028207E+03  0.17200000000E+03 0. -1.
<mgrwt>
<rscale>  2 0.35402183E+03</rscale>
<asrwt>0</asrwt>
<pdfrwt beam="1">  1       21 0.56310569E-01 0.35402183E+03</pdfrwt>
<pdfrwt beam="2">  1       21 0.15051766E+00 0.35402183E+03</pdfrwt>
<totfact> 0.77443725E+02</totfact>
</mgrwt>
</event>
<event>
 4    1  0.1110581E+000  0.1945358E+03  0.7546771E-02  0.1154433E+00
         21   -1    0    0  501  502  0.00000000000E+00  0.00000000000E+00  0.10680124312E+03  0.10680124312E+03  0.00000000000E+00 0. -1.
         21   -1    0    0  502  503 -0.00000000000E+00 -0.00000000000E+00 -0.46933081023E+03  0.46933081023E+03  0.00000000000E+00 0. -1.
          6    1    1    2  501    0  0.87076478024E+02  0.26035951322E+02 -0.38677765370E+02  0.19834352352E+03  0.17200000000E+03 0. -1.
         -6    1    1    2    0  503 -0.87076478024E+02 -0.26035951322E+02 -0.32385180174E+03  0.37778852984E+03  0.17200000000E+03 0. -1.
<mgrwt>
<rscale>  2 0.19453582E+03</rscale>
<asrwt>0</asrwt>
<pdfrwt beam="1">  1       21 0.26700311E-01 0.19453582E+03</pdfrwt>
<pdfrwt beam="2">  1       21 0.11733270E+00 0.19453582E+03</pdfrwt>
<totfact> 0.74432310E+03</totfact>
</mgrwt>
</event>
<event>
 4    1  0.1110581E+000  0.2104695E+03  0.7546771E-02  0.1141195E+00
         21   -1    0    0  501  502  0.00000000000E+00  0.00000000000E+00  0.36387729862E+03  0.36387729862E+03  0.00000000000E+00 0.  1.
         21   -1    0    0  502  503 -0.00000000000E+00 -0.00000000000E+00 -0.12754878747E+03  0.12754878747E+03  0.00000000000E+00 0. -1.
          6    1    1    2  501    0  0.39993947459E+02  0.11451596672E+03  0.17061304669E+03  0.27093584880E+03  0.17200000000E+03 0.  1.
         -6    1    1    2    0  503 -0.39993947459E+02 -0.11451596672E+03  0.65715464458E+02  0.22049023728E+03  0.17200000000E+03 0. -1.
<mgrwt>
<rscale>  2 0.21046953E+03</rscale>
<asrwt>0</asrwt>
<pdfrwt beam="1">  1       21 0.90969322E-01 0.21046953E+03</pdfrwt>
<pdfrwt beam="2">  1       21 0.31887198E-01 0.21046953E+03</pdfrwt>
<totfact> 0.95730601E+03</totfact>
</mgrwt>
</event>
<event>
 4    1  0.1110581E+000  0.1765437E+03  0.7546771E-02  0.1171191E+00
         21   -1    0    0  501  502  0.00000000000E+00  0.00000000000E+00  0.59119862607E+03  0.59119862607E+03  0.00000000000E+00 0. -1.
         21   -1    0    0  502  503 -0.00000000000E+00 -0.00000000000E+00 -0.16404883572E+03  0.16404883572E+03  0.00000000000E+00 0. -1.
          6    1    1    2  501    0  0.16109544289E+02 -0.36388938901E+02  0.52465883419E+03  0.55356532097E+03  0.17200000000E+03 0. -1.
         -6    1    1    2    0  503 -0.16109544289E+02  0.36388938901E+02 -0.97509043838E+02  0.20168214081E+03  0.17200000000E+03 0. -1.
<mgrwt>
<rscale>  2 0.17654368E+03</rscale>
<asrwt>0</asrwt>
<pdfrwt beam="1">  1       21 0.14779965E+00 0.17654368E+03</pdfrwt>
<pdfrwt beam="2">  1       21 0.41012210E-01 0.17654368E+03</pdfrwt>
<totfact> 0.18083621E+03</totfact>
</mgrwt>
</event>
<event>
 4    1  0.1110581E+000  0.2180509E+03  0.7546771E-02  0.1135345E+00
         21   -1    0    0  503  502  0.00000000000E+00  0.00000000000E+00  0.76578787509E+03  0.76578787509E+03  0.00000000000E+00 0. -1.
         21   -1    0    0  501  503 -0.00000000000E+00 -0.00000000000E+00 -0.64246136984E+02  0.64246136984E+02  0.00000000000E+00 0. -1.
          6    1    1    2  501    0  0.10889403831E+03  0.78129984846E+02  0.42683607102E+03  0.47930703900E+03  0.17200000000E+03 0. -1.
         -6    1    1    2    0  502 -0.10889403831E+03 -0.78129984846E+02  0.27470566709E+03  0.35072697307E+03  0.17200000000E+03 0. -1.
<mgrwt>
<rscale>  2 0.21805093E+03</rscale>
<asrwt>0</asrwt>
<pdfrwt beam="1">  1       21 0.19144694E+00 0.21805093E+03</pdfrwt>
<pdfrwt beam="2">  1       21 0.16061537E-01 0.21805093E+03</pdfrwt>
<totfact> 0.51676030E+03</totfact>
</mgrwt>
</event>
<event>
 4    1  0.1110581E+000  0.3244146E+03  0.7546771E-02  0.1073635E+00
         21   -1    0    0  501  502  0.00000000000E+00  0.00000000000E+00  0.16953224960E+03  0.16953224960E+03  0.00000000000E+00 0.  1.
         21   -1    0    0  502  503 -0.00000000000E+00 -0.00000000000E+00 -0.71679336049E+03  0.71679336049E+03  0.00000000000E+00 0. -1.
          6    1    1    2  501    0 -0.14415239480E+03 -0.23426675159E+03 -0.11145046286E+03  0.34302482344E+03  0.17200000000E+03 0. -1.
         -6    1    1    2    0  503  0.14415239480E+03  0.23426675159E+03 -0.43581064803E+03  0.54330078664E+03  0.17200000000E+03 0.  1.
<mgrwt>
<rscale>  2 0.32441459E+03</rscale>
<asrwt>0</asrwt>
<pdfrwt beam="1">  1       21 0.42383063E-01 0.32441459E+03</pdfrwt>
<pdfrwt beam="2">  1       21 0.17919834E+00 0.32441459E+03</pdfrwt>
<totfact> 0.88303085E+02</totfact>
</mgrwt>
</event>
<event>
 4    1  0.1110581E+000  0.2694894E+03  0.7546771E-02  0.1101572E+00
         21   -1    0    0  501  502  0.00000000000E+00  0.00000000000E+00  0.86344581486E+03  0.86344581486E+03  0.00000000000E+00 0. -1.
         21   -1    0    0  502  503 -0.00000000000E+00 -0.00000000000E+00 -0.12152481151E+03  0.12152481151E+03  0.00000000000E+00 0.  1.
          6    1    1    2  501    0  0.94819901576E+02  0.18452572891E+03  0.64422405205E+03  0.69831882948E+03  0.17200000000E+03 0. -1.
         -6    1    1    2    0  503 -0.94819901576E+02 -0.18452572891E+03  0.97696951301E+02  0.28665179688E+03  0.17200000000E+03 0.  1.
<mgrwt>
<rscale>  2 0.26948944E+03</rscale>
<asrwt>0</asrwt>
<pdfrwt beam="1">  1       21 0.21586144E+00 0.26948944E+03</pdfrwt>
<pdfrwt beam="2">  1       21 0.30381205E-01 0.26948944E+03</pdfrwt>
<totfact> 0.10285861E+03</totfact>
</mgrwt>
</event>
<event>
 4    1  0.1110581E+000  0.1977846E+03  0.7546771E-02  0.1151622E+00
         21   -1    0    0  503  502  0.00000000000E+00  0.00000000000E+00  0.13157730049E+03  0.13157730049E+03  0.00000000000E+00 0. -1.
         21   -1    0    0  501  503 -0.00000000000E+00 -0.00000000000E+00 -0.30829470012E+03  0.30829470012E+03  0.00000000000E+00 0. -1.
          6    1    1    2  501    0 -0.68475577689E+02  0.69612022344E+02 -0.12988123165E+03  0.23661756640E+03  0.17200000000E+03 0. -1.
         -6    1    1    2    0  502  0.68475577689E+02 -0.69612022344E+02 -0.46836167973E+02  0.20325443421E+03  0.17200000000E+03 0. -1.
<mgrwt>
<rscale>  2 0.19778458E+03</rscale>
<asrwt>0</asrwt>
<pdfrwt beam="1">  1       21 0.32894325E-01 0.19778458E+03</pdfrwt>
<pdfrwt beam="2">  1       21 0.77073674E-01 0.19778458E+03</pdfrwt>
<totfact> 0.13262383E+04</totfact>
</mgrwt>
</event>
<event>
 4    1  0.1110581E+000  0.1735183E+03  0.7546771E-02  0.1174228E+00
         21   -1    0    0  503  502  0.00000000000E+00  0.00000000000E+00  0.78839875420E+02  0.78839875420E+02  0.00000000000E+00 0.  1.
         21   -1    0    0  501  503 -0.00000000000E+00 -0.00000000000E+00 -0.38405559319E+03  0.38405559319E+03  0.00000000000E+00 0.  1.
          6    1    1    2  501    0  0.13960457628E+02  0.18157619438E+02 -0.16996556325E+03  0.24289274631E+03  0.17200000000E+03 0.  1.
         -6    1    1    2    0  502 -0.13960457628E+02 -0.18157619438E+02 -0.13525015453E+03  0.22000272230E+03  0.17200000000E+03 0.  1.
<mgrwt>
<rscale>  2 0.17351828E+03</rscale>
<asrwt>0</asrwt>
<pdfrwt beam="1">  1       21 0.19709969E-01 0.17351828E+03</pdfrwt>
<pdfrwt beam="2">  1       21 0.96013896E-01 0.17351828E+03</pdfrwt>
<totfact> 0.21687415E+04</totfact>
</mgrwt>
</event>
<event>
 4    1  0.1110581E+000  0.1975485E+03  0.7546771E-02  0.1151824E+00
         21   -1    0    0  503  502  0.00000000000E+00  0.00000000000E+00  0.24229656805E+03  0.24229656805E+03  0.00000000000E+00 0. -1.
         21   -1    0    0  501  503 -0.00000000000E+00 -0.00000000000E+00 -0.27978005598E+03  0.27978005598E+03  0.00000000000E+00 0.  1.
          6    1    1    2  501    0  0.79130909454E+02  0.56388904585E+02 -0.18878109401E+03  0.27324661178E+03  0.17200000000E+03 0.  1.
         -6    1    1    2    0  502 -0.79130909454E+02 -0.56388904585E+02  0.15129760609E+03  0.24883001226E+03  0.17200000000E+03 0. -1.
<mgrwt>
<rscale>  2 0.19754850E+03</rscale>
<asrwt>0</asrwt>
<pdfrwt beam="1">  1       21 0.60574142E-01 0.19754850E+03</pdfrwt>
<pdfrwt beam="2">  1       21 0.69945014E-01 0.19754850E+03</pdfrwt>
<totfact> 0.46940189E+03</totfact>
</mgrwt>
</event>
<event>
 4    1  0.1110581E+000  0.2055234E+03  0.7546771E-02  0.1145161E+00
         21   -1    0    0  501  502  0.00000000000E+00  0.00000000000E+00  0.95518296031E+02  0.95518296031E+02  0.00000000000E+00 0.  1.
         21   -1    0    0  502  503 -0.00000000000E+00 -0.00000000000E+00 -0.65499717815E+03  0.65499717815E+03  0.00000000000E+00 0.  1.
          6    1    1    2  501    0 -0.11237452056E+03  0.52763281248E+01 -0.65857112735E+02  0.21581712584E+03  0.17200000000E+03 0.  1.
         -6    1    1    2    0  503  0.11237452056E+03 -0.52763281248E+01 -0.49362176939E+03  0.53469834834E+03  0.17200000000E+03 0.  1.
<mgrwt>
<rscale>  2 0.20552341E+03</rscale>
<asrwt>0</asrwt>
<pdfrwt beam="1">  1       21 0.23879575E-01 0.20552341E+03</pdfrwt>
<pdfrwt beam="2">  1       21 0.16374929E+00 0.20552341E+03</pdfrwt>
<totfact> 0.38631855E+03</totfact>
</mgrwt>
</event>
<event>
 4    1  0.1110581E+000  0.2036554E+03  0.7546771E-02  0.1146691E+00
         21   -1    0    0  501  502  0.00000000000E+00  0.00000000000E+00  0.13831348744E+03  0.13831348744E+03  0.00000000000E+00 0. -1.
         21   -1    0    0  502  503 -0.00000000000E+00 -0.00000000000E+00 -0.90050292778E+03  0.90050292778E+03  0.00000000000E+00 0. -1.
          6    1    1    2  501    0 -0.49853954786E+02  0.96984976651E+02  0.43106861619E+02  0.20816749031E+03  0.17200000000E+03 0. -1.
         -6    1    1    2    0  503  0.49853954786E+02 -0.96984976651E+02 -0.80529630196E+03  0.83064892491E+03  0.17200000000E+03 0. -1.
<mgrwt>
<rscale>  2 0.20365535E+03</rscale>
<asrwt>0</asrwt>
<pdfrwt beam="1">  1       21 0.34578373E-01 0.20365535E+03</pdfrwt>
<pdfrwt beam="2">  1       21 0.22512573E+00 0.20365535E+03</pdfrwt>
<totfact> 0.74467193E+02</totfact>
</mgrwt>
</event>
<event>
 4    1  0.1110581E+000  0.1970712E+03  0.7546771E-02  0.1152234E+00
         21   -1    0    0  501  502  0.00000000000E+00  0.00000000000E+00  0.11806535137E+03  0.11806535137E+03  0.00000000000E+00 0.  1.
         21   -1    0    0  502  503 -0.00000000000E+00 -0.00000000000E+00 -0.68036395878E+03  0.68036395878E+03  0.00000000000E+00 0.  1.
          6    1    1    2  501    0 -0.89743067509E+02 -0.34629941299E+02  0.57623506054E+01  0.19715540998E+03  0.17200000000E+03 0.  1.
         -6    1    1    2    0  503  0.89743067509E+02  0.34629941299E+02 -0.56806095801E+03  0.60127390017E+03  0.17200000000E+03 0.  1.
<mgrwt>
<rscale>  2 0.19707118E+03</rscale>
<asrwt>0</asrwt>
<pdfrwt beam="1">  1       21 0.29516338E-01 0.19707118E+03</pdfrwt>
<pdfrwt beam="2">  1       21 0.17009099E+00 0.19707118E+03</pdfrwt>
<totfact> 0.23335186E+03</totfact>
</mgrwt>
</event>
<event>
 4    1  0.1110581E+000  0.1790831E+03  0.7546771E-02  0.1168693E+00
         21   -1    0    0  501  502  0.00000000000E+00  0.00000000000E+00  0.11217018305E+03  0.11217018305E+03  0.00000000000E+00 0.  1.
         21   -1    0    0  502  503 -0.00000000000E+00 -0.00000000000E+00 -0.32344776281E+03  0.32344776281E+03  0.00000000000E+00 0. -1.
          6    1    1    2  501    0  0.49760560363E+02 -0.32636034225E+01 -0.31439761624E+02  0.18182195436E+03  0.17200000000E+03 0.  1.
         -6    1    1    2    0  503 -0.49760560363E+02  0.32636034225E+01 -0.17983781814E+03  0.25379599151E+03  0.17200000000E+03 0. -1.
<mgrwt>
<rscale>  2 0.17908312E+03</rscale>
<asrwt>0</asrwt>
<pdfrwt beam="1">  1       21 0.28042546E-01 0.17908312E+03</pdfrwt>
<pdfrwt beam="2">  1       21 0.80861940E-01 0.17908312E+03</pdfrwt>
<totfact> 0.16448077E+04</totfact>
</mgrwt>
</event>
<event>
 4    1  0.1110581E+000  0.2519144E+03  0.7546771E-02  0.1112101E+00
         21   -1    0    0  501  502  0.00000000000E+00  0.00000000000E+00  0.43971068305E+03  0.43971068305E+03  0.00000000000E+00 0.  1.
         21   -1    0    0  502  503 -0.00000000000E+00 -0.00000000000E+00 -0.27445760518E+03  0.27445760518E+03  0.00000000000E+00 0.  1.
          6    1    1    2  501    0  0.92463955170E+02 -0.15914548759E+03  0.32850892399E+03  0.41397944679E+03  0.17200000000E+03 0.  1.
         -6    1    1    2    0  503 -0.92463955170E+02  0.15914548759E+03 -0.16325584613E+03  0.30018884143E+03  0.17200000000E+03 0.  1.
<mgrwt>
<rscale>  2 0.25191441E+03</rscale>
<asrwt>0</asrwt>
<pdfrwt beam="1">  1       21 0.10992767E+00 0.25191441E+03</pdfrwt>
<pdfrwt beam="2">  1       21 0.68614402E-01 0.25191441E+03</pdfrwt>
<totfact> 0.12025061E+03</totfact>
</mgrwt>
</event>
<event>
 4    1  0.1110581E+000  0.1792791E+03  0.7546771E-02  0.1168503E+00
         21   -1    0    0  503  502  0.00000000000E+00  0.00000000000E+00  0.13682329236E+03  0.13682329236E+03  0.00000000000E+00 0. -1.
         21   -1    0    0  501  503 -0.00000000000E+00 -0.00000000000E+00 -0.55837910192E+03  0.55837910192E+03  0.00000000000E+00 0. -1.
          6    1    1    2  501    0  0.16142654231E+02  0.47920776263E+02 -0.47534384818E+03  0.50802830638E+03  0.17200000000E+03 0. -1.
         -6    1    1    2    0  502 -0.16142654231E+02 -0.47920776263E+02  0.53788038624E+02  0.18717408790E+03  0.17200000000E+03 0. -1.
<mgrwt>
<rscale>  2 0.17927907E+03</rscale>
<asrwt>0</asrwt>
<pdfrwt beam="1">  1       21 0.34205823E-01 0.17927907E+03</pdfrwt>
<pdfrwt beam="2">  1       21 0.13959477E+00 0.17927907E+03</pdfrwt>
<totfact> 0.30057015E+03</totfact>
</mgrwt>
</event>
<event>
 4    1  0.1110581E+000  0.2767033E+03  0.7546771E-02  0.1097503E+00
         21   -1    0    0  503  502  0.00000000000E+00  0.00000000000E+00  0.18368274380E+03  0.18368274380E+03  0.00000000000E+00 0. -1.
         21   -1    0    0  501  503 -0.00000000000E+00 -0.00000000000E+00 -0.76558879614E+03  0.76558879614E+03  0.00000000000E+00 0.  1.
          6    1    1    2  501    0 -0.17019999429E+03  0.13421129232E+03 -0.61130284472E+03  0.67101108560E+03  0.17200000000E+03 0.  1.
         -6    1    1    2    0  502  0.17019999429E+03 -0.13421129232E+03  0.29396792376E+02  0.27826045433E+03  0.17200000000E+03 0. -1.
<mgrwt>
<rscale>  2 0.27670329E+03</rscale>
<asrwt>0</asrwt>
<pdfrwt beam="1">  1       21 0.45920686E-01 0.27670329E+03</pdfrwt>
<pdfrwt beam="2">  1       21 0.19139720E+00 0.27670329E+03</pdfrwt>
<totfact> 0.63925529E+02</totfact>
</mgrwt>
</event>
<event>
 4    1  0.1110581E+000  0.1875876E+03  0.7546771E-02  0.1160655E+00
         21   -1    0    0  503  502  0.00000000000E+00  0.00000000000E+00  0.24563403562E+03  0.24563403562E+03  0.00000000000E+00 0.  1.
         21   -1    0    0  501  503 -0.00000000000E+00 -0.00000000000E+00 -0.15060486732E+03  0.15060486732E+03  0.00000000000E+00 0.  1.
          6    1    1    2  501    0  0.23946731369E+01  0.74829014250E+02  0.91271798635E+02  0.20861365502E+03  0.17200000000E+03 0.  1.
         -6    1    1    2    0  502 -0.23946731369E+01 -0.74829014250E+02  0.37573696700E+01  0.18762524793E+03  0.17200000000E+03 0.  1.
<mgrwt>
<rscale>  2 0.18758762E+03</rscale>
<asrwt>0</asrwt>
<pdfrwt beam="1">  1       21 0.61408508E-01 0.18758762E+03</pdfrwt>
<pdfrwt beam="2">  1       21 0.37651217E-01 0.18758762E+03</pdfrwt>
<totfact> 0.16822488E+04</totfact>
</mgrwt>
</event>
<event>
 4    1  0.1110581E+000  0.2057545E+03  0.7546771E-02  0.1144973E+00
         21   -1    0    0  501  502  0.00000000000E+00  0.00000000000E+00  0.18947741715E+03  0.18947741715E+03  0.00000000000E+00 0.  1.
         21   -1    0    0  502  503 -0.00000000000E+00 -0.00000000000E+00 -0.23469335217E+03  0.23469335217E+03  0.00000000000E+00 0.  1.
          6    1    1    2  501    0  0.22374078787E+02  0.11068106204E+03  0.23854096079E+02  0.20713260196E+03  0.17200000000E+03 0.  1.
         -6    1    1    2    0  503 -0.22374078787E+02 -0.11068106204E+03 -0.69070031105E+02  0.21703816736E+03  0.17200000000E+03 0.  1.
<mgrwt>
<rscale>  2 0.20575446E+03</rscale>
<asrwt>0</asrwt>
<pdfrwt beam="1">  1       21 0.47369354E-01 0.20575446E+03</pdfrwt>
<pdfrwt beam="2">  1       21 0.58673338E-01 0.20575446E+03</pdfrwt>
<totfact> 0.11487707E+04</totfact>
</mgrwt>
</event>
<event>
 4    1  0.1110581E+000  0.1735154E+03  0.7546771E-02  0.1174231E+00
         21   -1    0    0  503  502  0.00000000000E+00  0.00000000000E+00  0.16634180879E+03  0.16634180879E+03  0.00000000000E+00 0. -1.
         21   -1    0    0  501  503 -0.00000000000E+00 -0.00000000000E+00 -0.25529639755E+03  0.25529639755E+03  0.00000000000E+00 0. -1.
          6    1    1    2  501    0 -0.22881653887E+02  0.19231601598E+00 -0.15820756442E+03  0.23481320344E+03  0.17200000000E+03 0. -1.
         -6    1    1    2    0  502  0.22881653887E+02 -0.19231601598E+00  0.69252975668E+02  0.18682500290E+03  0.17200000000E+03 0. -1.
<mgrwt>
<rscale>  2 0.17351544E+03</rscale>
<asrwt>0</asrwt>
<pdfrwt beam="1">  1       21 0.41585452E-01 0.17351544E+03</pdfrwt>
<pdfrwt beam="2">  1       21 0.63824099E-01 0.17351544E+03</pdfrwt>
<totfact> 0.12788037E+04</totfact>
</mgrwt>
</event>
<event>
 4    1  0.1110581E+000  0.1754513E+03  0.7546771E-02  0.1172279E+00
         21   -1    0    0  501  502  0.00000000000E+00  0.00000000000E+00  0.91745105400E+03  0.91745105400E+03  0.00000000000E+00 0.  1.
         21   -1    0    0  502  503 -0.00000000000E+00 -0.00000000000E+00 -0.74929538464E+02  0.74929538464E+02  0.00000000000E+00 0.  1.
          6    1    1    2  501    0  0.14620974788E+02 -0.31390669770E+02  0.78998298615E+03  0.80923189844E+03  0.17200000000E+03 0.  1.
         -6    1    1    2    0  503 -0.14620974788E+02  0.31390669770E+02  0.52538529389E+02  0.18314869402E+03  0.17200000000E+03 0.  1.
<mgrwt>
<rscale>  2 0.17545127E+03</rscale>
<asrwt>0</asrwt>
<pdfrwt beam="1">  1       21 0.22936273E+00 0.17545127E+03</pdfrwt>
<pdfrwt beam="2">  1       21 0.18732388E-01 0.17545127E+03</pdfrwt>
<totfact> 0.23458606E+03</totfact>
</mgrwt>
</event>
<event>
 4    1  0.1110581E+000  0.2313160E+03  0.7546771E-02  0.1125717E+00
         21   -1    0    0  503  502  0.00000000000E+00  0.00000000000E+00  0.75481387639E+02  0.75481387639E+02  0.00000000000E+00 0. -1.
         21   -1    0    0  501  503 -0.00000000000E+00 -0.00000000000E+00 -0.14616926524E+04  0.14616926524E+04  0.00000000000E+00 0.  1.
          6    1    1    2  501    0 -0.15288141619E+03 -0.23459423925E+02 -0.12446864241E+04  0.12659981700E+04  0.17200000000E+03 0.  1.
         -6    1    1    2    0  502  0.15288141619E+03  0.23459423925E+02 -0.14152484065E+03  0.27117587007E+03  0.17200000000E+03 0. -1.
<mgrwt>
<rscale>  2 0.23131596E+03</rscale>
<asrwt>0</asrwt>
<pdfrwt beam="1">  1       21 0.18870348E-01 0.23131596E+03</pdfrwt>
<pdfrwt beam="2">  1       21 0.36542315E+00 0.23131596E+03</pdfrwt>
<totfact> 0.34383711E+02</totfact>
</mgrwt>
</event>
<event>
 4    1  0.1110581E+000  0.2086199E+03  0.7546771E-02  0.1142664E+00
         21   -1    0    0  501  502  0.00000000000E+00  0.00000000000E+00  0.10310122849E+04  0.10310122849E+04  0.00000000000E+00 0.  1.
         21   -1    0    0  502  503 -0.00000000000E+00 -0.00000000000E+00 -0.11276504335E+03  0.11276504335E+03  0.00000000000E+00 0.  1.
          6    1    1    2  501    0 -0.22517517801E+02  0.11589321353E+03  0.91147777304E+03  0.93504759574E+03  0.17200000000E+03 0.  1.
         -6    1    1    2    0  503  0.22517517801E+02 -0.11589321353E+03  0.67694685486E+01  0.20872973256E+03  0.17200000000E+03 0.  1.
<mgrwt>
<rscale>  2 0.20861993E+03</rscale>
<asrwt>0</asrwt>
<pdfrwt beam="1">  1       21 0.25775304E+00 0.20861993E+03</pdfrwt>
<pdfrwt beam="2">  1       21 0.28191264E-01 0.20861993E+03</pdfrwt>
<totfact> 0.70582025E+02</totfact>
</mgrwt>
</event>
<event>
 4    1  0.1110581E+000  0.2395935E+03  0.7546771E-02  0.1120064E+00
         21   -1    0    0  501  502  0.00000000000E+00  0.00000000000E+00  0.47431766451E+03  0.47431766451E+03  0.00000000000E+00 0.  1.
         21   -1    0    0  502  503 -0.00000000000E+00 -0.00000000000E+00 -0.16130189616E+03  0.16130189616E+03  0.00000000000E+00 0. -1.
          6    1    1    2  501    0  0.90083792737E+02 -0.14037787656E+03  0.31531394694E+03  0.39601505410E+03  0.17200000000E+03 0.  1.
         -6    1    1    2    0  503 -0.90083792737E+02  0.14037787656E+03 -0.22981785925E+01  0.23960450656E+03  0.17200000000E+03 0. -1.
<mgrwt>
<rscale>  2 0.23959348E+03</rscale>
<asrwt>0</asrwt>
<pdfrwt beam="1">  1       21 0.11857941E+00 0.23959348E+03</pdfrwt>
<pdfrwt beam="2">  1       21 0.40325475E-01 0.23959348E+03</pdfrwt>
<totfact> 0.31046068E+03</totfact>
</mgrwt>
</event>
<event>
 4    1  0.1110581E+000  0.2851328E+03  0.7546771E-02  0.1092918E+00
         21   -1    0    0  503  502  0.00000000000E+00  0.00000000000E+00  0.37850826696E+03  0.37850826696E+03  0.00000000000E+00 0.  1.
         21   -1    0    0  501  503 -0.00000000000E+00 -0.00000000000E+00 -0.83900284700E+03  0.83900284700E+03  0.00000000000E+00 0. -1.
          6    1    1    2  501    0 -0.24254452123E+02  0.22611602802E+03 -0.75532877330E+03  0.80735512158E+03  0.17200000000E+03 0. -1.
         -6    1    1    2    0  502  0.24254452123E+02 -0.22611602802E+03  0.29483419326E+03  0.41015599238E+03  0.17200000000E+03 0.  1.
<mgrwt>
<rscale>  2 0.28513284E+03</rscale>
<asrwt>0</asrwt>
<pdfrwt beam="1">  1       21 0.94627067E-01 0.28513284E+03</pdfrwt>
<pdfrwt beam="2">  1       21 0.20975071E+00 0.28513284E+03</pdfrwt>
<totfact> 0.97505604E+01</totfact>
</mgrwt>
</event>
<event>
 4    1  0.1110581E+000  0.2278419E+03  0.7546771E-02  0.1128168E+00
         21   -1    0    0  503  502  0.00000000000E+00  0.00000000000E+00  0.72287591663E+02  0.72287591663E+02  0.00000000000E+00 0.  1.
         21   -1    0    0  501  503 -0.00000000000E+00 -0.00000000000E+00 -0.85172055256E+03  0.85172055256E+03  0.00000000000E+00 0. -1.
          6    1    1    2  501    0  0.63592345000E+01  0.14928996032E+03 -0.57268826570E+03  0.61634712767E+03  0.17200000000E+03 0. -1.
         -6    1    1    2    0  502 -0.63592345000E+01 -0.14928996032E+03 -0.20674469520E+03  0.30766101655E+03  0.17200000000E+03 0.  1.
<mgrwt>
<rscale>  2 0.22784190E+03</rscale>
<asrwt>0</asrwt>
<pdfrwt beam="1">  1       21 0.18071899E-01 0.22784190E+03</pdfrwt>
<pdfrwt beam="2">  1       21 0.21293013E+00 0.22784190E+03</pdfrwt>
<totfact> 0.29980794E+03</totfact>
</mgrwt>
</event>
<event>
 4    1  0.1110581E+000  0.1793100E+03  0.7546771E-02  0.1168473E+00
         21   -1    0    0  503  502  0.00000000000E+00  0.00000000000E+00  0.19769374858E+03  0.19769374858E+03  0.00000000000E+00 0.  1.
         21   -1    0    0  501  503 -0.00000000000E+00 -0.00000000000E+00 -0.17041375205E+03  0.17041375205E+03  0.00000000000E+00 0.  1.
          6    1    1    2  501    0  0.37873886811E+02  0.33669410604E+02 -0.25681301906E+02  0.18113969686E+03  0.17200000000E+03 0.  1.
         -6    1    1    2    0  502 -0.37873886811E+02 -0.33669410604E+02  0.52961298429E+02  0.18696780376E+03  0.17200000000E+03 0.  1.
<mgrwt>
<rscale>  2 0.17930996E+03</rscale>
<asrwt>0</asrwt>
<pdfrwt beam="1">  1       21 0.49423437E-01 0.17930996E+03</pdfrwt>
<pdfrwt beam="2">  1       21 0.42603438E-01 0.17930996E+03</pdfrwt>
<totfact> 0.20853163E+04</totfact>
</mgrwt>
</event>
<event>
 4    1  0.1110581E+000  0.1792584E+03  0.7546771E-02  0.1168523E+00
         21   -1    0    0  501  502  0.00000000000E+00  0.00000000000E+00  0.17124501235E+03  0.17124501235E+03  0.00000000000E+00 0. -1.
         21   -1    0    0  502  503 -0.00000000000E+00 -0.00000000000E+00 -0.26472271420E+03  0.26472271420E+03  0.00000000000E+00 0. -1.
          6    1    1    2  501    0  0.44296888228E+02  0.24235678954E+02  0.70883003049E+02  0.19276405931E+03  0.17200000000E+03 0.  1.
         -6    1    1    2    0  503 -0.44296888228E+02 -0.24235678954E+02 -0.16436070490E+03  0.24320366723E+03  0.17200000000E+03 0.  1.
<mgrwt>
<rscale>  2 0.17925842E+03</rscale>
<asrwt>0</asrwt>
<pdfrwt beam="1">  1       21 0.42811254E-01 0.17925842E+03</pdfrwt>
<pdfrwt beam="2">  1       21 0.66180678E-01 0.17925842E+03</pdfrwt>
<totfact> 0.11098085E+04</totfact>
</mgrwt>
</event>
<event>
 4    1  0.1110581E+000  0.1753962E+03  0.7546771E-02  0.1172335E+00
         21   -1    0    0  503  502  0.00000000000E+00  0.00000000000E+00  0.14138744309E+03  0.14138744309E+03  0.00000000000E+00 0.  1.
         21   -1    0    0  501  503 -0.00000000000E+00 -0.00000000000E+00 -0.34457465720E+03  0.34457465720E+03  0.00000000000E+00 0.  1.
          6    1    1    2  501    0 -0.34256008762E+02  0.25187744355E+01 -0.24910125297E+03  0.30465595775E+03  0.17200000000E+03 0.  1.
         -6    1    1    2    0  502  0.34256008762E+02 -0.25187744355E+01  0.45914038855E+02  0.18130614255E+03  0.17200000000E+03 0.  1.
<mgrwt>
<rscale>  2 0.17539618E+03</rscale>
<asrwt>0</asrwt>
<pdfrwt beam="1">  1       21 0.35346861E-01 0.17539618E+03</pdfrwt>
<pdfrwt beam="2">  1       21 0.86143663E-01 0.17539618E+03</pdfrwt>
<totfact> 0.90804744E+03</totfact>
</mgrwt>
</event>
<event>
 4    1  0.1110581E+000  0.2076495E+03  0.7546771E-02  0.1143441E+00
         21   -1    0    0  501  502  0.00000000000E+00  0.00000000000E+00  0.78736822138E+03  0.78736822138E+03  0.00000000000E+00 0.  1.
         21   -1    0    0  502  503 -0.00000000000E+00 -0.00000000000E+00 -0.23330725541E+03  0.23330725541E+03  0.00000000000E+00 0.  1.
          6    1    1    2  501    0  0.35452042766E+02  0.11080380073E+03  0.72347448405E+03  0.75268430212E+03  0.17200000000E+03 0.  1.
         -6    1    1    2    0  503 -0.35452042766E+02 -0.11080380073E+03 -0.16941351807E+03  0.26799117467E+03  0.17200000000E+03 0.  1.
<mgrwt>
<rscale>  2 0.20764954E+03</rscale>
<asrwt>0</asrwt>
<pdfrwt beam="1">  1       21 0.19684205E+00 0.20764954E+03</pdfrwt>
<pdfrwt beam="2">  1       21 0.58326816E-01 0.20764954E+03</pdfrwt>
<totfact> 0.38039488E+02</totfact>
</mgrwt>
</event>
<event>
 4    1  0.1110581E+000  0.2126622E+03  0.7546771E-02  0.1139475E+00
         21   -1    0    0  503  502  0.00000000000E+00  0.00000000000E+00  0.13146150437E+04  0.13146150437E+04  0.00000000000E+00 0. -1.
         21   -1    0    0  501  503 -0.00000000000E+00 -0.00000000000E+00 -0.36128451642E+02  0.36128451642E+02  0.00000000000E+00 0.  1.
          6    1    1    2  501    0  0.10706208622E+03 -0.64644628681E+02  0.78688584555E+03  0.81511628143E+03  0.17200000000E+03 0. -1.
         -6    1    1    2    0  502 -0.10706208622E+03  0.64644628681E+02  0.49160074655E+03  0.53562721396E+03  0.17200000000E+03 0.  1.
<mgrwt>
<rscale>  2 0.21266222E+03</rscale>
<asrwt>0</asrwt>
<pdfrwt beam="1">  1       21 0.32865360E+00 0.21266222E+03</pdfrwt>
<pdfrwt beam="2">  1       21 0.90321173E-02 0.21266222E+03</pdfrwt>
<totfact> 0.22069708E+03</totfact>
</mgrwt>
</event>
<event>
 4    1  0.1110581E+000  0.1783266E+03  0.7546771E-02  0.1169432E+00
         21   -1    0    0  501  502  0.00000000000E+00  0.00000000000E+00  0.10766304811E+03  0.10766304811E+03  0.00000000000E+00 0. -1.
         21   -1    0    0  502  503 -0.00000000000E+00 -0.00000000000E+00 -0.52023940849E+03  0.52023940849E+03  0.00000000000E+00 0. -1.
          6    1    1    2  501    0 -0.43907861209E+02 -0.16984913137E+02  0.11965213517E+00  0.17832667178E+03  0.17200000000E+03 0. -1.
         -6    1    1    2    0  503  0.43907861209E+02  0.16984913137E+02 -0.41269601252E+03  0.44957578482E+03  0.17200000000E+03 0. -1.
<mgrwt>
<rscale>  2 0.17832663E+03</rscale>
<asrwt>0</asrwt>
<pdfrwt beam="1">  1       21 0.26915762E-01 0.17832663E+03</pdfrwt>
<pdfrwt beam="2">  1       21 0.13005985E+00 0.17832663E+03</pdfrwt>
<totfact> 0.57436210E+03</totfact>
</mgrwt>
</event>
<event>
 4    1  0.1110581E+000  0.1775111E+03  0.7546771E-02  0.1170234E+00
         21   -1    0    0  503  502  0.00000000000E+00  0.00000000000E+00  0.67452794181E+02  0.67452794181E+02  0.00000000000E+00 0.  1.
         21   -1    0    0  501  503 -0.00000000000E+00 -0.00000000000E+00 -0.55611947955E+03  0.55611947955E+03  0.00000000000E+00 0.  1.
          6    1    1    2  501    0  0.41533567822E+01 -0.43691511737E+02 -0.36904493170E+03  0.40951722819E+03  0.17200000000E+03 0.  1.
         -6    1    1    2    0  502 -0.41533567822E+01  0.43691511737E+02 -0.11962175367E+03  0.21405504554E+03  0.17200000000E+03 0.  1.
<mgrwt>
<rscale>  2 0.17751112E+03</rscale>
<asrwt>0</asrwt>
<pdfrwt beam="1">  1       21 0.16863199E-01 0.17751112E+03</pdfrwt>
<pdfrwt beam="2">  1       21 0.13902987E+00 0.17751112E+03</pdfrwt>
<totfact> 0.11664886E+04</totfact>
</mgrwt>
</event>
<event>
 4    1  0.1110581E+000  0.2023586E+03  0.7546771E-02  0.1147764E+00
         21   -1    0    0  503  502  0.00000000000E+00  0.00000000000E+00  0.20171243702E+03  0.20171243702E+03  0.00000000000E+00 0. -1.
         21   -1    0    0  501  503 -0.00000000000E+00 -0.00000000000E+00 -0.21041267883E+03  0.21041267883E+03  0.00000000000E+00 0. -1.
          6    1    1    2  501    0  0.60522983697E+02  0.87760811614E+02  0.34309013465E+02  0.20524643728E+03  0.17200000000E+03 0. -1.
         -6    1    1    2    0  502 -0.60522983697E+02 -0.87760811614E+02 -0.43009255276E+02  0.20687867858E+03  0.17200000000E+03 0. -1.
<mgrwt>
<rscale>  2 0.20235857E+03</rscale>
<asrwt>0</asrwt>
<pdfrwt beam="1">  1       21 0.50428109E-01 0.20235857E+03</pdfrwt>
<pdfrwt beam="2">  1       21 0.52603170E-01 0.20235857E+03</pdfrwt>
<totfact> 0.12744163E+04</totfact>
</mgrwt>
</event>
<event>
 4    1  0.1110581E+000  0.1763804E+03  0.7546771E-02  0.1171353E+00
         21   -1    0    0  503  502  0.00000000000E+00  0.00000000000E+00  0.45848432077E+03  0.45848432077E+03  0.00000000000E+00 0.  1.
         21   -1    0    0  501  503 -0.00000000000E+00 -0.00000000000E+00 -0.70487703345E+02  0.70487703345E+02  0.00000000000E+00 0.  1.
          6    1    1    2  501    0  0.33617853324E+02 -0.19897145469E+02  0.14287506266E+03  0.22698753268E+03  0.17200000000E+03 0. -1.
         -6    1    1    2    0  502 -0.33617853324E+02  0.19897145469E+02  0.24512155476E+03  0.30198449144E+03  0.17200000000E+03 0. -1.
<mgrwt>
<rscale>  2 0.17638043E+03</rscale>
<asrwt>0</asrwt>
<pdfrwt beam="1">  1       21 0.11462107E+00 0.17638043E+03</pdfrwt>
<pdfrwt beam="2">  1       21 0.17621927E-01 0.17638043E+03</pdfrwt>
<totfact> 0.17441279E+04</totfact>
</mgrwt>
</event>
<event>
 4    1  0.1110581E+000  0.1828724E+03  0.7546771E-02  0.1165052E+00
         21   -1    0    0  501  502  0.00000000000E+00  0.00000000000E+00  0.66352705912E+03  0.66352705912E+03  0.00000000000E+00 0.  1.
         21   -1    0    0  502  503 -0.00000000000E+00 -0.00000000000E+00 -0.33779298921E+03  0.33779298921E+03  0.00000000000E+00 0.  1.
          6    1    1    2  501    0 -0.27809775917E+01 -0.62053168725E+02  0.62466821743E+03  0.65088609715E+03  0.17200000000E+03 0.  1.
         -6    1    1    2    0  503  0.27809775917E+01  0.62053168725E+02 -0.29893414753E+03  0.35043395119E+03  0.17200000000E+03 0.  1.
<mgrwt>
<rscale>  2 0.18287244E+03</rscale>
<asrwt>0</asrwt>
<pdfrwt beam="1">  1       21 0.16588176E+00 0.18287244E+03</pdfrwt>
<pdfrwt beam="2">  1       21 0.84448248E-01 0.18287244E+03</pdfrwt>
<totfact> 0.28105426E+02</totfact>
</mgrwt>
</event>
<event>
 4    1  0.1110581E+000  0.2212305E+03  0.7546771E-02  0.1132969E+00
         21   -1    0    0  501  502  0.00000000000E+00  0.00000000000E+00  0.38619166692E+03  0.38619166692E+03  0.00000000000E+00 0.  1.
         21   -1    0    0  502  503 -0.00000000000E+00 -0.00000000000E+00 -0.29450791856E+03  0.29450791856E+03  0.00000000000E+00 0.  1.
          6    1    1    2  501    0  0.11710134761E+03  0.75141234498E+02  0.30272851437E+03  0.37494997552E+03  0.17200000000E+03 0.  1.
         -6    1    1    2    0  503 -0.11710134761E+03 -0.75141234498E+02 -0.21104476601E+03  0.30574960996E+03  0.17200000000E+03 0.  1.
<mgrwt>
<rscale>  2 0.22123049E+03</rscale>
<asrwt>0</asrwt>
<pdfrwt beam="1">  1       21 0.96547916E-01 0.22123049E+03</pdfrwt>
<pdfrwt beam="2">  1       21 0.73626980E-01 0.22123049E+03</pdfrwt>
<totfact> 0.14396154E+03</totfact>
</mgrwt>
</event>
<event>
 4    1  0.1110581E+000  0.2251313E+03  0.7546771E-02  0.1130114E+00
         21   -1    0    0  501  502  0.00000000000E+00  0.00000000000E+00  0.17031611230E+03  0.17031611230E+03  0.00000000000E+00 0. -1.
         21   -1    0    0  502  503 -0.00000000000E+00 -0.00000000000E+00 -0.34306808575E+03  0.34306808575E+03  0.00000000000E+00 0. -1.
          6    1    1    2  501    0  0.14496469352E+03  0.92381716984E+01  0.70851110391E+01  0.22524276899E+03  0.17200000000E+03 0. -1.
         -6    1    1    2    0  503 -0.14496469352E+03 -0.92381716984E+01 -0.17983708449E+03  0.28814142906E+03  0.17200000000E+03 0. -1.
<mgrwt>
<rscale>  2 0.22513131E+03</rscale>
<asrwt>0</asrwt>
<pdfrwt beam="1">  1       21 0.42579028E-01 0.22513131E+03</pdfrwt>
<pdfrwt beam="2">  1       21 0.85767021E-01 0.22513131E+03</pdfrwt>
<totfact> 0.60837987E+03</totfact>
</mgrwt>
</event>
<event>
 4    1  0.1110581E+000  0.1796820E+03  0.7546771E-02  0.1168111E+00
         21   -1    0    0  501  502  0.00000000000E+00  0.00000000000E+00  0.40720624006E+03  0.40720624006E+03  0.00000000000E+00 0. -1.
         21   -1    0    0  502  503 -0.00000000000E+00 -0.00000000000E+00 -0.10599578227E+03  0.10599578227E+03  0.00000000000E+00 0. -1.
          6    1    1    2  501    0  0.16648989260E+02 -0.49238360052E+02  0.27941601185E+03  0.33220311952E+03  0.17200000000E+03 0. -1.
         -6    1    1    2    0  503 -0.16648989260E+02  0.49238360052E+02  0.21794445938E+02  0.18099890281E+03  0.17200000000E+03 0. -1.
<mgrwt>
<rscale>  2 0.17968195E+03</rscale>
<asrwt>0</asrwt>
<pdfrwt beam="1">  1       21 0.10180156E+00 0.17968195E+03</pdfrwt>
<pdfrwt beam="2">  1       21 0.26498947E-01 0.17968195E+03</pdfrwt>
<totfact> 0.10757492E+04</totfact>
</mgrwt>
</event>
<event>
 4    1  0.1110581E+000  0.1795862E+03  0.7546771E-02  0.1168204E+00
         21   -1    0    0  501  502  0.00000000000E+00  0.00000000000E+00  0.43459301746E+03  0.43459301746E+03  0.00000000000E+00 0.  1.
         21   -1    0    0  502  503 -0.00000000000E+00 -0.00000000000E+00 -0.10608978922E+03  0.10608978922E+03  0.00000000000E+00 0.  1.
          6    1    1    2  501    0 -0.23241847384E+02 -0.46119614892E+02  0.31244630212E+03  0.36038020764E+03  0.17200000000E+03 0.  1.
         -6    1    1    2    0  503  0.23241847384E+02  0.46119614892E+02  0.16056926121E+02  0.18030259905E+03  0.17200000000E+03 0.  1.
<mgrwt>
<rscale>  2 0.17958620E+03</rscale>
<asrwt>0</asrwt>
<pdfrwt beam="1">  1       21 0.10864825E+00 0.17958620E+03</pdfrwt>
<pdfrwt beam="2">  1       21 0.26522448E-01 0.17958620E+03</pdfrwt>
<totfact> 0.91889960E+03</totfact>
</mgrwt>
</event>
<event>
 4    1  0.1110581E+000  0.1804228E+03  0.7546771E-02  0.1167395E+00
         21   -1    0    0  503  502  0.00000000000E+00  0.00000000000E+00  0.30378174556E+03  0.30378174556E+03  0.00000000000E+00 0. -1.
         21   -1    0    0  501  503 -0.00000000000E+00 -0.00000000000E+00 -0.11725101681E+03  0.11725101681E+03  0.00000000000E+00 0. -1.
          6    1    1    2  501    0  0.53652900226E+02 -0.94734358006E+01  0.31498319443E+02  0.18315164159E+03  0.17200000000E+03 0. -1.
         -6    1    1    2    0  502 -0.53652900226E+02  0.94734358006E+01  0.15503240930E+03  0.23788112078E+03  0.17200000000E+03 0. -1.
<mgrwt>
<rscale>  2 0.18042278E+03</rscale>
<asrwt>0</asrwt>
<pdfrwt beam="1">  1       21 0.75945435E-01 0.18042278E+03</pdfrwt>
<pdfrwt beam="2">  1       21 0.29312755E-01 0.18042278E+03</pdfrwt>
<totfact> 0.17366460E+04</totfact>
</mgrwt>
</event>
<event>
 4    1  0.1110581E+000  0.2397581E+03  0.7546771E-02  0.1119954E+00
         21   -1    0    0  501  502  0.00000000000E+00  0.00000000000E+00  0.68040208027E+03  0.68040208027E+03  0.00000000000E+00 0.  1.
         21   -1    0    0  502  503 -0.00000000000E+00 -0.00000000000E+00 -0.18713336773E+03  0.18713336773E+03  0.00000000000E+00 0.  1.
          6    1    1    2  501    0 -0.11704500555E+03  0.11916539754E+03  0.56789472780E+03  0.61643194852E+03  0.17200000000E+03 0.  1.
         -6    1    1    2    0  503  0.11704500555E+03 -0.11916539754E+03 -0.74626015265E+02  0.25110349948E+03  0.17200000000E+03 0.  1.
<mgrwt>
<rscale>  2 0.23975806E+03</rscale>
<asrwt>0</asrwt>
<pdfrwt beam="1">  1       21 0.17010051E+00 0.23975806E+03</pdfrwt>
<pdfrwt beam="2">  1       21 0.46783344E-01 0.23975806E+03</pdfrwt>
<totfact> 0.88918215E+02</totfact>
</mgrwt>
</event>
<event>
 4    1  0.1110581E+000  0.1724860E+03  0.7546771E-02  0.1175280E+00
         21   -1    0    0  501  502  0.00000000000E+00  0.00000000000E+00  0.37033701364E+03  0.37033701364E+03  0.00000000000E+00 0. -1.
         21   -1    0    0  502  503 -0.00000000000E+00 -0.00000000000E+00 -0.10111265101E+03  0.10111265101E+03  0.00000000000E+00 0. -1.
          6    1    1    2  501    0  0.31605872053E+01 -0.12547085055E+02  0.27758454767E+02  0.17470532466E+03  0.17200000000E+03 0. -1.
         -6    1    1    2    0  503 -0.31605872053E+01  0.12547085055E+02  0.24146590786E+03  0.29674433999E+03  0.17200000000E+03 0. -1.
<mgrwt>
<rscale>  2 0.17248600E+03</rscale>
<asrwt>0</asrwt>
<pdfrwt beam="1">  1       21 0.92584250E-01 0.17248600E+03</pdfrwt>
<pdfrwt beam="2">  1       21 0.25278164E-01 0.17248600E+03</pdfrwt>
<totfact> 0.14786269E+04</totfact>
</mgrwt>
</event>
<event>
 4    1  0.1110581E+000  0.1837876E+03  0.7546771E-02  0.1164187E+00
         21   -1    0    0  503  502  0.00000000000E+00  0.00000000000E+00  0.90236562159E+03  0.90236562159E+03  0.00000000000E+00 0. -1.
         21   -1    0    0  501  503 -0.00000000000E+00 -0.00000000000E+00 -0.10436288797E+03  0.10436288797E+03  0.00000000000E+00 0. -1.
          6    1    1    2  501    0 -0.45239615921E+02  0.46338719091E+02 -0.41059158599E+01  0.18383350696E+03  0.17200000000E+03 0. -1.
         -6    1    1    2    0  502  0.45239615921E+02 -0.46338719091E+02  0.80210864948E+03  0.82289500260E+03  0.17200000000E+03 0. -1.
<mgrwt>
<rscale>  2 0.18378765E+03</rscale>
<asrwt>0</asrwt>
<pdfrwt beam="1">  1       21 0.22559138E+00 0.18378765E+03</pdfrwt>
<pdfrwt beam="2">  1       21 0.26090725E-01 0.18378765E+03</pdfrwt>
<totfact> 0.13116412E+03</totfact>
</mgrwt>
</event>
<event>
 4    1  0.1110581E+000  0.1917267E+03  0.7546771E-02  0.1156913E+00
         21   -1    0    0  503  502  0.00000000000E+00  0.00000000000E+00  0.60471048095E+02  0.60471048095E+02  0.00000000000E+00 0. -1.
         21   -1    0    0  501  503 -0.00000000000E+00 -0.00000000000E+00 -0.64106966103E+03  0.64106966103E+03  0.00000000000E+00 0.  1.
          6    1    1    2  501    0 -0.82978133810E+02 -0.17022309328E+02 -0.37011216570E+03  0.41682387756E+03  0.17200000000E+03 0.  1.
         -6    1    1    2    0  502  0.82978133810E+02  0.17022309328E+02 -0.21048644723E+03  0.28471683156E+03  0.17200000000E+03 0. -1.
<mgrwt>
<rscale>  2 0.19172671E+03</rscale>
<asrwt>0</asrwt>
<pdfrwt beam="1">  1       21 0.15117762E-01 0.19172671E+03</pdfrwt>
<pdfrwt beam="2">  1       21 0.16026742E+00 0.19172671E+03</pdfrwt>
<totfact> 0.96974539E+03</totfact>
</mgrwt>
</event>
<event>
 4    1  0.1110581E+000  0.1856415E+03  0.7546771E-02  0.1162452E+00
         21   -1    0    0  501  502  0.00000000000E+00  0.00000000000E+00  0.24654854420E+02  0.24654854420E+02  0.00000000000E+00 0.  1.
         21   -1    0    0  502  503 -0.00000000000E+00 -0.00000000000E+00 -0.15742023887E+04  0.15742023887E+04  0.00000000000E+00 0.  1.
          6    1    1    2  501    0  0.19003059518E+02 -0.67213546658E+02 -0.50717101528E+03  0.54007889782E+03  0.17200000000E+03 0.  1.
         -6    1    1    2    0  503 -0.19003059518E+02  0.67213546658E+02 -0.10423765190E+04  0.10587783453E+04  0.17200000000E+03 0.  1.
<mgrwt>
<rscale>  2 0.18564153E+03</rscale>
<asrwt>0</asrwt>
<pdfrwt beam="1">  1       21 0.61637141E-02 0.18564153E+03</pdfrwt>
<pdfrwt beam="2">  1       21 0.39355056E+00 0.18564153E+03</pdfrwt>
<totfact> 0.18177893E+03</totfact>
</mgrwt>
</event>
<event>
 4    1  0.1110581E+000  0.1793927E+03  0.7546771E-02  0.1168392E+00
         21   -1    0    0  503  502  0.00000000000E+00  0.00000000000E+00  0.27017302080E+03  0.27017302080E+03  0.00000000000E+00 0. -1.
         21   -1    0    0  501  503 -0.00000000000E+00 -0.00000000000E+00 -0.14750389257E+03  0.14750389257E+03  0.00000000000E+00 0.  1.
          6    1    1    2  501    0 -0.42906679410E+02  0.27509460729E+02 -0.30283327516E+02  0.18193084811E+03  0.17200000000E+03 0.  1.
         -6    1    1    2    0  502  0.42906679410E+02 -0.27509460729E+02  0.15295245574E+03  0.23574606526E+03  0.17200000000E+03 0. -1.
<mgrwt>
<rscale>  2 0.17939274E+03</rscale>
<asrwt>0</asrwt>
<pdfrwt beam="1">  1       21 0.67543254E-01 0.17939274E+03</pdfrwt>
<pdfrwt beam="2">  1       21 0.36875974E-01 0.17939274E+03</pdfrwt>
<totfact> 0.14337241E+04</totfact>
</mgrwt>
</event>
<event>
 4    1  0.1110581E+000  0.2996285E+03  0.7546771E-02  0.1085426E+00
         21   -1    0    0  501  502  0.00000000000E+00  0.00000000000E+00  0.28358364626E+03  0.28358364626E+03  0.00000000000E+00 0. -1.
         21   -1    0    0  502  503 -0.00000000000E+00 -0.00000000000E+00 -0.31669008363E+03  0.31669008363E+03  0.00000000000E+00 0. -1.
          6    1    1    2  501    0 -0.24533608075E+03 -0.18595989604E+01 -0.10987948289E+02  0.29982992785E+03  0.17200000000E+03 0. -1.
         -6    1    1    2    0  503  0.24533608075E+03  0.18595989604E+01 -0.22118489076E+02  0.30044380204E+03  0.17200000000E+03 0. -1.
<mgrwt>
<rscale>  2 0.29962852E+03</rscale>
<asrwt>0</asrwt>
<pdfrwt beam="1">  1       21 0.70895912E-01 0.29962852E+03</pdfrwt>
<pdfrwt beam="2">  1       21 0.79172521E-01 0.29962852E+03</pdfrwt>
<totfact> 0.23504643E+03</totfact>
</mgrwt>
</event>
<event>
 4    1  0.1110581E+000  0.2280820E+03  0.7546771E-02  0.1127997E+00
         21   -1    0    0  503  502  0.00000000000E+00  0.00000000000E+00  0.41451741610E+03  0.41451741610E+03  0.00000000000E+00 0.  1.
         21   -1    0    0  501  503 -0.00000000000E+00 -0.00000000000E+00 -0.13985779348E+03  0.13985779348E+03  0.00000000000E+00 0.  1.
          6    1    1    2  501    0  0.13685492213E+03 -0.60894528992E+02  0.22614625472E+03  0.32119081851E+03  0.17200000000E+03 0.  1.
         -6    1    1    2    0  502 -0.13685492213E+03  0.60894528992E+02  0.48513367902E+02  0.23318439107E+03  0.17200000000E+03 0.  1.
<mgrwt>
<rscale>  2 0.22808203E+03</rscale>
<asrwt>0</asrwt>
<pdfrwt beam="1">  1       21 0.10362935E+00 0.22808203E+03</pdfrwt>
<pdfrwt beam="2">  1       21 0.34964449E-01 0.22808203E+03</pdfrwt>
<totfact> 0.57924016E+03</totfact>
</mgrwt>
</event>
<event>
 4    1  0.1110581E+000  0.1739146E+03  0.7546771E-02  0.1173826E+00
         21   -1    0    0  503  502  0.00000000000E+00  0.00000000000E+00  0.17731855351E+03  0.17731855351E+03  0.00000000000E+00 0.  1.
         21   -1    0    0  501  503 -0.00000000000E+00 -0.00000000000E+00 -0.22035820269E+03  0.22035820269E+03  0.00000000000E+00 0.  1.
          6    1    1    2  501    0  0.41990882039E+01 -0.25390351313E+02 -0.11602864513E+03  0.20906685240E+03  0.17200000000E+03 0.  1.
         -6    1    1    2    0  502 -0.41990882039E+01  0.25390351313E+02  0.72988995944E+02  0.18860990380E+03  0.17200000000E+03 0.  1.
<mgrwt>
<rscale>  2 0.17391464E+03</rscale>
<asrwt>0</asrwt>
<pdfrwt beam="1">  1       21 0.44329639E-01 0.17391464E+03</pdfrwt>
<pdfrwt beam="2">  1       21 0.55089550E-01 0.17391464E+03</pdfrwt>
<totfact> 0.15374372E+04</totfact>
</mgrwt>
</event>
<event>
 4    1  0.1110581E+000  0.3235672E+03  0.7546771E-02  0.1074019E+00
         21   -1    0    0  503  502  0.00000000000E+00  0.00000000000E+00  0.14856861438E+03  0.14856861438E+03  0.00000000000E+00 0.  1.
         21   -1    0    0  501  503 -0.00000000000E+00 -0.00000000000E+00 -0.70481078012E+03  0.70481078012E+03  0.00000000000E+00 0.  1.
          6    1    1    2  501    0 -0.60127631797E+02 -0.26738815243E+03 -0.27268359198E+03  0.42314548030E+03  0.17200000000E+03 0.  1.
         -6    1    1    2    0  502  0.60127631797E+02  0.26738815243E+03 -0.28355857376E+03  0.43023391419E+03  0.17200000000E+03 0.  1.
<mgrwt>
<rscale>  2 0.32356724E+03</rscale>
<asrwt>0</asrwt>
<pdfrwt beam="1">  1       21 0.37142154E-01 0.32356724E+03</pdfrwt>
<pdfrwt beam="2">  1       21 0.17620269E+00 0.32356724E+03</pdfrwt>
<totfact> 0.12143347E+03</totfact>
</mgrwt>
</event>
<event>
 4    1  0.1110581E+000  0.1777071E+03  0.7546771E-02  0.1170041E+00
         21   -1    0    0  501  502  0.00000000000E+00  0.00000000000E+00  0.30011292999E+03  0.30011292999E+03  0.00000000000E+00 0. -1.
         21   -1    0    0  502  503 -0.00000000000E+00 -0.00000000000E+00 -0.11901977638E+03  0.11901977638E+03  0.00000000000E+00 0. -1.
          6    1    1    2  501    0 -0.22082880153E+01  0.44619867510E+02  0.16188885525E+03  0.24039095359E+03  0.17200000000E+03 0.  1.
         -6    1    1    2    0  503  0.22082880153E+01 -0.44619867510E+02  0.19204298355E+02  0.17874175278E+03  0.17200000000E+03 0.  1.
<mgrwt>
<rscale>  2 0.17770709E+03</rscale>
<asrwt>0</asrwt>
<pdfrwt beam="1">  1       21 0.75028231E-01 0.17770709E+03</pdfrwt>
<pdfrwt beam="2">  1       21 0.29754945E-01 0.17770709E+03</pdfrwt>
<totfact> 0.17362466E+04</totfact>
</mgrwt>
</event>
<event>
 4    1  0.1110581E+000  0.2123781E+03  0.7546771E-02  0.1139696E+00
         21   -1    0    0  501  502  0.00000000000E+00  0.00000000000E+00  0.62026669947E+03  0.62026669947E+03  0.00000000000E+00 0. -1.
         21   -1    0    0  502  503 -0.00000000000E+00 -0.00000000000E+00 -0.76952060413E+02  0.76952060413E+02  0.00000000000E+00 0.  1.
          6    1    1    2  501    0 -0.69206829937E+02  0.10359002351E+03  0.18988360690E+03  0.28488640271E+03  0.17200000000E+03 0.  1.
         -6    1    1    2    0  503  0.69206829937E+02 -0.10359002351E+03  0.35343103215E+03  0.41233235717E+03  0.17200000000E+03 0. -1.
<mgrwt>
<rscale>  2 0.21237815E+03</rscale>
<asrwt>0</asrwt>
<pdfrwt beam="1">  1       21 0.15506666E+00 0.21237815E+03</pdfrwt>
<pdfrwt beam="2">  1       21 0.19238017E-01 0.21237815E+03</pdfrwt>
<totfact> 0.66881538E+03</totfact>
</mgrwt>
</event>
<event>
 4    1  0.1110581E+000  0.1749863E+03  0.7546771E-02  0.1172745E+00
         21   -1    0    0  503  502  0.00000000000E+00  0.00000000000E+00  0.77207835194E+02  0.77207835194E+02  0.00000000000E+00 0. -1.
         21   -1    0    0  501  503 -0.00000000000E+00 -0.00000000000E+00 -0.53201541609E+03  0.53201541609E+03  0.00000000000E+00 0. -1.
          6    1    1    2  501    0 -0.19128994881E+01  0.32133127293E+02 -0.38108733156E+03  0.41934204575E+03  0.17200000000E+03 0. -1.
         -6    1    1    2    0  502  0.19128994881E+01 -0.32133127293E+02 -0.73720249333E+02  0.18988120554E+03  0.17200000000E+03 0. -1.
<mgrwt>
<rscale>  2 0.17498628E+03</rscale>
<asrwt>0</asrwt>
<pdfrwt beam="1">  1       21 0.19301959E-01 0.17498628E+03</pdfrwt>
<pdfrwt beam="2">  1       21 0.13300385E+00 0.17498628E+03</pdfrwt>
<totfact> 0.10196866E+04</totfact>
</mgrwt>
</event>
<event>
 4    1  0.1110581E+000  0.3064420E+03  0.7546771E-02  0.1082064E+00
         21   -1    0    0  501  502  0.00000000000E+00  0.00000000000E+00  0.40856933071E+03  0.40856933071E+03  0.00000000000E+00 0. -1.
         21   -1    0    0  502  503 -0.00000000000E+00 -0.00000000000E+00 -0.30076345993E+03  0.30076345993E+03  0.00000000000E+00 0.  1.
          6    1    1    2  501    0 -0.31124052900E+02  0.25170219585E+03  0.22612707173E+03  0.38084137726E+03  0.17200000000E+03 0. -1.
         -6    1    1    2    0  503  0.31124052900E+02 -0.25170219585E+03 -0.11832120095E+03  0.32849141338E+03  0.17200000000E+03 0.  1.
<mgrwt>
<rscale>  2 0.30644200E+03</rscale>
<asrwt>0</asrwt>
<pdfrwt beam="1">  1       21 0.10214233E+00 0.30644200E+03</pdfrwt>
<pdfrwt beam="2">  1       21 0.75190865E-01 0.30644200E+03</pdfrwt>
<totfact> 0.11284349E+03</totfact>
</mgrwt>
</event>
<event>
 4    1  0.1110581E+000  0.2364742E+03  0.7546771E-02  0.1122164E+00
         21   -1    0    0  501  502  0.00000000000E+00  0.00000000000E+00  0.38978707415E+03  0.38978707415E+03  0.00000000000E+00 0. -1.
         21   -1    0    0  502  503 -0.00000000000E+00 -0.00000000000E+00 -0.20828898185E+03  0.20828898185E+03  0.00000000000E+00 0.  1.
          6    1    1    2  501    0  0.14147183621E+03 -0.79509425131E+02  0.25757659571E+03  0.34966517096E+03  0.17200000000E+03 0. -1.
         -6    1    1    2    0  503 -0.14147183621E+03  0.79509425131E+02 -0.76078503411E+02  0.24841088504E+03  0.17200000000E+03 0. -1.
<mgrwt>
<rscale>  2 0.23647416E+03</rscale>
<asrwt>0</asrwt>
<pdfrwt beam="1">  1       21 0.97446767E-01 0.23647416E+03</pdfrwt>
<pdfrwt beam="2">  1       21 0.52072246E-01 0.23647416E+03</pdfrwt>
<totfact> 0.29497134E+03</totfact>
</mgrwt>
</event>
<event>
 4    1  0.1110581E+000  0.2341420E+03  0.7546771E-02  0.1123758E+00
         21   -1    0    0  503  502  0.00000000000E+00  0.00000000000E+00  0.51604111349E+03  0.51604111349E+03  0.00000000000E+00 0. -1.
         21   -1    0    0  501  503 -0.00000000000E+00 -0.00000000000E+00 -0.19118003970E+03  0.19118003970E+03  0.00000000000E+00 0.  1.
          6    1    1    2  501    0  0.65238974694E+01  0.15873217192E+03 -0.73274489221E+02  0.24533979378E+03  0.17200000000E+03 0.  1.
         -6    1    1    2    0  502 -0.65238974694E+01 -0.15873217192E+03  0.39813556301E+03  0.46188135941E+03  0.17200000000E+03 0. -1.
<mgrwt>
<rscale>  2 0.23414197E+03</rscale>
<asrwt>0</asrwt>
<pdfrwt beam="1">  1       21 0.12901028E+00 0.23414197E+03</pdfrwt>
<pdfrwt beam="2">  1       21 0.47795011E-01 0.23414197E+03</pdfrwt>
<totfact> 0.17778162E+03</totfact>
</mgrwt>
</event>
<event>
 4    1  0.1110581E+000  0.3390107E+03  0.7546771E-02  0.1067218E+00
         21   -1    0    0  501  502  0.00000000000E+00  0.00000000000E+00  0.19953825082E+03  0.19953825082E+03  0.00000000000E+00 0.  1.
         21   -1    0    0  502  503 -0.00000000000E+00 -0.00000000000E+00 -0.66427464848E+03  0.66427464848E+03  0.00000000000E+00 0. -1.
          6    1    1    2  501    0  0.66172026281E+02 -0.28454440413E+03 -0.74895575727E+02  0.34718525638E+03  0.17200000000E+03 0.  1.
         -6    1    1    2    0  503 -0.66172026281E+02  0.28454440413E+03 -0.38984082193E+03  0.51662764292E+03  0.17200000000E+03 0.  1.
<mgrwt>
<rscale>  2 0.33901070E+03</rscale>
<asrwt>0</asrwt>
<pdfrwt beam="1">  1       21 0.49884563E-01 0.33901070E+03</pdfrwt>
<pdfrwt beam="2">  1       21 0.16606866E+00 0.33901070E+03</pdfrwt>
<totfact> 0.77243895E+02</totfact>
</mgrwt>
</event>
<event>
 4    1  0.1110581E+000  0.1806328E+03  0.7546771E-02  0.1167192E+00
         21   -1    0    0  501  502  0.00000000000E+00  0.00000000000E+00  0.65865703180E+03  0.65865703180E+03  0.00000000000E+00 0. -1.
         21   -1    0    0  502  503 -0.00000000000E+00 -0.00000000000E+00 -0.12535064701E+03  0.12535064701E+03  0.00000000000E+00 0. -1.
          6    1    1    2  501    0 -0.43437134507E+02 -0.34020701779E+02  0.57151247481E+03  0.59937859627E+03  0.17200000000E+03 0. -1.
         -6    1    1    2    0  503  0.43437134507E+02  0.34020701779E+02 -0.38206090023E+02  0.18462908254E+03  0.17200000000E+03 0. -1.
<mgrwt>
<rscale>  2 0.18063276E+03</rscale>
<asrwt>0</asrwt>
<pdfrwt beam="1">  1       21 0.16466425E+00 0.18063276E+03</pdfrwt>
<pdfrwt beam="2">  1       21 0.31337664E-01 0.18063276E+03</pdfrwt>
<totfact> 0.23056226E+03</totfact>
</mgrwt>
</event>
<event>
 4    1  0.1110581E+000  0.2207069E+03  0.7546771E-02  0.1133357E+00
         21   -1    0    0  503  502  0.00000000000E+00  0.00000000000E+00  0.16750704925E+03  0.16750704925E+03  0.00000000000E+00 0. -1.
         21   -1    0    0  501  503 -0.00000000000E+00 -0.00000000000E+00 -0.30295886272E+03  0.30295886272E+03  0.00000000000E+00 0. -1.
          6    1    1    2  501    0 -0.13825832031E+03  0.34909674117E+01 -0.20606535101E+02  0.22166682042E+03  0.17200000000E+03 0. -1.
         -6    1    1    2    0  502  0.13825832031E+03 -0.34909674117E+01 -0.11484527837E+03  0.24879909154E+03  0.17200000000E+03 0. -1.
<mgrwt>
<rscale>  2 0.22070693E+03</rscale>
<asrwt>0</asrwt>
<pdfrwt beam="1">  1       21 0.41876763E-01 0.22070693E+03</pdfrwt>
<pdfrwt beam="2">  1       21 0.75739715E-01 0.22070693E+03</pdfrwt>
<totfact> 0.83739714E+03</totfact>
</mgrwt>
</event>
<event>
 4    1  0.1110581E+000  0.2158941E+03  0.7546771E-02  0.1136982E+00
         21   -1    0    0  501  502  0.00000000000E+00  0.00000000000E+00  0.53254008047E+02  0.53254008047E+02  0.00000000000E+00 0. -1.
         21   -1    0    0  502  503 -0.00000000000E+00 -0.00000000000E+00 -0.91592976226E+03  0.91592976226E+03  0.00000000000E+00 0.  1.
          6    1    1    2  501    0 -0.76848172666E+02  0.10545444966E+03 -0.32920557632E+03  0.39368336779E+03  0.17200000000E+03 0. -1.
         -6    1    1    2    0  503  0.76848172666E+02 -0.10545444966E+03 -0.53347017789E+03  0.57550040251E+03  0.17200000000E+03 0.  1.
<mgrwt>
<rscale>  2 0.21589415E+03</rscale>
<asrwt>0</asrwt>
<pdfrwt beam="1">  1       21 0.13313502E-01 0.21589415E+03</pdfrwt>
<pdfrwt beam="2">  1       21 0.22898244E+00 0.21589415E+03</pdfrwt>
<totfact> 0.42229584E+03</totfact>
</mgrwt>
</event>
<event>
 4    1  0.1110581E+000  0.2213279E+03  0.7546771E-02  0.1132897E+00
         21   -1    0    0  503  502  0.00000000000E+00  0.00000000000E+00  0.29914870976E+03  0.29914870976E+03  0.00000000000E+00 0.  1.
         21   -1    0    0  501  503 -0.00000000000E+00 -0.00000000000E+00 -0.16658294725E+03  0.16658294725E+03  0.00000000000E+00 0. -1.
          6    1    1    2  501    0  0.12617747300E+03  0.59002565670E+02  0.96642254887E+02  0.24150731434E+03  0.17200000000E+03 0.  1.
         -6    1    1    2    0  502 -0.12617747300E+03 -0.59002565670E+02  0.35923507630E+02  0.22422434268E+03  0.17200000000E+03 0.  1.
<mgrwt>
<rscale>  2 0.22132794E+03</rscale>
<asrwt>0</asrwt>
<pdfrwt beam="1">  1       21 0.74787177E-01 0.22132794E+03</pdfrwt>
<pdfrwt beam="2">  1       21 0.41645737E-01 0.22132794E+03</pdfrwt>
<totfact> 0.87092690E+03</totfact>
</mgrwt>
</event>
<event>
 4    1  0.1110581E+000  0.1793463E+03  0.7546771E-02  0.1168437E+00
         21   -1    0    0  501  502  0.00000000000E+00  0.00000000000E+00  0.35493365156E+03  0.35493365156E+03  0.00000000000E+00 0. -1.
         21   -1    0    0  502  503 -0.00000000000E+00 -0.00000000000E+00 -0.92861370645E+02  0.92861370645E+02  0.00000000000E+00 0. -1.
          6    1    1    2  501    0  0.42155678809E+02  0.28354499374E+02  0.16579918356E+03  0.24424260103E+03  0.17200000000E+03 0. -1.
         -6    1    1    2    0  503 -0.42155678809E+02 -0.28354499374E+02  0.96273097357E+02  0.20355242117E+03  0.17200000000E+03 0. -1.
<mgrwt>
<rscale>  2 0.17934625E+03</rscale>
<asrwt>0</asrwt>
<pdfrwt beam="1">  1       21 0.88733410E-01 0.17934625E+03</pdfrwt>
<pdfrwt beam="2">  1       21 0.23215344E-01 0.17934625E+03</pdfrwt>
<totfact> 0.19086336E+04</totfact>
</mgrwt>
</event>
<event>
 4    1  0.1110581E+000  0.2975448E+03  0.7546771E-02  0.1086474E+00
         21   -1    0    0  501  502  0.00000000000E+00  0.00000000000E+00  0.76995080367E+03  0.76995080367E+03  0.00000000000E+00 0.  1.
         21   -1    0    0  502  503 -0.00000000000E+00 -0.00000000000E+00 -0.16509596025E+03  0.16509596025E+03  0.00000000000E+00 0.  1.
          6    1    1    2  501    0 -0.24173297076E+03 -0.22673901353E+02  0.44854219628E+02  0.30090668981E+03  0.17200000000E+03 0.  1.
         -6    1    1    2    0  503  0.24173297076E+03  0.22673901353E+02  0.56000062379E+03  0.63414007411E+03  0.17200000000E+03 0.  1.
<mgrwt>
<rscale>  2 0.29754485E+03</rscale>
<asrwt>0</asrwt>
<pdfrwt beam="1">  1       21 0.19248769E+00 0.29754485E+03</pdfrwt>
<pdfrwt beam="2">  1       21 0.41273992E-01 0.29754485E+03</pdfrwt>
<totfact> 0.77104342E+02</totfact>
</mgrwt>
</event>
<event>
 4    1  0.1110581E+000  0.2292617E+03  0.7546771E-02  0.1127161E+00
         21   -1    0    0  501  502  0.00000000000E+00  0.00000000000E+00  0.24274575490E+03  0.24274575490E+03  0.00000000000E+00 0.  1.
         21   -1    0    0  502  503 -0.00000000000E+00 -0.00000000000E+00 -0.45693394410E+03  0.45693394410E+03  0.00000000000E+00 0.  1.
          6    1    1    2  501    0  0.32157617302E+02  0.14813101771E+03  0.14666197578E+03  0.27215922894E+03  0.17200000000E+03 0.  1.
         -6    1    1    2    0  503 -0.32157617302E+02 -0.14813101771E+03 -0.36085016498E+03  0.42752047006E+03  0.17200000000E+03 0.  1.
<mgrwt>
<rscale>  2 0.22926166E+03</rscale>
<asrwt>0</asrwt>
<pdfrwt beam="1">  1       21 0.60686439E-01 0.22926166E+03</pdfrwt>
<pdfrwt beam="2">  1       21 0.11423349E+00 0.22926166E+03</pdfrwt>
<totfact> 0.14577130E+03</totfact>
</mgrwt>
</event>
<event>
 4    1  0.1110581E+000  0.1898984E+03  0.7546771E-02  0.1158553E+00
         21   -1    0    0  501  502  0.00000000000E+00  0.00000000000E+00  0.47921140216E+03  0.47921140216E+03  0.00000000000E+00 0.  1.
         21   -1    0    0  502  503 -0.00000000000E+00 -0.00000000000E+00 -0.75516931413E+02  0.75516931413E+02  0.00000000000E+00 0. -1.
          6    1    1    2  501    0  0.58618203515E+02 -0.55148025181E+02  0.18540475212E+03  0.26539841856E+03  0.17200000000E+03 0. -1.
         -6    1    1    2    0  503 -0.58618203515E+02  0.55148025181E+02  0.21828971863E+03  0.28932991502E+03  0.17200000000E+03 0.  1.
<mgrwt>
<rscale>  2 0.18989839E+03</rscale>
<asrwt>0</asrwt>
<pdfrwt beam="1">  1       21 0.11980284E+00 0.18989839E+03</pdfrwt>
<pdfrwt beam="2">  1       21 0.18879234E-01 0.18989839E+03</pdfrwt>
<totfact> 0.13654014E+04</totfact>
</mgrwt>
</event>
<event>
 4    1  0.1110581E+000  0.2210134E+03  0.7546771E-02  0.1133130E+00
         21   -1    0    0  503  502  0.00000000000E+00  0.00000000000E+00  0.90436596229E+02  0.90436596229E+02  0.00000000000E+00 0. -1.
         21   -1    0    0  501  503 -0.00000000000E+00 -0.00000000000E+00 -0.12085304465E+04  0.12085304465E+04  0.00000000000E+00 0. -1.
          6    1    1    2  501    0  0.10589594658E+03  0.89716059058E+02 -0.10420610657E+04  0.10652409058E+04  0.17200000000E+03 0. -1.
         -6    1    1    2    0  502 -0.10589594658E+03 -0.89716059058E+02 -0.76032784588E+02  0.23372613694E+03  0.17200000000E+03 0. -1.
<mgrwt>
<rscale>  2 0.22101340E+03</rscale>
<asrwt>0</asrwt>
<pdfrwt beam="1">  1       21 0.22609149E-01 0.22101340E+03</pdfrwt>
<pdfrwt beam="2">  1       21 0.30213261E+00 0.22101340E+03</pdfrwt>
<totfact> 0.58572364E+02</totfact>
</mgrwt>
</event>
<event>
 4    1  0.1110581E+000  0.1932544E+03  0.7546771E-02  0.1155558E+00
         21   -1    0    0  503  502  0.00000000000E+00  0.00000000000E+00  0.21593186178E+03  0.21593186178E+03  0.00000000000E+00 0. -1.
         21   -1    0    0  501  503 -0.00000000000E+00 -0.00000000000E+00 -0.21509292190E+03  0.21509292190E+03  0.00000000000E+00 0.  1.
          6    1    1    2  501    0 -0.21529118324E+02  0.85438558059E+02 -0.94965012074E+02  0.21532673698E+03  0.17200000000E+03 0.  1.
         -6    1    1    2    0  502  0.21529118324E+02 -0.85438558059E+02  0.95803951955E+02  0.21569804670E+03  0.17200000000E+03 0. -1.
<mgrwt>
<rscale>  2 0.19325437E+03</rscale>
<asrwt>0</asrwt>
<pdfrwt beam="1">  1       21 0.53982965E-01 0.19325437E+03</pdfrwt>
<pdfrwt beam="2">  1       21 0.53773231E-01 0.19325437E+03</pdfrwt>
<totfact> 0.10610775E+04</totfact>
</mgrwt>
</event>
<event>
 4    1  0.1110581E+000  0.2090484E+03  0.7546771E-02  0.1142322E+00
         21   -1    0    0  501  502  0.00000000000E+00  0.00000000000E+00  0.19556855724E+03  0.19556855724E+03  0.00000000000E+00 0. -1.
         21   -1    0    0  502  503 -0.00000000000E+00 -0.00000000000E+00 -0.35182711864E+03  0.35182711864E+03  0.00000000000E+00 0.  1.
          6    1    1    2  501    0 -0.25050348900E+02  0.11614527236E+03  0.87195509441E+02  0.22650452786E+03  0.17200000000E+03 0. -1.
         -6    1    1    2    0  503  0.25050348900E+02 -0.11614527236E+03 -0.24345407084E+03  0.32089114802E+03  0.17200000000E+03 0.  1.
<mgrwt>
<rscale>  2 0.20904843E+03</rscale>
<asrwt>0</asrwt>
<pdfrwt beam="1">  1       21 0.48892139E-01 0.20904843E+03</pdfrwt>
<pdfrwt beam="2">  1       21 0.87956779E-01 0.20904843E+03</pdfrwt>
<totfact> 0.43656805E+03</totfact>
</mgrwt>
</event>
<event>
 4    1  0.1110581E+000  0.2239432E+03  0.7546771E-02  0.1130977E+00
         21   -1    0    0  503  502  0.00000000000E+00  0.00000000000E+00  0.19800454765E+03  0.19800454765E+03  0.00000000000E+00 0. -1.
         21   -1    0    0  501  503 -0.00000000000E+00 -0.00000000000E+00 -0.48353747605E+03  0.48353747605E+03  0.00000000000E+00 0. -1.
          6    1    1    2  501    0  0.14340718334E+03 -0.97707264597E+00 -0.37792163061E+03  0.43928957851E+03  0.17200000000E+03 0. -1.
         -6    1    1    2    0  502 -0.14340718334E+03  0.97707264597E+00  0.92388702208E+02  0.24225244519E+03  0.17200000000E+03 0. -1.
<mgrwt>
<rscale>  2 0.22394324E+03</rscale>
<asrwt>0</asrwt>
<pdfrwt beam="1">  1       21 0.49501137E-01 0.22394324E+03</pdfrwt>
<pdfrwt beam="2">  1       21 0.12088437E+00 0.22394324E+03</pdfrwt>
<totfact> 0.19626631E+03</totfact>
</mgrwt>
</event>
<event>
 4    1  0.1110581E+000  0.2070317E+03  0.7546771E-02  0.1143938E+00
         21   -1    0    0  503  502  0.00000000000E+00  0.00000000000E+00  0.12826470011E+03  0.12826470011E+03  0.00000000000E+00 0. -1.
         21   -1    0    0  501  503 -0.00000000000E+00 -0.00000000000E+00 -0.34253555181E+03  0.34253555181E+03  0.00000000000E+00 0.  1.
          6    1    1    2  501    0  0.18128173773E+02 -0.11379585640E+03 -0.14392449593E+03  0.25214358637E+03  0.17200000000E+03 0. -1.
         -6    1    1    2    0  502 -0.18128173773E+02  0.11379585640E+03 -0.70346355768E+02  0.21865666555E+03  0.17200000000E+03 0.  1.
<mgrwt>
<rscale>  2 0.20703171E+03</rscale>
<asrwt>0</asrwt>
<pdfrwt beam="1">  1       21 0.32066175E-01 0.20703171E+03</pdfrwt>
<pdfrwt beam="2">  1       21 0.85633887E-01 0.20703171E+03</pdfrwt>
<totfact> 0.10912293E+04</totfact>
</mgrwt>
</event>
<event>
 4    1  0.1110581E+000  0.1840093E+03  0.7546771E-02  0.1163978E+00
         21   -1    0    0  503  502  0.00000000000E+00  0.00000000000E+00  0.31445615985E+03  0.31445615985E+03  0.00000000000E+00 0.  1.
         21   -1    0    0  501  503 -0.00000000000E+00 -0.00000000000E+00 -0.35018890446E+03  0.35018890446E+03  0.00000000000E+00 0.  1.
          6    1    1    2  501    0 -0.58562641885E+02 -0.29083108238E+02 -0.29441782379E+03  0.34719053151E+03  0.17200000000E+03 0.  1.
         -6    1    1    2    0  502  0.58562641885E+02  0.29083108238E+02  0.25868507917E+03  0.31745453280E+03  0.17200000000E+03 0.  1.
<mgrwt>
<rscale>  2 0.18400927E+03</rscale>
<asrwt>0</asrwt>
<pdfrwt beam="1">  1       21 0.78614040E-01 0.18400927E+03</pdfrwt>
<pdfrwt beam="2">  1       21 0.87547226E-01 0.18400927E+03</pdfrwt>
<totfact> 0.16152776E+03</totfact>
</mgrwt>
</event>
<event>
 4    1  0.1110581E+000  0.1907841E+03  0.7546771E-02  0.1157756E+00
         21   -1    0    0  501  502  0.00000000000E+00  0.00000000000E+00  0.30491102866E+02  0.30491102866E+02  0.00000000000E+00 0.  1.
         21   -1    0    0  502  503 -0.00000000000E+00 -0.00000000000E+00 -0.12451946303E+04  0.12451946303E+04  0.00000000000E+00 0. -1.
          6    1    1    2  501    0  0.26219666883E+02 -0.78275736550E+02 -0.47769603471E+03  0.51438513144E+03  0.17200000000E+03 0. -1.
         -6    1    1    2    0  503 -0.26219666883E+02  0.78275736550E+02 -0.73700749273E+03  0.76130060174E+03  0.17200000000E+03 0. -1.
<mgrwt>
<rscale>  2 0.19078407E+03</rscale>
<asrwt>0</asrwt>
<pdfrwt beam="1">  1       21 0.76227760E-02 0.19078407E+03</pdfrwt>
<pdfrwt beam="2">  1       21 0.31129864E+00 0.19078407E+03</pdfrwt>
<totfact> 0.38437070E+03</totfact>
</mgrwt>
</event>
<event>
 4    1  0.1110581E+000  0.1930618E+03  0.7546771E-02  0.1155728E+00
         21   -1    0    0  503  502  0.00000000000E+00  0.00000000000E+00  0.41221401195E+03  0.41221401195E+03  0.00000000000E+00 0. -1.
         21   -1    0    0  501  503 -0.00000000000E+00 -0.00000000000E+00 -0.15516169127E+03  0.15516169127E+03  0.00000000000E+00 0. -1.
          6    1    1    2  501    0  0.74540994583E+02 -0.46178936765E+02  0.31177310319E+03  0.36670876994E+03  0.17200000000E+03 0. -1.
         -6    1    1    2    0  502 -0.74540994583E+02  0.46178936765E+02 -0.54720782505E+02  0.20066693328E+03  0.17200000000E+03 0. -1.
<mgrwt>
<rscale>  2 0.19306179E+03</rscale>
<asrwt>0</asrwt>
<pdfrwt beam="1">  1       21 0.10305350E+00 0.19306179E+03</pdfrwt>
<pdfrwt beam="2">  1       21 0.38790424E-01 0.19306179E+03</pdfrwt>
<totfact> 0.48953543E+03</totfact>
</mgrwt>
</event>
<event>
 4    1  0.1110581E+000  0.2099881E+03  0.7546771E-02  0.1141575E+00
         21   -1    0    0  501  502  0.00000000000E+00  0.00000000000E+00  0.12916332325E+03  0.12916332325E+03  0.00000000000E+00 0. -1.
         21   -1    0    0  502  503 -0.00000000000E+00 -0.00000000000E+00 -0.49695215216E+03  0.49695215216E+03  0.00000000000E+00 0. -1.
          6    1    1    2  501    0 -0.89989468384E+02  0.80080618440E+02 -0.87405423536E+01  0.21016994778E+03  0.17200000000E+03 0. -1.
         -6    1    1    2    0  503  0.89989468384E+02 -0.80080618440E+02 -0.35904828656E+03  0.41594552762E+03  0.17200000000E+03 0. -1.
<mgrwt>
<rscale>  2 0.20998812E+03</rscale>
<asrwt>0</asrwt>
<pdfrwt beam="1">  1       21 0.32290831E-01 0.20998812E+03</pdfrwt>
<pdfrwt beam="2">  1       21 0.12423804E+00 0.20998812E+03</pdfrwt>
<totfact> 0.44066362E+03</totfact>
</mgrwt>
</event>
<event>
 4    1  0.1110581E+000  0.1920711E+03  0.7546771E-02  0.1156606E+00
         21   -1    0    0  503  502  0.00000000000E+00  0.00000000000E+00  0.22984083136E+03  0.22984083136E+03  0.00000000000E+00 0.  1.
         21   -1    0    0  501  503 -0.00000000000E+00 -0.00000000000E+00 -0.17887123178E+03  0.17887123178E+03  0.00000000000E+00 0. -1.
          6    1    1    2  501    0 -0.85228269633E+02 -0.65915780377E+01 -0.39992538100E+02  0.19619049403E+03  0.17200000000E+03 0. -1.
         -6    1    1    2    0  502  0.85228269633E+02  0.65915780377E+01  0.90962137675E+02  0.21252156911E+03  0.17200000000E+03 0. -1.
<mgrwt>
<rscale>  2 0.19207110E+03</rscale>
<asrwt>0</asrwt>
<pdfrwt beam="1">  1       21 0.57460208E-01 0.19207110E+03</pdfrwt>
<pdfrwt beam="2">  1       21 0.44717808E-01 0.19207110E+03</pdfrwt>
<totfact> 0.13650260E+04</totfact>
</mgrwt>
</event>
<event>
 4    1  0.1110581E+000  0.1927901E+03  0.7546771E-02  0.1155969E+00
         21   -1    0    0  501  502  0.00000000000E+00  0.00000000000E+00  0.18231504597E+03  0.18231504597E+03  0.00000000000E+00 0.  1.
         21   -1    0    0  502  503 -0.00000000000E+00 -0.00000000000E+00 -0.25592740666E+03  0.25592740666E+03  0.00000000000E+00 0.  1.
          6    1    1    2  501    0 -0.80397015209E+02 -0.33471663956E+02  0.62021722880E+02  0.20252092843E+03  0.17200000000E+03 0.  1.
         -6    1    1    2    0  503  0.80397015209E+02  0.33471663956E+02 -0.13563408357E+03  0.23572152419E+03  0.17200000000E+03 0.  1.
<mgrwt>
<rscale>  2 0.19279013E+03</rscale>
<asrwt>0</asrwt>
<pdfrwt beam="1">  1       21 0.45578762E-01 0.19279013E+03</pdfrwt>
<pdfrwt beam="2">  1       21 0.63981851E-01 0.19279013E+03</pdfrwt>
<totfact> 0.10411030E+04</totfact>
</mgrwt>
</event>
<event>
 4    1  0.1110581E+000  0.1730603E+03  0.7546771E-02  0.1174694E+00
         21   -1    0    0  503  502  0.00000000000E+00  0.00000000000E+00  0.70508061437E+03  0.70508061437E+03  0.00000000000E+00 0. -1.
         21   -1    0    0  501  503 -0.00000000000E+00 -0.00000000000E+00 -0.42535136359E+02  0.42535136359E+02  0.00000000000E+00 0. -1.
          6    1    1    2  501    0  0.17991118752E+02  0.64944167311E+01  0.31747810756E+03  0.36158291799E+03  0.17200000000E+03 0.  1.
         -6    1    1    2    0  502 -0.17991118752E+02 -0.64944167311E+01  0.34506737045E+03  0.38603283274E+03  0.17200000000E+03 0.  1.
<mgrwt>
<rscale>  2 0.17306027E+03</rscale>
<asrwt>0</asrwt>
<pdfrwt beam="1">  1       21 0.17627012E+00 0.17306027E+03</pdfrwt>
<pdfrwt beam="2">  1       21 0.10633786E-01 0.17306027E+03</pdfrwt>
<totfact> 0.14261542E+04</totfact>
</mgrwt>
</event>
<event>
 4    1  0.1110581E+000  0.1729659E+03  0.7546771E-02  0.1174790E+00
         21   -1    0    0  501  502  0.00000000000E+00  0.00000000000E+00  0.40009605128E+03  0.40009605128E+03  0.00000000000E+00 0.  1.
         21   -1    0    0  502  503 -0.00000000000E+00 -0.00000000000E+00 -0.94067282865E+02  0.94067282865E+02  0.00000000000E+00 0.  1.
          6    1    1    2  501    0  0.17603040405E+02 -0.48296407078E+01  0.26490991631E+03  0.31637707917E+03  0.17200000000E+03 0.  1.
         -6    1    1    2    0  503 -0.17603040405E+02  0.48296407078E+01  0.41118852102E+02  0.17778625498E+03  0.17200000000E+03 0.  1.
<mgrwt>
<rscale>  2 0.17296587E+03</rscale>
<asrwt>0</asrwt>
<pdfrwt beam="1">  1       21 0.10002401E+00 0.17296587E+03</pdfrwt>
<pdfrwt beam="2">  1       21 0.23516822E-01 0.17296587E+03</pdfrwt>
<totfact> 0.14149231E+04</totfact>
</mgrwt>
</event>
<event>
 4    1  0.1110581E+000  0.1873956E+03  0.7546771E-02  0.1160832E+00
         21   -1    0    0  501  502  0.00000000000E+00  0.00000000000E+00  0.12466317796E+03  0.12466317796E+03  0.00000000000E+00 0.  1.
         21   -1    0    0  502  503 -0.00000000000E+00 -0.00000000000E+00 -0.80941761032E+03  0.80941761032E+03  0.00000000000E+00 0.  1.
          6    1    1    2  501    0  0.32444063474E+02 -0.66936450718E+02  0.34735000439E+02  0.19058758077E+03  0.17200000000E+03 0.  1.
         -6    1    1    2    0  503 -0.32444063474E+02  0.66936450718E+02 -0.71948943281E+03  0.74349320751E+03  0.17200000000E+03 0.  1.
<mgrwt>
<rscale>  2 0.18739559E+03</rscale>
<asrwt>0</asrwt>
<pdfrwt beam="1">  1       21 0.31165795E-01 0.18739559E+03</pdfrwt>
<pdfrwt beam="2">  1       21 0.20235440E+00 0.18739559E+03</pdfrwt>
<totfact> 0.12904081E+03</totfact>
</mgrwt>
</event>
<event>
 4    1  0.1110581E+000  0.2737912E+03  0.7546771E-02  0.1099129E+00
         21   -1    0    0  503  502  0.00000000000E+00  0.00000000000E+00  0.16864275179E+03  0.16864275179E+03  0.00000000000E+00 0. -1.
         21   -1    0    0  501  503 -0.00000000000E+00 -0.00000000000E+00 -0.44477926476E+03  0.44477926476E+03  0.00000000000E+00 0.  1.
          6    1    1    2  501    0  0.20887014630E+03  0.41843596728E+02 -0.14576004121E+03  0.31017352275E+03  0.17200000000E+03 0. -1.
         -6    1    1    2    0  502 -0.20887014630E+03 -0.41843596728E+02 -0.13037647175E+03  0.30324849379E+03  0.17200000000E+03 0. -1.
<mgrwt>
<rscale>  2 0.27379121E+03</rscale>
<asrwt>0</asrwt>
<pdfrwt beam="1">  1       21 0.42160689E-01 0.27379121E+03</pdfrwt>
<pdfrwt beam="2">  1       21 0.11119481E+00 0.27379121E+03</pdfrwt>
<totfact> 0.32464374E+03</totfact>
</mgrwt>
</event>
<event>
 4    1  0.1110581E+000  0.1840044E+03  0.7546771E-02  0.1163983E+00
         21   -1    0    0  501  502  0.00000000000E+00  0.00000000000E+00  0.53798911049E+03  0.53798911049E+03  0.00000000000E+00 0. -1.
         21   -1    0    0  502  503 -0.00000000000E+00 -0.00000000000E+00 -0.16580411573E+03  0.16580411573E+03  0.00000000000E+00 0.  1.
          6    1    1    2  501    0 -0.59591012333E+02 -0.26879880737E+02  0.46327307342E+03  0.49847723850E+03  0.17200000000E+03 0. -1.
         -6    1    1    2    0  503  0.59591012333E+02  0.26879880737E+02 -0.91088078662E+02  0.20531598772E+03  0.17200000000E+03 0.  1.
<mgrwt>
<rscale>  2 0.18400439E+03</rscale>
<asrwt>0</asrwt>
<pdfrwt beam="1">  1       21 0.13449727E+00 0.18400439E+03</pdfrwt>
<pdfrwt beam="2">  1       21 0.41451030E-01 0.18400439E+03</pdfrwt>
<totfact> 0.22406307E+03</totfact>
</mgrwt>
</event>
<event>
 4    1  0.1110581E+000  0.2507080E+03  0.7546771E-02  0.1112858E+00
         21   -1    0    0  503  502  0.00000000000E+00  0.00000000000E+00  0.83941843747E+02  0.83941843747E+02  0.00000000000E+00 0. -1.
         21   -1    0    0  501  503 -0.00000000000E+00 -0.00000000000E+00 -0.77336016970E+03  0.77336016970E+03  0.00000000000E+00 0.  1.
          6    1    1    2  501    0  0.15795187909E+03  0.91223358130E+02 -0.26829914648E+03  0.36720420638E+03  0.17200000000E+03 0. -1.
         -6    1    1    2    0  502 -0.15795187909E+03 -0.91223358130E+02 -0.42111917947E+03  0.49009780707E+03  0.17200000000E+03 0.  1.
<mgrwt>
<rscale>  2 0.25070799E+03</rscale>
<asrwt>0</asrwt>
<pdfrwt beam="1">  1       21 0.20985461E-01 0.25070799E+03</pdfrwt>
<pdfrwt beam="2">  1       21 0.19334004E+00 0.25070799E+03</pdfrwt>
<totfact> 0.29740406E+03</totfact>
</mgrwt>
</event>
<event>
 4    1  0.1110581E+000  0.1883414E+03  0.7546771E-02  0.1159966E+00
         21   -1    0    0  503  502  0.00000000000E+00  0.00000000000E+00  0.52727185818E+02  0.52727185818E+02  0.00000000000E+00 0.  1.
         21   -1    0    0  501  503 -0.00000000000E+00 -0.00000000000E+00 -0.69835637536E+03  0.69835637536E+03  0.00000000000E+00 0.  1.
          6    1    1    2  501    0  0.61957650094E+02  0.45273885857E+02 -0.25091080171E+03  0.31373349449E+03  0.17200000000E+03 0.  1.
         -6    1    1    2    0  502 -0.61957650094E+02 -0.45273885857E+02 -0.39471838783E+03  0.43735006669E+03  0.17200000000E+03 0.  1.
<mgrwt>
<rscale>  2 0.18834138E+03</rscale>
<asrwt>0</asrwt>
<pdfrwt beam="1">  1       21 0.13181797E-01 0.18834138E+03</pdfrwt>
<pdfrwt beam="2">  1       21 0.17458909E+00 0.18834138E+03</pdfrwt>
<totfact> 0.98607269E+03</totfact>
</mgrwt>
</event>
<event>
 4    1  0.1110581E+000  0.2151111E+03  0.7546771E-02  0.1137581E+00
         21   -1    0    0  503  502  0.00000000000E+00  0.00000000000E+00  0.11622834426E+03  0.11622834426E+03  0.00000000000E+00 0.  1.
         21   -1    0    0  501  503 -0.00000000000E+00 -0.00000000000E+00 -0.40746619249E+03  0.40746619249E+03  0.00000000000E+00 0.  1.
          6    1    1    2  501    0 -0.10362059168E+03  0.77146220284E+02 -0.18527703566E+03  0.28390200117E+03  0.17200000000E+03 0.  1.
         -6    1    1    2    0  502  0.10362059168E+03 -0.77146220284E+02 -0.10596081257E+03  0.23979253559E+03  0.17200000000E+03 0.  1.
<mgrwt>
<rscale>  2 0.21511106E+03</rscale>
<asrwt>0</asrwt>
<pdfrwt beam="1">  1       21 0.29057086E-01 0.21511106E+03</pdfrwt>
<pdfrwt beam="2">  1       21 0.10186655E+00 0.21511106E+03</pdfrwt>
<totfact> 0.87677221E+03</totfact>
</mgrwt>
</event>
<event>
 4    1  0.1110581E+000  0.2049220E+03  0.7546771E-02  0.1145652E+00
         21   -1    0    0  501  502  0.00000000000E+00  0.00000000000E+00  0.96160687558E+02  0.96160687558E+02  0.00000000000E+00 0. -1.
         21   -1    0    0  502  503 -0.00000000000E+00 -0.00000000000E+00 -0.46488160277E+03  0.46488160277E+03  0.00000000000E+00 0.  1.
          6    1    1    2  501    0 -0.10821919896E+03  0.26412794503E+02 -0.25343287119E+03  0.32591601823E+03  0.17200000000E+03 0.  1.
         -6    1    1    2    0  503  0.10821919896E+03 -0.26412794503E+02 -0.11528804402E+03  0.23512627210E+03  0.17200000000E+03 0. -1.
<mgrwt>
<rscale>  2 0.20492201E+03</rscale>
<asrwt>0</asrwt>
<pdfrwt beam="1">  1       21 0.24040172E-01 0.20492201E+03</pdfrwt>
<pdfrwt beam="2">  1       21 0.11622040E+00 0.20492201E+03</pdfrwt>
<totfact> 0.92417400E+03</totfact>
</mgrwt>
</event>
<event>
 4    1  0.1110581E+000  0.1861509E+03  0.7546771E-02  0.1161980E+00
         21   -1    0    0  501  502  0.00000000000E+00  0.00000000000E+00  0.25562982398E+03  0.25562982398E+03  0.00000000000E+00 0. -1.
         21   -1    0    0  502  503 -0.00000000000E+00 -0.00000000000E+00 -0.34669708977E+03  0.34669708977E+03  0.00000000000E+00 0. -1.
          6    1    1    2  501    0 -0.62398557069E+02 -0.34272019872E+02  0.18949110419E+03  0.26562949730E+03  0.17200000000E+03 0. -1.
         -6    1    1    2    0  503  0.62398557069E+02  0.34272019872E+02 -0.28055836999E+03  0.33669741645E+03  0.17200000000E+03 0. -1.
<mgrwt>
<rscale>  2 0.18615088E+03</rscale>
<asrwt>0</asrwt>
<pdfrwt beam="1">  1       21 0.63907456E-01 0.18615088E+03</pdfrwt>
<pdfrwt beam="2">  1       21 0.86674272E-01 0.18615088E+03</pdfrwt>
<totfact> 0.26060002E+03</totfact>
</mgrwt>
</event>
<event>
 4    1  0.1110581E+000  0.1798400E+03  0.7546771E-02  0.1167958E+00
         21   -1    0    0  503  502  0.00000000000E+00  0.00000000000E+00  0.42488073335E+03  0.42488073335E+03  0.00000000000E+00 0.  1.
         21   -1    0    0  501  503 -0.00000000000E+00 -0.00000000000E+00 -0.12666935935E+03  0.12666935935E+03  0.00000000000E+00 0.  1.
          6    1    1    2  501    0  0.52438436786E+02  0.29395140998E+01 -0.25103823762E+02  0.18158367868E+03  0.17200000000E+03 0.  1.
         -6    1    1    2    0  502 -0.52438436786E+02 -0.29395140998E+01  0.32331519777E+03  0.36996641402E+03  0.17200000000E+03 0.  1.
<mgrwt>
<rscale>  2 0.17984001E+03</rscale>
<asrwt>0</asrwt>
<pdfrwt beam="1">  1       21 0.10622018E+00 0.17984001E+03</pdfrwt>
<pdfrwt beam="2">  1       21 0.31667341E-01 0.17984001E+03</pdfrwt>
<totfact> 0.68798127E+03</totfact>
</mgrwt>
</event>
<event>
 4    1  0.1110581E+000  0.1766077E+03  0.7546771E-02  0.1171127E+00
         21   -1    0    0  501  502  0.00000000000E+00  0.00000000000E+00  0.16138143575E+03  0.16138143575E+03  0.00000000000E+00 0. -1.
         21   -1    0    0  502  503 -0.00000000000E+00 -0.00000000000E+00 -0.20749228086E+03  0.20749228086E+03  0.00000000000E+00 0. -1.
          6    1    1    2  501    0  0.20845533206E+02 -0.34230711454E+02  0.25230781402E+02  0.17840086937E+03  0.17200000000E+03 0. -1.
         -6    1    1    2    0  503 -0.20845533206E+02  0.34230711454E+02 -0.71341626517E+02  0.19047284724E+03  0.17200000000E+03 0. -1.
<mgrwt>
<rscale>  2 0.17660769E+03</rscale>
<asrwt>0</asrwt>
<pdfrwt beam="1">  1       21 0.40345359E-01 0.17660769E+03</pdfrwt>
<pdfrwt beam="2">  1       21 0.51873070E-01 0.17660769E+03</pdfrwt>
<totfact> 0.21087013E+04</totfact>
</mgrwt>
</event>
<event>
 4    1  0.1110581E+000  0.1743258E+03  0.7546771E-02  0.1173410E+00
         21   -1    0    0  501  502  0.00000000000E+00  0.00000000000E+00  0.35298136357E+03  0.35298136357E+03  0.00000000000E+00 0.  1.
         21   -1    0    0  502  503 -0.00000000000E+00 -0.00000000000E+00 -0.20429291575E+03  0.20429291575E+03  0.00000000000E+00 0.  1.
          6    1    1    2  501    0 -0.22130035080E+02  0.17768761562E+02  0.28628751292E+03  0.33518652627E+03  0.17200000000E+03 0.  1.
         -6    1    1    2    0  503  0.22130035080E+02 -0.17768761562E+02 -0.13759906510E+03  0.22208775306E+03  0.17200000000E+03 0.  1.
<mgrwt>
<rscale>  2 0.17432575E+03</rscale>
<asrwt>0</asrwt>
<pdfrwt beam="1">  1       21 0.88245340E-01 0.17432575E+03</pdfrwt>
<pdfrwt beam="2">  1       21 0.51073229E-01 0.17432575E+03</pdfrwt>
<totfact> 0.40697751E+03</totfact>
</mgrwt>
</event>
<event>
 4    1  0.1110581E+000  0.2705024E+03  0.7546771E-02  0.1100992E+00
         21   -1    0    0  501  502  0.00000000000E+00  0.00000000000E+00  0.25783331442E+03  0.25783331442E+03  0.00000000000E+00 0.  1.
         21   -1    0    0  502  503 -0.00000000000E+00 -0.00000000000E+00 -0.38654819120E+03  0.38654819120E+03  0.00000000000E+00 0. -1.
          6    1    1    2  501    0 -0.14253594349E+03  0.15254860491E+03 -0.23047319223E+03  0.35537228984E+03  0.17200000000E+03 0. -1.
         -6    1    1    2    0  503  0.14253594349E+03 -0.15254860491E+03  0.10175831545E+03  0.28900921578E+03  0.17200000000E+03 0.  1.
<mgrwt>
<rscale>  2 0.27050244E+03</rscale>
<asrwt>0</asrwt>
<pdfrwt beam="1">  1       21 0.64458329E-01 0.27050244E+03</pdfrwt>
<pdfrwt beam="2">  1       21 0.96637047E-01 0.27050244E+03</pdfrwt>
<totfact> 0.18578256E+03</totfact>
</mgrwt>
</event>
<event>
 4    1  0.1110581E+000  0.2696526E+03  0.7546771E-02  0.1101479E+00
         21   -1    0    0  503  502  0.00000000000E+00  0.00000000000E+00  0.70598847954E+03  0.70598847954E+03  0.00000000000E+00 0. -1.
         21   -1    0    0  501  503 -0.00000000000E+00 -0.00000000000E+00 -0.18103100644E+03  0.18103100644E+03  0.00000000000E+00 0.  1.
          6    1    1    2  501    0  0.91463479436E+01 -0.20747260223E+03 -0.28711724789E+02  0.27117687862E+03  0.17200000000E+03 0.  1.
         -6    1    1    2    0  502 -0.91463479436E+01  0.20747260223E+03  0.55366919788E+03  0.61584260736E+03  0.17200000000E+03 0. -1.
<mgrwt>
<rscale>  2 0.26965262E+03</rscale>
<asrwt>0</asrwt>
<pdfrwt beam="1">  1       21 0.17649711E+00 0.26965262E+03</pdfrwt>
<pdfrwt beam="2">  1       21 0.45257753E-01 0.26965262E+03</pdfrwt>
<totfact> 0.83742171E+02</totfact>
</mgrwt>
</event>
<event>
 4    1  0.1110581E+000  0.2307425E+03  0.7546771E-02  0.1126118E+00
         21   -1    0    0  501  502  0.00000000000E+00  0.00000000000E+00  0.32841443565E+03  0.32841443565E+03  0.00000000000E+00 0.  1.
         21   -1    0    0  502  503 -0.00000000000E+00 -0.00000000000E+00 -0.10063615123E+04  0.10063615123E+04  0.00000000000E+00 0.  1.
          6    1    1    2  501    0 -0.44034075908E+02 -0.14737399702E+03  0.27229926515E+03  0.35691593498E+03  0.17200000000E+03 0.  1.
         -6    1    1    2    0  503  0.44034075908E+02  0.14737399702E+03 -0.95024634180E+03  0.97786001296E+03  0.17200000000E+03 0.  1.
<mgrwt>
<rscale>  2 0.23074249E+03</rscale>
<asrwt>0</asrwt>
<pdfrwt beam="1">  1       21 0.82103609E-01 0.23074249E+03</pdfrwt>
<pdfrwt beam="2">  1       21 0.25159038E+00 0.23074249E+03</pdfrwt>
<totfact> 0.79861039E+01</totfact>
</mgrwt>
</event>
<event>
 4    1  0.1110581E+000  0.1817762E+03  0.7546771E-02  0.1166095E+00
         21   -1    0    0  501  502  0.00000000000E+00  0.00000000000E+00  0.10174381346E+03  0.10174381346E+03  0.00000000000E+00 0.  1.
         21   -1    0    0  502  503 -0.00000000000E+00 -0.00000000000E+00 -0.36329608724E+03  0.36329608724E+03  0.00000000000E+00 0.  1.
          6    1    1    2  501    0  0.58336290624E+02  0.74470132676E+01 -0.55049394958E+02  0.18992897803E+03  0.17200000000E+03 0.  1.
         -6    1    1    2    0  503 -0.58336290624E+02 -0.74470132676E+01 -0.20650287882E+03  0.27511092267E+03  0.17200000000E+03 0.  1.
<mgrwt>
<rscale>  2 0.18177618E+03</rscale>
<asrwt>0</asrwt>
<pdfrwt beam="1">  1       21 0.25435954E-01 0.18177618E+03</pdfrwt>
<pdfrwt beam="2">  1       21 0.90824021E-01 0.18177618E+03</pdfrwt>
<totfact> 0.15180627E+04</totfact>
</mgrwt>
</event>
<event>
 4    1  0.1110581E+000  0.2349049E+03  0.7546771E-02  0.1123234E+00
         21   -1    0    0  501  502  0.00000000000E+00  0.00000000000E+00  0.27116117427E+03  0.27116117427E+03  0.00000000000E+00 0. -1.
         21   -1    0    0  502  503 -0.00000000000E+00 -0.00000000000E+00 -0.21427805020E+03  0.21427805020E+03  0.00000000000E+00 0.  1.
          6    1    1    2  501    0 -0.15562809562E+03  0.37096994785E+02  0.82886937072E+02  0.24909944902E+03  0.17200000000E+03 0. -1.
         -6    1    1    2    0  503  0.15562809562E+03 -0.37096994785E+02 -0.26003812998E+02  0.23633977545E+03  0.17200000000E+03 0.  1.
<mgrwt>
<rscale>  2 0.23490486E+03</rscale>
<asrwt>0</asrwt>
<pdfrwt beam="1">  1       21 0.67790293E-01 0.23490486E+03</pdfrwt>
<pdfrwt beam="2">  1       21 0.53569513E-01 0.23490486E+03</pdfrwt>
<totfact> 0.63658115E+03</totfact>
</mgrwt>
</event>
<event>
 4    1  0.1110581E+000  0.2254036E+03  0.7546771E-02  0.1129917E+00
         21   -1    0    0  501  502  0.00000000000E+00  0.00000000000E+00  0.11807133925E+03  0.11807133925E+03  0.00000000000E+00 0.  1.
         21   -1    0    0  502  503 -0.00000000000E+00 -0.00000000000E+00 -0.44195060143E+03  0.44195060143E+03  0.00000000000E+00 0. -1.
          6    1    1    2  501    0 -0.11093538656E+02 -0.14525735281E+03 -0.11648722253E+03  0.25372433497E+03  0.17200000000E+03 0.  1.
         -6    1    1    2    0  503  0.11093538656E+02  0.14525735281E+03 -0.20739203965E+03  0.30629760570E+03  0.17200000000E+03 0. -1.
<mgrwt>
<rscale>  2 0.22540356E+03</rscale>
<asrwt>0</asrwt>
<pdfrwt beam="1">  1       21 0.29517835E-01 0.22540356E+03</pdfrwt>
<pdfrwt beam="2">  1       21 0.11048765E+00 0.22540356E+03</pdfrwt>
<totfact> 0.69395603E+03</totfact>
</mgrwt>
</event>
<event>
 4    1  0.1110581E+000  0.1755347E+03  0.7546771E-02  0.1172196E+00
         21   -1    0    0  503  502  0.00000000000E+00  0.00000000000E+00  0.21669513581E+03  0.21669513581E+03  0.00000000000E+00 0.  1.
         21   -1    0    0  501  503 -0.00000000000E+00 -0.00000000000E+00 -0.16014866616E+03  0.16014866616E+03  0.00000000000E+00 0.  1.
          6    1    1    2  501    0 -0.11480416704E+02  0.33115332312E+02 -0.34819072272E+02  0.17895472331E+03  0.17200000000E+03 0.  1.
         -6    1    1    2    0  502  0.11480416704E+02 -0.33115332312E+02  0.91365541923E+02  0.19788907866E+03  0.17200000000E+03 0.  1.
<mgrwt>
<rscale>  2 0.17553468E+03</rscale>
<asrwt>0</asrwt>
<pdfrwt beam="1">  1       21 0.54173784E-01 0.17553468E+03</pdfrwt>
<pdfrwt beam="2">  1       21 0.40037167E-01 0.17553468E+03</pdfrwt>
<totfact> 0.19564514E+04</totfact>
</mgrwt>
</event>
<event>
 4    1  0.1110581E+000  0.1770255E+03  0.7546771E-02  0.1170713E+00
         21   -1    0    0  501  502  0.00000000000E+00  0.00000000000E+00  0.12618594493E+04  0.12618594493E+04  0.00000000000E+00 0.  1.
         21   -1    0    0  502  503 -0.00000000000E+00 -0.00000000000E+00 -0.63340096381E+02  0.63340096381E+02  0.00000000000E+00 0.  1.
          6    1    1    2  501    0 -0.41111631756E+02 -0.79905451481E+01  0.11158808618E+04  0.11298354362E+04  0.17200000000E+03 0.  1.
         -6    1    1    2    0  503  0.41111631756E+02  0.79905451481E+01  0.82638491134E+02  0.19536410953E+03  0.17200000000E+03 0.  1.
<mgrwt>
<rscale>  2 0.17702546E+03</rscale>
<asrwt>0</asrwt>
<pdfrwt beam="1">  1       21 0.31546478E+00 0.17702546E+03</pdfrwt>
<pdfrwt beam="2">  1       21 0.15835028E-01 0.17702546E+03</pdfrwt>
<totfact> 0.10106147E+03</totfact>
</mgrwt>
</event>
<event>
 4    1  0.1110581E+000  0.1791502E+03  0.7546771E-02  0.1168628E+00
         21   -1    0    0  501  502  0.00000000000E+00  0.00000000000E+00  0.70711328250E+03  0.70711328250E+03  0.00000000000E+00 0. -1.
         21   -1    0    0  502  503 -0.00000000000E+00 -0.00000000000E+00 -0.13700392356E+03  0.13700392356E+03  0.00000000000E+00 0. -1.
          6    1    1    2  501    0 -0.20339747462E+02  0.45793978251E+02  0.63019095654E+03  0.65516061808E+03  0.17200000000E+03 0. -1.
         -6    1    1    2    0  503  0.20339747462E+02 -0.45793978251E+02 -0.60081597608E+02  0.18895658798E+03  0.17200000000E+03 0. -1.
<mgrwt>
<rscale>  2 0.17915020E+03</rscale>
<asrwt>0</asrwt>
<pdfrwt beam="1">  1       21 0.17677831E+00 0.17915020E+03</pdfrwt>
<pdfrwt beam="2">  1       21 0.34250983E-01 0.17915020E+03</pdfrwt>
<totfact> 0.15951453E+03</totfact>
</mgrwt>
</event>
<event>
 4    1  0.1110581E+000  0.4861002E+03  0.7546771E-02  0.1017472E+00
         21   -1    0    0  501  502  0.00000000000E+00  0.00000000000E+00  0.13150190191E+03  0.13150190191E+03  0.00000000000E+00 0.  1.
         21   -1    0    0  502  503 -0.00000000000E+00 -0.00000000000E+00 -0.20482403459E+04  0.20482403459E+04  0.00000000000E+00 0. -1.
          6    1    1    2  501    0  0.31533571032E+03  0.32752521699E+03 -0.13401653246E+04  0.14256003911E+04  0.17200000000E+03 0. -1.
         -6    1    1    2    0  503 -0.31533571032E+03 -0.32752521699E+03 -0.57657311936E+03  0.75414185664E+03  0.17200000000E+03 0.  1.
<mgrwt>
<rscale>  2 0.48610017E+03</rscale>
<asrwt>0</asrwt>
<pdfrwt beam="1">  1       21 0.32875475E-01 0.48610017E+03</pdfrwt>
<pdfrwt beam="2">  1       21 0.51206009E+00 0.48610017E+03</pdfrwt>
<totfact> 0.96870507E+00</totfact>
</mgrwt>
</event>
<event>
 4    1  0.1110581E+000  0.2481845E+03  0.7546771E-02  0.1114458E+00
         21   -1    0    0  501  502  0.00000000000E+00  0.00000000000E+00  0.42023561877E+03  0.42023561877E+03  0.00000000000E+00 0. -1.
         21   -1    0    0  502  503 -0.00000000000E+00 -0.00000000000E+00 -0.14812782555E+03  0.14812782555E+03  0.00000000000E+00 0.  1.
          6    1    1    2  501    0 -0.32327399916E+02 -0.17597296427E+03  0.10694656193E+03  0.27024639137E+03  0.17200000000E+03 0.  1.
         -6    1    1    2    0  503  0.32327399916E+02  0.17597296427E+03  0.16516123129E+03  0.29811705295E+03  0.17200000000E+03 0. -1.
<mgrwt>
<rscale>  2 0.24818450E+03</rscale>
<asrwt>0</asrwt>
<pdfrwt beam="1">  1       21 0.10505890E+00 0.24818450E+03</pdfrwt>
<pdfrwt beam="2">  1       21 0.37031957E-01 0.24818450E+03</pdfrwt>
<totfact> 0.49298853E+03</totfact>
</mgrwt>
</event>
<event>
 4    1  0.1110581E+000  0.1739949E+03  0.7546771E-02  0.1173745E+00
         21   -1    0    0  501  502  0.00000000000E+00  0.00000000000E+00  0.28146769456E+02  0.28146769456E+02  0.00000000000E+00 0. -1.
         21   -1    0    0  502  503 -0.00000000000E+00 -0.00000000000E+00 -0.13052412541E+04  0.13052412541E+04  0.00000000000E+00 0. -1.
          6    1    1    2  501    0 -0.11208704801E+02 -0.23761455829E+02 -0.35889369254E+03  0.39884699371E+03  0.17200000000E+03 0.  1.
         -6    1    1    2    0  503  0.11208704801E+02  0.23761455829E+02 -0.91820079208E+03  0.93454102982E+03  0.17200000000E+03 0.  1.
<mgrwt>
<rscale>  2 0.17399495E+03</rscale>
<asrwt>0</asrwt>
<pdfrwt beam="1">  1       21 0.70366922E-02 0.17399495E+03</pdfrwt>
<pdfrwt beam="2">  1       21 0.32631032E+00 0.17399495E+03</pdfrwt>
<totfact> 0.36965482E+03</totfact>
</mgrwt>
</event>
<event>
 4    1  0.1110581E+000  0.1788839E+03  0.7546771E-02  0.1168888E+00
         21   -1    0    0  503  502  0.00000000000E+00  0.00000000000E+00  0.11830693291E+03  0.11830693291E+03  0.00000000000E+00 0.  1.
         21   -1    0    0  501  503 -0.00000000000E+00 -0.00000000000E+00 -0.35231632912E+03  0.35231632912E+03  0.00000000000E+00 0.  1.
          6    1    1    2  501    0 -0.44751963003E+02 -0.20315461160E+02 -0.23041555511E+03  0.29170324680E+03  0.17200000000E+03 0.  1.
         -6    1    1    2    0  502  0.44751963003E+02  0.20315461160E+02 -0.35938411015E+01  0.17892001523E+03  0.17200000000E+03 0.  1.
<mgrwt>
<rscale>  2 0.17888392E+03</rscale>
<asrwt>0</asrwt>
<pdfrwt beam="1">  1       21 0.29576733E-01 0.17888392E+03</pdfrwt>
<pdfrwt beam="2">  1       21 0.88079082E-01 0.17888392E+03</pdfrwt>
<totfact> 0.12210808E+04</totfact>
</mgrwt>
</event>
<event>
 4    1  0.1110581E+000  0.1960455E+03  0.7546771E-02  0.1153119E+00
         21   -1    0    0  503  502  0.00000000000E+00  0.00000000000E+00  0.13642890209E+03  0.13642890209E+03  0.00000000000E+00 0. -1.
         21   -1    0    0  501  503 -0.00000000000E+00 -0.00000000000E+00 -0.28175709013E+03  0.28175709013E+03  0.00000000000E+00 0. -1.
          6    1    1    2  501    0  0.40095369050E+02  0.85101219284E+02 -0.75266439418E+02  0.20999736438E+03  0.17200000000E+03 0. -1.
         -6    1    1    2    0  502 -0.40095369050E+02 -0.85101219284E+02 -0.70061748626E+02  0.20818862784E+03  0.17200000000E+03 0. -1.
<mgrwt>
<rscale>  2 0.19604555E+03</rscale>
<asrwt>0</asrwt>
<pdfrwt beam="1">  1       21 0.34107226E-01 0.19604555E+03</pdfrwt>
<pdfrwt beam="2">  1       21 0.70439272E-01 0.19604555E+03</pdfrwt>
<totfact> 0.15104486E+04</totfact>
</mgrwt>
</event>
<event>
 4    1  0.1110581E+000  0.2125268E+03  0.7546771E-02  0.1139581E+00
         21   -1    0    0  503  502  0.00000000000E+00  0.00000000000E+00  0.19058659548E+03  0.19058659548E+03  0.00000000000E+00 0.  1.
         21   -1    0    0  501  503 -0.00000000000E+00 -0.00000000000E+00 -0.60353320950E+03  0.60353320950E+03  0.00000000000E+00 0. -1.
          6    1    1    2  501    0 -0.11916503910E+03 -0.37193087863E+02 -0.51590616857E+03  0.55796667203E+03  0.17200000000E+03 0. -1.
         -6    1    1    2    0  502  0.11916503910E+03  0.37193087863E+02  0.10295955455E+03  0.23615313295E+03  0.17200000000E+03 0.  1.
<mgrwt>
<rscale>  2 0.21252678E+03</rscale>
<asrwt>0</asrwt>
<pdfrwt beam="1">  1       21 0.47646649E-01 0.21252678E+03</pdfrwt>
<pdfrwt beam="2">  1       21 0.15088330E+00 0.21252678E+03</pdfrwt>
<totfact> 0.12153785E+03</totfact>
</mgrwt>
</event>
<event>
 4    1  0.1110581E+000  0.1903442E+03  0.7546771E-02  0.1158151E+00
         21   -1    0    0  501  502  0.00000000000E+00  0.00000000000E+00  0.94289580962E+03  0.94289580962E+03  0.00000000000E+00 0.  1.
         21   -1    0    0  502  503 -0.00000000000E+00 -0.00000000000E+00 -0.43867734404E+02  0.43867734404E+02  0.00000000000E+00 0.  1.
          6    1    1    2  501    0  0.17510728495E+02  0.79625926586E+02  0.62329934123E+03  0.65171541533E+03  0.17200000000E+03 0.  1.
         -6    1    1    2    0  503 -0.17510728495E+02 -0.79625926586E+02  0.27572873398E+03  0.33504812869E+03  0.17200000000E+03 0.  1.
<mgrwt>
<rscale>  2 0.19034420E+03</rscale>
<asrwt>0</asrwt>
<pdfrwt beam="1">  1       21 0.23572389E+00 0.19034420E+03</pdfrwt>
<pdfrwt beam="2">  1       21 0.10966937E-01 0.19034420E+03</pdfrwt>
<totfact> 0.55797562E+03</totfact>
</mgrwt>
</event>
<event>
 4    1  0.1110581E+000  0.1994454E+03  0.7546771E-02  0.1150208E+00
         21   -1    0    0  501  502  0.00000000000E+00  0.00000000000E+00  0.30554344472E+03  0.30554344472E+03  0.00000000000E+00 0.  1.
         21   -1    0    0  502  503 -0.00000000000E+00 -0.00000000000E+00 -0.13043695385E+03  0.13043695385E+03  0.00000000000E+00 0.  1.
          6    1    1    2  501    0 -0.76172846034E+02  0.66273402004E+02  0.78053342680E+02  0.21417467308E+03  0.17200000000E+03 0.  1.
         -6    1    1    2    0  503  0.76172846034E+02 -0.66273402004E+02  0.97053148188E+02  0.22180572549E+03  0.17200000000E+03 0.  1.
<mgrwt>
<rscale>  2 0.19944540E+03</rscale>
<asrwt>0</asrwt>
<pdfrwt beam="1">  1       21 0.76385860E-01 0.19944540E+03</pdfrwt>
<pdfrwt beam="2">  1       21 0.32609239E-01 0.19944540E+03</pdfrwt>
<totfact> 0.13750853E+04</totfact>
</mgrwt>
</event>
<event>
 4    1  0.1110581E+000  0.1916415E+03  0.7546771E-02  0.1156989E+00
         21   -1    0    0  503  502  0.00000000000E+00  0.00000000000E+00  0.55404415787E+03  0.55404415787E+03  0.00000000000E+00 0. -1.
         21   -1    0    0  501  503 -0.00000000000E+00 -0.00000000000E+00 -0.95899015094E+02  0.95899015094E+02  0.00000000000E+00 0. -1.
          6    1    1    2  501    0 -0.36770754018E+02 -0.76094629604E+02  0.48494529143E+02  0.19768206889E+03  0.17200000000E+03 0. -1.
         -6    1    1    2    0  502  0.36770754018E+02  0.76094629604E+02  0.40965061364E+03  0.45226110407E+03  0.17200000000E+03 0. -1.
<mgrwt>
<rscale>  2 0.19164154E+03</rscale>
<asrwt>0</asrwt>
<pdfrwt beam="1">  1       21 0.13851103E+00 0.19164154E+03</pdfrwt>
<pdfrwt beam="2">  1       21 0.23974755E-01 0.19164154E+03</pdfrwt>
<totfact> 0.60394268E+03</totfact>
</mgrwt>
</event>
<event>
 4    1  0.1110581E+000  0.1725241E+03  0.7546771E-02  0.1175241E+00
         21   -1    0    0  501  502  0.00000000000E+00  0.00000000000E+00  0.25753570186E+03  0.25753570186E+03  0.00000000000E+00 0.  1.
         21   -1    0    0  502  503 -0.00000000000E+00 -0.00000000000E+00 -0.14723750903E+03  0.14723750903E+03  0.00000000000E+00 0.  1.
          6    1    1    2  501    0  0.10601220815E+02 -0.82560356223E+01  0.14900226653E+03  0.22796101298E+03  0.17200000000E+03 0.  1.
         -6    1    1    2    0  503 -0.10601220815E+02  0.82560356223E+01 -0.38704073699E+02  0.17681219790E+03  0.17200000000E+03 0.  1.
<mgrwt>
<rscale>  2 0.17252405E+03</rscale>
<asrwt>0</asrwt>
<pdfrwt beam="1">  1       21 0.64383925E-01 0.17252405E+03</pdfrwt>
<pdfrwt beam="2">  1       21 0.36809378E-01 0.17252405E+03</pdfrwt>
<totfact> 0.16043593E+04</totfact>
</mgrwt>
</event>
<event>
 4    1  0.1110581E+000  0.2758815E+03  0.7546771E-02  0.1097960E+00
         21   -1    0    0  501  502  0.00000000000E+00  0.00000000000E+00  0.28449289448E+03  0.28449289448E+03  0.00000000000E+00 0.  1.
         21   -1    0    0  502  503 -0.00000000000E+00 -0.00000000000E+00 -0.45975651925E+03  0.45975651925E+03  0.00000000000E+00 0.  1.
          6    1    1    2  501    0 -0.34686665645E+02 -0.21289305027E+03  0.15298739340E+03  0.31546118330E+03  0.17200000000E+03 0.  1.
         -6    1    1    2    0  503  0.34686665645E+02  0.21289305027E+03 -0.32825101817E+03  0.42878823043E+03  0.17200000000E+03 0.  1.
<mgrwt>
<rscale>  2 0.27588152E+03</rscale>
<asrwt>0</asrwt>
<pdfrwt beam="1">  1       21 0.71123224E-01 0.27588152E+03</pdfrwt>
<pdfrwt beam="2">  1       21 0.11493913E+00 0.27588152E+03</pdfrwt>
<totfact> 0.97774318E+02</totfact>
</mgrwt>
</event>
<event>
 4    1  0.1110581E+000  0.2953326E+03  0.7546771E-02  0.1087597E+00
         21   -1    0    0  503  502  0.00000000000E+00  0.00000000000E+00  0.20483421625E+03  0.20483421625E+03  0.00000000000E+00 0. -1.
         21   -1    0    0  501  503 -0.00000000000E+00 -0.00000000000E+00 -0.10799495145E+04  0.10799495145E+04  0.00000000000E+00 0.  1.
          6    1    1    2  501    0 -0.20156758869E+03  0.13041410185E+03 -0.93751399265E+03  0.98293123726E+03  0.17200000000E+03 0.  1.
         -6    1    1    2    0  502  0.20156758869E+03 -0.13041410185E+03  0.62398694382E+02  0.30185249350E+03  0.17200000000E+03 0. -1.
<mgrwt>
<rscale>  2 0.29533258E+03</rscale>
<asrwt>0</asrwt>
<pdfrwt beam="1">  1       21 0.51208554E-01 0.29533258E+03</pdfrwt>
<pdfrwt beam="2">  1       21 0.26998738E+00 0.29533258E+03</pdfrwt>
<totfact> 0.16287821E+02</totfact>
</mgrwt>
</event>
<event>
 4    1  0.1110581E+000  0.1856537E+03  0.7546771E-02  0.1162441E+00
         21   -1    0    0  503  502  0.00000000000E+00  0.00000000000E+00  0.33871883603E+03  0.33871883603E+03  0.00000000000E+00 0.  1.
         21   -1    0    0  501  503 -0.00000000000E+00 -0.00000000000E+00 -0.10487286707E+03  0.10487286707E+03  0.00000000000E+00 0. -1.
          6    1    1    2  501    0 -0.37826424344E+02  0.58757699452E+02  0.78697674928E+02  0.20164481065E+03  0.17200000000E+03 0. -1.
         -6    1    1    2    0  502  0.37826424344E+02 -0.58757699452E+02  0.15514829403E+03  0.24194689244E+03  0.17200000000E+03 0. -1.
<mgrwt>
<rscale>  2 0.18565373E+03</rscale>
<asrwt>0</asrwt>
<pdfrwt beam="1">  1       21 0.84679707E-01 0.18565373E+03</pdfrwt>
<pdfrwt beam="2">  1       21 0.26218218E-01 0.18565373E+03</pdfrwt>
<totfact> 0.16787092E+04</totfact>
</mgrwt>
</event>
<event>
 4    1  0.1110581E+000  0.1977316E+03  0.7546771E-02  0.1151667E+00
         21   -1    0    0  501  502  0.00000000000E+00  0.00000000000E+00  0.93420323979E+02  0.93420323979E+02  0.00000000000E+00 0. -1.
         21   -1    0    0  502  503 -0.00000000000E+00 -0.00000000000E+00 -0.69349521353E+03  0.69349521353E+03  0.00000000000E+00 0.  1.
          6    1    1    2  501    0  0.88070382888E+02  0.41921193506E+02 -0.52279636409E+02  0.20452613327E+03  0.17200000000E+03 0. -1.
         -6    1    1    2    0  503 -0.88070382888E+02 -0.41921193506E+02 -0.54779525315E+03  0.58238940424E+03  0.17200000000E+03 0.  1.
<mgrwt>
<rscale>  2 0.19773158E+03</rscale>
<asrwt>0</asrwt>
<pdfrwt beam="1">  1       21 0.23355081E-01 0.19773158E+03</pdfrwt>
<pdfrwt beam="2">  1       21 0.17337380E+00 0.19773158E+03</pdfrwt>
<totfact> 0.34682699E+03</totfact>
</mgrwt>
</event>
<event>
 4    1  0.1110581E+000  0.1895641E+03  0.7546771E-02  0.1158855E+00
         21   -1    0    0  503  502  0.00000000000E+00  0.00000000000E+00  0.28173663032E+03  0.28173663032E+03  0.00000000000E+00 0. -1.
         21   -1    0    0  501  503 -0.00000000000E+00 -0.00000000000E+00 -0.20863845873E+03  0.20863845873E+03  0.00000000000E+00 0. -1.
          6    1    1    2  501    0  0.76692717603E+02 -0.21651439553E+02 -0.11630947576E+03  0.22240155557E+03  0.17200000000E+03 0. -1.
         -6    1    1    2    0  502 -0.76692717603E+02  0.21651439553E+02  0.18940764735E+03  0.26797353348E+03  0.17200000000E+03 0. -1.
<mgrwt>
<rscale>  2 0.18956413E+03</rscale>
<asrwt>0</asrwt>
<pdfrwt beam="1">  1       21 0.70434157E-01 0.18956413E+03</pdfrwt>
<pdfrwt beam="2">  1       21 0.52159615E-01 0.18956413E+03</pdfrwt>
<totfact> 0.63900390E+03</totfact>
</mgrwt>
</event>
<event>
 4    1  0.1110581E+000  0.1859110E+03  0.7546771E-02  0.1162202E+00
         21   -1    0    0  503  502  0.00000000000E+00  0.00000000000E+00  0.18472202872E+03  0.18472202872E+03  0.00000000000E+00 0.  1.
         21   -1    0    0  501  503 -0.00000000000E+00 -0.00000000000E+00 -0.19271674023E+03  0.19271674023E+03  0.00000000000E+00 0.  1.
          6    1    1    2  501    0 -0.65195909113E+02  0.26988788667E+02 -0.36193489347E+02  0.18940134622E+03  0.17200000000E+03 0.  1.
         -6    1    1    2    0  502  0.65195909113E+02 -0.26988788667E+02  0.28198777836E+02  0.18803742274E+03  0.17200000000E+03 0.  1.
<mgrwt>
<rscale>  2 0.18591100E+03</rscale>
<asrwt>0</asrwt>
<pdfrwt beam="1">  1       21 0.46180507E-01 0.18591100E+03</pdfrwt>
<pdfrwt beam="2">  1       21 0.48179185E-01 0.18591100E+03</pdfrwt>
<totfact> 0.18567449E+04</totfact>
</mgrwt>
</event>
<event>
 4    1  0.1110581E+000  0.2168419E+03  0.7546771E-02  0.1136260E+00
         21   -1    0    0  501  502  0.00000000000E+00  0.00000000000E+00  0.10184711507E+04  0.10184711507E+04  0.00000000000E+00 0. -1.
         21   -1    0    0  502  503 -0.00000000000E+00 -0.00000000000E+00 -0.15662389740E+03  0.15662389740E+03  0.00000000000E+00 0. -1.
          6    1    1    2  501    0  0.13163714459E+03  0.10396632657E+02  0.92433495191E+03  0.94942905535E+03  0.17200000000E+03 0. -1.
         -6    1    1    2    0  503 -0.13163714459E+03 -0.10396632657E+02 -0.62487698611E+02  0.22566599275E+03  0.17200000000E+03 0. -1.
<mgrwt>
<rscale>  2 0.21684194E+03</rscale>
<asrwt>0</asrwt>
<pdfrwt beam="1">  1       21 0.25461777E+00 0.21684194E+03</pdfrwt>
<pdfrwt beam="2">  1       21 0.39155977E-01 0.21684194E+03</pdfrwt>
<totfact> 0.38066613E+02</totfact>
</mgrwt>
</event>
<event>
 4    1  0.1110581E+000  0.1744251E+03  0.7546771E-02  0.1173310E+00
         21   -1    0    0  503  502  0.00000000000E+00  0.00000000000E+00  0.22818055498E+03  0.22818055498E+03  0.00000000000E+00 0. -1.
         21   -1    0    0  501  503 -0.00000000000E+00 -0.00000000000E+00 -0.14942919709E+03  0.14942919709E+03  0.00000000000E+00 0. -1.
          6    1    1    2  501    0  0.15617684262E+02  0.24417247912E+02  0.10134122053E+03  0.20172792825E+03  0.17200000000E+03 0. -1.
         -6    1    1    2    0  502 -0.15617684262E+02 -0.24417247912E+02 -0.22589862645E+02  0.17588182382E+03  0.17200000000E+03 0. -1.
<mgrwt>
<rscale>  2 0.17442510E+03</rscale>
<asrwt>0</asrwt>
<pdfrwt beam="1">  1       21 0.57045138E-01 0.17442510E+03</pdfrwt>
<pdfrwt beam="2">  1       21 0.37357300E-01 0.17442510E+03</pdfrwt>
<totfact> 0.20169839E+04</totfact>
</mgrwt>
</event>
<event>
 4    1  0.1110581E+000  0.1771438E+03  0.7546771E-02  0.1170596E+00
         21   -1    0    0  503  502  0.00000000000E+00  0.00000000000E+00  0.55465895423E+02  0.55465895423E+02  0.00000000000E+00 0. -1.
         21   -1    0    0  501  503 -0.00000000000E+00 -0.00000000000E+00 -0.10377242696E+04  0.10377242696E+04  0.00000000000E+00 0. -1.
          6    1    1    2  501    0  0.44125909508E+01  0.42148042223E+02 -0.85975274049E+03  0.87781245332E+03  0.17200000000E+03 0. -1.
         -6    1    1    2    0  502 -0.44125909508E+01 -0.42148042223E+02 -0.12250563373E+03  0.21537771175E+03  0.17200000000E+03 0. -1.
<mgrwt>
<rscale>  2 0.17714381E+03</rscale>
<asrwt>0</asrwt>
<pdfrwt beam="1">  1       21 0.13866474E-01 0.17714381E+03</pdfrwt>
<pdfrwt beam="2">  1       21 0.25943107E+00 0.17714381E+03</pdfrwt>
<totfact> 0.26980241E+03</totfact>
</mgrwt>
</event>
<event>
 4    1  0.1110581E+000  0.2004713E+03  0.7546771E-02  0.1149342E+00
         21   -1    0    0  501  502  0.00000000000E+00  0.00000000000E+00  0.34883346205E+03  0.34883346205E+03  0.00000000000E+00 0.  1.
         21   -1    0    0  502  503 -0.00000000000E+00 -0.00000000000E+00 -0.11629196039E+03  0.11629196039E+03  0.00000000000E+00 0.  1.
          6    1    1    2  501    0 -0.98964603533E+02  0.28473872306E+02  0.13871327087E+03  0.24378294787E+03  0.17200000000E+03 0.  1.
         -6    1    1    2    0  503  0.98964603533E+02 -0.28473872306E+02  0.93828230797E+02  0.22134247458E+03  0.17200000000E+03 0.  1.
<mgrwt>
<rscale>  2 0.20047133E+03</rscale>
<asrwt>0</asrwt>
<pdfrwt beam="1">  1       21 0.87208363E-01 0.20047133E+03</pdfrwt>
<pdfrwt beam="2">  1       21 0.29072991E-01 0.20047133E+03</pdfrwt>
<totfact> 0.12730640E+04</totfact>
</mgrwt>
</event>
<event>
 4    1  0.1110581E+000  0.1739996E+03  0.7546771E-02  0.1173740E+00
         21   -1    0    0  503  502  0.00000000000E+00  0.00000000000E+00  0.66426347618E+02  0.66426347618E+02  0.00000000000E+00 0. -1.
         21   -1    0    0  501  503 -0.00000000000E+00 -0.00000000000E+00 -0.51097061935E+03  0.51097061935E+03  0.00000000000E+00 0. -1.
          6    1    1    2  501    0  0.24151619204E+02 -0.10419195770E+02 -0.31715234641E+03  0.36174780052E+03  0.17200000000E+03 0. -1.
         -6    1    1    2    0  502 -0.24151619204E+02  0.10419195770E+02 -0.12739192532E+03  0.21564916644E+03  0.17200000000E+03 0. -1.
<mgrwt>
<rscale>  2 0.17399960E+03</rscale>
<asrwt>0</asrwt>
<pdfrwt beam="1">  1       21 0.16606587E-01 0.17399960E+03</pdfrwt>
<pdfrwt beam="2">  1       21 0.12774265E+00 0.17399960E+03</pdfrwt>
<totfact> 0.14904907E+04</totfact>
</mgrwt>
</event>
<event>
 4    1  0.1110581E+000  0.2233220E+03  0.7546771E-02  0.1131430E+00
         21   -1    0    0  503  502  0.00000000000E+00  0.00000000000E+00  0.12384168558E+03  0.12384168558E+03  0.00000000000E+00 0. -1.
         21   -1    0    0  501  503 -0.00000000000E+00 -0.00000000000E+00 -0.40528595650E+03  0.40528595650E+03  0.00000000000E+00 0. -1.
          6    1    1    2  501    0 -0.54139937267E+02  0.13174814689E+03 -0.11964402763E+03  0.25335232457E+03  0.17200000000E+03 0. -1.
         -6    1    1    2    0  502  0.54139937267E+02 -0.13174814689E+03 -0.16180024329E+03  0.27577531751E+03  0.17200000000E+03 0. -1.
<mgrwt>
<rscale>  2 0.22332198E+03</rscale>
<asrwt>0</asrwt>
<pdfrwt beam="1">  1       21 0.30960422E-01 0.22332198E+03</pdfrwt>
<pdfrwt beam="2">  1       21 0.10132149E+00 0.22332198E+03</pdfrwt>
<totfact> 0.78020489E+03</totfact>
</mgrwt>
</event>
<event>
 4    1  0.1110581E+000  0.1815716E+03  0.7546771E-02  0.1166291E+00
         21   -1    0    0  503  502  0.00000000000E+00  0.00000000000E+00  0.27801840695E+03  0.27801840695E+03  0.00000000000E+00 0. -1.
         21   -1    0    0  501  503 -0.00000000000E+00 -0.00000000000E+00 -0.17517448243E+03  0.17517448243E+03  0.00000000000E+00 0. -1.
          6    1    1    2  501    0 -0.57425953337E+02  0.93015084981E+01 -0.77371312398E+02  0.19736914186E+03  0.17200000000E+03 0. -1.
         -6    1    1    2    0  502  0.57425953337E+02 -0.93015084981E+01  0.18021523692E+03  0.25582374752E+03  0.17200000000E+03 0. -1.
<mgrwt>
<rscale>  2 0.18157163E+03</rscale>
<asrwt>0</asrwt>
<pdfrwt beam="1">  1       21 0.69504601E-01 0.18157163E+03</pdfrwt>
<pdfrwt beam="2">  1       21 0.43793621E-01 0.18157163E+03</pdfrwt>
<totfact> 0.95031263E+03</totfact>
</mgrwt>
</event>
<event>
 4    1  0.1110581E+000  0.1780656E+03  0.7546771E-02  0.1169688E+00
         21   -1    0    0  503  502  0.00000000000E+00  0.00000000000E+00  0.27513896966E+03  0.27513896966E+03  0.00000000000E+00 0. -1.
         21   -1    0    0  501  503 -0.00000000000E+00 -0.00000000000E+00 -0.14806621481E+03  0.14806621481E+03  0.00000000000E+00 0. -1.
          6    1    1    2  501    0  0.45998408011E+02 -0.27363537543E+01 -0.36094866990E+02  0.18168704025E+03  0.17200000000E+03 0.  1.
         -6    1    1    2    0  502 -0.45998408011E+02  0.27363537543E+01  0.16316762184E+03  0.24151814422E+03  0.17200000000E+03 0.  1.
<mgrwt>
<rscale>  2 0.17806555E+03</rscale>
<asrwt>0</asrwt>
<pdfrwt beam="1">  1       21 0.68784742E-01 0.17806555E+03</pdfrwt>
<pdfrwt beam="2">  1       21 0.37016554E-01 0.17806555E+03</pdfrwt>
<totfact> 0.13684606E+04</totfact>
</mgrwt>
</event>
<event>
 4    1  0.1110581E+000  0.1754301E+03  0.7546771E-02  0.1172301E+00
         21   -1    0    0  501  502  0.00000000000E+00  0.00000000000E+00  0.10470609583E+04  0.10470609583E+04  0.00000000000E+00 0.  1.
         21   -1    0    0  502  503 -0.00000000000E+00 -0.00000000000E+00 -0.29739187455E+02  0.29739187455E+02  0.00000000000E+00 0.  1.
          6    1    1    2  501    0 -0.34452559823E+02 -0.21738781010E+01  0.56679490021E+03  0.59332298416E+03  0.17200000000E+03 0.  1.
         -6    1    1    2    0  503  0.34452559823E+02  0.21738781010E+01  0.45052687066E+03  0.48347716163E+03  0.17200000000E+03 0.  1.
<mgrwt>
<rscale>  2 0.17543006E+03</rscale>
<asrwt>0</asrwt>
<pdfrwt beam="1">  1       21 0.26176512E+00 0.17543006E+03</pdfrwt>
<pdfrwt beam="2">  1       21 0.74348003E-02 0.17543006E+03</pdfrwt>
<totfact> 0.78757129E+03</totfact>
</mgrwt>
</event>
<event>
 4    1  0.1110581E+000  0.2280078E+03  0.7546771E-02  0.1128050E+00
         21   -1    0    0  503  502  0.00000000000E+00  0.00000000000E+00  0.96968571889E+02  0.96968571889E+02  0.00000000000E+00 0.  1.
         21   -1    0    0  501  503 -0.00000000000E+00 -0.00000000000E+00 -0.53613112047E+03  0.53613112047E+03  0.00000000000E+00 0.  1.
          6    1    1    2  501    0 -0.11793174652E+03 -0.92171861634E+02 -0.22036685268E+03  0.31709477869E+03  0.17200000000E+03 0.  1.
         -6    1    1    2    0  502  0.11793174652E+03  0.92171861634E+02 -0.21879569590E+03  0.31600491367E+03  0.17200000000E+03 0.  1.
<mgrwt>
<rscale>  2 0.22800778E+03</rscale>
<asrwt>0</asrwt>
<pdfrwt beam="1">  1       21 0.24242144E-01 0.22800778E+03</pdfrwt>
<pdfrwt beam="2">  1       21 0.13403278E+00 0.22800778E+03</pdfrwt>
<totfact> 0.62572773E+03</totfact>
</mgrwt>
</event>
<event>
 4    1  0.1110581E+000  0.1788596E+03  0.7546771E-02  0.1168911E+00
         21   -1    0    0  503  502  0.00000000000E+00  0.00000000000E+00  0.86591558998E+03  0.86591558998E+03  0.00000000000E+00 0.  1.
         21   -1    0    0  501  503 -0.00000000000E+00 -0.00000000000E+00 -0.83296233085E+02  0.83296233085E+02  0.00000000000E+00 0.  1.
          6    1    1    2  501    0  0.46887617395E+02  0.14432586861E+02  0.37268456312E+02  0.18270108392E+03  0.17200000000E+03 0.  1.
         -6    1    1    2    0  502 -0.46887617395E+02 -0.14432586861E+02  0.74535090059E+03  0.76651073915E+03  0.17200000000E+03 0.  1.
<mgrwt>
<rscale>  2 0.17885958E+03</rscale>
<asrwt>0</asrwt>
<pdfrwt beam="1">  1       21 0.21647887E+00 0.17885958E+03</pdfrwt>
<pdfrwt beam="2">  1       21 0.20824061E-01 0.17885958E+03</pdfrwt>
<totfact> 0.22976774E+03</totfact>
</mgrwt>
</event>
<event>
 4    1  0.1110581E+000  0.1784818E+03  0.7546771E-02  0.1169280E+00
         21   -1    0    0  503  502  0.00000000000E+00  0.00000000000E+00  0.54721011971E+02  0.54721011971E+02  0.00000000000E+00 0.  1.
         21   -1    0    0  501  503 -0.00000000000E+00 -0.00000000000E+00 -0.58871289413E+03  0.58871289413E+03  0.00000000000E+00 0.  1.
          6    1    1    2  501    0  0.78568756645E+01 -0.47010905885E+02 -0.30096777998E+03  0.34991050335E+03  0.17200000000E+03 0.  1.
         -6    1    1    2    0  502 -0.78568756645E+01  0.47010905885E+02 -0.23302410218E+03  0.29352340276E+03  0.17200000000E+03 0.  1.
<mgrwt>
<rscale>  2 0.17848181E+03</rscale>
<asrwt>0</asrwt>
<pdfrwt beam="1">  1       21 0.13680253E-01 0.17848181E+03</pdfrwt>
<pdfrwt beam="2">  1       21 0.14717822E+00 0.17848181E+03</pdfrwt>
<totfact> 0.14714665E+04</totfact>
</mgrwt>
</event>
<event>
 4    1  0.1110581E+000  0.2051594E+03  0.7546771E-02  0.1145458E+00
         21   -1    0    0  501  502  0.00000000000E+00  0.00000000000E+00  0.35635669825E+03  0.35635669825E+03  0.00000000000E+00 0.  1.
         21   -1    0    0  502  503 -0.00000000000E+00 -0.00000000000E+00 -0.13317833594E+03  0.13317833594E+03  0.00000000000E+00 0. -1.
          6    1    1    2  501    0 -0.10866708958E+03  0.26416948513E+02  0.29265444870E+02  0.20723623667E+03  0.17200000000E+03 0. -1.
         -6    1    1    2    0  503  0.10866708958E+03 -0.26416948513E+02  0.19391291744E+03  0.28229879751E+03  0.17200000000E+03 0.  1.
<mgrwt>
<rscale>  2 0.20515943E+03</rscale>
<asrwt>0</asrwt>
<pdfrwt beam="1">  1       21 0.89089173E-01 0.20515943E+03</pdfrwt>
<pdfrwt beam="2">  1       21 0.33294585E-01 0.20515943E+03</pdfrwt>
<totfact> 0.92615615E+03</totfact>
</mgrwt>
</event>
<event>
 4    1  0.1110581E+000  0.1762454E+03  0.7546771E-02  0.1171487E+00
         21   -1    0    0  501  502  0.00000000000E+00  0.00000000000E+00  0.35021618606E+03  0.35021618606E+03  0.00000000000E+00 0. -1.
         21   -1    0    0  502  503 -0.00000000000E+00 -0.00000000000E+00 -0.98334637521E+02  0.98334637521E+02  0.00000000000E+00 0. -1.
          6    1    1    2  501    0  0.31392873061E+02  0.22202220651E+02  0.19616016421E+03  0.26370677106E+03  0.17200000000E+03 0.  1.
         -6    1    1    2    0  503 -0.31392873061E+02 -0.22202220651E+02  0.55721384330E+02  0.18484405252E+03  0.17200000000E+03 0.  1.
<mgrwt>
<rscale>  2 0.17624543E+03</rscale>
<asrwt>0</asrwt>
<pdfrwt beam="1">  1       21 0.87554043E-01 0.17624543E+03</pdfrwt>
<pdfrwt beam="2">  1       21 0.24583660E-01 0.17624543E+03</pdfrwt>
<totfact> 0.17692149E+04</totfact>
</mgrwt>
</event>
<event>
 4    1  0.1110581E+000  0.1892751E+03  0.7546771E-02  0.1159117E+00
         21   -1    0    0  503  502  0.00000000000E+00  0.00000000000E+00  0.21362701633E+03  0.21362701633E+03  0.00000000000E+00 0. -1.
         21   -1    0    0  501  503 -0.00000000000E+00 -0.00000000000E+00 -0.43479905216E+03  0.43479905216E+03  0.00000000000E+00 0. -1.
          6    1    1    2  501    0 -0.58415989939E+02 -0.53184850600E+02 -0.36469679816E+03  0.41088783238E+03  0.17200000000E+03 0. -1.
         -6    1    1    2    0  502  0.58415989939E+02  0.53184850600E+02  0.14352476232E+03  0.23753823611E+03  0.17200000000E+03 0. -1.
<mgrwt>
<rscale>  2 0.18927508E+03</rscale>
<asrwt>0</asrwt>
<pdfrwt beam="1">  1       21 0.53406755E-01 0.18927508E+03</pdfrwt>
<pdfrwt beam="2">  1       21 0.10869976E+00 0.18927508E+03</pdfrwt>
<totfact> 0.22376861E+03</totfact>
</mgrwt>
</event>
<event>
 4    1  0.1110581E+000  0.1961100E+03  0.7546771E-02  0.1153063E+00
         21   -1    0    0  503  502  0.00000000000E+00  0.00000000000E+00  0.66797446181E+03  0.66797446181E+03  0.00000000000E+00 0.  1.
         21   -1    0    0  501  503 -0.00000000000E+00 -0.00000000000E+00 -0.68988123745E+02  0.68988123745E+02  0.00000000000E+00 0. -1.
          6    1    1    2  501    0  0.15603218061E+02 -0.92906705985E+02  0.14962249014E+03  0.24666983193E+03  0.17200000000E+03 0. -1.
         -6    1    1    2    0  502 -0.15603218061E+02  0.92906705985E+02  0.44936384792E+03  0.49029275362E+03  0.17200000000E+03 0.  1.
<mgrwt>
<rscale>  2 0.19610996E+03</rscale>
<asrwt>0</asrwt>
<pdfrwt beam="1">  1       21 0.16699360E+00 0.19610996E+03</pdfrwt>
<pdfrwt beam="2">  1       21 0.17247033E-01 0.19610996E+03</pdfrwt>
<totfact> 0.67880947E+03</totfact>
</mgrwt>
</event>
<event>
 4    1  0.1110581E+000  0.1857667E+03  0.7546771E-02  0.1162336E+00
         21   -1    0    0  503  502  0.00000000000E+00  0.00000000000E+00  0.25785075435E+03  0.25785075435E+03  0.00000000000E+00 0. -1.
         21   -1    0    0  501  503 -0.00000000000E+00 -0.00000000000E+00 -0.13538954993E+03  0.13538954993E+03  0.00000000000E+00 0.  1.
          6    1    1    2  501    0  0.13003981555E+02 -0.68964840045E+02  0.82304639371E+02  0.20318293816E+03  0.17200000000E+03 0. -1.
         -6    1    1    2    0  502 -0.13003981555E+02  0.68964840045E+02  0.40156565042E+02  0.19005736612E+03  0.17200000000E+03 0.  1.
<mgrwt>
<rscale>  2 0.18576666E+03</rscale>
<asrwt>0</asrwt>
<pdfrwt beam="1">  1       21 0.64462688E-01 0.18576666E+03</pdfrwt>
<pdfrwt beam="2">  1       21 0.33847388E-01 0.18576666E+03</pdfrwt>
<totfact> 0.18739026E+04</totfact>
</mgrwt>
</event>
<event>
 4    1  0.1110581E+000  0.1842683E+03  0.7546771E-02  0.1163735E+00
         21   -1    0    0  501  502  0.00000000000E+00  0.00000000000E+00  0.30437892834E+03  0.30437892834E+03  0.00000000000E+00 0. -1.
         21   -1    0    0  502  503 -0.00000000000E+00 -0.00000000000E+00 -0.11318444581E+03  0.11318444581E+03  0.00000000000E+00 0. -1.
          6    1    1    2  501    0 -0.46588605703E+02  0.46907274800E+02  0.70541522815E+02  0.19730914082E+03  0.17200000000E+03 0. -1.
         -6    1    1    2    0  503  0.46588605703E+02 -0.46907274800E+02  0.12065295971E+03  0.22025423333E+03  0.17200000000E+03 0. -1.
<mgrwt>
<rscale>  2 0.18426826E+03</rscale>
<asrwt>0</asrwt>
<pdfrwt beam="1">  1       21 0.76094731E-01 0.18426826E+03</pdfrwt>
<pdfrwt beam="2">  1       21 0.28296112E-01 0.18426826E+03</pdfrwt>
<totfact> 0.18469672E+04</totfact>
</mgrwt>
</event>
<event>
 4    1  0.1110581E+000  0.1907926E+03  0.7546771E-02  0.1157748E+00
         21   -1    0    0  501  502  0.00000000000E+00  0.00000000000E+00  0.43268882188E+03  0.43268882188E+03  0.00000000000E+00 0.  1.
         21   -1    0    0  502  503 -0.00000000000E+00 -0.00000000000E+00 -0.25616845477E+03  0.25616845477E+03  0.00000000000E+00 0. -1.
          6    1    1    2  501    0  0.78788257966E+02  0.24702524999E+02  0.37052067304E+03  0.41675817147E+03  0.17200000000E+03 0.  1.
         -6    1    1    2    0  503 -0.78788257966E+02 -0.24702524999E+02 -0.19400030594E+03  0.27209910518E+03  0.17200000000E+03 0. -1.
<mgrwt>
<rscale>  2 0.19079257E+03</rscale>
<asrwt>0</asrwt>
<pdfrwt beam="1">  1       21 0.10817220E+00 0.19079257E+03</pdfrwt>
<pdfrwt beam="2">  1       21 0.64042114E-01 0.19079257E+03</pdfrwt>
<totfact> 0.15336662E+03</totfact>
</mgrwt>
</event>
<event>
 4    1  0.1110581E+000  0.3291835E+03  0.7546771E-02  0.1071499E+00
         21   -1    0    0  501  502  0.00000000000E+00  0.00000000000E+00  0.11349054148E+04  0.11349054148E+04  0.00000000000E+00 0.  1.
         21   -1    0    0  502  503 -0.00000000000E+00 -0.00000000000E+00 -0.11497860318E+03  0.11497860318E+03  0.00000000000E+00 0. -1.
          6    1    1    2  501    0 -0.26406880742E+03  0.95107373409E+02  0.25261389131E+03  0.41494038802E+03  0.17200000000E+03 0. -1.
         -6    1    1    2    0  503  0.26406880742E+03 -0.95107373409E+02  0.76731292030E+03  0.83494362994E+03  0.17200000000E+03 0.  1.
<mgrwt>
<rscale>  2 0.32918346E+03</rscale>
<asrwt>0</asrwt>
<pdfrwt beam="1">  1       21 0.28372632E+00 0.32918346E+03</pdfrwt>
<pdfrwt beam="2">  1       21 0.28744654E-01 0.32918346E+03</pdfrwt>
<totfact> 0.42433571E+02</totfact>
</mgrwt>
</event>
<event>
 4    1  0.1110581E+000  0.1827445E+03  0.7546771E-02  0.1165173E+00
         21   -1    0    0  501  502  0.00000000000E+00  0.00000000000E+00  0.11312333796E+03  0.11312333796E+03  0.00000000000E+00 0.  1.
         21   -1    0    0  502  503 -0.00000000000E+00 -0.00000000000E+00 -0.33867912284E+03  0.33867912284E+03  0.00000000000E+00 0.  1.
          6    1    1    2  501    0 -0.54394451880E+01  0.61497542485E+02 -0.31850156361E+02  0.18549923923E+03  0.17200000000E+03 0.  1.
         -6    1    1    2    0  503  0.54394451880E+01 -0.61497542485E+02 -0.19370562852E+03  0.26630322157E+03  0.17200000000E+03 0.  1.
<mgrwt>
<rscale>  2 0.18274445E+03</rscale>
<asrwt>0</asrwt>
<pdfrwt beam="1">  1       21 0.28280835E-01 0.18274445E+03</pdfrwt>
<pdfrwt beam="2">  1       21 0.84669781E-01 0.18274445E+03</pdfrwt>
<totfact> 0.14540788E+04</totfact>
</mgrwt>
</event>
<event>
 4    1  0.1110581E+000  0.1833829E+03  0.7546771E-02  0.1164569E+00
         21   -1    0    0  501  502  0.00000000000E+00  0.00000000000E+00  0.43694997912E+03  0.43694997912E+03  0.00000000000E+00 0. -1.
         21   -1    0    0  502  503 -0.00000000000E+00 -0.00000000000E+00 -0.30496299616E+03  0.30496299616E+03  0.00000000000E+00 0. -1.
          6    1    1    2  501    0  0.40237124286E+02  0.49257076532E+02  0.38674311409E+03  0.42801813285E+03  0.17200000000E+03 0. -1.
         -6    1    1    2    0  503 -0.40237124286E+02 -0.49257076532E+02 -0.25475613113E+03  0.31389484243E+03  0.17200000000E+03 0. -1.
<mgrwt>
<rscale>  2 0.18338289E+03</rscale>
<asrwt>0</asrwt>
<pdfrwt beam="1">  1       21 0.10923749E+00 0.18338289E+03</pdfrwt>
<pdfrwt beam="2">  1       21 0.76240749E-01 0.18338289E+03</pdfrwt>
<totfact> 0.10277327E+03</totfact>
</mgrwt>
</event>
<event>
 4    1  0.1110581E+000  0.2070373E+03  0.7546771E-02  0.1143934E+00
         21   -1    0    0  503  502  0.00000000000E+00  0.00000000000E+00  0.76283983229E+02  0.76283983229E+02  0.00000000000E+00 0. -1.
         21   -1    0    0  501  503 -0.00000000000E+00 -0.00000000000E+00 -0.68549232924E+03  0.68549232924E+03  0.00000000000E+00 0. -1.
          6    1    1    2  501    0 -0.11388160638E+03  0.17647295677E+02 -0.46633057980E+03  0.51022412426E+03  0.17200000000E+03 0. -1.
         -6    1    1    2    0  502  0.11388160638E+03 -0.17647295677E+02 -0.14287776620E+03  0.25155218821E+03  0.17200000000E+03 0. -1.
<mgrwt>
<rscale>  2 0.20703731E+03</rscale>
<asrwt>0</asrwt>
<pdfrwt beam="1">  1       21 0.19070996E-01 0.20703731E+03</pdfrwt>
<pdfrwt beam="2">  1       21 0.17137308E+00 0.20703731E+03</pdfrwt>
<totfact> 0.51995240E+03</totfact>
</mgrwt>
</event>
<event>
 4    1  0.1110581E+000  0.1880436E+03  0.7546771E-02  0.1160238E+00
         21   -1    0    0  503  502  0.00000000000E+00  0.00000000000E+00  0.39188479335E+03  0.39188479335E+03  0.00000000000E+00 0.  1.
         21   -1    0    0  501  503 -0.00000000000E+00 -0.00000000000E+00 -0.13135202956E+03  0.13135202956E+03  0.00000000000E+00 0.  1.
          6    1    1    2  501    0 -0.34729467401E+02  0.67603658968E+02 -0.16112609211E+02  0.18873263308E+03  0.17200000000E+03 0.  1.
         -6    1    1    2    0  502  0.34729467401E+02 -0.67603658968E+02  0.27664537300E+03  0.33450418983E+03  0.17200000000E+03 0.  1.
<mgrwt>
<rscale>  2 0.18804359E+03</rscale>
<asrwt>0</asrwt>
<pdfrwt beam="1">  1       21 0.97971196E-01 0.18804359E+03</pdfrwt>
<pdfrwt beam="2">  1       21 0.32838008E-01 0.18804359E+03</pdfrwt>
<totfact> 0.77184002E+03</totfact>
</mgrwt>
</event>
<event>
 4    1  0.1110581E+000  0.2096067E+03  0.7546771E-02  0.1141878E+00
         21   -1    0    0  503  502  0.00000000000E+00  0.00000000000E+00  0.90614582400E+03  0.90614582400E+03  0.00000000000E+00 0.  1.
         21   -1    0    0  501  503 -0.00000000000E+00 -0.00000000000E+00 -0.68669146772E+02  0.68669146772E+02  0.00000000000E+00 0.  1.
          6    1    1    2  501    0 -0.72159760877E+02 -0.95624040742E+02  0.15449105254E+03  0.26038908113E+03  0.17200000000E+03 0.  1.
         -6    1    1    2    0  502  0.72159760877E+02  0.95624040742E+02  0.68298562469E+03  0.71442588964E+03  0.17200000000E+03 0.  1.
<mgrwt>
<rscale>  2 0.20960675E+03</rscale>
<asrwt>0</asrwt>
<pdfrwt beam="1">  1       21 0.22653642E+00 0.20960675E+03</pdfrwt>
<pdfrwt beam="2">  1       21 0.17167290E-01 0.20960675E+03</pdfrwt>
<totfact> 0.27634773E+03</totfact>
</mgrwt>
</event>
<event>
 4    1  0.1110581E+000  0.1777185E+03  0.7546771E-02  0.1170030E+00
         21   -1    0    0  503  502  0.00000000000E+00  0.00000000000E+00  0.46580505574E+02  0.46580505574E+02  0.00000000000E+00 0. -1.
         21   -1    0    0  501  503 -0.00000000000E+00 -0.00000000000E+00 -0.81667097080E+03  0.81667097080E+03  0.00000000000E+00 0.  1.
          6    1    1    2  501    0  0.12679037084E+02  0.42884740996E+02 -0.56287318135E+03  0.59026271886E+03  0.17200000000E+03 0.  1.
         -6    1    1    2    0  502 -0.12679037084E+02 -0.42884740996E+02 -0.20721728387E+03  0.27298875751E+03  0.17200000000E+03 0. -1.
<mgrwt>
<rscale>  2 0.17771848E+03</rscale>
<asrwt>0</asrwt>
<pdfrwt beam="1">  1       21 0.11645127E-01 0.17771848E+03</pdfrwt>
<pdfrwt beam="2">  1       21 0.20416774E+00 0.17771848E+03</pdfrwt>
<totfact> 0.79256273E+03</totfact>
</mgrwt>
</event>
<event>
 4    1  0.1110581E+000  0.1849877E+03  0.7546771E-02  0.1163061E+00
         21   -1    0    0  501  502  0.00000000000E+00  0.00000000000E+00  0.27482784058E+03  0.27482784058E+03  0.00000000000E+00 0.  1.
         21   -1    0    0  502  503 -0.00000000000E+00 -0.00000000000E+00 -0.19714099306E+03  0.19714099306E+03  0.00000000000E+00 0. -1.
          6    1    1    2  501    0 -0.46753062993E+02  0.49503630973E+02  0.18207473308E+03  0.25956052629E+03  0.17200000000E+03 0.  1.
         -6    1    1    2    0  503  0.46753062993E+02 -0.49503630973E+02 -0.10438788556E+03  0.21240830735E+03  0.17200000000E+03 0. -1.
<mgrwt>
<rscale>  2 0.18498772E+03</rscale>
<asrwt>0</asrwt>
<pdfrwt beam="1">  1       21 0.68706960E-01 0.18498772E+03</pdfrwt>
<pdfrwt beam="2">  1       21 0.49285248E-01 0.18498772E+03</pdfrwt>
<totfact> 0.76224694E+03</totfact>
</mgrwt>
</event>
<event>
 4    1  0.1110581E+000  0.1850162E+03  0.7546771E-02  0.1163035E+00
         21   -1    0    0  503  502  0.00000000000E+00  0.00000000000E+00  0.11125387122E+03  0.11125387122E+03  0.00000000000E+00 0. -1.
         21   -1    0    0  501  503 -0.00000000000E+00 -0.00000000000E+00 -0.31367074696E+03  0.31367074696E+03  0.00000000000E+00 0. -1.
          6    1    1    2  501    0 -0.68159550000E+02 -0.11297188902E+01 -0.71855475180E+02  0.19847974666E+03  0.17200000000E+03 0. -1.
         -6    1    1    2    0  502  0.68159550000E+02  0.11297188902E+01 -0.13056140056E+03  0.22644487152E+03  0.17200000000E+03 0. -1.
<mgrwt>
<rscale>  2 0.18501622E+03</rscale>
<asrwt>0</asrwt>
<pdfrwt beam="1">  1       21 0.27813468E-01 0.18501622E+03</pdfrwt>
<pdfrwt beam="2">  1       21 0.78417686E-01 0.18501622E+03</pdfrwt>
<totfact> 0.17840662E+04</totfact>
</mgrwt>
</event>
<event>
 4    1  0.1110581E+000  0.1801301E+03  0.7546771E-02  0.1167677E+00
         21   -1    0    0  503  502  0.00000000000E+00  0.00000000000E+00  0.39770113085E+03  0.39770113085E+03  0.00000000000E+00 0.  1.
         21   -1    0    0  501  503 -0.00000000000E+00 -0.00000000000E+00 -0.88917064173E+02  0.88917064173E+02  0.00000000000E+00 0.  1.
          6    1    1    2  501    0  0.10476105995E+02 -0.52469911778E+02  0.84528652129E+02  0.19897721847E+03  0.17200000000E+03 0.  1.
         -6    1    1    2    0  502 -0.10476105995E+02  0.52469911778E+02  0.22425541455E+03  0.28764097656E+03  0.17200000000E+03 0.  1.
<mgrwt>
<rscale>  2 0.18013007E+03</rscale>
<asrwt>0</asrwt>
<pdfrwt beam="1">  1       21 0.99425278E-01 0.18013007E+03</pdfrwt>
<pdfrwt beam="2">  1       21 0.22229267E-01 0.18013007E+03</pdfrwt>
<totfact> 0.15882521E+04</totfact>
</mgrwt>
</event>
<event>
 4    1  0.1110581E+000  0.1937038E+03  0.7546771E-02  0.1155163E+00
         21   -1    0    0  503  502  0.00000000000E+00  0.00000000000E+00  0.24699211880E+03  0.24699211880E+03  0.00000000000E+00 0.  1.
         21   -1    0    0  501  503 -0.00000000000E+00 -0.00000000000E+00 -0.16300642299E+03  0.16300642299E+03  0.00000000000E+00 0.  1.
          6    1    1    2  501    0 -0.47604622880E+02  0.75305847747E+02 -0.11487481092E+02  0.19404415231E+03  0.17200000000E+03 0.  1.
         -6    1    1    2    0  502  0.47604622880E+02 -0.75305847747E+02  0.95473176902E+02  0.21595438947E+03  0.17200000000E+03 0.  1.
<mgrwt>
<rscale>  2 0.19370382E+03</rscale>
<asrwt>0</asrwt>
<pdfrwt beam="1">  1       21 0.61748029E-01 0.19370382E+03</pdfrwt>
<pdfrwt beam="2">  1       21 0.40751606E-01 0.19370382E+03</pdfrwt>
<totfact> 0.14121557E+04</totfact>
</mgrwt>
</event>
<event>
 4    1  0.1110581E+000  0.2295563E+03  0.7546771E-02  0.1126952E+00
         21   -1    0    0  503  502  0.00000000000E+00  0.00000000000E+00  0.22222159613E+03  0.22222159613E+03  0.00000000000E+00 0.  1.
         21   -1    0    0  501  503 -0.00000000000E+00 -0.00000000000E+00 -0.40223155216E+03  0.40223155216E+03  0.00000000000E+00 0.  1.
          6    1    1    2  501    0  0.14219035810E+03  0.53795880203E+02 -0.29003874108E+03  0.36988993767E+03  0.17200000000E+03 0.  1.
         -6    1    1    2    0  502 -0.14219035810E+03 -0.53795880203E+02  0.11002878505E+03  0.25456321062E+03  0.17200000000E+03 0.  1.
<mgrwt>
<rscale>  2 0.22955630E+03</rscale>
<asrwt>0</asrwt>
<pdfrwt beam="1">  1       21 0.55555399E-01 0.22955630E+03</pdfrwt>
<pdfrwt beam="2">  1       21 0.10055789E+00 0.22955630E+03</pdfrwt>
<totfact> 0.23987586E+03</totfact>
</mgrwt>
</event>
<event>
 4    1  0.1110581E+000  0.2143111E+03  0.7546771E-02  0.1138197E+00
         21   -1    0    0  503  502  0.00000000000E+00  0.00000000000E+00  0.39785995072E+03  0.39785995072E+03  0.00000000000E+00 0.  1.
         21   -1    0    0  501  503 -0.00000000000E+00 -0.00000000000E+00 -0.11727416646E+03  0.11727416646E+03  0.00000000000E+00 0.  1.
          6    1    1    2  501    0 -0.52651442245E+02 -0.11650354750E+03  0.10808815557E+03  0.24002562431E+03  0.17200000000E+03 0.  1.
         -6    1    1    2    0  502  0.52651442245E+02  0.11650354750E+03  0.17249762868E+03  0.27510849287E+03  0.17200000000E+03 0.  1.
<mgrwt>
<rscale>  2 0.21431111E+03</rscale>
<asrwt>0</asrwt>
<pdfrwt beam="1">  1       21 0.99464985E-01 0.21431111E+03</pdfrwt>
<pdfrwt beam="2">  1       21 0.29318543E-01 0.21431111E+03</pdfrwt>
<totfact> 0.91258616E+03</totfact>
</mgrwt>
</event>
<event>
 4    1  0.1110581E+000  0.2210276E+03  0.7546771E-02  0.1133119E+00
         21   -1    0    0  501  502  0.00000000000E+00  0.00000000000E+00  0.28033254135E+03  0.28033254135E+03  0.00000000000E+00 0.  1.
         21   -1    0    0  502  503 -0.00000000000E+00 -0.00000000000E+00 -0.19233203595E+03  0.19233203595E+03  0.00000000000E+00 0. -1.
          6    1    1    2  501    0  0.10227091728E+03  0.93860791584E+02  0.11642653210E+03  0.24981658491E+03  0.17200000000E+03 0.  1.
         -6    1    1    2    0  503 -0.10227091728E+03 -0.93860791584E+02 -0.28426026693E+02  0.22284799239E+03  0.17200000000E+03 0. -1.
<mgrwt>
<rscale>  2 0.22102757E+03</rscale>
<asrwt>0</asrwt>
<pdfrwt beam="1">  1       21 0.70083135E-01 0.22102757E+03</pdfrwt>
<pdfrwt beam="2">  1       21 0.48083009E-01 0.22102757E+03</pdfrwt>
<totfact> 0.74876590E+03</totfact>
</mgrwt>
</event>
<event>
 4    1  0.1110581E+000  0.1764806E+03  0.7546771E-02  0.1171253E+00
         21   -1    0    0  503  502  0.00000000000E+00  0.00000000000E+00  0.13743960018E+03  0.13743960018E+03  0.00000000000E+00 0.  1.
         21   -1    0    0  501  503 -0.00000000000E+00 -0.00000000000E+00 -0.66101161221E+03  0.66101161221E+03  0.00000000000E+00 0.  1.
          6    1    1    2  501    0  0.36235298928E+02 -0.15760811799E+02 -0.58542346796E+03  0.61144585771E+03  0.17200000000E+03 0.  1.
         -6    1    1    2    0  502 -0.36235298928E+02  0.15760811799E+02  0.61851455925E+02  0.18700535467E+03  0.17200000000E+03 0.  1.
<mgrwt>
<rscale>  2 0.17648059E+03</rscale>
<asrwt>0</asrwt>
<pdfrwt beam="1">  1       21 0.34359901E-01 0.17648059E+03</pdfrwt>
<pdfrwt beam="2">  1       21 0.16525290E+00 0.17648059E+03</pdfrwt>
<totfact> 0.19135742E+03</totfact>
</mgrwt>
</event>
<event>
 4    1  0.1110581E+000  0.3751421E+03  0.7546771E-02  0.1052744E+00
         21   -1    0    0  503  502  0.00000000000E+00  0.00000000000E+00  0.17951845227E+04  0.17951845227E+04  0.00000000000E+00 0.  1.
         21   -1    0    0  501  503 -0.00000000000E+00 -0.00000000000E+00 -0.35791914723E+03  0.35791914723E+03  0.00000000000E+00 0. -1.
          6    1    1    2  501    0 -0.19602774650E+02  0.33281119617E+03 -0.23274504000E+03  0.44147685638E+03  0.17200000000E+03 0. -1.
         -6    1    1    2    0  502  0.19602774650E+02 -0.33281119617E+03  0.16700104155E+04  0.17116268136E+04  0.17200000000E+03 0.  1.
<mgrwt>
<rscale>  2 0.37514205E+03</rscale>
<asrwt>0</asrwt>
<pdfrwt beam="1">  1       21 0.44879611E+00 0.37514205E+03</pdfrwt>
<pdfrwt beam="2">  1       21 0.89479792E-01 0.37514205E+03</pdfrwt>
<totfact> 0.33969885E+00</totfact>
</mgrwt>
</event>
<event>
 4    1  0.1110581E+000  0.1872605E+03  0.7546771E-02  0.1160956E+00
         21   -1    0    0  501  502  0.00000000000E+00  0.00000000000E+00  0.17146327623E+03  0.17146327623E+03  0.00000000000E+00 0.  1.
         21   -1    0    0  502  503 -0.00000000000E+00 -0.00000000000E+00 -0.21168789696E+03  0.21168789696E+03  0.00000000000E+00 0.  1.
          6    1    1    2  501    0  0.45696832380E+02 -0.58260436444E+02  0.15157102584E+02  0.18787287378E+03  0.17200000000E+03 0.  1.
         -6    1    1    2    0  503 -0.45696832380E+02  0.58260436444E+02 -0.55381723311E+02  0.19527829941E+03  0.17200000000E+03 0.  1.
<mgrwt>
<rscale>  2 0.18726046E+03</rscale>
<asrwt>0</asrwt>
<pdfrwt beam="1">  1       21 0.42865819E-01 0.18726046E+03</pdfrwt>
<pdfrwt beam="2">  1       21 0.52921974E-01 0.18726046E+03</pdfrwt>
<totfact> 0.17765934E+04</totfact>
</mgrwt>
</event>
<event>
 4    1  0.1110581E+000  0.1815885E+03  0.7546771E-02  0.1166274E+00
         21   -1    0    0  501  502  0.00000000000E+00  0.00000000000E+00  0.13761834930E+03  0.13761834930E+03  0.00000000000E+00 0.  1.
         21   -1    0    0  502  503 -0.00000000000E+00 -0.00000000000E+00 -0.24408899258E+03  0.24408899258E+03  0.00000000000E+00 0.  1.
          6    1    1    2  501    0  0.17574716265E+02  0.55511380798E+02 -0.27374675411E+02  0.18364029216E+03  0.17200000000E+03 0. -1.
         -6    1    1    2    0  503 -0.17574716265E+02 -0.55511380798E+02 -0.79095967870E+02  0.19806704972E+03  0.17200000000E+03 0. -1.
<mgrwt>
<rscale>  2 0.18158850E+03</rscale>
<asrwt>0</asrwt>
<pdfrwt beam="1">  1       21 0.34404588E-01 0.18158850E+03</pdfrwt>
<pdfrwt beam="2">  1       21 0.61022248E-01 0.18158850E+03</pdfrwt>
<totfact> 0.20478151E+04</totfact>
</mgrwt>
</event>
<event>
 4    1  0.1110581E+000  0.2778424E+03  0.7546771E-02  0.1096873E+00
         21   -1    0    0  503  502  0.00000000000E+00  0.00000000000E+00  0.66839830011E+03  0.66839830011E+03  0.00000000000E+00 0.  1.
         21   -1    0    0  501  503 -0.00000000000E+00 -0.00000000000E+00 -0.20186210128E+03  0.20186210128E+03  0.00000000000E+00 0. -1.
          6    1    1    2  501    0  0.36521742936E+02 -0.21512458778E+03  0.51788906692E+03  0.58771209926E+03  0.17200000000E+03 0.  1.
         -6    1    1    2    0  502 -0.36521742936E+02  0.21512458778E+03 -0.51352868098E+02  0.28254830213E+03  0.17200000000E+03 0. -1.
<mgrwt>
<rscale>  2 0.27784245E+03</rscale>
<asrwt>0</asrwt>
<pdfrwt beam="1">  1       21 0.16709957E+00 0.27784245E+03</pdfrwt>
<pdfrwt beam="2">  1       21 0.50465527E-01 0.27784245E+03</pdfrwt>
<totfact> 0.77265155E+02</totfact>
</mgrwt>
</event>
<event>
 4    1  0.1110581E+000  0.1782405E+03  0.7546771E-02  0.1169517E+00
         21   -1    0    0  503  502  0.00000000000E+00  0.00000000000E+00  0.91139185584E+02  0.91139185584E+02  0.00000000000E+00 0.  1.
         21   -1    0    0  501  503 -0.00000000000E+00 -0.00000000000E+00 -0.39204345786E+03  0.39204345786E+03  0.00000000000E+00 0.  1.
          6    1    1    2  501    0  0.99000139001E+01  0.45691015245E+02 -0.23088905545E+03  0.29168379296E+03  0.17200000000E+03 0. -1.
         -6    1    1    2    0  502 -0.99000139001E+01 -0.45691015245E+02 -0.70015216827E+02  0.19149885048E+03  0.17200000000E+03 0. -1.
<mgrwt>
<rscale>  2 0.17824051E+03</rscale>
<asrwt>0</asrwt>
<pdfrwt beam="1">  1       21 0.22784797E-01 0.17824051E+03</pdfrwt>
<pdfrwt beam="2">  1       21 0.98010863E-01 0.17824051E+03</pdfrwt>
<totfact> 0.15700421E+04</totfact>
</mgrwt>
</event>
<event>
 4    1  0.1110581E+000  0.1778807E+03  0.7546771E-02  0.1169870E+00
         21   -1    0    0  503  502  0.00000000000E+00  0.00000000000E+00  0.72190142458E+03  0.72190142458E+03  0.00000000000E+00 0. -1.
         21   -1    0    0  501  503 -0.00000000000E+00 -0.00000000000E+00 -0.56449481248E+02  0.56449481248E+02  0.00000000000E+00 0. -1.
          6    1    1    2  501    0  0.27558746410E+02  0.36028661247E+02  0.14872433554E+03  0.23186305639E+03  0.17200000000E+03 0. -1.
         -6    1    1    2    0  502 -0.27558746410E+02 -0.36028661247E+02  0.51672760779E+03  0.54648784944E+03  0.17200000000E+03 0. -1.
<mgrwt>
<rscale>  2 0.17788072E+03</rscale>
<asrwt>0</asrwt>
<pdfrwt beam="1">  1       21 0.18047533E+00 0.17788072E+03</pdfrwt>
<pdfrwt beam="2">  1       21 0.14112373E-01 0.17788072E+03</pdfrwt>
<totfact> 0.80156214E+03</totfact>
</mgrwt>
</event>
<event>
 4    1  0.1110581E+000  0.2333171E+03  0.7546771E-02  0.1124327E+00
         21   -1    0    0  503  502  0.00000000000E+00  0.00000000000E+00  0.12205979838E+04  0.12205979838E+04  0.00000000000E+00 0.  1.
         21   -1    0    0  501  503 -0.00000000000E+00 -0.00000000000E+00 -0.78132976216E+02  0.78132976216E+02  0.00000000000E+00 0.  1.
          6    1    1    2  501    0 -0.15619192733E+03  0.21376875740E+02  0.14581288541E+03  0.27513321598E+03  0.17200000000E+03 0.  1.
         -6    1    1    2    0  502  0.15619192733E+03 -0.21376875740E+02  0.99665212216E+03  0.10235977440E+04  0.17200000000E+03 0.  1.
<mgrwt>
<rscale>  2 0.23331714E+03</rscale>
<asrwt>0</asrwt>
<pdfrwt beam="1">  1       21 0.30514944E+00 0.23331714E+03</pdfrwt>
<pdfrwt beam="2">  1       21 0.19533248E-01 0.23331714E+03</pdfrwt>
<totfact> 0.72983729E+02</totfact>
</mgrwt>
</event>
<event>
 4    1  0.1110581E+000  0.2366800E+03  0.7546771E-02  0.1122024E+00
         21   -1    0    0  503  502  0.00000000000E+00  0.00000000000E+00  0.49683604992E+03  0.49683604992E+03  0.00000000000E+00 0.  1.
         21   -1    0    0  501  503 -0.00000000000E+00 -0.00000000000E+00 -0.13887508270E+03  0.13887508270E+03  0.00000000000E+00 0. -1.
          6    1    1    2  501    0 -0.18290296815E+02  0.16155148405E+03  0.41113373064E+02  0.24022432516E+03  0.17200000000E+03 0. -1.
         -6    1    1    2    0  502  0.18290296815E+02 -0.16155148405E+03  0.31684759415E+03  0.39548680746E+03  0.17200000000E+03 0. -1.
<mgrwt>
<rscale>  2 0.23667999E+03</rscale>
<asrwt>0</asrwt>
<pdfrwt beam="1">  1       21 0.12420901E+00 0.23667999E+03</pdfrwt>
<pdfrwt beam="2">  1       21 0.34718772E-01 0.23667999E+03</pdfrwt>
<totfact> 0.37435342E+03</totfact>
</mgrwt>
</event>
<event>
 4    1  0.1110581E+000  0.2138335E+03  0.7546771E-02  0.1138566E+00
         21   -1    0    0  501  502  0.00000000000E+00  0.00000000000E+00  0.13161035907E+03  0.13161035907E+03  0.00000000000E+00 0. -1.
         21   -1    0    0  502  503 -0.00000000000E+00 -0.00000000000E+00 -0.12721335028E+04  0.12721335028E+04  0.00000000000E+00 0. -1.
          6    1    1    2  501    0  0.11807478564E+03 -0.46894722203E+02  0.28141593059E+02  0.21567734984E+03  0.17200000000E+03 0. -1.
         -6    1    1    2    0  503 -0.11807478564E+03  0.46894722203E+02 -0.11686647368E+04  0.11880665120E+04  0.17200000000E+03 0. -1.
<mgrwt>
<rscale>  2 0.21383351E+03</rscale>
<asrwt>0</asrwt>
<pdfrwt beam="1">  1       21 0.32902590E-01 0.21383351E+03</pdfrwt>
<pdfrwt beam="2">  1       21 0.31803338E+00 0.21383351E+03</pdfrwt>
<totfact> 0.23144212E+02</totfact>
</mgrwt>
</event>
<event>
 4    1  0.1110581E+000  0.2129627E+03  0.7546771E-02  0.1139241E+00
         21   -1    0    0  501  502  0.00000000000E+00  0.00000000000E+00  0.22028848684E+03  0.22028848684E+03  0.00000000000E+00 0. -1.
         21   -1    0    0  502  503 -0.00000000000E+00 -0.00000000000E+00 -0.42063273875E+03  0.42063273875E+03  0.00000000000E+00 0. -1.
          6    1    1    2  501    0 -0.85467512626E+02  0.92002288022E+02  0.12880490181E+03  0.24888515312E+03  0.17200000000E+03 0. -1.
         -6    1    1    2    0  503  0.85467512626E+02 -0.92002288022E+02 -0.32914915372E+03  0.39203607246E+03  0.17200000000E+03 0. -1.
<mgrwt>
<rscale>  2 0.21296271E+03</rscale>
<asrwt>0</asrwt>
<pdfrwt beam="1">  1       21 0.55072122E-01 0.21296271E+03</pdfrwt>
<pdfrwt beam="2">  1       21 0.10515818E+00 0.21296271E+03</pdfrwt>
<totfact> 0.22244006E+03</totfact>
</mgrwt>
</event>
<event>
 4    1  0.1110581E+000  0.2098758E+03  0.7546771E-02  0.1141664E+00
         21   -1    0    0  501  502  0.00000000000E+00  0.00000000000E+00  0.41347702215E+03  0.41347702215E+03  0.00000000000E+00 0. -1.
         21   -1    0    0  502  503 -0.00000000000E+00 -0.00000000000E+00 -0.71478043171E+03  0.71478043171E+03  0.00000000000E+00 0. -1.
          6    1    1    2  501    0 -0.11982536258E+03  0.10282879226E+02  0.36974312566E+03  0.42515624668E+03  0.17200000000E+03 0. -1.
         -6    1    1    2    0  503  0.11982536258E+03 -0.10282879226E+02 -0.67104653521E+03  0.70310120718E+03  0.17200000000E+03 0. -1.
<mgrwt>
<rscale>  2 0.20987581E+03</rscale>
<asrwt>0</asrwt>
<pdfrwt beam="1">  1       21 0.10336926E+00 0.20987581E+03</pdfrwt>
<pdfrwt beam="2">  1       21 0.17869511E+00 0.20987581E+03</pdfrwt>
<totfact> 0.13771256E+02</totfact>
</mgrwt>
</event>
<event>
 4    1  0.1110581E+000  0.2067139E+03  0.7546771E-02  0.1144195E+00
         21   -1    0    0  501  502  0.00000000000E+00  0.00000000000E+00  0.18296237286E+03  0.18296237286E+03  0.00000000000E+00 0.  1.
         21   -1    0    0  502  503 -0.00000000000E+00 -0.00000000000E+00 -0.26594200293E+03  0.26594200293E+03  0.00000000000E+00 0.  1.
          6    1    1    2  501    0  0.65913682595E+02  0.93819043730E+02 -0.11982518727E+03  0.23893242146E+03  0.17200000000E+03 0.  1.
         -6    1    1    2    0  503 -0.65913682595E+02 -0.93819043730E+02  0.36845557198E+02  0.20997195433E+03  0.17200000000E+03 0.  1.
<mgrwt>
<rscale>  2 0.20671388E+03</rscale>
<asrwt>0</asrwt>
<pdfrwt beam="1">  1       21 0.45740594E-01 0.20671388E+03</pdfrwt>
<pdfrwt beam="2">  1       21 0.66485500E-01 0.20671388E+03</pdfrwt>
<totfact> 0.94145956E+03</totfact>
</mgrwt>
</event>
<event>
 4    1  0.1110581E+000  0.1989426E+03  0.7546771E-02  0.1150634E+00
         21   -1    0    0  501  502  0.00000000000E+00  0.00000000000E+00  0.15424155442E+04  0.15424155442E+04  0.00000000000E+00 0. -1.
         21   -1    0    0  502  503 -0.00000000000E+00 -0.00000000000E+00 -0.29154435370E+02  0.29154435370E+02  0.00000000000E+00 0. -1.
          6    1    1    2  501    0 -0.62551692472E+02 -0.77983692285E+02  0.48458071544E+03  0.52382882726E+03  0.17200000000E+03 0. -1.
         -6    1    1    2    0  503  0.62551692472E+02  0.77983692285E+02  0.10286803934E+04  0.10477411523E+04  0.17200000000E+03 0. -1.
<mgrwt>
<rscale>  2 0.19894263E+03</rscale>
<asrwt>0</asrwt>
<pdfrwt beam="1">  1       21 0.38560361E+00 0.19894263E+03</pdfrwt>
<pdfrwt beam="2">  1       21 0.72886140E-02 0.19894263E+03</pdfrwt>
<totfact> 0.14940450E+03</totfact>
</mgrwt>
</event>
<event>
 4    1  0.1110581E+000  0.1745135E+03  0.7546771E-02  0.1173221E+00
         21   -1    0    0  501  502  0.00000000000E+00  0.00000000000E+00  0.69808331216E+03  0.69808331216E+03  0.00000000000E+00 0. -1.
         21   -1    0    0  502  503 -0.00000000000E+00 -0.00000000000E+00 -0.62121135051E+02  0.62121135051E+02  0.00000000000E+00 0.  1.
          6    1    1    2  501    0 -0.13866171273E+01  0.29479647062E+02  0.52537830240E+03  0.55360394953E+03  0.17200000000E+03 0. -1.
         -6    1    1    2    0  503  0.13866171273E+01 -0.29479647062E+02  0.11058387471E+03  0.20660049769E+03  0.17200000000E+03 0.  1.
<mgrwt>
<rscale>  2 0.17451353E+03</rscale>
<asrwt>0</asrwt>
<pdfrwt beam="1">  1       21 0.17452080E+00 0.17451353E+03</pdfrwt>
<pdfrwt beam="2">  1       21 0.15530286E-01 0.17451353E+03</pdfrwt>
<totfact> 0.74211594E+03</totfact>
</mgrwt>
</event>
<event>
 4    1  0.1110581E+000  0.2054361E+03  0.7546771E-02  0.1145232E+00
         21   -1    0    0  503  502  0.00000000000E+00  0.00000000000E+00  0.18024514831E+03  0.18024514831E+03  0.00000000000E+00 0. -1.
         21   -1    0    0  501  503 -0.00000000000E+00 -0.00000000000E+00 -0.58785854139E+03  0.58785854139E+03  0.00000000000E+00 0. -1.
          6    1    1    2  501    0  0.10880161706E+03  0.27967858098E+02 -0.50171156753E+03  0.54214249967E+03  0.17200000000E+03 0. -1.
         -6    1    1    2    0  502 -0.10880161706E+03 -0.27967858098E+02  0.94098174447E+02  0.22596119002E+03  0.17200000000E+03 0. -1.
<mgrwt>
<rscale>  2 0.20543610E+03</rscale>
<asrwt>0</asrwt>
<pdfrwt beam="1">  1       21 0.45061288E-01 0.20543610E+03</pdfrwt>
<pdfrwt beam="2">  1       21 0.14696463E+00 0.20543610E+03</pdfrwt>
<totfact> 0.14717547E+03</totfact>
</mgrwt>
</event>
<event>
 4    1  0.1110581E+000  0.2216002E+03  0.7546771E-02  0.1132696E+00
         21   -1    0    0  503  502  0.00000000000E+00  0.00000000000E+00  0.11972765841E+04  0.11972765841E+04  0.00000000000E+00 0.  1.
         21   -1    0    0  501  503 -0.00000000000E+00 -0.00000000000E+00 -0.42246772492E+02  0.42246772492E+02  0.00000000000E+00 0.  1.
          6    1    1    2  501    0  0.13944377686E+03 -0.88373186994E+01  0.68332797296E+03  0.71836187520E+03  0.17200000000E+03 0.  1.
         -6    1    1    2    0  502 -0.13944377686E+03  0.88373186994E+01  0.47170183864E+03  0.52116148139E+03  0.17200000000E+03 0.  1.
<mgrwt>
<rscale>  2 0.22160024E+03</rscale>
<asrwt>0</asrwt>
<pdfrwt beam="1">  1       21 0.29931903E+00 0.22160024E+03</pdfrwt>
<pdfrwt beam="2">  1       21 0.10561697E-01 0.22160024E+03</pdfrwt>
<totfact> 0.24529350E+03</totfact>
</mgrwt>
</event>
<event>
 4    1  0.1110581E+000  0.2119931E+03  0.7546771E-02  0.1139997E+00
         21   -1    0    0  503  502  0.00000000000E+00  0.00000000000E+00  0.66987033774E+03  0.66987033774E+03  0.00000000000E+00 0.  1.
         21   -1    0    0  501  503 -0.00000000000E+00 -0.00000000000E+00 -0.15816020422E+03  0.15816020422E+03  0.00000000000E+00 0. -1.
          6    1    1    2  501    0  0.99004594347E+02  0.74533035469E+02 -0.58309897265E+02  0.21986615746E+03  0.17200000000E+03 0. -1.
         -6    1    1    2    0  502 -0.99004594347E+02 -0.74533035469E+02  0.57002003078E+03  0.60816438450E+03  0.17200000000E+03 0.  1.
<mgrwt>
<rscale>  2 0.21199312E+03</rscale>
<asrwt>0</asrwt>
<pdfrwt beam="1">  1       21 0.16746758E+00 0.21199312E+03</pdfrwt>
<pdfrwt beam="2">  1       21 0.39540053E-01 0.21199312E+03</pdfrwt>
<totfact> 0.13446278E+03</totfact>
</mgrwt>
</event>
<event>
 4    1  0.1110581E+000  0.2549270E+03  0.7546771E-02  0.1110230E+00
         21   -1    0    0  501  502  0.00000000000E+00  0.00000000000E+00  0.70109512365E+03  0.70109512365E+03  0.00000000000E+00 0.  1.
         21   -1    0    0  502  503 -0.00000000000E+00 -0.00000000000E+00 -0.11042064749E+03  0.11042064749E+03  0.00000000000E+00 0. -1.
          6    1    1    2  501    0 -0.34193736248E+02  0.18502577957E+03  0.45790987584E+03  0.52408892861E+03  0.17200000000E+03 0.  1.
         -6    1    1    2    0  503  0.34193736248E+02 -0.18502577957E+03  0.13276460032E+03  0.28742684252E+03  0.17200000000E+03 0. -1.
<mgrwt>
<rscale>  2 0.25492695E+03</rscale>
<asrwt>0</asrwt>
<pdfrwt beam="1">  1       21 0.17527377E+00 0.25492695E+03</pdfrwt>
<pdfrwt beam="2">  1       21 0.27605164E-01 0.25492695E+03</pdfrwt>
<totfact> 0.23269002E+03</totfact>
</mgrwt>
</event>
<event>
 4    1  0.1110581E+000  0.1767772E+03  0.7546771E-02  0.1170959E+00
         21   -1    0    0  503  502  0.00000000000E+00  0.00000000000E+00  0.20714272007E+03  0.20714272007E+03  0.00000000000E+00 0.  1.
         21   -1    0    0  501  503 -0.00000000000E+00 -0.00000000000E+00 -0.15119327860E+03  0.15119327860E+03  0.00000000000E+00 0.  1.
          6    1    1    2  501    0  0.27823573102E+02  0.29866535064E+02  0.36349424573E+02  0.18047559891E+03  0.17200000000E+03 0.  1.
         -6    1    1    2    0  502 -0.27823573102E+02 -0.29866535064E+02  0.19600016893E+02  0.17786039975E+03  0.17200000000E+03 0.  1.
<mgrwt>
<rscale>  2 0.17677715E+03</rscale>
<asrwt>0</asrwt>
<pdfrwt beam="1">  1       21 0.51785680E-01 0.17677715E+03</pdfrwt>
<pdfrwt beam="2">  1       21 0.37798320E-01 0.17677715E+03</pdfrwt>
<totfact> 0.24120893E+04</totfact>
</mgrwt>
</event>
<event>
 4    1  0.1110581E+000  0.2279333E+03  0.7546771E-02  0.1128103E+00
         21   -1    0    0  503  502  0.00000000000E+00  0.00000000000E+00  0.15190956399E+03  0.15190956399E+03  0.00000000000E+00 0.  1.
         21   -1    0    0  501  503 -0.00000000000E+00 -0.00000000000E+00 -0.54028814277E+03  0.54028814277E+03  0.00000000000E+00 0.  1.
          6    1    1    2  501    0  0.83715863039E+02  0.12394050381E+03 -0.40385723606E+03  0.46373943258E+03  0.17200000000E+03 0.  1.
         -6    1    1    2    0  502 -0.83715863039E+02 -0.12394050381E+03  0.15478657276E+02  0.22845827418E+03  0.17200000000E+03 0.  1.
<mgrwt>
<rscale>  2 0.22793331E+03</rscale>
<asrwt>0</asrwt>
<pdfrwt beam="1">  1       21 0.37977391E-01 0.22793331E+03</pdfrwt>
<pdfrwt beam="2">  1       21 0.13507204E+00 0.22793331E+03</pdfrwt>
<totfact> 0.25449594E+03</totfact>
</mgrwt>
</event>
<event>
 4    1  0.1110581E+000  0.2752604E+03  0.7546771E-02  0.1098306E+00
         21   -1    0    0  501  502  0.00000000000E+00  0.00000000000E+00  0.12738729921E+03  0.12738729921E+03  0.00000000000E+00 0.  1.
         21   -1    0    0  502  503 -0.00000000000E+00 -0.00000000000E+00 -0.10254934946E+04  0.10254934946E+04  0.00000000000E+00 0. -1.
          6    1    1    2  501    0 -0.20118386130E+03  0.75560136912E+02 -0.75477259547E+02  0.28542091207E+03  0.17200000000E+03 0.  1.
         -6    1    1    2    0  503  0.20118386130E+03 -0.75560136912E+02 -0.82262893582E+03  0.86745988172E+03  0.17200000000E+03 0. -1.
<mgrwt>
<rscale>  2 0.27526039E+03</rscale>
<asrwt>0</asrwt>
<pdfrwt beam="1">  1       21 0.31846826E-01 0.27526039E+03</pdfrwt>
<pdfrwt beam="2">  1       21 0.25637337E+00 0.27526039E+03</pdfrwt>
<totfact> 0.52777092E+02</totfact>
</mgrwt>
</event>
<event>
 4    1  0.1110581E+000  0.2170357E+03  0.7546771E-02  0.1136113E+00
         21   -1    0    0  503  502  0.00000000000E+00  0.00000000000E+00  0.13539581484E+03  0.13539581484E+03  0.00000000000E+00 0. -1.
         21   -1    0    0  501  503 -0.00000000000E+00 -0.00000000000E+00 -0.39135140850E+03  0.39135140850E+03  0.00000000000E+00 0.  1.
          6    1    1    2  501    0  0.12461481197E+03 -0.44627877132E+02 -0.21573441059E+03  0.30601606934E+03  0.17200000000E+03 0.  1.
         -6    1    1    2    0  502 -0.12461481197E+03  0.44627877132E+02 -0.40221183070E+02  0.22073115400E+03  0.17200000000E+03 0. -1.
<mgrwt>
<rscale>  2 0.21703571E+03</rscale>
<asrwt>0</asrwt>
<pdfrwt beam="1">  1       21 0.33848954E-01 0.21703571E+03</pdfrwt>
<pdfrwt beam="2">  1       21 0.97837852E-01 0.21703571E+03</pdfrwt>
<totfact> 0.71413741E+03</totfact>
</mgrwt>
</event>
<event>
 4    1  0.1110581E+000  0.4225352E+03  0.7546771E-02  0.1036244E+00
         21   -1    0    0  501  502  0.00000000000E+00  0.00000000000E+00  0.22673414940E+03  0.22673414940E+03  0.00000000000E+00 0. -1.
         21   -1    0    0  502  503 -0.00000000000E+00 -0.00000000000E+00 -0.10218130875E+04  0.10218130875E+04  0.00000000000E+00 0.  1.
          6    1    1    2  501    0 -0.20359611313E+03 -0.32787281124E+03 -0.98548717521E+02  0.43387533619E+03  0.17200000000E+03 0. -1.
         -6    1    1    2    0  503  0.20359611313E+03  0.32787281124E+03 -0.69653022063E+03  0.81467190075E+03  0.17200000000E+03 0.  1.
<mgrwt>
<rscale>  2 0.42253516E+03</rscale>
<asrwt>0</asrwt>
<pdfrwt beam="1">  1       21 0.56683537E-01 0.42253516E+03</pdfrwt>
<pdfrwt beam="2">  1       21 0.25545327E+00 0.42253516E+03</pdfrwt>
<totfact> 0.14512894E+02</totfact>
</mgrwt>
</event>
<event>
 4    1  0.1110581E+000  0.2693243E+03  0.7546771E-02  0.1101667E+00
         21   -1    0    0  503  502  0.00000000000E+00  0.00000000000E+00  0.12129721069E+03  0.12129721069E+03  0.00000000000E+00 0.  1.
         21   -1    0    0  501  503 -0.00000000000E+00 -0.00000000000E+00 -0.76599172696E+03  0.76599172696E+03  0.00000000000E+00 0.  1.
          6    1    1    2  501    0  0.72550484327E+01  0.20712065805E+03 -0.53011032942E+03  0.59460286248E+03  0.17200000000E+03 0.  1.
         -6    1    1    2    0  502 -0.72550484327E+01 -0.20712065805E+03 -0.11458418686E+03  0.29268607516E+03  0.17200000000E+03 0.  1.
<mgrwt>
<rscale>  2 0.26932434E+03</rscale>
<asrwt>0</asrwt>
<pdfrwt beam="1">  1       21 0.30324303E-01 0.26932434E+03</pdfrwt>
<pdfrwt beam="2">  1       21 0.19149793E+00 0.26932434E+03</pdfrwt>
<totfact> 0.14843439E+03</totfact>
</mgrwt>
</event>
<event>
 4    1  0.1110581E+000  0.2501756E+03  0.7546771E-02  0.1113194E+00
         21   -1    0    0  503  502  0.00000000000E+00  0.00000000000E+00  0.29341174768E+03  0.29341174768E+03  0.00000000000E+00 0. -1.
         21   -1    0    0  501  503 -0.00000000000E+00 -0.00000000000E+00 -0.21921235174E+03  0.21921235174E+03  0.00000000000E+00 0.  1.
          6    1    1    2  501    0 -0.36293893402E+02 -0.17800730152E+03 -0.49560836441E+01  0.25022471672E+03  0.17200000000E+03 0.  1.
         -6    1    1    2    0  502  0.36293893402E+02  0.17800730152E+03  0.79155479581E+02  0.26239938270E+03  0.17200000000E+03 0. -1.
<mgrwt>
<rscale>  2 0.25017563E+03</rscale>
<asrwt>0</asrwt>
<pdfrwt beam="1">  1       21 0.73352937E-01 0.25017563E+03</pdfrwt>
<pdfrwt beam="2">  1       21 0.54803088E-01 0.25017563E+03</pdfrwt>
<totfact> 0.50428079E+03</totfact>
</mgrwt>
</event>
<event>
 4    1  0.1110581E+000  0.1941140E+03  0.7546771E-02  0.1154802E+00
         21   -1    0    0  503  502  0.00000000000E+00  0.00000000000E+00  0.13045842292E+03  0.13045842292E+03  0.00000000000E+00 0.  1.
         21   -1    0    0  501  503 -0.00000000000E+00 -0.00000000000E+00 -0.58293091680E+03  0.58293091680E+03  0.00000000000E+00 0.  1.
          6    1    1    2  501    0 -0.55414692064E+02  0.70890475285E+02 -0.47959539868E+03  0.51738959597E+03  0.17200000000E+03 0.  1.
         -6    1    1    2    0  502  0.55414692064E+02 -0.70890475285E+02  0.27122904801E+02  0.19599974374E+03  0.17200000000E+03 0.  1.
<mgrwt>
<rscale>  2 0.19411401E+03</rscale>
<asrwt>0</asrwt>
<pdfrwt beam="1">  1       21 0.32614606E-01 0.19411401E+03</pdfrwt>
<pdfrwt beam="2">  1       21 0.14573273E+00 0.19411401E+03</pdfrwt>
<totfact> 0.29131523E+03</totfact>
</mgrwt>
</event>
<event>
 4    1  0.1110581E+000  0.1756767E+03  0.7546771E-02  0.1172054E+00
         21   -1    0    0  501  502  0.00000000000E+00  0.00000000000E+00  0.12759381514E+03  0.12759381514E+03  0.00000000000E+00 0.  1.
         21   -1    0    0  502  503 -0.00000000000E+00 -0.00000000000E+00 -0.80142640685E+03  0.80142640685E+03  0.00000000000E+00 0.  1.
          6    1    1    2  501    0 -0.34657991287E+02  0.87812835988E+01  0.51217734236E+02  0.18299055605E+03  0.17200000000E+03 0.  1.
         -6    1    1    2    0  503  0.34657991287E+02 -0.87812835988E+01 -0.72505032595E+03  0.74602966594E+03  0.17200000000E+03 0.  1.
<mgrwt>
<rscale>  2 0.17567666E+03</rscale>
<asrwt>0</asrwt>
<pdfrwt beam="1">  1       21 0.31898454E-01 0.17567666E+03</pdfrwt>
<pdfrwt beam="2">  1       21 0.20035660E+00 0.17567666E+03</pdfrwt>
<totfact> 0.12870493E+03</totfact>
</mgrwt>
</event>
<event>
 4    1  0.1110581E+000  0.1823477E+03  0.7546771E-02  0.1165550E+00
         21   -1    0    0  503  502  0.00000000000E+00  0.00000000000E+00  0.30253528436E+03  0.30253528436E+03  0.00000000000E+00 0.  1.
         21   -1    0    0  501  503 -0.00000000000E+00 -0.00000000000E+00 -0.11016962527E+03  0.11016962527E+03  0.00000000000E+00 0.  1.
          6    1    1    2  501    0  0.60315214385E+02 -0.53636244581E+01  0.10626116658E+03  0.21105006296E+03  0.17200000000E+03 0.  1.
         -6    1    1    2    0  502 -0.60315214385E+02  0.53636244581E+01  0.86104492508E+02  0.20165484667E+03  0.17200000000E+03 0.  1.
<mgrwt>
<rscale>  2 0.18234773E+03</rscale>
<asrwt>0</asrwt>
<pdfrwt beam="1">  1       21 0.75633819E-01 0.18234773E+03</pdfrwt>
<pdfrwt beam="2">  1       21 0.27542407E-01 0.18234773E+03</pdfrwt>
<totfact> 0.19747182E+04</totfact>
</mgrwt>
</event>
<event>
 4    1  0.1110581E+000  0.1754674E+03  0.7546771E-02  0.1172263E+00
         21   -1    0    0  503  502  0.00000000000E+00  0.00000000000E+00  0.15050677287E+03  0.15050677287E+03  0.00000000000E+00 0. -1.
         21   -1    0    0  501  503 -0.00000000000E+00 -0.00000000000E+00 -0.29285285288E+03  0.29285285288E+03  0.00000000000E+00 0. -1.
          6    1    1    2  501    0  0.12570992510E+02  0.32353754536E+02 -0.19288849544E+03  0.26075806211E+03  0.17200000000E+03 0. -1.
         -6    1    1    2    0  502 -0.12570992510E+02 -0.32353754536E+02  0.50542415428E+02  0.18260156364E+03  0.17200000000E+03 0. -1.
<mgrwt>
<rscale>  2 0.17546736E+03</rscale>
<asrwt>0</asrwt>
<pdfrwt beam="1">  1       21 0.37626694E-01 0.17546736E+03</pdfrwt>
<pdfrwt beam="2">  1       21 0.73213213E-01 0.17546736E+03</pdfrwt>
<totfact> 0.11563427E+04</totfact>
</mgrwt>
</event>
<event>
 4    1  0.1110581E+000  0.1734693E+03  0.7546771E-02  0.1174277E+00
         21   -1    0    0  503  502  0.00000000000E+00  0.00000000000E+00  0.19063550814E+03  0.19063550814E+03  0.00000000000E+00 0.  1.
         21   -1    0    0  501  503 -0.00000000000E+00 -0.00000000000E+00 -0.31679799985E+03  0.31679799985E+03  0.00000000000E+00 0.  1.
          6    1    1    2  501    0  0.15763857785E+02  0.16096872881E+02 -0.24279732870E+03  0.29839931527E+03  0.17200000000E+03 0.  1.
         -6    1    1    2    0  502 -0.15763857785E+02 -0.16096872881E+02  0.11663483699E+03  0.20903419272E+03  0.17200000000E+03 0.  1.
<mgrwt>
<rscale>  2 0.17346933E+03</rscale>
<asrwt>0</asrwt>
<pdfrwt beam="1">  1       21 0.47658877E-01 0.17346933E+03</pdfrwt>
<pdfrwt beam="2">  1       21 0.79199499E-01 0.17346933E+03</pdfrwt>
<totfact> 0.60121828E+03</totfact>
</mgrwt>
</event>
<event>
 4    1  0.1110581E+000  0.2227995E+03  0.7546771E-02  0.1131813E+00
         21   -1    0    0  501  502  0.00000000000E+00  0.00000000000E+00  0.13837622097E+03  0.13837622097E+03  0.00000000000E+00 0. -1.
         21   -1    0    0  502  503 -0.00000000000E+00 -0.00000000000E+00 -0.45209883489E+03  0.45209883489E+03  0.00000000000E+00 0. -1.
          6    1    1    2  501    0 -0.31851144468E+02 -0.13798949568E+03 -0.22690630927E+02  0.22395191683E+03  0.17200000000E+03 0. -1.
         -6    1    1    2    0  503  0.31851144468E+02  0.13798949568E+03 -0.29103198299E+03  0.36652313903E+03  0.17200000000E+03 0. -1.
<mgrwt>
<rscale>  2 0.22279945E+03</rscale>
<asrwt>0</asrwt>
<pdfrwt beam="1">  1       21 0.34594056E-01 0.22279945E+03</pdfrwt>
<pdfrwt beam="2">  1       21 0.11302471E+00 0.22279945E+03</pdfrwt>
<totfact> 0.48114813E+03</totfact>
</mgrwt>
</event>
<event>
 4    1  0.1110581E+000  0.2556110E+03  0.7546771E-02  0.1109809E+00
         21   -1    0    0  501  502  0.00000000000E+00  0.00000000000E+00  0.35711843610E+03  0.35711843610E+03  0.00000000000E+00 0.  1.
         21   -1    0    0  502  503 -0.00000000000E+00 -0.00000000000E+00 -0.18400597545E+03  0.18400597545E+03  0.00000000000E+00 0.  1.
          6    1    1    2  501    0 -0.18908434240E+03 -0.30311898588E+00  0.10699380034E+03  0.27710043979E+03  0.17200000000E+03 0.  1.
         -6    1    1    2    0  503  0.18908434240E+03  0.30311898588E+00  0.66118660320E+02  0.26402397176E+03  0.17200000000E+03 0.  1.
<mgrwt>
<rscale>  2 0.25561099E+03</rscale>
<asrwt>0</asrwt>
<pdfrwt beam="1">  1       21 0.89279608E-01 0.25561099E+03</pdfrwt>
<pdfrwt beam="2">  1       21 0.46001494E-01 0.25561099E+03</pdfrwt>
<totfact> 0.46361026E+03</totfact>
</mgrwt>
</event>
<event>
 4    1  0.1110581E+000  0.2265537E+03  0.7546771E-02  0.1129089E+00
         21   -1    0    0  501  502  0.00000000000E+00  0.00000000000E+00  0.46331475251E+03  0.46331475251E+03  0.00000000000E+00 0.  1.
         21   -1    0    0  502  503 -0.00000000000E+00 -0.00000000000E+00 -0.29305187436E+03  0.29305187436E+03  0.00000000000E+00 0. -1.
          6    1    1    2  501    0  0.13242213158E+03  0.64861087681E+02  0.38338694272E+03  0.44532250053E+03  0.17200000000E+03 0.  1.
         -6    1    1    2    0  503 -0.13242213158E+03 -0.64861087681E+02 -0.21312406458E+03  0.31104412634E+03  0.17200000000E+03 0. -1.
<mgrwt>
<rscale>  2 0.22655371E+03</rscale>
<asrwt>0</asrwt>
<pdfrwt beam="1">  1       21 0.11582869E+00 0.22655371E+03</pdfrwt>
<pdfrwt beam="2">  1       21 0.73262969E-01 0.22655371E+03</pdfrwt>
<totfact> 0.93392297E+02</totfact>
</mgrwt>
</event>
<event>
 4    1  0.1110581E+000  0.2006013E+03  0.7546771E-02  0.1149233E+00
         21   -1    0    0  501  502  0.00000000000E+00  0.00000000000E+00  0.86396288987E+02  0.86396288987E+02  0.00000000000E+00 0.  1.
         21   -1    0    0  502  503 -0.00000000000E+00 -0.00000000000E+00 -0.54354667246E+03  0.54354667246E+03  0.00000000000E+00 0.  1.
          6    1    1    2  501    0 -0.92922954871E+02 -0.44968954111E+02 -0.34771991512E+03  0.40143495332E+03  0.17200000000E+03 0.  1.
         -6    1    1    2    0  503  0.92922954871E+02  0.44968954111E+02 -0.10943046836E+03  0.22850800813E+03  0.17200000000E+03 0.  1.
<mgrwt>
<rscale>  2 0.20060130E+03</rscale>
<asrwt>0</asrwt>
<pdfrwt beam="1">  1       21 0.21599073E-01 0.20060130E+03</pdfrwt>
<pdfrwt beam="2">  1       21 0.13588667E+00 0.20060130E+03</pdfrwt>
<totfact> 0.76732539E+03</totfact>
</mgrwt>
</event>
<event>
 4    1  0.1110581E+000  0.2538449E+03  0.7546771E-02  0.1110899E+00
         21   -1    0    0  503  502  0.00000000000E+00  0.00000000000E+00  0.12714623603E+03  0.12714623603E+03  0.00000000000E+00 0. -1.
         21   -1    0    0  501  503 -0.00000000000E+00 -0.00000000000E+00 -0.53345941211E+03  0.53345941211E+03  0.00000000000E+00 0. -1.
          6    1    1    2  501    0  0.16818652401E+03  0.81034061696E+02 -0.27700106826E+03  0.37572172925E+03  0.17200000000E+03 0. -1.
         -6    1    1    2    0  502 -0.16818652401E+03 -0.81034061696E+02 -0.12931210782E+03  0.28488391889E+03  0.17200000000E+03 0. -1.
<mgrwt>
<rscale>  2 0.25384489E+03</rscale>
<asrwt>0</asrwt>
<pdfrwt beam="1">  1       21 0.31786559E-01 0.25384489E+03</pdfrwt>
<pdfrwt beam="2">  1       21 0.13336485E+00 0.25384489E+03</pdfrwt>
<totfact> 0.36795148E+03</totfact>
</mgrwt>
</event>
<event>
 4    1  0.1110581E+000  0.2480700E+03  0.7546771E-02  0.1114531E+00
         21   -1    0    0  501  502  0.00000000000E+00  0.00000000000E+00  0.77742829548E+02  0.77742829548E+02  0.00000000000E+00 0. -1.
         21   -1    0    0  502  503 -0.00000000000E+00 -0.00000000000E+00 -0.10449219472E+04  0.10449219472E+04  0.00000000000E+00 0. -1.
          6    1    1    2  501    0 -0.92193642036E+02  0.15315045908E+03 -0.20718699171E+03  0.32321073664E+03  0.17200000000E+03 0. -1.
         -6    1    1    2    0  503  0.92193642036E+02 -0.15315045908E+03 -0.75999212593E+03  0.79945404009E+03  0.17200000000E+03 0. -1.
<mgrwt>
<rscale>  2 0.24807001E+03</rscale>
<asrwt>0</asrwt>
<pdfrwt beam="1">  1       21 0.19435707E-01 0.24807001E+03</pdfrwt>
<pdfrwt beam="2">  1       21 0.26123049E+00 0.24807001E+03</pdfrwt>
<totfact> 0.13102589E+03</totfact>
</mgrwt>
</event>
<event>
 4    1  0.1110581E+000  0.2069664E+03  0.7546771E-02  0.1143991E+00
         21   -1    0    0  501  502  0.00000000000E+00  0.00000000000E+00  0.22460556307E+03  0.22460556307E+03  0.00000000000E+00 0.  1.
         21   -1    0    0  502  503 -0.00000000000E+00 -0.00000000000E+00 -0.24703006893E+03  0.24703006893E+03  0.00000000000E+00 0.  1.
          6    1    1    2  501    0  0.10427467948E+03  0.48763555066E+02  0.10138390542E+03  0.23046429086E+03  0.17200000000E+03 0.  1.
         -6    1    1    2    0  503 -0.10427467948E+03 -0.48763555066E+02 -0.12380841128E+03  0.24117134114E+03  0.17200000000E+03 0.  1.
<mgrwt>
<rscale>  2 0.20696641E+03</rscale>
<asrwt>0</asrwt>
<pdfrwt beam="1">  1       21 0.56151391E-01 0.20696641E+03</pdfrwt>
<pdfrwt beam="2">  1       21 0.61757517E-01 0.20696641E+03</pdfrwt>
<totfact> 0.71940797E+03</totfact>
</mgrwt>
</event>
<event>
 4    1  0.1110581E+000  0.2192307E+03  0.7546771E-02  0.1134458E+00
         21   -1    0    0  503  502  0.00000000000E+00  0.00000000000E+00  0.17483223787E+03  0.17483223787E+03  0.00000000000E+00 0. -1.
         21   -1    0    0  501  503 -0.00000000000E+00 -0.00000000000E+00 -0.36152179310E+03  0.36152179310E+03  0.00000000000E+00 0.  1.
          6    1    1    2  501    0  0.12080508207E+03  0.62323700529E+02 -0.22461234568E+03  0.31386751557E+03  0.17200000000E+03 0.  1.
         -6    1    1    2    0  502 -0.12080508207E+03 -0.62323700529E+02  0.37922790445E+02  0.22248651540E+03  0.17200000000E+03 0. -1.
<mgrwt>
<rscale>  2 0.21923073E+03</rscale>
<asrwt>0</asrwt>
<pdfrwt beam="1">  1       21 0.43708060E-01 0.21923073E+03</pdfrwt>
<pdfrwt beam="2">  1       21 0.90380448E-01 0.21923073E+03</pdfrwt>
<totfact> 0.51290329E+03</totfact>
</mgrwt>
</event>
<event>
 4    1  0.1110581E+000  0.2348519E+03  0.7546771E-02  0.1123271E+00
         21   -1    0    0  501  502  0.00000000000E+00  0.00000000000E+00  0.10398642908E+04  0.10398642908E+04  0.00000000000E+00 0. -1.
         21   -1    0    0  502  503 -0.00000000000E+00 -0.00000000000E+00 -0.54457969854E+02  0.54457969854E+02  0.00000000000E+00 0. -1.
          6    1    1    2  501    0  0.18491006744E+02 -0.15883803242E+03  0.40444285915E+03  0.46768521913E+03  0.17200000000E+03 0. -1.
         -6    1    1    2    0  503 -0.18491006744E+02  0.15883803242E+03  0.58096346182E+03  0.62663704155E+03  0.17200000000E+03 0. -1.
<mgrwt>
<rscale>  2 0.23485195E+03</rscale>
<asrwt>0</asrwt>
<pdfrwt beam="1">  1       21 0.25996601E+00 0.23485195E+03</pdfrwt>
<pdfrwt beam="2">  1       21 0.13614496E-01 0.23485195E+03</pdfrwt>
<totfact> 0.26010515E+03</totfact>
</mgrwt>
</event>
<event>
 4    1  0.1110581E+000  0.2126388E+03  0.7546771E-02  0.1139493E+00
         21   -1    0    0  501  502  0.00000000000E+00  0.00000000000E+00  0.36940456759E+03  0.36940456759E+03  0.00000000000E+00 0. -1.
         21   -1    0    0  502  503 -0.00000000000E+00 -0.00000000000E+00 -0.12256840949E+03  0.12256840949E+03  0.00000000000E+00 0. -1.
          6    1    1    2  501    0 -0.11921573122E+03  0.37668125487E+02  0.13252452567E+03  0.25055543928E+03  0.17200000000E+03 0. -1.
         -6    1    1    2    0  503  0.11921573122E+03 -0.37668125487E+02  0.11431163243E+03  0.24141753780E+03  0.17200000000E+03 0. -1.
<mgrwt>
<rscale>  2 0.21263884E+03</rscale>
<asrwt>0</asrwt>
<pdfrwt beam="1">  1       21 0.92351139E-01 0.21263884E+03</pdfrwt>
<pdfrwt beam="2">  1       21 0.30642103E-01 0.21263884E+03</pdfrwt>
<totfact> 0.99797513E+03</totfact>
</mgrwt>
</event>
<event>
 4    1  0.1110581E+000  0.2589756E+03  0.7546771E-02  0.1107760E+00
         21   -1    0    0  503  502  0.00000000000E+00  0.00000000000E+00  0.34882464299E+03  0.34882464299E+03  0.00000000000E+00 0.  1.
         21   -1    0    0  501  503 -0.00000000000E+00 -0.00000000000E+00 -0.20537453100E+03  0.20537453100E+03  0.00000000000E+00 0. -1.
          6    1    1    2  501    0 -0.11416152260E+03  0.15636981357E+03  0.17279498595E+01  0.25898138475E+03  0.17200000000E+03 0.  1.
         -6    1    1    2    0  502  0.11416152260E+03 -0.15636981357E+03  0.14172216214E+03  0.29521778923E+03  0.17200000000E+03 0. -1.
<mgrwt>
<rscale>  2 0.25897562E+03</rscale>
<asrwt>0</asrwt>
<pdfrwt beam="1">  1       21 0.87206160E-01 0.25897562E+03</pdfrwt>
<pdfrwt beam="2">  1       21 0.51343633E-01 0.25897562E+03</pdfrwt>
<totfact> 0.38830731E+03</totfact>
</mgrwt>
</event>
<event>
 4    1  0.1110581E+000  0.2044502E+03  0.7546771E-02  0.1146038E+00
         21   -1    0    0  501  502  0.00000000000E+00  0.00000000000E+00  0.22522779718E+03  0.22522779718E+03  0.00000000000E+00 0.  1.
         21   -1    0    0  502  503 -0.00000000000E+00 -0.00000000000E+00 -0.49780691653E+03  0.49780691653E+03  0.00000000000E+00 0. -1.
          6    1    1    2  501    0 -0.10685051245E+03  0.28263886430E+02  0.15001440416E+03  0.25358272958E+03  0.17200000000E+03 0.  1.
         -6    1    1    2    0  503  0.10685051245E+03 -0.28263886430E+02 -0.42259352351E+03  0.46945198412E+03  0.17200000000E+03 0. -1.
<mgrwt>
<rscale>  2 0.20445019E+03</rscale>
<asrwt>0</asrwt>
<pdfrwt beam="1">  1       21 0.56306950E-01 0.20445019E+03</pdfrwt>
<pdfrwt beam="2">  1       21 0.12445173E+00 0.20445019E+03</pdfrwt>
<totfact> 0.14151533E+03</totfact>
</mgrwt>
</event>
<event>
 4    1  0.1110581E+000  0.1896117E+03  0.7546771E-02  0.1158812E+00
         21   -1    0    0  501  502  0.00000000000E+00  0.00000000000E+00  0.18661678099E+03  0.18661678099E+03  0.00000000000E+00 0. -1.
         21   -1    0    0  502  503 -0.00000000000E+00 -0.00000000000E+00 -0.19378539541E+03  0.19378539541E+03  0.00000000000E+00 0. -1.
          6    1    1    2  501    0  0.21553950743E+02  0.76837595644E+02  0.10944724493E+02  0.18992729106E+03  0.17200000000E+03 0. -1.
         -6    1    1    2    0  503 -0.21553950743E+02 -0.76837595644E+02 -0.18113338920E+02  0.19047488534E+03  0.17200000000E+03 0. -1.
<mgrwt>
<rscale>  2 0.18961168E+03</rscale>
<asrwt>0</asrwt>
<pdfrwt beam="1">  1       21 0.46654195E-01 0.18961168E+03</pdfrwt>
<pdfrwt beam="2">  1       21 0.48446349E-01 0.18961168E+03</pdfrwt>
<totfact> 0.17933933E+04</totfact>
</mgrwt>
</event>
<event>
 4    1  0.1110581E+000  0.1938562E+03  0.7546771E-02  0.1155029E+00
         21   -1    0    0  501  502  0.00000000000E+00  0.00000000000E+00  0.12633279100E+04  0.12633279100E+04  0.00000000000E+00 0. -1.
         21   -1    0    0  502  503 -0.00000000000E+00 -0.00000000000E+00 -0.38061885996E+02  0.38061885996E+02  0.00000000000E+00 0. -1.
          6    1    1    2  501    0  0.82754487861E+02 -0.33880854194E+02  0.91676377635E+03  0.93703577262E+03  0.17200000000E+03 0. -1.
         -6    1    1    2    0  503 -0.82754487861E+02  0.33880854194E+02  0.30850224765E+03  0.36435402337E+03  0.17200000000E+03 0. -1.
<mgrwt>
<rscale>  2 0.19385618E+03</rscale>
<asrwt>0</asrwt>
<pdfrwt beam="1">  1       21 0.31583184E+00 0.19385618E+03</pdfrwt>
<pdfrwt beam="2">  1       21 0.95154757E-02 0.19385618E+03</pdfrwt>
<totfact> 0.24466104E+03</totfact>
</mgrwt>
</event>
<event>
 4    1  0.1110581E+000  0.1890448E+03  0.7546771E-02  0.1159326E+00
         21   -1    0    0  501  502  0.00000000000E+00  0.00000000000E+00  0.81473476818E+03  0.81473476818E+03  0.00000000000E+00 0. -1.
         21   -1    0    0  502  503 -0.00000000000E+00 -0.00000000000E+00 -0.44389754602E+02  0.44389754602E+02  0.00000000000E+00 0. -1.
          6    1    1    2  501    0 -0.25991635696E+02 -0.74015938105E+02  0.43190019091E+03  0.47146123820E+03  0.17200000000E+03 0. -1.
         -6    1    1    2    0  503  0.25991635696E+02  0.74015938105E+02  0.33844482267E+03  0.38766328458E+03  0.17200000000E+03 0. -1.
<mgrwt>
<rscale>  2 0.18904477E+03</rscale>
<asrwt>0</asrwt>
<pdfrwt beam="1">  1       21 0.20368364E+00 0.18904477E+03</pdfrwt>
<pdfrwt beam="2">  1       21 0.11097441E-01 0.18904477E+03</pdfrwt>
<totfact> 0.86080656E+03</totfact>
</mgrwt>
</event>
<event>
 4    1  0.1110581E+000  0.2501310E+03  0.7546771E-02  0.1113222E+00
         21   -1    0    0  501  502  0.00000000000E+00  0.00000000000E+00  0.99989423552E+02  0.99989423552E+02  0.00000000000E+00 0. -1.
         21   -1    0    0  502  503 -0.00000000000E+00 -0.00000000000E+00 -0.63800976847E+03  0.63800976847E+03  0.00000000000E+00 0.  1.
          6    1    1    2  501    0  0.44291042193E+02 -0.17612445042E+03 -0.21779955858E+03  0.33166574464E+03  0.17200000000E+03 0. -1.
         -6    1    1    2    0  503 -0.44291042193E+02  0.17612445042E+03 -0.32022078634E+03  0.40633344738E+03  0.17200000000E+03 0. -1.
<mgrwt>
<rscale>  2 0.25013100E+03</rscale>
<asrwt>0</asrwt>
<pdfrwt beam="1">  1       21 0.24997357E-01 0.25013100E+03</pdfrwt>
<pdfrwt beam="2">  1       21 0.15950244E+00 0.25013100E+03</pdfrwt>
<totfact> 0.36721684E+03</totfact>
</mgrwt>
</event>
<event>
 4    1  0.1110581E+000  0.1928261E+03  0.7546771E-02  0.1155937E+00
         21   -1    0    0  501  502  0.00000000000E+00  0.00000000000E+00  0.54836201611E+03  0.54836201611E+03  0.00000000000E+00 0. -1.
         21   -1    0    0  502  503 -0.00000000000E+00 -0.00000000000E+00 -0.91040755793E+02  0.91040755793E+02  0.00000000000E+00 0. -1.
          6    1    1    2  501    0  0.28328094011E+02  0.82434463608E+02  0.39017121327E+03  0.43521890741E+03  0.17200000000E+03 0. -1.
         -6    1    1    2    0  503 -0.28328094011E+02 -0.82434463608E+02  0.67150047042E+02  0.20418386449E+03  0.17200000000E+03 0. -1.
<mgrwt>
<rscale>  2 0.19282614E+03</rscale>
<asrwt>0</asrwt>
<pdfrwt beam="1">  1       21 0.13709049E+00 0.19282614E+03</pdfrwt>
<pdfrwt beam="2">  1       21 0.22760190E-01 0.19282614E+03</pdfrwt>
<totfact> 0.68378777E+03</totfact>
</mgrwt>
</event>
<event>
 4    1  0.1110581E+000  0.1727248E+03  0.7546771E-02  0.1175036E+00
         21   -1    0    0  503  502  0.00000000000E+00  0.00000000000E+00  0.10708118337E+03  0.10708118337E+03  0.00000000000E+00 0. -1.
         21   -1    0    0  501  503 -0.00000000000E+00 -0.00000000000E+00 -0.35271718262E+03  0.35271718262E+03  0.00000000000E+00 0. -1.
          6    1    1    2  501    0  0.15630456128E+02 -0.23549514962E+01 -0.22819725708E+03  0.28619546658E+03  0.17200000000E+03 0. -1.
         -6    1    1    2    0  502 -0.15630456128E+02  0.23549514962E+01 -0.17438742173E+02  0.17360289941E+03  0.17200000000E+03 0. -1.
<mgrwt>
<rscale>  2 0.17272480E+03</rscale>
<asrwt>0</asrwt>
<pdfrwt beam="1">  1       21 0.26770296E-01 0.17272480E+03</pdfrwt>
<pdfrwt beam="2">  1       21 0.88179295E-01 0.17272480E+03</pdfrwt>
<totfact> 0.14826762E+04</totfact>
</mgrwt>
</event>
<event>
 4    1  0.1110581E+000  0.1977751E+03  0.7546771E-02  0.1151630E+00
         21   -1    0    0  501  502  0.00000000000E+00  0.00000000000E+00  0.21009046035E+03  0.21009046035E+03  0.00000000000E+00 0. -1.
         21   -1    0    0  502  503 -0.00000000000E+00 -0.00000000000E+00 -0.18819455213E+03  0.18819455213E+03  0.00000000000E+00 0. -1.
          6    1    1    2  501    0 -0.95415095953E+02  0.20662389911E+02 -0.96478517980E+01  0.19801024200E+03  0.17200000000E+03 0. -1.
         -6    1    1    2    0  503  0.95415095953E+02 -0.20662389911E+02  0.31543760020E+02  0.20027477048E+03  0.17200000000E+03 0. -1.
<mgrwt>
<rscale>  2 0.19777506E+03</rscale>
<asrwt>0</asrwt>
<pdfrwt beam="1">  1       21 0.52522615E-01 0.19777506E+03</pdfrwt>
<pdfrwt beam="2">  1       21 0.47048638E-01 0.19777506E+03</pdfrwt>
<totfact> 0.14812853E+04</totfact>
</mgrwt>
</event>
<event>
 4    1  0.1110581E+000  0.2301246E+03  0.7546771E-02  0.1126552E+00
         21   -1    0    0  501  502  0.00000000000E+00  0.00000000000E+00  0.84445329905E+02  0.84445329905E+02  0.00000000000E+00 0.  1.
         21   -1    0    0  502  503 -0.00000000000E+00 -0.00000000000E+00 -0.71803602207E+03  0.71803602207E+03  0.00000000000E+00 0.  1.
          6    1    1    2  501    0  0.53676751386E+02 -0.14315079661E+03 -0.45957041003E+03  0.51396722268E+03  0.17200000000E+03 0.  1.
         -6    1    1    2    0  503 -0.53676751386E+02  0.14315079661E+03 -0.17402028214E+03  0.28851412930E+03  0.17200000000E+03 0.  1.
<mgrwt>
<rscale>  2 0.23012463E+03</rscale>
<asrwt>0</asrwt>
<pdfrwt beam="1">  1       21 0.21111333E-01 0.23012463E+03</pdfrwt>
<pdfrwt beam="2">  1       21 0.17950900E+00 0.23012463E+03</pdfrwt>
<totfact> 0.37024356E+03</totfact>
</mgrwt>
</event>
<event>
 4    1  0.1110581E+000  0.1853001E+03  0.7546771E-02  0.1162770E+00
         21   -1    0    0  501  502  0.00000000000E+00  0.00000000000E+00  0.20102248902E+03  0.20102248902E+03  0.00000000000E+00 0. -1.
         21   -1    0    0  502  503 -0.00000000000E+00 -0.00000000000E+00 -0.17103243382E+03  0.17103243382E+03  0.00000000000E+00 0. -1.
          6    1    1    2  501    0  0.58231946237E+02 -0.36894190646E+02  0.21741911847E+02  0.18657130432E+03  0.17200000000E+03 0.  1.
         -6    1    1    2    0  503 -0.58231946237E+02  0.36894190646E+02  0.82481433523E+01  0.18548361851E+03  0.17200000000E+03 0.  1.
<mgrwt>
<rscale>  2 0.18530014E+03</rscale>
<asrwt>0</asrwt>
<pdfrwt beam="1">  1       21 0.50255622E-01 0.18530014E+03</pdfrwt>
<pdfrwt beam="2">  1       21 0.42758109E-01 0.18530014E+03</pdfrwt>
<totfact> 0.19921169E+04</totfact>
</mgrwt>
</event>
<event>
 4    1  0.1110581E+000  0.2130424E+03  0.7546771E-02  0.1139179E+00
         21   -1    0    0  501  502  0.00000000000E+00  0.00000000000E+00  0.33278562412E+03  0.33278562412E+03  0.00000000000E+00 0.  1.
         21   -1    0    0  502  503 -0.00000000000E+00 -0.00000000000E+00 -0.13978289522E+03  0.13978289522E+03  0.00000000000E+00 0. -1.
          6    1    1    2  501    0  0.10663116902E+03 -0.66579566618E+02  0.13333951971E+03  0.25132941017E+03  0.17200000000E+03 0.  1.
         -6    1    1    2    0  503 -0.10663116902E+03  0.66579566618E+02  0.59663209178E+02  0.22123910917E+03  0.17200000000E+03 0. -1.
<mgrwt>
<rscale>  2 0.21304235E+03</rscale>
<asrwt>0</asrwt>
<pdfrwt beam="1">  1       21 0.83196404E-01 0.21304235E+03</pdfrwt>
<pdfrwt beam="2">  1       21 0.34945724E-01 0.21304235E+03</pdfrwt>
<totfact> 0.97954262E+03</totfact>
</mgrwt>
</event>
<event>
 4    1  0.1110581E+000  0.2293618E+03  0.7546771E-02  0.1127090E+00
         21   -1    0    0  503  502  0.00000000000E+00  0.00000000000E+00  0.48291371982E+03  0.48291371982E+03  0.00000000000E+00 0.  1.
         21   -1    0    0  501  503 -0.00000000000E+00 -0.00000000000E+00 -0.13549787584E+03  0.13549787584E+03  0.00000000000E+00 0. -1.
          6    1    1    2  501    0 -0.90948580215E+02  0.12145443157E+03  0.36806334453E+02  0.23229621057E+03  0.17200000000E+03 0. -1.
         -6    1    1    2    0  502  0.90948580215E+02 -0.12145443157E+03  0.31060950953E+03  0.38611538509E+03  0.17200000000E+03 0.  1.
<mgrwt>
<rscale>  2 0.22936177E+03</rscale>
<asrwt>0</asrwt>
<pdfrwt beam="1">  1       21 0.12072843E+00 0.22936177E+03</pdfrwt>
<pdfrwt beam="2">  1       21 0.33874470E-01 0.22936177E+03</pdfrwt>
<totfact> 0.42439564E+03</totfact>
</mgrwt>
</event>
<event>
 4    1  0.1110581E+000  0.2552269E+03  0.7546771E-02  0.1110045E+00
         21   -1    0    0  503  502  0.00000000000E+00  0.00000000000E+00  0.29189062004E+03  0.29189062004E+03  0.00000000000E+00 0.  1.
         21   -1    0    0  501  503 -0.00000000000E+00 -0.00000000000E+00 -0.27100348308E+03  0.27100348308E+03  0.00000000000E+00 0.  1.
          6    1    1    2  501    0  0.15124653733E+03 -0.11261100897E+03 -0.10780139776E+03  0.27705937226E+03  0.17200000000E+03 0.  1.
         -6    1    1    2    0  502 -0.15124653733E+03  0.11261100897E+03  0.12868853472E+03  0.28583473086E+03  0.17200000000E+03 0.  1.
<mgrwt>
<rscale>  2 0.25522687E+03</rscale>
<asrwt>0</asrwt>
<pdfrwt beam="1">  1       21 0.72972655E-01 0.25522687E+03</pdfrwt>
<pdfrwt beam="2">  1       21 0.67750871E-01 0.25522687E+03</pdfrwt>
<totfact> 0.32112200E+03</totfact>
</mgrwt>
</event>
<event>
 4    1  0.1110581E+000  0.1885640E+03  0.7546771E-02  0.1159763E+00
         21   -1    0    0  501  502  0.00000000000E+00  0.00000000000E+00  0.10626257171E+03  0.10626257171E+03  0.00000000000E+00 0. -1.
         21   -1    0    0  502  503 -0.00000000000E+00 -0.00000000000E+00 -0.42374629967E+03  0.42374629967E+03  0.00000000000E+00 0. -1.
          6    1    1    2  501    0  0.50206784951E+02  0.58750921437E+02 -0.37198739025E+02  0.19219817431E+03  0.17200000000E+03 0. -1.
         -6    1    1    2    0  503 -0.50206784951E+02 -0.58750921437E+02 -0.28028498894E+03  0.33781069706E+03  0.17200000000E+03 0. -1.
<mgrwt>
<rscale>  2 0.18856403E+03</rscale>
<asrwt>0</asrwt>
<pdfrwt beam="1">  1       21 0.26565643E-01 0.18856403E+03</pdfrwt>
<pdfrwt beam="2">  1       21 0.10593657E+00 0.18856403E+03</pdfrwt>
<totfact> 0.96713353E+03</totfact>
</mgrwt>
</event>
<event>
 4    1  0.1110581E+000  0.2020155E+03  0.7546771E-02  0.1148050E+00
         21   -1    0    0  501  502  0.00000000000E+00  0.00000000000E+00  0.66561588041E+02  0.66561588041E+02  0.00000000000E+00 0.  1.
         21   -1    0    0  502  503 -0.00000000000E+00 -0.00000000000E+00 -0.94103167723E+03  0.94103167723E+03  0.00000000000E+00 0. -1.
          6    1    1    2  501    0 -0.11222757694E+02 -0.10535804714E+03 -0.13984165815E+03  0.24569484679E+03  0.17200000000E+03 0.  1.
         -6    1    1    2    0  503  0.11222757694E+02  0.10535804714E+03 -0.73462843104E+03  0.76189841848E+03  0.17200000000E+03 0. -1.
<mgrwt>
<rscale>  2 0.20201552E+03</rscale>
<asrwt>0</asrwt>
<pdfrwt beam="1">  1       21 0.16640397E-01 0.20201552E+03</pdfrwt>
<pdfrwt beam="2">  1       21 0.23525792E+00 0.20201552E+03</pdfrwt>
<totfact> 0.26122643E+03</totfact>
</mgrwt>
</event>
<event>
 4    1  0.1110581E+000  0.1736796E+03  0.7546771E-02  0.1174064E+00
         21   -1    0    0  503  502  0.00000000000E+00  0.00000000000E+00  0.69330692849E+03  0.69330692849E+03  0.00000000000E+00 0.  1.
         21   -1    0    0  501  503 -0.00000000000E+00 -0.00000000000E+00 -0.69426794905E+02  0.69426794905E+02  0.00000000000E+00 0.  1.
          6    1    1    2  501    0 -0.22843715152E+02 -0.76658792611E+01  0.78924818361E+02  0.19077140242E+03  0.17200000000E+03 0.  1.
         -6    1    1    2    0  502  0.22843715152E+02  0.76658792611E+01  0.54495531522E+03  0.57196232098E+03  0.17200000000E+03 0.  1.
<mgrwt>
<rscale>  2 0.17367959E+03</rscale>
<asrwt>0</asrwt>
<pdfrwt beam="1">  1       21 0.17332671E+00 0.17367959E+03</pdfrwt>
<pdfrwt beam="2">  1       21 0.17356701E-01 0.17367959E+03</pdfrwt>
<totfact> 0.61758522E+03</totfact>
</mgrwt>
</event>
<event>
 4    1  0.1110581E+000  0.2494029E+03  0.7546771E-02  0.1113683E+00
         21   -1    0    0  501  502  0.00000000000E+00  0.00000000000E+00  0.28218852967E+03  0.28218852967E+03  0.00000000000E+00 0. -1.
         21   -1    0    0  502  503 -0.00000000000E+00 -0.00000000000E+00 -0.39140431750E+03  0.39140431750E+03  0.00000000000E+00 0.  1.
          6    1    1    2  501    0  0.17671716368E+03 -0.37267331203E+02  0.16799183946E+03  0.30070428669E+03  0.17200000000E+03 0. -1.
         -6    1    1    2    0  503 -0.17671716368E+03  0.37267331203E+02 -0.27720762728E+03  0.37288856048E+03  0.17200000000E+03 0.  1.
<mgrwt>
<rscale>  2 0.24940291E+03</rscale>
<asrwt>0</asrwt>
<pdfrwt beam="1">  1       21 0.70547133E-01 0.24940291E+03</pdfrwt>
<pdfrwt beam="2">  1       21 0.97851079E-01 0.24940291E+03</pdfrwt>
<totfact> 0.14998866E+03</totfact>
</mgrwt>
</event>
<event>
 4    1  0.1110581E+000  0.2453422E+03  0.7546771E-02  0.1116284E+00
         21   -1    0    0  501  502  0.00000000000E+00  0.00000000000E+00  0.33165044310E+03  0.33165044310E+03  0.00000000000E+00 0. -1.
         21   -1    0    0  502  503 -0.00000000000E+00 -0.00000000000E+00 -0.56891435006E+03  0.56891435006E+03  0.00000000000E+00 0. -1.
          6    1    1    2  501    0  0.89722069892E+02 -0.15019568396E+03  0.25294806702E+03  0.35238546780E+03  0.17200000000E+03 0. -1.
         -6    1    1    2    0  503 -0.89722069892E+02  0.15019568396E+03 -0.49021197398E+03  0.54817932535E+03  0.17200000000E+03 0. -1.
<mgrwt>
<rscale>  2 0.24534220E+03</rscale>
<asrwt>0</asrwt>
<pdfrwt beam="1">  1       21 0.82912612E-01 0.24534220E+03</pdfrwt>
<pdfrwt beam="2">  1       21 0.14222859E+00 0.24534220E+03</pdfrwt>
<totfact> 0.41236558E+02</totfact>
</mgrwt>
</event>
<event>
 4    1  0.1110581E+000  0.1749923E+03  0.7546771E-02  0.1172739E+00
         21   -1    0    0  501  502  0.00000000000E+00  0.00000000000E+00  0.60283790836E+03  0.60283790836E+03  0.00000000000E+00 0.  1.
         21   -1    0    0  502  503 -0.00000000000E+00 -0.00000000000E+00 -0.62148383513E+02  0.62148383513E+02  0.00000000000E+00 0.  1.
          6    1    1    2  501    0 -0.31640053402E+02  0.60996948213E+01  0.41244474238E+03  0.44803232559E+03  0.17200000000E+03 0.  1.
         -6    1    1    2    0  503  0.31640053402E+02 -0.60996948213E+01  0.12824478247E+03  0.21695396628E+03  0.17200000000E+03 0.  1.
<mgrwt>
<rscale>  2 0.17499228E+03</rscale>
<asrwt>0</asrwt>
<pdfrwt beam="1">  1       21 0.15070946E+00 0.17499228E+03</pdfrwt>
<pdfrwt beam="2">  1       21 0.15537098E-01 0.17499228E+03</pdfrwt>
<totfact> 0.11008770E+04</totfact>
</mgrwt>
</event>
<event>
 4    1  0.1110581E+000  0.2100881E+03  0.7546771E-02  0.1141496E+00
         21   -1    0    0  501  502  0.00000000000E+00  0.00000000000E+00  0.83619930254E+03  0.83619930254E+03  0.00000000000E+00 0. -1.
         21   -1    0    0  502  503 -0.00000000000E+00 -0.00000000000E+00 -0.83326447574E+02  0.83326447574E+02  0.00000000000E+00 0.  1.
          6    1    1    2  501    0 -0.61628312101E+02 -0.10370617506E+03  0.65479348969E+03  0.68767109415E+03  0.17200000000E+03 0. -1.
         -6    1    1    2    0  503  0.61628312101E+02  0.10370617506E+03  0.98079365280E+02  0.23185465596E+03  0.17200000000E+03 0.  1.
<mgrwt>
<rscale>  2 0.21008812E+03</rscale>
<asrwt>0</asrwt>
<pdfrwt beam="1">  1       21 0.20904980E+00 0.21008812E+03</pdfrwt>
<pdfrwt beam="2">  1       21 0.20831614E-01 0.21008812E+03</pdfrwt>
<totfact> 0.24725460E+03</totfact>
</mgrwt>
</event>
<event>
 4    1  0.1110581E+000  0.2199997E+03  0.7546771E-02  0.1133883E+00
         21   -1    0    0  503  502  0.00000000000E+00  0.00000000000E+00  0.10086323986E+03  0.10086323986E+03  0.00000000000E+00 0. -1.
         21   -1    0    0  501  503 -0.00000000000E+00 -0.00000000000E+00 -0.50424456157E+03  0.50424456157E+03  0.00000000000E+00 0. -1.
          6    1    1    2  501    0 -0.12808791237E+03 -0.49085113270E+02 -0.26822908607E+03  0.34691022506E+03  0.17200000000E+03 0. -1.
         -6    1    1    2    0  502  0.12808791237E+03  0.49085113270E+02 -0.13515223564E+03  0.25819757636E+03  0.17200000000E+03 0. -1.
<mgrwt>
<rscale>  2 0.21999969E+03</rscale>
<asrwt>0</asrwt>
<pdfrwt beam="1">  1       21 0.25215810E-01 0.21999969E+03</pdfrwt>
<pdfrwt beam="2">  1       21 0.12606114E+00 0.21999969E+03</pdfrwt>
<totfact> 0.68179252E+03</totfact>
</mgrwt>
</event>
<event>
 4    1  0.1110581E+000  0.1921319E+03  0.7546771E-02  0.1156552E+00
         21   -1    0    0  501  502  0.00000000000E+00  0.00000000000E+00  0.50118254580E+02  0.50118254580E+02  0.00000000000E+00 0.  1.
         21   -1    0    0  502  503 -0.00000000000E+00 -0.00000000000E+00 -0.74232785891E+03  0.74232785891E+03  0.00000000000E+00 0.  1.
          6    1    1    2  501    0  0.19194668375E+02 -0.83439905425E+02 -0.31115169343E+03  0.36569116675E+03  0.17200000000E+03 0.  1.
         -6    1    1    2    0  503 -0.19194668375E+02  0.83439905425E+02 -0.38105791090E+03  0.42675494675E+03  0.17200000000E+03 0.  1.
<mgrwt>
<rscale>  2 0.19213186E+03</rscale>
<asrwt>0</asrwt>
<pdfrwt beam="1">  1       21 0.12529564E-01 0.19213186E+03</pdfrwt>
<pdfrwt beam="2">  1       21 0.18558196E+00 0.19213186E+03</pdfrwt>
<totfact> 0.90665951E+03</totfact>
</mgrwt>
</event>
<event>
 4    1  0.1110581E+000  0.1829028E+03  0.7546771E-02  0.1165023E+00
         21   -1    0    0  501  502  0.00000000000E+00  0.00000000000E+00  0.31836323957E+03  0.31836323957E+03  0.00000000000E+00 0. -1.
         21   -1    0    0  502  503 -0.00000000000E+00 -0.00000000000E+00 -0.12649938704E+03  0.12649938704E+03  0.00000000000E+00 0. -1.
          6    1    1    2  501    0 -0.62172764373E+02  0.19929031240E+01  0.18746143328E+03  0.26190687899E+03  0.17200000000E+03 0. -1.
         -6    1    1    2    0  503  0.62172764373E+02 -0.19929031240E+01  0.44024192493E+01  0.18295574762E+03  0.17200000000E+03 0. -1.
<mgrwt>
<rscale>  2 0.18290277E+03</rscale>
<asrwt>0</asrwt>
<pdfrwt beam="1">  1       21 0.79590809E-01 0.18290277E+03</pdfrwt>
<pdfrwt beam="2">  1       21 0.31624847E-01 0.18290277E+03</pdfrwt>
<totfact> 0.13459875E+04</totfact>
</mgrwt>
</event>
<event>
 4    1  0.1110581E+000  0.1865515E+03  0.7546771E-02  0.1161609E+00
         21   -1    0    0  503  502  0.00000000000E+00  0.00000000000E+00  0.52194625620E+02  0.52194625620E+02  0.00000000000E+00 0. -1.
         21   -1    0    0  501  503 -0.00000000000E+00 -0.00000000000E+00 -0.68415931931E+03  0.68415931931E+03  0.00000000000E+00 0. -1.
          6    1    1    2  501    0 -0.28568947070E+01  0.72175585054E+02 -0.37469059046E+03  0.41856243919E+03  0.17200000000E+03 0. -1.
         -6    1    1    2    0  502  0.28568947070E+01 -0.72175585054E+02 -0.25727410323E+03  0.31779150574E+03  0.17200000000E+03 0. -1.
<mgrwt>
<rscale>  2 0.18655154E+03</rscale>
<asrwt>0</asrwt>
<pdfrwt beam="1">  1       21 0.13048656E-01 0.18655154E+03</pdfrwt>
<pdfrwt beam="2">  1       21 0.17103983E+00 0.18655154E+03</pdfrwt>
<totfact> 0.10645070E+04</totfact>
</mgrwt>
</event>
<event>
 4    1  0.1110581E+000  0.2359979E+03  0.7546771E-02  0.1122488E+00
         21   -1    0    0  503  502  0.00000000000E+00  0.00000000000E+00  0.16829106673E+03  0.16829106673E+03  0.00000000000E+00 0.  1.
         21   -1    0    0  501  503 -0.00000000000E+00 -0.00000000000E+00 -0.35550305209E+03  0.35550305209E+03  0.00000000000E+00 0.  1.
          6    1    1    2  501    0  0.44465265273E+02  0.15535071281E+03 -0.16244114688E+03  0.28649979055E+03  0.17200000000E+03 0.  1.
         -6    1    1    2    0  502 -0.44465265273E+02 -0.15535071281E+03 -0.24770838483E+02  0.23729432826E+03  0.17200000000E+03 0.  1.
<mgrwt>
<rscale>  2 0.23599789E+03</rscale>
<asrwt>0</asrwt>
<pdfrwt beam="1">  1       21 0.42072767E-01 0.23599789E+03</pdfrwt>
<pdfrwt beam="2">  1       21 0.88875763E-01 0.23599789E+03</pdfrwt>
<totfact> 0.57006295E+03</totfact>
</mgrwt>
</event>
<event>
 4    1  0.1110581E+000  0.1944265E+03  0.7546771E-02  0.1154528E+00
         21   -1    0    0  501  502  0.00000000000E+00  0.00000000000E+00  0.40900749557E+03  0.40900749557E+03  0.00000000000E+00 0.  1.
         21   -1    0    0  502  503 -0.00000000000E+00 -0.00000000000E+00 -0.92435400022E+02  0.92435400022E+02  0.00000000000E+00 0. -1.
          6    1    1    2  501    0  0.90424887437E+02 -0.64036086517E+01  0.15537261992E+03  0.24888213574E+03  0.17200000000E+03 0. -1.
         -6    1    1    2    0  503 -0.90424887437E+02  0.64036086517E+01  0.16119947563E+03  0.25256075985E+03  0.17200000000E+03 0.  1.
<mgrwt>
<rscale>  2 0.19442651E+03</rscale>
<asrwt>0</asrwt>
<pdfrwt beam="1">  1       21 0.10225187E+00 0.19442651E+03</pdfrwt>
<pdfrwt beam="2">  1       21 0.23108851E-01 0.19442651E+03</pdfrwt>
<totfact> 0.13679021E+04</totfact>
</mgrwt>
</event>
<event>
 4    1  0.1110581E+000  0.1861766E+03  0.7546771E-02  0.1161956E+00
         21   -1    0    0  501  502  0.00000000000E+00  0.00000000000E+00  0.35618448936E+02  0.35618448936E+02  0.00000000000E+00 0. -1.
         21   -1    0    0  502  503 -0.00000000000E+00 -0.00000000000E+00 -0.13078333843E+04  0.13078333843E+04  0.00000000000E+00 0. -1.
          6    1    1    2  501    0  0.44978473804E+02  0.55269090305E+02 -0.29629485486E+03  0.34993195977E+03  0.17200000000E+03 0. -1.
         -6    1    1    2    0  503 -0.44978473804E+02 -0.55269090305E+02 -0.97592008045E+03  0.99351987342E+03  0.17200000000E+03 0. -1.
<mgrwt>
<rscale>  2 0.18617662E+03</rscale>
<asrwt>0</asrwt>
<pdfrwt beam="1">  1       21 0.89046133E-02 0.18617662E+03</pdfrwt>
<pdfrwt beam="2">  1       21 0.32695831E+00 0.18617662E+03</pdfrwt>
<totfact> 0.23944931E+03</totfact>
</mgrwt>
</event>
<event>
 4    1  0.1110581E+000  0.3154497E+03  0.7546771E-02  0.1077763E+00
         21   -1    0    0  501  502  0.00000000000E+00  0.00000000000E+00  0.20248978460E+03  0.20248978460E+03  0.00000000000E+00 0. -1.
         21   -1    0    0  502  503 -0.00000000000E+00 -0.00000000000E+00 -0.49854625032E+03  0.49854625032E+03  0.00000000000E+00 0.  1.
          6    1    1    2  501    0  0.22567716956E+03  0.13781986057E+03 -0.10613515140E+03  0.33282603442E+03  0.17200000000E+03 0. -1.
         -6    1    1    2    0  503 -0.22567716956E+03 -0.13781986057E+03 -0.18992131432E+03  0.36821000049E+03  0.17200000000E+03 0.  1.
<mgrwt>
<rscale>  2 0.31544968E+03</rscale>
<asrwt>0</asrwt>
<pdfrwt beam="1">  1       21 0.50622447E-01 0.31544968E+03</pdfrwt>
<pdfrwt beam="2">  1       21 0.12463656E+00 0.31544968E+03</pdfrwt>
<totfact> 0.16279094E+03</totfact>
</mgrwt>
</event>
<event>
 4    1  0.1110581E+000  0.1858364E+03  0.7546771E-02  0.1162271E+00
         21   -1    0    0  501  502  0.00000000000E+00  0.00000000000E+00  0.96230574360E+02  0.96230574360E+02  0.00000000000E+00 0. -1.
         21   -1    0    0  502  503 -0.00000000000E+00 -0.00000000000E+00 -0.54150838540E+03  0.54150838540E+03  0.00000000000E+00 0. -1.
          6    1    1    2  501    0  0.70158796107E+02 -0.53777286760E+01 -0.37458452924E+02  0.18957402863E+03  0.17200000000E+03 0. -1.
         -6    1    1    2    0  503 -0.70158796107E+02  0.53777286760E+01 -0.40781935812E+03  0.44816493113E+03  0.17200000000E+03 0. -1.
<mgrwt>
<rscale>  2 0.18583642E+03</rscale>
<asrwt>0</asrwt>
<pdfrwt beam="1">  1       21 0.24057644E-01 0.18583642E+03</pdfrwt>
<pdfrwt beam="2">  1       21 0.13537709E+00 0.18583642E+03</pdfrwt>
<totfact> 0.63915751E+03</totfact>
</mgrwt>
</event>
<event>
 4    1  0.1110581E+000  0.2099938E+03  0.7546771E-02  0.1141571E+00
         21   -1    0    0  503  502  0.00000000000E+00  0.00000000000E+00  0.13126424162E+03  0.13126424162E+03  0.00000000000E+00 0.  1.
         21   -1    0    0  501  503 -0.00000000000E+00 -0.00000000000E+00 -0.71688426707E+03  0.71688426707E+03  0.00000000000E+00 0. -1.
          6    1    1    2  501    0 -0.10773641088E+03  0.53909941992E+02 -0.60194339311E+03  0.63752118756E+03  0.17200000000E+03 0. -1.
         -6    1    1    2    0  502  0.10773641088E+03 -0.53909941992E+02  0.16323367669E+02  0.21062732113E+03  0.17200000000E+03 0.  1.
<mgrwt>
<rscale>  2 0.20999385E+03</rscale>
<asrwt>0</asrwt>
<pdfrwt beam="1">  1       21 0.32816061E-01 0.20999385E+03</pdfrwt>
<pdfrwt beam="2">  1       21 0.17922107E+00 0.20999385E+03</pdfrwt>
<totfact> 0.16180476E+03</totfact>
</mgrwt>
</event>
<event>
 4    1  0.1110581E+000  0.1741508E+03  0.7546771E-02  0.1173587E+00
         21   -1    0    0  503  502  0.00000000000E+00  0.00000000000E+00  0.69495606900E+03  0.69495606900E+03  0.00000000000E+00 0.  1.
         21   -1    0    0  501  503 -0.00000000000E+00 -0.00000000000E+00 -0.38730217910E+03  0.38730217910E+03  0.00000000000E+00 0.  1.
          6    1    1    2  501    0  0.26531552873E+01  0.27156433729E+02 -0.35590427847E+03  0.39622767011E+03  0.17200000000E+03 0.  1.
         -6    1    1    2    0  502 -0.26531552873E+01 -0.27156433729E+02  0.66355816837E+03  0.68603057799E+03  0.17200000000E+03 0.  1.
<mgrwt>
<rscale>  2 0.17415083E+03</rscale>
<asrwt>0</asrwt>
<pdfrwt beam="1">  1       21 0.17373902E+00 0.17415083E+03</pdfrwt>
<pdfrwt beam="2">  1       21 0.96825546E-01 0.17415083E+03</pdfrwt>
<totfact> 0.18263327E+02</totfact>
</mgrwt>
</event>
<event>
 4    1  0.1110581E+000  0.1781447E+03  0.7546771E-02  0.1169611E+00
         21   -1    0    0  503  502  0.00000000000E+00  0.00000000000E+00  0.21449571260E+03  0.21449571260E+03  0.00000000000E+00 0. -1.
         21   -1    0    0  501  503 -0.00000000000E+00 -0.00000000000E+00 -0.57312232613E+03  0.57312232613E+03  0.00000000000E+00 0.  1.
          6    1    1    2  501    0 -0.36981198973E+02  0.27998955746E+02 -0.51850274692E+03  0.54825235901E+03  0.17200000000E+03 0.  1.
         -6    1    1    2    0  502  0.36981198973E+02 -0.27998955746E+02  0.15987613339E+03  0.23936567972E+03  0.17200000000E+03 0. -1.
<mgrwt>
<rscale>  2 0.17814475E+03</rscale>
<asrwt>0</asrwt>
<pdfrwt beam="1">  1       21 0.53623929E-01 0.17814475E+03</pdfrwt>
<pdfrwt beam="2">  1       21 0.14328058E+00 0.17814475E+03</pdfrwt>
<totfact> 0.11260255E+03</totfact>
</mgrwt>
</event>
<event>
 4    1  0.1110581E+000  0.2500005E+03  0.7546771E-02  0.1113305E+00
         21   -1    0    0  503  502  0.00000000000E+00  0.00000000000E+00  0.57718581860E+03  0.57718581860E+03  0.00000000000E+00 0. -1.
         21   -1    0    0  501  503 -0.00000000000E+00 -0.00000000000E+00 -0.11138903410E+03  0.11138903410E+03  0.00000000000E+00 0.  1.
          6    1    1    2  501    0  0.18127401413E+03 -0.74809548206E+01  0.29037665060E+03  0.38316945612E+03  0.17200000000E+03 0. -1.
         -6    1    1    2    0  502 -0.18127401413E+03  0.74809548206E+01  0.17542013390E+03  0.30540539658E+03  0.17200000000E+03 0.  1.
<mgrwt>
<rscale>  2 0.25000047E+03</rscale>
<asrwt>0</asrwt>
<pdfrwt beam="1">  1       21 0.14429645E+00 0.25000047E+03</pdfrwt>
<pdfrwt beam="2">  1       21 0.27847260E-01 0.25000047E+03</pdfrwt>
<totfact> 0.38960128E+03</totfact>
</mgrwt>
</event>
<event>
 4    1  0.1110581E+000  0.1958561E+03  0.7546771E-02  0.1153283E+00
         21   -1    0    0  501  502  0.00000000000E+00  0.00000000000E+00  0.10322589528E+04  0.10322589528E+04  0.00000000000E+00 0. -1.
         21   -1    0    0  502  503 -0.00000000000E+00 -0.00000000000E+00 -0.37213979477E+02  0.37213979477E+02  0.00000000000E+00 0.  1.
          6    1    1    2  501    0 -0.25590098394E+02  0.90115194880E+02  0.47731425849E+03  0.51593459163E+03  0.17200000000E+03 0.  1.
         -6    1    1    2    0  503  0.25590098394E+02 -0.90115194880E+02  0.51773071486E+03  0.55353834067E+03  0.17200000000E+03 0.  1.
<mgrwt>
<rscale>  2 0.19585607E+03</rscale>
<asrwt>0</asrwt>
<pdfrwt beam="1">  1       21 0.25806464E+00 0.19585607E+03</pdfrwt>
<pdfrwt beam="2">  1       21 0.93034983E-02 0.19585607E+03</pdfrwt>
<totfact> 0.54776706E+03</totfact>
</mgrwt>
</event>
<event>
 4    1  0.1110581E+000  0.2160888E+03  0.7546771E-02  0.1136833E+00
         21   -1    0    0  501  502  0.00000000000E+00  0.00000000000E+00  0.92471016923E+03  0.92471016923E+03  0.00000000000E+00 0. -1.
         21   -1    0    0  502  503 -0.00000000000E+00 -0.00000000000E+00 -0.61408673023E+02  0.61408673023E+02  0.00000000000E+00 0. -1.
          6    1    1    2  501    0  0.11943009340E+03  0.53355455555E+02  0.63949879566E+03  0.67502078598E+03  0.17200000000E+03 0. -1.
         -6    1    1    2    0  503 -0.11943009340E+03 -0.53355455555E+02  0.22380270055E+03  0.31109805628E+03  0.17200000000E+03 0. -1.
<mgrwt>
<rscale>  2 0.21608876E+03</rscale>
<asrwt>0</asrwt>
<pdfrwt beam="1">  1       21 0.23117750E+00 0.21608876E+03</pdfrwt>
<pdfrwt beam="2">  1       21 0.15352171E-01 0.21608876E+03</pdfrwt>
<totfact> 0.31598088E+03</totfact>
</mgrwt>
</event>
<event>
 4    1  0.1110581E+000  0.2090192E+03  0.7546771E-02  0.1142345E+00
         21   -1    0    0  501  502  0.00000000000E+00  0.00000000000E+00  0.46418177245E+03  0.46418177245E+03  0.00000000000E+00 0.  1.
         21   -1    0    0  502  503 -0.00000000000E+00 -0.00000000000E+00 -0.11649724347E+03  0.11649724347E+03  0.00000000000E+00 0.  1.
          6    1    1    2  501    0 -0.10229379724E+03  0.60340814382E+02  0.30108894274E+03  0.36652910699E+03  0.17200000000E+03 0.  1.
         -6    1    1    2    0  503  0.10229379724E+03 -0.60340814382E+02  0.46595586241E+02  0.21414990892E+03  0.17200000000E+03 0.  1.
<mgrwt>
<rscale>  2 0.20901922E+03</rscale>
<asrwt>0</asrwt>
<pdfrwt beam="1">  1       21 0.11604544E+00 0.20901922E+03</pdfrwt>
<pdfrwt beam="2">  1       21 0.29124312E-01 0.20901922E+03</pdfrwt>
<totfact> 0.63930689E+03</totfact>
</mgrwt>
</event>
<event>
 4    1  0.1110581E+000  0.1842057E+03  0.7546771E-02  0.1163794E+00
         21   -1    0    0  501  502  0.00000000000E+00  0.00000000000E+00  0.65910518265E+02  0.65910518265E+02  0.00000000000E+00 0.  1.
         21   -1    0    0  502  503 -0.00000000000E+00 -0.00000000000E+00 -0.82474856333E+03  0.82474856333E+03  0.00000000000E+00 0.  1.
          6    1    1    2  501    0 -0.47302229386E+02 -0.45937337760E+02 -0.10642392317E+03  0.21273878661E+03  0.17200000000E+03 0.  1.
         -6    1    1    2    0  503  0.47302229386E+02  0.45937337760E+02 -0.65241412189E+03  0.67792029498E+03  0.17200000000E+03 0.  1.
<mgrwt>
<rscale>  2 0.18420570E+03</rscale>
<asrwt>0</asrwt>
<pdfrwt beam="1">  1       21 0.16477630E-01 0.18420570E+03</pdfrwt>
<pdfrwt beam="2">  1       21 0.20618714E+00 0.18420570E+03</pdfrwt>
<totfact> 0.40850574E+03</totfact>
</mgrwt>
</event>
<event>
 4    1  0.1110581E+000  0.2008573E+03  0.7546771E-02  0.1149018E+00
         21   -1    0    0  503  502  0.00000000000E+00  0.00000000000E+00  0.87952695184E+03  0.87952695184E+03  0.00000000000E+00 0. -1.
         21   -1    0    0  501  503 -0.00000000000E+00 -0.00000000000E+00 -0.38258111454E+03  0.38258111454E+03  0.00000000000E+00 0. -1.
          6    1    1    2  501    0  0.10094471479E+03 -0.23870566198E+02 -0.34354343124E+03  0.39795191735E+03  0.17200000000E+03 0. -1.
         -6    1    1    2    0  502 -0.10094471479E+03  0.23870566198E+02  0.84048926854E+03  0.86415614903E+03  0.17200000000E+03 0. -1.
<mgrwt>
<rscale>  2 0.20085726E+03</rscale>
<asrwt>0</asrwt>
<pdfrwt beam="1">  1       21 0.21988173E+00 0.20085726E+03</pdfrwt>
<pdfrwt beam="2">  1       21 0.95645280E-01 0.20085726E+03</pdfrwt>
<totfact> 0.90776368E+01</totfact>
</mgrwt>
</event>
<event>
 4    1  0.1110581E+000  0.1836733E+03  0.7546771E-02  0.1164295E+00
         21   -1    0    0  503  502  0.00000000000E+00  0.00000000000E+00  0.15944897646E+03  0.15944897646E+03  0.00000000000E+00 0. -1.
         21   -1    0    0  501  503 -0.00000000000E+00 -0.00000000000E+00 -0.25081063015E+03  0.25081063015E+03  0.00000000000E+00 0. -1.
          6    1    1    2  501    0  0.44125536470E+01  0.64283854330E+02 -0.12681053006E+03  0.22319676318E+03  0.17200000000E+03 0.  1.
         -6    1    1    2    0  502 -0.44125536470E+01 -0.64283854330E+02  0.35448876378E+02  0.18706284343E+03  0.17200000000E+03 0.  1.
<mgrwt>
<rscale>  2 0.18367331E+03</rscale>
<asrwt>0</asrwt>
<pdfrwt beam="1">  1       21 0.39862244E-01 0.18367331E+03</pdfrwt>
<pdfrwt beam="2">  1       21 0.62702657E-01 0.18367331E+03</pdfrwt>
<totfact> 0.14375872E+04</totfact>
</mgrwt>
</event>
<event>
 4    1  0.1110581E+000  0.1725024E+03  0.7546771E-02  0.1175263E+00
         21   -1    0    0  501  502  0.00000000000E+00  0.00000000000E+00  0.11810457195E+03  0.11810457195E+03  0.00000000000E+00 0. -1.
         21   -1    0    0  502  503 -0.00000000000E+00 -0.00000000000E+00 -0.27938963583E+03  0.27938963583E+03  0.00000000000E+00 0. -1.
          6    1    1    2  501    0  0.11166868224E+01 -0.13109009030E+02 -0.18363546173E+02  0.17347712511E+03  0.17200000000E+03 0. -1.
         -6    1    1    2    0  503 -0.11166868224E+01  0.13109009030E+02 -0.14292151771E+03  0.22401708268E+03  0.17200000000E+03 0. -1.
<mgrwt>
<rscale>  2 0.17250244E+03</rscale>
<asrwt>0</asrwt>
<pdfrwt beam="1">  1       21 0.29526143E-01 0.17250244E+03</pdfrwt>
<pdfrwt beam="2">  1       21 0.69847408E-01 0.17250244E+03</pdfrwt>
<totfact> 0.20716631E+04</totfact>
</mgrwt>
</event>
<event>
 4    1  0.1110581E+000  0.2053806E+03  0.7546771E-02  0.1145277E+00
         21   -1    0    0  503  502  0.00000000000E+00  0.00000000000E+00  0.48252840952E+03  0.48252840952E+03  0.00000000000E+00 0. -1.
         21   -1    0    0  501  503 -0.00000000000E+00 -0.00000000000E+00 -0.15221230592E+03  0.15221230592E+03  0.00000000000E+00 0.  1.
          6    1    1    2  501    0  0.14595607308E+02  0.11128419079E+03 -0.41910017270E+02  0.20961310173E+03  0.17200000000E+03 0. -1.
         -6    1    1    2    0  502 -0.14595607308E+02 -0.11128419079E+03  0.37222612088E+03  0.42512761370E+03  0.17200000000E+03 0.  1.
<mgrwt>
<rscale>  2 0.20538063E+03</rscale>
<asrwt>0</asrwt>
<pdfrwt beam="1">  1       21 0.12063210E+00 0.20538063E+03</pdfrwt>
<pdfrwt beam="2">  1       21 0.38053078E-01 0.20538063E+03</pdfrwt>
<totfact> 0.34342747E+03</totfact>
</mgrwt>
</event>
<event>
 4    1  0.1110581E+000  0.1756637E+03  0.7546771E-02  0.1172067E+00
         21   -1    0    0  501  502  0.00000000000E+00  0.00000000000E+00  0.64995674085E+02  0.64995674085E+02  0.00000000000E+00 0. -1.
         21   -1    0    0  502  503 -0.00000000000E+00 -0.00000000000E+00 -0.47713761953E+03  0.47713761953E+03  0.00000000000E+00 0. -1.
          6    1    1    2  501    0  0.12118846057E+02  0.33568766591E+02 -0.18695978911E+03  0.25653789440E+03  0.17200000000E+03 0.  1.
         -6    1    1    2    0  503 -0.12118846057E+02 -0.33568766591E+02 -0.22518215634E+03  0.28559539922E+03  0.17200000000E+03 0.  1.
<mgrwt>
<rscale>  2 0.17566368E+03</rscale>
<asrwt>0</asrwt>
<pdfrwt beam="1">  1       21 0.16248919E-01 0.17566368E+03</pdfrwt>
<pdfrwt beam="2">  1       21 0.11928440E+00 0.17566368E+03</pdfrwt>
<totfact> 0.18371023E+04</totfact>
</mgrwt>
</event>
<event>
 4    1  0.1110581E+000  0.1811817E+03  0.7546771E-02  0.1166664E+00
         21   -1    0    0  501  502  0.00000000000E+00  0.00000000000E+00  0.65929807777E+03  0.65929807777E+03  0.00000000000E+00 0.  1.
         21   -1    0    0  502  503 -0.00000000000E+00 -0.00000000000E+00 -0.74493558184E+02  0.74493558184E+02  0.00000000000E+00 0.  1.
          6    1    1    2  501    0  0.31020110944E+02 -0.47755370518E+02  0.50368217117E+03  0.53527801398E+03  0.17200000000E+03 0.  1.
         -6    1    1    2    0  503 -0.31020110944E+02  0.47755370518E+02  0.81122348415E+02  0.19851362197E+03  0.17200000000E+03 0.  1.
<mgrwt>
<rscale>  2 0.18118174E+03</rscale>
<asrwt>0</asrwt>
<pdfrwt beam="1">  1       21 0.16482450E+00 0.18118174E+03</pdfrwt>
<pdfrwt beam="2">  1       21 0.18623392E-01 0.18118174E+03</pdfrwt>
<totfact> 0.61817083E+03</totfact>
</mgrwt>
</event>
<event>
 4    1  0.1110581E+000  0.2563630E+03  0.7546771E-02  0.1109348E+00
         21   -1    0    0  503  502  0.00000000000E+00  0.00000000000E+00  0.47533003552E+03  0.47533003552E+03  0.00000000000E+00 0.  1.
         21   -1    0    0  501  503 -0.00000000000E+00 -0.00000000000E+00 -0.31950816551E+03  0.31950816551E+03  0.00000000000E+00 0.  1.
          6    1    1    2  501    0 -0.10175993666E+03  0.16057058595E+03 -0.22141016906E+03  0.33873951754E+03  0.17200000000E+03 0.  1.
         -6    1    1    2    0  502  0.10175993666E+03 -0.16057058595E+03  0.37723203907E+03  0.45609868349E+03  0.17200000000E+03 0.  1.
<mgrwt>
<rscale>  2 0.25636302E+03</rscale>
<asrwt>0</asrwt>
<pdfrwt beam="1">  1       21 0.11883251E+00 0.25636302E+03</pdfrwt>
<pdfrwt beam="2">  1       21 0.79877042E-01 0.25636302E+03</pdfrwt>
<totfact> 0.70355105E+02</totfact>
</mgrwt>
</event>
<event>
 4    1  0.1110581E+000  0.1896941E+03  0.7546771E-02  0.1158738E+00
         21   -1    0    0  501  502  0.00000000000E+00  0.00000000000E+00  0.31549918956E+03  0.31549918956E+03  0.00000000000E+00 0.  1.
         21   -1    0    0  502  503 -0.00000000000E+00 -0.00000000000E+00 -0.63371278096E+03  0.63371278096E+03  0.00000000000E+00 0.  1.
          6    1    1    2  501    0  0.49764781022E+02  0.62636455720E+02  0.27067322860E+03  0.33052663386E+03  0.17200000000E+03 0.  1.
         -6    1    1    2    0  503 -0.49764781022E+02 -0.62636455720E+02 -0.58888682000E+03  0.61868533665E+03  0.17200000000E+03 0.  1.
<mgrwt>
<rscale>  2 0.18969412E+03</rscale>
<asrwt>0</asrwt>
<pdfrwt beam="1">  1       21 0.78874798E-01 0.18969412E+03</pdfrwt>
<pdfrwt beam="2">  1       21 0.15842819E+00 0.18969412E+03</pdfrwt>
<totfact> 0.36837292E+02</totfact>
</mgrwt>
</event>
<event>
 4    1  0.1110581E+000  0.1970721E+03  0.7546771E-02  0.1152233E+00
         21   -1    0    0  503  502  0.00000000000E+00  0.00000000000E+00  0.50907993412E+03  0.50907993412E+03  0.00000000000E+00 0.  1.
         21   -1    0    0  501  503 -0.00000000000E+00 -0.00000000000E+00 -0.90050694237E+02  0.90050694237E+02  0.00000000000E+00 0.  1.
          6    1    1    2  501    0 -0.73029864991E+02 -0.62610199847E+02  0.92408990980E+02  0.21766216924E+03  0.17200000000E+03 0.  1.
         -6    1    1    2    0  502  0.73029864991E+02  0.62610199847E+02  0.32662024890E+03  0.38146845912E+03  0.17200000000E+03 0.  1.
<mgrwt>
<rscale>  2 0.19707206E+03</rscale>
<asrwt>0</asrwt>
<pdfrwt beam="1">  1       21 0.12726998E+00 0.19707206E+03</pdfrwt>
<pdfrwt beam="2">  1       21 0.22512675E-01 0.19707206E+03</pdfrwt>
<totfact> 0.83994844E+03</totfact>
</mgrwt>
</event>
<event>
 4    1  0.1110581E+000  0.2592141E+03  0.7546771E-02  0.1107616E+00
         21   -1    0    0  503  502  0.00000000000E+00  0.00000000000E+00  0.11786983501E+04  0.11786983501E+04  0.00000000000E+00 0.  1.
         21   -1    0    0  501  503 -0.00000000000E+00 -0.00000000000E+00 -0.89869579048E+02  0.89869579048E+02  0.00000000000E+00 0. -1.
          6    1    1    2  501    0  0.16078729338E+03 -0.10842233686E+03  0.16084850131E+03  0.30506425096E+03  0.17200000000E+03 0. -1.
         -6    1    1    2    0  502 -0.16078729338E+03  0.10842233686E+03  0.92798026975E+03  0.96350367819E+03  0.17200000000E+03 0.  1.
<mgrwt>
<rscale>  2 0.25921411E+03</rscale>
<asrwt>0</asrwt>
<pdfrwt beam="1">  1       21 0.29467454E+00 0.25921411E+03</pdfrwt>
<pdfrwt beam="2">  1       21 0.22467398E-01 0.25921411E+03</pdfrwt>
<totfact> 0.62736495E+02</totfact>
</mgrwt>
</event>
<event>
 4    1  0.1110581E+000  0.1802470E+03  0.7546771E-02  0.1167564E+00
         21   -1    0    0  503  502  0.00000000000E+00  0.00000000000E+00  0.78611054593E+02  0.78611054593E+02  0.00000000000E+00 0.  1.
         21   -1    0    0  501  503 -0.00000000000E+00 -0.00000000000E+00 -0.46628858322E+03  0.46628858322E+03  0.00000000000E+00 0.  1.
          6    1    1    2  501    0 -0.49867209449E+02 -0.20451049867E+02 -0.28569329402E+03  0.33780118749E+03  0.17200000000E+03 0.  1.
         -6    1    1    2    0  502  0.49867209449E+02  0.20451049867E+02 -0.10198423460E+03  0.20709845032E+03  0.17200000000E+03 0.  1.
<mgrwt>
<rscale>  2 0.18024701E+03</rscale>
<asrwt>0</asrwt>
<pdfrwt beam="1">  1       21 0.19652763E-01 0.18024701E+03</pdfrwt>
<pdfrwt beam="2">  1       21 0.11657215E+00 0.18024701E+03</pdfrwt>
<totfact> 0.13641864E+04</totfact>
</mgrwt>
</event>
<event>
 4    1  0.1110581E+000  0.2577039E+03  0.7546771E-02  0.1108531E+00
         21   -1    0    0  503  502  0.00000000000E+00  0.00000000000E+00  0.54301004039E+03  0.54301004039E+03  0.00000000000E+00 0.  1.
         21   -1    0    0  501  503 -0.00000000000E+00 -0.00000000000E+00 -0.16185243938E+03  0.16185243938E+03  0.00000000000E+00 0.  1.
          6    1    1    2  501    0 -0.19171331928E+03 -0.85629299086E+01  0.16362273620E+02  0.25822285832E+03  0.17200000000E+03 0.  1.
         -6    1    1    2    0  502  0.19171331928E+03  0.85629299086E+01  0.36479532739E+03  0.44663962144E+03  0.17200000000E+03 0.  1.
<mgrwt>
<rscale>  2 0.25770394E+03</rscale>
<asrwt>0</asrwt>
<pdfrwt beam="1">  1       21 0.13575251E+00 0.25770394E+03</pdfrwt>
<pdfrwt beam="2">  1       21 0.40463111E-01 0.25770394E+03</pdfrwt>
<totfact> 0.21611689E+03</totfact>
</mgrwt>
</event>
<event>
 4    1  0.1110581E+000  0.1815073E+03  0.7546771E-02  0.1166352E+00
         21   -1    0    0  503  502  0.00000000000E+00  0.00000000000E+00  0.17885479795E+03  0.17885479795E+03  0.00000000000E+00 0. -1.
         21   -1    0    0  501  503 -0.00000000000E+00 -0.00000000000E+00 -0.26049289684E+03  0.26049289684E+03  0.00000000000E+00 0. -1.
          6    1    1    2  501    0  0.57964039097E+02  0.10268252013E+01 -0.15970353014E+03  0.24176455848E+03  0.17200000000E+03 0. -1.
         -6    1    1    2    0  502 -0.57964039097E+02 -0.10268252013E+01  0.78065431249E+02  0.19758313631E+03  0.17200000000E+03 0. -1.
<mgrwt>
<rscale>  2 0.18150726E+03</rscale>
<asrwt>0</asrwt>
<pdfrwt beam="1">  1       21 0.44713700E-01 0.18150726E+03</pdfrwt>
<pdfrwt beam="2">  1       21 0.65123224E-01 0.18150726E+03</pdfrwt>
<totfact> 0.10500947E+04</totfact>
</mgrwt>
</event>
<event>
 4    1  0.1110581E+000  0.2305119E+03  0.7546771E-02  0.1126280E+00
         21   -1    0    0  501  502  0.00000000000E+00  0.00000000000E+00  0.39456030413E+03  0.39456030413E+03  0.00000000000E+00 0. -1.
         21   -1    0    0  502  503 -0.00000000000E+00 -0.00000000000E+00 -0.14776210629E+03  0.14776210629E+03  0.00000000000E+00 0.  1.
          6    1    1    2  501    0  0.14851618294E+03  0.38661289347E+02  0.20411098711E+03  0.30789129080E+03  0.17200000000E+03 0. -1.
         -6    1    1    2    0  503 -0.14851618294E+03 -0.38661289347E+02  0.42687210734E+02  0.23443111962E+03  0.17200000000E+03 0. -1.
<mgrwt>
<rscale>  2 0.23051193E+03</rscale>
<asrwt>0</asrwt>
<pdfrwt beam="1">  1       21 0.98640074E-01 0.23051193E+03</pdfrwt>
<pdfrwt beam="2">  1       21 0.36940527E-01 0.23051193E+03</pdfrwt>
<totfact> 0.58301004E+03</totfact>
</mgrwt>
</event>
<event>
 4    1  0.1110581E+000  0.1845935E+03  0.7546771E-02  0.1163430E+00
         21   -1    0    0  501  502  0.00000000000E+00  0.00000000000E+00  0.44900614328E+03  0.44900614328E+03  0.00000000000E+00 0. -1.
         21   -1    0    0  502  503 -0.00000000000E+00 -0.00000000000E+00 -0.99785927471E+02  0.99785927471E+02  0.00000000000E+00 0. -1.
          6    1    1    2  501    0  0.12110796888E+02 -0.65909805464E+02  0.30889008172E+03  0.35984421135E+03  0.17200000000E+03 0. -1.
         -6    1    1    2    0  503 -0.12110796888E+02  0.65909805464E+02  0.40330134094E+02  0.18894785940E+03  0.17200000000E+03 0. -1.
<mgrwt>
<rscale>  2 0.18459354E+03</rscale>
<asrwt>0</asrwt>
<pdfrwt beam="1">  1       21 0.11225153E+00 0.18459354E+03</pdfrwt>
<pdfrwt beam="2">  1       21 0.24946483E-01 0.18459354E+03</pdfrwt>
<totfact> 0.95121473E+03</totfact>
</mgrwt>
</event>
<event>
 4    1  0.1110581E+000  0.1751490E+03  0.7546771E-02  0.1172582E+00
         21   -1    0    0  501  502  0.00000000000E+00  0.00000000000E+00  0.27945860039E+03  0.27945860039E+03  0.00000000000E+00 0. -1.
         21   -1    0    0  502  503 -0.00000000000E+00 -0.00000000000E+00 -0.14179858137E+03  0.14179858137E+03  0.00000000000E+00 0. -1.
          6    1    1    2  501    0 -0.23272231927E+02 -0.23485401379E+02 -0.31268175896E+02  0.17791812634E+03  0.17200000000E+03 0. -1.
         -6    1    1    2    0  503  0.23272231927E+02  0.23485401379E+02  0.16892819491E+03  0.24333905542E+03  0.17200000000E+03 0. -1.
<mgrwt>
<rscale>  2 0.17514897E+03</rscale>
<asrwt>0</asrwt>
<pdfrwt beam="1">  1       21 0.69864649E-01 0.17514897E+03</pdfrwt>
<pdfrwt beam="2">  1       21 0.35449646E-01 0.17514897E+03</pdfrwt>
<totfact> 0.14440931E+04</totfact>
</mgrwt>
</event>
<event>
 4    1  0.1110581E+000  0.1867128E+03  0.7546771E-02  0.1161460E+00
         21   -1    0    0  503  502  0.00000000000E+00  0.00000000000E+00  0.33929323798E+03  0.33929323798E+03  0.00000000000E+00 0.  1.
         21   -1    0    0  501  503 -0.00000000000E+00 -0.00000000000E+00 -0.11957226405E+03  0.11957226405E+03  0.00000000000E+00 0.  1.
          6    1    1    2  501    0  0.18479710185E+02  0.70257945680E+02  0.23798949768E+02  0.18822345398E+03  0.17200000000E+03 0.  1.
         -6    1    1    2    0  502 -0.18479710185E+02 -0.70257945680E+02  0.19592202416E+03  0.27064204805E+03  0.17200000000E+03 0.  1.
<mgrwt>
<rscale>  2 0.18671282E+03</rscale>
<asrwt>0</asrwt>
<pdfrwt beam="1">  1       21 0.84823307E-01 0.18671282E+03</pdfrwt>
<pdfrwt beam="2">  1       21 0.29893067E-01 0.18671282E+03</pdfrwt>
<totfact> 0.12970127E+04</totfact>
</mgrwt>
</event>
<event>
 4    1  0.1110581E+000  0.2656049E+03  0.7546771E-02  0.1103822E+00
         21   -1    0    0  503  502  0.00000000000E+00  0.00000000000E+00  0.31546883413E+03  0.31546883413E+03  0.00000000000E+00 0.  1.
         21   -1    0    0  501  503 -0.00000000000E+00 -0.00000000000E+00 -0.24806631412E+03  0.24806631412E+03  0.00000000000E+00 0.  1.
          6    1    1    2  501    0  0.69591172216E+02  0.19005004534E+03  0.12214986616E+03  0.29234661070E+03  0.17200000000E+03 0.  1.
         -6    1    1    2    0  502 -0.69591172216E+02 -0.19005004534E+03 -0.54747346156E+02  0.27118853755E+03  0.17200000000E+03 0.  1.
<mgrwt>
<rscale>  2 0.26560488E+03</rscale>
<asrwt>0</asrwt>
<pdfrwt beam="1">  1       21 0.78867208E-01 0.26560488E+03</pdfrwt>
<pdfrwt beam="2">  1       21 0.62016579E-01 0.26560488E+03</pdfrwt>
<totfact> 0.32502786E+03</totfact>
</mgrwt>
</event>
<event>
 4    1  0.1110581E+000  0.2002246E+03  0.7546771E-02  0.1149550E+00
         21   -1    0    0  503  502  0.00000000000E+00  0.00000000000E+00  0.18388281628E+03  0.18388281628E+03  0.00000000000E+00 0. -1.
         21   -1    0    0  501  503 -0.00000000000E+00 -0.00000000000E+00 -0.37293604197E+03  0.37293604197E+03  0.00000000000E+00 0. -1.
          6    1    1    2  501    0 -0.53858939288E+02 -0.87207140819E+02 -0.27396565645E+03  0.33933324574E+03  0.17200000000E+03 0. -1.
         -6    1    1    2    0  502  0.53858939288E+02  0.87207140819E+02  0.84912430766E+02  0.21748561251E+03  0.17200000000E+03 0. -1.
<mgrwt>
<rscale>  2 0.20022455E+03</rscale>
<asrwt>0</asrwt>
<pdfrwt beam="1">  1       21 0.45970704E-01 0.20022455E+03</pdfrwt>
<pdfrwt beam="2">  1       21 0.93234010E-01 0.20022455E+03</pdfrwt>
<totfact> 0.43627126E+03</totfact>
</mgrwt>
</event>
<event>
 4    1  0.1110581E+000  0.1944478E+03  0.7546771E-02  0.1154510E+00
         21   -1    0    0  501  502  0.00000000000E+00  0.00000000000E+00  0.24859017016E+03  0.24859017016E+03  0.00000000000E+00 0.  1.
         21   -1    0    0  502  503 -0.00000000000E+00 -0.00000000000E+00 -0.21912988726E+03  0.21912988726E+03  0.00000000000E+00 0.  1.
          6    1    1    2  501    0 -0.74104779254E+02  0.52291596962E+02  0.14407456704E+03  0.24200704595E+03  0.17200000000E+03 0.  1.
         -6    1    1    2    0  503  0.74104779254E+02 -0.52291596962E+02 -0.11461428414E+03  0.22571301148E+03  0.17200000000E+03 0.  1.
<mgrwt>
<rscale>  2 0.19444775E+03</rscale>
<asrwt>0</asrwt>
<pdfrwt beam="1">  1       21 0.62147543E-01 0.19444775E+03</pdfrwt>
<pdfrwt beam="2">  1       21 0.54782472E-01 0.19444775E+03</pdfrwt>
<totfact> 0.75464806E+03</totfact>
</mgrwt>
</event>
<event>
 4    1  0.1110581E+000  0.1811023E+03  0.7546771E-02  0.1166740E+00
         21   -1    0    0  501  502  0.00000000000E+00  0.00000000000E+00  0.19730195432E+03  0.19730195432E+03  0.00000000000E+00 0. -1.
         21   -1    0    0  502  503 -0.00000000000E+00 -0.00000000000E+00 -0.30354935837E+03  0.30354935837E+03  0.00000000000E+00 0.  1.
          6    1    1    2  501    0  0.55887898526E+02 -0.95174937687E+01  0.11530874092E+03  0.21469547183E+03  0.17200000000E+03 0. -1.
         -6    1    1    2    0  503 -0.55887898526E+02  0.95174937687E+01 -0.22155614497E+03  0.28615584087E+03  0.17200000000E+03 0.  1.
<mgrwt>
<rscale>  2 0.18110229E+03</rscale>
<asrwt>0</asrwt>
<pdfrwt beam="1">  1       21 0.49325489E-01 0.18110229E+03</pdfrwt>
<pdfrwt beam="2">  1       21 0.75887339E-01 0.18110229E+03</pdfrwt>
<totfact> 0.61242251E+03</totfact>
</mgrwt>
</event>
<event>
 4    1  0.1110581E+000  0.2063244E+03  0.7546771E-02  0.1144510E+00
         21   -1    0    0  501  502  0.00000000000E+00  0.00000000000E+00  0.93271756576E+02  0.93271756576E+02  0.00000000000E+00 0.  1.
         21   -1    0    0  502  503 -0.00000000000E+00 -0.00000000000E+00 -0.46642743692E+03  0.46642743692E+03  0.00000000000E+00 0. -1.
          6    1    1    2  501    0 -0.10517332359E+03  0.43867147889E+02 -0.14555689202E+03  0.25250062074E+03  0.17200000000E+03 0. -1.
         -6    1    1    2    0  503  0.10517332359E+03 -0.43867147889E+02 -0.22759878832E+03  0.30719857276E+03  0.17200000000E+03 0.  1.
<mgrwt>
<rscale>  2 0.20632439E+03</rscale>
<asrwt>0</asrwt>
<pdfrwt beam="1">  1       21 0.23317940E-01 0.20632439E+03</pdfrwt>
<pdfrwt beam="2">  1       21 0.11660686E+00 0.20632439E+03</pdfrwt>
<totfact> 0.97047387E+03</totfact>
</mgrwt>
</event>
<event>
 4    1  0.1110581E+000  0.2540372E+03  0.7546771E-02  0.1110780E+00
         21   -1    0    0  501  502  0.00000000000E+00  0.00000000000E+00  0.12718325639E+03  0.12718325639E+03  0.00000000000E+00 0.  1.
         21   -1    0    0  502  503 -0.00000000000E+00 -0.00000000000E+00 -0.52095134456E+03  0.52095134456E+03  0.00000000000E+00 0.  1.
          6    1    1    2  501    0  0.41812113076E+02 -0.18221591855E+03 -0.24911907834E+03  0.35580220484E+03  0.17200000000E+03 0.  1.
         -6    1    1    2    0  503 -0.41812113076E+02  0.18221591855E+03 -0.14464900983E+03  0.29233239611E+03  0.17200000000E+03 0.  1.
<mgrwt>
<rscale>  2 0.25403719E+03</rscale>
<asrwt>0</asrwt>
<pdfrwt beam="1">  1       21 0.31795815E-01 0.25403719E+03</pdfrwt>
<pdfrwt beam="2">  1       21 0.13023783E+00 0.25403719E+03</pdfrwt>
<totfact> 0.39067119E+03</totfact>
</mgrwt>
</event>
<event>
 4    1  0.1110581E+000  0.1953240E+03  0.7546771E-02  0.1153745E+00
         21   -1    0    0  503  502  0.00000000000E+00  0.00000000000E+00  0.70580593067E+03  0.70580593067E+03  0.00000000000E+00 0. -1.
         21   -1    0    0  501  503 -0.00000000000E+00 -0.00000000000E+00 -0.63659371920E+02  0.63659371920E+02  0.00000000000E+00 0. -1.
          6    1    1    2  501    0  0.66840061030E+02 -0.64030095995E+02  0.47052156836E+03  0.50945264082E+03  0.17200000000E+03 0. -1.
         -6    1    1    2    0  502 -0.66840061030E+02  0.64030095995E+02  0.17162499039E+03  0.26001266177E+03  0.17200000000E+03 0. -1.
<mgrwt>
<rscale>  2 0.19532395E+03</rscale>
<asrwt>0</asrwt>
<pdfrwt beam="1">  1       21 0.17645146E+00 0.19532395E+03</pdfrwt>
<pdfrwt beam="2">  1       21 0.15914845E-01 0.19532395E+03</pdfrwt>
<totfact> 0.67603375E+03</totfact>
</mgrwt>
</event>
<event>
 4    1  0.1110581E+000  0.2099620E+03  0.7546771E-02  0.1141596E+00
         21   -1    0    0  501  502  0.00000000000E+00  0.00000000000E+00  0.13993842519E+03  0.13993842519E+03  0.00000000000E+00 0.  1.
         21   -1    0    0  502  503 -0.00000000000E+00 -0.00000000000E+00 -0.36518801936E+03  0.36518801936E+03  0.00000000000E+00 0. -1.
          6    1    1    2  501    0 -0.55711966340E+02 -0.10675299717E+03 -0.19018285817E+02  0.21082153779E+03  0.17200000000E+03 0. -1.
         -6    1    1    2    0  503  0.55711966340E+02  0.10675299717E+03 -0.20623130836E+03  0.29430490677E+03  0.17200000000E+03 0. -1.
<mgrwt>
<rscale>  2 0.20996196E+03</rscale>
<asrwt>0</asrwt>
<pdfrwt beam="1">  1       21 0.34984607E-01 0.20996196E+03</pdfrwt>
<pdfrwt beam="2">  1       21 0.91297004E-01 0.20996196E+03</pdfrwt>
<totfact> 0.79056789E+03</totfact>
</mgrwt>
</event>
<event>
 4    1  0.1110581E+000  0.2415060E+03  0.7546771E-02  0.1118794E+00
         21   -1    0    0  501  502  0.00000000000E+00  0.00000000000E+00  0.26835835974E+03  0.26835835974E+03  0.00000000000E+00 0. -1.
         21   -1    0    0  502  503 -0.00000000000E+00 -0.00000000000E+00 -0.38912473645E+03  0.38912473645E+03  0.00000000000E+00 0.  1.
          6    1    1    2  501    0  0.11948234562E+02  0.16911063967E+03  0.15804148534E+03  0.28862134337E+03  0.17200000000E+03 0. -1.
         -6    1    1    2    0  503 -0.11948234562E+02 -0.16911063967E+03 -0.27880786205E+03  0.36886175283E+03  0.17200000000E+03 0.  1.
<mgrwt>
<rscale>  2 0.24150604E+03</rscale>
<asrwt>0</asrwt>
<pdfrwt beam="1">  1       21 0.67089590E-01 0.24150604E+03</pdfrwt>
<pdfrwt beam="2">  1       21 0.97281183E-01 0.24150604E+03</pdfrwt>
<totfact> 0.17096701E+03</totfact>
</mgrwt>
</event>
<event>
 4    1  0.1110581E+000  0.1825278E+03  0.7546771E-02  0.1165379E+00
         21   -1    0    0  503  502  0.00000000000E+00  0.00000000000E+00  0.31325069566E+03  0.31325069566E+03  0.00000000000E+00 0.  1.
         21   -1    0    0  501  503 -0.00000000000E+00 -0.00000000000E+00 -0.11565245745E+03  0.11565245745E+03  0.00000000000E+00 0.  1.
          6    1    1    2  501    0 -0.15544070557E+02 -0.59082868570E+02  0.15959683312E+03  0.24246144566E+03  0.17200000000E+03 0.  1.
         -6    1    1    2    0  502  0.15544070557E+02  0.59082868570E+02  0.38001405096E+02  0.18644170745E+03  0.17200000000E+03 0.  1.
<mgrwt>
<rscale>  2 0.18252782E+03</rscale>
<asrwt>0</asrwt>
<pdfrwt beam="1">  1       21 0.78312672E-01 0.18252782E+03</pdfrwt>
<pdfrwt beam="2">  1       21 0.28913115E-01 0.18252782E+03</pdfrwt>
<totfact> 0.16627371E+04</totfact>
</mgrwt>
</event>
<event>
 4    1  0.1110581E+000  0.1827793E+03  0.7546771E-02  0.1165140E+00
         21   -1    0    0  503  502  0.00000000000E+00  0.00000000000E+00  0.30295539273E+02  0.30295539273E+02  0.00000000000E+00 0. -1.
         21   -1    0    0  501  503 -0.00000000000E+00 -0.00000000000E+00 -0.12541044218E+04  0.12541044218E+04  0.00000000000E+00 0.  1.
          6    1    1    2  501    0  0.43796806236E+02  0.43659165556E+02 -0.83500816450E+03  0.85477887068E+03  0.17200000000E+03 0. -1.
         -6    1    1    2    0  502 -0.43796806236E+02 -0.43659165556E+02 -0.38880071801E+03  0.42962109038E+03  0.17200000000E+03 0. -1.
<mgrwt>
<rscale>  2 0.18277933E+03</rscale>
<asrwt>0</asrwt>
<pdfrwt beam="1">  1       21 0.75738856E-02 0.18277933E+03</pdfrwt>
<pdfrwt beam="2">  1       21 0.31352607E+00 0.18277933E+03</pdfrwt>
<totfact> 0.38120523E+03</totfact>
</mgrwt>
</event>
<event>
 4    1  0.1110581E+000  0.2096380E+03  0.7546771E-02  0.1141853E+00
         21   -1    0    0  501  502  0.00000000000E+00  0.00000000000E+00  0.16498563694E+03  0.16498563694E+03  0.00000000000E+00 0. -1.
         21   -1    0    0  502  503 -0.00000000000E+00 -0.00000000000E+00 -0.35965615974E+03  0.35965615974E+03  0.00000000000E+00 0. -1.
          6    1    1    2  501    0  0.11252229092E+03 -0.41265354736E+02  0.36258277073E+02  0.21275045972E+03  0.17200000000E+03 0. -1.
         -6    1    1    2    0  503 -0.11252229092E+03  0.41265354736E+02 -0.23092879988E+03  0.31189133696E+03  0.17200000000E+03 0. -1.
<mgrwt>
<rscale>  2 0.20963801E+03</rscale>
<asrwt>0</asrwt>
<pdfrwt beam="1">  1       21 0.41246410E-01 0.20963801E+03</pdfrwt>
<pdfrwt beam="2">  1       21 0.89914039E-01 0.20963801E+03</pdfrwt>
<totfact> 0.58842313E+03</totfact>
</mgrwt>
</event>
<event>
 4    1  0.1110581E+000  0.1900162E+03  0.7546771E-02  0.1158447E+00
         21   -1    0    0  501  502  0.00000000000E+00  0.00000000000E+00  0.31920518107E+03  0.31920518107E+03  0.00000000000E+00 0.  1.
         21   -1    0    0  502  503 -0.00000000000E+00 -0.00000000000E+00 -0.20889913400E+03  0.20889913400E+03  0.00000000000E+00 0.  1.
          6    1    1    2  501    0 -0.19081116590E+02  0.78473280129E+02  0.23395549238E+03  0.30139893351E+03  0.17200000000E+03 0.  1.
         -6    1    1    2    0  503  0.19081116590E+02 -0.78473280129E+02 -0.12364944531E+03  0.22670538156E+03  0.17200000000E+03 0.  1.
<mgrwt>
<rscale>  2 0.19001617E+03</rscale>
<asrwt>0</asrwt>
<pdfrwt beam="1">  1       21 0.79801295E-01 0.19001617E+03</pdfrwt>
<pdfrwt beam="2">  1       21 0.52224784E-01 0.19001617E+03</pdfrwt>
<totfact> 0.48216085E+03</totfact>
</mgrwt>
</event>
<event>
 4    1  0.1110581E+000  0.1797090E+03  0.7546771E-02  0.1168085E+00
         21   -1    0    0  501  502  0.00000000000E+00  0.00000000000E+00  0.43567123934E+03  0.43567123934E+03  0.00000000000E+00 0. -1.
         21   -1    0    0  502  503 -0.00000000000E+00 -0.00000000000E+00 -0.11921160169E+03  0.11921160169E+03  0.00000000000E+00 0. -1.
          6    1    1    2  501    0 -0.51852848718E+02 -0.47538765465E+01  0.32884696391E+03  0.37474743886E+03  0.17200000000E+03 0.  1.
         -6    1    1    2    0  503  0.51852848718E+02  0.47538765465E+01 -0.12387326267E+02  0.18013540217E+03  0.17200000000E+03 0.  1.
<mgrwt>
<rscale>  2 0.17970898E+03</rscale>
<asrwt>0</asrwt>
<pdfrwt beam="1">  1       21 0.10891781E+00 0.17970898E+03</pdfrwt>
<pdfrwt beam="2">  1       21 0.29802901E-01 0.17970898E+03</pdfrwt>
<totfact> 0.72917380E+03</totfact>
</mgrwt>
</event>
<event>
 4    1  0.1110581E+000  0.1730746E+03  0.7546771E-02  0.1174679E+00
         21   -1    0    0  503  502  0.00000000000E+00  0.00000000000E+00  0.22854549823E+03  0.22854549823E+03  0.00000000000E+00 0.  1.
         21   -1    0    0  501  503 -0.00000000000E+00 -0.00000000000E+00 -0.32609186462E+03  0.32609186462E+03  0.00000000000E+00 0.  1.
          6    1    1    2  501    0 -0.15777888267E+01 -0.19191554526E+02 -0.26323697459E+03  0.31503731521E+03  0.17200000000E+03 0.  1.
         -6    1    1    2    0  502  0.15777888267E+01  0.19191554526E+02  0.16569060820E+03  0.23960004764E+03  0.17200000000E+03 0.  1.
<mgrwt>
<rscale>  2 0.17307457E+03</rscale>
<asrwt>0</asrwt>
<pdfrwt beam="1">  1       21 0.57136375E-01 0.17307457E+03</pdfrwt>
<pdfrwt beam="2">  1       21 0.81522965E-01 0.17307457E+03</pdfrwt>
<totfact> 0.38546990E+03</totfact>
</mgrwt>
</event>
<event>
 4    1  0.1110581E+000  0.1747831E+03  0.7546771E-02  0.1172950E+00
         21   -1    0    0  503  502  0.00000000000E+00  0.00000000000E+00  0.19991198254E+02  0.19991198254E+02  0.00000000000E+00 0. -1.
         21   -1    0    0  501  503 -0.00000000000E+00 -0.00000000000E+00 -0.16837137933E+04  0.16837137933E+04  0.00000000000E+00 0. -1.
          6    1    1    2  501    0 -0.19871542680E+02 -0.23880170601E+02 -0.10908096032E+04  0.11047238258E+04  0.17200000000E+03 0.  1.
         -6    1    1    2    0  502  0.19871542680E+02  0.23880170601E+02 -0.57291299182E+03  0.59898116577E+03  0.17200000000E+03 0.  1.
<mgrwt>
<rscale>  2 0.17478312E+03</rscale>
<asrwt>0</asrwt>
<pdfrwt beam="1">  1       21 0.49978002E-02 0.17478312E+03</pdfrwt>
<pdfrwt beam="2">  1       21 0.42092840E+00 0.17478312E+03</pdfrwt>
<totfact> 0.17811743E+03</totfact>
</mgrwt>
</event>
<event>
 4    1  0.1110581E+000  0.2235809E+03  0.7546771E-02  0.1131241E+00
         21   -1    0    0  501  502  0.00000000000E+00  0.00000000000E+00  0.10667842377E+03  0.10667842377E+03  0.00000000000E+00 0. -1.
         21   -1    0    0  502  503 -0.00000000000E+00 -0.00000000000E+00 -0.90478791985E+03  0.90478791985E+03  0.00000000000E+00 0. -1.
          6    1    1    2  501    0  0.11885328657E+03 -0.79235814234E+02 -0.47906946477E+02  0.22865584075E+03  0.17200000000E+03 0. -1.
         -6    1    1    2    0  503 -0.11885328657E+03  0.79235814234E+02 -0.75020254960E+03  0.78281050287E+03  0.17200000000E+03 0. -1.
<mgrwt>
<rscale>  2 0.22358090E+03</rscale>
<asrwt>0</asrwt>
<pdfrwt beam="1">  1       21 0.26669606E-01 0.22358090E+03</pdfrwt>
<pdfrwt beam="2">  1       21 0.22619698E+00 0.22358090E+03</pdfrwt>
<totfact> 0.11929884E+03</totfact>
</mgrwt>
</event>
<event>
 4    1  0.1110581E+000  0.1751537E+03  0.7546771E-02  0.1172577E+00
         21   -1    0    0  501  502  0.00000000000E+00  0.00000000000E+00  0.10604013873E+04  0.10604013873E+04  0.00000000000E+00 0.  1.
         21   -1    0    0  502  503 -0.00000000000E+00 -0.00000000000E+00 -0.33982939463E+02  0.33982939463E+02  0.00000000000E+00 0.  1.
          6    1    1    2  501    0  0.65982133819E+01 -0.32423569988E+02  0.72418092633E+03  0.74506163394E+03  0.17200000000E+03 0.  1.
         -6    1    1    2    0  503 -0.65982133819E+01  0.32423569988E+02  0.30223752147E+03  0.34932269279E+03  0.17200000000E+03 0.  1.
<mgrwt>
<rscale>  2 0.17515372E+03</rscale>
<asrwt>0</asrwt>
<pdfrwt beam="1">  1       21 0.26510024E+00 0.17515372E+03</pdfrwt>
<pdfrwt beam="2">  1       21 0.84957384E-02 0.17515372E+03</pdfrwt>
<totfact> 0.59781322E+03</totfact>
</mgrwt>
</event>
<event>
 4    1  0.1110581E+000  0.1819991E+03  0.7546771E-02  0.1165882E+00
         21   -1    0    0  501  502  0.00000000000E+00  0.00000000000E+00  0.20431184016E+03  0.20431184016E+03  0.00000000000E+00 0.  1.
         21   -1    0    0  502  503 -0.00000000000E+00 -0.00000000000E+00 -0.16318562748E+03  0.16318562748E+03  0.00000000000E+00 0.  1.
          6    1    1    2  501    0 -0.14573863845E+02 -0.57682651967E+02  0.57366784361E+01  0.18208952558E+03  0.17200000000E+03 0.  1.
         -6    1    1    2    0  503  0.14573863845E+02  0.57682651967E+02  0.35389534247E+02  0.18540794206E+03  0.17200000000E+03 0.  1.
<mgrwt>
<rscale>  2 0.18199914E+03</rscale>
<asrwt>0</asrwt>
<pdfrwt beam="1">  1       21 0.51077960E-01 0.18199914E+03</pdfrwt>
<pdfrwt beam="2">  1       21 0.40796407E-01 0.18199914E+03</pdfrwt>
<totfact> 0.21225815E+04</totfact>
</mgrwt>
</event>
<event>
 4    1  0.1110581E+000  0.1968546E+03  0.7546771E-02  0.1152420E+00
         21   -1    0    0  501  502  0.00000000000E+00  0.00000000000E+00  0.53846101106E+03  0.53846101106E+03  0.00000000000E+00 0. -1.
         21   -1    0    0  502  503 -0.00000000000E+00 -0.00000000000E+00 -0.74434671993E+02  0.74434671993E+02  0.00000000000E+00 0. -1.
          6    1    1    2  501    0  0.92922714510E+02  0.23088678106E+02  0.28780421956E+03  0.34868752018E+03  0.17200000000E+03 0. -1.
         -6    1    1    2    0  503 -0.92922714510E+02 -0.23088678106E+02  0.17622211951E+03  0.26420816288E+03  0.17200000000E+03 0. -1.
<mgrwt>
<rscale>  2 0.19685456E+03</rscale>
<asrwt>0</asrwt>
<pdfrwt beam="1">  1       21 0.13461524E+00 0.19685456E+03</pdfrwt>
<pdfrwt beam="2">  1       21 0.18608670E-01 0.19685456E+03</pdfrwt>
<totfact> 0.10413991E+04</totfact>
</mgrwt>
</event>
<event>
 4    1  0.1110581E+000  0.1866617E+03  0.7546771E-02  0.1161507E+00
         21   -1    0    0  503  502  0.00000000000E+00  0.00000000000E+00  0.44367982339E+03  0.44367982339E+03  0.00000000000E+00 0.  1.
         21   -1    0    0  501  503 -0.00000000000E+00 -0.00000000000E+00 -0.13069907651E+03  0.13069907651E+03  0.00000000000E+00 0.  1.
          6    1    1    2  501    0  0.65499288885E+02  0.31119859516E+02 -0.24950363264E+02  0.18832186046E+03  0.17200000000E+03 0.  1.
         -6    1    1    2    0  502 -0.65499288885E+02 -0.31119859516E+02  0.33793111014E+03  0.38605703944E+03  0.17200000000E+03 0.  1.
<mgrwt>
<rscale>  2 0.18666173E+03</rscale>
<asrwt>0</asrwt>
<pdfrwt beam="1">  1       21 0.11091995E+00 0.18666173E+03</pdfrwt>
<pdfrwt beam="2">  1       21 0.32674770E-01 0.18666173E+03</pdfrwt>
<totfact> 0.57972644E+03</totfact>
</mgrwt>
</event>
<event>
 4    1  0.1110581E+000  0.2192721E+03  0.7546771E-02  0.1134427E+00
         21   -1    0    0  501  502  0.00000000000E+00  0.00000000000E+00  0.12738699837E+03  0.12738699837E+03  0.00000000000E+00 0. -1.
         21   -1    0    0  502  503 -0.00000000000E+00 -0.00000000000E+00 -0.46091872126E+03  0.46091872126E+03  0.00000000000E+00 0. -1.
          6    1    1    2  501    0  0.10876602711E+03  0.81646862929E+02 -0.41577810005E+02  0.22317924000E+03  0.17200000000E+03 0. -1.
         -6    1    1    2    0  503 -0.10876602711E+03 -0.81646862929E+02 -0.29195391289E+03  0.36512647964E+03  0.17200000000E+03 0. -1.
<mgrwt>
<rscale>  2 0.21927211E+03</rscale>
<asrwt>0</asrwt>
<pdfrwt beam="1">  1       21 0.31846750E-01 0.21927211E+03</pdfrwt>
<pdfrwt beam="2">  1       21 0.11522968E+00 0.21927211E+03</pdfrwt>
<totfact> 0.54197829E+03</totfact>
</mgrwt>
</event>
<event>
 4    1  0.1110581E+000  0.3529540E+03  0.7546771E-02  0.1061409E+00
         21   -1    0    0  503  502  0.00000000000E+00  0.00000000000E+00  0.34287608668E+03  0.34287608668E+03  0.00000000000E+00 0. -1.
         21   -1    0    0  501  503 -0.00000000000E+00 -0.00000000000E+00 -0.53183180507E+03  0.53183180507E+03  0.00000000000E+00 0. -1.
          6    1    1    2  501    0 -0.29534754400E+03  0.88104118201E+02 -0.34065666468E+03  0.49053386283E+03  0.17200000000E+03 0. -1.
         -6    1    1    2    0  502  0.29534754400E+03 -0.88104118201E+02  0.15170094628E+03  0.38417402892E+03  0.17200000000E+03 0. -1.
<mgrwt>
<rscale>  2 0.35295397E+03</rscale>
<asrwt>0</asrwt>
<pdfrwt beam="1">  1       21 0.85719022E-01 0.35295397E+03</pdfrwt>
<pdfrwt beam="2">  1       21 0.13295795E+00 0.35295397E+03</pdfrwt>
<totfact> 0.42003526E+02</totfact>
</mgrwt>
</event>
<event>
 4    1  0.1110581E+000  0.2062241E+03  0.7546771E-02  0.1144591E+00
         21   -1    0    0  503  502  0.00000000000E+00  0.00000000000E+00  0.52954538725E+02  0.52954538725E+02  0.00000000000E+00 0. -1.
         21   -1    0    0  501  503 -0.00000000000E+00 -0.00000000000E+00 -0.11335385520E+04  0.11335385520E+04  0.00000000000E+00 0.  1.
          6    1    1    2  501    0 -0.70360328902E+02 -0.89408014178E+02 -0.86059075547E+03  0.88495469787E+03  0.17200000000E+03 0.  1.
         -6    1    1    2    0  502  0.70360328902E+02  0.89408014178E+02 -0.21999325779E+03  0.30153839284E+03  0.17200000000E+03 0. -1.
<mgrwt>
<rscale>  2 0.20622407E+03</rscale>
<asrwt>0</asrwt>
<pdfrwt beam="1">  1       21 0.13238635E-01 0.20622407E+03</pdfrwt>
<pdfrwt beam="2">  1       21 0.28338463E+00 0.20622407E+03</pdfrwt>
<totfact> 0.20594321E+03</totfact>
</mgrwt>
</event>
<event>
 4    1  0.1110581E+000  0.2621173E+03  0.7546771E-02  0.1105878E+00
         21   -1    0    0  503  502  0.00000000000E+00  0.00000000000E+00  0.65643546612E+02  0.65643546612E+02  0.00000000000E+00 0. -1.
         21   -1    0    0  501  503 -0.00000000000E+00 -0.00000000000E+00 -0.24412371341E+04  0.24412371341E+04  0.00000000000E+00 0. -1.
          6    1    1    2  501    0 -0.18327537523E+03  0.74374698972E+02 -0.21351727596E+04  0.21512015648E+04  0.17200000000E+03 0. -1.
         -6    1    1    2    0  502  0.18327537523E+03 -0.74374698972E+02 -0.24042082785E+03  0.35567911589E+03  0.17200000000E+03 0. -1.
<mgrwt>
<rscale>  2 0.26211726E+03</rscale>
<asrwt>0</asrwt>
<pdfrwt beam="1">  1       21 0.16410888E-01 0.26211726E+03</pdfrwt>
<pdfrwt beam="2">  1       21 0.61030922E+00 0.26211726E+03</pdfrwt>
<totfact> 0.83658118E+00</totfact>
</mgrwt>
</event>
<event>
 4    1  0.1110581E+000  0.1721678E+03  0.7546771E-02  0.1175606E+00
         21   -1    0    0  503  502  0.00000000000E+00  0.00000000000E+00  0.31047571399E+03  0.31047571399E+03  0.00000000000E+00 0.  1.
         21   -1    0    0  501  503 -0.00000000000E+00 -0.00000000000E+00 -0.10836733220E+03  0.10836733220E+03  0.00000000000E+00 0.  1.
          6    1    1    2  501    0  0.56699359216E+01 -0.50583565233E+01  0.28812398838E+02  0.17456199320E+03  0.17200000000E+03 0.  1.
         -6    1    1    2    0  502 -0.56699359216E+01  0.50583565233E+01  0.17329598295E+03  0.24428105299E+03  0.17200000000E+03 0.  1.
<mgrwt>
<rscale>  2 0.17216775E+03</rscale>
<asrwt>0</asrwt>
<pdfrwt beam="1">  1       21 0.77618927E-01 0.17216775E+03</pdfrwt>
<pdfrwt beam="2">  1       21 0.27091834E-01 0.17216775E+03</pdfrwt>
<totfact> 0.19360407E+04</totfact>
</mgrwt>
</event>
<event>
 4    1  0.1110581E+000  0.2525153E+03  0.7546771E-02  0.1111725E+00
         21   -1    0    0  501  502  0.00000000000E+00  0.00000000000E+00  0.46314398026E+03  0.46314398026E+03  0.00000000000E+00 0.  1.
         21   -1    0    0  502  503 -0.00000000000E+00 -0.00000000000E+00 -0.26216310627E+03  0.26216310627E+03  0.00000000000E+00 0. -1.
          6    1    1    2  501    0  0.14227216204E+03 -0.11806198997E+03 -0.14941033900E+03  0.29340663075E+03  0.17200000000E+03 0.  1.
         -6    1    1    2    0  503 -0.14227216204E+03  0.11806198997E+03  0.35039121298E+03  0.43190045578E+03  0.17200000000E+03 0.  1.
<mgrwt>
<rscale>  2 0.25251535E+03</rscale>
<asrwt>0</asrwt>
<pdfrwt beam="1">  1       21 0.11578599E+00 0.25251535E+03</pdfrwt>
<pdfrwt beam="2">  1       21 0.65540777E-01 0.25251535E+03</pdfrwt>
<totfact> 0.11708075E+03</totfact>
</mgrwt>
</event>
<event>
 4    1  0.1110581E+000  0.2112042E+03  0.7546771E-02  0.1140616E+00
         21   -1    0    0  501  502  0.00000000000E+00  0.00000000000E+00  0.37673312964E+03  0.37673312964E+03  0.00000000000E+00 0.  1.
         21   -1    0    0  502  503 -0.00000000000E+00 -0.00000000000E+00 -0.21366842101E+03  0.21366842101E+03  0.00000000000E+00 0.  1.
          6    1    1    2  501    0 -0.30888656030E+02 -0.11861328821E+03  0.27864277889E+03  0.34964127250E+03  0.17200000000E+03 0.  1.
         -6    1    1    2    0  503  0.30888656030E+02  0.11861328821E+03 -0.11557807026E+03  0.24076027815E+03  0.17200000000E+03 0.  1.
<mgrwt>
<rscale>  2 0.21120422E+03</rscale>
<asrwt>0</asrwt>
<pdfrwt beam="1">  1       21 0.94183281E-01 0.21120422E+03</pdfrwt>
<pdfrwt beam="2">  1       21 0.53417106E-01 0.21120422E+03</pdfrwt>
<totfact> 0.30877072E+03</totfact>
</mgrwt>
</event>
<event>
 4    1  0.1110581E+000  0.2084794E+03  0.7546771E-02  0.1142776E+00
         21   -1    0    0  501  502  0.00000000000E+00  0.00000000000E+00  0.84434369498E+02  0.84434369498E+02  0.00000000000E+00 0. -1.
         21   -1    0    0  502  503 -0.00000000000E+00 -0.00000000000E+00 -0.15739568360E+04  0.15739568360E+04  0.00000000000E+00 0. -1.
          6    1    1    2  501    0  0.11539967368E+02 -0.11724548319E+03 -0.64542888084E+02  0.21824174343E+03  0.17200000000E+03 0. -1.
         -6    1    1    2    0  503 -0.11539967368E+02  0.11724548319E+03 -0.14249795785E+04  0.14401494621E+04  0.17200000000E+03 0. -1.
<mgrwt>
<rscale>  2 0.20847943E+03</rscale>
<asrwt>0</asrwt>
<pdfrwt beam="1">  1       21 0.21108592E-01 0.20847943E+03</pdfrwt>
<pdfrwt beam="2">  1       21 0.39348922E+00 0.20847943E+03</pdfrwt>
<totfact> 0.19429568E+02</totfact>
</mgrwt>
</event>
<event>
 4    1  0.1110581E+000  0.1873887E+03  0.7546771E-02  0.1160838E+00
         21   -1    0    0  501  502  0.00000000000E+00  0.00000000000E+00  0.46663535363E+03  0.46663535363E+03  0.00000000000E+00 0.  1.
         21   -1    0    0  502  503 -0.00000000000E+00 -0.00000000000E+00 -0.79753382703E+02  0.79753382703E+02  0.00000000000E+00 0.  1.
          6    1    1    2  501    0 -0.42824704736E+02  0.60799320302E+02  0.12852588912E+03  0.22722987669E+03  0.17200000000E+03 0.  1.
         -6    1    1    2    0  503  0.42824704736E+02 -0.60799320302E+02  0.25835608181E+03  0.31915885965E+03  0.17200000000E+03 0.  1.
<mgrwt>
<rscale>  2 0.18738867E+03</rscale>
<asrwt>0</asrwt>
<pdfrwt beam="1">  1       21 0.11665883E+00 0.18738867E+03</pdfrwt>
<pdfrwt beam="2">  1       21 0.19938347E-01 0.18738867E+03</pdfrwt>
<totfact> 0.13190633E+04</totfact>
</mgrwt>
</event>
<event>
 4    1  0.1110581E+000  0.1894065E+03  0.7546771E-02  0.1158998E+00
         21   -1    0    0  503  502  0.00000000000E+00  0.00000000000E+00  0.10751755968E+03  0.10751755968E+03  0.00000000000E+00 0. -1.
         21   -1    0    0  501  503 -0.00000000000E+00 -0.00000000000E+00 -0.38517933781E+03  0.38517933781E+03  0.00000000000E+00 0.  1.
          6    1    1    2  501    0  0.56810850123E+01 -0.79110868560E+02 -0.22892243926E+03  0.29711998830E+03  0.17200000000E+03 0.  1.
         -6    1    1    2    0  502 -0.56810850123E+01  0.79110868560E+02 -0.48739338869E+02  0.19557690918E+03  0.17200000000E+03 0. -1.
<mgrwt>
<rscale>  2 0.18940645E+03</rscale>
<asrwt>0</asrwt>
<pdfrwt beam="1">  1       21 0.26879390E-01 0.18940645E+03</pdfrwt>
<pdfrwt beam="2">  1       21 0.96294834E-01 0.18940645E+03</pdfrwt>
<totfact> 0.11856216E+04</totfact>
</mgrwt>
</event>
<event>
 4    1  0.1110581E+000  0.1987449E+03  0.7546771E-02  0.1150802E+00
         21   -1    0    0  501  502  0.00000000000E+00  0.00000000000E+00  0.67964240763E+02  0.67964240763E+02  0.00000000000E+00 0. -1.
         21   -1    0    0  502  503 -0.00000000000E+00 -0.00000000000E+00 -0.69850428946E+03  0.69850428946E+03  0.00000000000E+00 0. -1.
          6    1    1    2  501    0 -0.99556611032E+02  0.20088249035E+01 -0.15820802341E+03  0.25402624441E+03  0.17200000000E+03 0. -1.
         -6    1    1    2    0  503  0.99556611032E+02 -0.20088249035E+01 -0.47233202529E+03  0.51244228581E+03  0.17200000000E+03 0. -1.
<mgrwt>
<rscale>  2 0.19874495E+03</rscale>
<asrwt>0</asrwt>
<pdfrwt beam="1">  1       21 0.16991060E-01 0.19874495E+03</pdfrwt>
<pdfrwt beam="2">  1       21 0.17462607E+00 0.19874495E+03</pdfrwt>
<totfact> 0.61540984E+03</totfact>
</mgrwt>
</event>
<event>
 4    1  0.1110581E+000  0.2098962E+03  0.7546771E-02  0.1141648E+00
         21   -1    0    0  501  502  0.00000000000E+00  0.00000000000E+00  0.16759952847E+03  0.16759952847E+03  0.00000000000E+00 0.  1.
         21   -1    0    0  502  503 -0.00000000000E+00 -0.00000000000E+00 -0.40269931645E+03  0.40269931645E+03  0.00000000000E+00 0. -1.
          6    1    1    2  501    0 -0.28592212988E+02  0.11685414847E+03  0.50479641889E+02  0.21588098782E+03  0.17200000000E+03 0. -1.
         -6    1    1    2    0  503  0.28592212988E+02 -0.11685414847E+03 -0.28557942987E+03  0.35441785709E+03  0.17200000000E+03 0. -1.
<mgrwt>
<rscale>  2 0.20989618E+03</rscale>
<asrwt>0</asrwt>
<pdfrwt beam="1">  1       21 0.41899882E-01 0.20989618E+03</pdfrwt>
<pdfrwt beam="2">  1       21 0.10067483E+00 0.20989618E+03</pdfrwt>
<totfact> 0.43692813E+03</totfact>
</mgrwt>
</event>
<event>
 4    1  0.1110581E+000  0.1729692E+03  0.7546771E-02  0.1174786E+00
         21   -1    0    0  501  502  0.00000000000E+00  0.00000000000E+00  0.16420880325E+03  0.16420880325E+03  0.00000000000E+00 0.  1.
         21   -1    0    0  502  503 -0.00000000000E+00 -0.00000000000E+00 -0.31164859268E+03  0.31164859268E+03  0.00000000000E+00 0.  1.
          6    1    1    2  501    0  0.13170293373E+02  0.12683920271E+02  0.79624559245E+02  0.19041640921E+03  0.17200000000E+03 0.  1.
         -6    1    1    2    0  503 -0.13170293373E+02 -0.12683920271E+02 -0.22706434867E+03  0.28544098672E+03  0.17200000000E+03 0.  1.
<mgrwt>
<rscale>  2 0.17296918E+03</rscale>
<asrwt>0</asrwt>
<pdfrwt beam="1">  1       21 0.41052201E-01 0.17296918E+03</pdfrwt>
<pdfrwt beam="2">  1       21 0.77912148E-01 0.17296918E+03</pdfrwt>
<totfact> 0.84644999E+03</totfact>
</mgrwt>
</event>
<event>
 4    1  0.1110581E+000  0.1883729E+03  0.7546771E-02  0.1159937E+00
         21   -1    0    0  501  502  0.00000000000E+00  0.00000000000E+00  0.18686863293E+03  0.18686863293E+03  0.00000000000E+00 0. -1.
         21   -1    0    0  502  503 -0.00000000000E+00 -0.00000000000E+00 -0.20213287957E+03  0.20213287957E+03  0.00000000000E+00 0. -1.
          6    1    1    2  501    0 -0.41464076592E+02  0.64661291410E+02  0.40237187274E+02  0.19262238576E+03  0.17200000000E+03 0. -1.
         -6    1    1    2    0  503  0.41464076592E+02 -0.64661291410E+02 -0.55501433912E+02  0.19637912674E+03  0.17200000000E+03 0. -1.
<mgrwt>
<rscale>  2 0.18837291E+03</rscale>
<asrwt>0</asrwt>
<pdfrwt beam="1">  1       21 0.46717158E-01 0.18837291E+03</pdfrwt>
<pdfrwt beam="2">  1       21 0.50533220E-01 0.18837291E+03</pdfrwt>
<totfact> 0.16393756E+04</totfact>
</mgrwt>
</event>
<event>
 4    1  0.1110581E+000  0.2481131E+03  0.7546771E-02  0.1114503E+00
         21   -1    0    0  501  502  0.00000000000E+00  0.00000000000E+00  0.22374956680E+03  0.22374956680E+03  0.00000000000E+00 0.  1.
         21   -1    0    0  502  503 -0.00000000000E+00 -0.00000000000E+00 -0.45742667127E+03  0.45742667127E+03  0.00000000000E+00 0. -1.
          6    1    1    2  501    0 -0.13899757971E+03 -0.11249803344E+03  0.98171402017E+02  0.26682908175E+03  0.17200000000E+03 0.  1.
         -6    1    1    2    0  503  0.13899757971E+03  0.11249803344E+03 -0.33184850648E+03  0.41434715632E+03  0.17200000000E+03 0. -1.
<mgrwt>
<rscale>  2 0.24811315E+03</rscale>
<asrwt>0</asrwt>
<pdfrwt beam="1">  1       21 0.55937392E-01 0.24811315E+03</pdfrwt>
<pdfrwt beam="2">  1       21 0.11435667E+00 0.24811315E+03</pdfrwt>
<totfact> 0.17066738E+03</totfact>
</mgrwt>
</event>
<event>
 4    1  0.1110581E+000  0.3125210E+03  0.7546771E-02  0.1079144E+00
         21   -1    0    0  503  502  0.00000000000E+00  0.00000000000E+00  0.10168754122E+04  0.10168754122E+04  0.00000000000E+00 0. -1.
         21   -1    0    0  501  503 -0.00000000000E+00 -0.00000000000E+00 -0.97268426495E+02  0.97268426495E+02  0.00000000000E+00 0.  1.
          6    1    1    2  501    0  0.17283435314E+03  0.19548314384E+03  0.39741715306E+03  0.50557864541E+03  0.17200000000E+03 0. -1.
         -6    1    1    2    0  502 -0.17283435314E+03 -0.19548314384E+03  0.52218983261E+03  0.60856519325E+03  0.17200000000E+03 0.  1.
<mgrwt>
<rscale>  2 0.31252100E+03</rscale>
<asrwt>0</asrwt>
<pdfrwt beam="1">  1       21 0.25421882E+00 0.31252100E+03</pdfrwt>
<pdfrwt beam="2">  1       21 0.24317110E-01 0.31252100E+03</pdfrwt>
<totfact> 0.89234854E+02</totfact>
</mgrwt>
</event>
<event>
 4    1  0.1110581E+000  0.2502943E+03  0.7546771E-02  0.1113119E+00
         21   -1    0    0  501  502  0.00000000000E+00  0.00000000000E+00  0.64818202244E+03  0.64818202244E+03  0.00000000000E+00 0. -1.
         21   -1    0    0  502  503 -0.00000000000E+00 -0.00000000000E+00 -0.27873849042E+03  0.27873849042E+03  0.00000000000E+00 0. -1.
          6    1    1    2  501    0  0.14722629103E+03 -0.10671287895E+03  0.55931030735E+03  0.61276034403E+03  0.17200000000E+03 0. -1.
         -6    1    1    2    0  503 -0.14722629103E+03  0.10671287895E+03 -0.18986677533E+03  0.31416016883E+03  0.17200000000E+03 0. -1.
<mgrwt>
<rscale>  2 0.25029427E+03</rscale>
<asrwt>0</asrwt>
<pdfrwt beam="1">  1       21 0.16204550E+00 0.25029427E+03</pdfrwt>
<pdfrwt beam="2">  1       21 0.69684624E-01 0.25029427E+03</pdfrwt>
<totfact> 0.42857518E+02</totfact>
</mgrwt>
</event>
<event>
 4    1  0.1110581E+000  0.2786701E+03  0.7546771E-02  0.1096418E+00
         21   -1    0    0  501  502  0.00000000000E+00  0.00000000000E+00  0.32829829686E+03  0.32829829686E+03  0.00000000000E+00 0.  1.
         21   -1    0    0  502  503 -0.00000000000E+00 -0.00000000000E+00 -0.25117954889E+03  0.25117954889E+03  0.00000000000E+00 0. -1.
          6    1    1    2  501    0  0.21923793393E+03 -0.27875397379E+01 -0.31379230686E+02  0.28043127174E+03  0.17200000000E+03 0. -1.
         -6    1    1    2    0  503 -0.21923793393E+03  0.27875397379E+01  0.10849797865E+03  0.29904657401E+03  0.17200000000E+03 0.  1.
<mgrwt>
<rscale>  2 0.27867013E+03</rscale>
<asrwt>0</asrwt>
<pdfrwt beam="1">  1       21 0.82074574E-01 0.27867013E+03</pdfrwt>
<pdfrwt beam="2">  1       21 0.62794887E-01 0.27867013E+03</pdfrwt>
<totfact> 0.28647514E+03</totfact>
</mgrwt>
</event>
<event>
 4    1  0.1110581E+000  0.2033390E+03  0.7546771E-02  0.1146952E+00
         21   -1    0    0  503  502  0.00000000000E+00  0.00000000000E+00  0.19802374936E+03  0.19802374936E+03  0.00000000000E+00 0.  1.
         21   -1    0    0  501  503 -0.00000000000E+00 -0.00000000000E+00 -0.38586904863E+03  0.38586904863E+03  0.00000000000E+00 0. -1.
          6    1    1    2  501    0 -0.78897497238E+02  0.74417273098E+02 -0.29169167599E+03  0.35557106104E+03  0.17200000000E+03 0. -1.
         -6    1    1    2    0  502  0.78897497238E+02 -0.74417273098E+02  0.10384637672E+03  0.22832173695E+03  0.17200000000E+03 0.  1.
<mgrwt>
<rscale>  2 0.20333899E+03</rscale>
<asrwt>0</asrwt>
<pdfrwt beam="1">  1       21 0.49505938E-01 0.20333899E+03</pdfrwt>
<pdfrwt beam="2">  1       21 0.96467261E-01 0.20333899E+03</pdfrwt>
<totfact> 0.34455142E+03</totfact>
</mgrwt>
</event>
<event>
 4    1  0.1110581E+000  0.2081673E+03  0.7546771E-02  0.1143026E+00
         21   -1    0    0  503  502  0.00000000000E+00  0.00000000000E+00  0.15952319058E+04  0.15952319058E+04  0.00000000000E+00 0.  1.
         21   -1    0    0  501  503 -0.00000000000E+00 -0.00000000000E+00 -0.10575752659E+03  0.10575752659E+03  0.00000000000E+00 0. -1.
          6    1    1    2  501    0  0.83622598622E+02 -0.82200331014E+02  0.11561494266E+02  0.20848813292E+03  0.17200000000E+03 0. -1.
         -6    1    1    2    0  502 -0.83622598622E+02  0.82200331014E+02  0.14779128849E+04  0.14925012994E+04  0.17200000000E+03 0.  1.
<mgrwt>
<rscale>  2 0.20816732E+03</rscale>
<asrwt>0</asrwt>
<pdfrwt beam="1">  1       21 0.39880790E+00 0.20816732E+03</pdfrwt>
<pdfrwt beam="2">  1       21 0.26439387E-01 0.20816732E+03</pdfrwt>
<totfact> 0.11739404E+02</totfact>
</mgrwt>
</event>
<event>
 4    1  0.1110581E+000  0.2362400E+03  0.7546771E-02  0.1122323E+00
         21   -1    0    0  503  502  0.00000000000E+00  0.00000000000E+00  0.14318091155E+03  0.14318091155E+03  0.00000000000E+00 0. -1.
         21   -1    0    0  501  503 -0.00000000000E+00 -0.00000000000E+00 -0.75182802086E+03  0.75182802086E+03  0.00000000000E+00 0.  1.
          6    1    1    2  501    0 -0.13276583538E+03 -0.92728402148E+02 -0.61486536946E+03  0.65868713831E+03  0.17200000000E+03 0.  1.
         -6    1    1    2    0  502  0.13276583538E+03  0.92728402148E+02  0.62182601493E+01  0.23632179410E+03  0.17200000000E+03 0.  1.
<mgrwt>
<rscale>  2 0.23623997E+03</rscale>
<asrwt>0</asrwt>
<pdfrwt beam="1">  1       21 0.35795228E-01 0.23623997E+03</pdfrwt>
<pdfrwt beam="2">  1       21 0.18795700E+00 0.23623997E+03</pdfrwt>
<totfact> 0.11592087E+03</totfact>
</mgrwt>
</event>
<event>
 4    1  0.1110581E+000  0.1749525E+03  0.7546771E-02  0.1172779E+00
         21   -1    0    0  503  502  0.00000000000E+00  0.00000000000E+00  0.12304593278E+03  0.12304593278E+03  0.00000000000E+00 0. -1.
         21   -1    0    0  501  503 -0.00000000000E+00 -0.00000000000E+00 -0.47827806602E+03  0.47827806602E+03  0.00000000000E+00 0. -1.
          6    1    1    2  501    0  0.30637757993E+02 -0.92569821604E+01 -0.38589767208E+03  0.42370435123E+03  0.17200000000E+03 0. -1.
         -6    1    1    2    0  502 -0.30637757993E+02  0.92569821604E+01  0.30665538842E+02  0.17761964758E+03  0.17200000000E+03 0. -1.
<mgrwt>
<rscale>  2 0.17495246E+03</rscale>
<asrwt>0</asrwt>
<pdfrwt beam="1">  1       21 0.30761483E-01 0.17495246E+03</pdfrwt>
<pdfrwt beam="2">  1       21 0.11956952E+00 0.17495246E+03</pdfrwt>
<totfact> 0.54857952E+03</totfact>
</mgrwt>
</event>
<event>
 4    1  0.1110581E+000  0.1830753E+03  0.7546771E-02  0.1164860E+00
         21   -1    0    0  503  502  0.00000000000E+00  0.00000000000E+00  0.14779375210E+03  0.14779375210E+03  0.00000000000E+00 0. -1.
         21   -1    0    0  501  503 -0.00000000000E+00 -0.00000000000E+00 -0.51918751630E+03  0.51918751630E+03  0.00000000000E+00 0. -1.
          6    1    1    2  501    0 -0.33111614155E+02 -0.53255855709E+02 -0.43597120731E+03  0.47285035557E+03  0.17200000000E+03 0. -1.
         -6    1    1    2    0  502  0.33111614155E+02  0.53255855709E+02  0.64577443109E+02  0.19413091283E+03  0.17200000000E+03 0. -1.
<mgrwt>
<rscale>  2 0.18307530E+03</rscale>
<asrwt>0</asrwt>
<pdfrwt beam="1">  1       21 0.36948438E-01 0.18307530E+03</pdfrwt>
<pdfrwt beam="2">  1       21 0.12979688E+00 0.18307530E+03</pdfrwt>
<totfact> 0.30920685E+03</totfact>
</mgrwt>
</event>
<event>
 4    1  0.1110581E+000  0.1809653E+03  0.7546771E-02  0.1166872E+00
         21   -1    0    0  501  502  0.00000000000E+00  0.00000000000E+00  0.54197482292E+03  0.54197482292E+03  0.00000000000E+00 0.  1.
         21   -1    0    0  502  503 -0.00000000000E+00 -0.00000000000E+00 -0.75398734401E+02  0.75398734401E+02  0.00000000000E+00 0.  1.
          6    1    1    2  501    0 -0.33143245655E+02  0.45452702530E+02  0.37085430117E+03  0.41265159105E+03  0.17200000000E+03 0. -1.
         -6    1    1    2    0  503  0.33143245655E+02 -0.45452702530E+02  0.95721787346E+02  0.20472196627E+03  0.17200000000E+03 0. -1.
<mgrwt>
<rscale>  2 0.18096525E+03</rscale>
<asrwt>0</asrwt>
<pdfrwt beam="1">  1       21 0.13549369E+00 0.18096525E+03</pdfrwt>
<pdfrwt beam="2">  1       21 0.18849685E-01 0.18096525E+03</pdfrwt>
<totfact> 0.10119784E+04</totfact>
</mgrwt>
</event>
<event>
 4    1  0.1110581E+000  0.2306977E+03  0.7546771E-02  0.1126150E+00
         21   -1    0    0  503  502  0.00000000000E+00  0.00000000000E+00  0.29914227601E+03  0.29914227601E+03  0.00000000000E+00 0.  1.
         21   -1    0    0  501  503 -0.00000000000E+00 -0.00000000000E+00 -0.69357562637E+03  0.69357562637E+03  0.00000000000E+00 0.  1.
          6    1    1    2  501    0  0.52656344501E+02  0.14444638077E+03 -0.62520465011E+03  0.66641001047E+03  0.17200000000E+03 0.  1.
         -6    1    1    2    0  502 -0.52656344501E+02 -0.14444638077E+03  0.23077129975E+03  0.32630789191E+03  0.17200000000E+03 0.  1.
<mgrwt>
<rscale>  2 0.23069774E+03</rscale>
<asrwt>0</asrwt>
<pdfrwt beam="1">  1       21 0.74785570E-01 0.23069774E+03</pdfrwt>
<pdfrwt beam="2">  1       21 0.17339390E+00 0.23069774E+03</pdfrwt>
<totfact> 0.30945137E+02</totfact>
</mgrwt>
</event>
<event>
 4    1  0.1110581E+000  0.1750064E+03  0.7546771E-02  0.1172725E+00
         21   -1    0    0  501  502  0.00000000000E+00  0.00000000000E+00  0.93155094590E+03  0.93155094590E+03  0.00000000000E+00 0. -1.
         21   -1    0    0  502  503 -0.00000000000E+00 -0.00000000000E+00 -0.68709321568E+02  0.68709321568E+02  0.00000000000E+00 0. -1.
          6    1    1    2  501    0  0.10646010670E+02 -0.30494207681E+02  0.79258821196E+03  0.81167931352E+03  0.17200000000E+03 0. -1.
         -6    1    1    2    0  503 -0.10646010670E+02  0.30494207681E+02  0.70253412373E+02  0.18858095396E+03  0.17200000000E+03 0. -1.
<mgrwt>
<rscale>  2 0.17500638E+03</rscale>
<asrwt>0</asrwt>
<pdfrwt beam="1">  1       21 0.23288770E+00 0.17500638E+03</pdfrwt>
<pdfrwt beam="2">  1       21 0.17177333E-01 0.17500638E+03</pdfrwt>
<totfact> 0.26230605E+03</totfact>
</mgrwt>
</event>
<event>
 4    1  0.1110581E+000  0.2115562E+03  0.7546771E-02  0.1140340E+00
         21   -1    0    0  501  502  0.00000000000E+00  0.00000000000E+00  0.39538679891E+03  0.39538679891E+03  0.00000000000E+00 0.  1.
         21   -1    0    0  502  503 -0.00000000000E+00 -0.00000000000E+00 -0.15870770558E+03  0.15870770558E+03  0.00000000000E+00 0. -1.
          6    1    1    2  501    0 -0.11261446061E+03 -0.49899856057E+02  0.26670019063E+03  0.34041886560E+03  0.17200000000E+03 0.  1.
         -6    1    1    2    0  503  0.11261446061E+03  0.49899856057E+02 -0.30021097310E+02  0.21367563889E+03  0.17200000000E+03 0. -1.
<mgrwt>
<rscale>  2 0.21155617E+03</rscale>
<asrwt>0</asrwt>
<pdfrwt beam="1">  1       21 0.98846698E-01 0.21155617E+03</pdfrwt>
<pdfrwt beam="2">  1       21 0.39676927E-01 0.21155617E+03</pdfrwt>
<totfact> 0.50915083E+03</totfact>
</mgrwt>
</event>
<event>
 4    1  0.1110581E+000  0.2114168E+03  0.7546771E-02  0.1140449E+00
         21   -1    0    0  501  502  0.00000000000E+00  0.00000000000E+00  0.17075278670E+03  0.17075278670E+03  0.00000000000E+00 0. -1.
         21   -1    0    0  502  503 -0.00000000000E+00 -0.00000000000E+00 -0.28172765236E+03  0.28172765236E+03  0.00000000000E+00 0. -1.
          6    1    1    2  501    0  0.95589680925E+02 -0.77302612790E+02 -0.11571087980E+03  0.24101055734E+03  0.17200000000E+03 0. -1.
         -6    1    1    2    0  503 -0.95589680925E+02  0.77302612790E+02  0.47360141397E+01  0.21146988172E+03  0.17200000000E+03 0. -1.
<mgrwt>
<rscale>  2 0.21141684E+03</rscale>
<asrwt>0</asrwt>
<pdfrwt beam="1">  1       21 0.42688197E-01 0.21141684E+03</pdfrwt>
<pdfrwt beam="2">  1       21 0.70431913E-01 0.21141684E+03</pdfrwt>
<totfact> 0.95254896E+03</totfact>
</mgrwt>
</event>
<event>
 4    1  0.1110581E+000  0.2026505E+03  0.7546771E-02  0.1147522E+00
         21   -1    0    0  501  502  0.00000000000E+00  0.00000000000E+00  0.45461772630E+03  0.45461772630E+03  0.00000000000E+00 0. -1.
         21   -1    0    0  502  503 -0.00000000000E+00 -0.00000000000E+00 -0.23452109413E+03  0.23452109413E+03  0.00000000000E+00 0.  1.
          6    1    1    2  501    0 -0.80405893739E+02  0.70838629164E+02  0.38022612940E+03  0.43085859468E+03  0.17200000000E+03 0. -1.
         -6    1    1    2    0  503  0.80405893739E+02 -0.70838629164E+02 -0.16012949723E+03  0.25828022575E+03  0.17200000000E+03 0.  1.
<mgrwt>
<rscale>  2 0.20265049E+03</rscale>
<asrwt>0</asrwt>
<pdfrwt beam="1">  1       21 0.11365443E+00 0.20265049E+03</pdfrwt>
<pdfrwt beam="2">  1       21 0.58630274E-01 0.20265049E+03</pdfrwt>
<totfact> 0.16272429E+03</totfact>
</mgrwt>
</event>
<event>
 4    1  0.1110581E+000  0.2622016E+03  0.7546771E-02  0.1105828E+00
         21   -1    0    0  501  502  0.00000000000E+00  0.00000000000E+00  0.18255921448E+03  0.18255921448E+03  0.00000000000E+00 0. -1.
         21   -1    0    0  502  503 -0.00000000000E+00 -0.00000000000E+00 -0.68861577722E+03  0.68861577722E+03  0.00000000000E+00 0.  1.
          6    1    1    2  501    0 -0.19635946009E+03  0.24670298161E+02  0.40184806336E+02  0.26526303896E+03  0.17200000000E+03 0.  1.
         -6    1    1    2    0  503  0.19635946009E+03 -0.24670298161E+02 -0.54624136908E+03  0.60591195274E+03  0.17200000000E+03 0.  1.
<mgrwt>
<rscale>  2 0.26220157E+03</rscale>
<asrwt>0</asrwt>
<pdfrwt beam="1">  1       21 0.45639804E-01 0.26220157E+03</pdfrwt>
<pdfrwt beam="2">  1       21 0.17215394E+00 0.26220157E+03</pdfrwt>
<totfact> 0.88822969E+02</totfact>
</mgrwt>
</event>
<event>
 4    1  0.1110581E+000  0.1733046E+03  0.7546771E-02  0.1174445E+00
         21   -1    0    0  503  502  0.00000000000E+00  0.00000000000E+00  0.17497716269E+03  0.17497716269E+03  0.00000000000E+00 0. -1.
         21   -1    0    0  501  503 -0.00000000000E+00 -0.00000000000E+00 -0.18263972304E+03  0.18263972304E+03  0.00000000000E+00 0. -1.
          6    1    1    2  501    0 -0.14775047617E+02 -0.15237718555E+02 -0.47696686032E+02  0.17974833506E+03  0.17200000000E+03 0. -1.
         -6    1    1    2    0  502  0.14775047617E+02  0.15237718555E+02  0.40034125686E+02  0.17786855067E+03  0.17200000000E+03 0. -1.
<mgrwt>
<rscale>  2 0.17330462E+03</rscale>
<asrwt>0</asrwt>
<pdfrwt beam="1">  1       21 0.43744291E-01 0.17330462E+03</pdfrwt>
<pdfrwt beam="2">  1       21 0.45659931E-01 0.17330462E+03</pdfrwt>
<totfact> 0.23356376E+04</totfact>
</mgrwt>
</event>
<event>
 4    1  0.1110581E+000  0.1990322E+03  0.7546771E-02  0.1150558E+00
         21   -1    0    0  503  502  0.00000000000E+00  0.00000000000E+00  0.15526827872E+04  0.15526827872E+04  0.00000000000E+00 0.  1.
         21   -1    0    0  501  503 -0.00000000000E+00 -0.00000000000E+00 -0.19128573720E+03  0.19128573720E+03  0.00000000000E+00 0.  1.
          6    1    1    2  501    0 -0.33865855354E+02 -0.94249248196E+02 -0.13105413428E+03  0.23830443357E+03  0.17200000000E+03 0.  1.
         -6    1    1    2    0  502  0.33865855354E+02  0.94249248196E+02  0.14924511843E+04  0.15056640908E+04  0.17200000000E+03 0.  1.
<mgrwt>
<rscale>  2 0.19903220E+03</rscale>
<asrwt>0</asrwt>
<pdfrwt beam="1">  1       21 0.38817066E+00 0.19903220E+03</pdfrwt>
<pdfrwt beam="2">  1       21 0.47821439E-01 0.19903220E+03</pdfrwt>
<totfact> 0.42576136E+01</totfact>
</mgrwt>
</event>
<event>
 4    1  0.1110581E+000  0.1892185E+03  0.7546771E-02  0.1159168E+00
         21   -1    0    0  501  502  0.00000000000E+00  0.00000000000E+00  0.20266521019E+03  0.20266521019E+03  0.00000000000E+00 0.  1.
         21   -1    0    0  502  503 -0.00000000000E+00 -0.00000000000E+00 -0.24423299886E+03  0.24423299886E+03  0.00000000000E+00 0.  1.
          6    1    1    2  501    0  0.77776610296E+02 -0.13054914823E+02  0.96746562447E+02  0.21251712697E+03  0.17200000000E+03 0.  1.
         -6    1    1    2    0  503 -0.77776610296E+02  0.13054914823E+02 -0.13831435112E+03  0.23438108208E+03  0.17200000000E+03 0.  1.
<mgrwt>
<rscale>  2 0.18921848E+03</rscale>
<asrwt>0</asrwt>
<pdfrwt beam="1">  1       21 0.50666303E-01 0.18921848E+03</pdfrwt>
<pdfrwt beam="2">  1       21 0.61058249E-01 0.18921848E+03</pdfrwt>
<totfact> 0.92724108E+03</totfact>
</mgrwt>
</event>
<event>
 4    1  0.1110581E+000  0.1812085E+03  0.7546771E-02  0.1166639E+00
         21   -1    0    0  501  502  0.00000000000E+00  0.00000000000E+00  0.21096442234E+03  0.21096442234E+03  0.00000000000E+00 0.  1.
         21   -1    0    0  502  503 -0.00000000000E+00 -0.00000000000E+00 -0.17874974370E+03  0.17874974370E+03  0.00000000000E+00 0.  1.
          6    1    1    2  501    0  0.41925368412E+02  0.38662519736E+02  0.86156166524E+02  0.20064748187E+03  0.17200000000E+03 0.  1.
         -6    1    1    2    0  503 -0.41925368412E+02 -0.38662519736E+02 -0.53941487879E+02  0.18906668417E+03  0.17200000000E+03 0.  1.
<mgrwt>
<rscale>  2 0.18120852E+03</rscale>
<asrwt>0</asrwt>
<pdfrwt beam="1">  1       21 0.52741106E-01 0.18120852E+03</pdfrwt>
<pdfrwt beam="2">  1       21 0.44687436E-01 0.18120852E+03</pdfrwt>
<totfact> 0.16497028E+04</totfact>
</mgrwt>
</event>
<event>
 4    1  0.1110581E+000  0.2064283E+03  0.7546771E-02  0.1144426E+00
         21   -1    0    0  503  502  0.00000000000E+00  0.00000000000E+00  0.34581646100E+03  0.34581646100E+03  0.00000000000E+00 0. -1.
         21   -1    0    0  501  503 -0.00000000000E+00 -0.00000000000E+00 -0.27653375742E+03  0.27653375742E+03  0.00000000000E+00 0. -1.
          6    1    1    2  501    0 -0.51981931933E+02 -0.10161957109E+03 -0.19705362055E+03  0.28538182817E+03  0.17200000000E+03 0. -1.
         -6    1    1    2    0  502  0.51981931933E+02  0.10161957109E+03  0.26633632413E+03  0.33696839025E+03  0.17200000000E+03 0. -1.
<mgrwt>
<rscale>  2 0.20642834E+03</rscale>
<asrwt>0</asrwt>
<pdfrwt beam="1">  1       21 0.86454115E-01 0.20642834E+03</pdfrwt>
<pdfrwt beam="2">  1       21 0.69133440E-01 0.20642834E+03</pdfrwt>
<totfact> 0.21684373E+03</totfact>
</mgrwt>
</event>
<event>
 4    1  0.1110581E+000  0.1760363E+03  0.7546771E-02  0.1171695E+00
         21   -1    0    0  503  502  0.00000000000E+00  0.00000000000E+00  0.68604793017E+02  0.68604793017E+02  0.00000000000E+00 0. -1.
         21   -1    0    0  501  503 -0.00000000000E+00 -0.00000000000E+00 -0.53335040443E+03  0.53335040443E+03  0.00000000000E+00 0. -1.
          6    1    1    2  501    0 -0.23067701182E+02  0.29541004689E+02 -0.35013525858E+03  0.39189729407E+03  0.17200000000E+03 0. -1.
         -6    1    1    2    0  502  0.23067701182E+02 -0.29541004689E+02 -0.11461035283E+03  0.21005790338E+03  0.17200000000E+03 0. -1.
<mgrwt>
<rscale>  2 0.17603633E+03</rscale>
<asrwt>0</asrwt>
<pdfrwt beam="1">  1       21 0.17151198E-01 0.17603633E+03</pdfrwt>
<pdfrwt beam="2">  1       21 0.13333760E+00 0.17603633E+03</pdfrwt>
<totfact> 0.12592749E+04</totfact>
</mgrwt>
</event>
<event>
 4    1  0.1110581E+000  0.2687222E+03  0.7546771E-02  0.1102013E+00
         21   -1    0    0  501  502  0.00000000000E+00  0.00000000000E+00  0.42356025149E+03  0.42356025149E+03  0.00000000000E+00 0. -1.
         21   -1    0    0  502  503 -0.00000000000E+00 -0.00000000000E+00 -0.17163440918E+03  0.17163440918E+03  0.00000000000E+00 0. -1.
          6    1    1    2  501    0 -0.10705838531E+03  0.17653936926E+03  0.10163372042E+03  0.28729959954E+03  0.17200000000E+03 0. -1.
         -6    1    1    2    0  503  0.10705838531E+03 -0.17653936926E+03  0.15029212189E+03  0.30789506113E+03  0.17200000000E+03 0. -1.
<mgrwt>
<rscale>  2 0.26872225E+03</rscale>
<asrwt>0</asrwt>
<pdfrwt beam="1">  1       21 0.10589006E+00 0.26872225E+03</pdfrwt>
<pdfrwt beam="2">  1       21 0.42908603E-01 0.26872225E+03</pdfrwt>
<totfact> 0.35389587E+03</totfact>
</mgrwt>
</event>
<event>
 4    1  0.1110581E+000  0.2122171E+03  0.7546771E-02  0.1139822E+00
         21   -1    0    0  501  502  0.00000000000E+00  0.00000000000E+00  0.51594820387E+03  0.51594820387E+03  0.00000000000E+00 0.  1.
         21   -1    0    0  502  503 -0.00000000000E+00 -0.00000000000E+00 -0.22050662574E+03  0.22050662574E+03  0.00000000000E+00 0. -1.
          6    1    1    2  501    0 -0.18509574630E+01 -0.12429276857E+03  0.43393267943E+03  0.48304625932E+03  0.17200000000E+03 0.  1.
         -6    1    1    2    0  503  0.18509574630E+01  0.12429276857E+03 -0.13849110130E+03  0.25340857030E+03  0.17200000000E+03 0. -1.
<mgrwt>
<rscale>  2 0.21221715E+03</rscale>
<asrwt>0</asrwt>
<pdfrwt beam="1">  1       21 0.12898705E+00 0.21221715E+03</pdfrwt>
<pdfrwt beam="2">  1       21 0.55126657E-01 0.21221715E+03</pdfrwt>
<totfact> 0.13430162E+03</totfact>
</mgrwt>
</event>
<event>
 4    1  0.1110581E+000  0.1912797E+03  0.7546771E-02  0.1157312E+00
         21   -1    0    0  503  502  0.00000000000E+00  0.00000000000E+00  0.31488511420E+02  0.31488511420E+02  0.00000000000E+00 0. -1.
         21   -1    0    0  501  503 -0.00000000000E+00 -0.00000000000E+00 -0.21622945146E+04  0.21622945146E+04  0.00000000000E+00 0. -1.
          6    1    1    2  501    0 -0.71273101208E+02  0.43864045253E+02 -0.18114775036E+04  0.18215484225E+04  0.17200000000E+03 0. -1.
         -6    1    1    2    0  502  0.71273101208E+02 -0.43864045253E+02 -0.31932849957E+03  0.37223460352E+03  0.17200000000E+03 0. -1.
<mgrwt>
<rscale>  2 0.19127966E+03</rscale>
<asrwt>0</asrwt>
<pdfrwt beam="1">  1       21 0.78721294E-02 0.19127966E+03</pdfrwt>
<pdfrwt beam="2">  1       21 0.54057353E+00 0.19127966E+03</pdfrwt>
<totfact> 0.11935803E+02</totfact>
</mgrwt>
</event>
<event>
 4    1  0.1110581E+000  0.1838576E+03  0.7546771E-02  0.1164121E+00
         21   -1    0    0  503  502  0.00000000000E+00  0.00000000000E+00  0.76060001747E+02  0.76060001747E+02  0.00000000000E+00 0.  1.
         21   -1    0    0  501  503 -0.00000000000E+00 -0.00000000000E+00 -0.67961606765E+03  0.67961606765E+03  0.00000000000E+00 0.  1.
          6    1    1    2  501    0 -0.31743249882E+02  0.56674426477E+02 -0.52404569217E+03  0.55536250505E+03  0.17200000000E+03 0.  1.
         -6    1    1    2    0  502  0.31743249882E+02 -0.56674426477E+02 -0.79510373725E+02  0.20031356434E+03  0.17200000000E+03 0.  1.
<mgrwt>
<rscale>  2 0.18385762E+03</rscale>
<asrwt>0</asrwt>
<pdfrwt beam="1">  1       21 0.19015001E-01 0.18385762E+03</pdfrwt>
<pdfrwt beam="2">  1       21 0.16990401E+00 0.18385762E+03</pdfrwt>
<totfact> 0.54617660E+03</totfact>
</mgrwt>
</event>
<event>
 4    1  0.1110581E+000  0.2006349E+03  0.7546771E-02  0.1149204E+00
         21   -1    0    0  501  502  0.00000000000E+00  0.00000000000E+00  0.14002118996E+04  0.14002118996E+04  0.00000000000E+00 0. -1.
         21   -1    0    0  502  503 -0.00000000000E+00 -0.00000000000E+00 -0.43889605295E+02  0.43889605295E+02  0.00000000000E+00 0. -1.
          6    1    1    2  501    0  0.10252631767E+03 -0.12597986832E+02  0.11022549791E+04  0.11203661874E+04  0.17200000000E+03 0. -1.
         -6    1    1    2    0  503 -0.10252631767E+03  0.12597986832E+02  0.25406731520E+03  0.32373531741E+03  0.17200000000E+03 0. -1.
<mgrwt>
<rscale>  2 0.20063488E+03</rscale>
<asrwt>0</asrwt>
<pdfrwt beam="1">  1       21 0.35005283E+00 0.20063488E+03</pdfrwt>
<pdfrwt beam="2">  1       21 0.10972406E-01 0.20063488E+03</pdfrwt>
<totfact> 0.11894561E+03</totfact>
</mgrwt>
</event>
<event>
 4    1  0.1110581E+000  0.2789950E+03  0.7546771E-02  0.1096239E+00
         21   -1    0    0  501  502  0.00000000000E+00  0.00000000000E+00  0.12537549624E+03  0.12537549624E+03  0.00000000000E+00 0.  1.
         21   -1    0    0  502  503 -0.00000000000E+00 -0.00000000000E+00 -0.78018794441E+03  0.78018794441E+03  0.00000000000E+00 0.  1.
          6    1    1    2  501    0  0.21696113443E+03  0.34381083143E+02 -0.12277978657E+03  0.30481645087E+03  0.17200000000E+03 0.  1.
         -6    1    1    2    0  503 -0.21696113443E+03 -0.34381083143E+02 -0.53203266160E+03  0.60074698979E+03  0.17200000000E+03 0.  1.
<mgrwt>
<rscale>  2 0.27899497E+03</rscale>
<asrwt>0</asrwt>
<pdfrwt beam="1">  1       21 0.31343875E-01 0.27899497E+03</pdfrwt>
<pdfrwt beam="2">  1       21 0.19504698E+00 0.27899497E+03</pdfrwt>
<totfact> 0.13073930E+03</totfact>
</mgrwt>
</event>
<event>
 4    1  0.1110581E+000  0.2096602E+03  0.7546771E-02  0.1141835E+00
         21   -1    0    0  501  502  0.00000000000E+00  0.00000000000E+00  0.26020528988E+02  0.26020528988E+02  0.00000000000E+00 0. -1.
         21   -1    0    0  502  503 -0.00000000000E+00 -0.00000000000E+00 -0.17276302244E+04  0.17276302244E+04  0.00000000000E+00 0.  1.
          6    1    1    2  501    0 -0.11986139978E+03  0.25768671804E+01 -0.98134944999E+03  0.10034959583E+04  0.17200000000E+03 0.  1.
         -6    1    1    2    0  503  0.11986139978E+03 -0.25768671804E+01 -0.72026024539E+03  0.75015479502E+03  0.17200000000E+03 0. -1.
<mgrwt>
<rscale>  2 0.20966019E+03</rscale>
<asrwt>0</asrwt>
<pdfrwt beam="1">  1       21 0.65051324E-02 0.20966019E+03</pdfrwt>
<pdfrwt beam="2">  1       21 0.43190755E+00 0.20966019E+03</pdfrwt>
<totfact> 0.91427025E+02</totfact>
</mgrwt>
</event>
<event>
 4    1  0.1110581E+000  0.1943987E+03  0.7546771E-02  0.1154553E+00
         21   -1    0    0  503  502  0.00000000000E+00  0.00000000000E+00  0.29214372205E+03  0.29214372205E+03  0.00000000000E+00 0.  1.
         21   -1    0    0  501  503 -0.00000000000E+00 -0.00000000000E+00 -0.12940084901E+03  0.12940084901E+03  0.00000000000E+00 0. -1.
          6    1    1    2  501    0 -0.72140655736E+02 -0.54795924208E+02  0.85246515727E+02  0.21226831126E+03  0.17200000000E+03 0. -1.
         -6    1    1    2    0  502  0.72140655736E+02  0.54795924208E+02  0.77496357312E+02  0.20927625980E+03  0.17200000000E+03 0. -1.
<mgrwt>
<rscale>  2 0.19439873E+03</rscale>
<asrwt>0</asrwt>
<pdfrwt beam="1">  1       21 0.73035929E-01 0.19439873E+03</pdfrwt>
<pdfrwt beam="2">  1       21 0.32350213E-01 0.19439873E+03</pdfrwt>
<totfact> 0.15490451E+04</totfact>
</mgrwt>
</event>
<event>
 4    1  0.1110581E+000  0.2487695E+03  0.7546771E-02  0.1114085E+00
         21   -1    0    0  503  502  0.00000000000E+00  0.00000000000E+00  0.51594793847E+02  0.51594793847E+02  0.00000000000E+00 0.  1.
         21   -1    0    0  501  503 -0.00000000000E+00 -0.00000000000E+00 -0.12478530270E+04  0.12478530270E+04  0.00000000000E+00 0.  1.
          6    1    1    2  501    0 -0.40307307075E+02 -0.17515019434E+03 -0.72606890701E+03  0.76750395915E+03  0.17200000000E+03 0.  1.
         -6    1    1    2    0  502  0.40307307075E+02  0.17515019434E+03 -0.47018932616E+03  0.53194386171E+03  0.17200000000E+03 0.  1.
<mgrwt>
<rscale>  2 0.24876951E+03</rscale>
<asrwt>0</asrwt>
<pdfrwt beam="1">  1       21 0.12898698E-01 0.24876951E+03</pdfrwt>
<pdfrwt beam="2">  1       21 0.31196326E+00 0.24876951E+03</pdfrwt>
<totfact> 0.14053659E+03</totfact>
</mgrwt>
</event>
<event>
 4    1  0.1110581E+000  0.1740259E+03  0.7546771E-02  0.1173713E+00
         21   -1    0    0  503  502  0.00000000000E+00  0.00000000000E+00  0.53980474227E+03  0.53980474227E+03  0.00000000000E+00 0. -1.
         21   -1    0    0  501  503 -0.00000000000E+00 -0.00000000000E+00 -0.66661261925E+02  0.66661261925E+02  0.00000000000E+00 0. -1.
          6    1    1    2  501    0  0.22869435428E+02  0.13341458328E+02  0.11589517048E+03  0.20908537999E+03  0.17200000000E+03 0. -1.
         -6    1    1    2    0  502 -0.22869435428E+02 -0.13341458328E+02  0.35724830987E+03  0.39738062420E+03  0.17200000000E+03 0. -1.
<mgrwt>
<rscale>  2 0.17402588E+03</rscale>
<asrwt>0</asrwt>
<pdfrwt beam="1">  1       21 0.13495117E+00 0.17402588E+03</pdfrwt>
<pdfrwt beam="2">  1       21 0.16665317E-01 0.17402588E+03</pdfrwt>
<totfact> 0.12895794E+04</totfact>
</mgrwt>
</event>
<event>
 4    1  0.1110581E+000  0.2213770E+03  0.7546771E-02  0.1132861E+00
         21   -1    0    0  503  502  0.00000000000E+00  0.00000000000E+00  0.13908631779E+03  0.13908631779E+03  0.00000000000E+00 0. -1.
         21   -1    0    0  501  503 -0.00000000000E+00 -0.00000000000E+00 -0.38344833509E+03  0.38344833509E+03  0.00000000000E+00 0.  1.
          6    1    1    2  501    0 -0.10541796318E+03 -0.91163643702E+02 -0.47782289704E+02  0.22647495249E+03  0.17200000000E+03 0.  1.
         -6    1    1    2    0  502  0.10541796318E+03  0.91163643702E+02 -0.19657972759E+03  0.29605970039E+03  0.17200000000E+03 0.  1.
<mgrwt>
<rscale>  2 0.22137696E+03</rscale>
<asrwt>0</asrwt>
<pdfrwt beam="1">  1       21 0.34771580E-01 0.22137696E+03</pdfrwt>
<pdfrwt beam="2">  1       21 0.95862083E-01 0.22137696E+03</pdfrwt>
<totfact> 0.70827836E+03</totfact>
</mgrwt>
</event>
<event>
 4    1  0.1110581E+000  0.1789080E+03  0.7546771E-02  0.1168864E+00
         21   -1    0    0  501  502  0.00000000000E+00  0.00000000000E+00  0.57753749510E+03  0.57753749510E+03  0.00000000000E+00 0. -1.
         21   -1    0    0  502  503 -0.00000000000E+00 -0.00000000000E+00 -0.10255243007E+03  0.10255243007E+03  0.00000000000E+00 0. -1.
          6    1    1    2  501    0  0.92771511554E+01 -0.48352904719E+02  0.46801633639E+03  0.50104626539E+03  0.17200000000E+03 0. -1.
         -6    1    1    2    0  503 -0.92771511554E+01  0.48352904719E+02  0.69687286440E+01  0.17904365978E+03  0.17200000000E+03 0. -1.
<mgrwt>
<rscale>  2 0.17890799E+03</rscale>
<asrwt>0</asrwt>
<pdfrwt beam="1">  1       21 0.14438436E+00 0.17890799E+03</pdfrwt>
<pdfrwt beam="2">  1       21 0.25638109E-01 0.17890799E+03</pdfrwt>
<totfact> 0.48244104E+03</totfact>
</mgrwt>
</event>
<event>
 4    1  0.1110581E+000  0.1769307E+03  0.7546771E-02  0.1170807E+00
         21   -1    0    0  503  502  0.00000000000E+00  0.00000000000E+00  0.64270101602E+02  0.64270101602E+02  0.00000000000E+00 0.  1.
         21   -1    0    0  501  503 -0.00000000000E+00 -0.00000000000E+00 -0.52311168780E+03  0.52311168780E+03  0.00000000000E+00 0.  1.
          6    1    1    2  501    0  0.16862498842E+02 -0.37896390951E+02 -0.30650304595E+03  0.35390478591E+03  0.17200000000E+03 0.  1.
         -6    1    1    2    0  502 -0.16862498842E+02  0.37896390951E+02 -0.15233854025E+03  0.23347700349E+03  0.17200000000E+03 0.  1.
<mgrwt>
<rscale>  2 0.17693072E+03</rscale>
<asrwt>0</asrwt>
<pdfrwt beam="1">  1       21 0.16067526E-01 0.17693072E+03</pdfrwt>
<pdfrwt beam="2">  1       21 0.13077792E+00 0.17693072E+03</pdfrwt>
<totfact> 0.14894107E+04</totfact>
</mgrwt>
</event>
<event>
 4    1  0.1110581E+000  0.1754651E+03  0.7546771E-02  0.1172266E+00
         21   -1    0    0  503  502  0.00000000000E+00  0.00000000000E+00  0.44026437615E+03  0.44026437615E+03  0.00000000000E+00 0.  1.
         21   -1    0    0  501  503 -0.00000000000E+00 -0.00000000000E+00 -0.48283773489E+03  0.48283773489E+03  0.00000000000E+00 0.  1.
          6    1    1    2  501    0 -0.36809044370E+01  0.34502973940E+02 -0.44810718681E+03  0.48123596618E+03  0.17200000000E+03 0.  1.
         -6    1    1    2    0  502  0.36809044370E+01 -0.34502973940E+02  0.40553382807E+03  0.44186614486E+03  0.17200000000E+03 0.  1.
<mgrwt>
<rscale>  2 0.17546511E+03</rscale>
<asrwt>0</asrwt>
<pdfrwt beam="1">  1       21 0.11006609E+00 0.17546511E+03</pdfrwt>
<pdfrwt beam="2">  1       21 0.12070943E+00 0.17546511E+03</pdfrwt>
<totfact> 0.34666057E+02</totfact>
</mgrwt>
</event>
<event>
 4    1  0.1110581E+000  0.2385771E+03  0.7546771E-02  0.1120744E+00
         21   -1    0    0  503  502  0.00000000000E+00  0.00000000000E+00  0.12906602038E+04  0.12906602038E+04  0.00000000000E+00 0. -1.
         21   -1    0    0  501  503 -0.00000000000E+00 -0.00000000000E+00 -0.10983205897E+03  0.10983205897E+03  0.00000000000E+00 0.  1.
          6    1    1    2  501    0 -0.42728423286E+02 -0.15971637297E+03  0.48697139029E+02  0.24349630244E+03  0.17200000000E+03 0.  1.
         -6    1    1    2    0  502  0.42728423286E+02  0.15971637297E+03  0.11321310058E+04  0.11569959603E+04  0.17200000000E+03 0. -1.
<mgrwt>
<rscale>  2 0.23857711E+03</rscale>
<asrwt>0</asrwt>
<pdfrwt beam="1">  1       21 0.32266500E+00 0.23857711E+03</pdfrwt>
<pdfrwt beam="2">  1       21 0.27458019E-01 0.23857711E+03</pdfrwt>
<totfact> 0.29967761E+02</totfact>
</mgrwt>
</event>
<event>
 4    1  0.1110581E+000  0.2059080E+03  0.7546771E-02  0.1144848E+00
         21   -1    0    0  501  502  0.00000000000E+00  0.00000000000E+00  0.48102145428E+03  0.48102145428E+03  0.00000000000E+00 0. -1.
         21   -1    0    0  502  503 -0.00000000000E+00 -0.00000000000E+00 -0.14846961818E+03  0.14846961818E+03  0.00000000000E+00 0. -1.
          6    1    1    2  501    0  0.39750727497E+02  0.10599048732E+03  0.36690761268E+03  0.42073661592E+03  0.17200000000E+03 0. -1.
         -6    1    1    2    0  503 -0.39750727497E+02 -0.10599048732E+03 -0.34355776572E+02  0.20875445653E+03  0.17200000000E+03 0. -1.
<mgrwt>
<rscale>  2 0.20590800E+03</rscale>
<asrwt>0</asrwt>
<pdfrwt beam="1">  1       21 0.12025536E+00 0.20590800E+03</pdfrwt>
<pdfrwt beam="2">  1       21 0.37117406E-01 0.20590800E+03</pdfrwt>
<totfact> 0.36367480E+03</totfact>
</mgrwt>
</event>
<event>
 4    1  0.1110581E+000  0.3161061E+03  0.7546771E-02  0.1077455E+00
         21   -1    0    0  503  502  0.00000000000E+00  0.00000000000E+00  0.19436750656E+03  0.19436750656E+03  0.00000000000E+00 0. -1.
         21   -1    0    0  501  503 -0.00000000000E+00 -0.00000000000E+00 -0.55146194330E+03  0.55146194330E+03  0.00000000000E+00 0.  1.
          6    1    1    2  501    0  0.21522946018E+03  0.15496893968E+03 -0.27562137638E+03  0.41939269893E+03  0.17200000000E+03 0.  1.
         -6    1    1    2    0  502 -0.21522946018E+03 -0.15496893968E+03 -0.81473060356E+02  0.32643675093E+03  0.17200000000E+03 0. -1.
<mgrwt>
<rscale>  2 0.31610614E+03</rscale>
<asrwt>0</asrwt>
<pdfrwt beam="1">  1       21 0.48591877E-01 0.31610614E+03</pdfrwt>
<pdfrwt beam="2">  1       21 0.13786548E+00 0.31610614E+03</pdfrwt>
<totfact> 0.13684920E+03</totfact>
</mgrwt>
</event>
<event>
 4    1  0.1110581E+000  0.2173844E+03  0.7546771E-02  0.1135848E+00
         21   -1    0    0  501  502  0.00000000000E+00  0.00000000000E+00  0.46829341522E+03  0.46829341522E+03  0.00000000000E+00 0. -1.
         21   -1    0    0  502  503 -0.00000000000E+00 -0.00000000000E+00 -0.10186760945E+03  0.10186760945E+03  0.00000000000E+00 0. -1.
          6    1    1    2  501    0 -0.21811027597E+02 -0.13113446028E+03  0.15558731142E+03  0.26732635312E+03  0.17200000000E+03 0. -1.
         -6    1    1    2    0  503  0.21811027597E+02  0.13113446028E+03  0.21083849434E+03  0.30283467155E+03  0.17200000000E+03 0. -1.
<mgrwt>
<rscale>  2 0.21738438E+03</rscale>
<asrwt>0</asrwt>
<pdfrwt beam="1">  1       21 0.11707335E+00 0.21738438E+03</pdfrwt>
<pdfrwt beam="2">  1       21 0.25466904E-01 0.21738438E+03</pdfrwt>
<totfact> 0.80598012E+03</totfact>
</mgrwt>
</event>
<event>
 4    1  0.1110581E+000  0.2031065E+03  0.7546771E-02  0.1147144E+00
         21   -1    0    0  501  502  0.00000000000E+00  0.00000000000E+00  0.37090325127E+03  0.37090325127E+03  0.00000000000E+00 0. -1.
         21   -1    0    0  502  503 -0.00000000000E+00 -0.00000000000E+00 -0.15676225344E+03  0.15676225344E+03  0.00000000000E+00 0.  1.
          6    1    1    2  501    0  0.23649298066E+02 -0.10539898899E+03  0.24927402855E+03  0.32154280817E+03  0.17200000000E+03 0. -1.
         -6    1    1    2    0  503 -0.23649298066E+02  0.10539898899E+03 -0.35133030719E+02  0.20612269653E+03  0.17200000000E+03 0.  1.
<mgrwt>
<rscale>  2 0.20310647E+03</rscale>
<asrwt>0</asrwt>
<pdfrwt beam="1">  1       21 0.92725811E-01 0.20310647E+03</pdfrwt>
<pdfrwt beam="2">  1       21 0.39190564E-01 0.20310647E+03</pdfrwt>
<totfact> 0.61045563E+03</totfact>
</mgrwt>
</event>
<event>
 4    1  0.1110581E+000  0.2027791E+03  0.7546771E-02  0.1147415E+00
         21   -1    0    0  503  502  0.00000000000E+00  0.00000000000E+00  0.55798919220E+03  0.55798919220E+03  0.00000000000E+00 0.  1.
         21   -1    0    0  501  503 -0.00000000000E+00 -0.00000000000E+00 -0.73723907544E+02  0.73723907544E+02  0.00000000000E+00 0.  1.
          6    1    1    2  501    0 -0.61794550303E+02  0.87845258889E+02  0.24870062845E+03  0.32089150588E+03  0.17200000000E+03 0.  1.
         -6    1    1    2    0  502  0.61794550303E+02 -0.87845258889E+02  0.23556465620E+03  0.31082159386E+03  0.17200000000E+03 0.  1.
<mgrwt>
<rscale>  2 0.20277908E+03</rscale>
<asrwt>0</asrwt>
<pdfrwt beam="1">  1       21 0.13949729E+00 0.20277908E+03</pdfrwt>
<pdfrwt beam="2">  1       21 0.18430979E-01 0.20277908E+03</pdfrwt>
<totfact> 0.96325593E+03</totfact>
</mgrwt>
</event>
<event>
 4    1  0.1110581E+000  0.1935822E+03  0.7546771E-02  0.1155269E+00
         21   -1    0    0  501  502  0.00000000000E+00  0.00000000000E+00  0.13895526080E+03  0.13895526080E+03  0.00000000000E+00 0.  1.
         21   -1    0    0  502  503 -0.00000000000E+00 -0.00000000000E+00 -0.31979230756E+03  0.31979230756E+03  0.00000000000E+00 0. -1.
          6    1    1    2  501    0  0.12084095085E+02 -0.88000331375E+02  0.37656588315E+00  0.19358260634E+03  0.17200000000E+03 0.  1.
         -6    1    1    2    0  503 -0.12084095085E+02  0.88000331375E+02 -0.18121361264E+03  0.26516496202E+03  0.17200000000E+03 0. -1.
<mgrwt>
<rscale>  2 0.19358224E+03</rscale>
<asrwt>0</asrwt>
<pdfrwt beam="1">  1       21 0.34738815E-01 0.19358224E+03</pdfrwt>
<pdfrwt beam="2">  1       21 0.79948076E-01 0.19358224E+03</pdfrwt>
<totfact> 0.10995074E+04</totfact>
</mgrwt>
</event>
<event>
 4    1  0.1110581E+000  0.2132264E+03  0.7546771E-02  0.1139036E+00
         21   -1    0    0  501  502  0.00000000000E+00  0.00000000000E+00  0.63140766695E+03  0.63140766695E+03  0.00000000000E+00 0.  1.
         21   -1    0    0  502  503 -0.00000000000E+00 -0.00000000000E+00 -0.81371016641E+02  0.81371016641E+02  0.00000000000E+00 0. -1.
          6    1    1    2  501    0 -0.10962340800E+03  0.62162856629E+02  0.15411716814E+03  0.26309240552E+03  0.17200000000E+03 0. -1.
         -6    1    1    2    0  503  0.10962340800E+03 -0.62162856629E+02  0.39591948217E+03  0.44968627807E+03  0.17200000000E+03 0.  1.
<mgrwt>
<rscale>  2 0.21322643E+03</rscale>
<asrwt>0</asrwt>
<pdfrwt beam="1">  1       21 0.15785190E+00 0.21322643E+03</pdfrwt>
<pdfrwt beam="2">  1       21 0.20342756E-01 0.21322643E+03</pdfrwt>
<totfact> 0.57395784E+03</totfact>
</mgrwt>
</event>
<event>
 4    1  0.1110581E+000  0.2905967E+03  0.7546771E-02  0.1090038E+00
         21   -1    0    0  503  502  0.00000000000E+00  0.00000000000E+00  0.18074365511E+03  0.18074365511E+03  0.00000000000E+00 0. -1.
         21   -1    0    0  501  503 -0.00000000000E+00 -0.00000000000E+00 -0.84195045336E+03  0.84195045336E+03  0.00000000000E+00 0.  1.
          6    1    1    2  501    0 -0.14919119562E+03 -0.18056690920E+03 -0.67174446471E+03  0.73190644717E+03  0.17200000000E+03 0.  1.
         -6    1    1    2    0  502  0.14919119562E+03  0.18056690920E+03  0.10537666454E+02  0.29078766130E+03  0.17200000000E+03 0. -1.
<mgrwt>
<rscale>  2 0.29059666E+03</rscale>
<asrwt>0</asrwt>
<pdfrwt beam="1">  1       21 0.45185914E-01 0.29059666E+03</pdfrwt>
<pdfrwt beam="2">  1       21 0.21048761E+00 0.29059666E+03</pdfrwt>
<totfact> 0.49065488E+02</totfact>
</mgrwt>
</event>
<event>
 4    1  0.1110581E+000  0.1778162E+03  0.7546771E-02  0.1169933E+00
         21   -1    0    0  503  502  0.00000000000E+00  0.00000000000E+00  0.93017706909E+03  0.93017706909E+03  0.00000000000E+00 0.  1.
         21   -1    0    0  501  503 -0.00000000000E+00 -0.00000000000E+00 -0.36612343735E+02  0.36612343735E+02  0.00000000000E+00 0.  1.
          6    1    1    2  501    0  0.30746514877E+02 -0.33003772097E+02  0.57610234435E+03  0.60291998500E+03  0.17200000000E+03 0. -1.
         -6    1    1    2    0  502 -0.30746514877E+02  0.33003772097E+02  0.31746238100E+03  0.36386942782E+03  0.17200000000E+03 0. -1.
<mgrwt>
<rscale>  2 0.17781619E+03</rscale>
<asrwt>0</asrwt>
<pdfrwt beam="1">  1       21 0.23254419E+00 0.17781619E+03</pdfrwt>
<pdfrwt beam="2">  1       21 0.91530890E-02 0.17781619E+03</pdfrwt>
<totfact> 0.81216489E+03</totfact>
</mgrwt>
</event>
<event>
 4    1  0.1110581E+000  0.1905501E+03  0.7546771E-02  0.1157966E+00
         21   -1    0    0  503  502  0.00000000000E+00  0.00000000000E+00  0.23756050925E+02  0.23756050925E+02  0.00000000000E+00 0. -1.
         21   -1    0    0  501  503 -0.00000000000E+00 -0.00000000000E+00 -0.15528241190E+04  0.15528241190E+04  0.00000000000E+00 0.  1.
          6    1    1    2  501    0 -0.19053295568E+02 -0.79764122834E+02 -0.66572161247E+03  0.69245549220E+03  0.17200000000E+03 0. -1.
         -6    1    1    2    0  502  0.19053295568E+02  0.79764122834E+02 -0.86334645562E+03  0.88412467775E+03  0.17200000000E+03 0. -1.
<mgrwt>
<rscale>  2 0.19055011E+03</rscale>
<asrwt>0</asrwt>
<pdfrwt beam="1">  1       21 0.59390132E-02 0.19055011E+03</pdfrwt>
<pdfrwt beam="2">  1       21 0.38820600E+00 0.19055011E+03</pdfrwt>
<totfact> 0.20737756E+03</totfact>
</mgrwt>
</event>
<event>
 4    1  0.1110581E+000  0.1805230E+03  0.7546771E-02  0.1167298E+00
         21   -1    0    0  501  502  0.00000000000E+00  0.00000000000E+00  0.11055274867E+03  0.11055274867E+03  0.00000000000E+00 0.  1.
         21   -1    0    0  502  503 -0.00000000000E+00 -0.00000000000E+00 -0.41942402176E+03  0.41942402176E+03  0.00000000000E+00 0.  1.
          6    1    1    2  501    0 -0.27593792557E+02 -0.47361605166E+02 -0.99784772139E+01  0.18079853163E+03  0.17200000000E+03 0.  1.
         -6    1    1    2    0  503  0.27593792557E+02  0.47361605166E+02 -0.29889279587E+03  0.34917823881E+03  0.17200000000E+03 0.  1.
<mgrwt>
<rscale>  2 0.18052296E+03</rscale>
<asrwt>0</asrwt>
<pdfrwt beam="1">  1       21 0.27638187E-01 0.18052296E+03</pdfrwt>
<pdfrwt beam="2">  1       21 0.10485600E+00 0.18052296E+03</pdfrwt>
<totfact> 0.92390889E+03</totfact>
</mgrwt>
</event>
<event>
 4    1  0.1110581E+000  0.1840602E+03  0.7546771E-02  0.1163930E+00
         21   -1    0    0  503  502  0.00000000000E+00  0.00000000000E+00  0.13702157986E+03  0.13702157986E+03  0.00000000000E+00 0.  1.
         21   -1    0    0  501  503 -0.00000000000E+00 -0.00000000000E+00 -0.66940499436E+03  0.66940499436E+03  0.00000000000E+00 0. -1.
          6    1    1    2  501    0  0.29170475620E+02 -0.58679125564E+02 -0.58639658097E+03  0.61460483776E+03  0.17200000000E+03 0. -1.
         -6    1    1    2    0  502 -0.29170475620E+02  0.58679125564E+02  0.54013166470E+02  0.19182173646E+03  0.17200000000E+03 0.  1.
<mgrwt>
<rscale>  2 0.18406020E+03</rscale>
<asrwt>0</asrwt>
<pdfrwt beam="1">  1       21 0.34255396E-01 0.18406020E+03</pdfrwt>
<pdfrwt beam="2">  1       21 0.16735125E+00 0.18406020E+03</pdfrwt>
<totfact> 0.18454543E+03</totfact>
</mgrwt>
</event>
<event>
 4    1  0.1110581E+000  0.1833246E+03  0.7546771E-02  0.1164624E+00
         21   -1    0    0  503  502  0.00000000000E+00  0.00000000000E+00  0.13517349205E+04  0.13517349205E+04  0.00000000000E+00 0.  1.
         21   -1    0    0  501  503 -0.00000000000E+00 -0.00000000000E+00 -0.82447828530E+02  0.82447828530E+02  0.00000000000E+00 0.  1.
          6    1    1    2  501    0  0.47951970212E+02 -0.41527146287E+02  0.35349813625E+02  0.18670164608E+03  0.17200000000E+03 0.  1.
         -6    1    1    2    0  502 -0.47951970212E+02  0.41527146287E+02  0.12339372783E+04  0.12474811029E+04  0.17200000000E+03 0.  1.
<mgrwt>
<rscale>  2 0.18332456E+03</rscale>
<asrwt>0</asrwt>
<pdfrwt beam="1">  1       21 0.33793366E+00 0.18332456E+03</pdfrwt>
<pdfrwt beam="2">  1       21 0.20611961E-01 0.18332456E+03</pdfrwt>
<totfact> 0.45585973E+02</totfact>
</mgrwt>
</event>
<event>
 4    1  0.1110581E+000  0.2774090E+03  0.7546771E-02  0.1097113E+00
         21   -1    0    0  501  502  0.00000000000E+00  0.00000000000E+00  0.20440335888E+03  0.20440335888E+03  0.00000000000E+00 0. -1.
         21   -1    0    0  502  503 -0.00000000000E+00 -0.00000000000E+00 -0.52031199536E+03  0.52031199536E+03  0.00000000000E+00 0. -1.
          6    1    1    2  501    0 -0.15515424924E+02 -0.21709683313E+03  0.32556053896E+02  0.27931283538E+03  0.17200000000E+03 0. -1.
         -6    1    1    2    0  503  0.15515424924E+02  0.21709683313E+03 -0.34846469038E+03  0.44540251886E+03  0.17200000000E+03 0. -1.
<mgrwt>
<rscale>  2 0.27740902E+03</rscale>
<asrwt>0</asrwt>
<pdfrwt beam="1">  1       21 0.51100840E-01 0.27740902E+03</pdfrwt>
<pdfrwt beam="2">  1       21 0.13007800E+00 0.27740902E+03</pdfrwt>
<totfact> 0.14657341E+03</totfact>
</mgrwt>
</event>
<event>
 4    1  0.1110581E+000  0.1812913E+03  0.7546771E-02  0.1166559E+00
         21   -1    0    0  503  502  0.00000000000E+00  0.00000000000E+00  0.96766581915E+03  0.96766581915E+03  0.00000000000E+00 0.  1.
         21   -1    0    0  501  503 -0.00000000000E+00 -0.00000000000E+00 -0.39530511912E+02  0.39530511912E+02  0.00000000000E+00 0. -1.
          6    1    1    2  501    0 -0.55401910831E+02 -0.14599975867E+02  0.65303209844E+03  0.67772963091E+03  0.17200000000E+03 0. -1.
         -6    1    1    2    0  502  0.55401910831E+02  0.14599975867E+02  0.27510320880E+03  0.32946670015E+03  0.17200000000E+03 0.  1.
<mgrwt>
<rscale>  2 0.18129129E+03</rscale>
<asrwt>0</asrwt>
<pdfrwt beam="1">  1       21 0.24191638E+00 0.18129129E+03</pdfrwt>
<pdfrwt beam="2">  1       21 0.98826312E-02 0.18129129E+03</pdfrwt>
<totfact> 0.62207177E+03</totfact>
</mgrwt>
</event>
<event>
 4    1  0.1110581E+000  0.2087972E+03  0.7546771E-02  0.1142522E+00
         21   -1    0    0  501  502  0.00000000000E+00  0.00000000000E+00  0.18594241736E+03  0.18594241736E+03  0.00000000000E+00 0.  1.
         21   -1    0    0  502  503 -0.00000000000E+00 -0.00000000000E+00 -0.64833817452E+03  0.64833817452E+03  0.00000000000E+00 0.  1.
          6    1    1    2  501    0 -0.11833925294E+03 -0.28441900224E+01  0.10208808268E+03  0.23241825408E+03  0.17200000000E+03 0.  1.
         -6    1    1    2    0  503  0.11833925294E+03  0.28441900224E+01 -0.56448383985E+03  0.60186233779E+03  0.17200000000E+03 0.  1.
<mgrwt>
<rscale>  2 0.20879719E+03</rscale>
<asrwt>0</asrwt>
<pdfrwt beam="1">  1       21 0.46485605E-01 0.20879719E+03</pdfrwt>
<pdfrwt beam="2">  1       21 0.16208454E+00 0.20879719E+03</pdfrwt>
<totfact> 0.10593991E+03</totfact>
</mgrwt>
</event>
<event>
 4    1  0.1110581E+000  0.1846549E+03  0.7546771E-02  0.1163373E+00
         21   -1    0    0  503  502  0.00000000000E+00  0.00000000000E+00  0.25473359976E+02  0.25473359976E+02  0.00000000000E+00 0. -1.
         21   -1    0    0  501  503 -0.00000000000E+00 -0.00000000000E+00 -0.14013284795E+04  0.14013284795E+04  0.00000000000E+00 0. -1.
          6    1    1    2  501    0 -0.15404760106E+02  0.65392157396E+02 -0.83892129138E+03  0.85900312806E+03  0.17200000000E+03 0. -1.
         -6    1    1    2    0  502  0.15404760106E+02 -0.65392157396E+02 -0.53693382815E+03  0.56779871143E+03  0.17200000000E+03 0. -1.
<mgrwt>
<rscale>  2 0.18465492E+03</rscale>
<asrwt>0</asrwt>
<pdfrwt beam="1">  1       21 0.63683405E-02 0.18465492E+03</pdfrwt>
<pdfrwt beam="2">  1       21 0.35033209E+00 0.18465492E+03</pdfrwt>
<totfact> 0.31331655E+03</totfact>
</mgrwt>
</event>
<event>
 4    1  0.1110581E+000  0.2013006E+03  0.7546771E-02  0.1148646E+00
         21   -1    0    0  501  502  0.00000000000E+00  0.00000000000E+00  0.24287494641E+03  0.24287494641E+03  0.00000000000E+00 0.  1.
         21   -1    0    0  502  503 -0.00000000000E+00 -0.00000000000E+00 -0.21257205482E+03  0.21257205482E+03  0.00000000000E+00 0. -1.
          6    1    1    2  501    0  0.45127024990E+02 -0.94347612218E+02  0.12077289862E+03  0.23475096029E+03  0.17200000000E+03 0. -1.
         -6    1    1    2    0  503 -0.45127024990E+02  0.94347612218E+02 -0.90470007023E+02  0.22069604094E+03  0.17200000000E+03 0. -1.
<mgrwt>
<rscale>  2 0.20130057E+03</rscale>
<asrwt>0</asrwt>
<pdfrwt beam="1">  1       21 0.60718737E-01 0.20130057E+03</pdfrwt>
<pdfrwt beam="2">  1       21 0.53143014E-01 0.20130057E+03</pdfrwt>
<totfact> 0.84183334E+03</totfact>
</mgrwt>
</event>
